Title
42785
    1SAPS     N    1   3.296   1.935  21.220 -0.0496  0.4788 -0.5683
    1SAPS   HN1    2   3.329   1.988  21.136  2.0376 -1.6760 -1.1959
    1SAPS   HN2    3   3.371   1.864  21.233  2.1649  2.6087 -0.9493
    1SAPS   HN3    4   3.210   1.889  21.185 -0.0719 -0.4822  0.6774
    1SAPS   C12    5   3.270   2.029  21.330 -0.2741  0.2877  0.9261
    1SAPS  H12A    6   3.233   1.973  21.415  2.1654 -3.0596 -0.0018
    1SAPS   C13    7   3.393   2.107  21.385 -0.2359 -0.0639  0.1571
    1SAPS  O13A    8   3.507   2.055  21.364 -0.3515 -0.0355  0.1157
    1SAPS  O13B    9   3.374   2.173  21.495 -0.0389  0.3275  0.4711
    1SAPS   C11   10   3.163   2.137  21.285 -0.6135  0.3577  0.1755
    1SAPS  H11A   11   3.191   2.168  21.183 -2.3193  0.3678 -0.3241
    1SAPS  H11B   12   3.175   2.231  21.342 -1.0202  1.5808 -1.6827
    1SAPS     P   13   2.915   2.158  21.358 -0.1256  0.1484  0.0674
    1SAPS   O13   14   2.817   2.186  21.247 -0.5361  0.2607  0.3808
    1SAPS   O14   15   2.852   2.084  21.468 -0.6147  0.4007 -0.0585
    1SAPS   O12   16   3.032   2.080  21.289  0.7403  0.9309 -0.3497
    1SAPS   O11   17   2.976   2.309  21.397  0.3302  0.4885  0.6492
    1SAPS    C1   18   3.018   2.344  21.530 -0.0471 -0.0851 -0.4336
    1SAPS    HA   19   3.048   2.254  21.589  0.7845  1.3718  1.4741
    1SAPS    HB   20   3.113   2.401  21.530  2.9337 -4.5288  0.5808
    1SAPS    C2   21   2.901   2.410  21.609  0.2964  0.5088  0.4080
    1SAPS    HS   22   2.838   2.320  21.627  0.1768  0.4015 -0.5120
    1SAPS   O21   23   2.842   2.508  21.525  0.3218 -0.4428 -0.6847
    1SAPS   C21   24   2.725   2.546  21.561  0.4326 -0.5552  0.6067
    1SAPS   O22   25   2.652   2.509  21.655  0.2591 -0.4448  0.0917
    1SAPS   C22   26   2.664   2.633  21.451 -0.1299 -0.3936  0.4910
    1SAPS   H2R   27   2.744   2.708  21.436  1.3793 -1.5352  2.4825
    1SAPS   H2S   28   2.663   2.571  21.358  2.2133 -0.5301  0.4923
    1SAPS    C3   29   2.946   2.466  21.744  0.3277 -0.4944 -0.2084
    1SAPS    HX   30   2.993   2.386  21.805  0.7660 -0.5703 -0.6382
    1SAPS    HY   31   2.862   2.502  21.807  1.3403 -0.4161  1.1279
    1SAPS   O31   32   3.045   2.569  21.719 -0.3434 -0.4584  0.2698
    1SAPS   C31   33   3.081   2.657  21.810 -0.3769 -0.0923  0.0818
    1SAPS   O32   34   3.044   2.669  21.924  1.1056 -0.3813 -0.4441
    1SAPS   C32   35   3.187   2.745  21.754 -0.3274  0.2924  0.3540
    1SAPS   H2X   36   3.256   2.694  21.684 -0.2253 -0.2991  0.8832
    1SAPS   H2Y   37   3.251   2.779  21.838 -0.7483  0.2441  0.6967
    1SAPS   C23   38   2.538   2.714  21.485 -0.2648 -0.2238 -0.2757
    1SAPS   H3R   39   2.565   2.803  21.547 -0.3564 -0.3304 -0.0813
    1SAPS   H3S   40   2.478   2.643  21.545  0.6389 -2.4081 -1.8028
    1SAPS   C24   41   2.463   2.770  21.362 -0.1666  0.2547  0.0608
    1SAPS   H4R   42   2.372   2.819  21.403 -0.5241 -0.3667  0.0233
    1SAPS   H4S   43   2.427   2.689  21.295  1.0831 -0.6146  0.4191
    1SAPS   C25   44   2.551   2.854  21.270  0.7218 -0.3734 -0.3817
    1SAPS   H5R   45   2.628   2.802  21.212  0.9614  0.1663 -0.5532
    1SAPS   C26   46   2.562   2.990  21.277 -0.0489 -0.4999 -0.0375
    1SAPS   H6R   47   2.632   3.036  21.206  0.2056 -2.2135 -0.9500
    1SAPS   C27   48   2.472   3.084  21.364 -0.3957 -0.3119  0.0726
    1SAPS   H7R   49   2.443   3.045  21.465  1.3489  0.9212  1.1102
    1SAPS   H7S   50   2.377   3.117  21.317 -0.9526 -0.6772  0.9047
    1SAPS   C28   51   2.552   3.216  21.370  0.0109 -0.4479 -0.8615
    1SAPS   H8R   52   2.621   3.228  21.285  0.1098 -1.7199 -0.9812
    1SAPS   C29   53   2.554   3.314  21.465 -0.0898  0.3225 -0.0873
    1SAPS   H9R   54   2.619   3.402  21.452 -0.3055  0.7236  1.4427
    1SAPS  C210   55   2.466   3.313  21.585 -0.2272 -0.3873 -0.2933
    1SAPS  H10R   56   2.542   3.314  21.666  0.6968 -1.8864 -1.0971
    1SAPS  H10S   57   2.415   3.217  21.607 -1.5490  0.1373 -0.9331
    1SAPS  C211   58   2.367   3.425  21.591 -0.4561  0.6071 -0.5203
    1SAPS  H11R   59   2.266   3.392  21.565 -0.4941 -0.4607  0.8492
    1SAPS  C212   60   2.395   3.555  21.628 -0.2320  0.1209  0.1045
    1SAPS  H12R   61   2.318   3.634  21.620 -1.0641 -0.3533  2.6217
    1SAPS  C213   62   2.528   3.609  21.666 -0.6326 -0.4301  0.4641
    1SAPS  H13R   63   2.518   3.719  21.677  1.1342 -0.1594 -0.2475
    1SAPS  H13S   64   2.604   3.580  21.590 -0.4871 -1.7036  1.0584
    1SAPS  C214   65   2.583   3.551  21.794  0.8296  0.0681 -0.5023
    1SAPS  H14R   66   2.629   3.452  21.792  0.0592 -0.2849 -1.4647
    1SAPS  C215   67   2.592   3.619  21.912 -0.5289  0.2647  0.1133
    1SAPS  H15R   68   2.635   3.569  22.000 -1.9667 -1.7244 -0.2570
    1SAPS  C216   69   2.538   3.757  21.935 -0.2188 -0.4358  0.0964
    1SAPS  H16R   70   2.438   3.769  21.888 -0.0719  2.2138  0.3153
    1SAPS  H16S   71   2.604   3.834  21.891 -1.3291  0.9986  0.8687
    1SAPS  C217   72   2.510   3.791  22.079 -0.0535 -0.3956  0.0209
    1SAPS  H17R   73   2.602   3.802  22.140  0.4589  0.5276 -0.8774
    1SAPS  H17S   74   2.459   3.705  22.127  1.3718 -1.7532 -0.8075
    1SAPS  C218   75   2.421   3.914  22.099  0.4655 -0.2605 -0.1796
    1SAPS  H18R   76   2.313   3.898  22.080  0.1827  0.5470  0.6551
    1SAPS  H18S   77   2.461   3.990  22.029  0.8511 -0.3552 -0.0637
    1SAPS  C219   78   2.429   3.972  22.248 -0.2622  0.5271 -0.4253
    1SAPS  H19R   79   2.367   4.063  22.234  0.6592  1.2308 -0.0463
    1SAPS  H19S   80   2.536   3.997  22.265 -0.4298  0.9766  0.0120
    1SAPS  C220   81   2.374   3.880  22.356 -0.4729 -0.0305  0.1746
    1SAPS  H20R   82   2.269   3.854  22.332 -0.0419 -0.8368 -0.9024
    1SAPS  H20S   83   2.378   3.921  22.459  0.6906 -1.0232  0.5621
    1SAPS  H20T   84   2.434   3.786  22.360  2.2730  1.6393  0.8009
    1SAPS   C33   85   3.129   2.871  21.689  0.5867 -0.3009 -0.1075
    1SAPS   H3X   86   3.068   2.928  21.762 -1.2916 -3.7897  1.3191
    1SAPS   H3Y   87   3.063   2.857  21.600  0.7229  2.5556 -0.7563
    1SAPS   C34   88   3.246   2.958  21.641 -0.4975  0.1862 -0.3463
    1SAPS   H4X   89   3.236   2.999  21.539  1.3820  1.5048 -0.0609
    1SAPS   H4Y   90   3.332   2.889  21.631 -0.6829 -0.4293  1.7168
    1SAPS   C35   91   3.270   3.089  21.729 -0.5180  0.6734  0.2297
    1SAPS   H5X   92   3.305   3.038  21.821  1.5052 -1.8229 -1.7388
    1SAPS   H5Y   93   3.177   3.147  21.743 -0.1049  2.2700 -2.6478
    1SAPS   C36   94   3.373   3.186  21.668 -0.4882  0.2102 -0.3670
    1SAPS   H6X   95   3.316   3.260  21.608  0.7090  1.7929  0.4030
    1SAPS   H6Y   96   3.445   3.131  21.605  2.2669  0.3697  2.4007
    1SAPS   C37   97   3.466   3.251  21.775  0.4564 -0.3859 -0.1217
    1SAPS   H7X   98   3.532   3.174  21.822  1.9384  0.6268 -0.4819
    1SAPS   H7Y   99   3.399   3.295  21.852  0.5515  1.4648 -1.0518
    1SAPS   C38  100   3.544   3.364  21.716  0.7263  0.4549 -0.0465
    1SAPS   H8X  101   3.473   3.427  21.659 -2.7485 -0.6472  2.7090
    1SAPS   H8Y  102   3.616   3.314  21.648 -0.7742 -1.5832 -0.2467
    1SAPS   C39  103   3.609   3.446  21.829 -0.7755 -0.0691 -0.3321
    1SAPS   H9X  104   3.667   3.378  21.896  2.0775  1.4890 -1.0868
    1SAPS   H9Y  105   3.533   3.490  21.898 -1.2252 -0.5421 -0.5145
    1SAPS  C310  106   3.700   3.564  21.786  0.6260  0.5075 -0.9691
    1SAPS  H10X  107   3.659   3.621  21.700 -2.7838 -0.6471 -0.2658
    1SAPS  H10Y  108   3.791   3.512  21.751 -0.5079 -1.5407 -1.0340
    1SAPS  C311  109   3.733   3.666  21.896  0.3697 -0.2845 -0.6443
    1SAPS  H11X  110   3.781   3.613  21.981 -1.5128 -0.2293  0.5156
    1SAPS  H11Y  111   3.638   3.712  21.933  1.1236  1.1831 -0.4567
    1SAPS  C312  112   3.819   3.792  21.846  0.3414  0.5346 -0.6223
    1SAPS  H12X  113   3.908   3.752  21.793 -0.8698 -0.2988 -2.1119
    1SAPS  H12Y  114   3.855   3.849  21.934 -1.6384 -1.3922  1.5836
    1SAPS  C313  115   3.753   3.885  21.742 -0.2712  0.1580 -0.1931
    1SAPS  H13X  116   3.661   3.931  21.784 -0.2683  0.1973 -0.2306
    1SAPS  H13Y  117   3.716   3.814  21.666 -0.5019 -0.4459  0.4730
    1SAPS  C314  118   3.852   3.989  21.670  0.0972  0.1894  0.3200
    1SAPS  H14X  119   3.942   3.929  21.645 -1.0812 -2.4793  2.0377
    1SAPS  H14Y  120   3.873   4.068  21.746 -0.9709  1.1309 -0.3239
    1SAPS  C315  121   3.790   4.061  21.555 -0.2866  0.0905  0.4169
    1SAPS  H15X  122   3.763   3.999  21.467 -1.7850 -0.1489  1.0106
    1SAPS  H15Y  123   3.857   4.145  21.526  0.5204 -0.2308  1.3090
    1SAPS  C316  124   3.657   4.130  21.594  0.0239 -0.6278  0.0864
    1SAPS  H16X  125   3.677   4.188  21.686 -1.3701 -3.9342  2.6689
    1SAPS  H16Y  126   3.593   4.044  21.623 -1.3156  0.1617 -0.4555
    1SAPS  C317  127   3.596   4.215  21.481  0.4683 -0.2805  0.5728
    1SAPS  H17X  128   3.587   4.136  21.404 -1.6847  0.7237 -0.3025
    1SAPS  H17Y  129   3.668   4.288  21.436 -1.2814  1.4608  0.4894
    1SAPS  C318  130   3.455   4.284  21.503  0.1523 -0.2186 -0.6043
    1SAPS  H18X  131   3.375   4.209  21.484 -2.2611  1.2284  2.7492
    1SAPS  H18Y  132   3.448   4.380  21.447 -3.2127  0.2448  0.3885
    1SAPS  H18Z  133   3.434   4.306  21.609 -0.1082 -2.0169 -0.2555
    2SAPS     N  134   2.214   2.168  21.849 -0.1998  0.1793 -0.0606
    2SAPS   HN1  135   2.132   2.124  21.803  1.1078  0.0434 -2.4249
    2SAPS   HN2  136   2.261   2.241  21.790 -0.4136  1.0754  0.8413
    2SAPS   HN3  137   2.290   2.099  21.865 -2.1688 -2.1465 -0.1817
    2SAPS   C12  138   2.183   2.236  21.975  0.3756 -0.2358 -0.5661
    2SAPS  H12A  139   2.125   2.160  22.024 -0.7505  0.2612 -1.0880
    2SAPS   C13  140   2.309   2.280  22.056 -0.0950  0.4396 -0.1508
    2SAPS  O13A  141   2.411   2.313  21.992  0.7862 -0.0049  0.3532
    2SAPS  O13B  142   2.297   2.314  22.180 -0.1450  0.2400 -0.1379
    2SAPS   C11  143   2.102   2.365  21.940 -0.4939  1.4973  0.5220
    2SAPS  H11A  144   2.175   2.432  21.890 -0.5100  0.8357 -0.4382
    2SAPS  H11B  145   2.061   2.411  22.032  0.9042 -0.1887  2.0602
    2SAPS     P  146   1.852   2.311  21.879  0.3169  0.1029  0.4159
    2SAPS   O13  147   1.766   2.304  21.755  0.0145  0.3917  0.1923
    2SAPS   O14  148   1.837   2.196  21.975 -0.4583  0.2569  0.4559
    2SAPS   O12  149   2.003   2.325  21.841 -0.1155  0.7815  0.1387
    2SAPS   O11  150   1.824   2.439  21.956 -0.1266  0.2265  0.6446
    2SAPS    C1  151   1.694   2.477  21.992 -0.4556 -0.2801 -0.6571
    2SAPS    HA  152   1.623   2.470  21.907 -2.3005  1.8402  0.6043
    2SAPS    HB  153   1.656   2.416  22.076 -1.2144  0.6307 -0.3278
    2SAPS    C2  154   1.685   2.626  22.039  0.2910  0.4068  0.2450
    2SAPS    HS  155   1.690   2.687  21.946  0.2854 -0.4928 -0.3575
    2SAPS   O21  156   1.771   2.657  22.145 -0.2815  0.3312 -0.6645
    2SAPS   C21  157   1.842   2.767  22.132  0.0594  0.4011  0.1582
    2SAPS   O22  158   1.827   2.852  22.047 -0.5592  0.7106 -0.5772
    2SAPS   C22  159   1.948   2.778  22.246 -0.5177  0.6376  0.4284
    2SAPS   H2R  160   1.902   2.760  22.345 -2.2186  1.9980 -0.0665
    2SAPS   H2S  161   2.014   2.694  22.214 -1.3956  0.2132 -0.3250
    2SAPS    C3  162   1.534   2.653  22.094  0.4300  0.0638 -0.0392
    2SAPS    HX  163   1.528   2.597  22.190 -1.6282 -1.6783 -1.1017
    2SAPS    HY  164   1.464   2.624  22.013  1.7494  2.0279 -1.9957
    2SAPS   O31  165   1.518   2.792  22.120 -0.4374  0.0334  0.8434
    2SAPS   C31  166   1.488   2.882  22.018  0.1673  0.2909 -1.1144
    2SAPS   O32  167   1.468   2.849  21.906  0.0321 -0.7188 -0.0881
    2SAPS   C32  168   1.452   3.017  22.077  0.3116 -0.0988 -0.3076
    2SAPS   H2X  169   1.518   3.035  22.165 -0.0744  1.0221 -0.2305
    2SAPS   H2Y  170   1.348   2.997  22.112  0.4100 -0.9512 -0.4738
    2SAPS   C23  171   2.027   2.914  22.259 -0.2461 -0.7892 -0.1428
    2SAPS   H3R  172   2.071   2.931  22.158 -3.2256 -2.3691 -1.8238
    2SAPS   H3S  173   2.114   2.903  22.328  1.6353  3.5561 -1.4538
    2SAPS   C24  174   1.930   3.026  22.304  0.8328  0.5422  0.6708
    2SAPS   H4R  175   1.833   3.020  22.250  0.9269  1.1644  0.4198
    2SAPS   H4S  176   1.980   3.121  22.275  1.2399  0.1738  0.1527
    2SAPS   C25  177   1.905   3.031  22.455  0.0590 -0.4166 -0.2787
    2SAPS   H5R  178   1.993   3.049  22.518  0.0151 -1.7422  0.1933
    2SAPS   C26  179   1.782   3.008  22.509  0.3422 -0.3780 -0.1647
    2SAPS   H6R  180   1.772   3.015  22.619 -1.5108  2.2090 -0.4055
    2SAPS   C27  181   1.650   2.999  22.441  0.4036 -0.3327 -0.2390
    2SAPS   H7R  182   1.662   2.914  22.370 -2.9160 -1.2972  0.1815
    2SAPS   H7S  183   1.623   3.089  22.382  0.7550 -1.0551 -1.5473
    2SAPS   C28  184   1.540   2.967  22.546  0.3517  0.3646  0.3715
    2SAPS   H8R  185   1.550   2.879  22.611  2.5705 -0.4407 -0.9472
    2SAPS   C29  186   1.423   3.039  22.556 -0.2871 -0.3373 -0.3610
    2SAPS   H9R  187   1.348   3.000  22.626 -1.2167 -0.6494 -1.4859
    2SAPS  C210  188   1.396   3.159  22.471 -0.4841  0.3478  0.1703
    2SAPS  H10R  189   1.444   3.147  22.372  1.8154 -0.5359  1.3274
    2SAPS  H10S  190   1.438   3.253  22.513 -0.1297  1.0954 -1.7336
    2SAPS  C211  191   1.245   3.185  22.461 -0.4038  0.3781  0.5405
    2SAPS  H11R  192   1.200   3.168  22.560  1.2952 -0.9946  1.1287
    2SAPS  C212  193   1.168   3.217  22.350 -0.6269  0.0742  0.1836
    2SAPS  H12R  194   1.060   3.224  22.369 -0.2873 -0.0599  2.4933
    2SAPS  C213  195   1.207   3.253  22.209 -0.1091  0.8282  0.1287
    2SAPS  H13R  196   1.179   3.188  22.124  3.1620  0.8387 -1.0943
    2SAPS  H13S  197   1.318   3.250  22.203  0.1229  3.7509  1.1082
    2SAPS  C214  198   1.175   3.397  22.179  0.0358  1.3549  0.2281
    2SAPS  H14R  199   1.173   3.472  22.259  1.1290  1.3714  0.2648
    2SAPS  C215  200   1.150   3.449  22.054  0.0971 -0.5959 -0.2473
    2SAPS  H15R  201   1.101   3.547  22.060 -1.5916 -1.4511  0.6519
    2SAPS  C216  202   1.138   3.386  21.914  0.1050  0.7761 -0.2179
    2SAPS  H16R  203   1.032   3.367  21.891 -0.3507  0.8386  1.6387
    2SAPS  H16S  204   1.188   3.287  21.908 -1.1066  0.1528 -0.3383
    2SAPS  C217  205   1.192   3.474  21.797  0.4432  0.0439  0.1602
    2SAPS  H17R  206   1.117   3.556  21.794  0.1902 -0.1750  0.4764
    2SAPS  H17S  207   1.187   3.434  21.693 -0.9068 -1.2439  0.7004
    2SAPS  C218  208   1.336   3.531  21.821  0.2485  0.3757 -0.1686
    2SAPS  H18R  209   1.412   3.453  21.799 -0.0388 -0.0439  0.2992
    2SAPS  H18S  210   1.355   3.569  21.924 -0.3882 -0.2099  0.1682
    2SAPS  C219  211   1.358   3.647  21.724 -0.0484 -0.0709 -0.6758
    2SAPS  H19R  212   1.305   3.736  21.765  0.7500  0.4082 -0.6784
    2SAPS  H19S  213   1.334   3.616  21.620  0.8460 -0.8457 -0.6630
    2SAPS  C220  214   1.511   3.691  21.722  0.1189 -0.3794 -0.6647
    2SAPS  H20R  215   1.527   3.792  21.680  4.8098 -0.9012 -0.6709
    2SAPS  H20S  216   1.573   3.615  21.670 -1.3002 -1.3255 -1.0320
    2SAPS  H20T  217   1.552   3.696  21.825 -0.8724 -0.4603 -0.2546
    2SAPS   C33  218   1.476   3.127  21.973 -0.5192  0.4080 -0.6809
    2SAPS   H3X  219   1.466   3.222  22.031  2.0039 -0.1501  0.8418
    2SAPS   H3Y  220   1.397   3.121  21.895 -0.1905 -2.5567 -0.8906
    2SAPS   C34  221   1.617   3.127  21.917  0.2694  0.4155  0.9065
    2SAPS   H4X  222   1.628   3.026  21.871 -0.0394  1.5983 -1.9709
    2SAPS   H4Y  223   1.694   3.133  21.997  1.5938 -1.9547 -0.0926
    2SAPS   C35  224   1.636   3.232  21.803 -0.1555  0.2711 -0.0398
    2SAPS   H5X  225   1.631   3.333  21.848  5.4189 -0.0310  2.1046
    2SAPS   H5Y  226   1.546   3.225  21.738  1.1776  0.8310 -2.0511
    2SAPS   C36  227   1.766   3.226  21.719 -0.2316  0.2530 -0.7894
    2SAPS   H6X  228   1.767   3.298  21.634  1.0601 -0.3603 -1.3206
    2SAPS   H6Y  229   1.771   3.128  21.667 -0.1802  0.2712 -0.8195
    2SAPS   C37  230   1.891   3.257  21.798 -0.8394 -0.1310  0.1633
    2SAPS   H7X  231   1.972   3.267  21.723 -1.1456 -0.1208 -0.1685
    2SAPS   H7Y  232   1.922   3.172  21.862  0.7056  0.8359  0.7467
    2SAPS   C38  233   1.888   3.381  21.894  0.2107  0.5861  0.2460
    2SAPS   H8X  234   1.826   3.348  21.980 -0.7376  0.3035 -0.5296
    2SAPS   H8Y  235   1.837   3.468  21.848 -1.9072 -1.3060 -1.2485
    2SAPS   C39  236   2.030   3.434  21.938  0.5477 -0.6787 -0.5011
    2SAPS   H9X  237   2.068   3.493  21.852 -0.3777 -1.1805 -1.2613
    2SAPS   H9Y  238   2.092   3.345  21.961 -1.4081 -1.3615  2.7042
    2SAPS  C310  239   2.031   3.515  22.062 -0.1243 -0.1671 -0.3894
    2SAPS  H10X  240   2.127   3.530  22.114 -0.6419 -1.7338  1.1250
    2SAPS  H10Y  241   1.972   3.461  22.140  0.6020 -0.5754 -0.1129
    2SAPS  C311  242   1.965   3.651  22.057  0.4082  0.7051  0.4235
    2SAPS  H11X  243   1.935   3.687  22.158  0.3288 -1.8823  1.4054
    2SAPS  H11Y  244   1.873   3.624  22.000  1.4708 -1.8899 -0.1702
    2SAPS  C312  245   2.033   3.754  21.965  0.0324  0.2226 -0.5189
    2SAPS  H12X  246   2.066   3.722  21.864 -1.6132  0.2016 -1.0806
    2SAPS  H12Y  247   2.122   3.792  22.019 -1.5209  2.3429  0.7337
    2SAPS  C313  248   1.920   3.860  21.928 -0.2497 -0.3224  0.9485
    2SAPS  H13X  249   1.895   3.908  22.025  2.3314  0.3632  1.3600
    2SAPS  H13Y  250   1.833   3.805  21.886 -0.6061  0.0811  1.1499
    2SAPS  C314  251   1.975   3.964  21.829  0.4121 -0.0119  0.5480
    2SAPS  H14X  252   2.057   4.022  21.877  0.9751 -0.4731  0.1633
    2SAPS  H14Y  253   1.890   4.033  21.809  0.0689 -0.7766 -0.7772
    2SAPS  C315  254   2.034   3.912  21.695 -0.4571  0.1978 -0.5760
    2SAPS  H15X  255   2.128   3.860  21.721  0.2090  0.5369 -2.1811
    2SAPS  H15Y  256   2.064   3.999  21.633  2.0817  0.2212  0.5814
    2SAPS  C316  257   1.962   3.816  21.609  0.6076  0.0662 -0.1860
    2SAPS  H16X  258   1.943   3.727  21.673  1.0342 -0.4798 -0.8141
    2SAPS  H16Y  259   2.019   3.788  21.518  0.1939  0.4867 -0.5783
    2SAPS  C317  260   1.836   3.881  21.543  0.1408 -0.0016  0.2773
    2SAPS  H17X  261   1.862   3.975  21.489 -0.8616  0.6875  0.9517
    2SAPS  H17Y  262   1.759   3.908  21.618  1.8030  1.0353  1.6744
    2SAPS  C318  263   1.770   3.789  21.440  0.4483 -0.5108  0.6675
    2SAPS  H18X  264   1.841   3.755  21.362 -0.8152 -0.8484 -0.3772
    2SAPS  H18Y  265   1.698   3.854  21.386 -0.0040 -3.0356 -2.0534
    2SAPS  H18Z  266   1.718   3.702  21.486 -0.4639  0.0766  0.7803
    3SAPS     N  267   0.244   1.854  20.647  0.6494 -0.0459 -0.0234
    3SAPS   HN1  268   0.330   1.913  20.635  1.7532 -1.6465 -0.2655
    3SAPS   HN2  269   0.258   1.796  20.732  0.4068 -0.7548 -0.4619
    3SAPS   HN3  270   0.218   1.792  20.568 -0.4660  2.2095 -1.5497
    3SAPS   C12  271   0.127   1.944  20.678  0.5958  0.4377 -0.6114
    3SAPS  H12A  272   0.091   1.975  20.581 -0.4150  1.1878 -0.0095
    3SAPS   C13  273   0.022   1.875  20.759  0.1779  0.0061  0.9036
    3SAPS  O13A  274   0.045   1.772  20.823 -0.8054 -0.5640 -0.3456
    3SAPS  O13B  275  -0.090   1.933  20.755 -0.0770  0.3099  0.4557
    3SAPS   C11  276   0.173   2.075  20.752  0.3960 -0.5620 -0.2743
    3SAPS  H11A  277   0.197   2.042  20.856 -1.9556 -1.4254  0.0594
    3SAPS  H11B  278   0.089   2.148  20.754 -0.9716 -2.0722  1.6022
    3SAPS     P  279   0.393   2.227  20.754 -0.3484  0.3756 -0.2283
    3SAPS   O13  280   0.452   2.172  20.879  0.7093  0.0471  0.1633
    3SAPS   O14  281   0.484   2.273  20.649 -0.3980 -0.2600  0.6408
    3SAPS   O12  282   0.291   2.125  20.686  0.4524 -0.8501  0.4783
    3SAPS   O11  283   0.300   2.348  20.798 -0.4947 -0.1884  0.3898
    3SAPS    C1  284   0.217   2.427  20.715  0.2746 -1.0898  0.8387
    3SAPS    HA  285   0.163   2.370  20.636 -0.0839  1.4282 -0.8390
    3SAPS    HB  286   0.145   2.480  20.781 -0.5238  0.1840 -0.9805
    3SAPS    C2  287   0.299   2.538  20.637 -0.4223  0.3954  0.1874
    3SAPS    HS  288   0.374   2.487  20.573 -0.8181  1.3284 -1.0462
    3SAPS   O21  289   0.355   2.630  20.737  0.3091  0.4246 -0.2926
    3SAPS   C21  290   0.478   2.666  20.716  0.7721 -0.3184  0.2103
    3SAPS   O22  291   0.550   2.643  20.621  0.5311 -0.0302 -0.1077
    3SAPS   C22  292   0.527   2.744  20.841  0.0389 -0.2853 -0.3434
    3SAPS   H2R  293   0.450   2.821  20.860 -0.3334 -0.5518 -0.7527
    3SAPS   H2S  294   0.532   2.665  20.919 -1.1058  0.3012  0.3470
    3SAPS    C3  295   0.207   2.617  20.540 -0.7575  0.3601  0.1544
    3SAPS    HX  296   0.139   2.683  20.597 -0.4206 -0.2634  1.3161
    3SAPS    HY  297   0.143   2.543  20.487 -0.0562  0.9740 -1.5944
    3SAPS   O31  298   0.287   2.699  20.450  0.6020 -0.2676  0.4968
    3SAPS   C31  299   0.338   2.633  20.350 -0.2400  0.0025 -0.1735
    3SAPS   O32  300   0.327   2.511  20.344  0.3233 -0.3155  0.5217
    3SAPS   C32  301   0.397   2.723  20.247  0.0993  0.4994  0.2486
    3SAPS   H2X  302   0.502   2.743  20.275 -0.0556  0.3782  0.9366
    3SAPS   H2Y  303   0.346   2.822  20.250  2.4904  1.8555 -1.0141
    3SAPS   C23  304   0.670   2.799  20.800  0.3391 -0.4471  0.1572
    3SAPS   H3R  305   0.731   2.715  20.760 -0.2372 -0.2750 -1.1378
    3SAPS   H3S  306   0.731   2.840  20.883  1.1570 -0.9305 -0.1899
    3SAPS   C24  307   0.669   2.916  20.699  0.2696  0.2295  0.4064
    3SAPS   H4R  308   0.666   2.871  20.597  2.9523  1.1363 -0.1367
    3SAPS   H4S  309   0.773   2.954  20.698 -0.4766  2.4079 -1.0051
    3SAPS   C25  310   0.568   3.022  20.724  0.5049 -0.1729 -0.0056
    3SAPS   H5R  311   0.553   3.041  20.831  0.8832 -2.2336  0.4599
    3SAPS   C26  312   0.485   3.080  20.630  0.5312  0.3460 -0.1191
    3SAPS   H6R  313   0.405   3.147  20.666  2.4900  3.7798 -1.5977
    3SAPS   C27  314   0.490   3.049  20.478 -0.2441 -0.1429 -0.3778
    3SAPS   H7R  315   0.532   2.947  20.466  1.7347  0.7159 -1.1540
    3SAPS   H7S  316   0.569   3.111  20.431 -2.0398  1.8572 -0.9261
    3SAPS   C28  317   0.353   3.054  20.414  0.1656  0.6548 -0.1702
    3SAPS   H8R  318   0.295   2.969  20.452  0.7345 -0.0560 -0.8697
    3SAPS   C29  319   0.301   3.137  20.324  0.5303  1.1201 -0.6166
    3SAPS   H9R  320   0.212   3.101  20.270  0.5908 -0.2791  0.2024
    3SAPS  C210  321   0.359   3.262  20.277 -0.2805 -0.2521 -0.4934
    3SAPS  H10R  322   0.460   3.230  20.243  0.3532 -1.5522  2.3132
    3SAPS  H10S  323   0.372   3.330  20.363  0.9322 -1.0357 -0.0346
    3SAPS  C211  324   0.288   3.341  20.171 -0.8547 -0.1319  1.1470
    3SAPS  H11R  325   0.180   3.349  20.190 -0.8229 -2.3179  2.7141
    3SAPS  C212  326   0.342   3.383  20.053  0.1335 -0.2246  0.0548
    3SAPS  H12R  327   0.276   3.432  19.980  0.7972 -1.1098 -1.1673
    3SAPS  C213  328   0.490   3.368  20.008  0.4053  0.5123 -0.3585
    3SAPS  H13R  329   0.559   3.364  20.095  0.8527 -3.6382 -0.7051
    3SAPS  H13S  330   0.507   3.464  19.955 -2.3343 -0.2616 -2.9361
    3SAPS  C214  331   0.514   3.248  19.923  0.1025  0.5267  0.5912
    3SAPS  H14R  332   0.471   3.244  19.822 -2.7502 -2.2741  1.7349
    3SAPS  C215  333   0.577   3.136  19.963  0.4851 -0.5707  0.2100
    3SAPS  H15R  334   0.572   3.046  19.901 -1.9806 -0.5696  0.3196
    3SAPS  C216  335   0.636   3.097  20.095  0.2317  0.1180 -0.6923
    3SAPS  H16R  336   0.555   3.047  20.152 -0.7176 -0.0933 -2.1583
    3SAPS  H16S  337   0.662   3.190  20.150 -2.4141  0.1460  0.6884
    3SAPS  C217  338   0.760   3.005  20.081  0.4872  0.4492  0.5683
    3SAPS  H17R  339   0.834   3.047  20.010 -1.0575 -2.7956 -3.3580
    3SAPS  H17S  340   0.740   2.901  20.047 -0.6882  0.9453 -0.3241
    3SAPS  C218  341   0.823   2.987  20.216 -0.3569  0.1962  0.4737
    3SAPS  H18R  342   0.741   2.972  20.289 -0.9612 -0.6039 -0.3584
    3SAPS  H18S  343   0.881   3.081  20.226  2.0947 -1.1060 -0.5209
    3SAPS  C219  344   0.939   2.884  20.224 -0.6633 -0.2784  0.0470
    3SAPS  H19R  345   0.897   2.782  20.238  1.2712 -1.3989 -1.6206
    3SAPS  H19S  346   0.997   2.888  20.129 -0.6646  1.8170  0.0952
    3SAPS  C220  347   1.029   2.893  20.343  0.5790 -0.2325  0.4120
    3SAPS  H20R  348   1.101   2.809  20.331 -2.4651 -2.9062 -0.5476
    3SAPS  H20S  349   0.972   2.876  20.436  1.4517 -0.7836  0.8594
    3SAPS  H20T  350   1.092   2.985  20.343 -0.3145  0.3996  0.2272
    3SAPS   C33  351   0.385   2.671  20.100 -0.2189  0.0038  0.7586
    3SAPS   H3X  352   0.282   2.663  20.060 -0.0698 -0.0171  0.3739
    3SAPS   H3Y  353   0.425   2.568  20.088 -2.4306 -0.7120 -1.1225
    3SAPS   C34  354   0.477   2.759  20.009 -0.3182  0.5982 -0.0749
    3SAPS   H4X  355   0.578   2.767  20.054 -0.6318  1.1856  0.5317
    3SAPS   H4Y  356   0.436   2.862  19.999 -0.8448  0.4541  0.4974
    3SAPS   C35  357   0.478   2.704  19.867  0.0669 -0.3714  0.4252
    3SAPS   H5X  358   0.529   2.607  19.881  2.3834  0.8356  0.8859
    3SAPS   H5Y  359   0.373   2.687  19.834  0.0377 -0.0207  0.3344
    3SAPS   C36  360   0.555   2.797  19.772 -0.3657 -0.1766 -0.1194
    3SAPS   H6X  361   0.645   2.835  19.825 -1.2608  2.5323 -0.4347
    3SAPS   H6Y  362   0.501   2.892  19.757  0.3299 -0.2709 -4.1689
    3SAPS   C37  363   0.595   2.754  19.630  0.4881 -0.1497 -0.0538
    3SAPS   H7X  364   0.632   2.649  19.636  0.2261 -0.2000  1.0919
    3SAPS   H7Y  365   0.682   2.813  19.594  0.5776 -0.3790 -0.2177
    3SAPS   C38  366   0.482   2.768  19.531 -0.4442 -0.0211 -0.1926
    3SAPS   H8X  367   0.444   2.872  19.539 -2.3109 -0.7598  1.1992
    3SAPS   H8Y  368   0.403   2.691  19.545 -0.5258 -0.0455 -0.7658
    3SAPS   C39  369   0.528   2.736  19.388  0.2338 -0.1012  0.0348
    3SAPS   H9X  370   0.586   2.642  19.391  1.0300  0.3656 -0.5014
    3SAPS   H9Y  371   0.606   2.808  19.355  1.0210 -1.3349 -0.8899
    3SAPS  C310  372   0.411   2.750  19.289 -0.2121  0.0583  0.0944
    3SAPS  H10X  373   0.324   2.795  19.341 -1.8215  1.1898 -3.2447
    3SAPS  H10Y  374   0.387   2.652  19.241 -0.1622 -1.5261  3.0434
    3SAPS  C311  375   0.442   2.832  19.162 -0.6657  0.2371  1.0550
    3SAPS  H11X  376   0.454   2.935  19.202 -1.9014 -0.0120  2.1385
    3SAPS  H11Y  377   0.352   2.834  19.097 -0.8567  1.2866  1.3307
    3SAPS  C312  378   0.568   2.790  19.085 -0.0102 -0.3932 -0.4597
    3SAPS  H12X  379   0.575   2.685  19.052  0.5204 -0.1568 -1.1138
    3SAPS  H12Y  380   0.666   2.788  19.138 -0.8160 -0.1701  1.1133
    3SAPS  C313  381   0.584   2.869  18.947 -0.5419  0.2464  0.4950
    3SAPS  H13X  382   0.570   2.977  18.970 -0.1410  0.6374 -0.9693
    3SAPS  H13Y  383   0.498   2.848  18.880 -1.9697  3.0306  1.2851
    3SAPS  C314  384   0.719   2.846  18.878  0.0427  0.0770 -0.0579
    3SAPS  H14X  385   0.732   2.736  18.862 -0.2671 -0.0308  0.3989
    3SAPS  H14Y  386   0.790   2.875  18.958  1.2261 -1.1007 -0.6324
    3SAPS  C315  387   0.751   2.923  18.749 -0.3735  0.0864  0.9094
    3SAPS  H15X  388   0.694   2.870  18.670 -0.9847  0.3416  1.1663
    3SAPS  H15Y  389   0.858   2.923  18.719 -0.2471 -0.7676  1.3246
    3SAPS  C316  390   0.724   3.074  18.761  0.4218  0.0204  0.0146
    3SAPS  H16X  391   0.774   3.119  18.850  1.5895  0.3913 -0.8011
    3SAPS  H16Y  392   0.614   3.080  18.755  0.4080 -0.0894  0.1654
    3SAPS  C317  393   0.765   3.147  18.635  0.5554 -0.0570 -0.5525
    3SAPS  H17X  394   0.875   3.156  18.624  0.6444 -0.9587 -0.5180
    3SAPS  H17Y  395   0.729   3.251  18.647  1.8159  0.2164  1.0428
    3SAPS  C318  396   0.727   3.077  18.507 -0.6034  0.1985  0.6218
    3SAPS  H18X  397   0.799   2.996  18.481  0.6967  1.4858  0.0526
    3SAPS  H18Y  398   0.730   3.152  18.425 -0.6701 -0.0696  0.3735
    3SAPS  H18Z  399   0.625   3.034  18.521 -0.8406  0.6802  0.3972
    4SAPS     N  400   3.413   1.935  18.674 -0.3344  0.3232 -0.7433
    4SAPS   HN1  401   3.499   1.939  18.616 -0.7640 -1.4686 -1.5396
    4SAPS   HN2  402   3.326   1.969  18.629 -2.3060 -2.4683  0.6758
    4SAPS   HN3  403   3.431   1.995  18.758  0.9790 -1.8236  0.6147
    4SAPS   C12  404   3.402   1.791  18.724 -0.2365  0.7633 -1.2518
    4SAPS  H12A  405   3.490   1.739  18.692 -1.1683 -1.8690  0.1523
    4SAPS   C13  406   3.383   1.786  18.884 -0.7553 -0.8894  0.1807
    4SAPS  O13A  407   3.369   1.894  18.947  0.2519  0.2825 -0.3942
    4SAPS  O13B  408   3.357   1.673  18.936 -0.0925  0.1648  0.0729
    4SAPS   C11  409   3.287   1.714  18.662  0.1115 -0.0828 -0.7398
    4SAPS  H11A  410   3.192   1.746  18.711 -0.2827  3.0483 -3.2352
    4SAPS  H11B  411   3.303   1.607  18.690 -1.2613 -0.3165 -0.7522
    4SAPS     P  412   3.345   1.635  18.417  0.5923 -0.3300 -0.2509
    4SAPS   O13  413   3.271   1.506  18.408 -0.5324 -0.2518  0.0026
    4SAPS   O14  414   3.361   1.713  18.290 -0.2625 -0.3264 -0.4511
    4SAPS   O12  415   3.265   1.731  18.529 -0.1789 -0.1088 -0.2009
    4SAPS   O11  416   3.489   1.623  18.484 -0.8911  0.1035 -0.8896
    4SAPS    C1  417   3.553   1.489  18.502  0.5006 -0.2464 -0.0586
    4SAPS    HA  418   3.599   1.491  18.603 -1.2376  0.9319  0.7620
    4SAPS    HB  419   3.472   1.413  18.505  0.2202 -0.0368 -1.4614
    4SAPS    C2  420   3.658   1.461  18.397 -0.0869 -0.4601 -0.1022
    4SAPS    HS  421   3.600   1.485  18.306 -0.4144 -1.2541 -0.1169
    4SAPS   O21  422   3.688   1.318  18.397  0.4663  0.3472  0.6155
    4SAPS   C21  423   3.694   1.264  18.276  0.8300  0.3116  0.0725
    4SAPS   O22  424   3.641   1.305  18.174 -0.2214 -0.1379  0.4030
    4SAPS   C22  425   3.770   1.139  18.276 -0.5122 -0.1550 -0.2015
    4SAPS   H2R  426   3.858   1.158  18.341 -1.2195  2.0097  0.1998
    4SAPS   H2S  427   3.715   1.063  18.336 -1.8624  2.0398  1.4627
    4SAPS    C3  428   3.772   1.564  18.405 -0.8765  0.5283 -0.4065
    4SAPS    HX  429   3.837   1.535  18.491 -0.8486 -0.8131 -0.8596
    4SAPS    HY  430   3.731   1.665  18.423  0.5784  0.8216  1.5905
    4SAPS   O31  431   3.847   1.569  18.284 -0.7812 -0.0109 -0.1248
    4SAPS   C31  432   3.803   1.632  18.172 -0.3348  0.1263 -0.6401
    4SAPS   O32  433   3.692   1.678  18.166  0.4801 -0.2584  0.9932
    4SAPS   C32  434   3.896   1.602  18.061 -0.0654 -0.6135  0.6282
    4SAPS   H2X  435   3.831   1.530  18.006 -1.8224  0.2226  1.5202
    4SAPS   H2Y  436   3.998   1.574  18.093  1.5416  1.0059 -2.6154
    4SAPS   C23  437   3.827   1.092  18.139  0.2193 -0.1545  0.1999
    4SAPS   H3R  438   3.883   1.169  18.080 -0.4972 -0.8425 -1.4456
    4SAPS   H3S  439   3.737   1.066  18.080  0.5215  0.3250 -0.4960
    4SAPS   C24  440   3.924   0.966  18.139 -0.5185 -0.5409  0.0698
    4SAPS   H4R  441   4.006   0.989  18.211 -0.7438 -0.5912  0.3416
    4SAPS   H4S  442   3.963   0.959  18.035  0.5534 -0.6547  0.4615
    4SAPS   C25  443   3.843   0.854  18.184  0.7317  1.3339  0.0108
    4SAPS   H5R  444   3.797   0.872  18.282  0.3127 -1.5044  0.4036
    4SAPS   C26  445   3.817   0.736  18.125 -0.0861 -0.0005  0.0968
    4SAPS   H6R  446   3.752   0.665  18.176 -0.5984  0.5565  0.2334
    4SAPS   C27  447   3.861   0.688  17.989  0.1954 -0.2953  0.1694
    4SAPS   H7R  448   3.853   0.771  17.915 -0.1285 -0.0922  0.4330
    4SAPS   H7S  449   3.783   0.620  17.949 -0.9136  0.4080  1.0989
    4SAPS   C28  450   4.000   0.634  17.998 -0.5014 -0.0366  0.1549
    4SAPS   H8R  451   4.066   0.687  18.068  0.2562  0.7728 -1.1308
    4SAPS   C29  452   4.057   0.544  17.915  0.5138 -0.3361 -0.1239
    4SAPS   H9R  453   4.162   0.516  17.930  1.0505  0.9247 -1.2519
    4SAPS  C210  454   3.987   0.480  17.794 -0.3294 -0.0528  1.0127
    4SAPS  H10R  455   3.995   0.550  17.707  1.2638 -1.7696 -0.3097
    4SAPS  H10S  456   3.878   0.465  17.811 -0.3643  0.0418  0.8819
    4SAPS  C211  457   4.039   0.344  17.760 -0.4889 -0.1744 -0.3833
    4SAPS  H11R  458   4.046   0.271  17.842 -2.3131  0.2467  0.1858
    4SAPS  C212  459   4.106   0.316  17.649 -0.5428 -0.1485 -0.0201
    4SAPS  H12R  460   4.140   0.215  17.622 -1.3598 -0.7851  1.2157
    4SAPS  C213  461   4.136   0.408  17.528 -0.3327 -0.3049 -0.2336
    4SAPS  H13R  462   4.053   0.476  17.500 -0.0296  0.0189 -0.3552
    4SAPS  H13S  463   4.155   0.350  17.435  2.4844 -0.1526  0.1565
    4SAPS  C214  464   4.254   0.505  17.554 -0.0076 -0.2982 -0.1424
    4SAPS  H14R  465   4.222   0.598  17.604  3.0407  1.6746 -1.5813
    4SAPS  C215  466   4.375   0.497  17.504 -0.9835  0.2663 -0.1649
    4SAPS  H15R  467   4.449   0.576  17.523 -0.7981 -0.0564  0.5371
    4SAPS  C216  468   4.423   0.378  17.424 -0.2718 -0.3932  0.6677
    4SAPS  H16R  469   4.406   0.397  17.316  4.4799  0.7317 -0.1307
    4SAPS  H16S  470   4.360   0.290  17.449 -1.3785 -0.6120 -2.4752
    4SAPS  C217  471   4.569   0.346  17.419 -0.8189  0.6338 -0.1477
    4SAPS  H17R  472   4.619   0.360  17.518  0.7034 -0.8008 -0.6748
    4SAPS  H17S  473   4.630   0.402  17.346 -0.4225 -0.5276 -0.7239
    4SAPS  C218  474   4.584   0.195  17.381 -0.2092  0.0572 -0.6554
    4SAPS  H18R  475   4.510   0.164  17.304 -2.1897  1.0265  0.7730
    4SAPS  H18S  476   4.552   0.143  17.474 -1.6808  4.2323  1.4296
    4SAPS  C219  477   4.726   0.164  17.334 -0.2815 -0.1790  0.1201
    4SAPS  H19R  478   4.807   0.212  17.393 -0.2142  1.6693 -1.3785
    4SAPS  H19S  479   4.718   0.209  17.233 -2.2809  0.0657  0.3450
    4SAPS  C220  480   4.760   0.015  17.326 -0.3831  0.1552 -0.1606
    4SAPS  H20R  481   4.672  -0.034  17.280 -0.6967  0.2695  0.3156
    4SAPS  H20S  482   4.771  -0.023  17.430  0.5173  3.0172  0.8751
    4SAPS  H20T  483   4.861   0.004  17.281  0.7085 -0.4493  2.2664
    4SAPS   C33  484   3.921   1.732  17.968  0.3390  0.2851 -0.1080
    4SAPS   H3X  485   3.975   1.805  18.033  0.2318 -1.8104  2.5094
    4SAPS   H3Y  486   3.820   1.755  17.927  0.4685 -0.1344 -0.6684
    4SAPS   C34  487   4.002   1.680  17.843 -0.1909 -0.2319  0.9795
    4SAPS   H4X  488   3.949   1.587  17.811  2.5294 -1.1947 -1.1929
    4SAPS   H4Y  489   4.101   1.649  17.882  1.6025 -0.5003 -3.2517
    4SAPS   C35  490   4.027   1.787  17.741 -0.5503 -0.3250 -0.5777
    4SAPS   H5X  491   4.121   1.839  17.769 -0.1061 -0.7853 -1.1682
    4SAPS   H5Y  492   3.946   1.862  17.734 -1.6619 -0.8838  3.7305
    4SAPS   C36  493   4.022   1.730  17.599 -0.8259  0.0200 -0.0948
    4SAPS   H6X  494   3.918   1.692  17.583 -0.2616 -3.0246  2.4770
    4SAPS   H6Y  495   4.090   1.644  17.582 -0.5625  0.0284  0.8454
    4SAPS   C37  496   4.059   1.835  17.496  0.4006  0.4354 -0.2172
    4SAPS   H7X  497   4.157   1.883  17.513 -0.5694  2.0901  1.1039
    4SAPS   H7Y  498   3.977   1.911  17.501 -1.3456 -1.2238 -1.6297
    4SAPS   C38  499   4.050   1.758  17.354  0.0737 -0.2596  0.3370
    4SAPS   H8X  500   3.949   1.714  17.355 -0.6619  1.3452 -0.0972
    4SAPS   H8Y  501   4.129   1.679  17.354  0.1376 -0.3382  3.3264
    4SAPS   C39  502   4.068   1.846  17.234 -0.8107 -0.0912  0.4322
    4SAPS   H9X  503   4.151   1.917  17.251 -0.2496 -1.0278  1.9010
    4SAPS   H9Y  504   3.979   1.911  17.218  0.1279  0.8802 -0.9835
    4SAPS  C310  505   4.112   1.770  17.113 -0.3683 -0.0428  0.4348
    4SAPS  H10X  506   4.029   1.698  17.100 -0.8050  0.8572 -2.5172
    4SAPS  H10Y  507   4.207   1.716  17.135 -1.3128 -1.1422  2.0537
    4SAPS  C311  508   4.124   1.859  16.990 -0.4859  0.0520 -1.1330
    4SAPS  H11X  509   4.041   1.931  17.002 -2.0304 -1.7639 -0.3298
    4SAPS  H11Y  510   4.090   1.788  16.911 -0.2953  0.4647 -1.5928
    4SAPS  C312  511   4.259   1.936  16.956  0.6592 -0.3417 -0.8015
    4SAPS  H12X  512   4.348   1.871  16.970  1.7773  0.9774 -1.5725
    4SAPS  H12Y  513   4.259   2.018  17.031 -1.0756 -1.3602  0.4008
    4SAPS  C313  514   4.253   1.980  16.810 -0.3907  0.0470  0.5231
    4SAPS  H13X  515   4.164   2.042  16.786  0.9791  1.4292 -1.3048
    4SAPS  H13Y  516   4.237   1.891  16.745 -0.9305 -0.0640  0.8037
    4SAPS  C314  517   4.383   2.058  16.767 -0.1914  0.3841  0.5051
    4SAPS  H14X  518   4.388   2.056  16.656 -3.6439  0.1631  0.2556
    4SAPS  H14Y  519   4.472   2.005  16.810  1.2797  2.6340  0.3878
    4SAPS  C315  520   4.382   2.202  16.820  0.6604  0.1287 -0.0375
    4SAPS  H15X  521   4.362   2.201  16.929 -0.3565  0.0365 -0.2186
    4SAPS  H15Y  522   4.300   2.256  16.770 -0.8798 -1.2085  0.9540
    4SAPS  C316  523   4.515   2.273  16.801  0.3354  0.3384  0.0056
    4SAPS  H16X  524   4.567   2.262  16.703  2.2795  1.6806  0.8280
    4SAPS  H16Y  525   4.596   2.230  16.863  0.8489  1.0328 -0.1692
    4SAPS  C317  526   4.501   2.426  16.824 -0.9281  0.4212  0.9366
    4SAPS  H17X  527   4.450   2.438  16.922 -1.4436 -0.5336  0.7959
    4SAPS  H17Y  528   4.425   2.476  16.761 -0.4028  0.7887  0.5847
    4SAPS  C318  529   4.633   2.509  16.821  0.2190 -0.2962 -0.2699
    4SAPS  H18X  530   4.626   2.620  16.811  0.0672 -0.2691  0.1481
    4SAPS  H18Y  531   4.696   2.466  16.740 -0.5100  0.2123 -1.1274
    4SAPS  H18Z  532   4.690   2.494  16.915  1.9082 -2.0005 -1.4780
    5SAPS     N  533   3.352   2.050  21.732 -0.6063 -0.1611  0.5128
    5SAPS   HN1  534   3.327   1.949  21.731  0.3634 -0.4167  0.2928
    5SAPS   HN2  535   3.376   2.082  21.636  0.2512 -3.4055 -0.4586
    5SAPS   HN3  536   3.436   2.061  21.792 -0.4663  2.1305 -0.0076
    5SAPS   C12  537   3.243   2.121  21.802 -0.0577 -0.7555  0.2851
    5SAPS  H12A  538   3.151   2.125  21.747 -0.6773  0.0787  1.3438
    5SAPS   C13  539   3.186   2.058  21.932 -0.3016  0.6152 -0.5952
    5SAPS  O13A  540   3.213   1.936  21.947  0.2366  0.6898 -0.4474
    5SAPS  O13B  541   3.082   2.102  21.981 -0.0333 -0.6773 -0.0524
    5SAPS   C11  542   3.288   2.270  21.834 -0.0283  0.1906 -0.6010
    5SAPS  H11A  543   3.196   2.329  21.854 -1.0524 -1.9754  1.6404
    5SAPS  H11B  544   3.331   2.314  21.741 -0.9380 -0.1437 -1.1934
    5SAPS     P  545   3.537   2.278  21.917 -0.2092  0.7109  0.2304
    5SAPS   O13  546   3.608   2.255  22.040  0.3137  0.1429  0.0249
    5SAPS   O14  547   3.569   2.190  21.803 -0.5293  0.0653 -0.1136
    5SAPS   O12  548   3.378   2.272  21.951 -0.0247 -0.5278  0.0420
    5SAPS   O11  549   3.545   2.436  21.882  0.1340  0.6655 -0.7905
    5SAPS    C1  550   3.523   2.524  21.992 -0.2578  0.4478 -0.3062
    5SAPS    HA  551   3.438   2.590  21.965 -0.9842  0.3225  1.4884
    5SAPS    HB  552   3.491   2.481  22.089  1.6953  3.2907  1.7677
    5SAPS    C2  553   3.648   2.612  22.009  0.2715  0.5850  0.1920
    5SAPS    HS  554   3.628   2.685  22.091 -0.2653  0.3164  0.3016
    5SAPS   O21  555   3.676   2.679  21.883 -0.3725 -0.1127  0.0691
    5SAPS   C21  556   3.602   2.788  21.859 -0.4270 -0.5747 -0.0423
    5SAPS   O22  557   3.525   2.844  21.936  0.5479 -0.0315  0.5542
    5SAPS   C22  558   3.640   2.841  21.718  0.4248  0.2679  0.2798
    5SAPS   H2R  559   3.588   2.770  21.650 -0.9045 -0.1939  1.7218
    5SAPS   H2S  560   3.584   2.937  21.710  0.4278  0.2559  0.0900
    5SAPS    C3  561   3.770   2.531  22.064 -0.6999  0.5257 -0.1458
    5SAPS    HX  562   3.773   2.435  22.010  2.4547  1.9071 -2.7862
    5SAPS    HY  563   3.755   2.516  22.173  0.5506 -3.1381 -0.3497
    5SAPS   O31  564   3.897   2.602  22.049 -0.0844  0.1531 -0.0623
    5SAPS   C31  565   3.964   2.572  21.938 -1.2556  0.2795 -0.0321
    5SAPS   O32  566   3.931   2.495  21.850 -0.1289  0.2077 -0.4287
    5SAPS   C32  567   4.092   2.649  21.921 -0.5691 -0.8427  0.2152
    5SAPS   H2X  568   4.172   2.602  21.982  0.6139 -0.9327 -1.3443
    5SAPS   H2Y  569   4.075   2.755  21.949 -1.4215 -0.4351 -1.6665
    5SAPS   C23  570   3.786   2.848  21.678  0.4603  0.2318  0.1573
    5SAPS   H3R  571   3.796   2.854  21.567 -0.3785  3.7957  0.1503
    5SAPS   H3S  572   3.832   2.753  21.709  0.5693  0.8547  2.0423
    5SAPS   C24  573   3.869   2.961  21.742  0.0387 -0.4236  0.1773
    5SAPS   H4R  574   3.973   2.952  21.704 -0.9454  2.0412 -3.7290
    5SAPS   H4S  575   3.874   2.966  21.852 -0.8985 -2.2837  0.3451
    5SAPS   C25  576   3.820   3.095  21.682 -0.3444  0.1987 -0.0369
    5SAPS   H5R  577   3.743   3.086  21.604  0.7135  1.5186 -1.2735
    5SAPS   C26  578   3.877   3.215  21.709  0.0697 -0.6780  0.4324
    5SAPS   H6R  579   3.826   3.306  21.675 -0.1998 -0.8132  0.4776
    5SAPS   C27  580   3.974   3.246  21.819 -0.2115 -0.2137  0.2582
    5SAPS   H7R  581   4.042   3.160  21.837 -0.4008 -0.9545 -2.1944
    5SAPS   H7S  582   3.916   3.235  21.913  0.4278 -3.8027  0.3710
    5SAPS   C28  583   4.049   3.378  21.802  0.0164 -1.0980  0.9173
    5SAPS   H8R  584   4.029   3.457  21.875  3.3368  2.3592 -1.5014
    5SAPS   C29  585   4.150   3.388  21.711 -0.0939  0.8222 -0.3848
    5SAPS   H9R  586   4.216   3.476  21.704 -0.5028  1.0769 -1.1848
    5SAPS  C210  587   4.202   3.270  21.620 -0.5463  0.0695  0.0345
    5SAPS  H10R  588   4.158   3.170  21.641  0.8273 -0.8736 -1.3455
    5SAPS  H10S  589   4.310   3.249  21.631 -0.8045 -0.8739  0.9490
    5SAPS  C211  590   4.195   3.316  21.470 -1.0636 -0.9170  0.3557
    5SAPS  H11R  591   4.100   3.309  21.415 -0.4854 -0.2521 -0.7473
    5SAPS  C212  592   4.289   3.385  21.395 -0.1269  0.5249 -0.7391
    5SAPS  H12R  593   4.261   3.398  21.289  1.0755 -2.3202 -1.5234
    5SAPS  C213  594   4.431   3.423  21.429 -0.3486 -0.7905 -0.3416
    5SAPS  H13R  595   4.493   3.437  21.337 -3.0083  1.1323 -1.9989
    5SAPS  H13S  596   4.483   3.347  21.490  0.5938  1.7268  2.1823
    5SAPS  C214  597   4.440   3.541  21.525 -0.3079  0.0360  1.0219
    5SAPS  H14R  598   4.438   3.518  21.633  1.2502 -1.4240  0.7732
    5SAPS  C215  599   4.462   3.669  21.491 -0.7320 -0.2072  0.1646
    5SAPS  H15R  600   4.457   3.750  21.566  0.2000 -1.2408  1.3975
    5SAPS  C216  601   4.482   3.719  21.356 -0.7716  0.0802  0.7971
    5SAPS  H16R  602   4.430   3.817  21.345 -1.8257 -0.4480  1.0200
    5SAPS  H16S  603   4.442   3.653  21.276 -2.1405  2.4594 -0.6024
    5SAPS  C217  604   4.628   3.745  21.310  0.0893 -0.2706 -0.5442
    5SAPS  H17R  605   4.619   3.781  21.205 -1.9712 -0.5152 -0.4954
    5SAPS  H17S  606   4.697   3.659  21.300  0.9340  0.2054  0.8842
    5SAPS  C218  607   4.695   3.851  21.397 -0.3630 -0.5493 -0.2598
    5SAPS  H18R  608   4.733   3.808  21.492  2.2973  1.1175 -0.4430
    5SAPS  H18S  609   4.633   3.937  21.430 -0.4909 -1.3580  1.7196
    5SAPS  C219  610   4.814   3.923  21.323 -1.5356 -0.3394  0.8849
    5SAPS  H19R  611   4.788   3.972  21.226  1.5677 -0.5566 -0.1669
    5SAPS  H19S  612   4.887   3.844  21.295  1.0133  1.4681  2.0705
    5SAPS  C220  613   4.878   4.023  21.418 -0.4070 -0.2326 -0.5772
    5SAPS  H20R  614   4.953   4.089  21.368 -0.7826 -0.1954 -1.0971
    5SAPS  H20S  615   4.908   3.972  21.512  0.6662 -1.5892 -1.6078
    5SAPS  H20T  616   4.796   4.094  21.442  1.7074  1.3217  3.1171
    5SAPS   C33  617   4.138   2.644  21.778  0.1821  0.2639  0.1326
    5SAPS   H3X  618   4.061   2.688  21.712 -1.5591  0.6671  2.3081
    5SAPS   H3Y  619   4.155   2.542  21.737  2.0382  0.0938  1.2082
    5SAPS   C34  620   4.271   2.721  21.765  0.3415 -0.5319  0.3663
    5SAPS   H4X  621   4.350   2.661  21.815  1.5521 -0.4122 -1.3281
    5SAPS   H4Y  622   4.271   2.826  21.803  0.6746 -0.3592 -0.1017
    5SAPS   C35  623   4.313   2.725  21.617  0.6465  0.4216 -0.9462
    5SAPS   H5X  624   4.311   2.619  21.583  3.9232 -0.5505  1.3475
    5SAPS   H5Y  625   4.418   2.763  21.614  0.1691  1.7496 -1.7190
    5SAPS   C36  626   4.231   2.825  21.529  0.2467 -0.4791  0.0281
    5SAPS   H6X  627   4.216   2.921  21.583 -0.0314 -0.5429  0.0673
    5SAPS   H6Y  628   4.131   2.778  21.517 -0.4821  1.3336 -1.4089
    5SAPS   C37  629   4.292   2.843  21.391  0.3567  0.3969  0.2116
    5SAPS   H7X  630   4.215   2.895  21.330 -0.4443  1.1911  1.8366
    5SAPS   H7Y  631   4.306   2.745  21.342  1.5509  0.0136  1.2901
    5SAPS   C38  632   4.413   2.937  21.381  0.1718 -0.0073  0.6906
    5SAPS   H8X  633   4.489   2.873  21.430 -0.3632 -0.1102  1.3972
    5SAPS   H8Y  634   4.410   3.026  21.447 -0.2077  0.7795 -0.3515
    5SAPS   C39  635   4.449   2.976  21.238 -0.5605 -0.0009 -0.0772
    5SAPS   H9X  636   4.446   2.884  21.175 -0.1366  0.7122 -1.1764
    5SAPS   H9Y  637   4.556   3.005  21.245 -0.5652  1.1596 -3.1167
    5SAPS  C310  638   4.371   3.096  21.185 -0.0266  0.2555  0.2470
    5SAPS  H10X  639   4.394   3.190  21.240  0.0288 -0.1052  0.8416
    5SAPS  H10Y  640   4.263   3.069  21.195  0.1961 -1.5250 -1.4634
    5SAPS  C311  641   4.392   3.116  21.037 -0.3579  0.6813 -0.1443
    5SAPS  H11X  642   4.347   3.027  20.987  1.8115 -1.2689  1.1723
    5SAPS  H11Y  643   4.499   3.125  21.010 -0.5560 -1.3679 -1.9797
    5SAPS  C312  644   4.333   3.248  20.996 -0.4019 -0.8198  0.1508
    5SAPS  H12X  645   4.233   3.261  21.042 -0.2030 -0.7786  0.5798
    5SAPS  H12Y  646   4.322   3.262  20.886  0.7683 -0.3890  0.0744
    5SAPS  C313  647   4.407   3.381  21.035  0.4999  0.1582  0.1825
    5SAPS  H13X  648   4.508   3.398  20.991  0.0630  0.4100 -0.7487
    5SAPS  H13Y  649   4.422   3.383  21.145 -1.3579  1.8488  0.4451
    5SAPS  C314  650   4.317   3.504  21.004 -0.2351  0.1343 -0.6406
    5SAPS  H14X  651   4.251   3.523  21.090  1.6526 -0.0092  0.9098
    5SAPS  H14Y  652   4.264   3.475  20.911 -1.5371 -0.2241  0.1927
    5SAPS  C315  653   4.398   3.627  20.977  0.1260 -0.3267 -0.3007
    5SAPS  H15X  654   4.463   3.616  20.888  3.5704 -1.7317  2.1814
    5SAPS  H15Y  655   4.464   3.651  21.063 -2.2169 -0.5146  1.6719
    5SAPS  C316  656   4.300   3.739  20.974 -0.2735  0.0840  0.5636
    5SAPS  H16X  657   4.236   3.737  21.065 -1.1586  1.4844  0.0008
    5SAPS  H16Y  658   4.226   3.734  20.892 -1.5298 -0.4580  1.6956
    5SAPS  C317  659   4.366   3.882  20.967 -0.1153  0.0896  0.1327
    5SAPS  H17X  660   4.441   3.891  21.048 -0.5968  0.2938  0.5572
    5SAPS  H17Y  661   4.289   3.960  20.987 -0.5667  0.2566 -1.9361
    5SAPS  C318  662   4.410   3.922  20.830  0.2500 -0.3111  0.1231
    5SAPS  H18X  663   4.329   3.926  20.755  1.6877 -0.0249 -1.4865
    5SAPS  H18Y  664   4.485   3.848  20.795  1.4040 -0.4455  2.6695
    5SAPS  H18Z  665   4.465   4.018  20.833  1.8919 -1.1862 -0.5372
    6SAPS     N  666   3.097   1.579  17.825 -0.1366 -0.4850  0.2736
    6SAPS   HN1  667   3.187   1.538  17.859 -0.2035 -0.1543  0.8618
    6SAPS   HN2  668   3.084   1.581  17.722 -0.2544  0.5857  0.2961
    6SAPS   HN3  669   3.106   1.680  17.848 -2.4560 -0.4979  1.4967
    6SAPS   C12  670   2.973   1.525  17.889 -0.3759  0.7193  0.3417
    6SAPS  H12A  671   2.952   1.427  17.850  0.4518  0.2139  1.1094
    6SAPS   C13  672   2.991   1.487  18.034  0.4075 -0.2811 -0.0557
    6SAPS  O13A  673   3.100   1.498  18.091 -0.8573 -0.4100 -0.1997
    6SAPS  O13B  674   2.883   1.463  18.098 -0.7370  0.6523  0.0769
    6SAPS   C11  675   2.856   1.624  17.865 -1.2055 -0.0002 -0.7354
    6SAPS  H11A  676   2.775   1.578  17.925 -0.9198 -0.7364 -0.8964
    6SAPS  H11B  677   2.826   1.613  17.758 -0.7822  0.2241 -0.8831
    6SAPS     P  678   2.761   1.853  17.939 -0.2674  0.5482 -0.2865
    6SAPS   O13  679   2.673   1.852  17.823  0.5504  0.3592  0.9073
    6SAPS   O14  680   2.704   1.821  18.073 -0.2564  0.3835  0.3192
    6SAPS   O12  681   2.880   1.756  17.913 -0.6505 -0.1104 -0.2060
    6SAPS   O11  682   2.825   1.994  17.952 -0.1645 -0.1432 -0.0231
    6SAPS    C1  683   2.898   2.059  17.850  0.4130 -0.1891  0.4404
    6SAPS    HA  684   3.004   2.077  17.878  0.6094  1.2035 -1.0306
    6SAPS    HB  685   2.900   1.999  17.757  0.6813  1.6354 -0.7724
    6SAPS    C2  686   2.830   2.202  17.826 -0.2587 -0.0998 -1.2075
    6SAPS    HS  687   2.903   2.258  17.763 -0.1024  0.2188 -0.7512
    6SAPS   O21  688   2.809   2.261  17.954  0.2271  0.8333 -1.0291
    6SAPS   C21  689   2.917   2.310  18.012 -0.6814 -0.4689  0.0218
    6SAPS   O22  690   3.029   2.304  17.963 -0.7196 -0.1766  0.4398
    6SAPS   C22  691   2.886   2.354  18.156 -0.1500  0.0878  0.4225
    6SAPS   H2R  692   2.810   2.282  18.193 -0.2637 -0.6398 -1.1300
    6SAPS   H2S  693   2.980   2.348  18.214  0.2642 -0.5067 -0.2902
    6SAPS    C3  694   2.701   2.194  17.737  0.0184 -0.1914 -0.5809
    6SAPS    HX  695   2.678   2.298  17.707 -2.6570 -0.6245 -0.2823
    6SAPS    HY  696   2.612   2.155  17.792 -0.5845  0.1617 -1.2877
    6SAPS   O31  697   2.727   2.116  17.619 -0.9571 -0.4218 -0.2059
    6SAPS   C31  698   2.646   2.148  17.529 -0.6443  0.3483  0.6351
    6SAPS   O32  699   2.541   2.219  17.540 -0.0086  0.4939 -0.4345
    6SAPS   C32  700   2.694   2.078  17.400 -0.2090  0.4652  0.1871
    6SAPS   H2X  701   2.619   1.998  17.381 -0.5076  0.6847  0.4369
    6SAPS   H2Y  702   2.785   2.019  17.426 -2.9088 -2.9159  3.0578
    6SAPS   C23  703   2.836   2.500  18.171 -0.6277  0.0225  0.5675
    6SAPS   H3R  704   2.823   2.516  18.280  0.1121 -1.0019  0.8260
    6SAPS   H3S  705   2.728   2.495  18.149 -0.4539 -1.4121 -0.0893
    6SAPS   C24  706   2.930   2.601  18.100  0.2875  0.5870  0.0119
    6SAPS   H4R  707   2.933   2.581  17.991  1.6248 -1.7951  0.3988
    6SAPS   H4S  708   3.038   2.587  18.122  0.3395  0.1335 -0.5053
    6SAPS   C25  709   2.868   2.731  18.143 -0.2151 -0.7855  0.6400
    6SAPS   H5R  710   2.759   2.739  18.131 -0.1575 -0.3066  0.3845
    6SAPS   C26  711   2.929   2.847  18.171  0.8552 -0.4808  0.3950
    6SAPS   H6R  712   2.871   2.936  18.201  0.6194 -0.3149 -0.5175
    6SAPS   C27  713   3.080   2.873  18.167  0.0123 -0.8356  0.4692
    6SAPS   H7R  714   3.133   2.825  18.081 -1.8382 -1.0710 -0.5857
    6SAPS   H7S  715   3.136   2.830  18.252  0.3843  0.2875  0.8134
    6SAPS   C28  716   3.126   3.014  18.171 -1.0457  0.1236  0.3171
    6SAPS   H8R  717   3.149   3.046  18.274  2.1444 -1.1498  0.1147
    6SAPS   C29  718   3.133   3.102  18.071  0.4820  1.2383  0.1399
    6SAPS   H9R  719   3.176   3.200  18.096  0.0805  1.1235  1.3528
    6SAPS  C210  720   3.106   3.064  17.920 -0.2392  0.1225 -0.2881
    6SAPS  H10R  721   3.073   3.158  17.871  0.7052  0.3596 -0.4827
    6SAPS  H10S  722   3.015   3.000  17.916 -0.5512  0.6182 -1.4479
    6SAPS  C211  723   3.221   3.000  17.848 -0.0245 -0.5863 -0.3874
    6SAPS  H11R  724   3.315   3.059  17.853  1.2373 -2.6233  1.8824
    6SAPS  C212  725   3.226   2.884  17.776 -0.5363 -0.1113 -0.4725
    6SAPS  H12R  726   3.314   2.847  17.724  0.3549  2.4270 -0.9201
    6SAPS  C213  727   3.115   2.782  17.763  0.5052  1.1090 -0.0506
    6SAPS  H13R  728   3.057   2.794  17.669  1.3586 -3.5697 -1.4265
    6SAPS  H13S  729   3.041   2.792  17.846 -0.5307 -0.8575 -0.6761
    6SAPS  C214  730   3.160   2.641  17.756  0.6581  0.1165 -0.0217
    6SAPS  H14R  731   3.263   2.620  17.789  0.9510 -0.6759 -1.3686
    6SAPS  C215  732   3.098   2.535  17.702 -0.6486 -0.0975 -0.1232
    6SAPS  H15R  733   3.149   2.438  17.704  1.1416  0.7340 -1.7080
    6SAPS  C216  734   2.961   2.533  17.644  0.0709 -0.5933 -0.3601
    6SAPS  H16R  735   2.921   2.636  17.642  3.5926  0.9016 -0.8048
    6SAPS  H16S  736   2.895   2.468  17.706 -0.4070 -1.5839 -1.8355
    6SAPS  C217  737   2.965   2.493  17.499 -0.1698 -1.0283  0.1562
    6SAPS  H17R  738   2.951   2.382  17.500 -1.3145 -0.9088  1.9602
    6SAPS  H17S  739   3.061   2.521  17.451 -0.1758 -0.3450  0.5294
    6SAPS  C218  740   2.839   2.544  17.428  0.2094  0.2876  0.4879
    6SAPS  H18R  741   2.747   2.537  17.491 -0.7082 -0.6885 -0.9023
    6SAPS  H18S  742   2.821   2.470  17.347  1.2306  1.4831 -0.8830
    6SAPS  C219  743   2.845   2.680  17.364  0.2899  0.8239 -0.2087
    6SAPS  H19R  744   2.925   2.674  17.287 -0.4186 -0.0368 -0.8983
    6SAPS  H19S  745   2.887   2.741  17.447 -3.0642  1.7615  0.9701
    6SAPS  C220  746   2.719   2.747  17.314 -0.8878  0.3561  0.3851
    6SAPS  H20R  747   2.758   2.831  17.253  1.1176 -1.9022 -1.6512
    6SAPS  H20S  748   2.637   2.781  17.381 -0.3446  0.6203  0.9160
    6SAPS  H20T  749   2.665   2.686  17.238  0.3373 -1.4564  0.8827
    6SAPS   C33  750   2.688   2.176  17.278 -0.6661  0.1498  0.2331
    6SAPS   H3X  751   2.738   2.133  17.189  0.8504  1.4989  0.3986
    6SAPS   H3Y  752   2.740   2.269  17.309 -1.3460  0.4698  0.4564
    6SAPS   C34  753   2.547   2.221  17.232 -0.0503 -0.3009  0.6079
    6SAPS   H4X  754   2.486   2.238  17.324  1.0687  0.3521  1.2613
    6SAPS   H4Y  755   2.505   2.145  17.163 -0.3125  1.4983 -1.2810
    6SAPS   C35  756   2.553   2.354  17.149 -0.1646 -0.0924 -0.4219
    6SAPS   H5X  757   2.584   2.435  17.218 -2.8032  1.5387 -1.0114
    6SAPS   H5Y  758   2.452   2.383  17.113  0.6677  2.6277 -0.8029
    6SAPS   C36  759   2.642   2.355  17.024  0.1865 -0.1428 -0.8247
    6SAPS   H6X  760   2.609   2.279  16.949  1.4239 -0.5340 -1.0041
    6SAPS   H6Y  761   2.749   2.336  17.048 -0.1936 -0.0703  1.0487
    6SAPS   C37  762   2.646   2.481  16.945  0.5214  0.1060 -0.0475
    6SAPS   H7X  763   2.706   2.459  16.854 -0.1881  0.6264 -0.6627
    6SAPS   H7Y  764   2.707   2.557  16.999 -0.3185  1.1086 -0.4580
    6SAPS   C38  765   2.510   2.530  16.897  0.4349 -0.7229 -0.9688
    6SAPS   H8X  766   2.461   2.585  16.980  0.1994  2.9080 -3.2415
    6SAPS   H8Y  767   2.448   2.439  16.880 -1.1353  0.4989 -2.1444
    6SAPS   C39  768   2.525   2.617  16.771  0.3577 -0.0952 -0.4360
    6SAPS   H9X  769   2.538   2.552  16.682  1.1848  0.3847 -0.6754
    6SAPS   H9Y  770   2.615   2.680  16.785  1.9342 -2.4565  0.7546
    6SAPS  C310  771   2.400   2.692  16.733  0.8975  0.2412  0.1158
    6SAPS  H10X  772   2.382   2.773  16.806 -0.3547 -0.4957  0.6638
    6SAPS  H10Y  773   2.309   2.628  16.743  1.3324 -0.0388  2.8185
    6SAPS  C311  774   2.406   2.762  16.598  0.5270  0.2384 -0.0420
    6SAPS  H11X  775   2.393   2.683  16.521  0.1805 -0.1717  0.4307
    6SAPS  H11Y  776   2.505   2.809  16.582  1.0642 -1.2171 -1.1506
    6SAPS  C312  777   2.307   2.886  16.587 -0.0272 -0.2651  0.4722
    6SAPS  H12X  778   2.361   2.979  16.615 -0.4584  0.7663 -1.8227
    6SAPS  H12Y  779   2.221   2.864  16.653  0.4122 -1.0230  0.8024
    6SAPS  C313  780   2.248   2.935  16.448 -0.0495 -0.1739  0.6234
    6SAPS  H13X  781   2.224   3.044  16.455  1.7017  0.1777  1.7990
    6SAPS  H13Y  782   2.153   2.879  16.441  1.2612 -2.3195 -3.0237
    6SAPS  C314  783   2.339   2.909  16.332 -1.1194 -0.2002 -0.4024
    6SAPS  H14X  784   2.351   2.799  16.321  0.0720 -0.2727  1.2194
    6SAPS  H14Y  785   2.436   2.956  16.360 -1.7094  1.4791 -1.0687
    6SAPS  C315  786   2.290   2.966  16.203 -0.9005 -0.5604  0.4720
    6SAPS  H15X  787   2.302   3.076  16.206  0.6275 -0.7291  2.3605
    6SAPS  H15Y  788   2.182   2.950  16.182 -0.6059 -0.8621 -0.9043
    6SAPS  C316  789   2.365   2.917  16.074  0.1560  0.0866 -0.0627
    6SAPS  H16X  790   2.361   2.806  16.070 -0.6638  0.0890  0.4204
    6SAPS  H16Y  791   2.472   2.944  16.062  0.2267 -0.2524 -0.2287
    6SAPS  C317  792   2.298   2.963  15.942 -0.3498  0.2716 -0.5712
    6SAPS  H17X  793   2.189   2.971  15.962 -0.1512  2.5947 -0.0948
    6SAPS  H17Y  794   2.313   2.879  15.871 -1.2799  0.1139 -0.5903
    6SAPS  C318  795   2.353   3.082  15.883 -0.4974 -0.3495  0.2735
    6SAPS  H18X  796   2.376   3.168  15.949 -0.9830 -0.5197  0.6697
    6SAPS  H18Y  797   2.282   3.117  15.805 -0.1137 -3.0935 -1.4409
    6SAPS  H18Z  798   2.443   3.070  15.820  0.0720  0.9100  0.8140
    7SAPS     N  799   3.036   2.397  22.663  0.3140 -0.3296  0.0916
    7SAPS   HN1  800   3.017   2.481  22.721 -1.1751 -0.7328  0.2228
    7SAPS   HN2  801   3.135   2.367  22.671 -0.1807 -1.5811  2.0154
    7SAPS   HN3  802   2.997   2.421  22.569  0.3297 -1.1547 -0.1385
    7SAPS   C12  803   2.944   2.292  22.718  0.7995 -0.7347  0.2018
    7SAPS  H12A  804   2.947   2.204  22.656 -0.7365  0.1884 -1.2618
    7SAPS   C13  805   3.001   2.238  22.851  0.5386  0.0597  0.0023
    7SAPS  O13A  806   3.109   2.275  22.894  0.1688  0.2817 -0.7228
    7SAPS  O13B  807   2.937   2.149  22.910 -0.2512  0.0009 -0.5632
    7SAPS   C11  808   2.803   2.353  22.730 -0.2928  0.2272  0.0060
    7SAPS  H11A  809   2.802   2.453  22.778  0.1198  0.5407 -0.6292
    7SAPS  H11B  810   2.731   2.282  22.777 -2.1735  1.1856 -1.2623
    7SAPS     P  811   2.617   2.417  22.554  0.1019 -0.0282  0.1182
    7SAPS   O13  812   2.586   2.357  22.419  0.5083 -0.1821 -0.5337
    7SAPS   O14  813   2.517   2.385  22.661 -0.0673  0.0124 -0.6222
    7SAPS   O12  814   2.751   2.364  22.598 -0.1725 -0.2690  0.0714
    7SAPS   O11  815   2.642   2.571  22.537 -0.3557 -0.2490 -0.3170
    7SAPS    C1  816   2.632   2.655  22.657 -0.4817 -0.0695 -0.3455
    7SAPS    HA  817   2.658   2.604  22.752  2.0648  3.1090  0.8683
    7SAPS    HB  818   2.705   2.739  22.656 -1.5342  0.9118  1.3103
    7SAPS    C2  819   2.491   2.716  22.679 -0.2298 -0.9763  0.1005
    7SAPS    HS  820   2.420   2.640  22.639  2.1916 -1.8081 -2.9789
    7SAPS   O21  821   2.482   2.845  22.618 -0.0772  0.0127 -0.2658
    7SAPS   C21  822   2.367   2.877  22.558 -0.0089  0.4307  0.6619
    7SAPS   O22  823   2.265   2.805  22.565 -0.3685  0.4282  0.2136
    7SAPS   C22  824   2.375   3.019  22.511  1.2638 -0.2677 -0.4918
    7SAPS   H2R  825   2.484   3.036  22.497  1.6862 -0.1684  2.4207
    7SAPS   H2S  826   2.326   3.026  22.411 -0.3950 -1.6880  0.1878
    7SAPS    C3  827   2.469   2.739  22.832  0.0304 -0.5112  0.2272
    7SAPS    HX  828   2.554   2.800  22.868 -1.0034  1.8566 -1.1519
    7SAPS    HY  829   2.469   2.639  22.882  0.5060 -0.7692 -0.2823
    7SAPS   O31  830   2.347   2.809  22.855  0.0503  0.3429 -0.4317
    7SAPS   C31  831   2.242   2.731  22.868 -0.3591 -0.0021  0.1126
    7SAPS   O32  832   2.243   2.616  22.908  0.7462  0.0796 -0.4591
    7SAPS   C32  833   2.115   2.805  22.833  0.5951 -0.2867  0.6560
    7SAPS   H2X  834   2.034   2.730  22.826  0.0926  0.3998 -2.0308
    7SAPS   H2Y  835   2.124   2.863  22.739  0.5028  0.9877  1.4106
    7SAPS   C23  836   2.292   3.118  22.603 -0.0044  0.5245  0.9268
    7SAPS   H3R  837   2.186   3.086  22.604  0.3199 -0.7039  3.4898
    7SAPS   H3S  838   2.308   3.219  22.558  1.2557 -0.5104 -1.1253
    7SAPS   C24  839   2.337   3.135  22.746  0.1575  0.1818 -0.2906
    7SAPS   H4R  840   2.321   3.042  22.804 -2.8913  1.0163  0.4112
    7SAPS   H4S  841   2.272   3.216  22.787 -1.0512 -0.9528  0.0899
    7SAPS   C25  842   2.478   3.184  22.759  0.7071 -0.2886 -0.0460
    7SAPS   H5R  843   2.560   3.111  22.764  2.5536  1.5275 -1.9025
    7SAPS   C26  844   2.512   3.311  22.789 -0.2130 -0.3473 -0.6048
    7SAPS   H6R  845   2.620   3.329  22.805 -0.0416 -2.8709  1.7425
    7SAPS   C27  846   2.420   3.434  22.800  0.1203 -0.3284 -0.5612
    7SAPS   H7R  847   2.466   3.518  22.857 -0.8041 -0.2284  0.0765
    7SAPS   H7S  848   2.344   3.405  22.877  0.7988 -1.0625 -0.1604
    7SAPS   C28  849   2.347   3.485  22.679  0.4881  0.0127  0.1612
    7SAPS   H8R  850   2.261   3.422  22.653 -2.0385  2.4726  1.9988
    7SAPS   C29  851   2.358   3.600  22.617 -0.0438 -0.0425  0.1467
    7SAPS   H9R  852   2.293   3.629  22.534  0.0569  0.3249  0.1937
    7SAPS  C210  853   2.464   3.696  22.653  0.4714 -0.1942  0.0447
    7SAPS  H10R  854   2.516   3.729  22.561 -0.1517  1.4250  0.2410
    7SAPS  H10S  855   2.546   3.651  22.714  0.5040  0.9887  0.9180
    7SAPS  C211  856   2.411   3.820  22.729  0.3689 -0.3717 -0.1447
    7SAPS  H11R  857   2.307   3.806  22.763  0.3299  1.6536  0.6976
    7SAPS  C212  858   2.468   3.941  22.746 -0.3028  0.2408 -0.8733
    7SAPS  H12R  859   2.418   4.017  22.807 -2.2062 -1.6852  0.0997
    7SAPS  C213  860   2.601   3.989  22.708 -0.5203 -0.3254  0.5617
    7SAPS  H13R  861   2.670   3.916  22.660  1.3005  1.6060  0.1067
    7SAPS  H13S  862   2.663   4.009  22.799  0.9210 -0.1818 -0.4089
    7SAPS  C214  863   2.594   4.118  22.631  0.3218 -0.1916  0.3971
    7SAPS  H14R  864   2.595   4.094  22.524  2.0129 -1.1498  0.5910
    7SAPS  C215  865   2.581   4.248  22.666  0.4379 -0.1375  0.4613
    7SAPS  H15R  866   2.561   4.326  22.591  0.9510 -1.4530 -1.1070
    7SAPS  C216  867   2.570   4.304  22.808 -0.4750 -0.0835 -0.1618
    7SAPS  H16R  868   2.564   4.221  22.882  0.7549 -1.5880 -1.7019
    7SAPS  H16S  869   2.482   4.371  22.821 -0.6771 -0.2130 -0.8446
    7SAPS  C217  870   2.685   4.397  22.843 -0.0605  0.0262 -1.1413
    7SAPS  H17R  871   2.696   4.474  22.764  3.4108 -0.2889 -1.1486
    7SAPS  H17S  872   2.779   4.337  22.839 -0.3106 -0.4061 -0.6323
    7SAPS  C218  873   2.658   4.449  22.990  0.1434 -0.4773 -0.3220
    7SAPS  H18R  874   2.612   4.372  23.055 -1.1873  1.1861  0.8166
    7SAPS  H18S  875   2.580   4.526  22.969 -0.0335  0.1325  2.2809
    7SAPS  C219  876   2.787   4.502  23.057  0.1589 -0.1646  0.2893
    7SAPS  H19R  877   2.852   4.418  23.092  0.3269  0.1985  0.8651
    7SAPS  H19S  878   2.762   4.561  23.148  2.3695  0.5564  0.5089
    7SAPS  C220  879   2.860   4.591  22.964  0.3950  0.0492 -0.0099
    7SAPS  H20R  880   2.964   4.603  22.999  1.1044 -3.1798 -0.6767
    7SAPS  H20S  881   2.802   4.684  22.943 -0.7116 -0.6307 -0.0704
    7SAPS  H20T  882   2.881   4.545  22.866  0.3804  2.7744 -1.3723
    7SAPS   C33  883   2.052   2.904  22.936  0.3442  0.2747  0.8115
    7SAPS   H3X  884   2.128   2.981  22.962 -0.5716  1.4579  0.1273
    7SAPS   H3Y  885   2.029   2.854  23.032 -1.6794  2.2630  1.4381
    7SAPS   C34  886   1.917   2.972  22.899  0.0218  0.1642  0.1444
    7SAPS   H4X  887   1.832   2.902  22.889  0.2051 -0.2509  1.3197
    7SAPS   H4Y  888   1.920   3.022  22.800  0.8050  2.7692  1.3811
    7SAPS   C35  889   1.870   3.072  23.005  0.6778  0.8017 -0.1622
    7SAPS   H5X  890   1.941   3.157  23.013  0.6351  0.6549  2.4890
    7SAPS   H5Y  891   1.857   3.014  23.099 -2.7542 -0.0295 -1.0361
    7SAPS   C36  892   1.738   3.148  22.978  0.6885 -0.0340  0.3111
    7SAPS   H6X  893   1.715   3.207  23.070  3.1113 -0.8676  1.5493
    7SAPS   H6Y  894   1.654   3.076  22.964 -1.2635  2.2281 -0.1243
    7SAPS   C37  895   1.745   3.243  22.855  0.4255 -0.2410  0.6920
    7SAPS   H7X  896   1.734   3.188  22.759  0.7656  0.9120 -0.0293
    7SAPS   H7Y  897   1.841   3.298  22.856  0.6144 -0.5738  1.0587
    7SAPS   C38  898   1.635   3.352  22.840  0.6700 -0.2444 -0.2771
    7SAPS   H8X  899   1.611   3.408  22.934 -2.2449  1.5280 -1.9183
    7SAPS   H8Y  900   1.545   3.292  22.816  1.1804 -1.3600  0.5024
    7SAPS   C39  901   1.665   3.452  22.730 -0.2760  0.5478  0.4092
    7SAPS   H9X  902   1.672   3.400  22.632  0.6077  1.7204 -0.1741
    7SAPS   H9Y  903   1.766   3.497  22.741 -0.5586  1.6158 -1.0781
    7SAPS  C310  904   1.567   3.572  22.743  0.5075  0.4138  0.6309
    7SAPS  H10X  905   1.600   3.634  22.829  0.8621  0.0400  0.7735
    7SAPS  H10Y  906   1.463   3.535  22.752  0.4716  0.1419 -0.6316
    7SAPS  C311  907   1.560   3.676  22.626 -0.3160 -0.2452  0.1342
    7SAPS  H11X  908   1.506   3.618  22.548 -2.4056  1.5496  0.1751
    7SAPS  H11Y  909   1.661   3.679  22.580 -1.3450 -2.6394 -2.6346
    7SAPS  C312  910   1.495   3.808  22.660 -0.0142  0.0265  0.3074
    7SAPS  H12X  911   1.511   3.833  22.767 -0.4578 -1.0567  0.6451
    7SAPS  H12Y  912   1.385   3.808  22.648  0.0827 -1.0930 -0.8214
    7SAPS  C313  913   1.556   3.928  22.589 -0.0079  0.0893 -0.2394
    7SAPS  H13X  914   1.549   3.897  22.483 -1.4032 -2.8478  0.5866
    7SAPS  H13Y  915   1.664   3.937  22.613  0.1335  0.1773 -0.8994
    7SAPS  C314  916   1.495   4.063  22.616  0.2211 -0.1764  1.0043
    7SAPS  H14X  917   1.541   4.135  22.544 -0.6150  1.9677  2.4820
    7SAPS  H14Y  918   1.502   4.108  22.717 -3.4524  0.5918  1.0586
    7SAPS  C315  919   1.341   4.064  22.603 -0.4356  0.1218 -0.0649
    7SAPS  H15X  920   1.308   3.992  22.681 -0.8036 -1.0441 -1.2616
    7SAPS  H15Y  921   1.303   4.034  22.503 -0.3724  0.2185 -0.1176
    7SAPS  C316  922   1.281   4.207  22.638 -0.3995  0.7250 -0.4456
    7SAPS  H16X  923   1.304   4.212  22.747 -0.6273  0.3609 -0.3802
    7SAPS  H16Y  924   1.170   4.210  22.633 -0.5785 -2.6956 -0.9962
    7SAPS  C317  925   1.336   4.334  22.568  0.2491  0.8406 -0.3449
    7SAPS  H17X  926   1.441   4.366  22.587 -0.0674  1.7381 -0.1048
    7SAPS  H17Y  927   1.286   4.416  22.623  3.3147  1.5013  1.7340
    7SAPS  C318  928   1.312   4.333  22.417  0.1146  0.0882 -0.4139
    7SAPS  H18X  929   1.385   4.266  22.367  1.2603 -0.4701  1.8899
    7SAPS  H18Y  930   1.308   4.436  22.375 -1.2321 -0.1813 -1.0086
    7SAPS  H18Z  931   1.208   4.306  22.388 -0.0028  0.5006 -0.3857
    8SAPS     N  932   0.728   3.470  26.723  0.4491 -0.2706 -0.1719
    8SAPS   HN1  933   0.625   3.474  26.712  0.2726 -0.4723  1.2010
    8SAPS   HN2  934   0.772   3.389  26.676  0.2384  0.4355 -1.6427
    8SAPS   HN3  935   0.738   3.450  26.825  0.1944  0.0765 -0.0750
    8SAPS   C12  936   0.800   3.592  26.681 -0.2937 -0.5816 -0.7122
    8SAPS  H12A  937   0.750   3.680  26.720 -0.2854 -0.7539 -0.3007
    8SAPS   C13  938   0.940   3.603  26.741  1.0717  0.3657 -0.1765
    8SAPS  O13A  939   0.983   3.512  26.818 -0.1471  0.4594  0.3660
    8SAPS  O13B  940   1.012   3.705  26.711 -0.1768  0.1415 -0.7726
    8SAPS   C11  941   0.790   3.603  26.523  0.0247  0.0649 -1.0709
    8SAPS  H11A  942   0.865   3.536  26.476 -0.6090 -0.7232 -0.9707
    8SAPS  H11B  943   0.811   3.708  26.493 -0.0777  0.2747 -0.4295
    8SAPS     P  944   0.631   3.524  26.344 -0.0971 -0.4882  0.3743
    8SAPS   O13  945   0.699   3.397  26.322  0.0005  0.3272 -0.3924
    8SAPS   O14  946   0.486   3.514  26.319  0.1653 -0.0639 -0.9901
    8SAPS   O12  947   0.655   3.556  26.494  0.2565  0.2893  0.0734
    8SAPS   O11  948   0.704   3.637  26.261 -0.3340 -0.0417  0.2162
    8SAPS    C1  949   0.652   3.694  26.149  0.4886  0.1946  0.2883
    8SAPS    HA  950   0.551   3.727  26.181  1.0377 -0.3007  2.7463
    8SAPS    HB  951   0.710   3.783  26.117 -1.2579  0.6241 -2.0267
    8SAPS    C2  952   0.627   3.601  26.025 -0.4958  0.9780  0.4395
    8SAPS    HS  953   0.562   3.516  26.056 -0.3375  0.2196 -1.2291
    8SAPS   O21  954   0.755   3.555  25.970  0.0104 -0.2974 -0.0663
    8SAPS   C21  955   0.769   3.423  25.967 -0.1881  0.2619 -0.1557
    8SAPS   O22  956   0.686   3.343  26.004 -0.8371  0.2642 -0.3534
    8SAPS   C22  957   0.907   3.396  25.923 -0.2443  0.0924  0.3693
    8SAPS   H2R  958   0.975   3.473  25.967  0.2959 -0.3984  0.3963
    8SAPS   H2S  959   0.950   3.302  25.965  0.6163  1.5832  3.1299
    8SAPS    C3  960   0.543   3.680  25.918 -0.1084  1.3509 -0.0792
    8SAPS    HX  961   0.601   3.764  25.874  1.0496  0.4716 -0.2734
    8SAPS    HY  962   0.459   3.730  25.971 -1.0515 -0.3596  0.0925
    8SAPS   O31  963   0.505   3.582  25.814 -0.2292 -0.1360  0.0212
    8SAPS   C31  964   0.404   3.503  25.842  0.1578 -0.4582  0.1098
    8SAPS   O32  965   0.347   3.509  25.950  0.0783  0.4153  0.2551
    8SAPS   C32  966   0.372   3.422  25.718  0.1114 -0.3539  0.1548
    8SAPS   H2X  967   0.466   3.391  25.669  0.2648 -1.8652  1.3201
    8SAPS   H2Y  968   0.322   3.488  25.644  2.2052 -0.4203 -1.4168
    8SAPS   C23  969   0.912   3.370  25.774  0.8371 -0.6178  0.1920
    8SAPS   H3R  970   0.848   3.281  25.761 -1.4741  1.0778 -0.8657
    8SAPS   H3S  971   1.018   3.347  25.751  0.1958 -1.8793 -1.7123
    8SAPS   C24  972   0.871   3.495  25.695  0.8718  0.4367  0.1521
    8SAPS   H4R  973   0.915   3.591  25.729 -0.5436  0.8359  0.9526
    8SAPS   H4S  974   0.764   3.513  25.721 -0.6558 -0.2801 -4.6570
    8SAPS   C25  975   0.897   3.469  25.544  0.0967  0.2087  0.1861
    8SAPS   H5R  976   1.004   3.470  25.517  0.3239  1.5434  1.0280
    8SAPS   C26  977   0.810   3.476  25.445 -0.2046 -0.2358  0.4441
    8SAPS   H6R  978   0.845   3.445  25.346  1.3244  2.1178  0.1803
    8SAPS   C27  979   0.666   3.504  25.461  0.5348  0.3325  1.1027
    8SAPS   H7R  980   0.654   3.563  25.554 -0.7021 -0.3416  1.3950
    8SAPS   H7S  981   0.605   3.411  25.466 -2.3303  2.0038 -0.2831
    8SAPS   C28  982   0.622   3.580  25.345  0.3453 -0.2978  0.2995
    8SAPS   H8R  983   0.700   3.651  25.314  0.2673 -1.4693 -3.0328
    8SAPS   C29  984   0.508   3.563  25.274  0.0017 -0.8235  0.1419
    8SAPS   H9R  985   0.472   3.633  25.197 -0.4529 -1.3942 -0.1748
    8SAPS  C210  986   0.407   3.454  25.294  0.3990  0.0084  0.4073
    8SAPS  H10R  987   0.316   3.488  25.348  0.6839 -1.8000  2.1628
    8SAPS  H10S  988   0.438   3.383  25.374  0.1069 -1.2147 -0.5357
    8SAPS  C211  989   0.378   3.377  25.168 -0.3005  0.3198  0.1309
    8SAPS  H11R  990   0.346   3.435  25.081 -1.7278  0.0626  0.4547
    8SAPS  C212  991   0.387   3.241  25.156  0.0277 -0.3729 -0.3726
    8SAPS  H12R  992   0.367   3.193  25.059 -0.7316 -2.3577  0.7212
    8SAPS  C213  993   0.438   3.151  25.263  0.2415 -0.1367 -0.3282
    8SAPS  H13R  994   0.350   3.145  25.332 -1.1217  1.5461 -1.8238
    8SAPS  H13S  995   0.521   3.195  25.322 -0.4118 -1.6130  1.8281
    8SAPS  C214  996   0.487   3.021  25.211  0.0019 -0.0964  0.7312
    8SAPS  H14R  997   0.596   3.005  25.211  0.5203  2.7342 -0.7673
    8SAPS  C215  998   0.414   2.915  25.175  0.1898  0.1394 -0.5550
    8SAPS  H15R  999   0.461   2.821  25.144  2.3333  0.4005  1.6583
    8SAPS  C216 1000   0.266   2.914  25.167  0.1777  0.0624 -0.0036
    8SAPS  H16R 1001   0.220   2.987  25.237 -0.7189  0.4457 -0.9669
    8SAPS  H16S 1002   0.236   2.811  25.196  0.6380 -0.4552 -1.2894
    8SAPS  C217 1003   0.206   2.926  25.029 -0.0899  0.5828  0.0681
    8SAPS  H17R 1004   0.231   3.028  24.992 -0.1640  0.7205  0.3932
    8SAPS  H17S 1005   0.095   2.922  25.026 -0.0620  0.0853 -0.4159
    8SAPS  C218 1006   0.256   2.813  24.934  0.0285  0.2976  0.2066
    8SAPS  H18R 1007   0.197   2.718  24.941 -0.9962  0.8556 -0.5891
    8SAPS  H18S 1008   0.355   2.779  24.970  0.5731  0.2747 -1.2556
    8SAPS  C219 1009   0.264   2.858  24.793 -0.1991  0.7102  0.4380
    8SAPS  H19R 1010   0.291   2.766  24.736 -1.5579  0.3996  0.2673
    8SAPS  H19S 1011   0.355   2.921  24.780  2.6853 -3.0947  0.0681
    8SAPS  C220 1012   0.139   2.916  24.728 -0.1994  0.0940 -0.3332
    8SAPS  H20R 1013   0.058   2.839  24.728  0.3788 -0.5212 -0.4759
    8SAPS  H20S 1014   0.162   2.956  24.627  1.3978  0.8032  0.2802
    8SAPS  H20T 1015   0.085   2.982  24.800  1.0239 -0.4680  1.1459
    8SAPS   C33 1016   0.255   3.312  25.733 -0.3657 -0.2273  0.1771
    8SAPS   H3X 1017   0.160   3.360  25.764 -0.4792 -1.2847  1.5308
    8SAPS   H3Y 1018   0.273   3.226  25.800 -1.2815  0.2900  1.1193
    8SAPS   C34 1019   0.207   3.260  25.592  0.0198  0.2843  0.9219
    8SAPS   H4X 1020   0.275   3.195  25.532 -1.9088  1.0070 -2.2653
    8SAPS   H4Y 1021   0.197   3.350  25.528 -1.7344  1.1744  2.3659
    8SAPS   C35 1022   0.058   3.203  25.581 -0.5088 -0.4799 -0.0962
    8SAPS   H5X 1023  -0.010   3.284  25.613 -0.9375 -1.4147  1.4547
    8SAPS   H5Y 1024   0.045   3.114  25.647 -2.6788 -0.2915 -0.2206
    8SAPS   C36 1025   0.006   3.161  25.439 -0.2331  0.1721  0.4640
    8SAPS   H6X 1026  -0.093   3.112  25.450 -1.2807  2.0302 -0.1906
    8SAPS   H6Y 1027   0.072   3.084  25.393 -2.1996 -0.4725 -1.4170
    8SAPS   C37 1028   0.010   3.275  25.331  0.2077 -0.0173  0.4860
    8SAPS   H7X 1029   0.103   3.334  25.332  0.6526 -0.3742 -3.3276
    8SAPS   H7Y 1030  -0.080   3.337  25.353  0.6378  0.7673  0.0775
    8SAPS   C38 1031  -0.008   3.222  25.185  0.2060  0.8143 -0.2618
    8SAPS   H8X 1032  -0.097   3.155  25.181  0.0009  1.1158 -0.9267
    8SAPS   H8Y 1033   0.080   3.158  25.162  1.5238  1.7815  1.8363
    8SAPS   C39 1034  -0.037   3.330  25.081  0.0698  0.9849  0.2614
    8SAPS   H9X 1035   0.032   3.415  25.097  0.8802  1.1299 -3.2047
    8SAPS   H9Y 1036  -0.140   3.367  25.101 -0.5699 -0.1548 -0.8213
    8SAPS  C310 1037  -0.028   3.276  24.945  0.0697 -0.5436  0.0213
    8SAPS  H10X 1038  -0.073   3.176  24.928 -0.5428 -0.2838  0.1116
    8SAPS  H10Y 1039   0.078   3.291  24.914  0.1521  1.5087  1.1423
    8SAPS  C311 1040  -0.108   3.375  24.852 -0.2754  0.1600 -0.1114
    8SAPS  H11X 1041  -0.208   3.401  24.892  0.6808 -0.7418  3.1890
    8SAPS  H11Y 1042  -0.116   3.326  24.753 -1.6591  0.0297  0.0479
    8SAPS  C312 1043  -0.040   3.514  24.835  0.0842  0.3032 -0.7722
    8SAPS  H12X 1044   0.067   3.501  24.808 -0.0337 -1.1652 -0.5968
    8SAPS  H12Y 1045  -0.043   3.582  24.923  2.0390 -1.1650  0.4934
    8SAPS  C313 1046  -0.104   3.585  24.719  0.2226  0.3994  0.1905
    8SAPS  H13X 1047  -0.113   3.518  24.630 -0.4495  1.0619 -0.2576
    8SAPS  H13Y 1048  -0.043   3.669  24.680 -0.7520  0.8594 -0.4065
    8SAPS  C314 1049  -0.250   3.623  24.750 -0.3649  0.2553  0.1284
    8SAPS  H14X 1050  -0.324   3.541  24.744 -0.7504  0.3558  2.4930
    8SAPS  H14Y 1051  -0.285   3.692  24.670 -2.9392 -1.5117 -0.3761
    8SAPS  C315 1052  -0.283   3.709  24.871  0.5642  0.1787 -1.0355
    8SAPS  H15X 1053  -0.378   3.759  24.844  0.7885  1.4783  0.4609
    8SAPS  H15Y 1054  -0.210   3.789  24.894  1.0928 -0.8041  0.9186
    8SAPS  C316 1055  -0.313   3.631  25.006 -0.2399 -0.2989 -0.0698
    8SAPS  H16X 1056  -0.224   3.575  25.041  1.2304  1.4664 -0.8310
    8SAPS  H16Y 1057  -0.391   3.555  24.981  0.7389 -0.7482 -1.9968
    8SAPS  C317 1058  -0.348   3.723  25.121  0.3021 -0.3355 -0.1225
    8SAPS  H17X 1059  -0.438   3.782  25.093  0.3601  0.6798  1.6881
    8SAPS  H17Y 1060  -0.262   3.793  25.126 -1.0110  1.3278  0.1386
    8SAPS  C318 1061  -0.359   3.652  25.253 -0.9884 -0.1011  0.2617
    8SAPS  H18X 1062  -0.273   3.582  25.250 -0.5395  0.3693  1.3722
    8SAPS  H18Y 1063  -0.456   3.598  25.253 -1.3978  0.6138  0.2106
    8SAPS  H18Z 1064  -0.351   3.716  25.344  1.6979  0.1761 -0.0996
    9SAPS     N 1065   2.008   1.911  20.106  0.1063  0.0993 -0.5950
    9SAPS   HN1 1066   2.028   1.996  20.161  1.5288 -1.6136  1.7378
    9SAPS   HN2 1067   1.912   1.876  20.126 -0.2428  1.7436  0.7270
    9SAPS   HN3 1068   2.066   1.833  20.144 -1.6315 -1.2976 -0.6646
    9SAPS   C12 1069   2.033   1.923  19.959  0.2862  0.2368 -0.7481
    9SAPS  H12A 1070   2.134   1.956  19.944  0.5497 -0.7875 -1.2964
    9SAPS   C13 1071   2.028   1.790  19.886  0.4853  0.1146  0.8186
    9SAPS  O13A 1072   1.999   1.683  19.947  0.3948  0.4876 -0.5975
    9SAPS  O13B 1073   2.023   1.795  19.761  0.4683  0.5072  0.3340
    9SAPS   C11 1074   1.929   2.034  19.905  0.4342  0.7930 -0.7033
    9SAPS  H11A 1075   1.943   2.041  19.795 -1.0086  0.7786 -0.9088
    9SAPS  H11B 1076   1.968   2.132  19.940 -1.0578  1.2729 -0.3010
    9SAPS     P 1077   1.689   2.093  19.849 -0.1294 -0.5217 -0.4838
    9SAPS   O13 1078   1.716   2.084  19.707 -0.4195 -0.3968  0.7346
    9SAPS   O14 1079   1.547   2.070  19.893  0.0003  0.3751 -0.2457
    9SAPS   O12 1080   1.790   1.998  19.934 -0.2318 -0.5520  0.2275
    9SAPS   O11 1081   1.721   2.241  19.901 -0.0944 -0.3484  0.3951
    9SAPS    C1 1082   1.733   2.262  20.046  0.3430  0.3882 -0.4358
    9SAPS    HA 1083   1.790   2.191  20.109  0.4836  0.7185 -0.1856
    9SAPS    HB 1084   1.796   2.354  20.051 -1.2249  1.5644 -1.4431
    9SAPS    C2 1085   1.603   2.269  20.118  0.0777  0.2602 -0.6612
    9SAPS    HS 1086   1.550   2.176  20.090  1.6792 -0.1364 -2.6483
    9SAPS   O21 1087   1.532   2.385  20.066  0.4933  0.3446  0.3836
    9SAPS   C21 1088   1.409   2.397  20.117 -0.1423  0.3732  0.4545
    9SAPS   O22 1089   1.355   2.313  20.188  0.6715  0.2908  0.3128
    9SAPS   C22 1090   1.350   2.529  20.072  0.2353  0.2485  0.4700
    9SAPS   H2R 1091   1.369   2.608  20.149 -0.3495  3.5412 -2.4738
    9SAPS   H2S 1092   1.410   2.560  19.984 -0.4638 -0.9060 -0.4333
    9SAPS    C3 1093   1.629   2.271  20.280  0.1993 -0.2850 -0.0314
    9SAPS    HX 1094   1.688   2.179  20.301  1.9665  0.4819 -1.4431
    9SAPS    HY 1095   1.544   2.257  20.350  1.7955  0.9398  2.2717
    9SAPS   O31 1096   1.702   2.383  20.320 -0.4956 -0.5914  0.2356
    9SAPS   C31 1097   1.637   2.493  20.369 -0.8953  0.5150  0.1776
    9SAPS   O32 1098   1.514   2.488  20.385 -0.6208  0.2398  0.0425
    9SAPS   C32 1099   1.732   2.599  20.419 -0.7146  0.7064 -0.1535
    9SAPS   H2X 1100   1.834   2.578  20.381 -1.1167  1.8179 -1.9525
    9SAPS   H2Y 1101   1.733   2.595  20.530 -0.8013 -0.6683 -0.1953
    9SAPS   C23 1102   1.197   2.514  20.043 -0.4495  0.1654 -0.3696
    9SAPS   H3R 1103   1.145   2.471  20.131 -1.6535  2.3832  0.0854
    9SAPS   H3S 1104   1.171   2.449  19.957 -0.0030 -1.8977  0.9896
    9SAPS   C24 1105   1.141   2.649  20.011 -0.8598  0.0770 -0.1036
    9SAPS   H4R 1106   1.171   2.667  19.906  0.2929 -0.8321  0.0464
    9SAPS   H4S 1107   1.195   2.730  20.066  1.5165 -1.5951  0.1560
    9SAPS   C25 1108   0.991   2.635  20.016  0.3006 -0.1473  0.5824
    9SAPS   H5R 1109   0.944   2.567  20.089  1.5007 -0.0438  1.4893
    9SAPS   C26 1110   0.905   2.696  19.928  0.1222 -0.4459 -0.8111
    9SAPS   H6R 1111   0.796   2.684  19.943 -0.6082  1.8102 -3.3611
    9SAPS   C27 1112   0.943   2.793  19.820 -0.2118 -0.1202 -0.5462
    9SAPS   H7R 1113   1.048   2.826  19.836 -1.6214  3.6569  2.3982
    9SAPS   H7S 1114   0.882   2.884  19.836  0.7720  0.0696  2.6695
    9SAPS   C28 1115   0.946   2.724  19.684  0.1683 -0.5539  0.0856
    9SAPS   H8R 1116   0.858   2.665  19.652  0.5443 -1.9125  1.4487
    9SAPS   C29 1117   1.044   2.732  19.591  0.1176  0.5387  0.3076
    9SAPS   H9R 1118   1.024   2.674  19.500 -3.0405 -1.5843  2.1361
    9SAPS  C210 1119   1.179   2.791  19.603 -0.2753 -0.7671 -0.3331
    9SAPS  H10R 1120   1.178   2.871  19.680 -5.3531 -0.1874 -0.6352
    9SAPS  H10S 1121   1.209   2.842  19.509  0.7081  0.9586  0.8635
    9SAPS  C211 1122   1.284   2.693  19.635  0.1578  0.5699  0.2765
    9SAPS  H11R 1123   1.251   2.600  19.685  0.3292 -1.4311 -3.0245
    9SAPS  C212 1124   1.419   2.709  19.630  1.0538  0.1956  0.0381
    9SAPS  H12R 1125   1.471   2.614  19.649 -2.0064 -1.3053  1.6542
    9SAPS  C213 1126   1.498   2.825  19.564 -0.0054 -0.3898  0.4402
    9SAPS  H13R 1127   1.462   2.919  19.611 -0.3441  0.2513 -1.0755
    9SAPS  H13S 1128   1.470   2.826  19.457 -2.1680 -2.9109  0.8891
    9SAPS  C214 1129   1.651   2.830  19.583  0.2051 -0.1421 -0.2661
    9SAPS  H14R 1130   1.696   2.779  19.669  1.1886  0.8620 -0.1611
    9SAPS  C215 1131   1.738   2.918  19.533  0.1535  0.2465 -0.0194
    9SAPS  H15R 1132   1.846   2.906  19.550  0.3290  0.1849 -1.1453
    9SAPS  C216 1133   1.723   3.033  19.431  0.5377  1.0965  0.7501
    9SAPS  H16R 1134   1.617   3.066  19.432  0.5313  1.3042 -1.2989
    9SAPS  H16S 1135   1.742   3.001  19.326 -0.8787 -0.4816  0.9352
    9SAPS  C217 1136   1.801   3.165  19.467 -0.1310 -0.6260 -0.0904
    9SAPS  H17R 1137   1.884   3.148  19.539 -0.8088  2.0126  1.4691
    9SAPS  H17S 1138   1.732   3.227  19.528 -2.5724 -0.8913 -2.3814
    9SAPS  C218 1139   1.843   3.268  19.362  0.3675  0.3576  1.1586
    9SAPS  H18R 1140   1.873   3.366  19.406  2.3185  1.1986 -1.7347
    9SAPS  H18S 1141   1.767   3.290  19.284  2.4904 -0.9343 -1.4180
    9SAPS  C219 1142   1.962   3.224  19.286 -0.3732  0.5425  0.8232
    9SAPS  H19R 1143   1.992   3.290  19.202 -1.4576  1.9493  1.4893
    9SAPS  H19S 1144   1.940   3.123  19.247 -0.6049  0.5422  0.9589
    9SAPS  C220 1145   2.093   3.212  19.367 -0.8665 -0.4756 -0.3487
    9SAPS  H20R 1146   2.077   3.136  19.446 -0.1509 -0.9461 -0.6383
    9SAPS  H20S 1147   2.102   3.304  19.428  0.2731 -0.1026 -1.0395
    9SAPS  H20T 1148   2.177   3.191  19.296  0.2509 -0.3938  0.9157
    9SAPS   C33 1149   1.709   2.749  20.370 -0.4006  1.3001 -0.2356
    9SAPS   H3X 1150   1.618   2.788  20.421 -1.3853 -0.5403 -0.4995
    9SAPS   H3Y 1151   1.685   2.740  20.262  0.4042  0.2617 -0.3438
    9SAPS   C34 1152   1.832   2.830  20.396 -0.4805  0.5280 -0.3562
    9SAPS   H4X 1153   1.899   2.826  20.308 -0.5780  3.2721 -0.6538
    9SAPS   H4Y 1154   1.883   2.788  20.484  0.2631  0.2197 -0.9251
    9SAPS   C35 1155   1.809   2.980  20.419  0.2756 -0.7226 -0.4845
    9SAPS   H5X 1156   1.893   3.018  20.480 -0.6621 -3.7450  3.0401
    9SAPS   H5Y 1157   1.729   2.997  20.494  0.5269  1.3124 -0.6301
    9SAPS   C36 1158   1.770   3.067  20.304 -0.1374  0.7250 -0.4560
    9SAPS   H6X 1159   1.714   3.004  20.232  0.5956 -0.9423  0.3739
    9SAPS   H6Y 1160   1.861   3.093  20.245 -0.2091  0.1850 -0.8111
    9SAPS   C37 1161   1.685   3.191  20.321  0.2403  0.1398  0.3437
    9SAPS   H7X 1162   1.594   3.165  20.380 -0.8103 -3.8091 -2.5636
    9SAPS   H7Y 1163   1.656   3.233  20.223  2.5220  1.1736  0.0470
    9SAPS   C38 1164   1.748   3.298  20.408  0.2910 -0.1254  0.0377
    9SAPS   H8X 1165   1.849   3.333  20.378 -0.6568  1.5554 -1.4513
    9SAPS   H8Y 1166   1.757   3.261  20.512  0.8914 -1.0598 -0.3364
    9SAPS   C39 1167   1.655   3.418  20.417 -0.1810 -0.1217 -0.3620
    9SAPS   H9X 1168   1.567   3.401  20.484 -0.5190 -0.9392 -0.9864
    9SAPS   H9Y 1169   1.625   3.424  20.310 -0.9011 -2.0962 -0.3232
    9SAPS  C310 1170   1.727   3.539  20.463  0.4345 -0.0161 -0.5815
    9SAPS  H10X 1171   1.824   3.548  20.409  0.1644 -1.5037 -1.3984
    9SAPS  H10Y 1172   1.757   3.520  20.568  2.9014 -0.8605 -1.3773
    9SAPS  C311 1173   1.643   3.667  20.457 -0.3148 -0.4429 -0.2896
    9SAPS  H11X 1174   1.603   3.688  20.355 -1.2752  1.3935  0.4254
    9SAPS  H11Y 1175   1.717   3.748  20.478 -1.7661  0.2328  2.7041
    9SAPS  C312 1176   1.524   3.687  20.553 -0.0989 -0.6465 -0.7957
    9SAPS  H12X 1177   1.540   3.644  20.654 -2.5711 -1.5842 -0.7370
    9SAPS  H12Y 1178   1.438   3.625  20.521 -0.2840 -2.0017  1.9951
    9SAPS  C313 1179   1.488   3.836  20.570 -0.0202 -0.5565 -0.3273
    9SAPS  H13X 1180   1.580   3.881  20.614 -0.9861  0.5346  0.6314
    9SAPS  H13Y 1181   1.404   3.848  20.641  1.5240 -1.9582  1.8716
    9SAPS  C314 1182   1.447   3.909  20.445 -0.5389  0.5537 -0.2211
    9SAPS  H14X 1183   1.533   3.910  20.374  0.4932  0.0587  0.9765
    9SAPS  H14Y 1184   1.421   4.014  20.468  1.5051  1.6767 -2.6231
    9SAPS  C315 1185   1.326   3.839  20.386 -0.6626 -0.0607  0.3815
    9SAPS  H15X 1186   1.357   3.735  20.361 -0.1035  0.8007 -3.0844
    9SAPS  H15Y 1187   1.300   3.887  20.289 -2.8704 -0.6037  0.6588
    9SAPS  C316 1188   1.199   3.826  20.471  0.1433  0.6480 -0.5520
    9SAPS  H16X 1189   1.162   3.929  20.489  0.9956  0.6950  1.0970
    9SAPS  H16Y 1190   1.232   3.787  20.570 -0.1022  1.5393 -0.1108
    9SAPS  C317 1191   1.083   3.744  20.408 -0.5309 -0.0996  0.9210
    9SAPS  H17X 1192   1.005   3.738  20.486 -1.9044  2.4959 -0.1584
    9SAPS  H17Y 1193   1.123   3.645  20.376 -0.1190  0.8591 -1.7828
    9SAPS  C318 1194   1.009   3.815  20.288 -0.1764  0.4528 -0.5018
    9SAPS  H18X 1195   0.983   3.919  20.315 -0.7870  0.2364 -0.2430
    9SAPS  H18Y 1196   0.917   3.752  20.275  0.5449 -1.0468  1.2676
    9SAPS  H18Z 1197   1.076   3.815  20.199 -0.4385  1.7870 -0.7192
   10SAPS     N 1198   2.121   1.352  18.128 -0.0543  0.3257 -0.0736
   10SAPS   HN1 1199   2.047   1.417  18.159 -2.5946 -2.4821  0.2102
   10SAPS   HN2 1200   2.075   1.259  18.126  1.4511 -0.5053  1.3161
   10SAPS   HN3 1201   2.198   1.337  18.196  1.7280 -1.2417 -2.2818
   10SAPS   C12 1202   2.165   1.383  17.991 -0.0492  0.2218 -0.5794
   10SAPS  H12A 1203   2.076   1.392  17.930 -0.2702  2.7681  0.0186
   10SAPS   C13 1204   2.246   1.510  17.973  0.3112 -0.3968 -0.6041
   10SAPS  O13A 1205   2.230   1.595  18.066 -0.0572 -0.8585  0.0794
   10SAPS  O13B 1206   2.252   1.544  17.853 -0.0772 -0.0691  0.2886
   10SAPS   C11 1207   2.243   1.265  17.933  0.1761 -0.2137  0.1923
   10SAPS  H11A 1208   2.346   1.266  17.974 -0.1909 -2.3030  1.3044
   10SAPS  H11B 1209   2.253   1.283  17.824 -1.0487 -1.5723 -0.1820
   10SAPS     P 1210   2.258   1.000  17.949  0.0589 -0.4841 -0.2052
   10SAPS   O13 1211   2.315   0.983  18.086 -1.0399 -0.7530  0.0908
   10SAPS   O14 1212   2.173   0.885  17.919  0.0330 -0.2149  0.0511
   10SAPS   O12 1213   2.177   1.139  17.944  0.0335  0.4226  0.1835
   10SAPS   O11 1214   2.366   1.013  17.836  1.1305  0.2118  0.2933
   10SAPS    C1 1215   2.342   0.999  17.697 -0.1604 -0.2061 -0.0310
   10SAPS    HA 1216   2.256   1.060  17.661  0.2602  1.2219  1.2240
   10SAPS    HB 1217   2.430   1.044  17.646  0.3940 -0.7220  0.4488
   10SAPS    C2 1218   2.345   0.854  17.648 -0.3782 -0.5592 -0.4628
   10SAPS    HS 1219   2.268   0.800  17.707  0.2358 -1.4817 -0.4809
   10SAPS   O21 1220   2.478   0.800  17.671  0.1471 -0.2452  0.2813
   10SAPS   C21 1221   2.492   0.665  17.671  0.5228 -0.3768 -0.1389
   10SAPS   O22 1222   2.402   0.590  17.651 -0.0764  0.2481  0.0188
   10SAPS   C22 1223   2.631   0.625  17.701 -0.5389 -0.4948 -0.3995
   10SAPS   H2R 1224   2.655   0.536  17.639  1.6599  0.3934 -0.9222
   10SAPS   H2S 1225   2.703   0.704  17.671 -0.8535 -0.5307 -1.2698
   10SAPS    C3 1226   2.312   0.850  17.495  0.2372 -0.4911 -0.2008
   10SAPS    HX 1227   2.326   0.744  17.463  1.2614 -0.4410  0.0470
   10SAPS    HY 1228   2.388   0.913  17.444  0.4156  0.7720  1.5304
   10SAPS   O31 1229   2.173   0.891  17.475  0.8076 -0.1063 -0.1550
   10SAPS   C31 1230   2.156   1.012  17.419 -0.6106  0.1147 -1.1919
   10SAPS   O32 1231   2.247   1.087  17.381 -0.0075  0.0266 -0.2353
   10SAPS   C32 1232   2.008   1.040  17.425 -0.9210  0.9004 -0.8101
   10SAPS   H2X 1233   1.989   1.074  17.529 -1.9458 -0.5827 -0.4754
   10SAPS   H2Y 1234   1.937   0.961  17.391 -0.6918 -0.1672  1.0314
   10SAPS   C23 1235   2.651   0.602  17.850 -0.2062  0.4142 -0.6643
   10SAPS   H3R 1236   2.605   0.687  17.905  1.0577 -0.2862  1.6174
   10SAPS   H3S 1237   2.759   0.611  17.877 -0.3243  3.7681 -0.9000
   10SAPS   C24 1238   2.580   0.468  17.910  1.1420  0.7217  0.3803
   10SAPS   H4R 1239   2.471   0.476  17.893  1.1597  0.7035  0.2606
   10SAPS   H4S 1240   2.596   0.466  18.020  3.3156 -1.2268  0.1132
   10SAPS   C25 1241   2.625   0.339  17.852  0.6875  0.1389  0.6111
   10SAPS   H5R 1242   2.732   0.315  17.863  0.3439 -1.2124  1.1982
   10SAPS   C26 1243   2.560   0.237  17.796  0.4973 -0.0862 -0.6959
   10SAPS   H6R 1244   2.624   0.153  17.766 -1.9060 -2.1239 -0.4398
   10SAPS   C27 1245   2.412   0.229  17.772  0.1698 -0.5924  0.3756
   10SAPS   H7R 1246   2.412   0.146  17.698  0.7375  1.3228 -1.9041
   10SAPS   H7S 1247   2.390   0.310  17.698 -2.4529 -1.9482 -0.4710
   10SAPS   C28 1248   2.318   0.224  17.889  0.0772 -0.1602 -0.1295
   10SAPS   H8R 1249   2.315   0.327  17.929  1.2642 -0.1846  0.0524
   10SAPS   C29 1250   2.252   0.114  17.932  0.9244 -0.3260  0.5132
   10SAPS   H9R 1251   2.181   0.127  18.015 -0.9514 -0.6379 -0.9859
   10SAPS  C210 1252   2.290  -0.027  17.888  0.4930 -0.1076  0.2995
   10SAPS  H10R 1253   2.400  -0.039  17.876  0.6433  0.9234  0.5408
   10SAPS  H10S 1254   2.246  -0.044  17.787  2.4733 -1.2207 -0.4393
   10SAPS  C211 1255   2.236  -0.142  17.977  0.4305  0.2755 -0.3847
   10SAPS  H11R 1256   2.242  -0.127  18.086  0.2743 -0.7159 -0.2237
   10SAPS  C212 1257   2.163  -0.250  17.941  0.0515  0.4118  0.2684
   10SAPS  H12R 1258   2.139  -0.327  18.016 -0.3668  0.7985  0.5328
   10SAPS  C213 1259   2.113  -0.283  17.805  0.7148 -0.3462  0.3057
   10SAPS  H13R 1260   2.086  -0.390  17.793 -0.9316 -0.0066  0.7659
   10SAPS  H13S 1261   2.187  -0.256  17.727  3.2393  3.4216  3.5959
   10SAPS  C214 1262   1.984  -0.208  17.786  0.4427  0.0086 -0.9714
   10SAPS  H14R 1263   1.951  -0.145  17.869  1.1581  0.1149 -0.7662
   10SAPS  C215 1264   1.906  -0.216  17.678 -0.6881  0.6052  0.2812
   10SAPS  H15R 1265   1.813  -0.158  17.676 -0.5336  0.8592  0.4477
   10SAPS  C216 1266   1.937  -0.293  17.547  0.2998  0.4785 -0.3351
   10SAPS  H16R 1267   2.043  -0.318  17.528 -0.0124  0.3086 -1.9493
   10SAPS  H16S 1268   1.919  -0.208  17.477  0.7243 -0.1455 -1.2084
   10SAPS  C217 1269   1.853  -0.419  17.515  0.8918 -0.1043  0.5307
   10SAPS  H17R 1270   1.859  -0.448  17.408  0.0571 -0.5872  0.5998
   10SAPS  H17S 1271   1.744  -0.408  17.538  0.7762 -1.8746  1.0234
   10SAPS  C218 1272   1.874  -0.546  17.597 -0.4314  0.1111 -0.7628
   10SAPS  H18R 1273   1.861  -0.513  17.703 -1.9528  0.8202 -1.1357
   10SAPS  H18S 1274   1.973  -0.596  17.604 -1.2086 -1.2322  1.7622
   10SAPS  C219 1275   1.781  -0.670  17.572  0.2038 -0.0951 -0.3698
   10SAPS  H19R 1276   1.782  -0.704  17.466  0.2908  1.4722 -0.9016
   10SAPS  H19S 1277   1.675  -0.651  17.596  0.0576 -2.4078  1.1430
   10SAPS  C220 1278   1.830  -0.788  17.660 -0.2879 -0.6936 -0.1364
   10SAPS  H20R 1279   1.813  -0.775  17.769  2.1554 -1.2060  0.3574
   10SAPS  H20S 1280   1.938  -0.804  17.641 -0.1423  2.1507 -2.5275
   10SAPS  H20T 1281   1.788  -0.882  17.619 -1.1196  0.0500 -1.0627
   10SAPS   C33 1282   1.962   1.160  17.346  0.0333  0.4707 -0.5321
   10SAPS   H3X 1283   2.008   1.250  17.392 -0.9000  0.2231  0.9661
   10SAPS   H3Y 1284   1.852   1.177  17.356 -0.2836 -1.4196 -0.4369
   10SAPS   C34 1285   1.996   1.160  17.202 -0.2372  0.1646  0.4219
   10SAPS   H4X 1286   2.100   1.194  17.188 -0.5078  0.7282 -0.2644
   10SAPS   H4Y 1287   1.931   1.235  17.151 -0.2271 -1.5570 -2.3425
   10SAPS   C35 1288   1.952   1.034  17.115 -0.2506 -0.6139 -0.0559
   10SAPS   H5X 1289   1.841   1.036  17.118 -0.2385  0.2408  2.3106
   10SAPS   H5Y 1290   1.988   0.944  17.170  1.3404  1.5425  2.6708
   10SAPS   C36 1291   1.992   1.057  16.971 -0.8141  0.5834 -0.3807
   10SAPS   H6X 1292   1.949   1.152  16.933 -0.0589  0.8182 -0.6606
   10SAPS   H6Y 1293   1.946   0.975  16.912 -2.7005  1.3402 -0.0317
   10SAPS   C37 1294   2.144   1.063  16.957  0.8816  0.4336 -0.4668
   10SAPS   H7X 1295   2.197   1.000  17.032 -2.0421 -0.8796  0.6345
   10SAPS   H7Y 1296   2.177   1.167  16.978  0.3993  0.0586  2.7029
   10SAPS   C38 1297   2.185   1.018  16.817 -0.0975 -0.1773  0.3452
   10SAPS   H8X 1298   2.140   0.920  16.792  0.9059 -1.6239  3.6739
   10SAPS   H8Y 1299   2.294   0.998  16.821 -0.3954 -1.8762  0.4389
   10SAPS   C39 1300   2.165   1.115  16.695 -0.1782 -0.0521  0.4746
   10SAPS   H9X 1301   2.145   1.218  16.731 -0.2915 -0.2624  1.0204
   10SAPS   H9Y 1302   2.067   1.091  16.648  0.3795 -0.1506 -0.6503
   10SAPS  C310 1303   2.262   1.107  16.579 -1.4795  0.6393  0.2920
   10SAPS  H10X 1304   2.269   1.011  16.523 -3.1104 -0.3189  1.5987
   10SAPS  H10Y 1305   2.368   1.129  16.601 -0.8293 -0.5118 -1.5115
   10SAPS  C311 1306   2.225   1.204  16.464  0.3648 -1.0178  0.1784
   10SAPS  H11X 1307   2.213   1.303  16.513 -1.4050 -0.7224 -0.7529
   10SAPS  H11Y 1308   2.125   1.175  16.424  0.7429 -0.3678 -1.2673
   10SAPS  C312 1309   2.304   1.217  16.337  0.1962 -0.1370  0.0990
   10SAPS  H12X 1310   2.406   1.257  16.356 -0.5703  2.1469 -0.3037
   10SAPS  H12Y 1311   2.245   1.291  16.280 -0.6004 -1.1027 -0.3647
   10SAPS  C313 1312   2.302   1.087  16.248  0.1684 -0.6022 -0.2529
   10SAPS  H13X 1313   2.196   1.055  16.232 -0.3836  1.5384 -1.1560
   10SAPS  H13Y 1314   2.359   1.013  16.308 -2.3021 -1.1107  1.6529
   10SAPS  C314 1315   2.358   1.109  16.113 -0.4079 -0.2376 -0.2437
   10SAPS  H14X 1316   2.394   1.214  16.109  2.2911 -1.0537  0.1346
   10SAPS  H14Y 1317   2.292   1.095  16.025 -2.4478  0.9581  1.0261
   10SAPS  C315 1318   2.479   1.035  16.070 -0.3146  0.1389 -0.9325
   10SAPS  H15X 1319   2.485   0.934  16.117  0.1012  0.1940 -0.8534
   10SAPS  H15Y 1320   2.562   1.102  16.103 -0.7879  2.1440 -3.4889
   10SAPS  C316 1321   2.492   1.016  15.922 -0.1040 -0.0842 -0.2414
   10SAPS  H16X 1322   2.458   1.111  15.875 -3.8710 -1.3374 -0.3415
   10SAPS  H16Y 1323   2.414   0.940  15.903 -0.2300 -0.3383  1.1835
   10SAPS  C317 1324   2.627   0.956  15.886  0.3079 -0.3203 -0.0806
   10SAPS  H17X 1325   2.619   0.849  15.915  1.7542 -0.3347  0.3122
   10SAPS  H17Y 1326   2.703   0.983  15.962  0.2033 -2.7233  0.9822
   10SAPS  C318 1327   2.673   0.969  15.741  0.7794  0.5426  0.0904
   10SAPS  H18X 1328   2.591   0.932  15.676  0.1241  0.9369  0.6839
   10SAPS  H18Y 1329   2.774   0.923  15.731  0.5465  0.1880 -0.7134
   10SAPS  H18Z 1330   2.691   1.076  15.722  0.6972  0.2842 -1.5657
   11SAPS     N 1331   1.159   0.214   7.123 -0.0035  0.4679 -0.6732
   11SAPS   HN1 1332   1.158   0.152   7.206 -2.0063 -1.0069 -1.7117
   11SAPS   HN2 1333   1.229   0.290   7.135 -0.5456  0.9925 -0.8095
   11SAPS   HN3 1334   1.064   0.256   7.117 -1.1272 -1.7076  0.8003
   11SAPS   C12 1335   1.169   0.128   7.001  0.1985 -0.0887 -0.1754
   11SAPS  H12A 1336   1.162   0.192   6.914 -0.9327  0.1273  0.0536
   11SAPS   C13 1337   1.293   0.030   6.988 -0.9967  0.9986  0.4685
   11SAPS  O13A 1338   1.375   0.016   7.080 -0.6776 -0.1909 -0.0532
   11SAPS  O13B 1339   1.303  -0.041   6.884 -0.3782 -0.4501 -0.2329
   11SAPS   C11 1340   1.037   0.050   6.988 -0.1890  0.3762  0.1695
   11SAPS  H11A 1341   1.029  -0.033   7.060 -0.2527 -2.6681 -3.0859
   11SAPS  H11B 1342   1.054  -0.003   6.892  2.0340  1.0082  0.1614
   11SAPS     P 1343   0.788   0.088   6.968  0.1022 -0.0471 -0.3673
   11SAPS   O13 1344   0.700   0.207   6.996 -0.1985  0.1276 -0.0167
   11SAPS   O14 1345   0.787   0.015   6.838 -0.3143 -0.5170 -0.5808
   11SAPS   O12 1346   0.933   0.145   6.997 -0.1232 -0.0128 -0.3261
   11SAPS   O11 1347   0.763  -0.017   7.083 -0.4767 -0.1384  0.2639
   11SAPS    C1 1348   0.636  -0.079   7.100 -0.4029 -0.0089 -0.2573
   11SAPS    HA 1349   0.543  -0.019   7.090 -0.7936 -0.5239  0.2461
   11SAPS    HB 1350   0.616  -0.159   7.025 -1.4136 -0.4784  0.4929
   11SAPS    C2 1351   0.621  -0.160   7.235 -0.0717  0.2731 -0.1292
   11SAPS    HS 1352   0.528  -0.220   7.242  0.2614 -0.0461  3.0932
   11SAPS   O21 1353   0.630  -0.058   7.342 -0.1427  0.2840 -0.1121
   11SAPS   C21 1354   0.521   0.012   7.371  0.2261  0.0281 -0.5434
   11SAPS   O22 1355   0.411   0.002   7.314 -0.3042  0.0672 -0.2154
   11SAPS   C22 1356   0.551   0.108   7.491 -0.3010 -0.5768 -0.1286
   11SAPS   H2R 1357   0.570   0.046   7.581 -1.7058  0.5938  1.0240
   11SAPS   H2S 1358   0.633   0.177   7.464 -0.3070 -1.0232 -1.3321
   11SAPS    C3 1359   0.737  -0.266   7.238 -0.0521  0.3215 -0.2620
   11SAPS    HX 1360   0.829  -0.204   7.227  0.1618  0.1695  0.5656
   11SAPS    HY 1361   0.734  -0.325   7.145 -0.9129  1.5967 -1.0827
   11SAPS   O31 1362   0.736  -0.333   7.359 -0.3635  0.3684  0.3358
   11SAPS   C31 1363   0.670  -0.446   7.367 -0.5929 -0.0847  0.5315
   11SAPS   O32 1364   0.631  -0.505   7.271  0.2248  0.9329  0.0696
   11SAPS   C32 1365   0.663  -0.486   7.508  0.4648 -0.0591  0.2508
   11SAPS   H2X 1366   0.758  -0.542   7.519  0.9652  0.5865 -0.6567
   11SAPS   H2Y 1367   0.575  -0.550   7.526 -0.8078  0.6860 -2.6690
   11SAPS   C23 1368   0.415   0.172   7.526 -0.4653  0.4580 -0.0476
   11SAPS   H3R 1369   0.352   0.086   7.558  0.5254 -1.1719 -2.1912
   11SAPS   H3S 1370   0.372   0.223   7.437 -2.2184  0.6156  0.8383
   11SAPS   C24 1371   0.429   0.276   7.637 -0.1395  0.1820 -0.0805
   11SAPS   H4R 1372   0.514   0.346   7.619  0.8307 -0.0738  2.8725
   11SAPS   H4S 1373   0.469   0.229   7.730  2.4663  2.6796  0.2200
   11SAPS   C25 1374   0.297   0.338   7.671  0.1869  0.1670 -0.4926
   11SAPS   H5R 1375   0.265   0.415   7.599 -3.1125 -0.6840 -0.0976
   11SAPS   C26 1376   0.220   0.317   7.782 -0.3570 -0.2593  0.4878
   11SAPS   H6R 1377   0.127   0.376   7.791 -1.0146 -1.0924 -0.6051
   11SAPS   C27 1378   0.261   0.229   7.898 -0.0055 -0.9254 -0.0350
   11SAPS   H7R 1379   0.334   0.152   7.866  1.2928  0.7210 -1.1858
   11SAPS   H7S 1380   0.168   0.180   7.935 -0.0145  1.3272  3.4708
   11SAPS   C28 1381   0.304   0.311   8.016 -0.1415  0.2134 -0.4742
   11SAPS   H8R 1382   0.388   0.377   7.990  1.3755 -0.9092  1.3443
   11SAPS   C29 1383   0.259   0.301   8.141 -0.1039  0.2774 -0.2721
   11SAPS   H9R 1384   0.286   0.384   8.207 -2.0345  0.0610  0.8577
   11SAPS  C210 1385   0.157   0.208   8.195  0.3425  0.2139  0.3125
   11SAPS  H10R 1386   0.172   0.101   8.171 -0.2690  0.6125 -2.1100
   11SAPS  H10S 1387   0.061   0.233   8.145 -0.2363  0.5731  1.5598
   11SAPS  C211 1388   0.145   0.212   8.346 -0.5707 -0.3478  0.2882
   11SAPS  H11R 1389   0.233   0.169   8.396  0.6158  2.1457  0.5137
   11SAPS  C212 1390   0.054   0.274   8.419 -0.2868  0.0730 -0.2291
   11SAPS  H12R 1391   0.070   0.262   8.527  1.0562 -2.8292 -0.6690
   11SAPS  C213 1392  -0.071   0.337   8.372  0.1541 -0.1334 -0.0039
   11SAPS  H13R 1393  -0.138   0.253   8.343  1.0885 -1.1331  0.6866
   11SAPS  H13S 1394  -0.047   0.393   8.279 -0.9722  1.3328  0.5463
   11SAPS  C214 1395  -0.143   0.445   8.449 -0.0316  0.2004 -0.5558
   11SAPS  H14R 1396  -0.123   0.546   8.409  2.2649  0.7535  1.7601
   11SAPS  C215 1397  -0.216   0.431   8.561  0.8668 -0.5206 -0.4701
   11SAPS  H15R 1398  -0.255   0.528   8.596  4.3897  1.2496 -1.0630
   11SAPS  C216 1399  -0.250   0.309   8.641 -0.6394 -0.1151 -0.8145
   11SAPS  H16R 1400  -0.173   0.231   8.629 -0.9003 -0.6001  0.5661
   11SAPS  H16S 1401  -0.350   0.275   8.607 -1.4885  1.1047  0.3396
   11SAPS  C217 1402  -0.261   0.350   8.787  0.0331  0.1931  0.2298
   11SAPS  H17R 1403  -0.276   0.250   8.832 -1.9131 -0.2165 -1.2398
   11SAPS  H17S 1404  -0.351   0.412   8.803 -0.4824  0.1457 -2.1330
   11SAPS  C218 1405  -0.132   0.420   8.842 -0.8850 -0.2824 -0.3383
   11SAPS  H18R 1406  -0.125   0.526   8.811  1.0299 -0.1106  0.5247
   11SAPS  H18S 1407  -0.042   0.372   8.797 -1.3397 -1.8245  0.3122
   11SAPS  C219 1408  -0.122   0.409   8.996  0.6938 -0.6704 -1.1850
   11SAPS  H19R 1409  -0.223   0.423   9.038  0.6412 -2.3767 -0.6853
   11SAPS  H19S 1410  -0.054   0.492   9.025 -2.0843  0.0675  4.5146
   11SAPS  C220 1411  -0.052   0.291   9.050 -0.1105  0.3375 -0.3320
   11SAPS  H20R 1412  -0.073   0.290   9.159 -1.0715  1.9131 -0.4754
   11SAPS  H20S 1413   0.058   0.286   9.039 -0.0872  2.8556 -1.9049
   11SAPS  H20T 1414  -0.100   0.196   9.016 -1.1254 -0.1031  2.0923
   11SAPS   C33 1415   0.650  -0.372   7.614 -0.1396  0.8076 -0.1639
   11SAPS   H3X 1416   0.580  -0.296   7.574 -1.1822 -1.5491 -3.2263
   11SAPS   H3Y 1417   0.753  -0.330   7.610  0.2128 -0.1517 -1.6203
   11SAPS   C34 1418   0.602  -0.414   7.755 -0.0978 -0.0815  0.1321
   11SAPS   H4X 1419   0.525  -0.494   7.750  0.4478 -0.5565 -1.3276
   11SAPS   H4Y 1420   0.565  -0.328   7.815 -0.5353 -0.8544  0.9955
   11SAPS   C35 1421   0.721  -0.475   7.838 -0.0938 -0.5401  0.5584
   11SAPS   H5X 1422   0.801  -0.405   7.868 -0.9390  0.0522  1.5031
   11SAPS   H5Y 1423   0.766  -0.559   7.780 -0.0982 -0.2253  0.0920
   11SAPS   C36 1424   0.674  -0.531   7.973 -0.2800 -0.3448 -0.8089
   11SAPS   H6X 1425   0.768  -0.566   8.021 -0.5296  1.3714  1.0646
   11SAPS   H6Y 1426   0.606  -0.619   7.968 -0.8224  0.0561 -0.6016
   11SAPS   C37 1427   0.617  -0.440   8.088 -0.4175  0.1028 -0.3291
   11SAPS   H7X 1428   0.510  -0.414   8.080 -0.7989 -0.5851  1.7515
   11SAPS   H7Y 1429   0.659  -0.338   8.097 -0.2505 -0.0333  0.5495
   11SAPS   C38 1430   0.639  -0.501   8.234 -0.1555  0.2387  0.4445
   11SAPS   H8X 1431   0.743  -0.528   8.264 -0.2785 -2.0942 -0.9810
   11SAPS   H8Y 1432   0.598  -0.603   8.216 -0.3694  0.6447 -1.5758
   11SAPS   C39 1433   0.557  -0.438   8.347  0.3111  0.2004 -0.6465
   11SAPS   H9X 1434   0.451  -0.440   8.315  1.1827 -1.4754 -3.8717
   11SAPS   H9Y 1435   0.582  -0.331   8.363  1.4059 -0.3427  1.6207
   11SAPS  C310 1436   0.570  -0.516   8.481  0.2742  0.7996  0.3814
   11SAPS  H10X 1437   0.597  -0.623   8.470  1.9615  1.2346  0.0498
   11SAPS  H10Y 1438   0.468  -0.509   8.525 -0.1942 -0.1757 -0.4822
   11SAPS  C311 1439   0.681  -0.469   8.575  0.0356 -0.4412 -0.4815
   11SAPS  H11X 1440   0.655  -0.363   8.595 -1.5342 -0.2622 -3.0692
   11SAPS  H11Y 1441   0.776  -0.462   8.519 -0.7401 -2.4761 -2.1666
   11SAPS  C312 1442   0.714  -0.543   8.705 -0.1895  0.6805 -0.1941
   11SAPS  H12X 1443   0.749  -0.645   8.683  0.8742  0.3796  2.4786
   11SAPS  H12Y 1444   0.621  -0.547   8.765  0.4962  1.4618  0.9764
   11SAPS  C313 1445   0.831  -0.490   8.792  0.5824 -0.5871 -0.4470
   11SAPS  H13X 1446   0.926  -0.493   8.734 -0.1278 -0.5882 -1.6328
   11SAPS  H13Y 1447   0.843  -0.565   8.873 -0.0384 -0.9269 -0.6651
   11SAPS  C314 1448   0.802  -0.354   8.851  0.2505  0.2112 -0.1144
   11SAPS  H14X 1449   0.796  -0.280   8.768  0.0372  0.6788  0.3145
   11SAPS  H14Y 1450   0.888  -0.319   8.911 -0.4900  1.7496  0.0903
   11SAPS  C315 1451   0.669  -0.361   8.934 -0.0267 -0.5610 -0.1970
   11SAPS  H15X 1452   0.669  -0.457   8.990  2.8453 -0.3483  0.3626
   11SAPS  H15Y 1453   0.578  -0.360   8.871  0.0881 -1.6994 -0.3909
   11SAPS  C316 1454   0.646  -0.238   9.030  0.2731 -0.1260 -0.3571
   11SAPS  H16X 1455   0.543  -0.252   9.069  0.5154  2.4951  1.4462
   11SAPS  H16Y 1456   0.664  -0.141   8.980 -0.9140  0.2112 -0.1434
   11SAPS  C317 1457   0.749  -0.221   9.141 -0.8783  0.0281 -0.5031
   11SAPS  H17X 1458   0.850  -0.207   9.098  0.2422 -1.9031  1.2975
   11SAPS  H17Y 1459   0.753  -0.300   9.219  0.4307  0.0592 -0.5136
   11SAPS  C318 1460   0.731  -0.085   9.217 -0.4863 -0.1471  0.0610
   11SAPS  H18X 1461   0.683  -0.008   9.152 -1.5560 -1.2906 -0.5637
   11SAPS  H18Y 1462   0.824  -0.040   9.256 -0.6112 -1.3915  1.8965
   11SAPS  H18Z 1463   0.668  -0.098   9.307 -0.6929  0.8954  0.0757
   12SAPS     N 1464   3.544   2.741   7.044 -0.3491  0.0903  0.5362
   12SAPS   HN1 1465   3.566   2.835   7.005 -2.1304  0.2120 -0.2691
   12SAPS   HN2 1466   3.472   2.759   7.117 -1.1134  0.4918 -0.2879
   12SAPS   HN3 1467   3.619   2.697   7.101 -0.2217  0.3593  0.5743
   12SAPS   C12 1468   3.505   2.640   6.943  0.8720 -0.2221 -0.2907
   12SAPS  H12A 1469   3.417   2.686   6.900  1.1736  1.2138  0.5677
   12SAPS   C13 1470   3.600   2.613   6.826  0.6210 -0.2182  0.1323
   12SAPS  O13A 1471   3.696   2.690   6.804 -0.0541 -0.6404  0.0210
   12SAPS  O13B 1472   3.564   2.526   6.745 -0.0100  0.2691 -0.2638
   12SAPS   C11 1473   3.466   2.505   7.018 -0.0684  0.0555 -0.0634
   12SAPS  H11A 1474   3.562   2.454   7.041  0.3722  0.4376 -0.9852
   12SAPS  H11B 1475   3.410   2.449   6.940 -0.6102 -1.5238  1.3992
   12SAPS     P 1476   3.323   2.401   7.218 -0.2036  0.1085  0.0347
   12SAPS   O13 1477   3.174   2.397   7.224 -0.2485 -0.0318  0.1054
   12SAPS   O14 1478   3.393   2.279   7.173 -0.0027  0.3254 -0.1090
   12SAPS   O12 1479   3.383   2.520   7.139 -0.0710 -0.0962  0.4389
   12SAPS   O11 1480   3.370   2.426   7.372 -0.2008  0.4780  0.3702
   12SAPS    C1 1481   3.500   2.486   7.393  0.5578 -0.3416  0.1211
   12SAPS    HA 1482   3.580   2.439   7.332  0.3758 -0.5343  0.0310
   12SAPS    HB 1483   3.496   2.589   7.351 -1.6058 -1.0438 -1.6263
   12SAPS    C2 1484   3.542   2.478   7.543 -0.5968 -0.1132 -0.1755
   12SAPS    HS 1485   3.643   2.525   7.547  0.9798 -3.1240 -1.4303
   12SAPS   O21 1486   3.558   2.343   7.593  0.1898  0.0466  0.3310
   12SAPS   C21 1487   3.664   2.284   7.546 -0.0681 -0.5152  1.0607
   12SAPS   O22 1488   3.734   2.327   7.453 -0.0111  0.1723 -0.3363
   12SAPS   C22 1489   3.668   2.144   7.609 -0.5125 -0.4179  0.0396
   12SAPS   H2R 1490   3.654   2.145   7.719 -2.9501 -2.8741 -0.1375
   12SAPS   H2S 1491   3.593   2.075   7.563  2.2477 -2.0315 -2.3992
   12SAPS    C3 1492   3.429   2.547   7.631  0.2582  0.3892 -0.3937
   12SAPS    HX 1493   3.331   2.497   7.621  0.2120  0.1602  1.0520
   12SAPS    HY 1494   3.428   2.649   7.588 -0.0674  1.2928  1.6358
   12SAPS   O31 1495   3.467   2.565   7.768  0.1229  0.5692  0.1428
   12SAPS   C31 1496   3.429   2.469   7.851  0.0626  0.4005 -0.7008
   12SAPS   O32 1497   3.350   2.381   7.828 -0.5373 -0.1137  0.1094
   12SAPS   C32 1498   3.488   2.500   7.992  0.3809  0.3422  1.2285
   12SAPS   H2X 1499   3.459   2.602   8.026 -0.7360  0.9180 -1.2359
   12SAPS   H2Y 1500   3.597   2.506   7.973  0.5979 -1.1357  1.9079
   12SAPS   C23 1501   3.804   2.072   7.575 -0.7273 -0.3364 -0.1360
   12SAPS   H3R 1502   3.827   2.103   7.471  4.3434 -1.4804  0.3740
   12SAPS   H3S 1503   3.792   1.962   7.567  0.8910 -0.4252 -1.9702
   12SAPS   C24 1504   3.909   2.108   7.683 -0.3416  0.0639  0.2897
   12SAPS   H4R 1505   3.909   2.219   7.676 -0.3157  0.1300  1.2142
   12SAPS   H4S 1506   4.009   2.082   7.643 -1.2851 -1.7911 -0.9761
   12SAPS   C25 1507   3.879   2.057   7.818 -0.1857  0.8173  0.2128
   12SAPS   H5R 1508   3.863   1.948   7.820  0.1788  0.7710  0.8472
   12SAPS   C26 1509   3.882   2.125   7.933  0.9698 -0.5352  0.6760
   12SAPS   H6R 1510   3.881   2.067   8.027  1.3243  0.2588  1.1747
   12SAPS   C27 1511   3.904   2.278   7.941  0.6117  0.2627  0.3821
   12SAPS   H7R 1512   3.813   2.322   7.987 -0.9555 -0.1706 -2.0875
   12SAPS   H7S 1513   3.910   2.333   7.845  2.5912 -0.9918 -0.2826
   12SAPS   C28 1514   4.021   2.306   8.033 -0.7959 -0.1984 -0.3973
   12SAPS   H8R 1515   4.110   2.314   7.970  1.3701 -2.2861  2.2072
   12SAPS   C29 1516   4.041   2.329   8.163 -0.6629  0.0631  0.6779
   12SAPS   H9R 1517   4.143   2.355   8.194 -0.2777 -0.7721  0.1261
   12SAPS  C210 1518   3.929   2.323   8.262  0.3287 -0.2790 -0.0841
   12SAPS  H10R 1519   3.832   2.343   8.213  0.9574 -0.9118 -1.6525
   12SAPS  H10S 1520   3.938   2.409   8.332 -2.8236 -0.0073  0.1252
   12SAPS  C211 1521   3.911   2.187   8.339 -0.4281  0.0559  0.2811
   12SAPS  H11R 1522   3.890   2.098   8.278  0.5897 -0.3943  0.5576
   12SAPS  C212 1523   3.955   2.164   8.464 -0.0823 -0.4076  0.8396
   12SAPS  H12R 1524   3.933   2.061   8.497 -1.0409  0.4883  3.1469
   12SAPS  C213 1525   4.018   2.255   8.563  0.0461 -0.8212  0.0972
   12SAPS  H13R 1526   3.930   2.306   8.607  0.7087  1.2582 -0.8335
   12SAPS  H13S 1527   4.074   2.342   8.522  0.1962 -0.3761  1.2246
   12SAPS  C214 1528   4.097   2.175   8.658  0.5040  0.3988  0.2796
   12SAPS  H14R 1529   4.154   2.088   8.621 -0.8001 -0.4576  0.2253
   12SAPS  C215 1530   4.112   2.209   8.788  0.3109  0.0774  0.1248
   12SAPS  H15R 1531   4.182   2.149   8.848  0.2174  1.9530  2.2510
   12SAPS  C216 1532   4.056   2.335   8.855  0.2784 -0.3267 -0.6386
   12SAPS  H16R 1533   3.946   2.326   8.849  0.2511  0.4339 -1.4370
   12SAPS  H16S 1534   4.080   2.419   8.786 -1.0250  0.3652 -0.2822
   12SAPS  C217 1535   4.124   2.373   8.996 -0.0156 -0.3902  0.6790
   12SAPS  H17R 1536   4.085   2.473   9.026  0.8624 -0.0232  0.6373
   12SAPS  H17S 1537   4.235   2.375   8.988 -0.1123  0.5871 -1.0300
   12SAPS  C218 1538   4.081   2.276   9.106  0.3737  0.6860  0.0499
   12SAPS  H18R 1539   4.126   2.306   9.203  0.1909 -0.4054  0.4800
   12SAPS  H18S 1540   4.121   2.176   9.079 -0.3097 -0.5157  3.0322
   12SAPS  C219 1541   3.937   2.264   9.142  0.3653 -0.1583  0.0557
   12SAPS  H19R 1542   3.883   2.210   9.061  0.0595 -2.5998  1.7866
   12SAPS  H19S 1543   3.895   2.366   9.154  1.4721  0.3911 -0.5020
   12SAPS  C220 1544   3.916   2.177   9.264  0.1774  0.0938  0.1977
   12SAPS  H20R 1545   3.980   2.217   9.345  0.6789  0.9881 -0.6146
   12SAPS  H20S 1546   3.928   2.066   9.256  0.2191  0.1458 -0.5304
   12SAPS  H20T 1547   3.809   2.180   9.294 -0.7844  1.5735 -2.9653
   12SAPS   C33 1548   3.452   2.387   8.083  0.7753  0.6395 -0.4135
   12SAPS   H3X 1549   3.482   2.295   8.028  1.0269  0.1843  0.4650
   12SAPS   H3Y 1550   3.342   2.389   8.099  0.8100  0.8212 -0.2066
   12SAPS   C34 1551   3.519   2.385   8.219  0.1903  0.0675 -0.3454
   12SAPS   H4X 1552   3.485   2.473   8.278  1.7298 -0.5099  1.4781
   12SAPS   H4Y 1553   3.629   2.399   8.215  0.0525  1.5756  0.4122
   12SAPS   C35 1554   3.490   2.256   8.298 -0.8088  0.3544  0.2554
   12SAPS   H5X 1555   3.543   2.174   8.246  1.2887  2.2275 -0.7035
   12SAPS   H5Y 1556   3.386   2.218   8.302 -1.0188  0.9197  0.3205
   12SAPS   C36 1557   3.549   2.257   8.440  0.0100 -0.2286 -0.4804
   12SAPS   H6X 1558   3.653   2.292   8.458 -0.4490  0.6044  0.7119
   12SAPS   H6Y 1559   3.540   2.153   8.477 -2.0900 -0.3495 -1.2403
   12SAPS   C37 1560   3.467   2.336   8.555 -0.3288 -0.0594  0.4320
   12SAPS   H7X 1561   3.359   2.310   8.542  0.1239 -1.1804 -1.5392
   12SAPS   H7Y 1562   3.478   2.445   8.538  0.1255 -0.1614  0.0768
   12SAPS   C38 1563   3.503   2.296   8.693 -0.3190  0.2936 -0.2639
   12SAPS   H8X 1564   3.525   2.187   8.699 -0.3397  0.3672  1.7377
   12SAPS   H8Y 1565   3.413   2.310   8.756  0.1251 -2.1530  1.0670
   12SAPS   C39 1566   3.612   2.385   8.758  0.0906  0.4259  0.1498
   12SAPS   H9X 1567   3.602   2.493   8.733 -2.6779  1.0722  3.3754
   12SAPS   H9Y 1568   3.698   2.335   8.708  0.1933 -0.8054  1.4758
   12SAPS  C310 1569   3.634   2.350   8.902 -0.0064 -0.3974 -0.5492
   12SAPS  H10X 1570   3.728   2.406   8.922 -2.1217  3.3956 -0.1161
   12SAPS  H10Y 1571   3.637   2.240   8.916  1.1420 -0.1312  1.8072
   12SAPS  C311 1572   3.527   2.411   8.999 -0.2961  0.2837 -0.6203
   12SAPS  H11X 1573   3.428   2.390   8.954  0.2844  2.2282 -2.9968
   12SAPS  H11Y 1574   3.546   2.520   8.992 -0.3264  0.3684  0.4156
   12SAPS  C312 1575   3.538   2.370   9.147 -0.3303 -0.2928 -0.5130
   12SAPS  H12X 1576   3.463   2.423   9.209 -0.0925  1.3473 -1.5766
   12SAPS  H12Y 1577   3.638   2.402   9.182  0.6983 -2.1644 -1.5177
   12SAPS  C313 1578   3.511   2.224   9.179  0.1400  0.1094 -0.0569
   12SAPS  H13X 1579   3.593   2.159   9.140  0.0428  0.3758 -0.7017
   12SAPS  H13Y 1580   3.416   2.181   9.141  0.2591 -0.6141  0.4242
   12SAPS  C314 1581   3.511   2.200   9.333 -0.0229 -0.4139 -1.4109
   12SAPS  H14X 1582   3.596   2.262   9.369  0.9545 -2.6786  0.4915
   12SAPS  H14Y 1583   3.538   2.096   9.361  2.5373  0.7544  0.9487
   12SAPS  C315 1584   3.377   2.237   9.393  0.0473  0.4012 -0.0623
   12SAPS  H15X 1585   3.300   2.165   9.358 -1.0764  1.6877 -0.3135
   12SAPS  H15Y 1586   3.349   2.334   9.348 -0.9339 -0.7250 -2.0090
   12SAPS  C316 1587   3.364   2.254   9.544  0.0846  0.2826 -0.4859
   12SAPS  H16X 1588   3.420   2.346   9.570  1.9089 -0.1628 -2.5578
   12SAPS  H16Y 1589   3.412   2.165   9.590  1.2356  0.5470 -1.1336
   12SAPS  C317 1590   3.213   2.255   9.577 -0.2963  0.1372  1.2316
   12SAPS  H17X 1591   3.195   2.250   9.686 -1.2081  2.2742  1.2281
   12SAPS  H17Y 1592   3.170   2.162   9.535 -1.0237  0.2891  1.6172
   12SAPS  C318 1593   3.145   2.384   9.531  0.7089 -0.3210  0.0354
   12SAPS  H18X 1594   3.196   2.474   9.573  1.1428 -0.4771 -0.1542
   12SAPS  H18Y 1595   3.044   2.377   9.575 -0.0756 -2.3288 -1.9052
   12SAPS  H18Z 1596   3.132   2.395   9.421  1.8546 -1.6586 -0.2601
   13SAPS     N 1597   0.642   2.901  11.372 -0.3565 -0.5111 -0.6176
   13SAPS   HN1 1598   0.630   2.932  11.471 -3.6347  0.7255 -1.2869
   13SAPS   HN2 1599   0.553   2.908  11.318 -0.0024 -0.7144 -1.2321
   13SAPS   HN3 1600   0.668   2.801  11.387 -0.2803 -0.2523  1.2249
   13SAPS   C12 1601   0.752   2.978  11.312 -0.1160  0.3243  0.5087
   13SAPS  H12A 1602   0.713   3.076  11.291  0.0651  1.0275  3.1670
   13SAPS   C13 1603   0.877   2.993  11.394 -0.2116 -0.8248 -0.1203
   13SAPS  O13A 1604   0.887   2.948  11.505 -0.2653  0.2630 -0.0425
   13SAPS  O13B 1605   0.977   3.055  11.346 -0.4323 -0.0139  0.5593
   13SAPS   C11 1606   0.791   2.926  11.167  0.2317  0.6209  0.1679
   13SAPS  H11A 1607   0.792   2.816  11.176  1.5995  0.7102  1.3731
   13SAPS  H11B 1608   0.896   2.955  11.148  0.4075 -0.3031 -0.3119
   13SAPS     P 1609   0.736   3.095  10.978 -0.6056  0.1102  0.2827
   13SAPS   O13 1610   0.761   3.206  11.069  0.5377 -0.3304  0.0659
   13SAPS   O14 1611   0.846   3.059  10.890  0.5013 -0.1333 -0.0386
   13SAPS   O12 1612   0.700   2.973  11.070  0.1488  0.4807  0.3463
   13SAPS   O11 1613   0.605   3.121  10.896 -0.4761 -0.3729 -0.0520
   13SAPS    C1 1614   0.502   3.027  10.864 -0.4376  0.3750  0.5077
   13SAPS    HA 1615   0.547   2.925  10.869 -0.2692  0.5101  2.0040
   13SAPS    HB 1616   0.414   3.030  10.931  0.1403  0.8461  1.2644
   13SAPS    C2 1617   0.453   3.022  10.717  1.0080 -0.2855  0.4780
   13SAPS    HS 1618   0.389   2.931  10.718  0.3150  0.1686 -0.7225
   13SAPS   O21 1619   0.553   3.018  10.614 -0.3512 -0.3940 -0.4339
   13SAPS   C21 1620   0.604   2.903  10.575  0.0070  0.3980 -0.4341
   13SAPS   O22 1621   0.587   2.799  10.636 -0.5701  0.3617  0.2605
   13SAPS   C22 1622   0.700   2.919  10.460 -0.6981  0.2697  0.2082
   13SAPS   H2R 1623   0.723   3.027  10.444  0.3732  0.0616  0.2998
   13SAPS   H2S 1624   0.792   2.862  10.486 -1.0677 -0.5347 -0.2234
   13SAPS    C3 1625   0.353   3.140  10.699 -0.2999 -0.2533  0.4391
   13SAPS    HX 1626   0.409   3.236  10.701 -0.6845 -0.0298  0.6310
   13SAPS    HY 1627   0.283   3.143  10.785  0.8551  0.2020  1.3916
   13SAPS   O31 1628   0.273   3.120  10.577 -0.4887  0.2427  0.1825
   13SAPS   C31 1629   0.301   3.197  10.473  0.4685  0.5610  0.1180
   13SAPS   O32 1630   0.398   3.270  10.468 -0.3225 -0.3477 -0.2389
   13SAPS   C32 1631   0.201   3.187  10.360 -0.1477 -0.3447 -0.3349
   13SAPS   H2X 1632   0.222   3.269  10.288  0.2043  0.1562  0.3270
   13SAPS   H2Y 1633   0.099   3.202  10.400 -0.5426 -2.9149 -0.2139
   13SAPS   C23 1634   0.640   2.872  10.326  0.4349  0.4518 -0.1146
   13SAPS   H3R 1635   0.688   2.920  10.237 -2.1220 -0.5278 -2.1487
   13SAPS   H3S 1636   0.537   2.914  10.322  0.0901 -0.3532  0.1661
   13SAPS   C24 1637   0.648   2.719  10.302  0.3352 -0.1744  0.3685
   13SAPS   H4R 1638   0.637   2.667  10.400  0.9737 -1.9898 -0.4884
   13SAPS   H4S 1639   0.749   2.689  10.268 -0.3208 -0.9296 -0.9932
   13SAPS   C25 1640   0.548   2.662  10.205 -0.5193  0.9756 -0.4412
   13SAPS   H5R 1641   0.551   2.553  10.211  0.5649  0.9982 -0.3766
   13SAPS   C26 1642   0.459   2.716  10.113 -0.1625 -0.2258 -0.6055
   13SAPS   H6R 1643   0.399   2.641  10.059 -0.2273 -0.4438 -0.2358
   13SAPS   C27 1644   0.437   2.859  10.065 -0.5076 -0.2650 -0.0790
   13SAPS   H7R 1645   0.515   2.928  10.104  0.6053 -1.7896  0.4967
   13SAPS   H7S 1646   0.336   2.889  10.102 -0.5115  2.4463 -1.9630
   13SAPS   C28 1647   0.448   2.860   9.915 -0.0858 -0.1179  0.2757
   13SAPS   H8R 1648   0.540   2.816   9.873 -0.3160 -0.4824  0.1442
   13SAPS   C29 1649   0.358   2.903   9.827  0.3677 -0.0220 -0.1023
   13SAPS   H9R 1650   0.392   2.918   9.724  0.4830  1.1759  0.0916
   13SAPS  C210 1651   0.229   2.981   9.857  0.2902 -0.2752  0.1226
   13SAPS  H10R 1652   0.255   3.087   9.841 -3.2527  0.6410 -0.3566
   13SAPS  H10S 1653   0.181   2.971   9.957 -1.4218 -1.2782 -0.7530
   13SAPS  C211 1654   0.109   2.959   9.771 -0.0770 -0.1667  0.6321
   13SAPS  H11R 1655   0.104   2.859   9.726 -0.2907 -0.6487  1.6856
   13SAPS  C212 1656   0.014   3.051   9.743 -0.2859 -0.1192 -0.3205
   13SAPS  H12R 1657  -0.067   3.017   9.676 -0.1744  0.0790 -0.5572
   13SAPS  C213 1658   0.000   3.193   9.797 -0.4452  0.0417 -0.9513
   13SAPS  H13R 1659   0.060   3.260   9.732 -0.5173  0.3122 -0.7389
   13SAPS  H13S 1660   0.047   3.201   9.897 -0.9793  0.3387 -0.7198
   13SAPS  C214 1661  -0.138   3.245   9.798 -0.6201 -0.2481 -0.0831
   13SAPS  H14R 1662  -0.195   3.227   9.890  0.8283 -0.6411  0.7733
   13SAPS  C215 1663  -0.207   3.304   9.695 -0.4797  0.0373 -0.6532
   13SAPS  H15R 1664  -0.312   3.334   9.710  0.1099  2.7190 -1.4318
   13SAPS  C216 1665  -0.154   3.336   9.556  0.4849  0.1904  0.0803
   13SAPS  H16R 1666  -0.181   3.258   9.481 -0.5100 -0.6337  1.2507
   13SAPS  H16S 1667  -0.043   3.346   9.559  0.4536  0.4456  0.3228
   13SAPS  C217 1668  -0.213   3.465   9.509 -0.9285 -0.5457  0.4198
   13SAPS  H17R 1669  -0.201   3.549   9.580 -2.4568 -1.7539  2.2343
   13SAPS  H17S 1670  -0.324   3.475   9.502 -1.0302  1.0147  3.1182
   13SAPS  C218 1671  -0.157   3.521   9.377  0.4520 -0.4870  0.3275
   13SAPS  H18R 1672  -0.178   3.448   9.296  0.0009 -0.0978  0.0860
   13SAPS  H18S 1673  -0.046   3.531   9.375  0.4520  0.8228 -3.7679
   13SAPS  C219 1674  -0.223   3.644   9.337  0.7027 -0.9241 -0.1889
   13SAPS  H19R 1675  -0.334   3.637   9.341  0.4428  1.5252 -1.0978
   13SAPS  H19S 1676  -0.197   3.671   9.232  0.0223  0.8118  0.0448
   13SAPS  C220 1677  -0.188   3.772   9.416 -0.2060  0.0512  0.1478
   13SAPS  H20R 1678  -0.081   3.799   9.400  0.3292 -1.4830  0.9136
   13SAPS  H20S 1679  -0.215   3.777   9.524  0.5362  2.5201  0.3008
   13SAPS  H20T 1680  -0.249   3.857   9.379 -2.0350 -0.6051  1.5355
   13SAPS   C33 1681   0.188   3.039  10.295 -0.7540  0.2997  0.6332
   13SAPS   H3X 1682   0.296   3.011  10.289 -0.2395  2.1871  0.4288
   13SAPS   H3Y 1683   0.151   3.050  10.191  0.7051 -3.3636 -0.4383
   13SAPS   C34 1684   0.099   2.946  10.376  0.4618  0.6751  0.4944
   13SAPS   H4X 1685  -0.009   2.972  10.368  0.5445  1.4785  1.6881
   13SAPS   H4Y 1686   0.127   2.952  10.483  2.1752 -0.8291  0.1849
   13SAPS   C35 1687   0.114   2.799  10.328 -0.0574 -0.2808 -0.0549
   13SAPS   H5X 1688   0.051   2.732  10.392  0.8427 -0.6504  0.4729
   13SAPS   H5Y 1689   0.219   2.765  10.341 -0.1312 -0.9686 -1.1242
   13SAPS   C36 1690   0.067   2.769  10.184  0.2923  0.0657  0.0734
   13SAPS   H6X 1691   0.133   2.831  10.119 -0.9306  0.5372 -0.7739
   13SAPS   H6Y 1692  -0.038   2.802  10.169  0.4679  0.0738 -1.2483
   13SAPS   C37 1693   0.077   2.622  10.136  0.3432 -1.1065  0.4990
   13SAPS   H7X 1694  -0.010   2.565  10.176 -1.0069 -1.0498 -2.1588
   13SAPS   H7Y 1695   0.175   2.581  10.171  0.4243  0.4509  2.2467
   13SAPS   C38 1696   0.057   2.617   9.983 -0.2674 -0.3379 -0.0617
   13SAPS   H8X 1697   0.077   2.721   9.949 -1.2956 -0.1252 -0.0419
   13SAPS   H8Y 1698  -0.050   2.603   9.956 -1.1786  1.0098  2.5174
   13SAPS   C39 1699   0.141   2.506   9.918 -0.2339  0.3382 -0.1989
   13SAPS   H9X 1700   0.247   2.517   9.950 -0.6553 -0.0436  1.4222
   13SAPS   H9Y 1701   0.136   2.516   9.807 -0.0315 -0.2176 -0.2563
   13SAPS  C310 1702   0.093   2.371   9.961  0.0897 -0.2377 -0.2021
   13SAPS  H10X 1703  -0.015   2.361   9.935 -0.4751  3.0304  0.4571
   13SAPS  H10Y 1704   0.089   2.372  10.072 -0.9398 -2.1161 -0.1726
   13SAPS  C311 1705   0.171   2.258   9.890  0.0605  0.7841  0.0529
   13SAPS  H11X 1706   0.274   2.258   9.932  1.3390 -1.7329 -2.6900
   13SAPS  H11Y 1707   0.171   2.277   9.780 -1.4175 -0.5803 -0.2167
   13SAPS  C312 1708   0.122   2.110   9.931 -0.1299 -0.9303 -0.4976
   13SAPS  H12X 1709   0.014   2.101   9.907 -0.1799  1.3962 -1.3445
   13SAPS  H12Y 1710   0.136   2.108  10.041 -2.7027 -0.1467 -0.0916
   13SAPS  C313 1711   0.204   2.002   9.864 -0.0832  0.0101 -0.3653
   13SAPS  H13X 1712   0.306   2.046   9.876  0.9273 -1.7920 -1.8767
   13SAPS  H13Y 1713   0.180   1.993   9.756 -0.0788  1.9043 -0.5684
   13SAPS  C314 1714   0.187   1.867   9.918 -0.1695  0.3514 -0.4902
   13SAPS  H14X 1715   0.246   1.791   9.863  3.0061  1.2902  1.3938
   13SAPS  H14Y 1716   0.077   1.853   9.913 -0.3881  0.6935  2.0896
   13SAPS  C315 1717   0.239   1.850  10.063  0.6250  0.3912 -0.4451
   13SAPS  H15X 1718   0.163   1.905  10.122 -0.2826 -2.0479  0.8345
   13SAPS  H15Y 1719   0.341   1.892  10.063  0.9944 -0.4877 -0.0064
   13SAPS  C316 1720   0.239   1.702  10.097  0.2686 -0.6359 -0.1016
   13SAPS  H16X 1721   0.309   1.677  10.179  0.3591  2.0884  0.7485
   13SAPS  H16Y 1722   0.268   1.643  10.007  1.0863  1.4026 -1.2533
   13SAPS  C317 1723   0.102   1.656  10.162  0.4795  0.1537  0.3115
   13SAPS  H17X 1724   0.093   1.548  10.140  0.4110  0.1416  0.3973
   13SAPS  H17Y 1725   0.024   1.706  10.100  0.4886  2.3247  1.9529
   13SAPS  C318 1726   0.083   1.692  10.307 -0.2252 -0.1132  0.7134
   13SAPS  H18X 1727   0.152   1.633  10.371 -0.3633 -1.3687 -0.2599
   13SAPS  H18Y 1728  -0.019   1.673  10.346 -0.2037 -0.8887  0.4007
   13SAPS  H18Z 1729   0.113   1.797  10.327 -0.7801 -0.4332  3.5924
   14SAPS     N 1730   2.772   1.840   7.457 -0.2271 -0.0011 -0.4020
   14SAPS   HN1 1731   2.781   1.800   7.553  0.6169 -1.3424 -1.0044
   14SAPS   HN2 1732   2.686   1.816   7.405 -0.4785  1.7845 -0.9025
   14SAPS   HN3 1733   2.854   1.803   7.404  1.0688 -0.4408  1.7575
   14SAPS   C12 1734   2.779   1.991   7.459  0.8359  0.0755 -0.2044
   14SAPS  H12A 1735   2.870   2.013   7.512  0.2213 -0.0753  0.9771
   14SAPS   C13 1736   2.801   2.060   7.322  0.2524 -0.6708 -0.4886
   14SAPS  O13A 1737   2.799   1.981   7.223  0.1898 -0.0789 -0.2057
   14SAPS  O13B 1738   2.860   2.173   7.323 -0.3396  0.0225 -0.1138
   14SAPS   C11 1739   2.657   2.055   7.531 -0.6877 -0.4276 -0.1256
   14SAPS  H11A 1740   2.686   2.158   7.560 -1.7233  0.0548 -0.7249
   14SAPS  H11B 1741   2.638   1.994   7.622 -0.7835 -0.5763 -0.2452
   14SAPS     P 1742   2.432   1.947   7.427 -0.1026 -0.4539 -0.1857
   14SAPS   O13 1743   2.327   1.980   7.327 -0.7159 -0.2504  0.4442
   14SAPS   O14 1744   2.514   1.825   7.394 -0.0424  0.0368  0.3061
   14SAPS   O12 1745   2.538   2.065   7.450  1.0693  0.6051 -0.0994
   14SAPS   O11 1746   2.367   1.912   7.570  0.1055  0.1523  0.1098
   14SAPS    C1 1747   2.255   1.992   7.616  0.4691 -0.3250 -0.3747
   14SAPS    HA 1748   2.240   2.093   7.572 -0.3158  0.3175  1.2755
   14SAPS    HB 1749   2.161   1.937   7.594 -0.1552  1.0766 -1.3316
   14SAPS    C2 1750   2.261   2.005   7.772 -0.1251  0.1129 -0.5753
   14SAPS    HS 1751   2.184   2.081   7.796  1.2887  1.3739  0.0758
   14SAPS   O21 1752   2.392   2.040   7.827 -0.4606  0.5685  0.1483
   14SAPS   C21 1753   2.440   2.162   7.789  0.1850 -0.2636  0.2544
   14SAPS   O22 1754   2.375   2.233   7.709  0.1931 -0.1546 -0.0245
   14SAPS   C22 1755   2.562   2.198   7.861  0.4180  0.5391  0.2860
   14SAPS   H2R 1756   2.562   2.140   7.956 -0.7675  1.0884  0.6368
   14SAPS   H2S 1757   2.658   2.177   7.807  0.7166  2.9796 -0.2301
   14SAPS    C3 1758   2.229   1.862   7.834 -0.0398  0.6435  0.6510
   14SAPS    HX 1759   2.295   1.785   7.787 -1.4408 -0.1154 -0.1461
   14SAPS    HY 1760   2.128   1.832   7.799  0.5245 -0.2904 -0.2288
   14SAPS   O31 1761   2.217   1.854   7.979 -0.4519 -0.5145  1.0756
   14SAPS   C31 1762   2.318   1.822   8.064 -0.6727 -1.1060 -0.1924
   14SAPS   O32 1763   2.439   1.813   8.042 -0.1857  0.4366 -0.3646
   14SAPS   C32 1764   2.262   1.793   8.201 -0.2084  1.2392  0.0058
   14SAPS   H2X 1765   2.163   1.743   8.197 -0.0653  1.0253 -1.9674
   14SAPS   H2Y 1766   2.237   1.886   8.257 -2.7356  0.4434  0.3283
   14SAPS   C23 1767   2.557   2.346   7.899 -0.1923  0.4008  0.4056
   14SAPS   H3R 1768   2.454   2.387   7.907  1.1796  4.1740  0.7537
   14SAPS   H3S 1769   2.620   2.402   7.826  0.4165 -0.3250  0.3592
   14SAPS   C24 1770   2.614   2.361   8.039 -0.9644 -0.1847  0.0733
   14SAPS   H4R 1771   2.549   2.326   8.122 -0.6759  1.3551  1.0046
   14SAPS   H4S 1772   2.612   2.471   8.056 -2.2834 -0.5435  2.6125
   14SAPS   C25 1773   2.756   2.310   8.048 -0.4154  0.0707  0.6427
   14SAPS   H5R 1774   2.819   2.340   7.963  0.2184 -1.4548  0.5504
   14SAPS   C26 1775   2.806   2.219   8.134  0.2765  0.0880 -0.1747
   14SAPS   H6R 1776   2.910   2.191   8.113  0.0090  0.2069 -1.7889
   14SAPS   C27 1777   2.748   2.153   8.261  0.0774 -0.2164  0.0396
   14SAPS   H7R 1778   2.648   2.202   8.269 -0.7918 -2.0099  0.6103
   14SAPS   H7S 1779   2.806   2.170   8.354  2.2595 -1.0514 -1.0971
   14SAPS   C28 1780   2.718   2.007   8.250  0.1231  0.8747  0.4169
   14SAPS   H8R 1781   2.737   1.965   8.150 -3.0873  1.2114 -0.4567
   14SAPS   C29 1782   2.675   1.934   8.359 -0.2024 -0.3321 -0.1860
   14SAPS   H9R 1783   2.625   1.839   8.334  1.0846 -1.0566 -0.1037
   14SAPS  C210 1784   2.647   1.979   8.507  0.3528 -0.0364 -0.2609
   14SAPS  H10R 1785   2.550   1.932   8.533 -0.3150  1.6422  0.4892
   14SAPS  H10S 1786   2.638   2.090   8.513 -0.7947 -0.1864  1.7732
   14SAPS  C211 1787   2.754   1.945   8.603  0.3876  0.2675 -0.1351
   14SAPS  H11R 1788   2.856   1.941   8.564  1.4297 -0.1438  2.4713
   14SAPS  C212 1789   2.735   1.922   8.739  0.3850  0.5969  0.8555
   14SAPS  H12R 1790   2.821   1.901   8.803 -0.0604 -1.6354  0.7771
   14SAPS  C213 1791   2.606   1.938   8.816  0.6520 -0.6768  0.2170
   14SAPS  H13R 1792   2.549   2.003   8.746  0.9815 -0.8873 -0.2537
   14SAPS  H13S 1793   2.620   1.996   8.909  0.5316  0.1056 -0.2441
   14SAPS  C214 1794   2.531   1.807   8.845 -0.4677  0.5932  0.7842
   14SAPS  H14R 1795   2.499   1.757   8.752 -0.6212  0.3435  0.9701
   14SAPS  C215 1796   2.519   1.746   8.963  0.2302 -0.2735 -0.3384
   14SAPS  H15R 1797   2.472   1.646   8.973 -0.3961  0.2336  2.4050
   14SAPS  C216 1798   2.568   1.798   9.096  0.2481  0.6359 -0.3995
   14SAPS  H16R 1799   2.536   1.903   9.114 -0.1344  0.4216  0.1939
   14SAPS  H16S 1800   2.678   1.789   9.080  0.5569 -1.8439  2.1836
   14SAPS  C217 1801   2.541   1.702   9.216  0.3282  0.0801  0.5027
   14SAPS  H17R 1802   2.596   1.609   9.192 -0.3696 -0.2510  0.1864
   14SAPS  H17S 1803   2.434   1.675   9.223 -0.5244  3.3514  2.0921
   14SAPS  C218 1804   2.598   1.767   9.340 -0.9977  0.5326 -0.1157
   14SAPS  H18R 1805   2.552   1.868   9.347 -0.1742  0.8723  0.5829
   14SAPS  H18S 1806   2.708   1.781   9.330 -0.9749 -0.8384 -2.9319
   14SAPS  C219 1807   2.560   1.691   9.462 -0.4060  0.0296  0.0565
   14SAPS  H19R 1808   2.586   1.583   9.452  1.4899  0.5403 -0.9255
   14SAPS  H19S 1809   2.450   1.709   9.462 -0.1705  1.6676  1.3670
   14SAPS  C220 1810   2.625   1.741   9.586 -0.3717  0.7053  0.4522
   14SAPS  H20R 1811   2.590   1.680   9.672 -2.8199 -0.3138 -1.1534
   14SAPS  H20S 1812   2.624   1.851   9.605  0.0813  0.5472  1.4890
   14SAPS  H20T 1813   2.731   1.713   9.566 -0.5331  0.2626  0.2086
   14SAPS   C33 1814   2.344   1.704   8.296  0.2917  0.6683  0.9300
   14SAPS   H3X 1815   2.437   1.759   8.322  1.4412  1.2389 -3.5309
   14SAPS   H3Y 1816   2.383   1.610   8.249  0.6213  0.3800  1.7556
   14SAPS   C34 1817   2.269   1.673   8.422  0.2540 -0.0600  0.1233
   14SAPS   H4X 1818   2.172   1.625   8.398  1.0491 -2.2124  0.9746
   14SAPS   H4Y 1819   2.244   1.774   8.460 -0.0495 -0.7271  1.7827
   14SAPS   C35 1820   2.348   1.583   8.517  0.0716 -0.3122  0.4636
   14SAPS   H5X 1821   2.438   1.641   8.548  0.1069 -0.9246  1.5589
   14SAPS   H5Y 1822   2.377   1.490   8.463 -2.8695 -1.6638  1.0169
   14SAPS   C36 1823   2.262   1.547   8.636 -0.2842  0.3114  0.2550
   14SAPS   H6X 1824   2.164   1.508   8.600 -0.5499  1.2154 -0.0259
   14SAPS   H6Y 1825   2.237   1.640   8.692  0.9811  0.7647  0.1014
   14SAPS   C37 1826   2.323   1.441   8.735 -0.0144 -0.3135  0.4538
   14SAPS   H7X 1827   2.427   1.459   8.770 -0.1704 -0.3660  0.9526
   14SAPS   H7Y 1828   2.334   1.352   8.668 -2.0061  0.1106 -0.5053
   14SAPS   C38 1829   2.242   1.398   8.860  0.0601  0.4992  0.5334
   14SAPS   H8X 1830   2.150   1.345   8.827  0.1487  0.4313  0.3952
   14SAPS   H8Y 1831   2.224   1.489   8.920  0.7109  1.3622 -0.5455
   14SAPS   C39 1832   2.316   1.294   8.946 -0.0909  0.3952  0.4958
   14SAPS   H9X 1833   2.410   1.343   8.980 -0.9407  2.0461  0.5837
   14SAPS   H9Y 1834   2.340   1.206   8.883  0.6536  1.3249 -0.5656
   14SAPS  C310 1835   2.226   1.238   9.066 -0.3101  0.2642 -0.5918
   14SAPS  H10X 1836   2.279   1.150   9.109  0.7666  1.2231  0.1134
   14SAPS  H10Y 1837   2.127   1.209   9.025 -0.5381 -0.2338  0.2980
   14SAPS  C311 1838   2.196   1.342   9.177  0.1403  0.3147  0.4926
   14SAPS  H11X 1839   2.125   1.294   9.248  3.1178 -2.1123  2.0150
   14SAPS  H11Y 1840   2.149   1.426   9.120 -2.5720 -1.4453 -0.0496
   14SAPS  C312 1841   2.313   1.375   9.264  0.7707  0.0060 -0.3780
   14SAPS  H12X 1842   2.303   1.474   9.313 -0.7304  0.4083 -1.4127
   14SAPS  H12Y 1843   2.395   1.385   9.190  1.6849 -1.7747  0.3453
   14SAPS  C313 1844   2.352   1.269   9.378  0.5853  0.4913  0.5109
   14SAPS  H13X 1845   2.352   1.168   9.331 -0.3595  0.7418 -0.0694
   14SAPS  H13Y 1846   2.264   1.272   9.445 -1.6429  0.2291 -2.1818
   14SAPS  C314 1847   2.482   1.293   9.455  0.1433 -0.5730  0.2917
   14SAPS  H14X 1848   2.483   1.222   9.541  0.5610 -0.1315  0.6610
   14SAPS  H14Y 1849   2.467   1.389   9.508 -0.0516 -0.5088  0.1197
   14SAPS  C315 1850   2.623   1.293   9.379  0.5413  0.1156  0.3342
   14SAPS  H15X 1851   2.693   1.335   9.454  0.7688  0.3148  0.0128
   14SAPS  H15Y 1852   2.622   1.365   9.294 -1.8259  0.4944  0.5945
   14SAPS  C316 1853   2.659   1.151   9.343  0.7439 -0.7640  0.3449
   14SAPS  H16X 1854   2.639   1.131   9.236  1.9739 -1.6331  0.2625
   14SAPS  H16Y 1855   2.597   1.078   9.401  1.3416 -0.9726  0.7325
   14SAPS  C317 1856   2.811   1.137   9.362 -0.1811  0.3049 -0.1272
   14SAPS  H17X 1857   2.837   1.150   9.470  0.2421 -1.8983  0.0830
   14SAPS  H17Y 1858   2.859   1.221   9.308  0.7953 -0.4748 -0.5054
   14SAPS  C318 1859   2.857   1.005   9.313  0.1281  0.4549  0.7073
   14SAPS  H18X 1860   2.968   0.998   9.321  0.1436 -2.3797 -0.5827
   14SAPS  H18Y 1861   2.834   1.003   9.204  0.8551 -0.2161  0.5537
   14SAPS  H18Z 1862   2.803   0.923   9.365 -1.2923  0.8099 -0.1569
   15SAPS     N 1863   2.030   3.378   7.348  0.4561 -0.4021  0.1918
   15SAPS   HN1 1864   2.008   3.474   7.382  0.8299 -0.5053  0.7538
   15SAPS   HN2 1865   1.977   3.321   7.417 -0.6337  0.7308  0.3346
   15SAPS   HN3 1866   2.133   3.364   7.343  0.9252  2.6082 -0.6603
   15SAPS   C12 1867   1.970   3.358   7.209  0.0608 -0.3529 -0.7418
   15SAPS  H12A 1868   1.989   3.257   7.176 -0.0073  0.0355 -2.0529
   15SAPS   C13 1869   1.821   3.383   7.208 -0.5153 -0.4021 -0.4081
   15SAPS  O13A 1870   1.760   3.415   7.315 -0.0662 -0.1832  0.1063
   15SAPS  O13B 1871   1.758   3.367   7.101  0.0652  0.1525  0.3973
   15SAPS   C11 1872   2.048   3.438   7.113  0.3951 -0.3030  0.3381
   15SAPS  H11A 1873   2.029   3.546   7.135  2.2640  0.4271 -1.3267
   15SAPS  H11B 1874   1.998   3.421   7.015 -0.9264 -0.6985  1.0569
   15SAPS     P 1875   2.313   3.462   7.163 -0.4744  0.1126  0.1924
   15SAPS   O13 1876   2.441   3.409   7.118 -0.0521 -0.5719 -0.4306
   15SAPS   O14 1877   2.302   3.612   7.161  0.5987  0.1311 -0.5655
   15SAPS   O12 1878   2.186   3.394   7.099 -0.0854 -0.2815  0.2249
   15SAPS   O11 1879   2.293   3.419   7.317 -0.4930  0.0316 -0.5946
   15SAPS    C1 1880   2.382   3.451   7.420  0.6761 -0.1029 -0.1382
   15SAPS    HA 1881   2.439   3.357   7.440 -0.4840 -1.0962 -1.3192
   15SAPS    HB 1882   2.458   3.525   7.387  0.6963  0.1304  0.4138
   15SAPS    C2 1883   2.301   3.499   7.550 -0.0802 -0.2340 -0.1675
   15SAPS    HS 1884   2.365   3.525   7.637  1.2960 -0.4478 -1.0833
   15SAPS   O21 1885   2.199   3.404   7.597  0.1378 -0.0272 -0.2077
   15SAPS   C21 1886   2.248   3.311   7.668  0.4524  0.2693 -0.0414
   15SAPS   O22 1887   2.362   3.292   7.707 -0.2855 -0.0988  0.0683
   15SAPS   C22 1888   2.131   3.226   7.723  0.3449  0.4656 -0.0028
   15SAPS   H2R 1889   2.035   3.273   7.692 -0.0354 -1.5553 -2.1867
   15SAPS   H2S 1890   2.130   3.120   7.688 -0.4874  0.2067  0.7730
   15SAPS    C3 1891   2.232   3.634   7.510  0.3581 -0.4406  0.3178
   15SAPS    HX 1892   2.177   3.617   7.415  1.1327 -0.5165 -0.1213
   15SAPS    HY 1893   2.308   3.712   7.489 -2.3584  1.9346 -1.6230
   15SAPS   O31 1894   2.148   3.679   7.619 -0.0294  0.6808 -0.3224
   15SAPS   C31 1895   2.014   3.655   7.609  0.1636 -0.2625  0.0437
   15SAPS   O32 1896   1.963   3.599   7.512 -0.4530  0.3311  0.4190
   15SAPS   C32 1897   1.937   3.693   7.731 -0.2421  0.0664 -0.2073
   15SAPS   H2X 1898   1.862   3.769   7.700  0.5179  1.1564  0.5497
   15SAPS   H2Y 1899   2.014   3.737   7.797  0.0015 -0.6551 -0.0040
   15SAPS   C23 1900   2.148   3.227   7.875  0.1397  0.5127  0.2392
   15SAPS   H3R 1901   2.123   3.330   7.908  0.8065  0.1817  1.8473
   15SAPS   H3S 1902   2.253   3.206   7.903  0.6387  1.9550 -0.4815
   15SAPS   C24 1903   2.061   3.128   7.954  0.2435 -0.1762 -0.6311
   15SAPS   H4R 1904   2.097   3.109   8.057 -1.5664  1.0251  0.2763
   15SAPS   H4S 1905   2.089   3.032   7.906 -1.1903 -0.3065 -1.2359
   15SAPS   C25 1906   1.910   3.144   7.950 -0.2865  0.0768 -0.6514
   15SAPS   H5R 1907   1.870   3.198   7.863 -3.0595 -0.2504  0.3251
   15SAPS   C26 1908   1.825   3.127   8.051 -0.4274 -0.4881 -0.3986
   15SAPS   H6R 1909   1.718   3.147   8.041 -0.2392  0.9669  0.3196
   15SAPS   C27 1910   1.858   3.075   8.184 -0.0796  0.7222 -0.5932
   15SAPS   H7R 1911   1.940   3.001   8.172 -0.1024  0.6163 -0.1089
   15SAPS   H7S 1912   1.768   3.023   8.223  0.0085  0.0065 -1.3212
   15SAPS   C28 1913   1.899   3.172   8.296  0.4265 -0.4243  0.1331
   15SAPS   H8R 1914   1.946   3.268   8.269 -1.1805  0.8606  1.6904
   15SAPS   C29 1915   1.909   3.140   8.427  0.2394 -1.1782 -0.2256
   15SAPS   H9R 1916   1.944   3.218   8.495 -0.3923 -0.6440 -0.5013
   15SAPS  C210 1917   1.850   3.019   8.492  0.4849  0.7013  0.1161
   15SAPS  H10R 1918   1.829   2.946   8.411 -0.1118 -0.0788  0.9534
   15SAPS  H10S 1919   1.754   3.047   8.540 -0.1976 -1.0375 -0.1805
   15SAPS  C211 1920   1.947   2.946   8.581  0.4674  0.1677  0.6149
   15SAPS  H11R 1921   2.036   2.900   8.537  1.6986  1.6971  1.3928
   15SAPS  C212 1922   1.937   2.923   8.714  0.4446 -0.1352 -0.3793
   15SAPS  H12R 1923   2.025   2.891   8.772  0.4365  1.4604  0.5831
   15SAPS  C213 1924   1.826   2.972   8.809 -0.0011  0.1060  0.5757
   15SAPS  H13R 1925   1.806   2.900   8.891  1.6211  0.5320  1.4047
   15SAPS  H13S 1926   1.733   2.999   8.756  1.5268 -0.5185 -2.7319
   15SAPS  C214 1927   1.866   3.099   8.884 -1.6789  0.0793  0.7919
   15SAPS  H14R 1928   1.938   3.165   8.833  1.3357  0.0353  4.5311
   15SAPS  C215 1929   1.819   3.138   9.007  0.1030  0.1614  0.3216
   15SAPS  H15R 1930   1.847   3.237   9.047  0.4804  1.0853 -2.0803
   15SAPS  C216 1931   1.718   3.075   9.096  0.2908  0.5412 -0.3843
   15SAPS  H16R 1932   1.774   3.016   9.172  2.4598 -1.3990 -3.2697
   15SAPS  H16S 1933   1.653   3.010   9.034 -1.8500  1.3810  0.8617
   15SAPS  C217 1934   1.625   3.176   9.176  0.4418  0.5205 -0.5342
   15SAPS  H17R 1935   1.552   3.109   9.226  2.4808  1.1472  3.6773
   15SAPS  H17S 1936   1.566   3.244   9.110 -0.4518 -1.4018 -1.8047
   15SAPS  C218 1937   1.700   3.252   9.285 -0.2514 -0.4791  0.5426
   15SAPS  H18R 1938   1.775   3.313   9.230  0.2571 -0.5998  1.0981
   15SAPS  H18S 1939   1.763   3.185   9.346 -1.2961 -2.2518 -0.2311
   15SAPS  C219 1940   1.615   3.342   9.371  0.4007  0.6528 -0.3540
   15SAPS  H19R 1941   1.530   3.279   9.405  0.0893  0.7359 -0.9528
   15SAPS  H19S 1942   1.577   3.431   9.315 -0.3558 -0.3042 -1.4096
   15SAPS  C220 1943   1.708   3.393   9.482 -0.3181  0.4755 -0.4387
   15SAPS  H20R 1944   1.805   3.435   9.447  0.1258  0.6409  0.9408
   15SAPS  H20S 1945   1.730   3.313   9.556 -1.6837  1.9172  1.6333
   15SAPS  H20T 1946   1.655   3.474   9.537 -1.6849 -1.3861  1.1194
   15SAPS   C33 1947   1.882   3.578   7.819 -0.7435 -0.4290 -0.4596
   15SAPS   H3X 1948   1.967   3.513   7.852 -0.3603  0.2300 -0.1259
   15SAPS   H3Y 1949   1.813   3.519   7.756  2.1238 -2.1722 -2.2115
   15SAPS   C34 1950   1.806   3.623   7.947  0.8181 -0.2431 -0.4686
   15SAPS   H4X 1951   1.715   3.684   7.927  1.7155  2.1409  2.0386
   15SAPS   H4Y 1952   1.876   3.693   7.998  0.9180 -2.0637  2.0388
   15SAPS   C35 1953   1.783   3.505   8.045 -0.1511  0.0675  0.0161
   15SAPS   H5X 1954   1.880   3.463   8.078  0.2447  1.5196  0.8045
   15SAPS   H5Y 1955   1.731   3.427   7.985 -1.0016  1.6944 -1.4933
   15SAPS   C36 1956   1.697   3.549   8.165 -0.3957 -0.2731  0.1596
   15SAPS   H6X 1957   1.614   3.620   8.142 -1.7440 -0.6568  3.2213
   15SAPS   H6Y 1958   1.758   3.611   8.234 -0.4387  2.7642 -2.3037
   15SAPS   C37 1959   1.624   3.423   8.219 -0.0085  0.7723  0.1442
   15SAPS   H7X 1960   1.692   3.345   8.260 -1.9411 -2.2427 -1.9859
   15SAPS   H7Y 1961   1.568   3.370   8.138 -1.3301  0.8385  0.9819
   15SAPS   C38 1962   1.515   3.449   8.330 -0.6681  0.4907  0.3714
   15SAPS   H8X 1963   1.451   3.359   8.328 -0.5916  0.4503 -1.7979
   15SAPS   H8Y 1964   1.470   3.544   8.292  1.3329  0.9753 -0.8973
   15SAPS   C39 1965   1.567   3.468   8.476  0.0641  0.1878  0.2894
   15SAPS   H9X 1966   1.641   3.550   8.486  1.5552 -1.1415  0.4534
   15SAPS   H9Y 1967   1.627   3.378   8.495 -1.0397 -0.8063 -0.7188
   15SAPS  C310 1968   1.459   3.486   8.578 -0.4971  0.4722 -0.5023
   15SAPS  H10X 1969   1.386   3.403   8.565  0.3198 -0.0579 -1.8880
   15SAPS  H10Y 1970   1.405   3.581   8.556 -1.0528  0.1070 -0.7426
   15SAPS  C311 1971   1.499   3.502   8.727 -0.8945 -0.3432  0.0076
   15SAPS  H11X 1972   1.544   3.404   8.752  1.0293  0.4980  0.0187
   15SAPS  H11Y 1973   1.412   3.508   8.795  0.2320  0.7287  1.3943
   15SAPS  C312 1974   1.602   3.606   8.771 -0.1313 -0.1582  0.4368
   15SAPS  H12X 1975   1.570   3.705   8.732 -1.4952 -1.3447 -1.6283
   15SAPS  H12Y 1976   1.703   3.587   8.728 -0.9449  0.6423 -2.0114
   15SAPS  C313 1977   1.607   3.620   8.925  0.2957 -0.3850  0.2619
   15SAPS  H13X 1978   1.627   3.522   8.973  0.0245 -0.3124  0.5237
   15SAPS  H13Y 1979   1.507   3.657   8.956  1.0013  1.1466  0.8241
   15SAPS  C314 1980   1.712   3.722   8.977  0.4723  0.6806 -0.5360
   15SAPS  H14X 1981   1.687   3.824   8.940 -0.3054 -0.3289 -2.9671
   15SAPS  H14Y 1982   1.813   3.690   8.942  1.4533 -0.2239  2.7293
   15SAPS  C315 1983   1.717   3.711   9.134 -0.2281  0.4171  0.3548
   15SAPS  H15X 1984   1.742   3.607   9.162  1.8427  1.5520  3.3277
   15SAPS  H15Y 1985   1.619   3.743   9.175 -0.8893 -0.4598 -0.5191
   15SAPS  C316 1986   1.819   3.805   9.196 -0.1656 -0.0655 -0.7649
   15SAPS  H16X 1987   1.779   3.909   9.193  0.2117  0.1743  1.2517
   15SAPS  H16Y 1988   1.907   3.801   9.129  1.0250 -0.2973  0.7672
   15SAPS  C317 1989   1.841   3.765   9.344  0.2567 -0.0134  0.0278
   15SAPS  H17X 1990   1.860   3.656   9.350  1.9930  0.2725  0.1258
   15SAPS  H17Y 1991   1.746   3.761   9.402  0.4459 -1.9357  0.2606
   15SAPS  C318 1992   1.946   3.852   9.421  0.4302  0.0669  0.0467
   15SAPS  H18X 1993   2.028   3.860   9.347  1.3399  0.2429  1.0428
   15SAPS  H18Y 1994   1.983   3.790   9.505  0.5749 -1.0635 -0.8328
   15SAPS  H18Z 1995   1.905   3.950   9.456 -2.5025 -0.1318 -2.4127
   16SAPS     N 1996   0.509   3.353  12.151 -0.2338  0.0398 -0.3338
   16SAPS   HN1 1997   0.415   3.353  12.107 -0.1138  0.7755 -0.6079
   16SAPS   HN2 1998   0.511   3.298  12.239  0.8671 -2.3349 -1.7501
   16SAPS   HN3 1999   0.546   3.450  12.158 -1.3288  0.4972 -0.6843
   16SAPS   C12 2000   0.601   3.275  12.059  0.1922 -0.2986 -0.5914
   16SAPS  H12A 2001   0.578   3.170  12.072 -1.3244 -0.0535 -1.1329
   16SAPS   C13 2002   0.573   3.310  11.914  0.4666  0.3286 -0.3459
   16SAPS  O13A 2003   0.459   3.364  11.882 -1.0189  0.3707  0.0966
   16SAPS  O13B 2004   0.650   3.263  11.829  0.0681 -0.2120 -0.1790
   16SAPS   C11 2005   0.745   3.305  12.108 -0.1670 -0.3259 -0.1023
   16SAPS  H11A 2006   0.769   3.414  12.106 -0.6119 -0.2354 -1.2516
   16SAPS  H11B 2007   0.817   3.256  12.040 -0.5386 -1.9257  0.6109
   16SAPS     P 2008   0.841   3.116  12.276  0.0797 -0.1275 -0.1511
   16SAPS   O13 2009   0.955   3.098  12.186  0.1629 -0.2884  0.1874
   16SAPS   O14 2010   0.875   3.100  12.421 -0.5541 -0.0177 -0.6161
   16SAPS   O12 2011   0.766   3.252  12.244  0.5434 -0.2607  0.2837
   16SAPS   O11 2012   0.733   3.006  12.231 -0.1116  0.2387  0.7983
   16SAPS    C1 2013   0.610   2.999  12.314 -0.1324  0.0629  0.0269
   16SAPS    HA 2014   0.603   3.066  12.402  1.8483 -1.3605  1.3460
   16SAPS    HB 2015   0.524   3.016  12.246  1.2814  1.2539 -1.5642
   16SAPS    C2 2016   0.602   2.866  12.379 -0.1964 -0.3650  0.5594
   16SAPS    HS 2017   0.696   2.847  12.436  2.7250  1.6912 -3.1405
   16SAPS   O21 2018   0.568   2.767  12.275  0.7281  0.0975  0.2151
   16SAPS   C21 2019   0.637   2.658  12.274 -0.5878 -0.5160  1.0308
   16SAPS   O22 2020   0.723   2.622  12.349 -0.0006 -0.0903 -0.7394
   16SAPS   C22 2021   0.582   2.584  12.156 -0.1978 -0.0383  0.0792
   16SAPS   H2R 2022   0.472   2.598  12.146 -0.1278 -0.9433 -3.1780
   16SAPS   H2S 2023   0.633   2.629  12.068 -0.6191  2.5376  1.0611
   16SAPS    C3 2024   0.493   2.864  12.488 -0.2430 -0.0005  0.8837
   16SAPS    HX 2025   0.400   2.884  12.431 -0.7030  2.0978  2.2449
   16SAPS    HY 2026   0.486   2.948  12.561 -2.3397  1.3060 -0.7053
   16SAPS   O31 2027   0.485   2.739  12.557  0.3700 -0.2657 -0.0011
   16SAPS   C31 2028   0.546   2.734  12.675  0.2682 -0.5834  0.2745
   16SAPS   O32 2029   0.611   2.821  12.732  0.2861 -0.1162 -0.1219
   16SAPS   C32 2030   0.523   2.600  12.743 -0.3370  0.3454  0.0138
   16SAPS   H2X 2031   0.522   2.523  12.662  1.5485  1.4700 -1.1558
   16SAPS   H2Y 2032   0.425   2.610  12.794 -1.3499 -0.1936 -1.7325
   16SAPS   C23 2033   0.624   2.430  12.158 -0.2714 -0.3003 -0.2922
   16SAPS   H3R 2034   0.562   2.381  12.236 -0.1322  1.6824  1.1308
   16SAPS   H3S 2035   0.729   2.433  12.194 -0.1141  2.3281 -0.7427
   16SAPS   C24 2036   0.616   2.363  12.022  0.5241 -0.1351  0.1383
   16SAPS   H4R 2037   0.518   2.391  11.978  0.1272 -1.1414  0.3577
   16SAPS   H4S 2038   0.605   2.256  12.050 -1.5774 -0.3795 -1.4180
   16SAPS   C25 2039   0.725   2.392  11.929  0.2836  0.3512 -0.4038
   16SAPS   H5R 2040   0.795   2.475  11.946  0.4926  0.0821  0.0404
   16SAPS   C26 2041   0.727   2.336  11.805  0.3824 -0.6892  0.3251
   16SAPS   H6R 2042   0.801   2.380  11.737 -0.0345  0.3888  0.5448
   16SAPS   C27 2043   0.630   2.232  11.761  0.5593 -0.0901 -0.2337
   16SAPS   H7R 2044   0.541   2.235  11.828 -0.1248 -1.1794 -1.0434
   16SAPS   H7S 2045   0.667   2.127  11.756  1.2272  0.1948 -3.2347
   16SAPS   C28 2046   0.596   2.264  11.619 -0.1846 -0.2320 -0.2373
   16SAPS   H8R 2047   0.502   2.321  11.611 -0.1972 -0.2495 -0.2107
   16SAPS   C29 2048   0.654   2.235  11.501  0.0503  0.2512 -0.3044
   16SAPS   H9R 2049   0.599   2.263  11.409  0.6026  0.0186 -0.7118
   16SAPS  C210 2050   0.786   2.156  11.477 -0.2874 -0.2143 -0.4967
   16SAPS  H10R 2051   0.853   2.160  11.566  0.7479 -3.1531 -1.0332
   16SAPS  H10S 2052   0.847   2.206  11.399  1.6781 -1.5678  0.0965
   16SAPS  C211 2053   0.770   2.017  11.450  0.8370 -0.4233  0.1508
   16SAPS  H11R 2054   0.721   1.985  11.357 -1.2228 -1.8091  1.6257
   16SAPS  C212 2055   0.806   1.921  11.540 -0.2601  0.4411 -0.1300
   16SAPS  H12R 2056   0.778   1.816  11.519 -0.1865 -0.2270  2.7015
   16SAPS  C213 2057   0.870   1.918  11.675  0.5087 -0.3510 -0.8627
   16SAPS  H13R 2058   0.811   1.864  11.752  2.9895  0.8963  2.1657
   16SAPS  H13S 2059   0.849   2.014  11.727  1.5028 -1.2592  1.3768
   16SAPS  C214 2060   1.019   1.881  11.678  0.5815  0.7708  0.0481
   16SAPS  H14R 2061   1.092   1.935  11.616  0.6179 -2.8504 -3.4398
   16SAPS  C215 2062   1.075   1.785  11.752 -0.5033 -0.0329  0.1454
   16SAPS  H15R 2063   1.181   1.758  11.737 -0.4860 -0.3633  0.7877
   16SAPS  C216 2064   1.017   1.692  11.850 -0.4257  0.3224  0.8986
   16SAPS  H16R 2065   0.907   1.697  11.845 -0.3316  4.1831 -2.8222
   16SAPS  H16S 2066   1.054   1.699  11.954  1.4028  0.6307  0.2677
   16SAPS  C217 2067   1.029   1.543  11.812 -0.3245 -0.6885 -0.2178
   16SAPS  H17R 2068   1.135   1.531  11.781 -0.7283  2.4589 -3.4064
   16SAPS  H17S 2069   0.955   1.531  11.730  0.3273 -0.2272 -0.8700
   16SAPS  C218 2070   0.973   1.433  11.912 -0.1859 -0.1443  0.2172
   16SAPS  H18R 2071   0.872   1.452  11.957  0.7928 -1.5209  3.2629
   16SAPS  H18S 2072   1.039   1.416  12.000 -1.2331 -1.8829  0.7157
   16SAPS  C219 2073   0.960   1.297  11.835 -0.0049  0.1426 -0.0662
   16SAPS  H19R 2074   1.044   1.284  11.764 -0.7009 -2.8354 -0.4690
   16SAPS  H19S 2075   0.872   1.300  11.767 -0.6449 -1.1219  0.6604
   16SAPS  C220 2076   0.942   1.183  11.934 -0.0763 -0.1365 -0.3027
   16SAPS  H20R 2077   0.947   1.084  11.883  1.0790 -1.2166  1.7752
   16SAPS  H20S 2078   0.845   1.202  11.985  0.8381  0.2297  1.3589
   16SAPS  H20T 2079   1.026   1.181  12.007  0.2632 -0.3582 -0.6955
   16SAPS   C33 2080   0.624   2.555  12.856 -0.6507 -0.1923 -0.3667
   16SAPS   H3X 2081   0.657   2.639  12.921 -1.3764  0.5007 -0.8667
   16SAPS   H3Y 2082   0.721   2.522  12.813 -0.5705 -0.8208  0.2630
   16SAPS   C34 2083   0.561   2.438  12.935 -0.4437 -0.4036  0.0328
   16SAPS   H4X 2084   0.528   2.353  12.871 -1.4230 -0.8679  1.1036
   16SAPS   H4Y 2085   0.465   2.474  12.979  0.3038 -0.1259  1.5059
   16SAPS   C35 2086   0.647   2.378  13.038 -0.3658  0.6664 -0.1846
   16SAPS   H5X 2087   0.680   2.456  13.110  1.4375 -1.3942  1.3457
   16SAPS   H5Y 2088   0.741   2.335  12.998 -0.4594 -0.8773  1.1718
   16SAPS   C36 2089   0.574   2.269  13.129  0.5690 -0.1267  0.1580
   16SAPS   H6X 2090   0.643   2.189  13.162 -0.0268 -0.5041  0.5150
   16SAPS   H6Y 2091   0.497   2.225  13.063 -1.8114  3.1419  0.4626
   16SAPS   C37 2092   0.503   2.332  13.257 -0.0483 -0.3766  0.3824
   16SAPS   H7X 2093   0.396   2.328  13.227  0.2067 -0.3391 -0.5743
   16SAPS   H7Y 2094   0.532   2.439  13.264  0.0454 -0.2310 -1.6416
   16SAPS   C38 2095   0.537   2.261  13.388  0.3811 -0.2021  0.1395
   16SAPS   H8X 2096   0.647   2.267  13.406  0.4167  1.5708 -0.4884
   16SAPS   H8Y 2097   0.512   2.155  13.366  0.4646  0.1491 -1.7956
   16SAPS   C39 2098   0.454   2.315  13.505  0.0625  1.3579 -0.1978
   16SAPS   H9X 2099   0.344   2.316  13.488 -0.4841  2.6190  2.7912
   16SAPS   H9Y 2100   0.486   2.418  13.532  1.6791  0.7196  0.4345
   16SAPS  C310 2101   0.465   2.229  13.633 -0.2927 -0.1493 -0.1727
   16SAPS  H10X 2102   0.401   2.277  13.710 -0.7946 -0.8819 -0.1166
   16SAPS  H10Y 2103   0.571   2.227  13.668  0.5170 -2.2404 -2.4130
   16SAPS  C311 2104   0.420   2.083  13.613 -0.1680  0.0528  0.0410
   16SAPS  H11X 2105   0.481   2.026  13.541 -0.3300  0.9511 -0.8291
   16SAPS  H11Y 2106   0.324   2.096  13.558  1.0635  3.2156 -1.6237
   16SAPS  C312 2107   0.381   2.003  13.738  0.1109  0.3039  0.2530
   16SAPS  H12X 2108   0.317   2.063  13.806  0.9530  0.6314  0.7775
   16SAPS  H12Y 2109   0.473   1.978  13.795  1.3472  0.4375 -1.5587
   16SAPS  C313 2110   0.300   1.876  13.708  0.1277  0.2237  0.3065
   16SAPS  H13X 2111   0.220   1.884  13.632 -1.1831 -1.5310  1.4280
   16SAPS  H13Y 2112   0.266   1.837  13.806 -1.0373  3.3908  1.2837
   16SAPS  C314 2113   0.376   1.760  13.635 -0.2420  0.3583 -0.4919
   16SAPS  H14X 2114   0.466   1.739  13.696 -1.3128 -0.8178  0.7639
   16SAPS  H14Y 2115   0.417   1.796  13.538 -2.6546  0.5188 -1.5233
   16SAPS  C315 2116   0.297   1.622  13.600 -0.5658 -0.0933 -0.5573
   16SAPS  H15X 2117   0.352   1.563  13.524 -2.4983 -2.9010  0.0535
   16SAPS  H15Y 2118   0.199   1.656  13.558 -0.2386 -0.6334 -1.7794
   16SAPS  C316 2119   0.271   1.532  13.723 -0.2081 -0.0420 -0.1743
   16SAPS  H16X 2120   0.209   1.442  13.702 -1.1412  0.1567  1.5344
   16SAPS  H16Y 2121   0.203   1.584  13.795 -0.4636 -0.8983  0.2255
   16SAPS  C317 2122   0.400   1.503  13.796 -0.0719 -0.5384  1.0145
   16SAPS  H17X 2123   0.442   1.600  13.832 -0.3530  0.2864 -0.7487
   16SAPS  H17Y 2124   0.470   1.478  13.713  1.8399  2.5703  1.5158
   16SAPS  C318 2125   0.389   1.415  13.918 -0.0994  0.6515  0.0134
   16SAPS  H18X 2126   0.302   1.349  13.899 -0.2236  0.5866  0.7723
   16SAPS  H18Y 2127   0.375   1.481  14.007  1.9062  0.8056  0.2527
   16SAPS  H18Z 2128   0.480   1.354  13.933  0.6275  1.4351 -1.0164
   17SAPS     N 2129   3.408   0.172   6.928 -0.2108  0.3548  0.6680
   17SAPS   HN1 2130   3.481   0.109   6.888 -1.4320 -1.0906  0.6016
   17SAPS   HN2 2131   3.448   0.242   6.994  0.2011  0.2011  0.5863
   17SAPS   HN3 2132   3.341   0.107   6.974  0.1956 -0.3913  0.2396
   17SAPS   C12 2133   3.345   0.232   6.806 -0.2238  0.3621  0.3866
   17SAPS  H12A 2134   3.372   0.336   6.812 -1.6793  0.7941 -0.1204
   17SAPS   C13 2135   3.396   0.162   6.675  0.6176 -0.4623 -0.3993
   17SAPS  O13A 2136   3.470   0.062   6.679  0.7977  0.2095 -0.5177
   17SAPS  O13B 2137   3.371   0.232   6.568 -0.3776  0.1403  0.3008
   17SAPS   C11 2138   3.192   0.220   6.809  0.6972  0.1138 -0.3388
   17SAPS  H11A 2139   3.156   0.122   6.770 -0.0805  0.2432  0.0244
   17SAPS  H11B 2140   3.145   0.287   6.734 -1.9145  0.3103  1.3192
   17SAPS     P 2141   2.993   0.269   6.970  0.1470 -0.0601  0.1948
   17SAPS   O13 2142   2.976   0.414   6.974  0.1750 -0.4660 -0.2055
   17SAPS   O14 2143   2.918   0.191   6.869  0.1077 -0.6454 -0.8049
   17SAPS   O12 2144   3.146   0.239   6.935 -0.2843  0.2780  0.0342
   17SAPS   O11 2145   2.972   0.219   7.121 -0.0172 -0.0379  0.6357
   17SAPS    C1 2146   3.003   0.093   7.165  0.5883 -0.7316 -0.2489
   17SAPS    HA 2147   2.919   0.023   7.145 -1.7183  1.7181  0.2943
   17SAPS    HB 2148   3.087   0.048   7.109  0.6774 -0.5652 -0.2496
   17SAPS    C2 2149   3.028   0.096   7.321  0.2009  0.2311  0.4916
   17SAPS    HS 2150   3.041  -0.011   7.349 -0.5881  0.1272  0.4942
   17SAPS   O21 2151   2.920   0.153   7.391  0.7044  1.0753  0.2453
   17SAPS   C21 2152   2.808   0.094   7.382 -0.1179  0.2190 -0.7372
   17SAPS   O22 2153   2.783  -0.016   7.330 -0.0451  0.0513 -0.0397
   17SAPS   C22 2154   2.713   0.166   7.472  0.5255  0.1706 -0.0526
   17SAPS   H2R 2155   2.756   0.267   7.494  3.0051 -0.6958 -0.5803
   17SAPS   H2S 2156   2.613   0.167   7.425  0.8808  0.0146 -0.8259
   17SAPS    C3 2157   3.161   0.166   7.354 -0.3640  0.4486 -0.4824
   17SAPS    HX 2158   3.166   0.265   7.304 -1.6253  0.5819 -0.3675
   17SAPS    HY 2159   3.237   0.098   7.311  0.8359  1.3113  0.1978
   17SAPS   O31 2160   3.190   0.177   7.494 -0.4913 -0.0398 -0.1816
   17SAPS   C31 2161   3.148   0.275   7.565  0.6620  0.2443  0.5291
   17SAPS   O32 2162   3.110   0.385   7.516  0.1955  0.2754 -0.4287
   17SAPS   C32 2163   3.129   0.233   7.716 -0.5162  0.1358 -0.9527
   17SAPS   H2X 2164   3.170   0.132   7.735  0.1481  0.3882 -1.0422
   17SAPS   H2Y 2165   3.018   0.225   7.726 -0.3691  0.7397  2.2086
   17SAPS   C23 2166   2.701   0.101   7.613  0.0997 -0.2144  0.3171
   17SAPS   H3R 2167   2.808   0.092   7.639  0.3492 -0.8442 -0.8424
   17SAPS   H3S 2168   2.665  -0.004   7.607  2.2355 -0.9857  0.1108
   17SAPS   C24 2169   2.619   0.169   7.720 -0.0130  0.0230  0.7377
   17SAPS   H4R 2170   2.512   0.168   7.688 -0.3466  1.6740  1.6994
   17SAPS   H4S 2171   2.657   0.273   7.718  0.5398 -0.1814  0.4287
   17SAPS   C25 2172   2.662   0.097   7.851  0.4062  0.4979 -0.6249
   17SAPS   H5R 2173   2.767   0.064   7.850  1.5955  3.8498 -1.9270
   17SAPS   C26 2174   2.578   0.071   7.953  0.0016 -0.3376  0.1494
   17SAPS   H6R 2175   2.625   0.027   8.042 -0.4189  3.3085  2.3979
   17SAPS   C27 2176   2.430   0.101   7.961  0.1810  0.2623  0.7885
   17SAPS   H7R 2177   2.396   0.137   7.861 -1.0279 -2.9667 -0.0849
   17SAPS   H7S 2178   2.416   0.193   8.021  0.4529  2.7208 -2.6357
   17SAPS   C28 2179   2.341  -0.015   7.980  0.3803 -0.5159 -0.1651
   17SAPS   H8R 2180   2.342  -0.078   7.889  0.7518 -2.9973  1.4602
   17SAPS   C29 2181   2.275  -0.053   8.088 -0.6083 -0.1445  0.2290
   17SAPS   H9R 2182   2.223  -0.150   8.093  1.1208 -1.1510 -0.6280
   17SAPS  C210 2183   2.262   0.021   8.221  0.0860 -0.6370  0.8551
   17SAPS  H10R 2184   2.328   0.111   8.220  1.8088 -1.7538 -2.5560
   17SAPS  H10S 2185   2.300  -0.050   8.298 -1.0156 -1.4128  0.7005
   17SAPS  C211 2186   2.114   0.043   8.248 -0.5704 -0.7333 -0.9677
   17SAPS  H11R 2187   2.055   0.054   8.156 -0.3316  2.7613 -0.8516
   17SAPS  C212 2188   2.055   0.067   8.370 -0.8988  0.6434  0.0211
   17SAPS  H12R 2189   1.948   0.088   8.384 -1.2013  0.1366 -1.3859
   17SAPS  C213 2190   2.119   0.059   8.510  0.2216  0.1776  0.2594
   17SAPS  H13R 2191   2.074   0.129   8.584 -0.3157  1.2446 -1.0450
   17SAPS  H13S 2192   2.225   0.088   8.495 -0.3754  0.8515 -3.8101
   17SAPS  C214 2193   2.097  -0.081   8.560  0.3556  0.1092  0.7270
   17SAPS  H14R 2194   2.108  -0.162   8.487  3.3623 -1.2227  2.4692
   17SAPS  C215 2195   2.064  -0.118   8.685  0.6976 -0.0766 -0.4205
   17SAPS  H15R 2196   2.057  -0.223   8.718 -0.1631  0.1359  0.1167
   17SAPS  C216 2197   2.028  -0.020   8.796  0.6511  0.3976 -0.3082
   17SAPS  H16R 2198   1.922   0.008   8.777  0.1127 -0.8905  0.6506
   17SAPS  H16S 2199   2.086   0.074   8.782 -0.1346  0.7590 -1.2860
   17SAPS  C217 2200   2.031  -0.081   8.941 -0.0982 -0.2647  0.6194
   17SAPS  H17R 2201   1.937  -0.141   8.945  0.0530 -0.4855  0.8432
   17SAPS  H17S 2202   2.024   0.005   9.012 -1.8305 -0.1472  0.3565
   17SAPS  C218 2203   2.153  -0.166   8.972 -0.6166 -0.7011 -0.0687
   17SAPS  H18R 2204   2.242  -0.122   8.921 -1.8066  0.6654 -1.0578
   17SAPS  H18S 2205   2.144  -0.275   8.958  0.4431 -0.7063 -0.9298
   17SAPS  C219 2206   2.195  -0.150   9.120  0.5597  0.3410 -0.8948
   17SAPS  H19R 2207   2.243  -0.052   9.142  0.1999  0.7665 -1.9401
   17SAPS  H19S 2208   2.258  -0.237   9.148 -1.0967 -0.5688  0.0695
   17SAPS  C220 2209   2.078  -0.156   9.225  0.2928  0.3258 -1.7969
   17SAPS  H20R 2210   2.001  -0.076   9.223 -1.0413 -0.7457  1.1405
   17SAPS  H20S 2211   2.109  -0.164   9.332 -0.7600 -1.6819 -1.5882
   17SAPS  H20T 2212   2.009  -0.242   9.214 -0.5009  0.5772  0.5578
   17SAPS   C33 2213   3.191   0.338   7.806  0.1351  0.6137 -0.2774
   17SAPS   H3X 2214   3.147   0.437   7.779 -2.6260 -0.8303 -1.5110
   17SAPS   H3Y 2215   3.298   0.339   7.778  0.5542 -1.6855  1.0322
   17SAPS   C34 2216   3.167   0.304   7.949  0.1497  0.4629 -0.1477
   17SAPS   H4X 2217   3.180   0.394   8.013 -0.1504 -0.2093  0.8874
   17SAPS   H4Y 2218   3.236   0.222   7.978  0.4729  0.8304  0.1298
   17SAPS   C35 2219   3.028   0.240   7.976 -0.4787 -0.3570  0.0527
   17SAPS   H5X 2220   3.017   0.141   7.926  2.3116 -0.3872 -0.6139
   17SAPS   H5Y 2221   2.944   0.308   7.951 -1.2859 -1.6684 -0.9293
   17SAPS   C36 2222   3.019   0.203   8.131  0.6751  0.1140  0.1202
   17SAPS   H6X 2223   3.036   0.297   8.188  1.1937 -0.3340  0.7175
   17SAPS   H6Y 2224   3.107   0.137   8.149  1.3586 -0.2796 -3.6588
   17SAPS   C37 2225   2.889   0.137   8.184  0.0426  0.6123 -0.1445
   17SAPS   H7X 2226   2.854   0.073   8.100  0.9624 -0.1463  0.0209
   17SAPS   H7Y 2227   2.821   0.222   8.204  0.2594  0.3604  1.8802
   17SAPS   C38 2228   2.907   0.057   8.322  0.0092  0.0650 -0.3929
   17SAPS   H8X 2229   2.953   0.120   8.402 -0.0571  1.1115 -1.1514
   17SAPS   H8Y 2230   2.974  -0.030   8.305 -1.0734 -0.6488 -1.0948
   17SAPS   C39 2231   2.784  -0.012   8.370 -0.4255 -0.3327 -0.0255
   17SAPS   H9X 2232   2.813  -0.114   8.403  0.1505 -0.8271 -1.9561
   17SAPS   H9Y 2233   2.714  -0.031   8.286  0.1296  0.6967 -0.7355
   17SAPS  C310 2234   2.690   0.074   8.463 -0.3533 -0.5298  0.1754
   17SAPS  H10X 2235   2.671   0.166   8.403  2.4850 -1.2947 -2.0829
   17SAPS  H10Y 2236   2.738   0.105   8.559 -3.1887 -0.7597  1.8039
   17SAPS  C311 2237   2.553   0.027   8.493  0.5205  0.2704  0.1404
   17SAPS  H11X 2238   2.528  -0.035   8.404  1.6190  1.8043 -1.3185
   17SAPS  H11Y 2239   2.475   0.106   8.495  0.6698  0.5016 -1.6461
   17SAPS  C312 2240   2.541  -0.060   8.623  0.4871 -0.1803  0.2889
   17SAPS  H12X 2241   2.613  -0.145   8.617 -1.2583 -1.8702  1.8622
   17SAPS  H12Y 2242   2.441  -0.108   8.615  0.9202 -1.4364  1.7687
   17SAPS  C313 2243   2.532   0.003   8.765 -0.5476 -0.7288 -0.6579
   17SAPS  H13X 2244   2.626   0.056   8.790 -0.5162  0.0424 -2.2390
   17SAPS  H13Y 2245   2.526  -0.069   8.849  2.6072  0.0990  0.3970
   17SAPS  C314 2246   2.409   0.097   8.786  0.5548  0.1451  0.8735
   17SAPS  H14X 2247   2.319   0.038   8.760  1.4800 -0.7707 -0.3827
   17SAPS  H14Y 2248   2.427   0.180   8.714  0.3280 -1.5332 -1.2332
   17SAPS  C315 2249   2.417   0.155   8.928 -0.0422  0.4957  0.0796
   17SAPS  H15X 2250   2.510   0.215   8.921 -0.0625  0.6128  0.8049
   17SAPS  H15Y 2251   2.425   0.068   8.996  1.4701 -0.8906 -1.7445
   17SAPS  C316 2252   2.302   0.244   8.954 -0.1895  0.0627 -0.2699
   17SAPS  H16X 2253   2.209   0.189   8.979  0.0051 -2.8105 -4.6709
   17SAPS  H16Y 2254   2.283   0.295   8.857  1.5571 -2.7871 -2.2794
   17SAPS  C317 2255   2.344   0.333   9.069  0.0251 -0.2847  0.5332
   17SAPS  H17X 2256   2.454   0.319   9.078  0.0450 -1.2292 -0.8731
   17SAPS  H17Y 2257   2.297   0.294   9.162  0.4087  0.4612  1.0529
   17SAPS  C318 2258   2.294   0.476   9.036 -0.5563  0.7794 -0.3061
   17SAPS  H18X 2259   2.184   0.489   9.029 -0.4805  1.4013 -0.4372
   17SAPS  H18Y 2260   2.333   0.511   8.938  1.6546  1.1482  0.6380
   17SAPS  H18Z 2261   2.334   0.544   9.114  2.9798 -0.6246 -0.6750
   18SAPS     N 2262   0.481   0.076  11.834  0.0808 -0.2516 -0.0626
   18SAPS   HN1 2263   0.488  -0.026  11.852  0.6887 -0.4152 -1.1336
   18SAPS   HN2 2264   0.404   0.122  11.886 -0.1977  0.5335 -1.1349
   18SAPS   HN3 2265   0.470   0.096  11.732  3.2477 -0.1477 -0.4923
   18SAPS   C12 2266   0.608   0.139  11.869 -0.5028 -0.0024  0.5948
   18SAPS  H12A 2267   0.591   0.245  11.857  1.6544  0.1418 -2.3144
   18SAPS   C13 2268   0.671   0.109  12.012  0.2426 -0.9762  0.3450
   18SAPS  O13A 2269   0.592   0.054  12.093 -0.2980  0.5884 -0.0061
   18SAPS  O13B 2270   0.777   0.169  12.051 -0.3168  0.3032 -0.0640
   18SAPS   C11 2271   0.708   0.090  11.754 -0.2640 -0.3394 -0.3335
   18SAPS  H11A 2272   0.699  -0.016  11.722  1.7154 -0.2629 -1.2886
   18SAPS  H11B 2273   0.809   0.086  11.800  0.6756 -1.0504 -2.3389
   18SAPS     P 2274   0.584   0.194  11.540  0.0273  0.1792 -0.3341
   18SAPS   O13 2275   0.630   0.192  11.402 -0.1095  0.0951 -0.2959
   18SAPS   O14 2276   0.477   0.097  11.566 -0.6853  0.2971  0.0419
   18SAPS   O12 2277   0.703   0.176  11.635 -0.1328  0.8364 -0.7030
   18SAPS   O11 2278   0.529   0.339  11.564 -0.7356 -0.1940 -0.0518
   18SAPS    C1 2279   0.605   0.457  11.536  0.4295 -0.4610  0.3261
   18SAPS    HA 2280   0.667   0.477  11.625 -0.7615 -1.1324  1.3301
   18SAPS    HB 2281   0.667   0.448  11.444  0.7109 -1.5180  0.6074
   18SAPS    C2 2282   0.519   0.581  11.522 -0.6457 -0.9501 -0.2017
   18SAPS    HS 2283   0.582   0.673  11.525 -0.1355 -1.3140  0.6287
   18SAPS   O21 2284   0.412   0.580  11.619  0.6868 -0.0374 -0.4049
   18SAPS   C21 2285   0.440   0.646  11.733 -0.2796 -0.3213 -0.3702
   18SAPS   O22 2286   0.549   0.684  11.769 -0.5495 -0.1820 -0.2703
   18SAPS   C22 2287   0.309   0.653  11.823 -0.8253  0.0369  0.1382
   18SAPS   H2R 2288   0.241   0.718  11.764 -0.1726  0.3478 -0.2822
   18SAPS   H2S 2289   0.270   0.550  11.835 -1.0865 -0.3696 -3.2826
   18SAPS    C3 2290   0.448   0.586  11.391  0.9483  0.8435  0.3034
   18SAPS    HX 2291   0.363   0.657  11.379 -1.1308 -1.5151  0.2909
   18SAPS    HY 2292   0.391   0.491  11.385  0.0751  1.4316 -3.4440
   18SAPS   O31 2293   0.535   0.604  11.274 -0.3981  0.3088 -0.1323
   18SAPS   C31 2294   0.462   0.621  11.163 -0.4064  0.4739  0.1919
   18SAPS   O32 2295   0.341   0.625  11.157  0.1420 -0.0683  0.1530
   18SAPS   C32 2296   0.554   0.636  11.040  0.3249  0.2605  0.0917
   18SAPS   H2X 2297   0.661   0.638  11.073 -0.1345  2.4647  1.6400
   18SAPS   H2Y 2298   0.527   0.737  11.005  3.2724  1.3883  0.7434
   18SAPS   C23 2299   0.346   0.710  11.964 -0.1113 -0.3319  0.0185
   18SAPS   H3R 2300   0.420   0.638  12.004 -2.2936 -1.8530  1.5228
   18SAPS   H3S 2301   0.255   0.695  12.025  0.8530 -0.7882  1.3771
   18SAPS   C24 2302   0.397   0.857  11.977  0.5484  0.6614 -0.1227
   18SAPS   H4R 2303   0.495   0.867  11.926 -0.2792  1.4690 -1.6009
   18SAPS   H4S 2304   0.409   0.875  12.086  0.6252  1.9034 -0.3222
   18SAPS   C25 2305   0.300   0.958  11.920  0.2108 -0.0628  0.1181
   18SAPS   H5R 2306   0.287   0.955  11.811 -1.2893  2.0379  0.1790
   18SAPS   C26 2307   0.234   1.062  11.983 -0.3914  0.1047  0.0786
   18SAPS   H6R 2308   0.177   1.127  11.915 -0.6410 -2.0860 -1.9285
   18SAPS   C27 2309   0.231   1.110  12.122  0.9578  0.6620 -0.6015
   18SAPS   H7R 2310   0.314   1.067  12.183  1.0968 -0.2792 -1.4286
   18SAPS   H7S 2311   0.135   1.064  12.157  1.5362  0.3143  0.5751
   18SAPS   C28 2312   0.229   1.260  12.138 -0.7713  0.5205 -0.2836
   18SAPS   H8R 2313   0.130   1.297  12.167 -1.1510 -1.7964  1.7399
   18SAPS   C29 2314   0.340   1.333  12.148  0.1231 -0.0444 -0.1974
   18SAPS   H9R 2315   0.318   1.440  12.160 -1.1366 -0.2788 -0.3152
   18SAPS  C210 2316   0.482   1.289  12.139 -0.7029 -0.2164  0.4602
   18SAPS  H10R 2317   0.487   1.210  12.060  0.4601 -0.8540  1.1260
   18SAPS  H10S 2318   0.520   1.253  12.238 -0.5329  0.9283  0.8180
   18SAPS  C211 2319   0.583   1.395  12.113  0.1908 -0.1637  0.2985
   18SAPS  H11R 2320   0.658   1.419  12.190 -1.1443 -0.7048  1.8177
   18SAPS  C212 2321   0.601   1.465  11.995  0.2913  0.6219  0.0850
   18SAPS  H12R 2322   0.669   1.551  11.999  0.1464  1.0109 -2.9845
   18SAPS  C213 2323   0.513   1.444  11.870 -0.0793 -0.3513 -0.9418
   18SAPS  H13R 2324   0.409   1.423  11.901  0.5544 -0.3892  1.3611
   18SAPS  H13S 2325   0.559   1.361  11.811 -0.6994  0.0549 -2.0282
   18SAPS  C214 2326   0.518   1.566  11.786 -0.7620 -0.0307  0.1124
   18SAPS  H14R 2327   0.455   1.647  11.826  0.1312  0.3522  0.7818
   18SAPS  C215 2328   0.605   1.602  11.679  0.7206  0.3663 -1.4536
   18SAPS  H15R 2329   0.577   1.703  11.643 -3.0076  1.2276  2.9899
   18SAPS  C216 2330   0.705   1.512  11.608 -1.0289 -0.1112 -0.3199
   18SAPS  H16R 2331   0.760   1.448  11.680 -0.1700 -0.4973 -1.2965
   18SAPS  H16S 2332   0.788   1.566  11.557 -0.3073  0.6813  1.6002
   18SAPS  C217 2333   0.648   1.410  11.504  0.3279 -0.2405  0.1224
   18SAPS  H17R 2334   0.568   1.352  11.555 -0.1424  1.6352  1.6362
   18SAPS  H17S 2335   0.728   1.339  11.476  1.6078  0.8149  1.0107
   18SAPS  C218 2336   0.588   1.487  11.387 -0.4426  0.1266 -0.7320
   18SAPS  H18R 2337   0.660   1.525  11.311 -1.3415 -2.9759 -3.3451
   18SAPS  H18S 2338   0.546   1.583  11.424 -1.2532 -1.0657  1.6300
   18SAPS  C219 2339   0.473   1.412  11.311  0.3167 -0.2601  0.0688
   18SAPS  H19R 2340   0.506   1.307  11.298 -0.2369 -0.2375 -1.6671
   18SAPS  H19S 2341   0.459   1.455  11.210 -2.4959  0.9332  0.8501
   18SAPS  C220 2342   0.336   1.438  11.366  0.1575 -0.3427 -0.2362
   18SAPS  H20R 2343   0.284   1.535  11.347  0.6970 -0.5456 -3.2274
   18SAPS  H20S 2344   0.325   1.414  11.474 -0.8027  1.0195  0.0092
   18SAPS  H20T 2345   0.273   1.357  11.324 -0.5123 -0.2832  0.6124
   18SAPS   C33 2346   0.525   0.520  10.944 -0.5259  0.4431  0.3258
   18SAPS   H3X 2347   0.514   0.428  11.006  0.1956  1.0641  1.4036
   18SAPS   H3Y 2348   0.600   0.499  10.866 -0.7933  0.0228  0.1755
   18SAPS   C34 2349   0.391   0.544  10.868  0.2782  0.1716 -0.2186
   18SAPS   H4X 2350   0.300   0.549  10.932  0.3915 -0.0250 -0.0404
   18SAPS   H4Y 2351   0.365   0.466  10.793 -0.6317 -0.4238  0.6811
   18SAPS   C35 2352   0.373   0.678  10.790 -0.1818 -0.1705 -0.1676
   18SAPS   H5X 2353   0.407   0.758  10.860 -1.2939 -0.5352  0.8163
   18SAPS   H5Y 2354   0.269   0.704  10.758 -0.4892 -0.9511  0.1860
   18SAPS   C36 2355   0.456   0.688  10.663 -0.5112 -0.1291  0.4943
   18SAPS   H6X 2356   0.421   0.615  10.587  0.3244 -1.6995  1.5817
   18SAPS   H6Y 2357   0.559   0.671  10.700  0.1854  1.5282 -0.5543
   18SAPS   C37 2358   0.469   0.827  10.610  0.1861  0.0588 -0.3746
   18SAPS   H7X 2359   0.457   0.901  10.692  1.0861 -0.3979  0.1815
   18SAPS   H7Y 2360   0.389   0.858  10.539  1.0159  0.4933 -1.1444
   18SAPS   C38 2361   0.593   0.850  10.515 -0.4462  0.0669  0.4474
   18SAPS   H8X 2362   0.593   0.770  10.438 -0.7133 -1.4799  2.0022
   18SAPS   H8Y 2363   0.684   0.815  10.569 -0.9280 -3.2675 -0.6865
   18SAPS   C39 2364   0.603   0.986  10.439 -0.0461 -0.9440 -0.4390
   18SAPS   H9X 2365   0.621   1.071  10.508  0.7234 -0.4910 -1.1878
   18SAPS   H9Y 2366   0.498   0.987  10.401  0.3617 -4.1399 -2.0663
   18SAPS  C310 2367   0.714   0.990  10.341 -0.2664 -0.1372 -0.3225
   18SAPS  H10X 2368   0.682   0.924  10.257 -0.0085  1.0672 -1.3985
   18SAPS  H10Y 2369   0.810   0.959  10.388  0.1431  1.1575 -0.2840
   18SAPS  C311 2370   0.727   1.126  10.275  0.0234 -0.0056  0.2136
   18SAPS  H11X 2371   0.759   1.201  10.350  0.8011 -0.8748  0.7887
   18SAPS  H11Y 2372   0.623   1.133  10.238 -0.2312 -0.7574  0.7628
   18SAPS  C312 2373   0.838   1.112  10.165  0.0199 -0.0784  0.2116
   18SAPS  H12X 2374   0.830   1.010  10.122 -3.3636  0.1532  0.0500
   18SAPS  H12Y 2375   0.934   1.135  10.216 -0.9976 -0.0380  2.2271
   18SAPS  C313 2376   0.823   1.212  10.041  0.7096  2.0200  0.2291
   18SAPS  H13X 2377   0.827   1.313  10.087  0.5571  2.7395 -1.2702
   18SAPS  H13Y 2378   0.719   1.200  10.005  0.5958 -0.2307  1.1432
   18SAPS  C314 2379   0.926   1.187   9.925  0.2778 -0.6271  0.4490
   18SAPS  H14X 2380   1.027   1.184   9.973  0.7829 -0.2677 -0.5538
   18SAPS  H14Y 2381   0.929   1.274   9.856 -0.4376 -0.7860  0.2173
   18SAPS  C315 2382   0.901   1.053   9.852  0.0264  0.4356  0.4246
   18SAPS  H15X 2383   0.796   1.054   9.818  0.0762 -0.4282  0.2359
   18SAPS  H15Y 2384   0.916   0.967   9.921  0.9159 -0.1338 -0.4525
   18SAPS  C316 2385   0.996   1.019   9.739 -0.0829  0.2092  0.1868
   18SAPS  H16X 2386   0.957   0.924   9.696 -0.4054  1.7704 -3.3007
   18SAPS  H16Y 2387   1.098   0.998   9.777  0.0919 -1.2838 -0.9812
   18SAPS  C317 2388   1.018   1.128   9.629  0.6602 -0.2362  0.3515
   18SAPS  H17X 2389   1.089   1.086   9.555  1.0374  3.1020 -1.3650
   18SAPS  H17Y 2390   1.071   1.220   9.662  0.0279  1.2778 -2.5648
   18SAPS  C318 2391   0.889   1.168   9.553  0.7398 -0.0080 -0.0886
   18SAPS  H18X 2392   0.813   1.203   9.627  0.5209 -0.3701 -0.1375
   18SAPS  H18Y 2393   0.833   1.077   9.525  0.0038  0.3959  0.0228
   18SAPS  H18Z 2394   0.905   1.237   9.468 -0.2305 -0.8851 -1.0111
   19SAPS     N 2395   0.892   3.239  13.666  0.9189  0.1523 -0.7011
   19SAPS   HN1 2396   0.937   3.197  13.749 -1.0474 -1.6758 -0.4737
   19SAPS   HN2 2397   0.791   3.264  13.673  0.4212 -1.9451  0.2101
   19SAPS   HN3 2398   0.893   3.161  13.597  2.4116 -0.0146 -0.5205
   19SAPS   C12 2399   0.967   3.369  13.631 -0.2341  0.1157 -0.0563
   19SAPS  H12A 2400   1.072   3.344  13.630 -0.3516 -0.7528  2.1984
   19SAPS   C13 2401   0.919   3.439  13.500  0.3930  0.3265 -0.5953
   19SAPS  O13A 2402   0.830   3.377  13.433  0.1823  0.5505 -0.5004
   19SAPS  O13B 2403   0.993   3.526  13.454 -0.3722 -1.1092 -0.0669
   19SAPS   C11 2404   0.958   3.473  13.750 -0.3829 -0.2717 -0.0469
   19SAPS  H11A 2405   0.854   3.512  13.752 -0.0339  0.7366 -0.7994
   19SAPS  H11B 2406   1.030   3.549  13.712 -1.2477  0.5090 -0.1548
   19SAPS     P 2407   0.889   3.407  13.995 -0.0929 -0.0714  0.2260
   19SAPS   O13 2408   0.789   3.305  13.950 -0.1739  0.1774  0.2015
   19SAPS   O14 2409   0.965   3.387  14.119 -0.3322 -0.4510 -0.1065
   19SAPS   O12 2410   1.000   3.428  13.881 -0.2591 -0.2253  0.0895
   19SAPS   O11 2411   0.825   3.550  13.990  0.2192  0.3872  0.8546
   19SAPS    C1 2412   0.680   3.557  13.994 -0.0244  0.7141  0.7123
   19SAPS    HA 2413   0.638   3.487  13.919  0.7386  0.8658  0.1336
   19SAPS    HB 2414   0.631   3.511  14.083  1.4497  0.3074  1.3399
   19SAPS    C2 2415   0.644   3.709  13.969  0.6192  0.0234  0.0425
   19SAPS    HS 2416   0.692   3.742  13.875  0.3259  2.3832  0.6737
   19SAPS   O21 2417   0.678   3.789  14.086  0.2337 -0.0922 -0.7569
   19SAPS   C21 2418   0.720   3.914  14.069 -0.1079  0.1213  0.0121
   19SAPS   O22 2419   0.747   3.970  13.963 -0.1915 -0.3412  0.7813
   19SAPS   C22 2420   0.712   3.979  14.210  0.0629 -0.1813  0.4167
   19SAPS   H2R 2421   0.606   4.006  14.226  0.4441  2.3488 -0.9172
   19SAPS   H2S 2422   0.756   3.903  14.279  1.3349 -1.0733 -1.3003
   19SAPS    C3 2423   0.492   3.723  13.947  0.2832  0.6274  0.1885
   19SAPS    HX 2424   0.439   3.719  14.045 -0.8473  1.0146 -0.3902
   19SAPS    HY 2425   0.450   3.642  13.884  0.1971  0.3045  0.6592
   19SAPS   O31 2426   0.452   3.850  13.892 -0.4587  0.2745  0.4020
   19SAPS   C31 2427   0.463   3.851  13.757 -0.5092  0.0620  0.4904
   19SAPS   O32 2428   0.499   3.759  13.686 -0.6210 -0.4251 -0.1661
   19SAPS   C32 2429   0.436   3.997  13.705  0.4085  0.3760 -0.6774
   19SAPS   H2X 2430   0.486   4.057  13.785  2.1705 -1.5396 -0.2522
   19SAPS   H2Y 2431   0.326   4.008  13.705  0.2298 -1.1031 -1.8890
   19SAPS   C23 2432   0.781   4.117  14.233 -0.1938  0.6846  0.3091
   19SAPS   H3R 2433   0.749   4.183  14.150 -1.8838  1.1947  1.3157
   19SAPS   H3S 2434   0.890   4.095  14.230 -0.5241 -1.0768 -0.8011
   19SAPS   C24 2435   0.742   4.171  14.373  0.1062 -0.1946  0.0357
   19SAPS   H4R 2436   0.808   4.116  14.444 -0.7569 -1.6875 -0.2637
   19SAPS   H4S 2437   0.641   4.140  14.407 -0.8561  0.4086 -2.1108
   19SAPS   C25 2438   0.761   4.320  14.372 -0.1711  0.2706 -0.5372
   19SAPS   H5R 2439   0.719   4.365  14.282 -0.4363  0.1246 -0.4875
   19SAPS   C26 2440   0.820   4.394  14.463  0.2734  0.0385  0.3795
   19SAPS   H6R 2441   0.836   4.503  14.452 -1.1531  0.2077 -0.3211
   19SAPS   C27 2442   0.882   4.355  14.598 -0.3101 -0.5739 -0.4771
   19SAPS   H7R 2443   0.859   4.249  14.622 -2.7449 -0.4997 -2.1127
   19SAPS   H7S 2444   0.844   4.416  14.683  0.2119 -1.0849  0.1257
   19SAPS   C28 2445   1.033   4.347  14.572  0.3322 -0.3209  0.3870
   19SAPS   H8R 2446   1.047   4.322  14.466 -1.2507  2.4623 -0.5711
   19SAPS   C29 2447   1.136   4.377  14.652  0.1646  0.0113 -0.1707
   19SAPS   H9R 2448   1.234   4.351  14.611 -0.6186  1.3335 -3.2610
   19SAPS  C210 2449   1.120   4.423  14.795  0.2482  0.0242  0.4382
   19SAPS  H10R 2450   1.122   4.332  14.858 -0.3890 -0.2472  0.0815
   19SAPS  H10S 2451   1.024   4.472  14.823 -1.4035 -3.5698  1.7727
   19SAPS  C211 2452   1.243   4.516  14.823  1.1135  0.5870 -0.4827
   19SAPS  H11R 2453   1.341   4.469  14.810  0.1421 -1.6550 -0.2591
   19SAPS  C212 2454   1.233   4.644  14.866 -0.8089 -0.4692  0.4135
   19SAPS  H12R 2455   1.327   4.700  14.883 -0.9258  0.4494 -1.7042
   19SAPS  C213 2456   1.109   4.723  14.887  0.3490 -1.5757 -0.4858
   19SAPS  H13R 2457   1.018   4.660  14.876 -0.3289 -1.4712  3.2422
   19SAPS  H13S 2458   1.093   4.804  14.812  0.5720  1.2588  2.3521
   19SAPS  C214 2459   1.093   4.803  15.018 -0.6054  0.7769 -0.2563
   19SAPS  H14R 2460   1.180   4.789  15.083 -1.5520 -1.4741  0.6276
   19SAPS  C215 2461   0.994   4.888  15.060 -0.2173  0.1767  0.2847
   19SAPS  H15R 2462   1.000   4.924  15.164  0.9618  0.5867  0.0998
   19SAPS  C216 2463   0.877   4.938  14.971 -0.1884 -0.0960 -0.2562
   19SAPS  H16R 2464   0.882   4.901  14.867  2.2094  1.0626 -0.6096
   19SAPS  H16S 2465   0.878   5.048  14.962  0.9675  0.4026  3.9179
   19SAPS  C217 2466   0.751   4.882  15.046 -0.1399  0.1923 -0.1991
   19SAPS  H17R 2467   0.668   4.917  14.981 -0.2802 -2.5106 -1.6626
   19SAPS  H17S 2468   0.737   4.921  15.149  0.7639 -1.4776  0.5959
   19SAPS  C218 2469   0.736   4.732  15.043  0.1489 -0.4252 -0.6020
   19SAPS  H18R 2470   0.809   4.694  15.117  1.3212  2.4679 -0.1489
   19SAPS  H18S 2471   0.744   4.688  14.941 -2.3507  0.0694 -1.0884
   19SAPS  C219 2472   0.586   4.696  15.071 -0.3315  0.3743 -0.1669
   19SAPS  H19R 2473   0.531   4.743  14.987  1.8872  0.1926 -1.8251
   19SAPS  H19S 2474   0.570   4.743  15.170  1.9119 -0.5950  0.7421
   19SAPS  C220 2475   0.559   4.545  15.068  0.2801  0.0309 -0.4419
   19SAPS  H20R 2476   0.566   4.494  14.969 -0.4043  1.9249 -1.5257
   19SAPS  H20S 2477   0.459   4.529  15.114  0.5033  0.3603  0.1571
   19SAPS  H20T 2478   0.629   4.486  15.130  1.5020  1.7870 -0.0939
   19SAPS   C33 2479   0.492   4.033  13.572  0.1595 -0.5881  0.4479
   19SAPS   H3X 2480   0.460   3.962  13.493  2.7578  0.7202 -1.9671
   19SAPS   H3Y 2481   0.602   4.019  13.586  0.3377  0.3939  0.1309
   19SAPS   C34 2482   0.454   4.172  13.511 -0.0667  0.4923 -0.0713
   19SAPS   H4X 2483   0.546   4.214  13.465 -0.7752  1.0179 -1.0504
   19SAPS   H4Y 2484   0.420   4.236  13.595 -1.6925 -0.2921 -0.0951
   19SAPS   C35 2485   0.345   4.162  13.401  0.3563 -0.1970 -0.2294
   19SAPS   H5X 2486   0.260   4.098  13.433  0.5398 -0.3745 -0.0939
   19SAPS   H5Y 2487   0.367   4.113  13.304 -0.2568  2.2423 -1.7007
   19SAPS   C36 2488   0.286   4.301  13.363 -0.3957 -0.5517 -0.0604
   19SAPS   H6X 2489   0.365   4.366  13.319 -1.0361 -0.4900 -1.1579
   19SAPS   H6Y 2490   0.252   4.357  13.453 -1.1426 -0.0145 -0.6568
   19SAPS   C37 2491   0.176   4.289  13.260  0.1555  0.0548 -0.1198
   19SAPS   H7X 2492   0.083   4.240  13.296  0.8329  0.0059  1.6685
   19SAPS   H7Y 2493   0.202   4.216  13.180  1.6054 -1.3179  1.5156
   19SAPS   C38 2494   0.143   4.416  13.185  0.3094 -0.2174 -0.2585
   19SAPS   H8X 2495   0.223   4.447  13.114  0.7122  1.1609  0.7328
   19SAPS   H8Y 2496   0.120   4.504  13.249  3.3706  0.4330  0.1304
   19SAPS   C39 2497   0.020   4.392  13.093  0.8678  0.3582 -0.1386
   19SAPS   H9X 2498  -0.056   4.343  13.158  0.7793  0.1709 -0.3813
   19SAPS   H9Y 2499   0.068   4.322  13.022  0.9162  2.1418 -1.9450
   19SAPS  C310 2500  -0.038   4.510  13.018  0.4484 -0.1322 -0.2421
   19SAPS  H10X 2501  -0.013   4.605  13.070 -0.8007  0.3181 -0.4462
   19SAPS  H10Y 2502  -0.148   4.500  13.028  0.6025 -2.9073 -0.4322
   19SAPS  C311 2503  -0.000   4.538  12.866 -0.6449 -0.4629 -0.1904
   19SAPS  H11X 2504  -0.033   4.456  12.799  1.2914 -0.7551 -0.8284
   19SAPS  H11Y 2505   0.108   4.539  12.843 -1.2178  0.2514 -3.2749
   19SAPS  C312 2506  -0.055   4.666  12.810 -0.5366 -0.2686  0.4544
   19SAPS  H12X 2507  -0.019   4.749  12.874  2.3316  0.3991 -1.7946
   19SAPS  H12Y 2508  -0.166   4.666  12.810 -0.5509  0.5282 -0.0735
   19SAPS  C313 2509  -0.020   4.688  12.657 -0.3663 -0.0120 -0.1752
   19SAPS  H13X 2510   0.084   4.707  12.624 -1.0926  0.8967 -2.0601
   19SAPS  H13Y 2511  -0.072   4.784  12.640 -0.1186  0.2448  0.5142
   19SAPS  C314 2512  -0.078   4.575  12.568 -0.4790 -0.3310 -0.2648
   19SAPS  H14X 2513  -0.182   4.559  12.604  0.0342 -2.0291  0.5307
   19SAPS  H14Y 2514  -0.019   4.485  12.592  1.3368  1.0571  0.7090
   19SAPS  C315 2515  -0.077   4.611  12.420 -0.4798  0.4741  0.9075
   19SAPS  H15X 2516  -0.099   4.521  12.360  2.3337 -0.2672  0.8391
   19SAPS  H15Y 2517   0.026   4.640  12.388 -0.7027 -1.4722 -2.0363
   19SAPS  C316 2518  -0.177   4.729  12.390 -0.2323 -0.6211  0.4043
   19SAPS  H16X 2519  -0.150   4.789  12.300  0.4109  1.0943  1.6759
   19SAPS  H16Y 2520  -0.163   4.801  12.474 -0.1851 -0.3696  0.1829
   19SAPS  C317 2521  -0.318   4.682  12.379  0.1252  0.2039  0.2579
   19SAPS  H17X 2522  -0.332   4.611  12.464  3.2747  0.9859  1.5730
   19SAPS  H17Y 2523  -0.327   4.624  12.285 -0.6820  1.1740 -0.2764
   19SAPS  C318 2524  -0.429   4.788  12.383 -0.5454  0.0712 -0.3505
   19SAPS  H18X 2525  -0.408   4.858  12.299 -0.0486  0.8329  0.3863
   19SAPS  H18Y 2526  -0.435   4.842  12.480  4.8299 -0.3175  0.4969
   19SAPS  H18Z 2527  -0.524   4.743  12.348 -0.5375  0.6812 -1.1848
   20SAPS     N 2528   1.883   0.065  14.996  1.2090 -0.2838  0.1406
   20SAPS   HN1 2529   1.974   0.113  14.987  0.9259  0.3879  0.7361
   20SAPS   HN2 2530   1.818   0.143  14.974  0.4595 -1.1094 -0.6429
   20SAPS   HN3 2531   1.871   0.029  15.093  2.7664 -3.4663 -0.6843
   20SAPS   C12 2532   1.878  -0.047  14.893 -0.2739  0.1859 -0.8244
   20SAPS  H12A 2533   1.778  -0.086  14.900 -0.0857 -0.0877  1.1418
   20SAPS   C13 2534   1.920  -0.011  14.747  0.3866  0.3342  1.0652
   20SAPS  O13A 2535   1.977   0.099  14.726 -0.2254  0.1141 -0.5165
   20SAPS  O13B 2536   1.906  -0.097  14.660  0.0899  0.2427 -0.8548
   20SAPS   C11 2537   1.973  -0.153  14.946 -0.6361  0.0670 -0.3054
   20SAPS  H11A 2538   2.077  -0.115  14.954  0.3577 -2.5888  0.6257
   20SAPS  H11B 2539   1.977  -0.226  14.862 -1.2871  1.1640 -1.3294
   20SAPS     P 2540   1.911  -0.350  15.101  0.4062 -0.2877 -0.4890
   20SAPS   O13 2541   1.845  -0.409  14.986  0.1847  0.6497  0.3447
   20SAPS   O14 2542   2.031  -0.415  15.156 -0.2076  0.2628  0.3043
   20SAPS   O12 2543   1.942  -0.204  15.072 -0.3808  0.8679 -0.2617
   20SAPS   O11 2544   1.803  -0.334  15.218 -0.0071  0.2952 -0.0137
   20SAPS    C1 2545   1.835  -0.238  15.327  0.0540 -0.0854  0.3074
   20SAPS    HA 2546   1.897  -0.149  15.301  1.5795 -0.7625  1.4545
   20SAPS    HB 2547   1.737  -0.201  15.363  0.3466 -0.2624  1.2990
   20SAPS    C2 2548   1.882  -0.305  15.464 -0.0570 -0.5273 -0.1615
   20SAPS    HS 2549   1.973  -0.364  15.440  1.8871  2.5536 -0.8648
   20SAPS   O21 2550   1.769  -0.378  15.522 -0.2728  0.3389  0.0330
   20SAPS   C21 2551   1.807  -0.485  15.590 -0.3297  0.3047 -0.4476
   20SAPS   O22 2552   1.921  -0.531  15.594 -0.1666 -0.5567 -0.3689
   20SAPS   C22 2553   1.692  -0.532  15.678 -0.1821 -0.2787  0.0945
   20SAPS   H2R 2554   1.656  -0.452  15.747 -0.6867  0.5834 -1.1376
   20SAPS   H2S 2555   1.602  -0.557  15.618 -0.2901  0.1741  0.0613
   20SAPS    C3 2556   1.937  -0.188  15.560 -0.2944 -0.3100  0.1217
   20SAPS    HX 2557   1.857  -0.111  15.573 -0.3961 -0.5181  0.7447
   20SAPS    HY 2558   2.022  -0.143  15.505  0.1727 -0.8820  0.3723
   20SAPS   O31 2559   1.998  -0.236  15.687 -0.0661 -0.4606  0.9510
   20SAPS   C31 2560   1.907  -0.255  15.774 -0.7233  0.0861 -0.9469
   20SAPS   O32 2561   1.786  -0.233  15.764 -0.5184 -0.6899  0.5045
   20SAPS   C32 2562   1.984  -0.269  15.905  0.1851  0.0158 -0.5751
   20SAPS   H2X 2563   2.051  -0.181  15.911 -0.9242  0.8879 -0.6831
   20SAPS   H2Y 2564   2.035  -0.368  15.914  1.8050  0.8990  0.4254
   20SAPS   C23 2565   1.722  -0.648  15.757  0.4220 -0.4936  0.0676
   20SAPS   H3R 2566   1.809  -0.631  15.823  1.2586  0.5968 -1.2477
   20SAPS   H3S 2567   1.752  -0.734  15.694 -1.4396 -1.2235  0.1116
   20SAPS   C24 2568   1.608  -0.697  15.858  0.5307 -0.6211  0.9581
   20SAPS   H4R 2569   1.647  -0.794  15.897 -1.3964 -1.4290  0.9489
   20SAPS   H4S 2570   1.513  -0.716  15.804 -0.9879  0.2345  3.1970
   20SAPS   C25 2571   1.574  -0.617  15.978 -0.7331  0.3104  0.7695
   20SAPS   H5R 2572   1.553  -0.513  15.951  0.6207  0.3331 -0.3391
   20SAPS   C26 2573   1.554  -0.658  16.098 -0.4041 -0.5809 -0.8301
   20SAPS   H6R 2574   1.532  -0.577  16.169  0.8376  2.2252 -3.4206
   20SAPS   C27 2575   1.577  -0.801  16.138 -0.1581  0.2303  0.2450
   20SAPS   H7R 2576   1.482  -0.852  16.109 -2.0219  3.7280 -0.3321
   20SAPS   H7S 2577   1.563  -0.806  16.248  1.2085 -0.5029  0.4062
   20SAPS   C28 2578   1.709  -0.881  16.119  0.4009 -0.5780 -0.1918
   20SAPS   H8R 2579   1.797  -0.819  16.100  1.5711 -2.6144 -1.8162
   20SAPS   C29 2580   1.720  -1.011  16.157  0.5591 -0.2143  0.9082
   20SAPS   H9R 2581   1.824  -1.047  16.159  0.2901 -1.0021  2.3594
   20SAPS  C210 2582   1.612  -1.109  16.198 -0.5095 -0.6960 -0.3880
   20SAPS  H10R 2583   1.566  -1.174  16.121  0.1430  0.1670 -1.5405
   20SAPS  H10S 2584   1.529  -1.047  16.238  1.7927  1.2902  1.5913
   20SAPS  C211 2585   1.665  -1.203  16.303 -0.4017  0.3533 -1.0245
   20SAPS  H11R 2586   1.768  -1.181  16.335  0.2281 -1.1615 -1.8996
   20SAPS  C212 2587   1.591  -1.285  16.376 -0.6121  0.1102  0.6087
   20SAPS  H12R 2588   1.640  -1.354  16.447  2.3553 -0.0975 -1.4716
   20SAPS  C213 2589   1.445  -1.306  16.354 -0.7903  0.6131  0.7244
   20SAPS  H13R 2590   1.433  -1.339  16.248  0.3807  0.9069  0.4829
   20SAPS  H13S 2591   1.397  -1.206  16.363 -2.2882 -0.1192  1.1294
   20SAPS  C214 2592   1.361  -1.392  16.443 -0.0318  0.1835 -0.1742
   20SAPS  H14R 2593   1.326  -1.345  16.536 -0.1846 -0.0578 -0.1077
   20SAPS  C215 2594   1.343  -1.520  16.431  0.0595  0.9453 -0.3141
   20SAPS  H15R 2595   1.302  -1.577  16.516  0.4509  0.8762 -0.1713
   20SAPS  C216 2596   1.382  -1.602  16.319  0.5626 -0.0375  0.9481
   20SAPS  H16R 2597   1.439  -1.690  16.354 -1.7485 -1.4086  1.4541
   20SAPS  H16S 2598   1.458  -1.547  16.260  0.1697  0.5364  0.9604
   20SAPS  C217 2599   1.261  -1.640  16.233  0.1791  0.1948  0.2791
   20SAPS  H17R 2600   1.204  -1.725  16.275  1.3718 -0.1634  1.2057
   20SAPS  H17S 2601   1.297  -1.688  16.140 -0.5326  0.4379 -0.1289
   20SAPS  C218 2602   1.178  -1.519  16.172  0.5630 -0.3940  0.1078
   20SAPS  H18R 2603   1.242  -1.446  16.118 -3.2354  2.0796 -1.4674
   20SAPS  H18S 2604   1.125  -1.471  16.258  0.9765 -1.3816  0.9304
   20SAPS  C219 2605   1.072  -1.561  16.072  0.4501 -0.0845  0.0181
   20SAPS  H19R 2606   1.000  -1.614  16.138  1.0871  0.8515  1.5166
   20SAPS  H19S 2607   1.118  -1.637  16.005  2.5127 -0.6283  1.9137
   20SAPS  C220 2608   0.995  -1.440  16.005 -0.1484  0.0717 -0.3899
   20SAPS  H20R 2609   0.898  -1.470  15.959 -1.3982  2.6448  0.3944
   20SAPS  H20S 2610   1.058  -1.395  15.925 -0.8422 -1.9862 -2.1802
   20SAPS  H20T 2611   0.949  -1.366  16.073 -1.8987  0.8571 -2.3185
   20SAPS   C33 2612   1.903  -0.251  16.034  0.3430 -0.2344  0.6868
   20SAPS   H3X 2613   1.855  -0.345  16.068  2.1390 -1.2997  0.3952
   20SAPS   H3Y 2614   1.808  -0.192  16.037 -1.0648 -2.3579 -0.2469
   20SAPS   C34 2615   1.988  -0.199  16.159 -0.2692 -0.6685 -0.1365
   20SAPS   H4X 2616   2.084  -0.254  16.159  1.4417  2.1111  0.9455
   20SAPS   H4Y 2617   1.936  -0.217  16.255  2.3828 -1.4184  1.2559
   20SAPS   C35 2618   2.009  -0.041  16.142  0.3202 -0.6786  0.1817
   20SAPS   H5X 2619   1.911   0.009  16.155  0.4278 -0.0191 -1.3274
   20SAPS   H5Y 2620   2.049  -0.025  16.040  0.1146  3.7954  0.6034
   20SAPS   C36 2621   2.125  -0.001  16.240 -0.2167  0.4669  0.0454
   20SAPS   H6X 2622   2.161   0.100  16.212 -0.4919  0.1966 -1.3629
   20SAPS   H6Y 2623   2.212  -0.069  16.236  0.3457  0.9908  2.2739
   20SAPS   C37 2624   2.086  -0.006  16.387 -1.0755 -0.6205 -0.5963
   20SAPS   H7X 2625   2.183   0.015  16.435 -0.6978  0.4427 -1.7477
   20SAPS   H7Y 2626   2.043  -0.102  16.423  0.6022 -0.7229  1.2630
   20SAPS   C38 2627   2.005   0.120  16.420 -0.2417  0.0319 -0.6645
   20SAPS   H8X 2628   1.914   0.107  16.359 -0.7450  0.6586 -0.0621
   20SAPS   H8Y 2629   2.053   0.216  16.389  1.8748 -0.5153  0.7390
   20SAPS   C39 2630   1.960   0.133  16.565  0.0724 -0.1965  0.1458
   20SAPS   H9X 2631   2.054   0.114  16.622 -1.5527  0.3357  3.2261
   20SAPS   H9Y 2632   1.886   0.053  16.585  2.3237 -2.4034  0.0877
   20SAPS  C310 2633   1.913   0.273  16.602  0.4159  0.2712 -0.1508
   20SAPS  H10X 2634   1.827   0.303  16.539  1.6238  1.4576 -1.3051
   20SAPS  H10Y 2635   1.996   0.343  16.579 -0.7333  0.7738 -3.2560
   20SAPS  C311 2636   1.866   0.284  16.747 -0.3743 -0.0658  0.4426
   20SAPS  H11X 2637   1.947   0.257  16.818  1.7208  0.7296 -1.5448
   20SAPS  H11Y 2638   1.791   0.203  16.759  0.9441 -1.0243  3.3595
   20SAPS  C312 2639   1.805   0.410  16.794 -0.1065  0.6033 -0.3407
   20SAPS  H12X 2640   1.762   0.382  16.893  3.1662  2.5708  1.8115
   20SAPS  H12Y 2641   1.730   0.450  16.723 -1.0788 -0.8641 -0.1856
   20SAPS  C313 2642   1.913   0.508  16.838 -0.2252  0.0481  0.2483
   20SAPS  H13X 2643   1.927   0.583  16.757 -2.5029 -0.1110 -0.3645
   20SAPS  H13Y 2644   2.009   0.451  16.843 -1.3820 -1.8829  1.8412
   20SAPS  C314 2645   1.879   0.580  16.966  0.1038  0.3285  0.2168
   20SAPS  H14X 2646   1.861   0.503  17.045  3.0299 -0.8496 -0.1296
   20SAPS  H14Y 2647   1.791   0.642  16.942 -0.7296 -1.3425 -1.2774
   20SAPS  C315 2648   1.992   0.677  17.009  0.3294  0.1843  0.6049
   20SAPS  H15X 2649   1.936   0.768  17.042  0.7421  0.5505  0.3088
   20SAPS  H15Y 2650   2.052   0.702  16.919 -0.5817  0.5839  0.0957
   20SAPS  C316 2651   2.064   0.600  17.123  0.0714 -0.0391  0.3087
   20SAPS  H16X 2652   2.102   0.500  17.093 -0.0635  0.0180 -0.0558
   20SAPS  H16Y 2653   1.991   0.594  17.206 -3.0354  2.1788 -2.0048
   20SAPS  C317 2654   2.185   0.687  17.161 -0.0350 -0.5334  0.2032
   20SAPS  H17X 2655   2.231   0.638  17.250 -1.4542 -0.0368  1.2446
   20SAPS  H17Y 2656   2.154   0.791  17.185  0.1862 -0.0064 -1.6673
   20SAPS  C318 2657   2.299   0.686  17.053  0.8162 -0.7680 -0.0581
   20SAPS  H18X 2658   2.328   0.582  17.028 -0.4510 -1.0962 -0.2133
   20SAPS  H18Y 2659   2.386   0.750  17.080  0.5619  0.1233 -1.2508
   20SAPS  H18Z 2660   2.264   0.733  16.958  0.4369  0.8083  0.8224
   21CHL1    C3 2661   3.202   1.192  17.449  0.2608 -0.2742  0.1615
   21CHL1    H3 2662   3.177   1.286  17.397 -0.4434 -1.8086 -2.4719
   21CHL1    O3 2663   3.159   1.198  17.590 -0.4695 -0.1160 -0.4108
   21CHL1   H3' 2664   3.066   1.219  17.582  0.0339  2.0270 -1.4679
   21CHL1    C4 2665   3.119   1.088  17.368  0.1197  0.0242 -0.3115
   21CHL1   H4A 2666   3.142   0.997  17.426  2.0449  0.7352  0.1014
   21CHL1   H4B 2667   3.008   1.099  17.378  0.1851 -0.0797  0.6728
   21CHL1    C5 2668   3.171   1.066  17.231 -0.1135 -0.2395 -0.5309
   21CHL1    C6 2669   3.080   1.071  17.132 -0.5974  0.1898 -0.0217
   21CHL1    H6 2670   2.975   1.097  17.154 -0.8553  1.6653 -2.6219
   21CHL1    C7 2671   3.121   1.058  16.988 -0.2942 -0.0464  0.8294
   21CHL1   H7A 2672   3.056   0.982  16.938 -0.2607  0.1968  0.4122
   21CHL1   H7B 2673   3.098   1.153  16.935  1.4287  0.3491  0.7444
   21CHL1    C8 2674   3.265   1.018  16.955 -0.4054 -0.5043 -0.2906
   21CHL1    H8 2675   3.286   0.910  16.969  0.8053 -0.1846  0.5174
   21CHL1   C14 2676   3.301   1.067  16.817  0.1245 -0.3836  0.3277
   21CHL1   H14 2677   3.296   1.178  16.820  0.9341 -0.3254 -0.3017
   21CHL1   C15 2678   3.213   1.024  16.698  0.2052  0.5209  0.0138
   21CHL1  H15A 2679   3.194   0.915  16.697 -0.9648  0.7104  0.0997
   21CHL1  H15B 2680   3.115   1.075  16.704 -0.4749 -0.8191  0.8172
   21CHL1   C16 2681   3.300   1.063  16.574  0.3683  0.2530  0.0722
   21CHL1  H16A 2682   3.303   0.987  16.493  2.0899  0.0928  0.2454
   21CHL1  H16B 2683   3.261   1.161  16.538 -0.3798 -0.0809 -0.0479
   21CHL1   C17 2684   3.441   1.098  16.627 -0.0172  0.3520  0.0942
   21CHL1   H17 2685   3.441   1.207  16.645 -2.2107  0.8344 -2.2116
   21CHL1   C13 2686   3.446   1.042  16.770  0.2005  0.3170 -0.6936
   21CHL1   C18 2687   3.480   0.890  16.769 -0.8359 -0.0356 -0.3176
   21CHL1  H18A 2688   3.419   0.852  16.685 -0.2765  1.7249 -1.5839
   21CHL1  H18B 2689   3.587   0.862  16.757 -0.2644  0.5077  2.6304
   21CHL1  H18C 2690   3.446   0.847  16.866  0.0586  1.3681  0.6676
   21CHL1   C12 2691   3.536   1.112  16.872 -0.1224 -0.2301 -0.0676
   21CHL1  H12A 2692   3.643   1.096  16.846 -0.3375  0.5433 -1.5493
   21CHL1  H12B 2693   3.505   1.219  16.877 -0.9919 -0.3975 -1.3767
   21CHL1   C11 2694   3.513   1.067  17.016  0.1325 -0.3673  0.2010
   21CHL1  H11A 2695   3.556   0.965  17.020 -0.3010 -0.5160  2.2697
   21CHL1  H11B 2696   3.588   1.132  17.066 -0.3598 -0.9880  1.8193
   21CHL1    C9 2697   3.363   1.085  17.061  0.0367  0.2265  0.0734
   21CHL1    H9 2698   3.347   1.194  17.048 -0.4982  0.1873  0.3971
   21CHL1   C10 2699   3.326   1.058  17.209 -0.6935  0.1601 -0.5373
   21CHL1   C19 2700   3.378   0.913  17.243 -0.2699  0.6434  0.2906
   21CHL1  H19A 2701   3.360   0.892  17.350  3.3728 -0.4753  0.8106
   21CHL1  H19B 2702   3.325   0.853  17.166 -0.7537  2.0039 -0.4769
   21CHL1  H19C 2703   3.488   0.919  17.232 -0.2972 -0.2949 -0.6480
   21CHL1    C1 2704   3.403   1.153  17.295 -0.0253  0.2212  0.7033
   21CHL1   H1A 2705   3.512   1.132  17.294 -0.5641 -3.1278 -1.4355
   21CHL1   H1B 2706   3.383   1.257  17.261  0.9412  0.2993  0.3600
   21CHL1    C2 2707   3.349   1.164  17.434  0.0050 -0.0813  0.0225
   21CHL1   H2A 2708   3.402   1.240  17.496  0.1201 -0.5887  0.5546
   21CHL1   H2B 2709   3.379   1.074  17.492 -2.1233 -2.5071 -2.3517
   21CHL1   C20 2710   3.549   1.067  16.524  0.1081  0.9407  0.1116
   21CHL1   H20 2711   3.543   0.958  16.506  1.7408  0.9148 -0.3841
   21CHL1   C21 2712   3.685   1.105  16.576 -0.7044  0.8285 -1.0374
   21CHL1  H21A 2713   3.698   1.215  16.586  0.5488  0.6691 -0.7741
   21CHL1  H21B 2714   3.766   1.074  16.507  0.3212  0.2878  0.3543
   21CHL1  H21C 2715   3.717   1.044  16.663 -0.8126  1.8383 -0.2710
   21CHL1   C22 2716   3.517   1.140  16.390 -0.0313 -0.5840  0.0652
   21CHL1  H22A 2717   3.430   1.086  16.346 -3.2995  3.0048  1.5313
   21CHL1  H22B 2718   3.498   1.248  16.406  0.2372 -0.6733  1.0443
   21CHL1   C23 2719   3.630   1.132  16.292  0.7012  0.4943 -0.8756
   21CHL1  H23A 2720   3.718   1.190  16.327  0.3087  0.2932  0.5330
   21CHL1  H23B 2721   3.654   1.024  16.290  0.0692  0.2857  0.8012
   21CHL1   C24 2722   3.578   1.177  16.154  0.2846 -0.7181  1.1158
   21CHL1  H24A 2723   3.488   1.129  16.110  1.7863 -0.5208 -2.5480
   21CHL1  H24B 2724   3.551   1.283  16.171 -1.7675 -1.2041  1.1266
   21CHL1   C25 2725   3.683   1.165  16.043 -0.2172  0.9964  0.1314
   21CHL1   H25 2726   3.761   1.237  16.077  0.3013  0.9226 -0.8685
   21CHL1   C26 2727   3.748   1.023  16.038  0.2152  0.0754 -0.1151
   21CHL1  H26A 2728   3.667   0.947  16.034 -0.8928  1.2619 -2.0962
   21CHL1  H26B 2729   3.811   1.003  15.950  0.0597  0.9793 -0.4460
   21CHL1  H26C 2730   3.805   0.996  16.130 -1.1246  0.7473  0.9553
   21CHL1   C27 2731   3.628   1.208  15.910  0.4968 -0.5887 -0.2546
   21CHL1  H27A 2732   3.538   1.152  15.876 -0.4196  0.9684 -0.5483
   21CHL1  H27B 2733   3.595   1.314  15.920 -1.7352 -1.3848  1.6214
   21CHL1  H27C 2734   3.698   1.206  15.824 -2.7988 -1.9699 -3.1789
   22CHL1    C3 2735   0.459   0.909  18.853  0.3972  0.1816 -0.0568
   22CHL1    H3 2736   0.538   0.884  18.927 -1.0218 -3.3932  0.4702
   22CHL1    O3 2737   0.362   0.990  18.917  0.4640  0.3522  0.1736
   22CHL1   H3' 2738   0.276   0.969  18.879 -0.8143  3.3972  1.1109
   22CHL1    C4 2739   0.514   0.995  18.742  0.3718  1.2738  1.4754
   22CHL1   H4A 2740   0.436   1.032  18.673  1.3767 -0.3143 -0.6259
   22CHL1   H4B 2741   0.560   1.088  18.781  1.5272  1.5301 -0.3587
   22CHL1    C5 2742   0.616   0.917  18.658  0.1299  0.2009  0.4896
   22CHL1    C6 2743   0.737   0.965  18.635 -0.6167  0.2562 -0.6358
   22CHL1    H6 2744   0.752   1.066  18.676  0.9799 -0.0295 -0.4522
   22CHL1    C7 2745   0.841   0.895  18.548 -0.2549  0.1134  0.0827
   22CHL1   H7A 2746   0.896   0.961  18.478 -0.4153 -0.6395 -0.7687
   22CHL1   H7B 2747   0.925   0.850  18.604  1.5187  0.3176 -2.2555
   22CHL1    C8 2748   0.778   0.774  18.464  0.4679 -0.4763  0.4152
   22CHL1    H8 2749   0.724   0.822  18.379  0.5835 -0.9137  0.0922
   22CHL1   C14 2750   0.893   0.689  18.407 -0.1477  0.7120 -0.5296
   22CHL1   H14 2751   0.935   0.635  18.494  2.7031 -0.3396 -2.4097
   22CHL1   C15 2752   1.009   0.758  18.336  0.7000 -0.2755  0.0247
   22CHL1  H15A 2753   0.977   0.837  18.264  2.0269 -0.1845 -0.4990
   22CHL1  H15B 2754   1.077   0.803  18.411 -0.4088 -0.4777  1.1642
   22CHL1   C16 2755   1.080   0.643  18.269 -0.3804  0.2738 -0.0774
   22CHL1  H16A 2756   1.069   0.658  18.160 -2.3529 -1.7283 -0.2193
   22CHL1  H16B 2757   1.185   0.618  18.297  0.6916  0.8477 -3.1735
   22CHL1   C17 2758   0.996   0.512  18.290 -0.0231  0.3216 -0.1517
   22CHL1   H17 2759   1.037   0.467  18.383  0.3152 -2.5968 -1.6238
   22CHL1   C13 2760   0.854   0.578  18.317  0.6499 -0.0343 -0.0588
   22CHL1   C18 2761   0.783   0.628  18.188 -0.2769 -0.6065 -0.3536
   22CHL1  H18A 2762   0.758   0.540  18.125  0.4034 -0.3374 -1.0159
   22CHL1  H18B 2763   0.694   0.683  18.224  1.3380  0.6455  1.9874
   22CHL1  H18C 2764   0.845   0.697  18.128 -0.4304 -0.0720  0.0978
   22CHL1   C12 2765   0.756   0.488  18.393 -0.6312 -0.3300 -0.5853
   22CHL1  H12A 2766   0.736   0.390  18.343 -2.3499 -0.0194 -0.5787
   22CHL1  H12B 2767   0.825   0.460  18.475 -0.5336 -1.1358 -0.9274
   22CHL1   C11 2768   0.645   0.564  18.462 -0.5267  0.0897  0.6537
   22CHL1  H11A 2769   0.573   0.587  18.381  0.0026  0.0615  0.1631
   22CHL1  H11B 2770   0.586   0.501  18.532 -0.8092  1.1596  1.3926
   22CHL1    C9 2771   0.682   0.691  18.544  0.1378  0.0708  0.2658
   22CHL1    H9 2772   0.744   0.645  18.624  1.1161 -0.5399 -0.8036
   22CHL1   C10 2773   0.571   0.778  18.606 -0.2714 -0.0327  0.0822
   22CHL1   C19 2774   0.454   0.798  18.498 -0.4919 -0.2678  0.0299
   22CHL1  H19A 2775   0.400   0.703  18.476  1.6871 -1.7495  0.6370
   22CHL1  H19B 2776   0.389   0.871  18.550  1.0642 -0.4250  2.3737
   22CHL1  H19C 2777   0.491   0.852  18.409  1.4731 -1.1507  0.2446
   22CHL1    C1 2778   0.513   0.704  18.725  0.3623  0.2553 -0.1509
   22CHL1   H1A 2779   0.472   0.608  18.687  0.6640  0.9327 -2.3229
   22CHL1   H1B 2780   0.608   0.685  18.781  0.0645  1.4372  0.7914
   22CHL1    C2 2781   0.402   0.781  18.802  0.5094 -0.0321 -0.4702
   22CHL1   H2A 2782   0.365   0.723  18.890 -2.7564 -1.8117 -2.8097
   22CHL1   H2B 2783   0.307   0.798  18.748 -1.6287 -2.5462  2.1408
   22CHL1   C20 2784   1.013   0.401  18.185  0.0490  0.2026  1.1935
   22CHL1   H20 2785   0.913   0.353  18.185  0.5538 -0.9085 -0.1381
   22CHL1   C21 2786   1.111   0.295  18.244 -0.2285  0.4594 -0.2088
   22CHL1  H21A 2787   1.216   0.331  18.254  0.2928 -0.6622 -1.4073
   22CHL1  H21B 2788   1.110   0.199  18.189  2.9194 -0.1435  0.6133
   22CHL1  H21C 2789   1.080   0.255  18.343  0.9904 -0.4193 -0.1589
   22CHL1   C22 2790   1.046   0.441  18.040  0.4675 -0.1402 -0.9880
   22CHL1  H22A 2791   0.958   0.496  18.001 -0.1490  0.0355  0.6024
   22CHL1  H22B 2792   1.139   0.501  18.048  0.6097 -0.3596 -0.9794
   22CHL1   C23 2793   1.073   0.327  17.944 -0.4360 -0.0344  0.1736
   22CHL1  H23A 2794   1.115   0.358  17.846 -0.7814 -0.7906 -0.2274
   22CHL1  H23B 2795   1.143   0.254  17.991  2.5741  2.0231 -0.8553
   22CHL1   C24 2796   0.953   0.248  17.918 -0.1520  0.4615  0.2552
   22CHL1  H24A 2797   0.901   0.204  18.006 -3.9440 -1.8907 -2.8383
   22CHL1  H24B 2798   0.885   0.316  17.863  1.2696 -0.2499 -2.5625
   22CHL1   C25 2799   0.983   0.133  17.824 -0.4640  0.1898  0.2916
   22CHL1   H25 2800   1.060   0.144  17.745 -1.2403  0.1300 -0.4771
   22CHL1   C26 2801   1.024   0.011  17.905 -0.1203 -0.0325  0.4911
   22CHL1  H26A 2802   1.125   0.029  17.949  1.1115 -2.0554 -1.2864
   22CHL1  H26B 2803   0.941  -0.019  17.971 -0.0635 -2.7454 -0.5620
   22CHL1  H26C 2804   1.041  -0.071  17.832 -3.9036  0.0534 -0.6893
   22CHL1   C27 2805   0.871   0.096  17.732  0.2300 -0.3121  0.2904
   22CHL1  H27A 2806   0.783   0.066  17.793 -0.8356 -0.9199 -1.4351
   22CHL1  H27B 2807   0.851   0.180  17.662  2.5774 -1.2238 -1.6208
   22CHL1  H27C 2808   0.886   0.003  17.672 -0.1669  0.3760 -0.9249
   23CHL1    C3 2809   2.337   0.548  18.434 -0.1447 -0.0631 -0.5905
   23CHL1    H3 2810   2.343   0.548  18.323  0.5220  0.3422 -0.5644
   23CHL1    O3 2811   2.377   0.671  18.487  0.4286  0.0418  0.2317
   23CHL1   H3' 2812   2.465   0.684  18.451  0.8023  0.4963  1.2565
   23CHL1    C4 2813   2.198   0.505  18.484 -0.7390  0.4030  0.0004
   23CHL1   H4A 2814   2.191   0.526  18.593 -1.2170  3.6481 -0.5748
   23CHL1   H4B 2815   2.125   0.577  18.441 -1.2352 -1.0017 -1.6073
   23CHL1    C5 2816   2.163   0.360  18.459 -0.0657 -0.3973 -0.0313
   23CHL1    C6 2817   2.052   0.332  18.391  0.1365  0.6066 -0.7457
   23CHL1    H6 2818   1.989   0.419  18.364  0.4684  1.0331 -0.1820
   23CHL1    C7 2819   2.009   0.196  18.356 -0.0021  0.3528 -0.1001
   23CHL1   H7A 2820   1.901   0.186  18.380 -0.4679  0.2055 -2.1013
   23CHL1   H7B 2821   2.033   0.167  18.252 -1.3981 -0.6484 -0.1632
   23CHL1    C8 2822   2.090   0.088  18.444  0.0422  0.8864  0.5536
   23CHL1    H8 2823   2.052   0.103  18.547 -0.0456 -0.8777  0.8104
   23CHL1   C14 2824   2.061  -0.050  18.397 -0.1934 -0.3073  0.4775
   23CHL1   H14 2825   2.089  -0.063  18.290 -0.9839  0.7207  0.1263
   23CHL1   C15 2826   1.905  -0.095  18.403  0.1446 -0.3879  0.0789
   23CHL1  H15A 2827   1.867  -0.056  18.501  0.4350 -0.9447  0.4156
   23CHL1  H15B 2828   1.847  -0.039  18.327 -0.9966 -1.6265  0.0127
   23CHL1   C16 2829   1.896  -0.244  18.396 -0.1919 -0.2279 -0.3001
   23CHL1  H16A 2830   1.857  -0.288  18.490 -1.0267 -0.8466 -0.9228
   23CHL1  H16B 2831   1.836  -0.291  18.315  1.9493 -0.1421 -2.0310
   23CHL1   C17 2832   2.049  -0.288  18.411  0.5599  0.0230  0.3216
   23CHL1   H17 2833   2.090  -0.295  18.308  0.8767 -0.2191  0.4655
   23CHL1   C13 2834   2.130  -0.166  18.471  0.3853 -0.6703  0.6448
   23CHL1   C18 2835   2.102  -0.153  18.628  0.3757  0.0351 -0.3972
   23CHL1  H18A 2836   2.148  -0.240  18.678  0.8777  0.5081 -0.0243
   23CHL1  H18B 2837   2.149  -0.062  18.672  1.8503  0.5350 -2.8333
   23CHL1  H18C 2838   1.998  -0.138  18.666  0.2185 -2.4943  0.3857
   23CHL1   C12 2839   2.282  -0.149  18.434 -0.0937 -0.1583  0.4348
   23CHL1  H12A 2840   2.338  -0.232  18.483 -0.1164 -0.5581 -0.2101
   23CHL1  H12B 2841   2.309  -0.143  18.326 -0.8772 -0.3460  0.2254
   23CHL1   C11 2842   2.334  -0.005  18.486 -0.1175  0.2004  0.5937
   23CHL1  H11A 2843   2.335  -0.011  18.597  2.7572 -0.3106  0.6333
   23CHL1  H11B 2844   2.443   0.006  18.464 -0.3144 -0.3374 -0.7407
   23CHL1    C9 2845   2.237   0.118  18.440 -0.2715  0.5996  0.3988
   23CHL1    H9 2846   2.275   0.119  18.336 -0.2414 -1.0750  0.3656
   23CHL1   C10 2847   2.272   0.254  18.512  0.6849  0.2878  0.0363
   23CHL1   C19 2848   2.279   0.241  18.669 -0.0248 -0.0850  0.8501
   23CHL1  H19A 2849   2.359   0.171  18.701 -0.4600  0.1881  2.6455
   23CHL1  H19B 2850   2.301   0.343  18.708  0.9009 -0.9576  2.7227
   23CHL1  H19C 2851   2.180   0.208  18.709  0.0627 -1.4152  0.0146
   23CHL1    C1 2852   2.412   0.295  18.455 -0.1613 -0.7563  0.1341
   23CHL1   H1A 2853   2.497   0.237  18.496  2.3908  0.7056 -2.7131
   23CHL1   H1B 2854   2.405   0.284  18.345 -2.8238  3.6798 -0.4079
   23CHL1    C2 2855   2.449   0.447  18.485  0.8342 -0.8723 -0.3080
   23CHL1   H2A 2856   2.540   0.471  18.425  1.4898 -1.7027  0.3166
   23CHL1   H2B 2857   2.468   0.442  18.594  1.2700 -0.9792 -0.3837
   23CHL1   C20 2858   2.060  -0.428  18.475  0.2585  0.2251  0.9237
   23CHL1   H20 2859   2.022  -0.418  18.578  0.1169 -1.0138  0.9996
   23CHL1   C21 2860   2.200  -0.478  18.474  0.2251 -0.1548  0.2010
   23CHL1  H21A 2861   2.248  -0.480  18.374 -0.4189 -0.6333 -0.1008
   23CHL1  H21B 2862   2.201  -0.580  18.519 -0.7778  0.5344  1.8619
   23CHL1  H21C 2863   2.264  -0.410  18.534  0.9756  0.9961 -1.8036
   23CHL1   C22 2864   1.968  -0.533  18.402 -0.3041 -0.1208  0.8358
   23CHL1  H22A 2865   1.982  -0.627  18.460  0.4147 -0.3800  0.2573
   23CHL1  H22B 2866   1.863  -0.497  18.398 -0.7612 -1.4991 -2.2796
   23CHL1   C23 2867   2.008  -0.555  18.249 -0.4899 -0.0419 -0.0358
   23CHL1  H23A 2868   1.974  -0.461  18.200 -0.0562 -0.5977 -1.4287
   23CHL1  H23B 2869   2.118  -0.567  18.237  0.2229  2.3893  2.8154
   23CHL1   C24 2870   1.949  -0.680  18.184  0.2824 -0.2627  0.3012
   23CHL1  H24A 2871   1.981  -0.681  18.077  0.5204  0.0186  0.3692
   23CHL1  H24B 2872   1.984  -0.767  18.244 -0.9198 -0.2190  1.1040
   23CHL1   C25 2873   1.794  -0.692  18.178  0.0322 -0.3575  0.4747
   23CHL1   H25 2874   1.747  -0.635  18.261  0.9854  1.6255 -0.2631
   23CHL1   C26 2875   1.733  -0.628  18.052  0.6139  0.5909 -0.1175
   23CHL1  H26A 2876   1.750  -0.519  18.060 -0.8811  0.9131 -0.9543
   23CHL1  H26B 2877   1.771  -0.683  17.963 -0.8189 -0.0471 -0.3578
   23CHL1  H26C 2878   1.623  -0.638  18.065  0.8935 -2.7421  0.6166
   23CHL1   C27 2879   1.746  -0.836  18.194  0.3110  0.9827 -0.3361
   23CHL1  H27A 2880   1.780  -0.878  18.291  1.7775 -1.2738 -1.7377
   23CHL1  H27B 2881   1.636  -0.849  18.178  0.4611  0.3109 -0.8650
   23CHL1  H27C 2882   1.801  -0.887  18.112  1.2708  2.4286 -0.6271
   24CHL1    C3 2883   0.647   1.237  18.384 -0.5014  1.0461 -0.8478
   24CHL1    H3 2884   0.547   1.191  18.401 -0.1541  1.0725  1.7329
   24CHL1    O3 2885   0.698   1.268  18.514 -0.0657  0.4631 -0.0151
   24CHL1   H3' 2886   0.779   1.319  18.508  0.0125  0.8112  2.7918
   24CHL1    C4 2887   0.750   1.147  18.309  0.6282  0.5447  0.4063
   24CHL1   H4A 2888   0.846   1.198  18.330 -0.4240  2.3549  1.0450
   24CHL1   H4B 2889   0.742   1.051  18.365 -0.9589  1.3665  1.6606
   24CHL1    C5 2890   0.719   1.133  18.162  0.2718  0.4678 -0.1239
   24CHL1    C6 2891   0.695   1.012  18.107  0.5062  0.0773 -0.7605
   24CHL1    H6 2892   0.673   0.924  18.169  0.3068  0.6440 -0.0195
   24CHL1    C7 2893   0.688   0.989  17.961  0.0746  0.1011  0.8082
   24CHL1   H7A 2894   0.759   0.907  17.936  0.4311  0.7612 -0.4214
   24CHL1   H7B 2895   0.591   0.948  17.923  1.4403 -1.0034 -1.7475
   24CHL1    C8 2896   0.723   1.112  17.882 -0.3457 -0.2538  0.3892
   24CHL1    H8 2897   0.834   1.116  17.881 -0.0597 -4.2378 -0.6347
   24CHL1   C14 2898   0.675   1.099  17.737 -0.6598  0.5317  1.0274
   24CHL1   H14 2899   0.564   1.095  17.747 -0.7810  0.2648 -0.2765
   24CHL1   C15 2900   0.706   0.972  17.650 -0.2075 -0.0977  0.3141
   24CHL1  H15A 2901   0.815   0.954  17.637 -0.1798  0.0734  0.3063
   24CHL1  H15B 2902   0.659   0.878  17.685 -0.9549  0.5850  1.1971
   24CHL1   C16 2903   0.665   1.008  17.512  0.7704  0.0643 -0.3762
   24CHL1  H16A 2904   0.730   0.971  17.431 -0.9784 -0.5130 -1.5826
   24CHL1  H16B 2905   0.559   0.976  17.501  0.1352  1.9396 -0.1258
   24CHL1   C17 2906   0.639   1.165  17.509  0.4117  0.0784 -0.7767
   24CHL1   H17 2907   0.529   1.176  17.519  0.7382  1.2272  3.1250
   24CHL1   C13 2908   0.698   1.216  17.644  0.0404 -0.0717  0.0429
   24CHL1   C18 2909   0.848   1.246  17.630 -0.1997  1.0365 -0.2696
   24CHL1  H18A 2910   0.849   1.340  17.571  0.0533 -0.0469 -2.0709
   24CHL1  H18B 2911   0.898   1.267  17.726  0.2507 -1.5293  0.1351
   24CHL1  H18C 2912   0.905   1.167  17.576 -0.7429 -0.0004  0.6213
   24CHL1   C12 2913   0.624   1.329  17.709 -0.0545 -0.3730  0.0123
   24CHL1  H12A 2914   0.638   1.421  17.648 -0.2764 -0.3032  0.0647
   24CHL1  H12B 2915   0.514   1.309  17.707 -0.0497 -1.0632  2.7747
   24CHL1   C11 2916   0.668   1.359  17.853  0.6042 -0.5090 -0.5154
   24CHL1  H11A 2917   0.773   1.396  17.853 -0.0537  1.7312  2.2672
   24CHL1  H11B 2918   0.600   1.438  17.892  1.0929 -0.6005  0.5491
   24CHL1    C9 2919   0.662   1.236  17.949  0.0562 -0.0277  0.3230
   24CHL1    H9 2920   0.554   1.215  17.968  0.2634 -1.2122  0.2608
   24CHL1   C10 2921   0.725   1.260  18.091 -0.0021  0.8266 -0.3885
   24CHL1   C19 2922   0.870   1.318  18.087  0.1487  0.4981 -0.1614
   24CHL1  H19A 2923   0.868   1.413  18.029 -4.5575  1.1732  0.6588
   24CHL1  H19B 2924   0.915   1.342  18.185 -1.0566 -1.7218  1.0005
   24CHL1  H19C 2925   0.934   1.246  18.031 -0.1538 -0.7957  1.1147
   24CHL1    C1 2926   0.624   1.358  18.166  0.3375  0.5416  0.0877
   24CHL1   H1A 2927   0.635   1.460  18.124  0.0604  0.0649 -1.1780
   24CHL1   H1B 2928   0.525   1.327  18.127 -0.0166  3.2445 -1.3889
   24CHL1    C2 2929   0.643   1.372  18.311  0.2291 -0.1225  0.2609
   24CHL1   H2A 2930   0.569   1.423  18.377 -1.8375 -1.2835 -1.0336
   24CHL1   H2B 2931   0.742   1.420  18.325 -0.0814  0.4049  0.6614
   24CHL1   C20 2932   0.680   1.239  17.379  0.8050 -0.8135  0.0908
   24CHL1   H20 2933   0.791   1.244  17.371  0.5964  1.1655 -3.3854
   24CHL1   C21 2934   0.637   1.391  17.392 -0.4116 -0.6129  0.6715
   24CHL1  H21A 2935   0.716   1.444  17.449  0.3884 -0.7903 -0.2385
   24CHL1  H21B 2936   0.535   1.389  17.434 -0.6865 -3.0631  0.0591
   24CHL1  H21C 2937   0.619   1.437  17.293  3.3868  0.6734  0.4013
   24CHL1   C22 2938   0.620   1.178  17.253 -0.5979  0.6219 -0.2334
   24CHL1  H22A 2939   0.638   1.069  17.265 -0.2435  0.6912 -0.1107
   24CHL1  H22B 2940   0.510   1.194  17.257 -0.7330 -0.4497  1.5394
   24CHL1   C23 2941   0.679   1.202  17.106  0.4510  0.0724 -0.7204
   24CHL1  H23A 2942   0.662   1.312  17.107  2.1573  0.3596 -0.5708
   24CHL1  H23B 2943   0.786   1.174  17.100  0.7479  1.1862 -0.8704
   24CHL1   C24 2944   0.605   1.139  16.995  0.2199  0.3625 -0.4476
   24CHL1  H24A 2945   0.594   1.032  17.024 -1.7913  0.0648 -2.0283
   24CHL1  H24B 2946   0.495   1.159  16.992  0.2649  0.6920  0.0450
   24CHL1   C25 2947   0.657   1.153  16.854  0.3052 -0.3781 -0.1328
   24CHL1   H25 2948   0.763   1.121  16.844  0.3425 -0.8882  1.5411
   24CHL1   C26 2949   0.584   1.061  16.756  0.0366  0.5803 -0.5809
   24CHL1  H26A 2950   0.599   0.954  16.783 -0.9085  0.4275 -0.6429
   24CHL1  H26B 2951   0.474   1.079  16.760  0.0047  0.1275  1.4150
   24CHL1  H26C 2952   0.620   1.074  16.652 -1.7564 -1.6437 -1.5712
   24CHL1   C27 2953   0.638   1.299  16.798 -0.1810 -0.6583 -0.8554
   24CHL1  H27A 2954   0.672   1.300  16.692 -0.2652 -0.8401 -0.8829
   24CHL1  H27B 2955   0.535   1.336  16.810  0.7769  2.2466 -0.7714
   24CHL1  H27C 2956   0.711   1.359  16.856  0.5717 -1.2792 -1.1329
   25CHL1    C3 2957   3.199   1.417  23.822 -0.6545 -0.1415  0.4301
   25CHL1    H3 2958   3.094   1.385  23.810 -0.5381 -0.2212 -0.3947
   25CHL1    O3 2959   3.267   1.365  23.703  0.2524  0.1619  0.3997
   25CHL1   H3' 2960   3.361   1.370  23.723  0.3190  0.0999  0.1002
   25CHL1    C4 2961   3.208   1.565  23.821 -0.5637 -0.1502  0.0872
   25CHL1   H4A 2962   3.312   1.602  23.809 -0.0452 -0.2653  3.3071
   25CHL1   H4B 2963   3.144   1.594  23.735 -1.1970 -1.2445  0.1655
   25CHL1    C5 2964   3.151   1.625  23.946 -0.8480  0.0636  0.2413
   25CHL1    C6 2965   3.054   1.716  23.946  0.3229  0.3521  0.2210
   25CHL1    H6 2966   3.026   1.750  23.845 -0.4946  3.0469  1.2657
   25CHL1    C7 2967   3.001   1.790  24.064 -0.1786  0.4239 -0.7407
   25CHL1   H7A 2968   3.006   1.900  24.055  0.5363  0.3074 -1.9763
   25CHL1   H7B 2969   2.895   1.758  24.064 -0.2053  0.5079 -0.2311
   25CHL1    C8 2970   3.075   1.750  24.190 -0.1220 -0.5201  0.0768
   25CHL1    H8 2971   3.168   1.811  24.193  0.2188 -1.0634  1.5358
   25CHL1   C14 2972   3.002   1.791  24.314 -0.1690 -0.6614 -0.2134
   25CHL1   H14 2973   2.914   1.724  24.323  0.4154 -1.3843  0.3861
   25CHL1   C15 2974   2.937   1.930  24.314  0.3089 -0.5575 -0.5261
   25CHL1  H15A 2975   2.994   2.008  24.259  1.0667 -0.6013  0.1779
   25CHL1  H15B 2976   2.839   1.926  24.261  1.4374 -0.3286 -2.7643
   25CHL1   C16 2977   2.922   1.973  24.463  0.1606 -0.2745  0.3115
   25CHL1  H16A 2978   2.983   2.065  24.473  1.2822 -1.0032  0.3960
   25CHL1  H16B 2979   2.821   2.002  24.498 -0.1225 -0.3733 -0.3901
   25CHL1   C17 2980   2.971   1.854  24.543  0.7169 -0.3359 -0.0522
   25CHL1   H17 2981   2.889   1.779  24.544  1.6552 -1.3876  1.1630
   25CHL1   C13 2982   3.078   1.791  24.449  0.0495  0.5486  0.3296
   25CHL1   C18 2983   3.205   1.872  24.465  0.3149  0.0863  0.3059
   25CHL1  H18A 2984   3.285   1.835  24.398  1.8271  0.5420  1.7774
   25CHL1  H18B 2985   3.203   1.982  24.448  0.2619  0.2205  1.1029
   25CHL1  H18C 2986   3.255   1.866  24.565  0.1646  1.1940  0.4604
   25CHL1   C12 2987   3.111   1.643  24.463 -0.1388 -0.0859  0.1418
   25CHL1  H12A 2988   3.172   1.620  24.553 -1.2682 -4.5059  0.0158
   25CHL1  H12B 2989   3.016   1.587  24.476  0.4192 -2.1356 -3.2394
   25CHL1   C11 2990   3.189   1.584  24.341 -0.3458 -0.3860 -0.6624
   25CHL1  H11A 2991   3.289   1.630  24.353 -0.8219  0.4155  0.3483
   25CHL1  H11B 2992   3.194   1.474  24.358 -1.2549 -0.2317  0.7285
   25CHL1    C9 2993   3.127   1.608  24.204 -0.7083 -0.4173 -0.5916
   25CHL1    H9 2994   3.036   1.544  24.213 -0.6268 -0.2782  1.8975
   25CHL1   C10 2995   3.212   1.561  24.082  0.0402 -0.4006  0.5849
   25CHL1   C19 2996   3.360   1.606  24.092 -0.4320 -0.2153 -0.5765
   25CHL1  H19A 2997   3.424   1.592  24.002 -1.2720 -0.2752 -1.1661
   25CHL1  H19B 2998   3.352   1.713  24.123 -0.4012  0.2694 -2.1871
   25CHL1  H19C 2999   3.414   1.545  24.168 -2.3560 -0.7567  0.4320
   25CHL1    C1 3000   3.208   1.408  24.074 -0.5043  0.3238  0.2827
   25CHL1   H1A 3001   3.267   1.363  24.157  1.1617  0.0195 -0.9941
   25CHL1   H1B 3002   3.103   1.377  24.088 -1.6294  3.8963  0.7067
   25CHL1    C2 3003   3.268   1.350  23.947  0.6505 -0.8644 -0.0886
   25CHL1   H2A 3004   3.245   1.244  23.922  3.4247 -1.4773 -0.4044
   25CHL1   H2B 3005   3.376   1.377  23.943 -0.2168  3.2327  0.2779
   25CHL1   C20 3006   3.001   1.879  24.695 -0.0560  0.1453 -0.7785
   25CHL1   H20 3007   3.102   1.925  24.689  0.1649 -0.0214  1.1663
   25CHL1   C21 3008   3.027   1.741  24.768 -0.1377  0.5115  0.1807
   25CHL1  H21A 3009   3.108   1.677  24.727 -0.0980  0.7885 -0.1843
   25CHL1  H21B 3010   2.942   1.672  24.749  0.1840  0.1410  0.0763
   25CHL1  H21C 3011   3.060   1.766  24.871 -0.5310  1.6069  0.0541
   25CHL1   C22 3012   2.910   1.982  24.765  0.2131  0.3168 -0.0264
   25CHL1  H22A 3013   2.966   1.997  24.860  1.7718  0.3444 -0.9121
   25CHL1  H22B 3014   2.904   2.077  24.708 -2.1133  0.7850  0.8768
   25CHL1   C23 3015   2.767   1.932  24.803 -0.5684 -0.8594  0.9224
   25CHL1  H23A 3016   2.697   1.955  24.720  2.1831  1.8624 -0.8611
   25CHL1  H23B 3017   2.779   1.822  24.811  0.5622 -0.7624  0.6953
   25CHL1   C24 3018   2.708   1.993  24.929 -0.4003  0.0466  0.3255
   25CHL1  H24A 3019   2.763   1.956  25.018  0.3542 -0.2203 -0.2411
   25CHL1  H24B 3020   2.730   2.101  24.935  1.8090 -0.3552  0.2729
   25CHL1   C25 3021   2.564   1.951  24.944 -0.4764 -0.2879 -0.6218
   25CHL1   H25 3022   2.511   2.000  24.859  0.7511 -2.1519 -2.5812
   25CHL1   C26 3023   2.546   1.800  24.941 -0.0854  0.2496 -0.3362
   25CHL1  H26A 3024   2.552   1.761  24.837  0.0429 -0.8390  0.0642
   25CHL1  H26B 3025   2.629   1.745  24.991 -1.5798 -0.6715  1.2326
   25CHL1  H26C 3026   2.448   1.762  24.976  0.3435 -2.0003 -1.3740
   25CHL1   C27 3027   2.511   2.015  25.082 -0.0955 -0.9084  0.4221
   25CHL1  H27A 3028   2.411   1.971  25.100 -1.3250  1.0373 -1.2422
   25CHL1  H27B 3029   2.580   1.998  25.168 -1.2929 -0.5720  1.4776
   25CHL1  H27C 3030   2.487   2.123  25.069 -0.3743 -1.1797 -1.4716
   26CHL1    C3 3031   0.125   0.165  17.792  0.1901 -0.0587 -0.5085
   26CHL1    H3 3032   0.197   0.083  17.812 -2.3326 -1.9437  1.4152
   26CHL1    O3 3033   0.162   0.280  17.876 -0.3692 -0.5403 -0.6434
   26CHL1   H3' 3034   0.115   0.346  17.825 -0.5152 -0.0695  0.0869
   26CHL1    C4 3035   0.132   0.203  17.645  0.3683  0.5758 -0.5835
   26CHL1   H4A 3036   0.065   0.290  17.632 -0.2035  0.4657  1.2653
   26CHL1   H4B 3037   0.241   0.217  17.629  0.9246 -1.1500  1.2028
   26CHL1    C5 3038   0.098   0.076  17.569  0.3128 -0.2929  0.3848
   26CHL1    C6 3039   0.176   0.014  17.477 -0.3196 -0.0962  0.5017
   26CHL1    H6 3040   0.274   0.056  17.450 -0.0395 -1.0394 -0.0184
   26CHL1    C7 3041   0.131  -0.099  17.388  0.0592  0.5600 -0.4745
   26CHL1   H7A 3042   0.162  -0.090  17.282 -1.2899  0.1222 -0.9281
   26CHL1   H7B 3043   0.177  -0.178  17.451 -2.1067  0.8070  1.5833
   26CHL1    C8 3044  -0.020  -0.134  17.394 -0.0156 -1.0867 -0.7948
   26CHL1    H8 3045  -0.088  -0.066  17.337 -1.9083 -0.9042  1.5048
   26CHL1   C14 3046  -0.028  -0.282  17.352  0.2453 -0.2646  0.6860
   26CHL1   H14 3047   0.042  -0.337  17.419  0.6637 -1.3578 -0.6150
   26CHL1   C15 3048   0.021  -0.322  17.214  0.1022  0.8476  0.2415
   26CHL1  H15A 3049  -0.014  -0.255  17.133  1.3567  1.1084 -0.1084
   26CHL1  H15B 3050   0.132  -0.325  17.208  0.0203 -0.2183 -1.3410
   26CHL1   C16 3051  -0.042  -0.462  17.200 -1.1724  0.3393  0.9321
   26CHL1  H16A 3052  -0.081  -0.474  17.097 -0.4334  1.4252  0.5083
   26CHL1  H16B 3053   0.022  -0.551  17.218  0.0827  1.5223  2.7060
   26CHL1   C17 3054  -0.151  -0.469  17.316  1.2173 -0.9361 -0.3937
   26CHL1   H17 3055  -0.101  -0.519  17.401  0.2985 -0.3969  0.4783
   26CHL1   C13 3056  -0.169  -0.334  17.371 -0.5046  0.5503 -0.4458
   26CHL1   C18 3057  -0.260  -0.257  17.273  0.5697  0.2167  0.3482
   26CHL1  H18A 3058  -0.225  -0.266  17.168  0.4469  4.0451 -0.1417
   26CHL1  H18B 3059  -0.367  -0.288  17.278 -0.3527  3.0966 -0.1526
   26CHL1  H18C 3060  -0.269  -0.147  17.283 -1.2841  0.2865 -1.5606
   26CHL1   C12 3061  -0.212  -0.325  17.521 -0.7838  0.2791  0.5960
   26CHL1  H12A 3062  -0.310  -0.375  17.537 -1.1133 -0.1032 -2.1405
   26CHL1  H12B 3063  -0.138  -0.376  17.586  1.7140  3.1091  0.1938
   26CHL1   C11 3064  -0.207  -0.181  17.563  0.8583  0.0296 -0.7271
   26CHL1  H11A 3065  -0.286  -0.116  17.519 -0.5548 -0.8104  0.4846
   26CHL1  H11B 3066  -0.216  -0.193  17.673 -3.3595 -0.7283 -0.9899
   26CHL1    C9 3067  -0.066  -0.117  17.542 -0.0219  0.0569 -0.3545
   26CHL1    H9 3068   0.003  -0.184  17.599 -0.9202  1.8321  3.0936
   26CHL1   C10 3069  -0.044   0.019  17.609 -0.2253  0.9105 -0.8498
   26CHL1   C19 3070  -0.144   0.125  17.563  0.5909 -0.5169  0.0205
   26CHL1  H19A 3071  -0.136   0.215  17.628  1.1004  1.0887 -2.1628
   26CHL1  H19B 3072  -0.133   0.153  17.456  0.3775 -1.6772 -0.3140
   26CHL1  H19C 3073  -0.248   0.087  17.568  1.3273 -2.5671  1.0071
   26CHL1    C1 3074  -0.050  -0.002  17.764  0.1991 -0.1082  0.0232
   26CHL1   H1A 3075  -0.156  -0.029  17.787 -0.6060  3.3242  0.9202
   26CHL1   H1B 3076   0.016  -0.083  17.800  0.9294  1.4995  2.5529
   26CHL1    C2 3077  -0.012   0.125  17.842  0.2290  0.1841  0.2444
   26CHL1   H2A 3078  -0.013   0.104  17.951 -1.1361  2.0342  0.6184
   26CHL1   H2B 3079  -0.081   0.209  17.818  1.5339  0.9714 -0.9523
   26CHL1   C20 3080  -0.272  -0.557  17.288  0.3450  0.2230  0.0300
   26CHL1   H20 3081  -0.351  -0.532  17.362  1.1874 -0.0226  1.0364
   26CHL1   C21 3082  -0.231  -0.698  17.325  0.2099  0.0579 -0.0982
   26CHL1  H21A 3083  -0.226  -0.699  17.436 -1.5013  1.0531  0.0177
   26CHL1  H21B 3084  -0.136  -0.724  17.272 -0.0951  0.6457 -0.9568
   26CHL1  H21C 3085  -0.306  -0.775  17.299  0.7510 -0.7411  0.6653
   26CHL1   C22 3086  -0.339  -0.548  17.144  0.4370  0.0894  0.3999
   26CHL1  H22A 3087  -0.358  -0.440  17.129 -1.3347 -0.2672 -0.2267
   26CHL1  H22B 3088  -0.277  -0.576  17.056 -1.4372  1.3205 -1.4029
   26CHL1   C23 3089  -0.479  -0.622  17.127 -0.1106 -0.0075  0.2948
   26CHL1  H23A 3090  -0.493  -0.721  17.176 -0.3917  0.6495  1.5644
   26CHL1  H23B 3091  -0.550  -0.550  17.172  0.3456 -0.1406  1.2598
   26CHL1   C24 3092  -0.517  -0.641  16.975  0.4316  0.4437  0.5385
   26CHL1  H24A 3093  -0.535  -0.536  16.944  1.1500  0.4350  0.0439
   26CHL1  H24B 3094  -0.429  -0.685  16.922  1.9276  0.8982  2.5011
   26CHL1   C25 3095  -0.638  -0.733  16.952  0.5138 -0.0956 -0.6551
   26CHL1   H25 3096  -0.627  -0.824  17.014  0.3468  1.9724  2.7101
   26CHL1   C26 3097  -0.765  -0.654  16.981 -0.2418  0.6527  0.1355
   26CHL1  H26A 3098  -0.759  -0.554  16.933 -0.8823  2.1492  2.9677
   26CHL1  H26B 3099  -0.854  -0.716  16.955  0.3914  0.3215 -1.3766
   26CHL1  H26C 3100  -0.775  -0.618  17.085 -1.9345  0.1434  0.1806
   26CHL1   C27 3101  -0.645  -0.787  16.808 -0.5014  0.3139 -1.0085
   26CHL1  H27A 3102  -0.543  -0.821  16.781  0.4586  2.7133 -0.6836
   26CHL1  H27B 3103  -0.716  -0.871  16.792 -0.5927 -0.7705  3.7073
   26CHL1  H27C 3104  -0.668  -0.710  16.731 -2.1127 -0.2222 -1.0949
   27CHL1    C3 3105   2.754   0.772  17.365 -0.6847 -0.3874 -0.0849
   27CHL1    H3 3106   2.796   0.694  17.432  1.4389  0.0867 -0.8108
   27CHL1    O3 3107   2.714   0.872  17.458  0.4414 -0.0052 -0.2563
   27CHL1   H3' 3108   2.714   0.952  17.405 -1.3284 -0.1850 -0.5911
   27CHL1    C4 3109   2.859   0.833  17.269 -0.2565  0.9681  0.3793
   27CHL1   H4A 3110   2.819   0.929  17.228  0.3910  0.2223 -2.1736
   27CHL1   H4B 3111   2.944   0.864  17.333  1.0607  0.8570 -1.2606
   27CHL1    C5 3112   2.900   0.748  17.150 -0.1207 -0.5467 -0.3547
   27CHL1    C6 3113   3.028   0.721  17.117 -0.0626  0.2839 -0.1541
   27CHL1    H6 3114   3.109   0.756  17.183  1.6902 -0.6672 -1.7109
   27CHL1    C7 3115   3.073   0.635  17.001  0.4873  0.2520 -0.0490
   27CHL1   H7A 3116   3.159   0.677  16.944  1.3823 -0.4764  0.7326
   27CHL1   H7B 3117   3.097   0.536  17.045 -2.1656  1.1573  3.9731
   27CHL1    C8 3118   2.964   0.614  16.907 -0.0755  0.1333 -0.3323
   27CHL1    H8 3119   2.948   0.707  16.847  0.7897  0.8292  0.4831
   27CHL1   C14 3120   3.006   0.517  16.801 -0.5922  0.0376  0.0710
   27CHL1   H14 3121   3.026   0.428  16.863 -4.0882 -0.2318  1.0620
   27CHL1   C15 3122   3.133   0.546  16.720 -0.8815  0.4256 -1.1027
   27CHL1  H15A 3123   3.126   0.646  16.672  1.2989 -0.2327 -2.9350
   27CHL1  H15B 3124   3.225   0.532  16.782 -1.1753  0.9434 -0.5372
   27CHL1   C16 3125   3.127   0.446  16.604  0.5259  0.0671  1.2227
   27CHL1  H16A 3126   3.150   0.487  16.503 -2.0057 -1.7744 -0.2172
   27CHL1  H16B 3127   3.202   0.366  16.626  0.0536 -1.1726 -1.3222
   27CHL1   C17 3128   2.987   0.382  16.606  0.1001  0.3059  0.1838
   27CHL1   H17 3129   2.991   0.287  16.665 -2.2759 -0.1556 -0.3165
   27CHL1   C13 3130   2.901   0.479  16.690 -0.1289 -0.0027 -0.2198
   27CHL1   C18 3131   2.859   0.603  16.603 -0.2012 -1.1229 -0.4299
   27CHL1  H18A 3132   2.777   0.573  16.535  0.0758 -2.3155 -0.2678
   27CHL1  H18B 3133   2.826   0.676  16.680  2.5934 -1.3790  1.1245
   27CHL1  H18C 3134   2.947   0.645  16.551  0.2417 -2.2565 -0.6243
   27CHL1   C12 3135   2.778   0.422  16.767 -0.1345  0.5629 -0.0616
   27CHL1  H12A 3136   2.690   0.398  16.704 -2.5853 -0.0459  3.3512
   27CHL1  H12B 3137   2.818   0.330  16.813  0.7634  0.1211 -1.6571
   27CHL1   C11 3138   2.732   0.513  16.885 -0.0260  0.2430 -0.1458
   27CHL1  H11A 3139   2.683   0.602  16.841  0.0411  0.3546  0.0030
   27CHL1  H11B 3140   2.650   0.461  16.940 -1.0528 -0.7577 -2.5167
   27CHL1    C9 3141   2.835   0.567  16.984  0.8649  0.5106 -0.1012
   27CHL1    H9 3142   2.866   0.481  17.047 -0.0527 -2.3415 -3.2428
   27CHL1   C10 3143   2.782   0.680  17.079  0.0424  0.0242 -0.2766
   27CHL1   C19 3144   2.721   0.799  16.994  0.5221 -0.1605 -0.5909
   27CHL1  H19A 3145   2.699   0.884  17.062  1.5993 -1.6138  1.6725
   27CHL1  H19B 3146   2.809   0.826  16.932  0.1151 -0.4950 -1.3277
   27CHL1  H19C 3147   2.628   0.769  16.941  0.7363 -0.1206 -0.9963
   27CHL1    C1 3148   2.682   0.619  17.174  0.0346 -0.1017 -0.4631
   27CHL1   H1A 3149   2.594   0.598  17.110  0.0240 -2.1109  0.1358
   27CHL1   H1B 3150   2.712   0.523  17.219 -1.3709 -0.5914 -0.5049
   27CHL1    C2 3151   2.634   0.711  17.292 -0.1221  0.0009  0.3774
   27CHL1   H2A 3152   2.574   0.645  17.358 -0.9212  1.8350  1.5538
   27CHL1   H2B 3153   2.575   0.792  17.245  0.0747  0.5339  1.0488
   27CHL1   C20 3154   2.934   0.348  16.472  0.8922  0.6604 -0.8128
   27CHL1   H20 3155   2.937   0.438  16.407  1.2214  0.7538 -0.6691
   27CHL1   C21 3156   2.792   0.303  16.473  0.4093 -0.1325 -0.3146
   27CHL1  H21A 3157   2.724   0.387  16.501  0.9181 -0.0977  0.8931
   27CHL1  H21B 3158   2.760   0.222  16.542  1.5993 -1.8522 -1.6867
   27CHL1  H21C 3159   2.763   0.272  16.370 -1.1683 -0.2831  0.1569
   27CHL1   C22 3160   3.021   0.236  16.408 -0.0517  0.0828  0.1063
   27CHL1  H22A 3161   3.129   0.260  16.411 -0.3850  1.6664  0.5375
   27CHL1  H22B 3162   2.995   0.144  16.464 -1.3858  1.7234  2.3428
   27CHL1   C23 3163   2.984   0.217  16.256 -0.0275  0.1047 -0.9359
   27CHL1  H23A 3164   2.881   0.178  16.244 -0.6940  1.4668  0.0793
   27CHL1  H23B 3165   2.976   0.317  16.208 -1.3713  0.3005 -0.3327
   27CHL1   C24 3166   3.079   0.122  16.188 -0.7309 -0.7125  0.0870
   27CHL1  H24A 3167   3.185   0.156  16.180 -0.6467 -1.1893 -1.0776
   27CHL1  H24B 3168   3.068   0.027  16.243 -2.9151 -1.0982 -0.9333
   27CHL1   C25 3169   3.044   0.085  16.038  0.8187  0.7491  0.3489
   27CHL1   H25 3170   3.113   0.002  16.011 -1.5656 -1.0299 -0.6254
   27CHL1   C26 3171   2.899   0.027  16.022 -0.0511  0.7095 -0.6728
   27CHL1  H26A 3172   2.821   0.104  16.042 -2.2088 -1.6819  0.7043
   27CHL1  H26B 3173   2.892  -0.008  15.917  0.6059 -1.5315 -0.0147
   27CHL1  H26C 3174   2.882  -0.052  16.097 -2.8974  2.9291  1.2585
   27CHL1   C27 3175   3.056   0.207  15.946 -0.3357  0.7885  0.4027
   27CHL1  H27A 3176   3.025   0.183  15.842  5.0776 -0.6957 -1.2204
   27CHL1  H27B 3177   3.166   0.215  15.933 -0.0055 -2.1195  0.7462
   27CHL1  H27C 3178   3.013   0.305  15.976  2.4010  1.5171  2.3223
   28CHL1    C3 3179   3.201   0.507  25.631  0.4751  0.6568 -0.0372
   28CHL1    H3 3180   3.236   0.404  25.613 -0.6460  0.4816 -1.4208
   28CHL1    O3 3181   3.217   0.528  25.772  0.0944 -0.3848 -0.3079
   28CHL1   H3' 3182   3.187   0.618  25.785 -0.2293 -0.8442  3.1364
   28CHL1    C4 3183   3.312   0.600  25.566 -0.2852 -0.1138  0.1509
   28CHL1   H4A 3184   3.301   0.707  25.596 -0.0176 -0.0741  0.1127
   28CHL1   H4B 3185   3.412   0.562  25.596  1.2081  1.0780 -2.8569
   28CHL1    C5 3186   3.299   0.592  25.407  1.2465 -0.0009 -0.1108
   28CHL1    C6 3187   3.409   0.570  25.330  0.5000  0.6275 -1.0037
   28CHL1    H6 3188   3.509   0.555  25.374  1.3201  2.0338 -2.2625
   28CHL1    C7 3189   3.403   0.575  25.180  0.4008  0.0761  0.1610
   28CHL1   H7A 3190   3.490   0.636  25.151  1.6837 -1.5570  0.4516
   28CHL1   H7B 3191   3.422   0.471  25.146  1.7532 -0.0424  1.2102
   28CHL1    C8 3192   3.268   0.633  25.116 -0.4784  0.1560  0.0862
   28CHL1    H8 3193   3.259   0.744  25.117 -1.4334  0.1143 -1.1982
   28CHL1   C14 3194   3.254   0.576  24.975 -0.2062 -0.0272  0.2372
   28CHL1   H14 3195   3.250   0.465  24.979 -0.7532 -0.0816 -1.1981
   28CHL1   C15 3196   3.368   0.596  24.876  0.5989  0.0296  0.2150
   28CHL1  H15A 3197   3.393   0.704  24.886 -1.1145  0.4206  0.7167
   28CHL1  H15B 3198   3.461   0.536  24.879 -0.0719 -1.0103  2.3374
   28CHL1   C16 3199   3.295   0.578  24.743  0.8394 -0.2885  1.2779
   28CHL1  H16A 3200   3.301   0.668  24.678  1.6056 -0.1542  1.5265
   28CHL1  H16B 3201   3.333   0.489  24.688 -0.2204  0.6906 -1.2036
   28CHL1   C17 3202   3.142   0.552  24.759 -0.3249  0.6123  0.1922
   28CHL1   H17 3203   3.121   0.444  24.778 -2.0483  0.5818 -1.5979
   28CHL1   C13 3204   3.122   0.615  24.901 -0.7003 -0.2285  0.2006
   28CHL1   C18 3205   3.126   0.767  24.879 -0.1690  0.6606 -0.0015
   28CHL1  H18A 3206   3.031   0.803  24.834 -1.1000 -2.0985 -0.4325
   28CHL1  H18B 3207   3.148   0.833  24.965  0.6138  0.4142 -0.0011
   28CHL1  H18C 3208   3.206   0.789  24.805  0.7278 -3.1709 -0.3570
   28CHL1   C12 3209   2.999   0.589  24.982  0.6486  0.2782 -0.4755
   28CHL1  H12A 3210   2.907   0.642  24.947  0.0976 -0.7717 -0.6488
   28CHL1  H12B 3211   2.984   0.480  24.995  1.9563  0.0626 -0.6334
   28CHL1   C11 3212   3.014   0.634  25.131  0.2009 -0.0018  0.7998
   28CHL1  H11A 3213   3.021   0.744  25.122  0.6265  0.1054  2.2108
   28CHL1  H11B 3214   2.925   0.611  25.194  0.5320  0.1302  1.3263
   28CHL1    C9 3215   3.148   0.584  25.199  0.0760 -0.2554  0.0085
   28CHL1    H9 3216   3.159   0.474  25.188 -2.3115 -0.6147  0.5311
   28CHL1   C10 3217   3.155   0.611  25.347 -0.1817 -0.4873 -0.6877
   28CHL1   C19 3218   3.109   0.754  25.377 -0.1859 -0.8562  0.2832
   28CHL1  H19A 3219   3.006   0.774  25.342  0.7123  0.2974 -1.9734
   28CHL1  H19B 3220   3.110   0.778  25.485  2.7351 -1.2226  0.4211
   28CHL1  H19C 3221   3.173   0.832  25.329  1.2180 -0.7520  2.2098
   28CHL1    C1 3222   3.054   0.512  25.420 -0.0000 -0.2874 -0.4321
   28CHL1   H1A 3223   2.948   0.516  25.386 -0.5290  2.1302  1.2397
   28CHL1   H1B 3224   3.088   0.406  25.418 -1.5794 -0.8755  1.1153
   28CHL1    C2 3225   3.063   0.526  25.573 -0.1370  0.2442 -0.4058
   28CHL1   H2A 3226   2.997   0.455  25.627  0.3443 -1.8764 -2.4445
   28CHL1   H2B 3227   3.025   0.622  25.614 -0.8262  0.4850 -1.5875
   28CHL1   C20 3228   3.059   0.599  24.636  0.0532 -0.0499 -0.1108
   28CHL1   H20 3229   3.058   0.710  24.629 -2.0230 -0.0835 -1.7195
   28CHL1   C21 3230   2.912   0.560  24.653 -0.2875  0.2371 -0.1196
   28CHL1  H21A 3231   2.899   0.450  24.658 -1.8024  0.4385  1.4546
   28CHL1  H21B 3232   2.843   0.593  24.572 -2.4798  0.6452  1.7959
   28CHL1  H21C 3233   2.875   0.616  24.742 -1.5808  1.0567 -1.1311
   28CHL1   C22 3234   3.106   0.538  24.503 -0.4338 -0.1979 -0.7180
   28CHL1  H22A 3235   3.039   0.577  24.423 -1.3448 -0.7434 -0.2344
   28CHL1  H22B 3236   3.211   0.572  24.489 -0.7005  0.1136 -2.0930
   28CHL1   C23 3237   3.113   0.382  24.479 -0.5602  0.3119 -0.3224
   28CHL1  H23A 3238   3.154   0.346  24.575  1.4807 -0.5481 -1.4521
   28CHL1  H23B 3239   3.010   0.344  24.458 -1.5394  2.3948  0.4484
   28CHL1   C24 3240   3.216   0.340  24.373  0.4534  0.2886 -0.1844
   28CHL1  H24A 3241   3.187   0.397  24.282 -1.0265  0.0612  0.1157
   28CHL1  H24B 3242   3.323   0.363  24.392  0.7422  0.5908 -2.0015
   28CHL1   C25 3243   3.204   0.194  24.342 -0.2163 -0.2301 -0.1778
   28CHL1   H25 3244   3.141   0.148  24.421 -0.0419 -0.7879 -0.3616
   28CHL1   C26 3245   3.121   0.168  24.216  1.0904  0.3005  0.2094
   28CHL1  H26A 3246   3.019   0.208  24.236  0.4284 -0.8324 -0.7836
   28CHL1  H26B 3247   3.161   0.223  24.129  0.7040  1.5541  0.7908
   28CHL1  H26C 3248   3.122   0.059  24.197 -1.4959  0.2369  0.1023
   28CHL1   C27 3249   3.341   0.122  24.340  0.6210 -0.1207  0.7205
   28CHL1  H27A 3250   3.391   0.116  24.439  0.0907  0.6164  1.0474
   28CHL1  H27B 3251   3.331   0.015  24.313  2.4253 -0.1755  0.1434
   28CHL1  H27C 3252   3.412   0.172  24.272 -0.5229  0.3051 -0.2008
   29CHL1    C3 3253   1.774   0.816  18.275  0.6375  0.3837  0.3801
   29CHL1    H3 3254   1.856   0.758  18.323  0.7964 -0.5746 -1.0056
   29CHL1    O3 3255   1.806   0.961  18.276 -0.2012  0.4437 -0.2498
   29CHL1   H3' 3256   1.727   1.013  18.292  0.0710  0.4714  1.0919
   29CHL1    C4 3257   1.768   0.769  18.128  0.4454  0.2424 -0.2359
   29CHL1   H4A 3258   1.687   0.820  18.072 -1.1533 -0.7081  1.1387
   29CHL1   H4B 3259   1.865   0.802  18.084  0.6727 -0.2944 -0.1453
   29CHL1    C5 3260   1.734   0.621  18.131 -0.9561  0.1886 -0.6525
   29CHL1    C6 3261   1.811   0.541  18.053 -0.2429  0.2646 -0.1552
   29CHL1    H6 3262   1.904   0.585  18.015  0.1355  0.8234  1.3524
   29CHL1    C7 3263   1.791   0.393  18.027  0.2094  0.4339 -0.7890
   29CHL1   H7A 3264   1.782   0.362  17.921  0.7346  0.8984 -0.9670
   29CHL1   H7B 3265   1.874   0.337  18.074  1.1022  0.1556 -2.6161
   29CHL1    C8 3266   1.659   0.342  18.097 -0.4071  0.0032  0.3888
   29CHL1    H8 3267   1.577   0.362  18.025 -0.2615 -0.1754  0.1690
   29CHL1   C14 3268   1.674   0.190  18.113  0.0446 -0.2600  0.1152
   29CHL1   H14 3269   1.745   0.170  18.196 -1.1519  1.9569  1.7708
   29CHL1   C15 3270   1.716   0.096  17.994 -0.4491 -1.0415  0.5211
   29CHL1  H15A 3271   1.683   0.140  17.897  0.1738 -2.2911 -0.2942
   29CHL1  H15B 3272   1.826   0.111  17.985 -0.7202  0.4947 -0.6791
   29CHL1   C16 3273   1.643  -0.034  18.012 -0.0514  0.2273  0.0454
   29CHL1  H16A 3274   1.571  -0.053  17.929  3.5613 -0.3889 -3.2569
   29CHL1  H16B 3275   1.718  -0.113  17.992  2.4738  2.8428 -1.5048
   29CHL1   C17 3276   1.569  -0.032  18.150 -0.6215 -0.9551  0.8174
   29CHL1   H17 3277   1.642  -0.068  18.225 -0.8424  0.0667  1.5349
   29CHL1   C13 3278   1.548   0.131  18.164  0.1401 -0.2343 -0.4762
   29CHL1   C18 3279   1.426   0.163  18.073  0.2527  0.7802 -0.4574
   29CHL1  H18A 3280   1.407   0.271  18.054 -0.7704  1.0141  1.6458
   29CHL1  H18B 3281   1.433   0.100  17.982  0.6283  0.5700 -0.2838
   29CHL1  H18C 3282   1.337   0.122  18.125  0.9108  0.2009  0.2415
   29CHL1   C12 3283   1.525   0.187  18.306 -0.1891 -0.2719 -0.2284
   29CHL1  H12A 3284   1.425   0.158  18.343 -0.1987 -1.5219 -1.1755
   29CHL1  H12B 3285   1.609   0.146  18.366  0.1057  2.3203  1.2533
   29CHL1   C11 3286   1.520   0.341  18.312  0.3999 -0.2541 -0.3548
   29CHL1  H11A 3287   1.423   0.373  18.269 -0.3961 -1.2771  0.5937
   29CHL1  H11B 3288   1.518   0.368  18.420 -2.1813 -0.4410 -0.2917
   29CHL1    C9 3289   1.628   0.410  18.233 -0.4435  0.4284  0.2298
   29CHL1    H9 3290   1.717   0.395  18.298 -0.8935  3.1789  1.6130
   29CHL1   C10 3291   1.622   0.562  18.217 -0.0933 -0.0408 -0.2073
   29CHL1   C19 3292   1.496   0.603  18.147  0.1238 -0.0534 -0.1602
   29CHL1  H19A 3293   1.486   0.564  18.043 -0.4200  2.2212 -1.0160
   29CHL1  H19B 3294   1.411   0.570  18.211  0.2901 -3.2562 -1.3791
   29CHL1  H19C 3295   1.489   0.712  18.127  1.6208  0.3322  1.1817
   29CHL1    C1 3296   1.625   0.630  18.364  0.4491  0.5468 -0.3089
   29CHL1   H1A 3297   1.523   0.611  18.402  1.1011 -0.6507  0.9512
   29CHL1   H1B 3298   1.702   0.582  18.429  0.2169 -0.8693 -1.0257
   29CHL1    C2 3299   1.643   0.781  18.351 -0.8702  0.0061 -0.2577
   29CHL1   H2A 3300   1.631   0.834  18.447 -0.2656 -1.9272  0.9600
   29CHL1   H2B 3301   1.561   0.820  18.288 -0.9598  1.7250  0.8583
   29CHL1   C20 3302   1.446  -0.121  18.165  0.4176  1.2456 -0.9471
   29CHL1   H20 3303   1.362  -0.084  18.103 -1.1070  2.4666  1.6835
   29CHL1   C21 3304   1.406  -0.130  18.318 -1.0918  0.0093  0.1232
   29CHL1  H21A 3305   1.474  -0.188  18.384 -1.4198 -1.1526 -0.5349
   29CHL1  H21B 3306   1.306  -0.177  18.318 -1.7949  1.3873  1.7951
   29CHL1  H21C 3307   1.395  -0.030  18.364  1.2524  0.2388  0.3345
   29CHL1   C22 3308   1.473  -0.271  18.116  0.0560  0.3631  0.1659
   29CHL1  H22A 3309   1.577  -0.298  18.145  0.2261  3.6639  3.3199
   29CHL1  H22B 3310   1.412  -0.343  18.176 -1.9240 -1.0113 -3.2296
   29CHL1   C23 3311   1.426  -0.303  17.972 -0.0704  0.0243 -0.1104
   29CHL1  H23A 3312   1.317  -0.281  17.973  0.1354  1.0829  0.1125
   29CHL1  H23B 3313   1.489  -0.235  17.911  1.3465 -0.3472  0.8980
   29CHL1   C24 3314   1.439  -0.454  17.927  0.7797 -0.6467 -0.9984
   29CHL1  H24A 3315   1.546  -0.479  17.916  0.6257 -1.9818  0.2102
   29CHL1  H24B 3316   1.388  -0.513  18.006  2.6157 -2.2133 -0.9103
   29CHL1   C25 3317   1.373  -0.469  17.785  0.0300  0.4418 -0.7767
   29CHL1   H25 3318   1.264  -0.449  17.791 -0.4157 -1.9476 -0.1022
   29CHL1   C26 3319   1.442  -0.373  17.689 -0.2158 -0.5374  0.1172
   29CHL1  H26A 3320   1.547  -0.410  17.684  0.5558  0.8562  3.6171
   29CHL1  H26B 3321   1.405  -0.392  17.585  1.8874  3.7229 -1.6415
   29CHL1  H26C 3322   1.450  -0.263  17.702  1.9876 -0.5582 -0.6181
   29CHL1   C27 3323   1.387  -0.612  17.732 -0.3375  0.3449  0.1541
   29CHL1  H27A 3324   1.495  -0.628  17.716 -0.5621  0.7535 -2.2071
   29CHL1  H27B 3325   1.354  -0.690  17.804  0.8099  0.5741  0.9553
   29CHL1  H27C 3326   1.340  -0.634  17.634  0.1465 -0.2848  0.0620
   30CHL1    C3 3327   3.116   1.551  17.111 -0.1987 -0.0720 -0.0441
   30CHL1    H3 3328   3.020   1.597  17.080  0.9524  0.5848 -2.8903
   30CHL1    O3 3329   3.109   1.513  17.247  0.1850  0.2933 -0.0986
   30CHL1   H3' 3330   3.200   1.512  17.278 -0.3706  0.2369  1.6260
   30CHL1    C4 3331   3.122   1.423  17.024  0.2011 -0.4142  0.7718
   30CHL1   H4A 3332   3.211   1.364  17.052  2.3590  2.7146  1.0495
   30CHL1   H4B 3333   3.030   1.368  17.053 -0.6101  0.5786  0.1583
   30CHL1    C5 3334   3.135   1.445  16.881  0.1150 -0.0079  1.0066
   30CHL1    C6 3335   3.050   1.393  16.798 -0.2254  0.4973  0.6172
   30CHL1    H6 3336   2.973   1.323  16.834  1.3286 -1.5316  0.1424
   30CHL1    C7 3337   3.050   1.403  16.648  0.3416 -0.3286 -0.3589
   30CHL1   H7A 3338   3.041   1.303  16.600  0.7871 -1.0100  0.9287
   30CHL1   H7B 3339   2.965   1.464  16.612  0.4523 -0.8334 -1.5171
   30CHL1    C8 3340   3.182   1.472  16.607  0.6708 -0.1046 -0.6021
   30CHL1    H8 3341   3.264   1.398  16.618  1.1871  0.5101 -0.2748
   30CHL1   C14 3342   3.170   1.513  16.461 -0.0828 -0.6474  0.1093
   30CHL1   H14 3343   3.086   1.585  16.466  0.5152  0.1454 -0.9076
   30CHL1   C15 3344   3.137   1.404  16.351 -0.4350 -0.1965  0.4550
   30CHL1  H15A 3345   3.212   1.323  16.365 -1.0738 -1.2297 -1.7375
   30CHL1  H15B 3346   3.040   1.350  16.359 -1.5689  1.5305 -1.0090
   30CHL1   C16 3347   3.151   1.477  16.222  0.0994  0.0847  0.2040
   30CHL1  H16A 3348   3.193   1.407  16.148  0.8763 -0.9275  1.5526
   30CHL1  H16B 3349   3.052   1.507  16.182  0.8095 -0.4924 -2.1216
   30CHL1   C17 3350   3.224   1.606  16.258 -0.2669  0.5752  0.3293
   30CHL1   H17 3351   3.150   1.688  16.264  0.3588  1.2666 -1.0530
   30CHL1   C13 3352   3.285   1.598  16.399  0.0512 -0.3584  0.6141
   30CHL1   C18 3353   3.415   1.526  16.387  0.2130 -0.6416 -0.4017
   30CHL1  H18A 3354   3.460   1.522  16.489  0.7760  0.8593 -0.5583
   30CHL1  H18B 3355   3.389   1.430  16.340  0.0769 -0.6362 -0.3362
   30CHL1  H18C 3356   3.498   1.573  16.330 -0.5669 -0.0974 -1.1170
   30CHL1   C12 3357   3.301   1.725  16.488  0.6266  0.0232 -0.4800
   30CHL1  H12A 3358   3.386   1.789  16.456  0.1319 -0.6602 -3.4605
   30CHL1  H12B 3359   3.210   1.784  16.465  1.9436  1.4695 -2.3290
   30CHL1   C11 3360   3.319   1.693  16.640  0.0073 -0.2349  0.3017
   30CHL1  H11A 3361   3.424   1.663  16.661  0.3579  0.5498 -0.2547
   30CHL1  H11B 3362   3.319   1.786  16.700  3.4133 -1.2393  2.1363
   30CHL1    C9 3363   3.215   1.593  16.701 -0.2472  1.1570  0.9802
   30CHL1    H9 3364   3.119   1.649  16.701 -0.6438  0.4965 -0.0176
   30CHL1   C10 3365   3.241   1.555  16.847  0.0800 -0.4313 -0.0943
   30CHL1   C19 3366   3.382   1.479  16.855 -0.2668  0.8952  0.1415
   30CHL1  H19A 3367   3.464   1.550  16.833  2.3540 -1.0922  2.6877
   30CHL1  H19B 3368   3.397   1.434  16.955 -1.1543 -0.3316 -0.2500
   30CHL1  H19C 3369   3.376   1.394  16.783  0.2213  0.6414  0.3934
   30CHL1    C1 3370   3.233   1.675  16.943 -0.2940 -1.0172 -0.3974
   30CHL1   H1A 3371   3.325   1.732  16.921 -1.4678  1.2268  0.2204
   30CHL1   H1B 3372   3.140   1.731  16.920 -0.9114  0.0216  3.9331
   30CHL1    C2 3373   3.231   1.639  17.093 -0.9881  0.2782  0.9188
   30CHL1   H2A 3374   3.213   1.734  17.148  0.2040 -0.3304  2.4298
   30CHL1   H2B 3375   3.328   1.591  17.121 -0.0834  1.6718  0.2904
   30CHL1   C20 3376   3.325   1.656  16.147 -0.3414 -0.2529  0.1322
   30CHL1   H20 3377   3.396   1.570  16.147  0.5544  0.4726 -0.6329
   30CHL1   C21 3378   3.398   1.791  16.184  0.1982 -0.0034  0.4475
   30CHL1  H21A 3379   3.470   1.779  16.267 -0.9672 -0.4828  1.4218
   30CHL1  H21B 3380   3.329   1.875  16.209  0.1535  0.0625  0.1129
   30CHL1  H21C 3381   3.471   1.822  16.107  2.4922  0.6418  2.7349
   30CHL1   C22 3382   3.251   1.661  16.009 -0.0265 -0.1552 -0.0913
   30CHL1  H22A 3383   3.213   1.562  15.976  0.5703 -0.4618  0.1327
   30CHL1  H22B 3384   3.165   1.731  16.018  1.0699  1.1871  0.3402
   30CHL1   C23 3385   3.335   1.716  15.889 -0.1809  0.0311 -0.3981
   30CHL1  H23A 3386   3.345   1.823  15.916 -0.6168 -0.1792  0.6685
   30CHL1  H23B 3387   3.437   1.674  15.886 -0.4037 -0.5330 -3.6373
   30CHL1   C24 3388   3.265   1.696  15.757  0.1287 -0.3538  0.3939
   30CHL1  H24A 3389   3.294   1.597  15.715 -0.6384 -0.4495  0.0808
   30CHL1  H24B 3390   3.157   1.693  15.782  0.0180 -3.5220  0.0412
   30CHL1   C25 3391   3.297   1.800  15.655  0.0144 -0.8119 -0.5381
   30CHL1   H25 3392   3.266   1.898  15.697 -0.2713 -0.7704 -0.8427
   30CHL1   C26 3393   3.445   1.820  15.611  0.5822 -0.1806  0.2271
   30CHL1  H26A 3394   3.501   1.839  15.705  1.8111 -1.7305 -0.1528
   30CHL1  H26B 3395   3.494   1.727  15.576 -0.5227 -1.5715  2.1974
   30CHL1  H26C 3396   3.463   1.904  15.541 -1.7579  1.5169  1.5195
   30CHL1   C27 3397   3.209   1.778  15.531 -0.4070  0.0097 -0.5651
   30CHL1  H27A 3398   3.104   1.796  15.564  0.0522 -0.8102  1.4805
   30CHL1  H27B 3399   3.230   1.848  15.448 -0.8913  1.3112  0.3652
   30CHL1  H27C 3400   3.237   1.676  15.498 -0.3261 -0.7108  1.6002
   31CHL1    C3 3401   2.183   2.478  17.980 -0.0912  0.8764 -0.0903
   31CHL1    H3 3402   2.170   2.445  17.875  0.2998  1.7049 -0.4045
   31CHL1    O3 3403   2.120   2.392  18.076  0.6017  0.6377  0.5619
   31CHL1   H3' 3404   2.146   2.303  18.049 -1.0280  0.1777  0.4121
   31CHL1    C4 3405   2.333   2.477  18.019  0.4628  0.3203 -0.1712
   31CHL1   H4A 3406   2.346   2.504  18.126  2.1576  0.3863 -0.3653
   31CHL1   H4B 3407   2.376   2.375  18.007 -2.5724 -1.0224 -0.5001
   31CHL1    C5 3408   2.402   2.581  17.933  0.5662 -1.1617  0.3936
   31CHL1    C6 3409   2.500   2.553  17.853  0.2815  0.4073  0.0400
   31CHL1    H6 3410   2.533   2.448  17.858 -2.0630 -0.3907 -0.1438
   31CHL1    C7 3411   2.579   2.656  17.779 -0.5270 -0.0746 -0.3336
   31CHL1   H7A 3412   2.686   2.626  17.782 -0.4931 -0.1266 -1.6109
   31CHL1   H7B 3413   2.566   2.656  17.669  1.5736  1.4005 -0.6456
   31CHL1    C8 3414   2.562   2.806  17.828 -0.0780  0.9510 -0.3831
   31CHL1    H8 3415   2.606   2.810  17.930  2.2019 -0.5795 -1.2275
   31CHL1   C14 3416   2.625   2.901  17.733 -0.6495  0.1894  0.6315
   31CHL1   H14 3417   2.572   2.890  17.637  0.8884  0.0899 -0.2499
   31CHL1   C15 3418   2.767   2.878  17.696 -0.3201 -0.0100 -0.5013
   31CHL1  H15A 3419   2.838   2.860  17.779  1.0295 -0.7266 -1.7640
   31CHL1  H15B 3420   2.785   2.795  17.625 -0.3515  0.0959 -0.6339
   31CHL1   C16 3421   2.809   3.009  17.629 -0.1433  0.7394 -0.2868
   31CHL1  H16A 3422   2.897   3.045  17.686 -0.5171  1.4522 -0.1413
   31CHL1  H16B 3423   2.823   2.998  17.520  0.5514 -2.5575  0.0315
   31CHL1   C17 3424   2.695   3.110  17.660 -0.0589 -0.1215  0.4799
   31CHL1   H17 3425   2.640   3.114  17.563 -1.4156 -2.7141  1.0409
   31CHL1   C13 3426   2.611   3.049  17.774  0.1842 -0.2439  0.3613
   31CHL1   C18 3427   2.674   3.061  17.913 -0.2099 -0.3822  0.1553
   31CHL1  H18A 3428   2.620   3.002  17.991 -1.1691  0.0754 -0.1527
   31CHL1  H18B 3429   2.783   3.046  17.900 -0.4092 -0.3218 -1.8945
   31CHL1  H18C 3430   2.664   3.162  17.957 -0.3234 -1.2740  2.3180
   31CHL1   C12 3431   2.455   3.075  17.777  0.0010  0.0047  0.0249
   31CHL1  H12A 3432   2.435   3.176  17.820  0.3560  0.2268 -0.3199
   31CHL1  H12B 3433   2.400   3.075  17.681 -1.0383 -0.9796  0.5904
   31CHL1   C11 3434   2.378   2.976  17.867  0.8053  0.0873 -1.5149
   31CHL1  H11A 3435   2.427   2.985  17.966  2.3267 -1.0002 -2.1344
   31CHL1  H11B 3436   2.270   3.004  17.877  1.3982  1.8611  0.9811
   31CHL1    C9 3437   2.414   2.828  17.839 -0.4556  0.5730 -0.5899
   31CHL1    H9 3438   2.363   2.799  17.745 -2.3269 -0.4326  0.6606
   31CHL1   C10 3439   2.340   2.726  17.935  0.3146 -0.6265 -1.2878
   31CHL1   C19 3440   2.367   2.780  18.080 -0.0752 -0.1211  0.2183
   31CHL1  H19A 3441   2.311   2.873  18.104  1.0551  0.0511  2.4738
   31CHL1  H19B 3442   2.327   2.711  18.158  0.1713 -0.2628  0.2233
   31CHL1  H19C 3443   2.475   2.798  18.099  0.6022 -0.8348 -2.5255
   31CHL1    C1 3444   2.192   2.713  17.901  0.6164 -0.1565  0.1361
   31CHL1   H1A 3445   2.143   2.813  17.895  1.7320  0.4447  0.8756
   31CHL1   H1B 3446   2.186   2.678  17.795  1.6102 -0.8959  0.3180
   31CHL1    C2 3447   2.114   2.616  17.989  0.0564  0.7704  0.0712
   31CHL1   H2A 3448   2.010   2.607  17.951 -0.5966 -1.3160  2.1612
   31CHL1   H2B 3449   2.127   2.644  18.095 -1.2677 -0.4732  0.5946
   31CHL1   C20 3450   2.747   3.253  17.683 -0.6494 -0.1535 -0.1286
   31CHL1   H20 3451   2.794   3.261  17.783 -0.5283 -0.3861 -0.1660
   31CHL1   C21 3452   2.635   3.359  17.695 -0.2311 -0.2926  0.3932
   31CHL1  H21A 3453   2.687   3.457  17.703 -1.0202  0.0567  1.5294
   31CHL1  H21B 3454   2.580   3.350  17.791 -0.9569  1.2872  0.1384
   31CHL1  H21C 3455   2.566   3.348  17.609 -1.2342 -2.8579  1.4112
   31CHL1   C22 3456   2.851   3.292  17.574  1.0438  0.1068  0.2658
   31CHL1  H22A 3457   2.881   3.398  17.582 -0.7307  0.6431  0.3066
   31CHL1  H22B 3458   2.941   3.228  17.586  0.9185  0.0909  1.1470
   31CHL1   C23 3459   2.788   3.298  17.430  0.3118  0.5076  0.4905
   31CHL1  H23A 3460   2.719   3.212  17.414 -0.1833  1.1692 -1.1871
   31CHL1  H23B 3461   2.720   3.386  17.422 -1.5410 -0.9611 -1.0799
   31CHL1   C24 3462   2.895   3.299  17.326 -0.5031 -0.7230  0.4266
   31CHL1  H24A 3463   2.971   3.370  17.365 -1.2809 -0.8411  2.2495
   31CHL1  H24B 3464   2.953   3.203  17.327  2.5462  0.8640 -2.1326
   31CHL1   C25 3465   2.858   3.335  17.182 -1.0952  0.2670 -0.0548
   31CHL1   H25 3466   2.801   3.430  17.193 -1.4403  0.0727 -0.1516
   31CHL1   C26 3467   2.981   3.357  17.095  1.1970 -0.3282  0.1041
   31CHL1  H26A 3468   3.034   3.443  17.140 -0.5630 -0.2527  2.2014
   31CHL1  H26B 3469   3.030   3.257  17.093 -0.7683 -1.3699  1.1381
   31CHL1  H26C 3470   2.941   3.378  16.994  0.9502 -0.3240  0.2021
   31CHL1   C27 3471   2.755   3.244  17.115 -0.2203 -0.2026  0.2040
   31CHL1  H27A 3472   2.663   3.241  17.177  0.0837  1.1088  0.7312
   31CHL1  H27B 3473   2.723   3.285  17.017 -0.9428 -1.4132 -0.0949
   31CHL1  H27C 3474   2.802   3.147  17.088 -1.8037 -0.8011 -0.5594
   32CHL1    C3 3475   1.854   0.702  19.391 -0.1471 -0.0971  0.8902
   32CHL1    H3 3476   1.936   0.661  19.329 -0.3296  1.2796 -0.3220
   32CHL1    O3 3477   1.887   0.836  19.413 -0.0815 -0.0998 -0.0951
   32CHL1   H3' 3478   1.837   0.848  19.494  1.8225  0.8094  1.0231
   32CHL1    C4 3479   1.724   0.706  19.301 -0.4818  0.5973 -0.4202
   32CHL1   H4A 3480   1.640   0.767  19.340 -2.0568 -1.1130 -0.9995
   32CHL1   H4B 3481   1.758   0.742  19.202 -0.0543 -4.4399 -2.4075
   32CHL1    C5 3482   1.660   0.571  19.280  0.2090 -0.2066  0.7090
   32CHL1    C6 3483   1.611   0.531  19.164  0.9225  0.1783  0.4104
   32CHL1    H6 3484   1.609   0.594  19.075  1.3143  0.1681  0.3941
   32CHL1    C7 3485   1.540   0.404  19.131 -0.0672 -0.7427  0.2957
   32CHL1   H7A 3486   1.442   0.427  19.085 -0.9394 -3.8043  0.4087
   32CHL1   H7B 3487   1.598   0.344  19.057 -0.0173 -1.4187  0.8806
   32CHL1    C8 3488   1.508   0.327  19.263 -1.2843  0.2759 -0.7509
   32CHL1    H8 3489   1.426   0.381  19.315  0.4085  1.9122  0.3173
   32CHL1   C14 3490   1.473   0.181  19.229 -0.3830  0.2601  0.4209
   32CHL1   H14 3491   1.557   0.136  19.172 -0.9487 -0.1661 -0.0948
   32CHL1   C15 3492   1.354   0.153  19.138  0.1518  0.3401  0.3021
   32CHL1  H15A 3493   1.258   0.194  19.176  0.5640  2.9955 -1.2874
   32CHL1  H15B 3494   1.377   0.196  19.038 -0.1436  2.4109  1.0661
   32CHL1   C16 3495   1.341  -0.002  19.142  1.0401 -0.0459  0.2957
   32CHL1  H16A 3496   1.235  -0.034  19.130  2.1829 -3.8127 -0.9125
   32CHL1  H16B 3497   1.397  -0.045  19.057 -0.5618 -1.9441  0.1227
   32CHL1   C17 3498   1.418  -0.039  19.270  0.4584  1.0486 -0.8471
   32CHL1   H17 3499   1.511  -0.089  19.236  0.6712  0.4423  0.5356
   32CHL1   C13 3500   1.461   0.090  19.349  0.4444  0.4255  0.2338
   32CHL1   C18 3501   1.341   0.136  19.429  0.0250  0.0725 -0.6700
   32CHL1  H18A 3502   1.345   0.062  19.513 -0.3113 -0.7000 -1.3195
   32CHL1  H18B 3503   1.348   0.233  19.482  1.9536 -0.6181  0.4606
   32CHL1  H18C 3504   1.246   0.109  19.377  0.7698  0.3386 -2.2176
   32CHL1   C12 3505   1.603   0.091  19.421  0.1871  0.0158  0.0454
   32CHL1  H12A 3506   1.608   0.021  19.508  0.1149 -0.1785 -0.1062
   32CHL1  H12B 3507   1.676   0.065  19.342 -0.5958  0.8432 -0.9821
   32CHL1   C11 3508   1.623   0.239  19.473  0.5874  0.1086 -0.4100
   32CHL1  H11A 3509   1.543   0.261  19.547  1.0668  2.7836 -0.5824
   32CHL1  H11B 3510   1.717   0.221  19.529  0.2081 -6.8773 -1.2120
   32CHL1    C9 3511   1.634   0.339  19.354 -0.0542  0.1167 -0.0755
   32CHL1    H9 3512   1.724   0.315  19.292  0.1404  0.4193  0.0850
   32CHL1   C10 3513   1.664   0.480  19.401 -0.1920 -0.0423 -0.6245
   32CHL1   C19 3514   1.554   0.521  19.507 -0.0246  0.5665 -0.0160
   32CHL1  H19A 3515   1.448   0.496  19.488  0.2818 -2.7477  1.7568
   32CHL1  H19B 3516   1.588   0.474  19.602 -0.9777 -2.9823 -1.2820
   32CHL1  H19C 3517   1.555   0.631  19.523  0.6318  0.3470  1.7902
   32CHL1    C1 3518   1.806   0.486  19.472  0.3745 -0.1810  0.0033
   32CHL1   H1A 3519   1.805   0.414  19.557  0.2730  2.5715  2.4995
   32CHL1   H1B 3520   1.881   0.453  19.397 -0.0239  2.7647 -1.8499
   32CHL1    C2 3521   1.846   0.621  19.515  0.1518 -0.4975 -0.1080
   32CHL1   H2A 3522   1.944   0.609  19.567 -0.0440  0.1229  0.4147
   32CHL1   H2B 3523   1.770   0.663  19.583 -1.2737 -0.2658 -1.7826
   32CHL1   C20 3524   1.339  -0.155  19.348 -0.0355  0.5208  0.1419
   32CHL1   H20 3525   1.241  -0.110  19.372 -2.0620 -2.5739 -1.6967
   32CHL1   C21 3526   1.417  -0.200  19.477  0.5967 -0.6398 -0.0477
   32CHL1  H21A 3527   1.367  -0.291  19.517 -0.1503 -0.6880 -1.0318
   32CHL1  H21B 3528   1.410  -0.123  19.556  0.0834  2.3160 -2.7769
   32CHL1  H21C 3529   1.519  -0.226  19.441  0.1808  0.2394 -2.0001
   32CHL1   C22 3530   1.285  -0.270  19.266 -0.5845  0.3925  0.3782
   32CHL1  H22A 3531   1.212  -0.315  19.335  0.6105  1.2807  2.3125
   32CHL1  H22B 3532   1.232  -0.235  19.175 -1.0687  0.8570  0.8272
   32CHL1   C23 3533   1.394  -0.381  19.222 -0.3880  0.0387 -0.0254
   32CHL1  H23A 3534   1.477  -0.342  19.159 -1.8801 -0.1909 -2.2401
   32CHL1  H23B 3535   1.435  -0.410  19.322  1.4265  1.4043 -0.3079
   32CHL1   C24 3536   1.327  -0.513  19.162  0.2994 -0.5812 -0.5176
   32CHL1  H24A 3537   1.239  -0.541  19.225  1.0746 -0.5941  0.5824
   32CHL1  H24B 3538   1.297  -0.481  19.060  1.7493 -0.2329 -0.8506
   32CHL1   C25 3539   1.432  -0.623  19.145  0.5545 -0.0504  0.1502
   32CHL1   H25 3540   1.492  -0.623  19.238 -0.9412 -1.4343  1.1870
   32CHL1   C26 3541   1.372  -0.762  19.126  0.8837  0.6099  0.2430
   32CHL1  H26A 3542   1.451  -0.840  19.117 -0.7404 -1.4744  2.6148
   32CHL1  H26B 3543   1.323  -0.795  19.221 -0.2083 -0.8603 -0.7746
   32CHL1  H26C 3544   1.295  -0.762  19.047  0.6269  1.7827  0.4740
   32CHL1   C27 3545   1.519  -0.590  19.021  0.8925  0.1023 -0.2657
   32CHL1  H27A 3546   1.565  -0.491  19.041  1.1845 -0.0921  0.0260
   32CHL1  H27B 3547   1.589  -0.675  19.007  0.5698 -0.5647  1.8726
   32CHL1  H27C 3548   1.465  -0.570  18.925  1.6316  1.2676 -0.4608
   33CHL1    C3 3549   1.911   1.095  20.699 -0.2150  0.3416  0.2672
   33CHL1    H3 3550   1.817   1.038  20.690  0.4651 -0.7398 -0.1367
   33CHL1    O3 3551   1.900   1.226  20.628  0.1441  0.0241 -0.9366
   33CHL1   H3' 3552   1.993   1.246  20.642 -0.1959  1.9204 -1.2048
   33CHL1    C4 3553   1.937   1.113  20.855 -0.0905 -0.2994  0.4120
   33CHL1   H4A 3554   2.014   1.193  20.860 -0.8056  0.4518 -0.1408
   33CHL1   H4B 3555   1.853   1.168  20.902  1.0919  2.6368 -0.6129
   33CHL1    C5 3556   1.974   0.984  20.929  0.0151  0.1080  0.5513
   33CHL1    C6 3557   1.910   0.945  21.040  0.3795  0.0144  0.1852
   33CHL1    H6 3558   1.841   1.010  21.096 -0.7493 -2.3838  1.7484
   33CHL1    C7 3559   1.939   0.813  21.116  0.3724 -0.1113 -0.1124
   33CHL1   H7A 3560   1.930   0.829  21.226 -2.0166 -0.4931 -0.2058
   33CHL1   H7B 3561   1.863   0.739  21.084 -0.3590  0.6614 -0.1983
   33CHL1    C8 3562   2.072   0.750  21.064 -0.4682  0.1689  0.3924
   33CHL1    H8 3563   2.153   0.803  21.118 -0.0303  0.5976 -0.6677
   33CHL1   C14 3564   2.086   0.599  21.109  0.3910 -0.3824 -0.1815
   33CHL1   H14 3565   2.004   0.543  21.058  0.6663 -0.8558 -0.1133
   33CHL1   C15 3566   2.064   0.555  21.259  0.4537 -0.2641 -0.0804
   33CHL1  H15A 3567   2.120   0.622  21.328  0.7289 -1.0433  0.4692
   33CHL1  H15B 3568   1.957   0.562  21.288  1.0300 -0.5432  2.3261
   33CHL1   C16 3569   2.124   0.417  21.272  0.9244 -0.2216 -0.0581
   33CHL1  H16A 3570   2.196   0.403  21.355  1.2389 -0.3094 -0.3457
   33CHL1  H16B 3571   2.041   0.346  21.296  1.1701 -0.7871 -0.8468
   33CHL1   C17 3572   2.198   0.393  21.135  0.0568 -0.7014 -0.2435
   33CHL1   H17 3573   2.115   0.342  21.080 -1.7512  1.0505  0.7237
   33CHL1   C13 3574   2.217   0.534  21.063 -0.4354  0.9339  0.7185
   33CHL1   C18 3575   2.340   0.606  21.119  0.4376 -0.1884  0.3471
   33CHL1  H18A 3576   2.347   0.706  21.072 -2.0264  0.0997  0.4494
   33CHL1  H18B 3577   2.324   0.613  21.229 -1.8702 -0.0802  0.0527
   33CHL1  H18C 3578   2.430   0.546  21.091 -0.5706 -1.4553 -0.3374
   33CHL1   C12 3579   2.223   0.522  20.909 -0.0802 -0.5295 -0.1272
   33CHL1  H12A 3580   2.324   0.484  20.884  0.8314  1.3373  0.4906
   33CHL1  H12B 3581   2.141   0.458  20.871  0.2056 -1.2316  0.4138
   33CHL1   C11 3582   2.206   0.664  20.845 -0.1311 -0.6670 -0.4858
   33CHL1  H11A 3583   2.299   0.715  20.878  0.9680 -1.9616 -1.4741
   33CHL1  H11B 3584   2.203   0.665  20.734 -1.3519 -0.9301 -0.4747
   33CHL1    C9 3585   2.088   0.749  20.908  0.0505  0.8894 -0.0317
   33CHL1    H9 3586   1.994   0.702  20.871  0.0123  0.4038  0.6665
   33CHL1   C10 3587   2.077   0.896  20.855  0.0797  0.1242  0.1144
   33CHL1   C19 3588   2.217   0.964  20.883  0.6264 -0.3183 -0.8375
   33CHL1  H19A 3589   2.213   1.072  20.860  0.0362 -0.3878 -1.0751
   33CHL1  H19B 3590   2.250   0.964  20.989  0.3518  0.3314 -0.7474
   33CHL1  H19C 3591   2.296   0.910  20.826 -0.1133 -1.1643 -1.0860
   33CHL1    C1 3592   2.047   0.893  20.705 -0.1572 -0.6630  0.1973
   33CHL1   H1A 3593   2.141   0.856  20.657  0.5141  1.3115 -0.0863
   33CHL1   H1B 3594   1.955   0.833  20.686 -1.6349  1.6067 -0.1994
   33CHL1    C2 3595   2.029   1.025  20.637  0.4091 -0.7148 -0.7282
   33CHL1   H2A 3596   2.006   1.017  20.528 -2.1348  1.5579 -0.4741
   33CHL1   H2B 3597   2.120   1.082  20.665  0.5711 -1.4677  0.3147
   33CHL1   C20 3598   2.319   0.305  21.151 -0.2160  0.5410  0.0197
   33CHL1   H20 3599   2.406   0.356  21.198  0.7061 -0.4130 -0.6128
   33CHL1   C21 3600   2.375   0.258  21.026 -0.4773 -0.6747  0.1762
   33CHL1  H21A 3601   2.459   0.186  21.036  2.5447  2.6493  0.4301
   33CHL1  H21B 3602   2.433   0.340  20.978  1.4239 -1.5259  0.9658
   33CHL1  H21C 3603   2.301   0.221  20.951  1.7683  0.5892 -2.8657
   33CHL1   C22 3604   2.302   0.180  21.242  0.1670  0.3167  0.1124
   33CHL1  H22A 3605   2.402   0.131  21.235  0.5234  1.0460  0.0229
   33CHL1  H22B 3606   2.293   0.222  21.344 -3.4465  1.3680 -0.5174
   33CHL1   C23 3607   2.189   0.086  21.217 -0.4340  0.3174 -0.1228
   33CHL1  H23A 3608   2.106   0.155  21.191  0.2696  1.3139  0.1799
   33CHL1  H23B 3609   2.208   0.029  21.124  1.6021  1.7647 -0.6816
   33CHL1   C24 3610   2.144  -0.002  21.333  0.7825 -0.6872 -0.3382
   33CHL1  H24A 3611   2.219  -0.080  21.357 -0.3979 -1.4111  1.2323
   33CHL1  H24B 3612   2.133   0.059  21.426  1.0550  0.5540 -1.0984
   33CHL1   C25 3613   2.022  -0.098  21.315  0.1163 -1.0878  0.4596
   33CHL1   H25 3614   1.930  -0.036  21.311 -0.4103 -1.9080 -1.2054
   33CHL1   C26 3615   2.019  -0.177  21.182 -0.0033  0.4937  0.2648
   33CHL1  H26A 3616   2.021  -0.115  21.090 -0.4877 -1.1546 -0.8944
   33CHL1  H26B 3617   2.108  -0.244  21.178 -0.2636  0.1367  0.4229
   33CHL1  H26C 3618   1.934  -0.246  21.163  0.8374 -0.3965 -0.4144
   33CHL1   C27 3619   2.019  -0.183  21.441  0.2396 -0.0485  0.3237
   33CHL1  H27A 3620   1.923  -0.239  21.438  1.0327 -1.4206 -1.5476
   33CHL1  H27B 3621   2.103  -0.254  21.453  0.6360  0.3681  0.0626
   33CHL1  H27C 3622   2.018  -0.107  21.522  2.2301 -0.8751  1.1583
   34CHL1    C3 3623   2.744   1.678  17.157  0.1018  0.2806 -0.4880
   34CHL1    H3 3624   2.831   1.609  17.149 -1.4254 -1.9751  1.3785
   34CHL1    O3 3625   2.642   1.642  17.246  0.2928 -0.1059 -0.2707
   34CHL1   H3' 3626   2.571   1.703  17.221  0.2591  1.0307  2.3209
   34CHL1    C4 3627   2.790   1.825  17.185 -0.1259  0.1475 -0.4178
   34CHL1   H4A 3628   2.696   1.885  17.191 -0.4248 -0.3521 -0.0512
   34CHL1   H4B 3629   2.846   1.826  17.280 -3.7087 -2.6647  2.0416
   34CHL1    C5 3630   2.866   1.891  17.069 -0.2101 -0.4558 -0.1602
   34CHL1    C6 3631   2.990   1.940  17.095 -0.0777 -0.4885  0.3054
   34CHL1    H6 3632   3.036   1.926  17.194 -0.1301 -3.8195 -0.0321
   34CHL1    C7 3633   3.066   2.012  16.992 -0.0386 -0.5177 -0.3839
   34CHL1   H7A 3634   3.089   2.115  17.027 -0.7596 -0.8254  1.0853
   34CHL1   H7B 3635   3.161   1.962  16.964  0.0135  0.3937 -1.9574
   34CHL1    C8 3636   2.997   2.031  16.862  0.8943 -0.6238 -0.1516
   34CHL1    H8 3637   2.933   2.121  16.872  1.5016 -0.1685 -0.2926
   34CHL1   C14 3638   3.099   2.062  16.755  0.0890  0.9017  0.6314
   34CHL1   H14 3639   3.166   1.977  16.729 -1.8372 -0.6212  0.4426
   34CHL1   C15 3640   3.202   2.174  16.783  0.4289  0.4255 -0.3108
   34CHL1  H15A 3641   3.158   2.268  16.821  4.3192  2.1473  0.3869
   34CHL1  H15B 3642   3.293   2.147  16.842  0.0941  0.1002  0.0648
   34CHL1   C16 3643   3.247   2.226  16.647  0.3792  0.4247 -0.0093
   34CHL1  H16A 3644   3.212   2.330  16.632  0.3174  0.5427  0.9252
   34CHL1  H16B 3645   3.353   2.198  16.624 -0.9010 -2.7573 -2.8937
   34CHL1   C17 3646   3.174   2.142  16.540 -0.1970 -0.3170  0.9074
   34CHL1   H17 3647   3.241   2.054  16.527  0.0862 -0.0768  0.7154
   34CHL1   C13 3648   3.045   2.098  16.621 -0.0415  0.8090 -0.5458
   34CHL1   C18 3649   2.951   2.220  16.619  0.2900 -0.2554  0.5204
   34CHL1  H18A 3650   2.988   2.324  16.635  1.3142 -0.5616  0.2031
   34CHL1  H18B 3651   2.901   2.226  16.520  1.5747 -3.7243 -0.4659
   34CHL1  H18C 3652   2.866   2.197  16.687 -1.3354  1.9354 -0.6187
   34CHL1   C12 3653   2.979   1.970  16.572 -0.1572  0.3797 -0.2351
   34CHL1  H12A 3654   2.937   1.973  16.469 -0.4089  0.2080 -0.1413
   34CHL1  H12B 3655   3.049   1.884  16.577 -1.1540 -0.4096  1.2201
   34CHL1   C11 3656   2.858   1.927  16.671 -0.6187  0.1758 -0.5726
   34CHL1  H11A 3657   2.764   1.983  16.653 -0.7682  1.1942  2.7424
   34CHL1  H11B 3658   2.839   1.819  16.650 -0.7781  0.1359 -0.2365
   34CHL1    C9 3659   2.911   1.918  16.823 -0.1403  0.3994  0.4345
   34CHL1    H9 3660   2.985   1.836  16.829  2.0538  2.2754  0.5639
   34CHL1   C10 3661   2.800   1.897  16.930 -0.4800  0.1144  0.1247
   34CHL1   C19 3662   2.689   1.997  16.918  0.8029 -0.5480 -0.9787
   34CHL1  H19A 3663   2.738   2.094  16.944  0.8125 -0.9355  0.5967
   34CHL1  H19B 3664   2.648   2.014  16.816  1.7060  2.0034 -1.0150
   34CHL1  H19C 3665   2.610   1.966  16.990 -0.0984  0.7396 -1.3771
   34CHL1    C1 3666   2.750   1.745  16.904 -0.4836  0.4119  0.3807
   34CHL1   H1A 3667   2.683   1.756  16.816 -1.1155  0.2785  0.8362
   34CHL1   H1B 3668   2.838   1.680  16.881 -0.5632  0.9447 -1.6529
   34CHL1    C2 3669   2.669   1.677  17.017  0.3524 -0.2628 -0.2993
   34CHL1   H2A 3670   2.629   1.580  16.982 -0.2199 -0.3702  0.6232
   34CHL1   H2B 3671   2.576   1.738  17.028  0.3771 -0.4235  0.9590
   34CHL1   C20 3672   3.165   2.215  16.406  0.2302 -0.4130 -0.0171
   34CHL1   H20 3673   3.083   2.289  16.418  0.2891 -0.0025 -1.7539
   34CHL1   C21 3674   3.109   2.123  16.299 -0.0302 -0.7808 -0.0648
   34CHL1  H21A 3675   3.007   2.093  16.331  0.2663 -0.3579  1.3476
   34CHL1  H21B 3676   3.169   2.030  16.305  1.2647  0.1160  3.5270
   34CHL1  H21C 3677   3.108   2.169  16.198  1.3480  0.2400  0.3577
   34CHL1   C22 3678   3.284   2.312  16.365 -0.1541  0.0277  0.4218
   34CHL1  H22A 3679   3.238   2.365  16.279  0.8097  1.3159  0.6736
   34CHL1  H22B 3680   3.307   2.387  16.444  0.0111  0.0039  0.3973
   34CHL1   C23 3681   3.413   2.245  16.319 -0.5349 -0.2191 -0.2383
   34CHL1  H23A 3682   3.461   2.187  16.400  1.4310  2.5953  0.7906
   34CHL1  H23B 3683   3.396   2.176  16.234 -0.2136 -3.6699  2.3209
   34CHL1   C24 3684   3.519   2.353  16.279  0.7044 -0.2807 -0.1366
   34CHL1  H24A 3685   3.610   2.290  16.275  0.3502 -1.1717  3.3554
   34CHL1  H24B 3686   3.492   2.382  16.175  0.8927 -1.5812 -0.5674
   34CHL1   C25 3687   3.533   2.471  16.360 -0.2609 -0.4134 -0.8327
   34CHL1   H25 3688   3.440   2.530  16.373  1.1498  1.8598 -0.5204
   34CHL1   C26 3689   3.567   2.418  16.501 -0.6738 -0.5254  0.0216
   34CHL1  H26A 3690   3.648   2.343  16.492  0.0632  0.2236  0.2525
   34CHL1  H26B 3691   3.603   2.501  16.566 -0.5085 -1.8783  1.7197
   34CHL1  H26C 3692   3.472   2.376  16.539 -1.9259  1.3076 -0.9202
   34CHL1   C27 3693   3.643   2.559  16.297  0.1798 -0.5905  0.1647
   34CHL1  H27A 3694   3.629   2.564  16.187  0.4338  0.5693  0.1735
   34CHL1  H27B 3695   3.644   2.663  16.335  0.6785 -0.4246 -0.2823
   34CHL1  H27C 3696   3.741   2.513  16.323  0.2477 -1.2304 -1.1348
   35CHL1    C3 3697   3.188   2.157  17.540  0.3455  0.1750 -0.3387
   35CHL1    H3 3698   3.164   2.255  17.586 -1.1277  0.1243 -0.9453
   35CHL1    O3 3699   3.126   2.061  17.627 -0.7106  0.0479 -0.7207
   35CHL1   H3' 3700   3.193   2.060  17.696  1.1772 -0.0770 -2.4228
   35CHL1    C4 3701   3.116   2.141  17.401  0.1608  0.0898  0.0519
   35CHL1   H4A 3702   3.121   2.038  17.359 -0.2440 -0.6275  1.6954
   35CHL1   H4B 3703   3.008   2.161  17.414  0.4472  1.0058  1.1735
   35CHL1    C5 3704   3.178   2.234  17.299  0.1190 -0.6221  1.2604
   35CHL1    C6 3705   3.100   2.313  17.219  0.2486 -0.1139 -0.2726
   35CHL1    H6 3706   2.991   2.303  17.225  0.3860 -0.7926  2.2661
   35CHL1    C7 3707   3.152   2.408  17.118 -0.2802 -0.0952  0.2636
   35CHL1   H7A 3708   3.094   2.417  17.023 -0.3839 -0.8256  0.2508
   35CHL1   H7B 3709   3.137   2.506  17.167 -0.8458 -0.6154  1.1576
   35CHL1    C8 3710   3.309   2.389  17.081  0.5511 -0.5145  0.4203
   35CHL1    H8 3711   3.323   2.309  17.006 -0.8211 -0.1351 -0.2668
   35CHL1   C14 3712   3.347   2.524  17.022 -0.0509 -0.0246  0.0627
   35CHL1   H14 3713   3.338   2.602  17.100  1.1661  1.0651 -0.8296
   35CHL1   C15 3714   3.257   2.571  16.904 -0.4804 -0.0650  0.1978
   35CHL1  H15A 3715   3.237   2.479  16.845  0.9694  1.2214 -2.4764
   35CHL1  H15B 3716   3.157   2.610  16.934  0.2531 -0.0908  2.9749
   35CHL1   C16 3717   3.355   2.665  16.825  0.4591  0.1954  0.4158
   35CHL1  H16A 3718   3.376   2.626  16.723 -0.5526  1.2922 -0.2470
   35CHL1  H16B 3719   3.315   2.765  16.798  0.8382  0.1799 -0.2484
   35CHL1   C17 3720   3.489   2.672  16.908 -0.2619 -0.8057  0.3628
   35CHL1   H17 3721   3.456   2.744  16.987  1.0831  2.0174 -1.4610
   35CHL1   C13 3722   3.497   2.537  16.984  0.2278  0.2388  0.5924
   35CHL1   C18 3723   3.546   2.436  16.874  0.3102  0.0686 -0.6807
   35CHL1  H18A 3724   3.647   2.462  16.836  0.6331 -0.1477  0.0202
   35CHL1  H18B 3725   3.538   2.332  16.911 -1.1105  0.7179  1.0126
   35CHL1  H18C 3726   3.479   2.448  16.786 -1.5984  0.4589  0.7570
   35CHL1   C12 3727   3.578   2.519  17.111 -0.2596 -0.2379  0.2033
   35CHL1  H12A 3728   3.687   2.533  17.095  0.1856 -1.6923  1.6976
   35CHL1  H12B 3729   3.551   2.602  17.179 -0.1872 -0.2803  0.2836
   35CHL1   C11 3730   3.544   2.384  17.192 -0.2509 -0.5682  0.5410
   35CHL1  H11A 3731   3.576   2.302  17.124  0.1663  1.2833 -1.6172
   35CHL1  H11B 3732   3.604   2.389  17.285 -1.6510  0.6479  1.4350
   35CHL1    C9 3733   3.389   2.365  17.213  0.0233  0.0995 -0.1327
   35CHL1    H9 3734   3.368   2.447  17.285  2.1494  0.3201  0.3106
   35CHL1   C10 3735   3.336   2.242  17.294 -0.4203  0.7292 -0.3392
   35CHL1   C19 3736   3.382   2.115  17.227  0.7387  0.2534  0.2198
   35CHL1  H19A 3737   3.493   2.105  17.235  0.8478 -1.1020 -2.2389
   35CHL1  H19B 3738   3.340   2.022  17.271  2.3937 -0.3808  0.5634
   35CHL1  H19C 3739   3.358   2.116  17.119  4.9867  0.8448 -0.8954
   35CHL1    C1 3740   3.393   2.255  17.433 -0.6328  0.4674  0.2034
   35CHL1   H1A 3741   3.501   2.232  17.426 -0.8210 -0.6008  0.6440
   35CHL1   H1B 3742   3.374   2.355  17.480 -1.2256  0.7973 -0.7113
   35CHL1    C2 3743   3.341   2.148  17.530  0.7051  0.0057  0.0649
   35CHL1   H2A 3744   3.371   2.168  17.635  0.2833 -0.7811  0.3393
   35CHL1   H2B 3745   3.367   2.048  17.492  0.3160 -0.2831  0.5472
   35CHL1   C20 3746   3.614   2.739  16.837  0.6455 -0.8445  0.3040
   35CHL1   H20 3747   3.656   2.663  16.769  0.3571 -0.5103 -0.2527
   35CHL1   C21 3748   3.715   2.795  16.943 -0.4678  0.2833 -0.3556
   35CHL1  H21A 3749   3.802   2.845  16.897  0.7280 -0.6821  0.7850
   35CHL1  H21B 3750   3.766   2.719  17.006  0.4329 -0.1623 -1.5786
   35CHL1  H21C 3751   3.659   2.864  17.009 -0.1285 -0.5352  0.8228
   35CHL1   C22 3752   3.573   2.858  16.747 -0.5468  0.6954  0.3607
   35CHL1  H22A 3753   3.668   2.898  16.707  0.6084 -0.0803  2.2110
   35CHL1  H22B 3754   3.524   2.816  16.656 -1.1082  1.4121  0.3196
   35CHL1   C23 3755   3.494   2.977  16.802  0.1226  0.1436 -0.0895
   35CHL1  H23A 3756   3.399   2.939  16.843 -0.5555  0.5958 -1.1959
   35CHL1  H23B 3757   3.557   3.018  16.884  0.2437 -1.8705  0.8960
   35CHL1   C24 3758   3.473   3.091  16.692 -0.0664  0.6154  0.1241
   35CHL1  H24A 3759   3.575   3.111  16.655  0.5644  1.0914  1.9723
   35CHL1  H24B 3760   3.416   3.055  16.604 -1.8908  0.7568  1.1886
   35CHL1   C25 3761   3.419   3.223  16.738  0.4400 -0.1650 -0.0841
   35CHL1   H25 3762   3.489   3.258  16.816 -0.1646 -0.1276  0.4573
   35CHL1   C26 3763   3.411   3.337  16.633  0.6881  0.4267 -0.0592
   35CHL1  H26A 3764   3.511   3.373  16.600 -0.6277  3.3242 -1.2408
   35CHL1  H26B 3765   3.352   3.296  16.548  0.7961 -0.8808  0.4644
   35CHL1  H26C 3766   3.358   3.420  16.683  0.4247  0.4905 -0.4380
   35CHL1   C27 3767   3.277   3.213  16.804  0.6069 -0.0614 -0.2650
   35CHL1  H27A 3768   3.281   3.140  16.888  1.8745  1.5537  1.1349
   35CHL1  H27B 3769   3.274   3.312  16.853 -0.5734  0.1733 -0.7946
   35CHL1  H27C 3770   3.196   3.181  16.735  1.4235 -2.7842 -0.0994
   36CHL1    C3 3771   1.783   0.841  20.297 -0.5237 -0.1546  0.4720
   36CHL1    H3 3772   1.792   0.800  20.399 -3.2561 -4.1293 -0.6423
   36CHL1    O3 3773   1.806   0.974  20.305  0.8017 -0.0440  0.5208
   36CHL1   H3' 3774   1.742   1.015  20.246  1.2058  0.4129  0.3938
   36CHL1    C4 3775   1.900   0.779  20.221  0.8079  0.3663 -0.0887
   36CHL1   H4A 3776   1.910   0.844  20.131  1.7784  0.8668  0.3648
   36CHL1   H4B 3777   1.994   0.796  20.277  1.7081  0.3634 -1.5524
   36CHL1    C5 3778   1.866   0.628  20.193  0.2967 -0.6827 -0.3636
   36CHL1    C6 3779   1.950   0.525  20.234 -0.3380 -0.1855  0.6108
   36CHL1    H6 3780   2.037   0.543  20.299 -1.4750  3.2264  1.3941
   36CHL1    C7 3781   1.921   0.374  20.207 -0.5364  0.2958 -0.6441
   36CHL1   H7A 3782   2.005   0.311  20.169 -1.1997  0.0442 -1.7198
   36CHL1   H7B 3783   1.896   0.318  20.300  2.9756 -1.6645 -0.6904
   36CHL1    C8 3784   1.817   0.357  20.101  0.2834 -0.2207 -0.3068
   36CHL1    H8 3785   1.857   0.379  20.000  0.1781 -2.9252 -1.0273
   36CHL1   C14 3786   1.768   0.210  20.099  0.3407  0.6135 -0.6045
   36CHL1   H14 3787   1.731   0.187  20.201 -2.1099  3.2796 -0.7661
   36CHL1   C15 3788   1.878   0.105  20.065 -0.6415 -0.4324  0.6627
   36CHL1  H15A 3789   1.938   0.143  19.980 -3.1316  0.4447 -0.8024
   36CHL1  H15B 3790   1.948   0.097  20.151  0.4623 -0.1886 -0.1949
   36CHL1   C16 3791   1.796  -0.015  20.029  0.2796  0.5738 -0.7823
   36CHL1  H16A 3792   1.835  -0.027  19.926 -2.0270  0.3184 -1.7066
   36CHL1  H16B 3793   1.820  -0.093  20.105 -0.2912 -0.8302 -2.0024
   36CHL1   C17 3794   1.641   0.025  20.023 -0.7285 -0.8285  0.3211
   36CHL1   H17 3795   1.594   0.008  20.122  0.0746  1.2263  1.1119
   36CHL1   C13 3796   1.657   0.180  19.999  0.1883 -0.0363 -0.2328
   36CHL1   C18 3797   1.694   0.209  19.853  0.2165 -0.1020 -0.8025
   36CHL1  H18A 3798   1.609   0.183  19.786 -1.0216 -0.9166  1.0263
   36CHL1  H18B 3799   1.714   0.318  19.854  1.1551 -0.2641  0.5513
   36CHL1  H18C 3800   1.777   0.143  19.817 -1.5665 -0.9318 -3.7555
   36CHL1   C12 3801   1.539   0.255  20.052  0.2458  0.4524  0.6474
   36CHL1  H12A 3802   1.438   0.236  20.009  0.1943  0.5332  0.7337
   36CHL1  H12B 3803   1.521   0.226  20.157  0.2591  2.2171  1.1708
   36CHL1   C11 3804   1.565   0.403  20.062 -0.7744 -0.5264 -0.2591
   36CHL1  H11A 3805   1.557   0.444  19.958  1.1092  2.2122  0.5434
   36CHL1  H11B 3806   1.477   0.459  20.102 -0.1344  0.5199 -0.2672
   36CHL1    C9 3807   1.695   0.447  20.137 -0.1287 -0.3072 -0.8066
   36CHL1    H9 3808   1.667   0.421  20.242 -2.4841 -0.7854 -1.4768
   36CHL1   C10 3809   1.731   0.595  20.133 -0.9786 -0.2626  0.0615
   36CHL1   C19 3810   1.723   0.638  19.983  0.1435 -0.1246 -0.4925
   36CHL1  H19A 3811   1.768   0.739  19.977 -0.0758  0.0574  0.7280
   36CHL1  H19B 3812   1.782   0.571  19.917 -2.6729 -0.6411 -2.6772
   36CHL1  H19C 3813   1.622   0.665  19.946 -0.4028  1.6136  2.0318
   36CHL1    C1 3814   1.624   0.671  20.217  0.3103 -0.0339 -0.6296
   36CHL1   H1A 3815   1.522   0.649  20.180  0.4226 -2.9375  0.5028
   36CHL1   H1B 3816   1.628   0.629  20.320  0.5376  1.4292 -0.0257
   36CHL1    C2 3817   1.644   0.820  20.235 -0.0230  0.7498 -0.0184
   36CHL1   H2A 3818   1.569   0.861  20.307  0.5567  1.1311  0.3768
   36CHL1   H2B 3819   1.626   0.863  20.134  0.6361 -0.3224 -0.6036
   36CHL1   C20 3820   1.565  -0.069  19.925 -0.2363  0.3334  0.2104
   36CHL1   H20 3821   1.614  -0.060  19.825 -1.3291  0.6029 -0.3184
   36CHL1   C21 3822   1.420  -0.020  19.901 -0.9406 -0.4905  0.4884
   36CHL1  H21A 3823   1.351  -0.097  19.862 -1.3452 -0.1359  0.4974
   36CHL1  H21B 3824   1.419   0.065  19.829  1.2433 -1.0135 -0.2295
   36CHL1  H21C 3825   1.383   0.002  20.003 -0.9375  1.3886  0.1311
   36CHL1   C22 3826   1.569  -0.218  19.972 -0.3220 -0.4360 -0.0503
   36CHL1  H22A 3827   1.675  -0.239  20.000 -0.1026  0.0070 -0.5267
   36CHL1  H22B 3828   1.512  -0.233  20.065  2.5075  1.2457  2.1265
   36CHL1   C23 3829   1.514  -0.320  19.866 -0.8421 -0.5143 -0.0902
   36CHL1  H23A 3830   1.408  -0.298  19.840 -0.1563  1.2528 -1.6684
   36CHL1  H23B 3831   1.577  -0.302  19.776  0.5406  2.4072  1.3228
   36CHL1   C24 3832   1.530  -0.469  19.902  0.0578  0.1602 -0.1084
   36CHL1  H24A 3833   1.513  -0.541  19.819  1.5272 -1.5038  0.9606
   36CHL1  H24B 3834   1.639  -0.472  19.925  0.2734  3.6998 -0.1819
   36CHL1   C25 3835   1.456  -0.510  20.028  0.0899 -0.1520 -0.2394
   36CHL1   H25 3836   1.510  -0.456  20.109  0.6098 -0.1486 -0.5826
   36CHL1   C26 3837   1.307  -0.485  20.013  0.3693 -0.6114  0.6504
   36CHL1  H26A 3838   1.284  -0.379  20.035 -0.7896 -1.5619  5.0711
   36CHL1  H26B 3839   1.272  -0.515  19.912 -0.4645 -0.5219  0.9068
   36CHL1  H26C 3840   1.249  -0.549  20.084  0.9295 -1.7885  0.0823
   36CHL1   C27 3841   1.474  -0.660  20.070 -0.3024 -0.2508 -0.1501
   36CHL1  H27A 3842   1.580  -0.689  20.055 -0.6956 -1.8672 -0.0681
   36CHL1  H27B 3843   1.438  -0.680  20.174  1.4688 -3.0101  0.0292
   36CHL1  H27C 3844   1.412  -0.722  20.001 -0.9636 -1.4879  1.4746
   37CHL1    C3 3845   0.764   2.960  23.956  0.6133  0.1144  0.7307
   37CHL1    H3 3846   0.734   3.016  24.047  0.4658 -0.5366  1.0900
   37CHL1    O3 3847   0.812   2.828  23.996  0.1780  0.2181  0.2571
   37CHL1   H3' 3848   0.868   2.806  23.922 -0.1546 -0.9915  0.3466
   37CHL1    C4 3849   0.637   2.948  23.863 -0.3319 -0.3419  0.4223
   37CHL1   H4A 3850   0.671   2.884  23.779 -3.0127 -1.1680 -0.1101
   37CHL1   H4B 3851   0.567   2.878  23.914  0.7936 -0.7830  1.4248
   37CHL1    C5 3852   0.580   3.088  23.829  0.3548 -0.5635  0.2969
   37CHL1    C6 3853   0.453   3.116  23.852 -0.4584 -0.8596 -0.2427
   37CHL1    H6 3854   0.380   3.054  23.905 -0.1255 -1.3784 -0.3775
   37CHL1    C7 3855   0.396   3.256  23.812 -0.2387 -0.1459 -0.0009
   37CHL1   H7A 3856   0.308   3.250  23.744 -0.1023  0.9537 -0.2899
   37CHL1   H7B 3857   0.380   3.312  23.906  0.7603  0.1231  0.0196
   37CHL1    C8 3858   0.495   3.338  23.729 -0.6403 -0.1668  0.1088
   37CHL1    H8 3859   0.482   3.302  23.625  0.6525  1.9097 -0.8495
   37CHL1   C14 3860   0.450   3.483  23.744 -0.3379 -0.6092 -0.2819
   37CHL1   H14 3861   0.462   3.500  23.853 -0.0443  0.6179 -0.4895
   37CHL1   C15 3862   0.304   3.511  23.712 -0.1375  0.5393  0.1224
   37CHL1  H15A 3863   0.287   3.459  23.615  1.5977  1.3490 -0.6595
   37CHL1  H15B 3864   0.223   3.477  23.780  0.2015 -1.4508 -0.4064
   37CHL1   C16 3865   0.296   3.658  23.686  0.4676 -1.2540 -0.1801
   37CHL1  H16A 3866   0.268   3.674  23.580  0.4895 -3.8697 -0.6477
   37CHL1  H16B 3867   0.234   3.712  23.761 -0.9466  1.1132 -2.8851
   37CHL1   C17 3868   0.443   3.709  23.708  0.2542  0.2512  0.1010
   37CHL1   H17 3869   0.455   3.720  23.818  0.9441 -1.4936  0.2224
   37CHL1   C13 3870   0.528   3.589  23.665 -0.6331 -0.4965  0.3035
   37CHL1   C18 3871   0.527   3.560  23.512  0.2443 -0.2564  0.3078
   37CHL1  H18A 3872   0.426   3.574  23.468  1.2433  1.4327 -1.6278
   37CHL1  H18B 3873   0.591   3.633  23.457 -2.6998  1.7164 -0.7517
   37CHL1  H18C 3874   0.550   3.452  23.497 -2.9602 -1.1166  0.8746
   37CHL1   C12 3875   0.675   3.579  23.721 -0.6127 -0.1799 -0.2024
   37CHL1  H12A 3876   0.742   3.654  23.673 -1.3956 -1.3183 -3.3288
   37CHL1  H12B 3877   0.668   3.602  23.829 -0.0010 -2.8414  0.4726
   37CHL1   C11 3878   0.723   3.432  23.712  0.1990  0.3127  0.4000
   37CHL1  H11A 3879   0.725   3.411  23.603 -2.0383 -1.5928  0.6612
   37CHL1  H11B 3880   0.826   3.423  23.754 -0.7696 -2.7306  2.4708
   37CHL1    C9 3881   0.634   3.324  23.777  0.2752 -0.1905  0.3069
   37CHL1    H9 3882   0.633   3.354  23.884 -1.0429 -1.0773  0.5733
   37CHL1   C10 3883   0.689   3.178  23.771 -0.2629 -0.8412  0.7999
   37CHL1   C19 3884   0.720   3.142  23.622  0.9440  0.3353 -0.5330
   37CHL1  H19A 3885   0.640   3.169  23.551  0.1711  0.4507  0.3626
   37CHL1  H19B 3886   0.816   3.194  23.600  1.3592 -0.0589  0.2928
   37CHL1  H19C 3887   0.718   3.031  23.611 -1.7887  0.1614  0.8871
   37CHL1    C1 3888   0.827   3.169  23.852 -0.3519  0.3552  0.4909
   37CHL1   H1A 3889   0.905   3.225  23.795  0.3560  0.5890  1.6654
   37CHL1   H1B 3890   0.801   3.224  23.945 -2.7039 -0.3778  0.3524
   37CHL1    C2 3891   0.874   3.033  23.886  0.6134  0.0615  1.3114
   37CHL1   H2A 3892   0.948   3.050  23.967  1.0644  0.6601  0.7883
   37CHL1   H2B 3893   0.928   2.988  23.801 -0.7901 -0.5935  0.7331
   37CHL1   C20 3894   0.469   3.844  23.640 -0.6048 -0.1250  0.0548
   37CHL1   H20 3895   0.479   3.825  23.531  1.2370 -1.6926  0.4484
   37CHL1   C21 3896   0.597   3.911  23.691  0.2014 -0.2569  0.3986
   37CHL1  H21A 3897   0.681   3.852  23.647 -0.2762  1.0852 -2.5234
   37CHL1  H21B 3898   0.586   3.903  23.801  0.5435 -2.9954  0.3028
   37CHL1  H21C 3899   0.615   4.015  23.657  1.6444  0.4977  3.1281
   37CHL1   C22 3900   0.353   3.947  23.662  0.7726  0.0540  0.1289
   37CHL1  H22A 3901   0.258   3.899  23.628  0.4768  0.0997  0.8660
   37CHL1  H22B 3902   0.357   3.979  23.768  2.1071  0.7012 -0.0987
   37CHL1   C23 3903   0.367   4.086  23.584  0.3365  0.4534 -0.6456
   37CHL1  H23A 3904   0.454   4.138  23.628 -0.8390  1.8063  0.1634
   37CHL1  H23B 3905   0.383   4.060  23.478 -1.4150 -1.6646 -0.4692
   37CHL1   C24 3906   0.278   4.209  23.605  0.1832 -0.3888  0.1189
   37CHL1  H24A 3907   0.180   4.213  23.553  1.5272  0.6840 -2.4834
   37CHL1  H24B 3908   0.273   4.234  23.714  0.6295  2.1817 -0.3963
   37CHL1   C25 3909   0.349   4.327  23.538 -0.0986 -0.1767  0.3552
   37CHL1   H25 3910   0.450   4.339  23.582 -0.5152  0.9112  1.0730
   37CHL1   C26 3911   0.372   4.323  23.387  0.5278 -0.5914  0.1274
   37CHL1  H26A 3912   0.447   4.243  23.368  0.2114 -1.2120  1.3858
   37CHL1  H26B 3913   0.285   4.306  23.320  3.5418 -1.9476 -3.8202
   37CHL1  H26C 3914   0.416   4.419  23.352  0.6288  0.1895  2.2391
   37CHL1   C27 3915   0.283   4.465  23.573 -0.4627  0.1322 -0.3264
   37CHL1  H27A 3916   0.183   4.474  23.524 -1.0544 -1.3880  0.5481
   37CHL1  H27B 3917   0.259   4.487  23.679  0.3271  1.3107 -0.3711
   37CHL1  H27C 3918   0.351   4.544  23.536  1.5631  0.8409  4.2178
   38CHL1    C3 3919   0.083   1.448  21.183  0.0278 -0.1498  0.0360
   38CHL1    H3 3920   0.099   1.490  21.081  1.4749  1.8662  1.0496
   38CHL1    O3 3921   0.038   1.554  21.262 -0.2636 -0.3514 -0.0419
   38CHL1   H3' 3922  -0.057   1.563  21.257 -0.2021  1.2885  0.9748
   38CHL1    C4 3923  -0.033   1.343  21.168 -0.0824  0.4089  0.1389
   38CHL1   H4A 3924  -0.073   1.325  21.270 -0.3476 -0.0889 -0.0548
   38CHL1   H4B 3925  -0.115   1.395  21.115  1.4301  1.6358 -1.1169
   38CHL1    C5 3926   0.006   1.208  21.108  0.0619 -0.1171  1.0847
   38CHL1    C6 3927  -0.077   1.152  21.010  0.8919  0.0268  0.2239
   38CHL1    H6 3928  -0.168   1.205  20.977  0.6196 -1.3595 -1.3772
   38CHL1    C7 3929  -0.048   1.021  20.945  0.1947  1.0783  0.2004
   38CHL1   H7A 3930  -0.135   0.952  20.958  1.0493  0.1672  1.3558
   38CHL1   H7B 3931  -0.031   1.028  20.835 -3.5620 -0.5260 -0.6742
   38CHL1    C8 3932   0.065   0.948  21.022  0.1519  0.6156  0.1873
   38CHL1    H8 3933   0.015   0.914  21.116 -2.9312  0.2764 -1.4474
   38CHL1   C14 3934   0.112   0.828  20.941  1.0364  0.6456 -0.3234
   38CHL1   H14 3935   0.153   0.865  20.844  1.9925  1.4793  0.3859
   38CHL1   C15 3936   0.006   0.724  20.889  0.0801 -0.5280 -0.1486
   38CHL1  H15A 3937  -0.049   0.689  20.979 -0.4793 -1.6455 -0.9008
   38CHL1  H15B 3938  -0.054   0.764  20.804  1.8574 -0.1147 -1.2587
   38CHL1   C16 3939   0.094   0.602  20.850  0.3346  0.4606 -0.2462
   38CHL1  H16A 3940   0.068   0.505  20.898  1.1547  0.0183 -0.6886
   38CHL1  H16B 3941   0.096   0.586  20.740  0.4692 -0.7005 -0.0854
   38CHL1   C17 3942   0.238   0.629  20.904 -0.0388  0.3326 -0.4796
   38CHL1   H17 3943   0.305   0.666  20.823  2.5043  1.0406  1.7555
   38CHL1   C13 3944   0.223   0.743  21.002  0.3134  0.1899 -0.0854
   38CHL1   C18 3945   0.182   0.698  21.139  0.3392  0.1674 -0.2441
   38CHL1  H18A 3946   0.268   0.651  21.191  1.8773  2.7833 -0.2163
   38CHL1  H18B 3947   0.146   0.776  21.210 -4.0643 -3.0026  1.4469
   38CHL1  H18C 3948   0.096   0.629  21.131  0.1234  0.4510 -0.3780
   38CHL1   C12 3949   0.348   0.839  21.006  0.4483 -0.4195  0.3795
   38CHL1  H12A 3950   0.431   0.790  21.061 -0.2188 -1.3280  0.6091
   38CHL1  H12B 3951   0.375   0.864  20.901 -0.2584  2.3689  0.7684
   38CHL1   C11 3952   0.316   0.970  21.083  0.3380 -0.6486 -0.0459
   38CHL1  H11A 3953   0.313   0.950  21.192 -0.4445  2.2927  0.5504
   38CHL1  H11B 3954   0.393   1.050  21.079  0.5278 -0.8459 -0.5766
   38CHL1    C9 3955   0.185   1.046  21.056  0.5310  0.7966 -0.2833
   38CHL1    H9 3956   0.209   1.096  20.960 -0.3925  1.1960 -0.3265
   38CHL1   C10 3957   0.143   1.156  21.156 -0.4025  0.2956  0.1543
   38CHL1   C19 3958   0.129   1.094  21.303  0.8269  0.7991  0.0067
   38CHL1  H19A 3959   0.070   1.165  21.365 -0.4057  0.1879 -0.4343
   38CHL1  H19B 3960   0.082   0.994  21.307  0.0349  1.1931  0.8271
   38CHL1  H19C 3961   0.228   1.090  21.353  1.8145  0.9726 -1.8192
   38CHL1    C1 3962   0.257   1.264  21.166 -0.4520  0.2041  0.1082
   38CHL1   H1A 3963   0.348   1.221  21.213 -0.5782 -0.8698 -0.6050
   38CHL1   H1B 3964   0.286   1.288  21.062  0.3410  0.8300  0.4656
   38CHL1    C2 3965   0.213   1.388  21.242  0.7888 -1.0805 -0.1399
   38CHL1   H2A 3966   0.291   1.467  21.250 -0.6281  0.2430  1.3597
   38CHL1   H2B 3967   0.191   1.358  21.347  2.1420  0.7300  0.7119
   38CHL1   C20 3968   0.318   0.499  20.958 -0.0575 -0.5803  0.2426
   38CHL1   H20 3969   0.394   0.537  21.030  1.2297  0.5956 -1.6579
   38CHL1   C21 3970   0.396   0.454  20.833 -0.1309  0.5511  1.3766
   38CHL1  H21A 3971   0.474   0.533  20.825  0.6652 -0.2661  0.9177
   38CHL1  H21B 3972   0.336   0.450  20.739  1.2157 -0.0962  0.5216
   38CHL1  H21C 3973   0.459   0.365  20.853  0.6972  1.3610  2.5439
   38CHL1   C22 3974   0.242   0.381  21.021  0.1421 -0.1387  0.0914
   38CHL1  H22A 3975   0.159   0.409  21.089 -1.4013  0.8357 -2.0776
   38CHL1  H22B 3976   0.191   0.328  20.937 -1.2784  2.1721 -0.5877
   38CHL1   C23 3977   0.337   0.313  21.120 -0.1633 -0.1617 -0.0080
   38CHL1  H23A 3978   0.440   0.306  21.078 -0.2282  1.9856 -0.6860
   38CHL1  H23B 3979   0.355   0.389  21.199  0.4267 -0.2945 -0.0095
   38CHL1   C24 3980   0.267   0.204  21.191 -0.4117 -0.3860 -0.0359
   38CHL1  H24A 3981   0.163   0.230  21.220 -0.5169 -0.0614 -0.6893
   38CHL1  H24B 3982   0.253   0.112  21.130  0.5865 -2.6821  2.9918
   38CHL1   C25 3983   0.332   0.172  21.328 -0.7530 -0.2872 -0.3706
   38CHL1   H25 3984   0.321   0.262  21.392  0.8453  0.3316 -0.9177
   38CHL1   C26 3985   0.249   0.069  21.410  0.7769 -0.8801 -0.8696
   38CHL1  H26A 3986   0.274  -0.039  21.402 -1.4193 -1.5987  0.9987
   38CHL1  H26B 3987   0.270   0.079  21.519  1.0442 -0.2343 -0.9679
   38CHL1  H26C 3988   0.139   0.084  21.406  0.8919  0.9169  0.7098
   38CHL1   C27 3989   0.478   0.129  21.319 -0.3000  0.0462  0.4808
   38CHL1  H27A 3990   0.524   0.096  21.414 -0.3601 -2.1280 -0.1917
   38CHL1  H27B 3991   0.486   0.042  21.250 -1.2406  1.3577 -1.3821
   38CHL1  H27C 3992   0.543   0.213  21.289  1.3124 -0.2937  2.7651
   39CHL1    C3 3993   2.884   2.892  23.009  0.8085 -1.0078 -0.8575
   39CHL1    H3 3994   2.773   2.896  23.007  0.7969  3.7880 -1.4070
   39CHL1    O3 3995   2.925   2.794  22.931 -0.5718  0.1957  0.8383
   39CHL1   H3' 3996   2.879   2.716  22.962  1.6819 -1.9981 -0.8925
   39CHL1    C4 3997   2.939   3.025  22.951  0.3917  0.4228 -0.4979
   39CHL1   H4A 3998   3.047   3.036  22.929  0.6964 -0.3105  0.5652
   39CHL1   H4B 3999   2.892   3.026  22.850  2.2139 -2.0168 -1.4490
   39CHL1    C5 4000   2.903   3.143  23.041  0.4918  0.0084 -0.0749
   39CHL1    C6 4001   2.839   3.245  22.992  0.0482 -0.7458  0.1602
   39CHL1    H6 4002   2.817   3.239  22.884 -0.8659 -0.9878  0.3455
   39CHL1    C7 4003   2.803   3.371  23.072  0.0060  0.1891  0.4127
   39CHL1   H7A 4004   2.845   3.451  23.007  1.7868 -2.2925 -1.7473
   39CHL1   H7B 4005   2.694   3.391  23.075 -0.6531 -1.4391 -4.0811
   39CHL1    C8 4006   2.884   3.380  23.203  0.2162  0.0096 -0.4262
   39CHL1    H8 4007   2.990   3.410  23.187 -0.0877  0.7697 -1.0987
   39CHL1   C14 4008   2.828   3.502  23.284  0.1038  0.7357  0.5402
   39CHL1   H14 4009   2.724   3.471  23.307  0.7716 -0.7898  1.7090
   39CHL1   C15 4010   2.817   3.645  23.232 -0.3207 -1.0204  0.2076
   39CHL1  H15A 4011   2.912   3.675  23.184 -0.4440 -0.5398  0.2601
   39CHL1  H15B 4012   2.743   3.659  23.150  0.2358 -1.5662 -0.3981
   39CHL1   C16 4013   2.799   3.735  23.356  0.0484  0.6839 -0.5339
   39CHL1  H16A 4014   2.884   3.806  23.355  1.1914 -0.5988  0.5022
   39CHL1  H16B 4015   2.705   3.792  23.344 -0.7358 -0.3082  0.6278
   39CHL1   C17 4016   2.805   3.638  23.480  0.0276 -0.1642 -0.6659
   39CHL1   H17 4017   2.699   3.605  23.485 -1.0587  3.0756  0.9478
   39CHL1   C13 4018   2.888   3.517  23.426 -0.5282 -0.3694 -0.0725
   39CHL1   C18 4019   3.036   3.559  23.417 -0.8459 -0.6312  0.3935
   39CHL1  H18A 4020   3.095   3.468  23.389 -0.0207 -0.6491  2.1126
   39CHL1  H18B 4021   3.060   3.633  23.338  0.5232  0.8032  2.0932
   39CHL1  H18C 4022   3.074   3.589  23.516  3.7137 -0.9294 -1.0459
   39CHL1   C12 4023   2.867   3.380  23.503  0.1578  1.2421  0.2510
   39CHL1  H12A 4024   2.923   3.375  23.598 -1.3433 -1.3695  1.0908
   39CHL1  H12B 4025   2.761   3.355  23.522  0.7260 -2.1508 -0.3488
   39CHL1   C11 4026   2.914   3.257  23.424 -0.1558 -0.7012  0.0098
   39CHL1  H11A 4027   3.025   3.256  23.429 -0.1583 -0.4972  0.1509
   39CHL1  H11B 4028   2.873   3.170  23.479 -0.8664 -0.7764 -0.6316
   39CHL1    C9 4029   2.870   3.241  23.270 -0.4721  0.2365  0.4477
   39CHL1    H9 4030   2.763   3.213  23.259  0.0415 -2.0137  0.5987
   39CHL1   C10 4031   2.939   3.130  23.186 -0.3862  0.2521 -0.2662
   39CHL1   C19 4032   3.099   3.148  23.193 -0.5331  0.3148 -0.3788
   39CHL1  H19A 4033   3.140   3.241  23.148  2.1032 -1.9068 -2.9926
   39CHL1  H19B 4034   3.140   3.154  23.296 -2.0709 -1.3966  0.3886
   39CHL1  H19C 4035   3.149   3.057  23.152  0.8176  0.8408  0.0298
   39CHL1    C1 4036   2.895   2.986  23.235 -0.1129 -0.2505  0.4894
   39CHL1   H1A 4037   2.938   2.968  23.336 -0.6553  0.7061  0.9058
   39CHL1   H1B 4038   2.784   2.990  23.244 -0.0662 -0.9824  1.6066
   39CHL1    C2 4039   2.940   2.868  23.148 -0.0108  0.7840  0.3276
   39CHL1   H2A 4040   2.891   2.775  23.185  1.6963 -0.1130  0.4554
   39CHL1   H2B 4041   3.050   2.870  23.161 -0.1249  2.1272  1.3168
   39CHL1   C20 4042   2.843   3.707  23.605 -0.2740 -0.4942  0.1723
   39CHL1   H20 4043   2.947   3.743  23.591 -0.4347 -0.6618 -1.6035
   39CHL1   C21 4044   2.845   3.604  23.722  0.7444  0.2589  0.0644
   39CHL1  H21A 4045   2.742   3.563  23.726 -0.6614  3.5447  0.1194
   39CHL1  H21B 4046   2.859   3.657  23.818 -2.1529  0.4591  0.4652
   39CHL1  H21C 4047   2.924   3.525  23.727  0.1681 -0.2985  0.5237
   39CHL1   C22 4048   2.753   3.835  23.630 -0.1614  0.0743  0.4450
   39CHL1  H22A 4049   2.789   3.880  23.725 -1.3220 -1.1793  1.5260
   39CHL1  H22B 4050   2.764   3.909  23.548 -2.6842  1.9014  1.5946
   39CHL1   C23 4051   2.599   3.804  23.634  0.6509 -0.5458 -0.3780
   39CHL1  H23A 4052   2.571   3.779  23.529 -1.5543 -0.0251  0.0410
   39CHL1  H23B 4053   2.579   3.714  23.695  0.9236 -0.9113 -0.8203
   39CHL1   C24 4054   2.521   3.929  23.674  0.1347  0.2776  0.0382
   39CHL1  H24A 4055   2.554   3.969  23.772  1.1284  1.7810 -0.8496
   39CHL1  H24B 4056   2.529   4.004  23.591 -3.1621 -1.2907 -1.9024
   39CHL1   C25 4057   2.368   3.891  23.690 -0.2057 -0.0903  1.2935
   39CHL1   H25 4058   2.348   3.801  23.628  2.3878  0.4002 -0.3812
   39CHL1   C26 4059   2.334   3.868  23.835 -0.9838  0.1496 -0.3141
   39CHL1  H26A 4060   2.387   3.935  23.905 -0.8174 -0.0380 -0.2563
   39CHL1  H26B 4061   2.224   3.860  23.847 -1.0062 -0.8928 -1.0255
   39CHL1  H26C 4062   2.366   3.764  23.857 -1.5370  0.4913  2.3524
   39CHL1   C27 4063   2.275   4.002  23.629 -0.0565  0.4660  0.0219
   39CHL1  H27A 4064   2.279   4.023  23.520 -2.1754  2.7117  0.2767
   39CHL1  H27B 4065   2.168   3.982  23.652 -0.1572  3.1147  2.4637
   39CHL1  H27C 4066   2.283   4.103  23.675 -0.0859  0.4945 -0.0341
   40CHL1    C3 4067   0.382   2.269  18.082  0.3026 -0.0087  0.6862
   40CHL1    H3 4068   0.288   2.326  18.065  0.3721 -0.1909 -0.3794
   40CHL1    O3 4069   0.386   2.220  18.212  0.5299  0.0999 -0.1186
   40CHL1   H3' 4070   0.409   2.127  18.207 -1.2490 -0.3927  0.2709
   40CHL1    C4 4071   0.385   2.147  17.994  0.5497  0.2436 -0.2228
   40CHL1   H4A 4072   0.474   2.085  18.017 -0.1030  0.0756  2.0222
   40CHL1   H4B 4073   0.296   2.089  18.026  0.4793  1.1310  1.2545
   40CHL1    C5 4074   0.384   2.169  17.845 -0.4624  0.0159  0.5821
   40CHL1    C6 4075   0.287   2.121  17.762 -0.0743  0.1705  0.3111
   40CHL1    H6 4076   0.212   2.057  17.810  0.9047  0.0868  1.7890
   40CHL1    C7 4077   0.281   2.151  17.612 -0.1535 -0.1271 -0.0764
   40CHL1   H7A 4078   0.254   2.063  17.551  0.8136 -1.0848  0.8247
   40CHL1   H7B 4079   0.199   2.225  17.598  1.0480  1.1703 -0.5364
   40CHL1    C8 4080   0.410   2.218  17.554 -0.6671 -0.0507  0.4877
   40CHL1    H8 4081   0.481   2.133  17.542 -0.9192 -0.4255  1.4843
   40CHL1   C14 4082   0.388   2.281  17.419  0.1514  0.9199 -0.9606
   40CHL1   H14 4083   0.311   2.360  17.434 -1.1598 -0.5144  0.2458
   40CHL1   C15 4084   0.330   2.188  17.305 -0.1917  1.0227 -0.6770
   40CHL1  H15A 4085   0.395   2.099  17.295 -0.7757  0.7120 -1.9985
   40CHL1  H15B 4086   0.233   2.149  17.342 -0.1121  0.3234 -1.1808
   40CHL1   C16 4087   0.344   2.262  17.176  0.1912  0.3265  0.6122
   40CHL1  H16A 4088   0.398   2.199  17.102  0.1824  0.5382  0.4273
   40CHL1  H16B 4089   0.253   2.307  17.130  0.8477  0.7580 -0.2944
   40CHL1   C17 4090   0.451   2.374  17.209  0.2461  0.6554  0.1848
   40CHL1   H17 4091   0.372   2.451  17.222 -0.8222 -0.7709  2.9377
   40CHL1   C13 4092   0.508   2.347  17.352 -0.1183  0.0788  0.8176
   40CHL1   C18 4093   0.625   2.250  17.328 -0.0037  0.0299  0.2715
   40CHL1  H18A 4094   0.582   2.168  17.266  0.4812  0.4173 -0.6011
   40CHL1  H18B 4095   0.711   2.296  17.274  0.3210 -0.3486  0.4656
   40CHL1  H18C 4096   0.665   2.211  17.423  3.4151  1.9662 -0.2069
   40CHL1   C12 4097   0.543   2.466  17.440  0.4994 -0.5701 -0.4025
   40CHL1  H12A 4098   0.618   2.540  17.403 -0.3555  0.4164 -0.2125
   40CHL1  H12B 4099   0.449   2.524  17.429  0.5591  0.5611  3.5637
   40CHL1   C11 4100   0.574   2.421  17.580  0.2967  0.1597  0.1726
   40CHL1  H11A 4101   0.668   2.363  17.569 -1.2627 -2.1687 -1.7037
   40CHL1  H11B 4102   0.580   2.517  17.636  0.2501  0.6870 -0.7066
   40CHL1    C9 4103   0.465   2.326  17.645  0.0122  0.1103  0.9196
   40CHL1    H9 4104   0.382   2.399  17.660  1.8476  2.4411  0.4195
   40CHL1   C10 4105   0.489   2.264  17.788 -0.7266 -0.2157 -0.6456
   40CHL1   C19 4106   0.614   2.174  17.775  0.3389 -0.0692  0.4079
   40CHL1  H19A 4107   0.694   2.224  17.717 -0.0240  0.6752  0.5274
   40CHL1  H19B 4108   0.652   2.145  17.875  0.6292  0.3760  0.4301
   40CHL1  H19C 4109   0.588   2.077  17.727  0.9227 -0.8648  1.6532
   40CHL1    C1 4110   0.501   2.384  17.895 -0.5476 -0.5650 -0.4934
   40CHL1   H1A 4111   0.589   2.444  17.862  0.2373 -0.9349  0.8315
   40CHL1   H1B 4112   0.415   2.451  17.877  1.2148  1.3179 -2.4973
   40CHL1    C2 4113   0.513   2.344  18.043 -0.2559 -0.7318 -0.2576
   40CHL1   H2A 4114   0.515   2.421  18.123 -1.1349 -2.3273  1.3773
   40CHL1   H2B 4115   0.601   2.278  18.062  0.0200  0.4496  3.2616
   40CHL1   C20 4116   0.542   2.420  17.091  0.4566  0.5248  0.7377
   40CHL1   H20 4117   0.606   2.333  17.065 -1.5485 -0.7980 -0.0051
   40CHL1   C21 4118   0.641   2.536  17.121  0.3380  0.2077 -0.8579
   40CHL1  H21A 4119   0.700   2.512  17.212 -0.5818  1.0985  0.0050
   40CHL1  H21B 4120   0.581   2.628  17.136 -1.5977 -1.0540 -0.3939
   40CHL1  H21C 4121   0.718   2.547  17.042  1.3032  0.0801  0.0426
   40CHL1   C22 4122   0.452   2.450  16.966 -0.4443 -0.4433  0.7154
   40CHL1  H22A 4123   0.369   2.383  16.934  1.4867 -2.5873 -0.0765
   40CHL1  H22B 4124   0.398   2.544  16.993 -0.2922  0.2287 -1.1490
   40CHL1   C23 4125   0.523   2.493  16.836  0.6870  0.9704  0.0099
   40CHL1  H23A 4126   0.592   2.576  16.863 -0.8149  1.2743  3.3991
   40CHL1  H23B 4127   0.591   2.417  16.790 -0.2088  0.7837 -1.0444
   40CHL1   C24 4128   0.427   2.551  16.731  0.7746  0.7473 -0.5699
   40CHL1  H24A 4129   0.347   2.474  16.718  2.0920 -0.7336 -0.2899
   40CHL1  H24B 4130   0.386   2.640  16.783  0.6587 -0.3127  1.2254
   40CHL1   C25 4131   0.496   2.599  16.603 -0.0752  0.0247  0.1371
   40CHL1   H25 4132   0.575   2.674  16.629  0.2070 -1.0405  2.5993
   40CHL1   C26 4133   0.553   2.490  16.518  0.2149  0.0604 -0.3008
   40CHL1  H26A 4134   0.590   2.542  16.426 -0.0379  0.4921 -0.1575
   40CHL1  H26B 4135   0.632   2.426  16.562  0.5010  2.2235  2.5910
   40CHL1  H26C 4136   0.471   2.426  16.479  0.0776  0.1747 -0.1946
   40CHL1   C27 4137   0.388   2.681  16.516 -0.3311  0.3941 -0.2712
   40CHL1  H27A 4138   0.327   2.599  16.473  0.8297  0.3928 -2.0162
   40CHL1  H27B 4139   0.335   2.756  16.579  1.1600  2.1540 -1.0159
   40CHL1  H27C 4140   0.430   2.733  16.427  0.2974 -0.4494 -0.4671
   41CHL1    C3 4141   1.658   2.248  18.085 -0.6408  0.0534 -0.2507
   41CHL1    H3 4142   1.703   2.346  18.112  1.7963 -1.5254  1.8023
   41CHL1    O3 4143   1.657   2.173  18.203  0.6480  0.3424  0.0765
   41CHL1   H3' 4144   1.662   2.085  18.164 -0.8139  1.2715 -2.4839
   41CHL1    C4 4145   1.517   2.269  18.033  0.2700 -0.9019  0.5577
   41CHL1   H4A 4146   1.467   2.172  18.016 -1.0971 -0.2065  0.4794
   41CHL1   H4B 4147   1.450   2.316  18.108  1.6787  0.9177  0.7606
   41CHL1    C5 4148   1.524   2.351  17.911 -0.0373 -0.1981  0.0148
   41CHL1    C6 4149   1.450   2.462  17.898 -0.5512  1.0023  0.1681
   41CHL1    H6 4150   1.380   2.490  17.979  1.1369 -0.7317  2.3488
   41CHL1    C7 4151   1.437   2.529  17.770 -0.1846  0.3651 -0.4015
   41CHL1   H7A 4152   1.330   2.555  17.758 -0.4154 -1.0329 -1.5579
   41CHL1   H7B 4153   1.480   2.632  17.766 -0.1365  0.3559 -0.1487
   41CHL1    C8 4154   1.487   2.449  17.640  0.0930  0.5969  0.0023
   41CHL1    H8 4155   1.415   2.367  17.622  1.2143 -0.0686 -1.7215
   41CHL1   C14 4156   1.500   2.535  17.516 -0.0943 -0.4580 -0.5071
   41CHL1   H14 4157   1.574   2.613  17.544 -1.0596 -0.5638  2.6537
   41CHL1   C15 4158   1.376   2.621  17.469  0.0595  0.3416  0.7627
   41CHL1  H15A 4159   1.287   2.556  17.475 -1.5797  1.9110 -3.2985
   41CHL1  H15B 4160   1.373   2.709  17.537  1.4252  1.8176 -0.9627
   41CHL1   C16 4161   1.412   2.657  17.325 -0.0476 -0.1759 -0.3093
   41CHL1  H16A 4162   1.347   2.626  17.241 -1.0293 -1.1049  0.7646
   41CHL1  H16B 4163   1.433   2.765  17.309 -0.7574  0.0230  0.0420
   41CHL1   C17 4164   1.541   2.579  17.289 -0.2931 -0.5959  0.5980
   41CHL1   H17 4165   1.613   2.660  17.312 -0.9830  0.4845 -0.8761
   41CHL1   C13 4166   1.559   2.465  17.389  0.6476 -0.0135  0.7507
   41CHL1   C18 4167   1.459   2.348  17.350  0.2100  0.3432 -1.1030
   41CHL1  H18A 4168   1.437   2.281  17.436 -1.8202  0.9480 -1.1006
   41CHL1  H18B 4169   1.366   2.395  17.313 -1.0850 -0.4588  1.0180
   41CHL1  H18C 4170   1.503   2.288  17.267  0.0132 -0.3385 -0.7198
   41CHL1   C12 4171   1.702   2.412  17.427 -0.1431 -0.6936 -0.2607
   41CHL1  H12A 4172   1.740   2.349  17.344  1.6886 -2.3131  1.6938
   41CHL1  H12B 4173   1.776   2.493  17.442 -3.1452  1.9592  1.4036
   41CHL1   C11 4174   1.708   2.326  17.557  0.1415 -0.5024 -0.7028
   41CHL1  H11A 4175   1.658   2.231  17.528 -0.3230 -0.8686  1.1499
   41CHL1  H11B 4176   1.815   2.315  17.581 -0.1563  0.7938  1.5019
   41CHL1    C9 4177   1.627   2.386  17.677 -0.2505  0.2620  0.3331
   41CHL1    H9 4178   1.685   2.471  17.718  0.6353 -0.2390  0.1384
   41CHL1   C10 4179   1.610   2.292  17.798  0.2413  0.2013  0.7239
   41CHL1   C19 4180   1.549   2.163  17.744 -0.1308  0.5547  0.3348
   41CHL1  H19A 4181   1.620   2.119  17.670 -0.5197  0.7042 -0.1336
   41CHL1  H19B 4182   1.546   2.080  17.817  2.5061 -1.8574 -2.0073
   41CHL1  H19C 4183   1.447   2.178  17.702  0.0581 -0.6997 -0.6185
   41CHL1    C1 4184   1.747   2.270  17.864 -0.3415  0.3865 -0.4994
   41CHL1   H1A 4185   1.820   2.237  17.787  1.1340  1.8236  0.2259
   41CHL1   H1B 4186   1.779   2.374  17.888 -0.6793  0.9246 -2.2124
   41CHL1    C2 4187   1.741   2.182  17.983 -0.1321  0.2448 -0.2538
   41CHL1   H2A 4188   1.844   2.184  18.025 -0.2434  0.0606  0.0358
   41CHL1   H2B 4189   1.723   2.073  17.971  0.4643  0.1160 -0.0371
   41CHL1   C20 4190   1.554   2.552  17.140 -0.3245  0.5421 -0.2194
   41CHL1   H20 4191   1.469   2.493  17.101  0.2831  0.3327 -1.2732
   41CHL1   C21 4192   1.690   2.480  17.109  0.7976 -0.4283 -0.0451
   41CHL1  H21A 4193   1.696   2.476  16.999 -1.1697  2.2361 -0.3442
   41CHL1  H21B 4194   1.698   2.379  17.153 -0.0851 -0.4017  0.2016
   41CHL1  H21C 4195   1.776   2.538  17.149  0.7408 -2.1415  2.8738
   41CHL1   C22 4196   1.548   2.685  17.054  0.0742  0.4490 -0.2724
   41CHL1  H22A 4197   1.526   2.642  16.954  0.8195  2.1873 -1.2214
   41CHL1  H22B 4198   1.457   2.736  17.093 -0.9636 -1.1496 -0.5052
   41CHL1   C23 4199   1.675   2.771  17.033  0.4599 -0.0280 -0.6270
   41CHL1  H23A 4200   1.723   2.792  17.131  0.6409  0.4999 -0.8273
   41CHL1  H23B 4201   1.748   2.712  16.973 -0.8416 -2.1493 -0.2600
   41CHL1   C24 4202   1.644   2.899  16.954  0.1564  0.5213  0.0703
   41CHL1  H24A 4203   1.595   2.867  16.860  2.2225 -2.0894 -0.2405
   41CHL1  H24B 4204   1.568   2.954  17.013  0.0428 -0.3846  0.7955
   41CHL1   C25 4205   1.766   2.991  16.931  0.0851 -0.5257 -0.3785
   41CHL1   H25 4206   1.724   3.073  16.869  3.4214  0.2991 -1.7615
   41CHL1   C26 4207   1.815   3.056  17.062 -0.5965 -0.5865 -0.1702
   41CHL1  H26A 4208   1.896   3.129  17.038 -2.4056  1.6650  0.1958
   41CHL1  H26B 4209   1.746   3.126  17.113  1.0338  0.5232  0.6160
   41CHL1  H26C 4210   1.845   2.986  17.142 -0.8909 -1.0119 -0.4299
   41CHL1   C27 4211   1.883   2.920  16.860 -0.7458 -0.5757  0.4629
   41CHL1  H27A 4212   1.976   2.979  16.846 -0.5940 -1.2317 -1.8368
   41CHL1  H27B 4213   1.919   2.827  16.909 -0.7483 -1.1722 -0.6387
   41CHL1  H27C 4214   1.845   2.884  16.762 -2.1550 -2.1310  1.5150
   42CHL1    C3 4215   0.282   2.772  23.505 -0.6795  0.3111 -0.0365
   42CHL1    H3 4216   0.203   2.777  23.582 -2.4303  2.3243 -1.8188
   42CHL1    O3 4217   0.359   2.655  23.512  0.2419 -0.0959  0.1164
   42CHL1   H3' 4218   0.285   2.597  23.530 -1.9304  2.9892  1.9613
   42CHL1    C4 4219   0.213   2.788  23.372  0.5070  0.1335 -1.0172
   42CHL1   H4A 4220   0.283   2.770  23.288  0.0027  1.7772 -1.8203
   42CHL1   H4B 4221   0.139   2.705  23.381  1.6476 -0.8436 -0.4397
   42CHL1    C5 4222   0.148   2.922  23.354 -0.1139 -0.9729  0.4158
   42CHL1    C6 4223   0.012   2.946  23.350 -0.1450 -0.1400  0.4224
   42CHL1    H6 4224  -0.062   2.865  23.358  0.1322 -0.5362 -0.7491
   42CHL1    C7 4225  -0.060   3.078  23.332 -0.2430 -0.7656 -0.2751
   42CHL1   H7A 4226  -0.142   3.077  23.257  0.5891  0.9384 -1.2960
   42CHL1   H7B 4227  -0.103   3.109  23.429 -0.7632  1.0414 -1.0419
   42CHL1    C8 4228   0.041   3.186  23.285  0.0206 -0.5688  0.3663
   42CHL1    H8 4229   0.060   3.165  23.178  0.3142 -3.0600  0.8651
   42CHL1   C14 4230  -0.018   3.332  23.295 -0.0619 -1.0370 -0.3577
   42CHL1   H14 4231  -0.011   3.349  23.404  0.3184 -1.1319 -0.3651
   42CHL1   C15 4232  -0.152   3.370  23.246  0.1224 -0.5454  0.3441
   42CHL1  H15A 4233  -0.166   3.329  23.143  2.7510 -1.0959  0.1298
   42CHL1  H15B 4234  -0.242   3.330  23.298 -0.7445  1.8550  0.8143
   42CHL1   C16 4235  -0.161   3.523  23.251  0.0933 -0.0862  0.2436
   42CHL1  H16A 4236  -0.191   3.563  23.152  1.6776  0.5952  0.0085
   42CHL1  H16B 4237  -0.229   3.557  23.333 -0.9849 -0.8331 -0.3131
   42CHL1   C17 4238  -0.015   3.572  23.272  0.2104 -0.4942  0.1406
   42CHL1   H17 4239   0.000   3.600  23.378 -1.5639  2.2385 -0.2327
   42CHL1   C13 4240   0.075   3.444  23.241 -0.3605 -0.0809 -0.6875
   42CHL1   C18 4241   0.079   3.420  23.088  0.6077 -0.0742  0.2867
   42CHL1  H18A 4242   0.143   3.494  23.035  3.1414 -0.6867  2.2863
   42CHL1  H18B 4243   0.123   3.320  23.066  0.5780 -0.3515  1.4007
   42CHL1  H18C 4244  -0.021   3.420  23.041  0.8713  0.7394 -0.2873
   42CHL1   C12 4245   0.205   3.444  23.324 -0.2182  0.3097 -0.5792
   42CHL1  H12A 4246   0.272   3.525  23.288  0.1898  0.4416  0.4180
   42CHL1  H12B 4247   0.179   3.439  23.432 -1.4470 -0.8699 -0.9076
   42CHL1   C11 4248   0.267   3.304  23.307  0.0958 -0.2031 -0.0483
   42CHL1  H11A 4249   0.298   3.285  23.202  1.7128  0.3964  0.2982
   42CHL1  H11B 4250   0.365   3.294  23.358 -0.5775 -2.2675  0.9567
   42CHL1    C9 4251   0.175   3.181  23.355 -0.5496 -0.5695  0.1875
   42CHL1    H9 4252   0.156   3.203  23.462 -0.9905 -0.9176  0.1843
   42CHL1   C10 4253   0.252   3.044  23.362  0.4247 -0.3179 -0.3319
   42CHL1   C19 4254   0.345   3.036  23.241  0.2829 -0.6178  0.1722
   42CHL1  H19A 4255   0.436   3.100  23.245 -0.0123 -0.1638 -0.4114
   42CHL1  H19B 4256   0.377   2.930  23.225 -0.0057 -0.4749 -1.5864
   42CHL1  H19C 4257   0.278   3.072  23.160 -2.2675  0.6041  2.6850
   42CHL1    C1 4258   0.330   3.030  23.496 -0.2004  0.5678  0.0762
   42CHL1   H1A 4259   0.413   3.104  23.508  1.3500 -0.9782 -0.6756
   42CHL1   H1B 4260   0.260   3.061  23.577 -2.0006  0.5606 -1.4216
   42CHL1    C2 4261   0.385   2.891  23.519 -0.1148  0.4360  0.5116
   42CHL1   H2A 4262   0.420   2.875  23.623  3.3145 -1.8205 -0.7937
   42CHL1   H2B 4263   0.478   2.874  23.460 -1.3866  0.1166 -1.4901
   42CHL1   C20 4264   0.008   3.700  23.187 -0.1180  0.5190  0.5247
   42CHL1   H20 4265  -0.010   3.677  23.080  0.1835  0.3479  0.5075
   42CHL1   C21 4266   0.157   3.749  23.195  0.5778  0.5570  0.0743
   42CHL1  H21A 4267   0.186   3.847  23.152  1.2874 -0.0424 -0.8356
   42CHL1  H21B 4268   0.221   3.669  23.152 -1.4009 -1.6145  0.9143
   42CHL1  H21C 4269   0.183   3.757  23.303  1.2209  0.7446 -0.0881
   42CHL1   C22 4270  -0.087   3.805  23.252 -0.2568  0.5161 -0.0419
   42CHL1  H22A 4271  -0.194   3.776  23.246  0.0659 -0.8819  0.6346
   42CHL1  H22B 4272  -0.075   3.824  23.361 -1.4979  1.8118 -0.0918
   42CHL1   C23 4273  -0.059   3.942  23.183 -0.5265  0.2350  0.2408
   42CHL1  H23A 4274   0.041   3.984  23.203 -0.2383 -0.7194  0.8924
   42CHL1  H23B 4275  -0.075   3.935  23.073  1.8120 -0.7169 -0.0936
   42CHL1   C24 4276  -0.154   4.041  23.253 -0.1248  0.5774  0.1831
   42CHL1  H24A 4277  -0.248   4.009  23.203 -0.9546 -0.4297  2.2518
   42CHL1  H24B 4278  -0.158   4.025  23.363  0.1213  1.0449  0.2603
   42CHL1   C25 4279  -0.124   4.188  23.217  0.5196  0.5207  0.6005
   42CHL1   H25 4280  -0.072   4.188  23.119  2.2823 -1.0842  1.4502
   42CHL1   C26 4281  -0.247   4.276  23.206  0.4802  0.4794  0.4795
   42CHL1  H26A 4282  -0.220   4.384  23.195  0.6243  0.5498  1.4545
   42CHL1  H26B 4283  -0.301   4.240  23.116  1.0195 -0.8896  0.6884
   42CHL1  H26C 4284  -0.303   4.263  23.301  0.5781  2.5396  0.8801
   42CHL1   C27 4285  -0.028   4.256  23.315 -0.3708 -0.4277 -0.4221
   42CHL1  H27A 4286  -0.077   4.274  23.413 -1.6726 -2.3862 -0.6322
   42CHL1  H27B 4287   0.066   4.197  23.317 -0.8325 -1.5840 -4.1644
   42CHL1  H27C 4288  -0.006   4.357  23.275  0.4508 -1.6232 -3.2423
   43CHL1    C3 4289   1.973   1.121  21.412  0.3304 -0.2501  0.3580
   43CHL1    H3 4290   1.939   1.029  21.360 -0.7675  0.8238 -0.9010
   43CHL1    O3 4291   1.870   1.223  21.419  0.5159 -0.3924  0.8659
   43CHL1   H3' 4292   1.920   1.294  21.460 -2.2575  1.5387  1.2131
   43CHL1    C4 4293   1.999   1.076  21.552 -0.4107  0.0146 -0.5208
   43CHL1   H4A 4294   2.033   1.167  21.606 -0.8061 -0.4488  0.5209
   43CHL1   H4B 4295   1.901   1.047  21.595 -1.3431  2.7636 -0.5566
   43CHL1    C5 4296   2.104   0.978  21.558 -0.7739  0.0179 -0.6855
   43CHL1    C6 4297   2.090   0.861  21.625  0.5919  0.6819  0.6357
   43CHL1    H6 4298   1.990   0.841  21.667 -0.0876  0.2291 -1.0864
   43CHL1    C7 4299   2.197   0.757  21.626 -0.5540  0.3570 -0.5949
   43CHL1   H7A 4300   2.206   0.711  21.727  1.2811  2.6665  0.3977
   43CHL1   H7B 4301   2.177   0.679  21.550 -5.2692  2.0629 -1.4030
   43CHL1    C8 4302   2.345   0.799  21.585  0.0565  0.0608  0.7898
   43CHL1    H8 4303   2.389   0.847  21.675  1.9812  1.4261 -0.8002
   43CHL1   C14 4304   2.420   0.669  21.544  0.1444 -0.9895  0.5754
   43CHL1   H14 4305   2.379   0.634  21.448  3.2805 -1.5276 -0.7011
   43CHL1   C15 4306   2.428   0.551  21.642 -0.5229 -0.1115 -0.4178
   43CHL1  H15A 4307   2.447   0.593  21.743 -0.4156  0.7350 -0.7837
   43CHL1  H15B 4308   2.337   0.489  21.656 -2.0018  1.8643 -0.7838
   43CHL1   C16 4309   2.547   0.471  21.582 -0.1606  0.3699  0.3674
   43CHL1  H16A 4310   2.617   0.436  21.661  0.4650  1.5843  0.3861
   43CHL1  H16B 4311   2.501   0.378  21.545 -0.2832 -0.0490  1.5235
   43CHL1   C17 4312   2.614   0.561  21.473 -0.0120 -0.6521  0.1815
   43CHL1   H17 4313   2.570   0.524  21.377  0.9074  1.6685 -1.2034
   43CHL1   C13 4314   2.565   0.703  21.499  0.5138  0.0063 -0.4407
   43CHL1   C18 4315   2.646   0.768  21.617  0.7244  0.2341 -0.1662
   43CHL1  H18A 4316   2.589   0.840  21.679 -1.5506 -1.5054 -0.1361
   43CHL1  H18B 4317   2.675   0.695  21.696 -2.5303 -0.6952  0.2932
   43CHL1  H18C 4318   2.738   0.813  21.573  0.4660  0.5465 -0.3884
   43CHL1   C12 4319   2.554   0.785  21.370  0.7585 -0.1871 -0.6081
   43CHL1  H12A 4320   2.650   0.823  21.329 -0.3417  3.9308  0.2179
   43CHL1  H12B 4321   2.511   0.719  21.292  0.4704  0.0143 -0.6201
   43CHL1   C11 4322   2.465   0.912  21.397  0.4566  0.1522  0.7280
   43CHL1  H11A 4323   2.526   0.979  21.461  1.6284 -0.3840  0.1917
   43CHL1  H11B 4324   2.451   0.956  21.296  1.6068  0.0051  0.4898
   43CHL1    C9 4325   2.333   0.888  21.463  0.2783 -1.0454 -0.1817
   43CHL1    H9 4326   2.283   0.825  21.387 -1.3338 -0.6319  0.4849
   43CHL1   C10 4327   2.233   1.009  21.480 -0.1112 -0.5270  0.3776
   43CHL1   C19 4328   2.314   1.116  21.564  0.8620  0.3515 -0.4397
   43CHL1  H19A 4329   2.386   1.064  21.632  2.4476  2.5262 -0.3506
   43CHL1  H19B 4330   2.379   1.177  21.498  0.9526  0.6955 -0.0391
   43CHL1  H19C 4331   2.245   1.179  21.624 -0.1089 -1.1544  0.0801
   43CHL1    C1 4332   2.206   1.078  21.349  0.3349  0.6143  0.0862
   43CHL1   H1A 4333   2.299   1.113  21.300 -0.6301  1.0377 -1.5477
   43CHL1   H1B 4334   2.165   0.991  21.292  0.5586 -1.4858  2.9423
   43CHL1    C2 4335   2.098   1.181  21.343  0.3651  0.5388 -1.0747
   43CHL1   H2A 4336   2.070   1.217  21.242 -2.3714  2.3861  0.2179
   43CHL1   H2B 4337   2.132   1.270  21.401  1.4029 -1.0787  0.9368
   43CHL1   C20 4338   2.769   0.540  21.467  0.3550  0.1805  0.0328
   43CHL1   H20 4339   2.807   0.576  21.565 -0.2841 -1.7269  1.0413
   43CHL1   C21 4340   2.838   0.603  21.348  1.2318  0.0933  0.1507
   43CHL1  H21A 4341   2.941   0.566  21.331  1.2740  1.0084 -1.8682
   43CHL1  H21B 4342   2.849   0.713  21.356  1.2151  0.3338 -2.2704
   43CHL1  H21C 4343   2.780   0.571  21.258 -0.3600  2.3190  0.2925
   43CHL1   C22 4344   2.818   0.393  21.473  0.0224  0.0174  0.4046
   43CHL1  H22A 4345   2.928   0.389  21.483  0.2590  0.0009 -1.8622
   43CHL1  H22B 4346   2.776   0.347  21.565 -2.7726  0.2301 -0.6668
   43CHL1   C23 4347   2.800   0.304  21.348  0.1485  0.0234 -0.1289
   43CHL1  H23A 4348   2.690   0.295  21.332 -0.2930  4.1468 -0.5060
   43CHL1  H23B 4349   2.838   0.356  21.258 -0.6411  3.0957  1.1889
   43CHL1   C24 4350   2.870   0.161  21.367  0.7813 -0.3730 -0.0828
   43CHL1  H24A 4351   2.965   0.186  21.419  0.9912  0.1045 -0.6760
   43CHL1  H24B 4352   2.798   0.109  21.433  1.2876  0.4721  1.1680
   43CHL1   C25 4353   2.901   0.089  21.234  0.1016 -0.4416  0.8136
   43CHL1   H25 4354   2.963   0.154  21.169 -2.8058  1.9404  0.2003
   43CHL1   C26 4355   2.979  -0.038  21.250  0.4179  0.3250 -0.5411
   43CHL1  H26A 4356   3.026  -0.079  21.158  3.3139  0.4039  0.8026
   43CHL1  H26B 4357   3.064  -0.018  21.319  0.5768  0.7828 -0.8625
   43CHL1  H26C 4358   2.918  -0.119  21.294  2.0081 -0.2666  0.6772
   43CHL1   C27 4359   2.773   0.076  21.149  0.3684  0.5921  0.1845
   43CHL1  H27A 4360   2.689   0.045  21.214  2.5204 -3.3879  1.3890
   43CHL1  H27B 4361   2.740   0.174  21.107  0.9744  0.5225 -0.4768
   43CHL1  H27C 4362   2.788   0.003  21.066  1.0486  1.1457 -0.1841
   44CHL1    C3 4363   1.751   1.136  17.986  0.0228  0.8449  0.3453
   44CHL1    H3 4364   1.734   1.056  18.061 -0.9197  1.1809  0.5047
   44CHL1    O3 4365   1.795   1.257  18.054  1.1069 -0.4221 -0.1568
   44CHL1   H3' 4366   1.786   1.329  17.991  1.3109 -0.7932 -0.6113
   44CHL1    C4 4367   1.851   1.108  17.872 -0.5443  0.8295 -0.6216
   44CHL1   H4A 4368   1.880   1.202  17.820 -2.1270  0.7470 -1.6898
   44CHL1   H4B 4369   1.941   1.079  17.932 -0.3811  2.4333 -0.0342
   44CHL1    C5 4370   1.806   1.000  17.773 -1.2609  0.6596  0.1450
   44CHL1    C6 4371   1.883   0.898  17.738  0.1572  0.3385  0.0005
   44CHL1    H6 4372   1.981   0.880  17.785 -0.2448  1.0424  1.1589
   44CHL1    C7 4373   1.849   0.798  17.629  0.1269  1.0566 -0.0346
   44CHL1   H7A 4374   1.933   0.789  17.557 -0.5720 -0.8599 -0.6738
   44CHL1   H7B 4375   1.831   0.694  17.663 -1.2096  0.8522 -1.2786
   44CHL1    C8 4376   1.714   0.832  17.549  0.0933 -0.4990 -0.4411
   44CHL1    H8 4377   1.757   0.895  17.468 -0.5706 -0.6450 -0.9143
   44CHL1   C14 4378   1.661   0.717  17.475 -0.3342  0.2761  0.2277
   44CHL1   H14 4379   1.616   0.644  17.546  0.6414 -1.1102 -0.5276
   44CHL1   C15 4380   1.761   0.630  17.400 -0.0977 -0.1136  0.5369
   44CHL1  H15A 4381   1.832   0.697  17.347  0.4524 -0.1251  1.2425
   44CHL1  H15B 4382   1.825   0.571  17.470  0.3017 -1.6117 -1.0229
   44CHL1   C16 4383   1.680   0.538  17.310  0.8346 -0.2017 -0.6146
   44CHL1  H16A 4384   1.720   0.544  17.207 -1.0857 -0.9023 -1.4355
   44CHL1  H16B 4385   1.684   0.432  17.342 -0.1373 -0.5389 -1.5362
   44CHL1   C17 4386   1.530   0.592  17.327  0.4401  0.5618 -0.4334
   44CHL1   H17 4387   1.481   0.539  17.412  1.2818  1.0174  0.3476
   44CHL1   C13 4388   1.540   0.734  17.372 -0.6844 -0.2902 -0.3305
   44CHL1   C18 4389   1.594   0.815  17.247  0.2378 -0.2364 -0.3217
   44CHL1  H18A 4390   1.513   0.851  17.180 -1.5048 -2.0219  0.7489
   44CHL1  H18B 4391   1.646   0.907  17.281 -1.9656  0.5576  1.0669
   44CHL1  H18C 4392   1.672   0.762  17.187 -0.2715  1.5573 -2.7488
   44CHL1   C12 4393   1.436   0.816  17.447  0.0252 -0.4615 -0.3288
   44CHL1  H12A 4394   1.351   0.850  17.384  0.1474 -0.4976 -0.5118
   44CHL1  H12B 4395   1.385   0.747  17.517 -0.2830  0.8055  0.7411
   44CHL1   C11 4396   1.495   0.946  17.533  0.0156  0.1124  0.1389
   44CHL1  H11A 4397   1.540   1.012  17.455  0.1631 -0.4845 -0.2817
   44CHL1  H11B 4398   1.409   0.986  17.591  1.0017  1.5128  0.6789
   44CHL1    C9 4399   1.609   0.904  17.622 -0.3460 -0.3560 -0.7941
   44CHL1    H9 4400   1.567   0.827  17.690  0.8350 -2.1673 -2.0229
   44CHL1   C10 4401   1.669   1.023  17.706 -0.5367  0.0838 -0.5387
   44CHL1   C19 4402   1.690   1.142  17.616  0.2943 -0.1366 -0.2642
   44CHL1  H19A 4403   1.754   1.106  17.533  1.1579 -1.1069  0.7941
   44CHL1  H19B 4404   1.594   1.185  17.581  1.1021  2.2224  0.2173
   44CHL1  H19C 4405   1.743   1.228  17.662 -1.4683  0.6470  0.3813
   44CHL1    C1 4406   1.570   1.059  17.822  0.4991  0.1356 -0.3487
   44CHL1   H1A 4407   1.474   1.094  17.778  1.7838  1.6539 -2.1029
   44CHL1   H1B 4408   1.558   0.974  17.892  0.8454  1.2725  1.1329
   44CHL1    C2 4409   1.621   1.176  17.917  0.5035  0.4290  0.1444
   44CHL1   H2A 4410   1.551   1.198  18.001 -0.5255  3.5728 -1.3588
   44CHL1   H2B 4411   1.623   1.271  17.859  2.7921 -0.1606 -0.8478
   44CHL1   C20 4412   1.447   0.554  17.201 -1.0747 -0.0542 -0.4628
   44CHL1   H20 4413   1.450   0.643  17.134 -0.5774  1.6317  1.6994
   44CHL1   C21 4414   1.299   0.554  17.258 -0.3870  0.1533  0.2443
   44CHL1  H21A 4415   1.229   0.539  17.172  1.9123  1.4673 -2.0048
   44CHL1  H21B 4416   1.270   0.649  17.307  0.0646  0.3037  0.2283
   44CHL1  H21C 4417   1.269   0.468  17.321  1.5604 -2.1446 -1.7232
   44CHL1   C22 4418   1.471   0.418  17.142 -0.1109  0.5338  0.2199
   44CHL1  H22A 4419   1.573   0.391  17.107 -0.4530 -0.5496  0.0199
   44CHL1  H22B 4420   1.448   0.342  17.219  0.1916  0.9746  0.7551
   44CHL1   C23 4421   1.381   0.392  17.015 -0.0781 -0.2590  0.2822
   44CHL1  H23A 4422   1.385   0.283  16.995  0.4124 -0.3508  0.8336
   44CHL1  H23B 4423   1.276   0.425  17.027  0.3003  0.9013  0.4565
   44CHL1   C24 4424   1.436   0.462  16.893 -0.4085  0.7568 -0.6226
   44CHL1  H24A 4425   1.439   0.572  16.913 -0.5703  0.8820 -1.2786
   44CHL1  H24B 4426   1.542   0.428  16.897 -0.1597  1.4689 -0.9032
   44CHL1   C25 4427   1.368   0.434  16.757  0.2087  0.4252  0.0204
   44CHL1   H25 4428   1.260   0.438  16.783  0.1427  1.2061 -0.3313
   44CHL1   C26 4429   1.396   0.540  16.650 -0.4848 -0.2238 -0.6186
   44CHL1  H26A 4430   1.400   0.642  16.693  0.1062  0.2166 -1.6726
   44CHL1  H26B 4431   1.491   0.523  16.594  2.4614 -0.0282  3.8207
   44CHL1  H26C 4432   1.315   0.556  16.576 -0.4086  1.5072 -0.3732
   44CHL1   C27 4433   1.399   0.298  16.700 -0.4355  0.2248 -0.2772
   44CHL1  H27A 4434   1.345   0.273  16.605  0.4459  1.1490 -1.0482
   44CHL1  H27B 4435   1.508   0.291  16.679 -0.1839  3.3075 -0.4617
   44CHL1  H27C 4436   1.363   0.220  16.770  1.6409  0.5152  1.1794
   45CHL1    C3 4437   1.528   1.131  18.738  0.4283  0.1574 -0.1837
   45CHL1    H3 4438   1.464   1.183  18.663  0.9133 -0.0861 -0.7775
   45CHL1    O3 4439   1.635   1.208  18.783  0.0194  0.2192 -0.6005
   45CHL1   H3' 4440   1.662   1.153  18.857 -0.8360 -2.4454 -2.1407
   45CHL1    C4 4441   1.441   1.109  18.859 -0.1867  0.0108 -0.4108
   45CHL1   H4A 4442   1.506   1.076  18.943 -2.5285  0.0357  1.4990
   45CHL1   H4B 4443   1.396   1.204  18.896  1.4479  1.5794 -2.1823
   45CHL1    C5 4444   1.334   1.007  18.836  0.9537 -0.1355 -0.4794
   45CHL1    C6 4445   1.201   1.023  18.851  0.3878  0.9108 -0.4449
   45CHL1    H6 4446   1.162   1.122  18.879  2.0878  1.4040  0.2963
   45CHL1    C7 4447   1.103   0.913  18.843 -0.0064  0.9907  0.5263
   45CHL1   H7A 4448   1.038   0.912  18.933  0.9362 -0.3260  1.2296
   45CHL1   H7B 4449   1.038   0.923  18.753  0.3170  0.3742  0.2198
   45CHL1    C8 4450   1.169   0.771  18.849  0.3064 -0.2545  0.3179
   45CHL1    H8 4451   1.204   0.755  18.953 -0.6394 -2.7222  0.3281
   45CHL1   C14 4452   1.070   0.661  18.816 -0.2256 -0.4927 -0.1921
   45CHL1   H14 4453   1.030   0.678  18.713 -2.6410 -1.2658  0.5358
   45CHL1   C15 4454   0.952   0.649  18.913 -0.0469  0.1977 -0.4222
   45CHL1  H15A 4455   0.982   0.653  19.020  2.8927  0.0851 -1.1549
   45CHL1  H15B 4456   0.878   0.726  18.883  0.6638  0.5788 -1.2201
   45CHL1   C16 4457   0.898   0.516  18.862  0.0184 -0.2977 -0.1033
   45CHL1  H16A 4458   0.866   0.465  18.956 -0.6263  0.3470  0.0354
   45CHL1  H16B 4459   0.805   0.523  18.803 -0.9224  0.0311  1.3484
   45CHL1   C17 4460   1.000   0.435  18.783  0.5192 -0.2794 -0.0577
   45CHL1   H17 4461   0.969   0.450  18.678  0.8373  1.0486  0.0266
   45CHL1   C13 4462   1.135   0.518  18.807  0.4641  0.2265  0.2219
   45CHL1   C18 4463   1.199   0.487  18.945  0.0559  0.2445 -0.1922
   45CHL1  H18A 4464   1.225   0.379  18.941  0.9688  0.4305  0.3702
   45CHL1  H18B 4465   1.285   0.552  18.970  0.4849 -0.7273  0.9817
   45CHL1  H18C 4466   1.129   0.503  19.030 -0.2098  2.2101 -0.7320
   45CHL1   C12 4467   1.241   0.515  18.694 -0.0252  0.1343 -0.2744
   45CHL1  H12A 4468   1.278   0.413  18.669  0.4347  0.0327  0.7723
   45CHL1  H12B 4469   1.180   0.539  18.604 -2.3114 -3.1064  0.2505
   45CHL1   C11 4470   1.346   0.617  18.722  0.3970  0.2330  0.0611
   45CHL1  H11A 4471   1.416   0.565  18.790 -0.0219 -0.7395 -0.2327
   45CHL1  H11B 4472   1.404   0.623  18.627 -2.2260 -1.8130 -1.8286
   45CHL1    C9 4473   1.286   0.764  18.754 -0.7433 -0.2527 -0.3038
   45CHL1    H9 4474   1.251   0.797  18.654  2.8479 -1.2456 -2.0606
   45CHL1   C10 4475   1.394   0.869  18.787  1.3715 -0.0121 -0.0069
   45CHL1   C19 4476   1.480   0.809  18.897 -0.3960  0.0357 -0.0799
   45CHL1  H19A 4477   1.557   0.878  18.938 -1.6221  0.8407  0.9587
   45CHL1  H19B 4478   1.429   0.787  18.993  1.1598 -1.7733  0.3925
   45CHL1  H19C 4479   1.545   0.724  18.867 -0.8470 -0.5671  0.6333
   45CHL1    C1 4480   1.484   0.894  18.660 -0.5594  0.4475 -0.1644
   45CHL1   H1A 4481   1.551   0.807  18.640  2.0122  2.3316 -0.2828
   45CHL1   H1B 4482   1.422   0.918  18.571 -0.3971  1.6150  0.0216
   45CHL1    C2 4483   1.586   1.004  18.688 -0.0186  0.5070  0.1155
   45CHL1   H2A 4484   1.649   1.022  18.598  2.4117 -0.4618  1.5110
   45CHL1   H2B 4485   1.652   0.967  18.769  1.4012  2.8121  0.0850
   45CHL1   C20 4486   1.009   0.288  18.805 -0.2809  0.5559 -0.4303
   45CHL1   H20 4487   1.086   0.268  18.883 -0.3029 -0.9751 -0.7672
   45CHL1   C21 4488   1.051   0.224  18.669  0.4370  0.2020  0.4349
   45CHL1  H21A 4489   1.069   0.115  18.682  0.8241  0.1702 -0.3338
   45CHL1  H21B 4490   1.143   0.270  18.629  0.5364 -1.7563 -1.7491
   45CHL1  H21C 4491   0.973   0.246  18.593  1.1185  1.1810  0.0021
   45CHL1   C22 4492   0.886   0.208  18.862 -0.1709  0.1988 -0.4739
   45CHL1  H22A 4493   0.927   0.111  18.898  2.0615  1.3170  0.1840
   45CHL1  H22B 4494   0.847   0.252  18.957 -1.8036  0.9769 -1.4597
   45CHL1   C23 4495   0.767   0.178  18.767 -0.6832 -0.4509 -0.8852
   45CHL1  H23A 4496   0.739   0.274  18.719  0.0115 -0.5186 -1.4276
   45CHL1  H23B 4497   0.813   0.115  18.689  1.5952 -0.6018  0.4822
   45CHL1   C24 4498   0.650   0.094  18.825 -0.9591  0.2632 -0.6427
   45CHL1  H24A 4499   0.688   0.002  18.874  1.1451  1.5614  0.2836
   45CHL1  H24B 4500   0.627   0.161  18.911 -0.4167  0.5118 -0.6833
   45CHL1   C25 4501   0.521   0.083  18.735 -0.6674  0.0598 -0.6481
   45CHL1   H25 4502   0.476   0.184  18.735 -0.9400 -0.0518 -1.3738
   45CHL1   C26 4503   0.560   0.054  18.593  0.8303  0.4733  0.4631
   45CHL1  H26A 4504   0.609   0.140  18.542  0.9844 -0.5044 -1.1008
   45CHL1  H26B 4505   0.635  -0.027  18.578  0.0059  0.0478 -1.7916
   45CHL1  H26C 4506   0.468   0.036  18.534  0.7515  2.7452 -0.1967
   45CHL1   C27 4507   0.418  -0.018  18.776  0.3564  0.1754 -0.3381
   45CHL1  H27A 4508   0.453  -0.122  18.792  0.6785  0.1945 -0.8918
   45CHL1  H27B 4509   0.378   0.009  18.876 -0.9691 -1.5815 -0.3551
   45CHL1  H27C 4510   0.337  -0.017  18.700 -0.1407  1.2702  0.1774
   46CHL1    C3 4511   2.073   2.320  17.395 -0.9399  0.2535 -0.0727
   46CHL1    H3 4512   1.970   2.342  17.359 -0.6046  2.9818  0.3984
   46CHL1    O3 4513   2.080   2.181  17.424  0.1459  0.1625 -0.3386
   46CHL1   H3' 4514   2.141   2.180  17.499  0.8253 -0.0889 -0.8812
   46CHL1    C4 4515   2.179   2.351  17.282 -0.0700 -0.6604  0.5072
   46CHL1   H4A 4516   2.280   2.312  17.309  0.6674  1.1877  0.5562
   46CHL1   H4B 4517   2.148   2.296  17.191  0.7139  0.3810 -0.4094
   46CHL1    C5 4518   2.185   2.505  17.258 -1.2843  0.4328  0.5860
   46CHL1    C6 4519   2.158   2.559  17.139  0.2475  0.3049  0.0783
   46CHL1    H6 4520   2.138   2.496  17.051 -0.0798  0.4282  0.0646
   46CHL1    C7 4521   2.169   2.701  17.104 -0.0942 -0.2083  0.1418
   46CHL1   H7A 4522   2.222   2.714  17.008 -0.9404  0.0212 -0.3114
   46CHL1   H7B 4523   2.065   2.737  17.084 -0.9271 -1.4432  1.9526
   46CHL1    C8 4524   2.238   2.782  17.215 -0.2595 -0.3309  0.2258
   46CHL1    H8 4525   2.344   2.751  17.207 -0.9046 -2.3591 -1.3514
   46CHL1   C14 4526   2.226   2.930  17.192  0.4437 -0.1998 -0.2745
   46CHL1   H14 4527   2.117   2.951  17.197  0.0091 -1.8156 -1.8707
   46CHL1   C15 4528   2.253   2.989  17.056 -0.0792  0.5673  0.2518
   46CHL1  H15A 4529   2.342   2.945  17.006 -1.6680 -0.5719 -1.7061
   46CHL1  H15B 4530   2.176   2.970  16.979  0.0419  0.7872  0.0728
   46CHL1   C16 4531   2.286   3.134  17.075  0.3831  0.4826  0.3929
   46CHL1  H16A 4532   2.385   3.162  17.033  0.3644 -1.8423 -1.3837
   46CHL1  H16B 4533   2.217   3.204  17.022 -1.3420 -1.6055 -0.2781
   46CHL1   C17 4534   2.275   3.158  17.233  0.4838  0.7671  0.1773
   46CHL1   H17 4535   2.174   3.199  17.258 -0.2794  0.2747 -1.8665
   46CHL1   C13 4536   2.295   3.019  17.292 -0.5445 -0.1098  0.4792
   46CHL1   C18 4537   2.446   2.986  17.294  0.3029 -0.2444 -0.8741
   46CHL1  H18A 4538   2.485   3.052  17.375  1.0341 -1.5610 -0.1255
   46CHL1  H18B 4539   2.472   2.880  17.317  1.1497  0.7340  3.7582
   46CHL1  H18C 4540   2.506   3.014  17.205  2.6469 -2.0241  0.0132
   46CHL1   C12 4541   2.236   2.994  17.426 -0.1217 -0.2071 -0.6466
   46CHL1  H12A 4542   2.290   3.057  17.500  0.7236 -1.7158  0.0604
   46CHL1  H12B 4543   2.130   3.020  17.441 -0.0378 -0.0751 -0.2789
   46CHL1   C11 4544   2.247   2.846  17.463 -0.2213 -0.0579  0.3725
   46CHL1  H11A 4545   2.353   2.822  17.486 -0.4639 -2.3156 -0.5908
   46CHL1  H11B 4546   2.186   2.817  17.552 -0.3693  0.2638  0.3778
   46CHL1    C9 4547   2.187   2.748  17.357  0.0274  0.3831  0.2092
   46CHL1    H9 4548   2.079   2.774  17.346  0.2239  0.9334 -0.4702
   46CHL1   C10 4549   2.204   2.593  17.383  0.2369 -0.4585 -0.2861
   46CHL1   C19 4550   2.349   2.563  17.431  0.2541 -0.0619 -0.4299
   46CHL1  H19A 4551   2.354   2.453  17.448 -0.7117 -0.3288 -1.6893
   46CHL1  H19B 4552   2.428   2.587  17.356 -0.1339 -0.3339 -0.9277
   46CHL1  H19C 4553   2.377   2.611  17.527 -2.3665  0.4638  0.1347
   46CHL1    C1 4554   2.103   2.545  17.494 -0.0814  0.1810  0.1127
   46CHL1   H1A 4555   2.122   2.598  17.589  0.5262 -1.8550  1.1940
   46CHL1   H1B 4556   2.009   2.575  17.443 -0.1034  1.2352  0.7416
   46CHL1    C2 4557   2.100   2.398  17.524 -0.7221  0.0720 -0.1531
   46CHL1   H2A 4558   2.022   2.381  17.600  1.4153 -2.1673  1.7120
   46CHL1   H2B 4559   2.203   2.372  17.558  1.0187  1.4849 -3.7371
   46CHL1   C20 4560   2.363   3.274  17.275 -0.9268 -0.1631  0.0619
   46CHL1   H20 4561   2.470   3.245  17.270 -0.6634  0.8952 -0.8086
   46CHL1   C21 4562   2.325   3.317  17.418 -0.2164 -0.3314  0.0720
   46CHL1  H21A 4563   2.217   3.335  17.439 -0.1450 -0.7750  0.8395
   46CHL1  H21B 4564   2.385   3.402  17.457  0.3785 -1.8815  2.7809
   46CHL1  H21C 4565   2.355   3.237  17.489 -0.2120  0.2068  0.6891
   46CHL1   C22 4566   2.355   3.397  17.185 -0.2258 -0.1863  0.1323
   46CHL1  H22A 4567   2.410   3.367  17.093  0.0484  1.5219 -0.2952
   46CHL1  H22B 4568   2.248   3.416  17.160  0.5117  1.6042 -1.9605
   46CHL1   C23 4569   2.443   3.512  17.239 -0.5872  0.1186  0.5605
   46CHL1  H23A 4570   2.382   3.556  17.321 -1.0072  2.9192 -1.1302
   46CHL1  H23B 4571   2.530   3.456  17.280 -1.0960 -1.3171 -0.2427
   46CHL1   C24 4572   2.468   3.607  17.127 -0.6047  0.1425  0.4130
   46CHL1  H24A 4573   2.525   3.546  17.054 -2.6400  1.6066 -2.6311
   46CHL1  H24B 4574   2.373   3.635  17.076 -0.2946 -0.8359 -0.7581
   46CHL1   C25 4575   2.554   3.729  17.165  0.5678 -0.2108 -0.0597
   46CHL1   H25 4576   2.618   3.689  17.247  0.1934 -3.8703 -1.3562
   46CHL1   C26 4577   2.649   3.755  17.047 -0.4044  0.1059  0.6955
   46CHL1  H26A 4578   2.606   3.749  16.945  1.0911 -0.1644  0.0502
   46CHL1  H26B 4579   2.688   3.858  17.057  0.3923 -0.3313  2.5413
   46CHL1  H26C 4580   2.729   3.678  17.038 -1.5000 -0.8342 -1.8815
   46CHL1   C27 4581   2.467   3.850  17.210  0.1754 -0.4477 -0.0726
   46CHL1  H27A 4582   2.530   3.933  17.247  1.2493 -1.7159  1.0556
   46CHL1  H27B 4583   2.395   3.881  17.132 -1.2308 -1.7776  0.6329
   46CHL1  H27C 4584   2.414   3.799  17.294  1.4250 -0.5336  0.6896
   47CHL1    C3 4585   0.065   2.435  17.890 -0.9787 -0.0857  0.0302
   47CHL1    H3 4586   0.155   2.374  17.870 -1.1004 -1.0965  2.2977
   47CHL1    O3 4587  -0.003   2.363  17.993 -0.2037  0.1362  0.0300
   47CHL1   H3' 4588  -0.086   2.326  17.961 -0.4663  0.0607  0.7836
   47CHL1    C4 4589   0.119   2.566  17.939 -0.3884 -0.6362 -0.1632
   47CHL1   H4A 4590   0.034   2.624  17.981 -1.8473 -1.7128 -1.4995
   47CHL1   H4B 4591   0.171   2.536  18.033 -2.0295 -0.7152  0.7582
   47CHL1    C5 4592   0.198   2.650  17.833 -0.5546 -0.2166  0.1526
   47CHL1    C6 4593   0.322   2.684  17.864 -0.0219 -0.1109  0.5393
   47CHL1    H6 4594   0.366   2.653  17.960 -1.2204  0.2514  1.2368
   47CHL1    C7 4595   0.418   2.751  17.771  0.3643  0.2014 -0.6292
   47CHL1   H7A 4596   0.466   2.845  17.808 -2.3296  2.2213 -1.8732
   47CHL1   H7B 4597   0.491   2.674  17.741 -0.9995 -0.7056 -1.6953
   47CHL1    C8 4598   0.345   2.796  17.638  0.7328 -0.5313 -0.2763
   47CHL1    H8 4599   0.288   2.887  17.670  1.1286 -1.4786  3.6153
   47CHL1   C14 4600   0.439   2.827  17.530  0.4384 -0.1305 -0.2928
   47CHL1   H14 4601   0.489   2.733  17.497 -0.6567 -1.2987  1.2802
   47CHL1   C15 4602   0.554   2.927  17.558 -0.2277 -0.4878 -0.5678
   47CHL1  H15A 4603   0.512   3.012  17.616  2.3337  0.7568 -0.4162
   47CHL1  H15B 4604   0.632   2.884  17.624 -0.4346  0.0132  0.0145
   47CHL1   C16 4605   0.588   2.972  17.422  0.0160 -0.0321 -0.4591
   47CHL1  H16A 4606   0.572   3.082  17.424  0.0028 -0.0369 -0.3031
   47CHL1  H16B 4607   0.690   2.954  17.383 -0.1393 -0.5430 -0.6368
   47CHL1   C17 4608   0.487   2.907  17.316  0.4560 -0.2185  0.6350
   47CHL1   H17 4609   0.529   2.804  17.306  1.0353 -0.1996  2.5043
   47CHL1   C13 4610   0.368   2.878  17.398 -0.0342  0.2473  0.5322
   47CHL1   C18 4611   0.294   3.008  17.424  0.2689  0.4198  0.1392
   47CHL1  H18A 4612   0.234   3.037  17.335 -0.8768 -2.2266 -0.0350
   47CHL1  H18B 4613   0.222   3.002  17.509  0.9982 -2.3111  0.6482
   47CHL1  H18C 4614   0.363   3.094  17.435  3.2836 -1.8218 -0.0062
   47CHL1   C12 4615   0.277   2.764  17.338 -0.2996 -0.7269 -0.2896
   47CHL1  H12A 4616   0.214   2.798  17.253  0.0652 -0.0102 -0.2843
   47CHL1  H12B 4617   0.341   2.675  17.320 -0.5999 -1.3578  1.5702
   47CHL1   C11 4618   0.170   2.716  17.450  0.4816  0.5991  0.5070
   47CHL1  H11A 4619   0.097   2.800  17.449  0.0393  0.2807 -2.3316
   47CHL1  H11B 4620   0.122   2.623  17.414 -1.8824  2.1595 -0.6574
   47CHL1    C9 4621   0.240   2.693  17.590  0.4379  0.4615  0.0399
   47CHL1    H9 4622   0.301   2.601  17.580  0.3603  0.2649  1.2596
   47CHL1   C10 4623   0.129   2.665  17.697 -0.1502  0.5479  1.0774
   47CHL1   C19 4624   0.020   2.769  17.713  0.0430  0.1756  0.5967
   47CHL1  H19A 4625  -0.060   2.739  17.785  1.4623 -0.2355  2.0759
   47CHL1  H19B 4626   0.059   2.867  17.749  1.3003 -0.6338  1.5204
   47CHL1  H19C 4627  -0.023   2.795  17.614  1.4664 -1.9595 -0.6612
   47CHL1    C1 4628   0.062   2.530  17.658  0.0179  0.1957  0.4226
   47CHL1   H1A 4629   0.010   2.537  17.560  2.1880  3.9975 -0.6658
   47CHL1   H1B 4630   0.139   2.454  17.634 -2.7440 -2.4995 -0.6625
   47CHL1    C2 4631  -0.019   2.457  17.762 -1.1489 -0.5960  0.0973
   47CHL1   H2A 4632  -0.058   2.359  17.726  1.2149 -1.7960  0.6012
   47CHL1   H2B 4633  -0.115   2.501  17.797 -1.3610 -2.2791  1.8126
   47CHL1   C20 4634   0.468   2.967  17.175 -0.2162 -0.5051 -0.0465
   47CHL1   H20 4635   0.375   2.928  17.128 -0.8007 -0.2603  0.8819
   47CHL1   C21 4636   0.594   2.924  17.089  0.0999  0.2362 -0.2067
   47CHL1  H21A 4637   0.687   2.962  17.137 -0.2007 -0.6139  1.0849
   47CHL1  H21B 4638   0.586   2.969  16.987 -2.3963  0.4060  0.0153
   47CHL1  H21C 4639   0.587   2.813  17.087  0.3061  0.0205  3.6415
   47CHL1   C22 4640   0.450   3.115  17.170 -0.2872  0.2652 -0.0641
   47CHL1  H22A 4641   0.394   3.165  17.253  0.5692 -0.4353  0.9635
   47CHL1  H22B 4642   0.550   3.160  17.153 -0.0600 -0.3917 -0.4718
   47CHL1   C23 4643   0.370   3.160  17.045  0.6315 -0.0752  1.2074
   47CHL1  H23A 4644   0.407   3.116  16.950 -1.7011  0.3911  0.0067
   47CHL1  H23B 4645   0.268   3.116  17.052  0.2333  0.7177  0.4944
   47CHL1   C24 4646   0.376   3.310  17.022  0.5283  0.3595  0.3154
   47CHL1  H24A 4647   0.334   3.363  17.109  0.4616 -0.8437  1.0373
   47CHL1  H24B 4648   0.483   3.340  17.017  1.2233 -2.0087 -0.4992
   47CHL1   C25 4649   0.314   3.351  16.888  1.0568  0.2053 -0.1890
   47CHL1   H25 4650   0.324   3.269  16.814  0.2827  0.3552 -0.4695
   47CHL1   C26 4651   0.168   3.385  16.901 -0.2097 -0.1135 -0.9433
   47CHL1  H26A 4652   0.111   3.290  16.909  1.6078 -1.2538 -1.0552
   47CHL1  H26B 4653   0.137   3.449  16.986 -1.0215 -1.9802  0.2025
   47CHL1  H26C 4654   0.131   3.425  16.804  1.8601  0.8534 -1.4091
   47CHL1   C27 4655   0.380   3.468  16.819  0.2385  0.0331 -0.9413
   47CHL1  H27A 4656   0.485   3.444  16.789 -0.4273 -0.5160 -2.9582
   47CHL1  H27B 4657   0.323   3.490  16.726  1.6663 -0.5789 -2.0141
   47CHL1  H27C 4658   0.374   3.560  16.881 -3.2373 -0.8215  0.2069
   48CHL1    C3 4659   0.082   2.714  24.021  0.0512 -0.4112  0.5019
   48CHL1    H3 4660   0.113   2.769  24.113  1.6011  0.3150 -0.4261
   48CHL1    O3 4661   0.115   2.576  24.042  0.1984 -0.3963 -0.4440
   48CHL1   H3' 4662   0.081   2.538  23.960  1.5263 -2.4898 -0.0909
   48CHL1    C4 4663  -0.070   2.722  23.991 -1.2404 -0.8534  0.4737
   48CHL1   H4A 4664  -0.078   2.671  23.893  2.0532 -0.0430 -0.3353
   48CHL1   H4B 4665  -0.125   2.670  24.073  0.5670 -0.6449  1.8821
   48CHL1    C5 4666  -0.112   2.867  23.970  0.1432  0.3533 -0.4662
   48CHL1    C6 4667  -0.192   2.924  24.056 -0.3710  0.1961  0.8467
   48CHL1    H6 4668  -0.234   2.870  24.142 -0.2684 -2.2090 -0.5248
   48CHL1    C7 4669  -0.227   3.069  24.043  0.2914  0.2561  0.0152
   48CHL1   H7A 4670  -0.335   3.081  24.066  0.1653 -0.6640 -0.0714
   48CHL1   H7B 4671  -0.180   3.139  24.116  1.5773  1.3082 -1.7351
   48CHL1    C8 4672  -0.199   3.132  23.902 -0.2617 -0.9135 -0.0729
   48CHL1    H8 4673  -0.275   3.082  23.839 -1.2039 -1.1349  1.1884
   48CHL1   C14 4674  -0.222   3.288  23.891 -0.1881 -0.2462  0.2136
   48CHL1   H14 4675  -0.154   3.328  23.970 -0.1610 -0.9074  0.5402
   48CHL1   C15 4676  -0.357   3.337  23.933 -0.6865 -0.4958 -0.4108
   48CHL1  H15A 4677  -0.444   3.285  23.886 -1.1768 -0.8183  0.8320
   48CHL1  H15B 4678  -0.363   3.332  24.044  0.7107 -2.0615 -0.3766
   48CHL1   C16 4679  -0.352   3.486  23.888  0.7466 -0.0426  0.0332
   48CHL1  H16A 4680  -0.446   3.508  23.834  1.7259 -0.6401 -2.0517
   48CHL1  H16B 4681  -0.345   3.550  23.978 -1.0784 -1.0581  0.9460
   48CHL1   C17 4682  -0.228   3.500  23.793  0.0677 -0.3330 -1.3234
   48CHL1   H17 4683  -0.143   3.542  23.851  0.0738  0.4046 -1.8604
   48CHL1   C13 4684  -0.176   3.360  23.766  0.1694  0.4965  0.0587
   48CHL1   C18 4685  -0.259   3.301  23.645 -1.1862 -0.1941  0.3907
   48CHL1  H18A 4686  -0.243   3.193  23.626  0.7893  0.1331 -0.0063
   48CHL1  H18B 4687  -0.367   3.322  23.661 -1.4354 -0.1775 -1.1400
   48CHL1  H18C 4688  -0.228   3.348  23.549  1.3852 -1.9050  0.2963
   48CHL1   C12 4689  -0.026   3.330  23.751 -0.3524  0.2220 -0.1479
   48CHL1  H12A 4690   0.030   3.386  23.673  2.8099 -0.9909  1.1022
   48CHL1  H12B 4691   0.027   3.363  23.842  0.9345 -0.8396 -0.4704
   48CHL1   C11 4692   0.005   3.179  23.752 -0.2462  0.1930 -0.2500
   48CHL1  H11A 4693  -0.007   3.137  23.649  1.4435 -0.3318 -0.2678
   48CHL1  H11B 4694   0.114   3.168  23.773 -0.2976 -2.3499 -1.0099
   48CHL1    C9 4695  -0.051   3.101  23.870  0.1983 -0.0827 -0.3992
   48CHL1    H9 4696  -0.002   3.132  23.965  1.3017 -1.7241 -0.3828
   48CHL1   C10 4697  -0.035   2.946  23.857 -0.7176 -0.0348 -0.3125
   48CHL1   C19 4698  -0.101   2.893  23.725 -0.2113  0.4308  0.7603
   48CHL1  H19A 4699  -0.160   2.981  23.692  0.2553  0.7980  0.8895
   48CHL1  H19B 4700  -0.023   2.862  23.651  0.3827  1.5554  0.8933
   48CHL1  H19C 4701  -0.167   2.804  23.733  0.1720 -0.0937 -1.1870
   48CHL1    C1 4702   0.121   2.909  23.863  0.1369 -0.4701  0.0699
   48CHL1   H1A 4703   0.159   2.927  23.761 -1.2349 -1.1682 -0.5897
   48CHL1   H1B 4704   0.173   2.986  23.926 -0.4751  0.4535 -0.5237
   48CHL1    C2 4705   0.164   2.761  23.902 -0.0126 -0.0739 -0.3790
   48CHL1   H2A 4706   0.267   2.783  23.936 -0.0934 -1.1748  0.6266
   48CHL1   H2B 4707   0.162   2.682  23.824 -0.3309  0.6413 -1.1045
   48CHL1   C20 4708  -0.247   3.604  23.683 -0.5451  0.0989  0.1117
   48CHL1   H20 4709  -0.315   3.570  23.601  0.2766  1.6298 -1.2584
   48CHL1   C21 4710  -0.113   3.622  23.611 -0.4609 -0.2566  0.4755
   48CHL1  H21A 4711  -0.086   3.528  23.559  0.5902 -0.2775  1.0417
   48CHL1  H21B 4712  -0.131   3.680  23.517 -1.6253 -3.3826 -1.3830
   48CHL1  H21C 4713  -0.035   3.666  23.676  0.6132  1.5140 -1.8631
   48CHL1   C22 4714  -0.275   3.736  23.748 -0.6467 -0.7696  0.3655
   48CHL1  H22A 4715  -0.365   3.721  23.811 -0.6319 -2.2165  0.0835
   48CHL1  H22B 4716  -0.186   3.772  23.805  0.3975 -1.0419 -1.0427
   48CHL1   C23 4717  -0.310   3.855  23.657  0.1215 -0.6873 -0.7717
   48CHL1  H23A 4718  -0.211   3.891  23.621  0.4505  2.2651  2.5637
   48CHL1  H23B 4719  -0.381   3.825  23.577 -0.0856  0.1668 -0.9171
   48CHL1   C24 4720  -0.370   3.979  23.729  0.3624  0.3339  0.3426
   48CHL1  H24A 4721  -0.469   3.943  23.763 -0.5109  1.0285 -1.3542
   48CHL1  H24B 4722  -0.308   4.006  23.817 -1.3387  2.4917  0.9856
   48CHL1   C25 4723  -0.398   4.096  23.640 -0.3792  0.3794  0.1991
   48CHL1   H25 4724  -0.302   4.129  23.594 -0.6649 -0.5184 -1.0867
   48CHL1   C26 4725  -0.506   4.075  23.535  0.9700  0.2681 -0.2120
   48CHL1  H26A 4726  -0.482   3.999  23.458  0.8485  1.8356 -1.8881
   48CHL1  H26B 4727  -0.602   4.043  23.582  0.7622 -3.8056 -2.9634
   48CHL1  H26C 4728  -0.525   4.168  23.476  1.3158 -0.9003 -2.2822
   48CHL1   C27 4729  -0.444   4.212  23.733 -0.2306  0.2072 -0.3727
   48CHL1  H27A 4730  -0.534   4.186  23.793 -0.2796  2.0835  0.4287
   48CHL1  H27B 4731  -0.357   4.239  23.797 -0.2703 -1.3121  0.3683
   48CHL1  H27C 4732  -0.478   4.300  23.676  1.0284  1.2391  0.4096
   49CHL1    C3 4733   2.088   0.427  17.631 -0.4596 -0.3473  0.0243
   49CHL1    H3 4734   2.022   0.511  17.600  0.1907  0.3151  0.3786
   49CHL1    O3 4735   2.173   0.476  17.737 -0.1248  0.7747 -0.2268
   49CHL1   H3' 4736   2.249   0.522  17.700  0.0271  1.8827  1.3628
   49CHL1    C4 4737   2.010   0.309  17.686  0.8354  0.4373  0.1384
   49CHL1   H4A 4738   2.067   0.230  17.739  2.9325  0.3702 -2.0203
   49CHL1   H4B 4739   1.947   0.361  17.761  0.0556 -3.0025  2.0567
   49CHL1    C5 4740   1.928   0.242  17.572  0.5272  0.4306  0.5601
   49CHL1    C6 4741   1.799   0.219  17.592 -0.1648  0.4090  0.4082
   49CHL1    H6 4742   1.749   0.246  17.686 -0.2175  0.6329  0.3154
   49CHL1    C7 4743   1.711   0.141  17.495  0.1210  0.5454  0.1365
   49CHL1   H7A 4744   1.666   0.052  17.545  0.9300  1.1396  2.0188
   49CHL1   H7B 4745   1.627   0.207  17.466  1.0502  2.1923  1.0683
   49CHL1    C8 4746   1.788   0.089  17.370 -0.3841 -0.2849  0.5164
   49CHL1    H8 4747   1.835  -0.003  17.412 -0.5520 -0.0817  1.1658
   49CHL1   C14 4748   1.695   0.048  17.255  0.0381  0.4221  0.1448
   49CHL1   H14 4749   1.641   0.139  17.220 -0.1852  0.0033 -0.6229
   49CHL1   C15 4750   1.584  -0.044  17.298  0.3335  0.1355  0.9211
   49CHL1  H15A 4751   1.604  -0.128  17.367 -1.4309  0.5869  2.0493
   49CHL1  H15B 4752   1.516   0.026  17.351 -1.6404 -0.1314 -1.0897
   49CHL1   C16 4753   1.543  -0.104  17.159 -0.6404  0.1636  0.4737
   49CHL1  H16A 4754   1.529  -0.214  17.163 -0.9938  0.2037  0.4235
   49CHL1  H16B 4755   1.441  -0.071  17.127  0.1640  0.7387 -1.6509
   49CHL1   C17 4756   1.650  -0.067  17.050 -0.1233 -0.0406 -0.5321
   49CHL1   H17 4757   1.602   0.018  16.998  0.6944 -0.1997 -1.5793
   49CHL1   C13 4758   1.768  -0.014  17.130  0.1655  0.0484 -0.1219
   49CHL1   C18 4759   1.839  -0.140  17.181  0.2189 -0.5574  0.1793
   49CHL1  H18A 4760   1.773  -0.224  17.211  0.4254 -0.6890  0.2739
   49CHL1  H18B 4761   1.900  -0.171  17.093 -1.0577 -0.9900 -0.5811
   49CHL1  H18C 4762   1.916  -0.123  17.260 -0.4152 -1.1018  0.9218
   49CHL1   C12 4763   1.857   0.107  17.076 -0.0442  0.6238  0.1597
   49CHL1  H12A 4764   1.892   0.076  16.975 -1.0929 -0.4687  0.1140
   49CHL1  H12B 4765   1.788   0.193  17.057 -1.0120 -0.7590 -3.4897
   49CHL1   C11 4766   1.960   0.140  17.181 -0.0673  0.2362 -0.1875
   49CHL1  H11A 4767   2.020   0.049  17.202 -0.0678  0.4856  0.9929
   49CHL1  H11B 4768   2.034   0.216  17.148  0.4677 -0.7391 -1.3141
   49CHL1    C9 4769   1.897   0.179  17.318 -0.3831  0.2033 -0.0613
   49CHL1    H9 4770   1.834   0.268  17.299 -0.7901 -0.2392 -0.8103
   49CHL1   C10 4771   2.001   0.206  17.433 -0.4232 -0.6344 -0.1973
   49CHL1   C19 4772   2.093   0.082  17.463  0.3883 -1.0403 -0.4872
   49CHL1  H19A 4773   2.162   0.061  17.378 -0.2507 -1.8811 -0.8192
   49CHL1  H19B 4774   2.156   0.101  17.552 -0.4159 -1.2972  0.1494
   49CHL1  H19C 4775   2.026  -0.007  17.472 -1.8839  0.7626  2.2210
   49CHL1    C1 4776   2.090   0.332  17.396 -0.4559  0.2415  0.3604
   49CHL1   H1A 4777   2.153   0.297  17.312  0.8340 -0.0961  1.4210
   49CHL1   H1B 4778   2.022   0.415  17.366 -3.0499 -2.0157 -0.2957
   49CHL1    C2 4779   2.181   0.397  17.504  0.7905  0.3614  0.1550
   49CHL1   H2A 4780   2.241   0.483  17.468  0.3428  0.6556  0.1073
   49CHL1   H2B 4781   2.258   0.323  17.534  1.4696  0.3887 -1.4486
   49CHL1   C20 4782   1.675  -0.167  16.940 -0.6222  0.6920 -0.5420
   49CHL1   H20 4783   1.727  -0.253  16.988  0.1890  1.6852  0.3948
   49CHL1   C21 4784   1.763  -0.114  16.823  0.1520  0.7630  0.4740
   49CHL1  H21A 4785   1.783  -0.196  16.750  0.3650  1.2151  0.0205
   49CHL1  H21B 4786   1.868  -0.096  16.855  0.4503 -0.9502  0.5938
   49CHL1  H21C 4787   1.726  -0.024  16.771  0.8531  0.6312 -0.2857
   49CHL1   C22 4788   1.542  -0.209  16.881  0.2917 -0.6454  0.0804
   49CHL1  H22A 4789   1.567  -0.291  16.810 -2.9477 -3.3057  1.7459
   49CHL1  H22B 4790   1.474  -0.262  16.950  2.2698 -0.8572  1.9807
   49CHL1   C23 4791   1.462  -0.105  16.807  0.2660 -0.2225  1.1233
   49CHL1  H23A 4792   1.439  -0.011  16.862 -0.2981 -2.1552  4.4807
   49CHL1  H23B 4793   1.520  -0.082  16.715  1.2161 -2.8605  0.9691
   49CHL1   C24 4794   1.325  -0.157  16.759 -0.0486  0.4801  0.1656
   49CHL1  H24A 4795   1.297  -0.087  16.678  2.8486  0.8750 -0.6239
   49CHL1  H24B 4796   1.348  -0.254  16.710  0.4301  0.1203  1.0884
   49CHL1   C25 4797   1.216  -0.174  16.861  0.5748  0.3324 -0.3911
   49CHL1   H25 4798   1.248  -0.238  16.947 -1.8666  0.9325  1.0487
   49CHL1   C26 4799   1.173  -0.042  16.919 -0.0011  0.3943  0.0223
   49CHL1  H26A 4800   1.132   0.032  16.847 -0.6162  0.3457  0.3166
   49CHL1  H26B 4801   1.088  -0.053  16.990 -0.0711  2.1781  0.2521
   49CHL1  H26C 4802   1.259  -0.000  16.977  2.4409  0.6638 -3.4429
   49CHL1   C27 4803   1.097  -0.252  16.795 -0.0852 -0.4346 -0.1177
   49CHL1  H27A 4804   1.048  -0.179  16.727  0.2003 -1.7389 -1.8057
   49CHL1  H27B 4805   1.125  -0.338  16.729 -2.6114 -0.0863 -1.8305
   49CHL1  H27C 4806   1.026  -0.303  16.863 -0.3491 -1.8064 -1.3613
   50CHL1    C3 4807   1.693   0.425  15.559  0.1348  0.3087 -0.2313
   50CHL1    H3 4808   1.626   0.342  15.587 -1.4307  1.5465 -0.1558
   50CHL1    O3 4809   1.783   0.370  15.461 -0.2566 -0.0052 -0.5318
   50CHL1   H3' 4810   1.870   0.399  15.489  0.0303 -2.1272  0.9684
   50CHL1    C4 4811   1.617   0.542  15.509  0.1284 -0.2515 -0.2629
   50CHL1   H4A 4812   1.683   0.621  15.466  0.5032 -0.6521 -0.4312
   50CHL1   H4B 4813   1.555   0.528  15.418  2.0813  0.5392 -1.7957
   50CHL1    C5 4814   1.547   0.617  15.617 -0.3648 -0.0589 -0.2283
   50CHL1    C6 4815   1.413   0.634  15.608  0.0808  0.1822 -0.0622
   50CHL1    H6 4816   1.363   0.605  15.515  1.7671 -0.2569 -0.8752
   50CHL1    C7 4817   1.335   0.717  15.710  0.1286  0.5614 -0.6113
   50CHL1   H7A 4818   1.264   0.792  15.670 -0.1031  0.1624 -0.9545
   50CHL1   H7B 4819   1.273   0.652  15.775 -1.1739  2.9682  0.6725
   50CHL1    C8 4820   1.427   0.802  15.807 -1.2357  0.0611 -0.5373
   50CHL1    H8 4821   1.466   0.888  15.748  2.2440 -1.4631 -0.6679
   50CHL1   C14 4822   1.337   0.847  15.916  0.2965  0.0823 -0.7068
   50CHL1   H14 4823   1.290   0.763  15.971 -2.3496  0.4593 -2.2275
   50CHL1   C15 4824   1.203   0.913  15.875 -0.8168 -0.1950 -0.6699
   50CHL1  H15A 4825   1.217   0.983  15.790 -0.8119  1.2549  0.4974
   50CHL1  H15B 4826   1.116   0.848  15.851 -1.4640  0.5790 -0.4434
   50CHL1   C16 4827   1.163   0.992  15.998 -0.0482  0.4563 -0.1451
   50CHL1  H16A 4828   1.167   1.099  15.968  1.5468  0.7041  0.8175
   50CHL1  H16B 4829   1.066   0.963  16.043  0.8657 -0.5678  1.2640
   50CHL1   C17 4830   1.276   0.966  16.108  0.6552 -0.1464  0.1583
   50CHL1   H17 4831   1.241   0.877  16.165  0.3266  1.5148  2.7129
   50CHL1   C13 4832   1.405   0.925  16.026  0.3645  0.0375  0.2765
   50CHL1   C18 4833   1.457   1.054  15.954 -0.3291 -0.4490 -0.2750
   50CHL1  H18A 4834   1.374   1.101  15.898 -1.1885 -0.9149  0.5885
   50CHL1  H18B 4835   1.507   1.121  16.028  0.2458 -0.5639 -0.5470
   50CHL1  H18C 4836   1.532   1.029  15.876 -0.2060 -0.4791 -0.1489
   50CHL1   C12 4837   1.522   0.841  16.085  0.6972 -0.7619  0.1908
   50CHL1  H12A 4838   1.581   0.899  16.159 -2.2393  1.4536  0.9864
   50CHL1  H12B 4839   1.483   0.761  16.151 -0.9877  1.4160  1.9588
   50CHL1   C11 4840   1.622   0.791  15.976  1.1064 -0.1217 -0.0528
   50CHL1  H11A 4841   1.693   0.873  15.950  1.4554 -0.3696  0.1211
   50CHL1  H11B 4842   1.679   0.708  16.022 -0.3350 -0.8443  0.4850
   50CHL1    C9 4843   1.553   0.725  15.854 -0.2506 -0.2078  0.4268
   50CHL1    H9 4844   1.503   0.631  15.888 -1.2993  0.1769  0.0011
   50CHL1   C10 4845   1.641   0.675  15.732 -0.4680  0.0856  0.2037
   50CHL1   C19 4846   1.727   0.788  15.681 -0.1752 -0.1145 -0.1216
   50CHL1  H19A 4847   1.797   0.761  15.599 -1.0728 -1.0427 -0.6011
   50CHL1  H19B 4848   1.659   0.858  15.629  0.3154 -0.6546 -1.5341
   50CHL1  H19C 4849   1.783   0.841  15.761 -0.5686  0.0328  0.0591
   50CHL1    C1 4850   1.718   0.549  15.778 -0.3298 -0.1114 -0.3728
   50CHL1   H1A 4851   1.794   0.590  15.848 -0.9934 -0.2529  0.4479
   50CHL1   H1B 4852   1.662   0.470  15.833  1.3107 -0.7614  0.4536
   50CHL1    C2 4853   1.784   0.466  15.671 -0.0351  0.2438 -0.5644
   50CHL1   H2A 4854   1.839   0.379  15.714  0.4019  1.7565  2.1682
   50CHL1   H2B 4855   1.860   0.542  15.641 -0.9333  0.8303 -1.3827
   50CHL1   C20 4856   1.292   1.070  16.217  0.4244 -0.7285  0.7939
   50CHL1   H20 4857   1.346   1.157  16.175 -0.7004 -1.1726 -1.7184
   50CHL1   C21 4858   1.376   1.009  16.325  0.5016 -0.2922  0.2642
   50CHL1  H21A 4859   1.468   0.964  16.284  0.2135 -0.7730  0.1384
   50CHL1  H21B 4860   1.317   0.919  16.355 -2.0866  0.4387 -2.2178
   50CHL1  H21C 4861   1.390   1.084  16.406  0.3804  1.1490 -1.0135
   50CHL1   C22 4862   1.153   1.123  16.267 -0.0960 -0.3743  0.1497
   50CHL1  H22A 4863   1.080   1.142  16.186 -0.9774  0.5522  1.1263
   50CHL1  H22B 4864   1.092   1.044  16.316 -0.0269  0.9358  2.4776
   50CHL1   C23 4865   1.167   1.259  16.353 -0.5833  0.2616  0.1815
   50CHL1  H23A 4866   1.226   1.226  16.442  0.2362 -1.7292 -1.0329
   50CHL1  H23B 4867   1.237   1.328  16.301 -0.6984 -0.2205 -0.6153
   50CHL1   C24 4868   1.037   1.307  16.401  0.2525  0.1927  0.4069
   50CHL1  H24A 4869   0.969   1.314  16.314 -0.6613  1.2243  1.1736
   50CHL1  H24B 4870   0.989   1.236  16.472 -0.7604 -1.5641 -1.8856
   50CHL1   C25 4871   1.043   1.446  16.481 -0.5460  0.4126 -0.6476
   50CHL1   H25 4872   1.110   1.434  16.569  0.2507 -1.2650 -1.4436
   50CHL1   C26 4873   1.088   1.566  16.402  0.2986  0.5731  0.8315
   50CHL1  H26A 4874   1.038   1.577  16.304  0.7195 -0.5701  0.4838
   50CHL1  H26B 4875   1.069   1.662  16.456 -0.1108  0.8318  0.2360
   50CHL1  H26C 4876   1.197   1.552  16.388  0.4470  1.8540  0.6024
   50CHL1   C27 4877   0.892   1.471  16.526 -0.6604 -0.3071 -0.1597
   50CHL1  H27A 4878   0.879   1.581  16.538 -0.1479 -0.4504  2.5252
   50CHL1  H27B 4879   0.819   1.433  16.452 -1.8314  0.7755  0.4113
   50CHL1  H27C 4880   0.869   1.419  16.622  2.0573 -1.2509  0.0713
   51CHL1    C3 4881   1.628   2.001   7.791  0.3832 -0.0119  0.3942
   51CHL1    H3 4882   1.526   2.018   7.830  0.5115  1.0652  0.2739
   51CHL1    O3 4883   1.618   2.048   7.656 -0.3846 -0.2253 -0.3112
   51CHL1   H3' 4884   1.538   2.002   7.628  0.1740 -1.4008 -0.0308
   51CHL1    C4 4885   1.730   2.088   7.875  0.0722 -0.0740  0.2730
   51CHL1   H4A 4886   1.826   2.079   7.821  0.6248 -1.6061  1.4555
   51CHL1   H4B 4887   1.705   2.196   7.861  0.3721  0.1738  1.5410
   51CHL1    C5 4888   1.747   2.045   8.016  0.0513  0.5022  0.0851
   51CHL1    C6 4889   1.727   2.133   8.118  0.2983  0.3984 -0.3835
   51CHL1    H6 4890   1.708   2.236   8.084 -1.2241  0.1294 -0.4354
   51CHL1    C7 4891   1.737   2.092   8.266 -0.2954 -0.1930  0.3860
   51CHL1   H7A 4892   1.798   2.172   8.313 -0.2872  0.7850 -1.1962
   51CHL1   H7B 4893   1.633   2.099   8.305 -0.6906 -0.6554 -0.5609
   51CHL1    C8 4894   1.785   1.950   8.295  0.1597 -0.7555  0.6120
   51CHL1    H8 4895   1.895   1.965   8.295  0.0486  0.5530  2.9577
   51CHL1   C14 4896   1.748   1.914   8.435  0.1303  1.1434  0.4413
   51CHL1   H14 4897   1.637   1.910   8.439  0.0411 -0.4141 -2.0208
   51CHL1   C15 4898   1.806   1.995   8.551  0.3696  0.0164 -0.8030
   51CHL1  H15A 4899   1.910   2.022   8.523  0.3813  0.2388 -0.5448
   51CHL1  H15B 4900   1.743   2.086   8.553  2.0827  1.2474 -0.2625
   51CHL1   C16 4901   1.801   1.906   8.674 -0.2333  0.1659 -0.1037
   51CHL1  H16A 4902   1.898   1.901   8.728  0.9745  1.4219 -1.9957
   51CHL1  H16B 4903   1.732   1.953   8.746  0.7248  0.4093  0.6825
   51CHL1   C17 4904   1.761   1.766   8.616 -0.0226 -0.2616  0.0599
   51CHL1   H17 4905   1.650   1.761   8.612 -0.0498  1.0228 -2.0068
   51CHL1   C13 4906   1.789   1.771   8.463 -0.3459  0.6740 -0.2923
   51CHL1   C18 4907   1.942   1.752   8.438 -0.2846 -0.4808 -0.2648
   51CHL1  H18A 4908   1.961   1.777   8.332 -1.4534  3.4253  0.2618
   51CHL1  H18B 4909   2.014   1.817   8.493  1.3769 -1.8710 -0.7115
   51CHL1  H18C 4910   1.973   1.646   8.430 -0.5200 -0.4218 -2.6824
   51CHL1   C12 4911   1.706   1.673   8.373 -0.4436  0.3100  0.0727
   51CHL1  H12A 4912   1.737   1.567   8.380  1.0363  0.7458  0.4612
   51CHL1  H12B 4913   1.598   1.681   8.398 -0.0487  2.5403  1.3849
   51CHL1   C11 4914   1.726   1.703   8.225  0.0332 -0.4702  1.3460
   51CHL1  H11A 4915   1.830   1.675   8.198  0.3573  1.7867 -0.0174
   51CHL1  H11B 4916   1.648   1.658   8.161 -2.6257  2.4094  2.3145
   51CHL1    C9 4917   1.722   1.856   8.192  0.1393 -0.3083  0.2421
   51CHL1    H9 4918   1.615   1.885   8.199 -0.0132 -0.7730 -0.1468
   51CHL1   C10 4919   1.753   1.893   8.038 -0.1099  0.0597  0.3353
   51CHL1   C19 4920   1.897   1.845   8.013 -0.7537  0.1008  0.3581
   51CHL1  H19A 4921   1.888   1.736   7.990 -0.3961 -0.1030  1.1542
   51CHL1  H19B 4922   1.945   1.907   7.935 -0.1642  1.1233  1.5120
   51CHL1  H19C 4923   1.962   1.849   8.103  1.2544  1.0922 -1.0793
   51CHL1    C1 4924   1.658   1.813   7.942 -0.5541  0.2094 -0.2166
   51CHL1   H1A 4925   1.671   1.703   7.948 -0.9809  0.0944 -1.3098
   51CHL1   H1B 4926   1.553   1.814   7.980 -1.3622  0.2161 -2.3191
   51CHL1    C2 4927   1.659   1.849   7.794  0.2283  0.1837  0.0482
   51CHL1   H2A 4928   1.582   1.794   7.736  0.8535  0.0292 -0.6518
   51CHL1   H2B 4929   1.753   1.816   7.745 -2.1815 -3.7685 -2.5723
   51CHL1   C20 4930   1.827   1.654   8.697  0.6805 -0.0310  0.1465
   51CHL1   H20 4931   1.937   1.655   8.683  0.7027 -0.2071  0.3093
   51CHL1   C21 4932   1.765   1.518   8.651 -0.3227 -0.6168  0.2035
   51CHL1  H21A 4933   1.656   1.538   8.642 -0.3858 -1.2397 -0.5581
   51CHL1  H21B 4934   1.783   1.430   8.715  1.5223 -1.8572 -1.8551
   51CHL1  H21C 4935   1.810   1.496   8.551  1.5564 -0.3122  0.9411
   51CHL1   C22 4936   1.794   1.667   8.851  0.5808 -0.1096 -0.0287
   51CHL1  H22A 4937   1.862   1.591   8.896  2.8712  2.6617  1.4826
   51CHL1  H22B 4938   1.819   1.766   8.893  1.4898 -1.1528  2.0647
   51CHL1   C23 4939   1.652   1.653   8.892  0.6970 -0.6412 -0.3712
   51CHL1  H23A 4940   1.588   1.697   8.813  0.2781 -1.1518 -0.3248
   51CHL1  H23B 4941   1.620   1.547   8.895 -0.3115 -0.3292  0.6857
   51CHL1   C24 4942   1.605   1.728   9.020 -0.0116  0.2770  0.6151
   51CHL1  H24A 4943   1.612   1.838   9.007 -2.8739  0.5949  1.1908
   51CHL1  H24B 4944   1.499   1.707   9.043 -0.0764  1.6315  1.6774
   51CHL1   C25 4945   1.669   1.683   9.152  0.2993 -0.2901 -0.4288
   51CHL1   H25 4946   1.775   1.707   9.126 -1.0539  3.6571 -3.2126
   51CHL1   C26 4947   1.631   1.782   9.267  0.3419  0.0621  0.3989
   51CHL1  H26A 4948   1.670   1.755   9.367  2.3387  0.7015 -0.1493
   51CHL1  H26B 4949   1.658   1.888   9.248  0.1596  0.1810  0.7962
   51CHL1  H26C 4950   1.520   1.776   9.269  0.3505 -1.2519 -1.0191
   51CHL1   C27 4951   1.643   1.536   9.188 -0.5663  0.1579 -0.2287
   51CHL1  H27A 4952   1.687   1.511   9.287 -0.2647  0.5809 -0.2541
   51CHL1  H27B 4953   1.533   1.518   9.192 -0.3443 -0.9550  1.9721
   51CHL1  H27C 4954   1.685   1.460   9.118  0.2160  0.9187 -0.6049
   52CHL1    C3 4955   1.425   1.189   8.213  0.2963 -0.4781 -0.4576
   52CHL1    H3 4956   1.323   1.215   8.179  0.7820 -1.3330 -2.7883
   52CHL1    O3 4957   1.484   1.153   8.086  0.0642  0.7748 -0.7009
   52CHL1   H3' 4958   1.566   1.203   8.081  0.6493 -0.1486 -0.6335
   52CHL1    C4 4959   1.488   1.313   8.285  0.6402 -0.0715  0.6545
   52CHL1   H4A 4960   1.596   1.294   8.302  0.6921  0.9798  1.5842
   52CHL1   H4B 4961   1.480   1.396   8.211 -1.0609 -1.9826 -1.4516
   52CHL1    C5 4962   1.420   1.352   8.420  0.2590 -0.0646  1.1255
   52CHL1    C6 4963   1.371   1.474   8.441  1.1092 -0.1650 -0.5667
   52CHL1    H6 4964   1.379   1.554   8.366 -3.2607  0.1740 -0.9227
   52CHL1    C7 4965   1.308   1.516   8.563  0.5216  0.0872  0.3442
   52CHL1   H7A 4966   1.342   1.619   8.584  0.4623  0.4566 -1.1945
   52CHL1   H7B 4967   1.200   1.515   8.536  0.6368 -2.3686 -0.3077
   52CHL1    C8 4968   1.327   1.405   8.679  0.7571 -0.5111  0.1255
   52CHL1    H8 4969   1.433   1.420   8.708  0.5079  0.8797  0.4040
   52CHL1   C14 4970   1.225   1.434   8.793  0.3552 -0.4198 -0.0819
   52CHL1   H14 4971   1.125   1.409   8.750  0.7525 -0.8027 -0.7976
   52CHL1   C15 4972   1.219   1.575   8.838 -0.5901 -0.1282 -0.9550
   52CHL1  H15A 4973   1.324   1.607   8.857 -0.6177 -0.7613  0.3356
   52CHL1  H15B 4974   1.162   1.648   8.776 -0.7396  0.3107 -0.3106
   52CHL1   C16 4975   1.156   1.560   8.978 -0.2516  0.6052  0.0184
   52CHL1  H16A 4976   1.230   1.607   9.046  2.0053 -1.0782 -1.1544
   52CHL1  H16B 4977   1.058   1.611   8.987 -0.3700  0.0416  2.7046
   52CHL1   C17 4978   1.131   1.408   9.003  0.2169 -0.2954 -0.4208
   52CHL1   H17 4979   1.034   1.376   8.959  0.8755  0.6358 -2.6579
   52CHL1   C13 4980   1.238   1.339   8.907  0.2033  0.2761  0.3101
   52CHL1   C18 4981   1.387   1.344   8.960  0.7053 -0.4383 -0.3963
   52CHL1  H18A 4982   1.459   1.290   8.895  1.0717 -1.3281  0.7005
   52CHL1  H18B 4983   1.424   1.447   8.980  0.6440 -0.6415  0.9061
   52CHL1  H18C 4984   1.394   1.292   9.058 -0.4212  0.3967  0.1432
   52CHL1   C12 4985   1.202   1.198   8.859  0.0382 -0.2532 -0.3404
   52CHL1  H12A 4986   1.226   1.137   8.949  0.8749  1.4688  0.6631
   52CHL1  H12B 4987   1.094   1.183   8.839  0.4507  0.7964 -4.1584
   52CHL1   C11 4988   1.288   1.156   8.733 -0.4263  0.2273  0.3696
   52CHL1  H11A 4989   1.391   1.134   8.767 -0.1511  0.4584 -0.2935
   52CHL1  H11B 4990   1.258   1.056   8.695  0.8538 -0.3211  0.7651
   52CHL1    C9 4991   1.297   1.263   8.629  0.4926 -0.3730  1.3166
   52CHL1    H9 4992   1.198   1.268   8.580  1.6488 -0.8530 -1.2946
   52CHL1   C10 4993   1.397   1.229   8.510  1.1705  0.7426  0.1126
   52CHL1   C19 4994   1.537   1.197   8.567 -0.7256  0.2462  0.1309
   52CHL1  H19A 4995   1.589   1.275   8.626  0.4030  0.4034 -1.0193
   52CHL1  H19B 4996   1.533   1.101   8.623  1.1434 -0.1713 -0.3909
   52CHL1  H19C 4997   1.601   1.180   8.478 -0.2127  0.7684  0.4003
   52CHL1    C1 4998   1.342   1.108   8.424 -0.3894 -0.0216 -0.1622
   52CHL1   H1A 4999   1.330   1.029   8.502  0.1969 -0.0693 -0.1176
   52CHL1   H1B 5000   1.236   1.119   8.391 -0.0479 -2.3235 -2.2699
   52CHL1    C2 5001   1.419   1.070   8.307 -0.4492  0.0583 -0.8943
   52CHL1   H2A 5002   1.378   0.982   8.254 -3.3466  0.7524  0.0103
   52CHL1   H2B 5003   1.518   1.037   8.346 -0.9248 -0.0205  0.2817
   52CHL1   C20 5004   1.134   1.376   9.150  0.2139 -0.3343 -0.3348
   52CHL1   H20 5005   1.234   1.380   9.198  1.0289 -1.3703 -1.8791
   52CHL1   C21 5006   1.102   1.231   9.182  0.3437 -0.0765 -0.1445
   52CHL1  H21A 5007   1.169   1.146   9.158  1.6128  0.7899  0.1552
   52CHL1  H21B 5008   1.002   1.206   9.141 -0.2179  2.0166 -0.1654
   52CHL1  H21C 5009   1.103   1.226   9.293 -0.5621  1.8410  0.0046
   52CHL1   C22 5010   1.050   1.466   9.248 -0.1685 -0.8371  0.2490
   52CHL1  H22A 5011   1.083   1.459   9.353  1.3260  0.7719 -0.0697
   52CHL1  H22B 5012   1.074   1.572   9.225  0.0918 -0.0352  3.6582
   52CHL1   C23 5013   0.900   1.460   9.241  0.3360 -0.6939  0.6619
   52CHL1  H23A 5014   0.873   1.494   9.139 -0.9607  0.7154  1.4373
   52CHL1  H23B 5015   0.860   1.357   9.247 -1.6387 -0.0339 -0.3625
   52CHL1   C24 5016   0.834   1.563   9.342 -0.0789  0.1984 -0.3832
   52CHL1  H24A 5017   0.855   1.525   9.444  1.0996  1.1493 -0.2593
   52CHL1  H24B 5018   0.876   1.664   9.322  0.8472 -0.2532 -0.7892
   52CHL1   C25 5019   0.681   1.572   9.324  0.1764  0.0220  0.0482
   52CHL1   H25 5020   0.660   1.563   9.216  1.3058  1.4830 -0.3285
   52CHL1   C26 5021   0.602   1.465   9.407  0.2350  1.1908  0.1265
   52CHL1  H26A 5022   0.636   1.367   9.367  7.1874  3.3026 -0.4613
   52CHL1  H26B 5023   0.622   1.478   9.515 -1.3097 -1.5999  0.8444
   52CHL1  H26C 5024   0.492   1.475   9.390  0.2345  0.3657 -0.4059
   52CHL1   C27 5025   0.626   1.718   9.346 -0.9264  0.6965  0.4815
   52CHL1  H27A 5026   0.625   1.724   9.457 -0.7389 -2.6762  0.7689
   52CHL1  H27B 5027   0.693   1.798   9.307 -2.1575  1.6303  0.2299
   52CHL1  H27C 5028   0.525   1.730   9.303 -0.9761  0.3247  0.4891
   53CHL1    C3 5029   2.960   1.486   7.978  0.2083  0.4196 -0.3441
   53CHL1    H3 5030   3.062   1.470   8.018 -0.4378 -1.0681  0.8059
   53CHL1    O3 5031   2.950   1.499   7.837  0.6388  0.3317 -0.0227
   53CHL1   H3' 5032   2.856   1.492   7.821  0.9399 -0.2500 -1.7874
   53CHL1    C4 5033   2.868   1.373   8.024  0.3654 -0.4035 -0.1972
   53CHL1   H4A 5034   2.765   1.376   7.983 -0.3629 -0.5117  1.5332
   53CHL1   H4B 5035   2.916   1.278   7.990  1.1424 -0.9265  2.1298
   53CHL1    C5 5036   2.858   1.366   8.177  0.3867 -0.6613  0.1116
   53CHL1    C6 5037   2.881   1.253   8.236  0.4187  0.2637  0.7603
   53CHL1    H6 5038   2.913   1.165   8.179 -1.8737 -0.6524  0.7962
   53CHL1    C7 5039   2.885   1.234   8.387  0.0561  0.1482 -1.2879
   53CHL1   H7A 5040   2.822   1.145   8.412  1.7735 -0.8272 -0.1749
   53CHL1   H7B 5041   2.989   1.215   8.423 -0.3452  2.1223  1.2167
   53CHL1    C8 5042   2.841   1.352   8.473  0.0520  0.3132  0.6411
   53CHL1    H8 5043   2.730   1.349   8.471  0.0262  0.0218 -2.1761
   53CHL1   C14 5044   2.893   1.342   8.617  0.8310 -0.0847 -0.3175
   53CHL1   H14 5045   3.004   1.343   8.612  0.9110  0.0836  1.1975
   53CHL1   C15 5046   2.872   1.218   8.715  0.2402 -0.4451 -0.1180
   53CHL1  H15A 5047   2.766   1.185   8.708 -0.7105  2.6941 -3.0862
   53CHL1  H15B 5048   2.937   1.138   8.675 -2.1396 -2.0356 -1.0791
   53CHL1   C16 5049   2.907   1.276   8.849 -0.6854 -0.2268 -0.6467
   53CHL1  H16A 5050   2.820   1.265   8.918 -1.0114  2.2903 -0.5852
   53CHL1  H16B 5051   2.986   1.218   8.902  1.1718  0.8851 -2.0988
   53CHL1   C17 5052   2.933   1.427   8.837  0.0184 -0.5591  0.7539
   53CHL1   H17 5053   3.040   1.436   8.810  0.0507 -0.0714  1.0334
   53CHL1   C13 5054   2.866   1.470   8.696 -0.7103 -0.2157  0.0121
   53CHL1   C18 5055   2.719   1.491   8.721  0.0543 -0.1100  0.1695
   53CHL1  H18A 5056   2.698   1.589   8.771  2.5620 -0.2328  1.6273
   53CHL1  H18B 5057   2.663   1.506   8.627  0.0035  0.5681  0.3016
   53CHL1  H18C 5058   2.675   1.399   8.766  1.8614 -1.4970 -0.8004
   53CHL1   C12 5059   2.932   1.590   8.626 -0.1618  0.3090  0.3975
   53CHL1  H12A 5060   2.915   1.688   8.676  0.2998  0.2604  0.6590
   53CHL1  H12B 5061   3.042   1.577   8.615  0.2004  1.2339  2.4248
   53CHL1   C11 5062   2.862   1.600   8.490  0.1820 -0.0594  0.2686
   53CHL1  H11A 5063   2.752   1.612   8.500  0.0996 -0.9199  0.4852
   53CHL1  H11B 5064   2.899   1.694   8.443 -0.6251 -0.7137 -1.8152
   53CHL1    C9 5065   2.884   1.481   8.396  0.8203  0.1603  0.3441
   53CHL1    H9 5066   2.993   1.459   8.397  0.6784 -0.5677  0.2372
   53CHL1   C10 5067   2.836   1.496   8.254  0.0103 -0.7295  0.0257
   53CHL1   C19 5068   2.688   1.526   8.254  0.1661 -0.0543 -0.0223
   53CHL1  H19A 5069   2.640   1.509   8.155 -0.8463 -2.3840  0.7730
   53CHL1  H19B 5070   2.636   1.454   8.320  2.2034 -0.2252  1.4891
   53CHL1  H19C 5071   2.654   1.627   8.283 -0.4617 -0.3075  0.1490
   53CHL1    C1 5072   2.909   1.623   8.192  0.0371 -0.2084  0.4029
   53CHL1   H1A 5073   2.883   1.724   8.230  0.8959 -0.0036  0.4732
   53CHL1   H1B 5074   3.017   1.611   8.215  0.1418  1.3481  0.8397
   53CHL1    C2 5075   2.905   1.617   8.036 -0.3091 -0.5802  0.0156
   53CHL1   H2A 5076   2.971   1.698   7.998  2.1965 -2.5075  0.0217
   53CHL1   H2B 5077   2.803   1.644   8.000 -0.4662 -1.3214 -0.1172
   53CHL1   C20 5078   2.916   1.509   8.958 -0.0362  0.0675 -1.0260
   53CHL1   H20 5079   2.809   1.502   8.988  0.6077 -4.1078  1.0914
   53CHL1   C21 5080   2.953   1.652   8.937  0.3601 -0.6460  0.1510
   53CHL1  H21A 5081   3.054   1.666   8.894  0.1500 -2.2012 -0.9111
   53CHL1  H21B 5082   2.936   1.713   9.029 -1.3862 -0.3190 -0.3468
   53CHL1  H21C 5083   2.878   1.701   8.871 -1.4900 -3.1121  0.2833
   53CHL1   C22 5084   2.983   1.444   9.087 -0.2283 -0.3924 -0.3342
   53CHL1  H22A 5085   2.938   1.345   9.109 -0.6663 -0.2628 -0.6340
   53CHL1  H22B 5086   3.092   1.445   9.063 -0.6116  0.4210 -2.2303
   53CHL1   C23 5087   2.962   1.510   9.220  0.0676  0.0955 -0.9415
   53CHL1  H23A 5088   2.960   1.621   9.215 -1.9998  0.1696  0.3944
   53CHL1  H23B 5089   2.867   1.468   9.258  0.6561  0.0177  0.4889
   53CHL1   C24 5090   3.074   1.478   9.324 -0.2137 -0.0091 -0.0668
   53CHL1  H24A 5091   3.087   1.373   9.358  2.7989  0.3114  0.1011
   53CHL1  H24B 5092   3.166   1.497   9.265  0.0396  0.7136  0.5444
   53CHL1   C25 5093   3.074   1.572   9.450  0.3271 -0.4756  0.0669
   53CHL1   H25 5094   3.063   1.675   9.409  1.2887 -0.2627  0.3226
   53CHL1   C26 5095   2.962   1.542   9.548  0.7585  0.4564 -0.4629
   53CHL1  H26A 5096   2.864   1.530   9.498  0.8150  1.7607 -0.9161
   53CHL1  H26B 5097   2.987   1.454   9.612 -1.0444  0.6125  0.5081
   53CHL1  H26C 5098   2.954   1.624   9.623 -0.4502 -0.3238  0.2826
   53CHL1   C27 5099   3.206   1.557   9.520  0.6121 -0.0354  0.3367
   53CHL1  H27A 5100   3.201   1.459   9.573 -0.4972  0.5154  1.3036
   53CHL1  H27B 5101   3.293   1.543   9.453  0.8534 -1.6940  0.9247
   53CHL1  H27C 5102   3.212   1.629   9.605 -2.3993 -0.2402  0.8309
   54CHL1    C3 5103   1.227   2.253  14.810 -0.1818 -0.1321 -0.0774
   54CHL1    H3 5104   1.217   2.349  14.864  0.1278 -1.1935  1.9735
   54CHL1    O3 5105   1.268   2.267  14.674 -0.3967  0.1640  0.4192
   54CHL1   H3' 5106   1.330   2.196  14.658 -0.5916  0.3651 -1.4257
   54CHL1    C4 5107   1.325   2.157  14.893  0.7340  0.4360  0.2967
   54CHL1   H4A 5108   1.334   2.061  14.838  0.8505  0.1349  0.8348
   54CHL1   H4B 5109   1.422   2.211  14.885  0.4890  0.6054 -2.6094
   54CHL1    C5 5110   1.263   2.124  15.030  0.3009  0.4116  0.3377
   54CHL1    C6 5111   1.319   2.142  15.149  0.0512 -0.5052  0.3718
   54CHL1    H6 5112   1.412   2.200  15.146 -0.2867  0.0926  0.8925
   54CHL1    C7 5113   1.269   2.105  15.292 -0.6495  0.8583  0.0144
   54CHL1   H7A 5114   1.346   2.046  15.346 -2.0220 -0.0705  1.0098
   54CHL1   H7B 5115   1.246   2.195  15.353 -1.3997  0.8451 -0.2367
   54CHL1    C8 5116   1.150   2.009  15.269 -0.4847 -0.6681  0.4929
   54CHL1    H8 5117   1.191   1.910  15.239  2.2932  0.1295  1.3291
   54CHL1   C14 5118   1.078   1.984  15.404 -0.2027  0.1759 -0.3827
   54CHL1   H14 5119   1.045   2.085  15.436  0.3332  0.3929 -0.5057
   54CHL1   C15 5120   1.164   1.935  15.524 -0.3084  0.0587  0.1396
   54CHL1  H15A 5121   1.217   1.842  15.493  1.1434  1.2017 -0.9415
   54CHL1  H15B 5122   1.234   2.008  15.571  1.8466 -0.7236 -1.6690
   54CHL1   C16 5123   1.061   1.892  15.624 -0.5888 -0.6438 -0.5483
   54CHL1  H16A 5124   1.102   1.798  15.666  0.8429  0.7420  1.2915
   54CHL1  H16B 5125   1.050   1.978  15.694 -0.1956  0.0214 -1.2781
   54CHL1   C17 5126   0.918   1.883  15.551 -0.3123  0.2034 -0.3025
   54CHL1   H17 5127   0.862   1.972  15.586 -0.7177 -0.7079  1.4581
   54CHL1   C13 5128   0.949   1.896  15.399  0.0601  0.0492  0.6206
   54CHL1   C18 5129   0.991   1.758  15.351 -0.1582 -0.1143  0.6379
   54CHL1  H18A 5130   1.055   1.700  15.421 -0.5489  2.3025  3.1488
   54CHL1  H18B 5131   0.899   1.696  15.341  1.2713 -2.4129  0.9201
   54CHL1  H18C 5132   1.050   1.745  15.257 -0.8536 -1.3601  0.3446
   54CHL1   C12 5133   0.847   1.966  15.305 -0.3139 -0.3292  0.4145
   54CHL1  H12A 5134   0.755   1.905  15.296 -1.5356  1.3167  1.2583
   54CHL1  H12B 5135   0.806   2.061  15.346  0.4110  0.2145 -0.0821
   54CHL1   C11 5136   0.911   1.989  15.167 -0.2053 -0.1709 -0.0945
   54CHL1  H11A 5137   0.915   1.888  15.121  1.0026 -1.4977  2.7284
   54CHL1  H11B 5138   0.841   2.047  15.102  0.5371  2.1475  1.0534
   54CHL1    C9 5139   1.055   2.059  15.163 -0.3947  0.4681  0.2357
   54CHL1    H9 5140   1.040   2.165  15.194 -0.0064  1.1471 -1.7632
   54CHL1   C10 5141   1.115   2.063  15.021  0.5030  0.0228 -0.7001
   54CHL1   C19 5142   1.136   1.909  14.969 -0.7825 -0.1535  0.7735
   54CHL1  H19A 5143   1.209   1.857  15.035 -1.1510  0.0863  1.3856
   54CHL1  H19B 5144   1.039   1.855  14.972 -0.9053  0.0087 -0.0475
   54CHL1  H19C 5145   1.174   1.896  14.866  1.0724 -0.2027  1.4325
   54CHL1    C1 5146   1.023   2.150  14.927  0.4265 -0.2745  0.8456
   54CHL1   H1A 5147   0.928   2.102  14.897  0.5289 -0.1730  0.3469
   54CHL1   H1B 5148   1.004   2.247  14.979  0.9889 -0.2574  1.0228
   54CHL1    C2 5149   1.087   2.183  14.792  0.4715 -0.3907  0.8085
   54CHL1   H2A 5150   1.014   2.245  14.737  1.0006  0.6653  1.2679
   54CHL1   H2B 5151   1.110   2.092  14.733 -0.5447  0.5770 -1.1572
   54CHL1   C20 5152   0.850   1.755  15.599  1.2018  0.2052 -0.6947
   54CHL1   H20 5153   0.915   1.666  15.586  0.2461 -0.7776  0.9055
   54CHL1   C21 5154   0.716   1.734  15.533  0.0564 -0.1727  0.6245
   54CHL1  H21A 5155   0.670   1.639  15.568  1.3882 -1.1245 -0.1240
   54CHL1  H21B 5156   0.721   1.714  15.424 -0.8252  0.5326  0.4420
   54CHL1  H21C 5157   0.654   1.825  15.544 -0.0820  0.2910 -2.9375
   54CHL1   C22 5158   0.825   1.756  15.753 -0.4980 -1.0192  0.0501
   54CHL1  H22A 5159   0.922   1.737  15.803  0.2662  0.4893 -0.7821
   54CHL1  H22B 5160   0.780   1.854  15.781 -0.4130 -1.0843  0.4074
   54CHL1   C23 5161   0.732   1.648  15.818  0.3716 -0.1414 -0.7206
   54CHL1  H23A 5162   0.627   1.665  15.787 -0.3972 -1.0733  1.2131
   54CHL1  H23B 5163   0.755   1.544  15.785 -1.1375 -1.5683  2.3068
   54CHL1   C24 5164   0.728   1.639  15.978  0.4290  0.1649 -0.6847
   54CHL1  H24A 5165   0.659   1.556  16.004 -0.8049  1.1505 -0.6805
   54CHL1  H24B 5166   0.828   1.605  16.011 -0.2894  0.8544  2.5103
   54CHL1   C25 5167   0.704   1.765  16.069  0.5281  0.6767  0.0212
   54CHL1   H25 5168   0.784   1.841  16.054  0.5668  1.3953  3.1037
   54CHL1   C26 5169   0.573   1.840  16.026 -0.9619 -0.3427 -0.2403
   54CHL1  H26A 5170   0.583   1.860  15.917  0.5580  1.0496  0.1161
   54CHL1  H26B 5171   0.484   1.775  16.038 -0.2815 -0.9578  1.6921
   54CHL1  H26C 5172   0.560   1.926  16.095 -1.9273 -1.0356  0.4594
   54CHL1   C27 5173   0.713   1.733  16.227  0.0141 -0.1596  0.4768
   54CHL1  H27A 5174   0.617   1.684  16.254  0.0408  0.3134  1.4845
   54CHL1  H27B 5175   0.803   1.673  16.252  1.5703  0.6351 -2.6916
   54CHL1  H27C 5176   0.718   1.831  16.279  0.5430 -0.4662  1.0193
   55CHL1    C3 5177   2.272   0.632  13.720  0.6415 -0.0845 -0.5406
   55CHL1    H3 5178   2.365   0.600  13.772 -0.6937 -0.8008  1.5375
   55CHL1    O3 5179   2.205   0.520  13.657 -0.2168 -0.5964  0.3885
   55CHL1   H3' 5180   2.199   0.457  13.729  0.3958  0.1791  1.1340
   55CHL1    C4 5181   2.168   0.702  13.810 -0.3877  0.5997 -0.5955
   55CHL1   H4A 5182   2.076   0.726  13.753 -0.6690  1.7381  0.2925
   55CHL1   H4B 5183   2.140   0.624  13.884 -0.1937 -0.4437 -1.6012
   55CHL1    C5 5184   2.229   0.833  13.874 -0.0397 -0.0297  0.2873
   55CHL1    C6 5185   2.234   0.836  14.007 -0.2509 -0.2174 -0.3531
   55CHL1    H6 5186   2.207   0.750  14.069  2.2618  0.5212  1.9488
   55CHL1    C7 5187   2.293   0.948  14.080  0.7391  0.1828 -0.4656
   55CHL1   H7A 5188   2.214   0.977  14.153  2.8803  0.9561  1.6740
   55CHL1   H7B 5189   2.388   0.945  14.137  1.0613 -1.6715 -1.0631
   55CHL1    C8 5190   2.323   1.080  13.995 -0.5282 -0.3387  0.5810
   55CHL1    H8 5191   2.220   1.118  13.978 -1.1242 -2.6252 -1.4360
   55CHL1   C14 5192   2.420   1.176  14.064  0.1758 -0.2066  0.2157
   55CHL1   H14 5193   2.519   1.127  14.067  0.5292  0.4718 -0.0302
   55CHL1   C15 5194   2.383   1.217  14.205  0.0917 -0.1914  0.8632
   55CHL1  H15A 5195   2.284   1.268  14.207  0.4666  0.5512  1.1422
   55CHL1  H15B 5196   2.390   1.131  14.275 -1.1163 -2.6356 -1.8368
   55CHL1   C16 5197   2.481   1.338  14.231  0.3264  0.2728 -1.1850
   55CHL1  H16A 5198   2.409   1.419  14.256  0.5859  0.1582 -0.0058
   55CHL1  H16B 5199   2.557   1.322  14.310  0.2219 -1.0768 -1.3335
   55CHL1   C17 5200   2.541   1.382  14.095 -0.9729 -0.0228  0.2375
   55CHL1   H17 5201   2.640   1.333  14.084 -0.9739  0.2475 -1.1894
   55CHL1   C13 5202   2.453   1.305  13.991 -0.6639  0.4081  0.5967
   55CHL1   C18 5203   2.329   1.386  13.973  0.0736  0.7116  0.3544
   55CHL1  H18A 5204   2.248   1.324  13.929  0.8325 -1.0704  1.3614
   55CHL1  H18B 5205   2.283   1.422  14.067  0.3329  1.4614  0.1953
   55CHL1  H18C 5206   2.343   1.476  13.910 -1.7541  2.0680  1.8036
   55CHL1   C12 5207   2.511   1.262  13.851  0.1107 -0.2137  0.1014
   55CHL1  H12A 5208   2.518   1.347  13.780  0.4329 -0.0736  0.2949
   55CHL1  H12B 5209   2.610   1.215  13.871 -0.8305 -2.2448  0.2077
   55CHL1   C11 5210   2.432   1.154  13.772  0.0692 -0.0559 -0.2521
   55CHL1  H11A 5211   2.345   1.216  13.743  0.8146  1.1787  0.0640
   55CHL1  H11B 5212   2.481   1.123  13.678 -1.2689  2.5773 -1.9191
   55CHL1    C9 5213   2.385   1.035  13.862  0.0123 -0.1835  0.4233
   55CHL1    H9 5214   2.477   0.978  13.889 -0.4712 -0.3503  1.8166
   55CHL1   C10 5215   2.293   0.940  13.786 -0.0149 -0.1482  0.5207
   55CHL1   C19 5216   2.162   1.012  13.738 -0.2695  0.2725  0.8149
   55CHL1  H19A 5217   2.192   1.087  13.662  2.2815  0.7501  2.1841
   55CHL1  H19B 5218   2.088   0.947  13.688 -0.4384  0.6783  0.5322
   55CHL1  H19C 5219   2.115   1.077  13.815 -1.3497 -0.3104  0.6711
   55CHL1    C1 5220   2.374   0.860  13.670  0.0926  0.2677 -0.1832
   55CHL1   H1A 5221   2.389   0.928  13.584 -1.2663  1.1373  0.2347
   55CHL1   H1B 5222   2.482   0.852  13.696  0.0544  1.5572  0.4579
   55CHL1    C2 5223   2.308   0.727  13.614  0.3281  0.3706 -0.0949
   55CHL1   H2A 5224   2.389   0.683  13.551 -0.0179 -0.5655  0.0963
   55CHL1   H2B 5225   2.222   0.755  13.550  0.8607  0.3155 -0.8598
   55CHL1   C20 5226   2.578   1.531  14.075  0.7683 -0.7165  0.3441
   55CHL1   H20 5227   2.482   1.585  14.061  0.3111 -1.6782 -0.3804
   55CHL1   C21 5228   2.660   1.554  13.947  0.3873  0.2329 -0.1513
   55CHL1  H21A 5229   2.685   1.662  13.953 -0.8741  0.4756  1.2159
   55CHL1  H21B 5230   2.592   1.531  13.862  0.9211  2.1805 -1.1694
   55CHL1  H21C 5231   2.744   1.483  13.963 -0.8525 -1.4628 -0.7596
   55CHL1   C22 5232   2.663   1.595  14.195  0.0899  0.1175 -0.2214
   55CHL1  H22A 5233   2.684   1.697  14.157  2.3242 -0.5184 -0.8932
   55CHL1  H22B 5234   2.599   1.611  14.284  0.2443  1.0952 -0.2702
   55CHL1   C23 5235   2.792   1.525  14.244  0.4133  0.0356  0.4196
   55CHL1  H23A 5236   2.763   1.437  14.305  1.4560 -0.6246 -0.0132
   55CHL1  H23B 5237   2.846   1.498  14.150  2.4378 -0.4362  1.6514
   55CHL1   C24 5238   2.878   1.621  14.330  0.2216 -0.0373  0.8302
   55CHL1  H24A 5239   2.892   1.722  14.285  0.6490 -0.6252 -0.4240
   55CHL1  H24B 5240   2.830   1.629  14.430  0.2355 -0.5601  0.8854
   55CHL1   C25 5241   3.023   1.555  14.343  0.8982  0.6477 -0.8383
   55CHL1   H25 5242   2.998   1.449  14.364  0.0309  0.8714 -0.7301
   55CHL1   C26 5243   3.104   1.575  14.211 -0.2982  0.7691  0.2110
   55CHL1  H26A 5244   3.074   1.505  14.130  0.0663  1.1038 -0.2175
   55CHL1  H26B 5245   3.082   1.675  14.168 -0.8845 -0.1444 -1.7236
   55CHL1  H26C 5246   3.213   1.569  14.229 -0.5205  0.7248  1.7487
   55CHL1   C27 5247   3.105   1.609  14.459 -0.5718  0.3248 -0.8920
   55CHL1  H27A 5248   3.091   1.717  14.477 -1.5195 -0.0401  0.7843
   55CHL1  H27B 5249   3.066   1.554  14.547 -1.3918  0.3325 -1.2407
   55CHL1  H27C 5250   3.211   1.587  14.433 -0.4627 -0.2891  0.0027
   56CHL1    C3 5251   2.288   0.446  12.660  0.0333 -0.1926 -0.1214
   56CHL1    H3 5252   2.200   0.466  12.725  0.7178 -0.5621  0.9356
   56CHL1    O3 5253   2.243   0.383  12.540 -0.1427 -0.1037 -0.2428
   56CHL1   H3' 5254   2.315   0.343  12.490 -1.1038  1.2297 -2.8721
   56CHL1    C4 5255   2.353   0.576  12.622  0.3944 -0.3338  0.0734
   56CHL1   H4A 5256   2.434   0.557  12.549  0.1352  0.2459 -0.3761
   56CHL1   H4B 5257   2.282   0.639  12.565  0.5460 -0.6723 -0.4885
   56CHL1    C5 5258   2.407   0.657  12.741 -0.3738  1.2768  0.1271
   56CHL1    C6 5259   2.374   0.782  12.771  0.2888 -0.4125 -0.0101
   56CHL1    H6 5260   2.302   0.831  12.705  0.8215 -0.6959 -0.8198
   56CHL1    C7 5261   2.428   0.852  12.885 -0.1823  0.0875 -1.2409
   56CHL1   H7A 5262   2.460   0.955  12.856 -0.5867  0.3350 -0.8305
   56CHL1   H7B 5263   2.350   0.855  12.964  1.7070 -0.3171  0.7549
   56CHL1    C8 5264   2.549   0.782  12.959  0.4298  0.2349  0.1213
   56CHL1    H8 5265   2.633   0.794  12.887 -1.1646  2.3542 -1.5208
   56CHL1   C14 5266   2.578   0.846  13.095 -0.4966  0.0242 -0.5955
   56CHL1   H14 5267   2.481   0.846  13.148 -0.0312 -0.6159  0.2763
   56CHL1   C15 5268   2.609   0.997  13.099 -0.5538  0.0119 -0.4303
   56CHL1  H15A 5269   2.700   1.022  13.040 -0.3130 -0.8367 -0.4212
   56CHL1  H15B 5270   2.515   1.057  13.096  0.7204  2.2186  0.7414
   56CHL1   C16 5271   2.654   1.023  13.247 -0.5236 -0.2103  0.0306
   56CHL1  H16A 5272   2.741   1.092  13.257  0.6705 -1.8538  1.7016
   56CHL1  H16B 5273   2.571   1.059  13.312  1.5707  1.0204  2.1938
   56CHL1   C17 5274   2.679   0.883  13.303  0.0754  0.4822  0.1298
   56CHL1   H17 5275   2.590   0.850  13.360 -1.3365  0.6684 -1.8976
   56CHL1   C13 5276   2.682   0.781  13.181  0.4043  0.4866  0.8477
   56CHL1   C18 5277   2.822   0.789  13.114 -1.1392 -0.2046  0.2435
   56CHL1  H18A 5278   2.888   0.710  13.157  0.0654  0.7056  0.1051
   56CHL1  H18B 5279   2.816   0.776  13.004  1.2780 -1.0772  0.1590
   56CHL1  H18C 5280   2.873   0.887  13.118 -2.3493  0.4466  0.1664
   56CHL1   C12 5281   2.635   0.639  13.210 -0.2345 -0.0910  0.6443
   56CHL1  H12A 5282   2.717   0.580  13.256 -0.9405 -0.5001  1.4036
   56CHL1  H12B 5283   2.547   0.638  13.278  0.9339  1.0538  2.2456
   56CHL1   C11 5284   2.612   0.568  13.080  0.0664  0.3928  0.1715
   56CHL1  H11A 5285   2.706   0.548  13.025  0.3353 -0.3997  0.8920
   56CHL1  H11B 5286   2.587   0.460  13.089 -0.6283  0.1830 -2.9221
   56CHL1    C9 5287   2.513   0.634  12.975  0.7802 -0.4535  0.1745
   56CHL1    H9 5288   2.415   0.636  13.027  1.0540  1.1366  0.6903
   56CHL1   C10 5289   2.502   0.565  12.832  0.3641  0.6289 -1.1501
   56CHL1   C19 5290   2.639   0.554  12.765 -0.0281  0.5099 -0.6325
   56CHL1  H19A 5291   2.716   0.488  12.812  0.4220  0.6666 -1.1364
   56CHL1  H19B 5292   2.634   0.513  12.661 -0.2917 -1.2293  0.0227
   56CHL1  H19C 5293   2.690   0.652  12.765  1.8047 -0.2361  3.4717
   56CHL1    C1 5294   2.439   0.425  12.853  0.4005  0.0363  0.4564
   56CHL1   H1A 5295   2.511   0.350  12.892  0.9670 -0.0696 -0.7278
   56CHL1   H1B 5296   2.353   0.425  12.923 -0.1207  0.9868 -0.1644
   56CHL1    C2 5297   2.387   0.349  12.723 -0.2684 -0.2674 -0.6825
   56CHL1   H2A 5298   2.331   0.264  12.767 -1.0937 -0.1264 -1.4193
   56CHL1   H2B 5299   2.471   0.306  12.664  1.1388  1.2355  0.1253
   56CHL1   C20 5300   2.789   0.880  13.411 -0.3190 -0.5898  0.1964
   56CHL1   H20 5301   2.887   0.893  13.359  0.7172 -2.9351  1.3735
   56CHL1   C21 5302   2.793   0.735  13.472 -0.4862  0.0766  0.8538
   56CHL1  H21A 5303   2.845   0.671  13.399  0.2443 -0.3171  1.7041
   56CHL1  H21B 5304   2.688   0.706  13.494 -1.5197  3.0687  0.4345
   56CHL1  H21C 5305   2.854   0.732  13.565  0.3239 -0.3039  0.3163
   56CHL1   C22 5306   2.774   0.992  13.521 -0.0322  0.3944  0.6778
   56CHL1  H22A 5307   2.755   1.090  13.472 -0.4141 -0.2746 -0.5719
   56CHL1  H22B 5308   2.692   0.963  13.590 -0.2892 -1.2310 -0.2408
   56CHL1   C23 5309   2.899   1.012  13.600 -0.0497 -0.0558 -0.1490
   56CHL1  H23A 5310   2.934   0.917  13.644  0.9908  0.9487  1.2908
   56CHL1  H23B 5311   2.981   1.042  13.531  0.5446  0.3485  0.7087
   56CHL1   C24 5312   2.887   1.116  13.708  0.3450 -0.1859 -0.1954
   56CHL1  H24A 5313   2.865   1.217  13.667  1.4782  0.5465  0.9236
   56CHL1  H24B 5314   2.806   1.082  13.776 -1.9854 -1.4759 -3.3402
   56CHL1   C25 5315   3.018   1.134  13.776  1.0629  0.6124 -0.3960
   56CHL1   H25 5316   3.093   1.122  13.695  2.0657 -2.4660  0.8152
   56CHL1   C26 5317   3.019   1.273  13.843 -0.1383  0.1070 -0.3399
   56CHL1  H26A 5318   2.930   1.297  13.905 -0.5082  1.4006 -1.3321
   56CHL1  H26B 5319   3.120   1.277  13.887  0.6823 -2.6274 -1.6918
   56CHL1  H26C 5320   3.018   1.348  13.761 -2.7488  1.9656  1.2232
   56CHL1   C27 5321   3.041   1.034  13.884 -1.1866 -0.1172  0.0559
   56CHL1  H27A 5322   2.970   1.040  13.969 -1.2994  0.7568 -0.0936
   56CHL1  H27B 5323   3.023   0.936  13.833 -2.2859 -0.9412  1.9322
   56CHL1  H27C 5324   3.150   1.033  13.906 -0.7574 -0.7702 -1.8727
   57CHL1    C3 5325   2.073   0.348  15.898  0.1206  0.9583 -0.4408
   57CHL1    H3 5326   1.979   0.390  15.856 -0.0061  1.0864 -0.0379
   57CHL1    O3 5327   2.130   0.260  15.806 -0.2527 -0.4496  0.1869
   57CHL1   H3' 5328   2.218   0.235  15.835  0.9960  3.8406  0.7772
   57CHL1    C4 5329   2.160   0.468  15.927 -0.3090 -0.8749  0.3799
   57CHL1   H4A 5330   2.258   0.431  15.965  1.0893  2.4015  0.3338
   57CHL1   H4B 5331   2.179   0.514  15.828 -1.5123 -0.0097  0.5245
   57CHL1    C5 5332   2.103   0.563  16.029  0.2257  0.4700  0.2492
   57CHL1    C6 5333   2.078   0.696  16.003  0.0941 -0.3149 -0.2760
   57CHL1    H6 5334   2.117   0.746  15.913  2.1495  0.9503  1.2371
   57CHL1    C7 5335   2.029   0.794  16.104  0.2246 -1.0858  0.2131
   57CHL1   H7A 5336   2.099   0.879  16.114  0.9086 -1.8258  2.1762
   57CHL1   H7B 5337   1.934   0.843  16.072  0.1372 -2.4706 -1.8376
   57CHL1    C8 5338   2.005   0.746  16.247  0.3219 -0.1107 -0.2595
   57CHL1    H8 5339   2.099   0.738  16.305 -0.6587 -0.0476  1.4241
   57CHL1   C14 5340   1.904   0.827  16.325  0.0836 -0.5817  0.9806
   57CHL1   H14 5341   1.811   0.810  16.266  0.6549  1.1273 -0.4923
   57CHL1   C15 5342   1.930   0.976  16.327 -0.0863 -0.2069 -0.8195
   57CHL1  H15A 5343   2.036   0.990  16.354 -0.6780  0.2676  1.4432
   57CHL1  H15B 5344   1.908   1.029  16.231  2.5127  3.3546  0.3382
   57CHL1   C16 5345   1.833   1.021  16.437 -0.3706  0.8118 -0.0597
   57CHL1  H16A 5346   1.894   1.079  16.509  0.2225  2.4028 -1.7838
   57CHL1  H16B 5347   1.755   1.090  16.399 -2.2423 -0.2859  1.5684
   57CHL1   C17 5348   1.769   0.896  16.506 -0.5323  0.1862  0.4733
   57CHL1   H17 5349   1.677   0.863  16.453  0.5229 -1.3882 -0.4396
   57CHL1   C13 5350   1.868   0.777  16.462  0.4858 -0.2631  0.4163
   57CHL1   C18 5351   1.983   0.783  16.560  0.2162  0.2872  0.5326
   57CHL1  H18A 5352   2.071   0.718  16.541 -0.7393 -1.0931  0.6633
   57CHL1  H18B 5353   2.026   0.885  16.568  0.4860  0.1604  0.6980
   57CHL1  H18C 5354   1.954   0.750  16.661  0.3671  1.3324  0.9336
   57CHL1   C12 5355   1.798   0.640  16.443 -0.0555  0.5171  0.2285
   57CHL1  H12A 5356   1.756   0.609  16.541 -0.8323 -0.2396 -0.3257
   57CHL1  H12B 5357   1.703   0.648  16.386  0.7466 -0.8354 -1.3858
   57CHL1   C11 5358   1.897   0.541  16.372  0.4740  0.3020 -0.0933
   57CHL1  H11A 5359   1.987   0.537  16.437  0.7838  0.0269 -0.5301
   57CHL1  H11B 5360   1.851   0.440  16.375 -2.1746  1.3442 -1.7030
   57CHL1    C9 5361   1.951   0.591  16.239  0.0160  1.0366 -0.2536
   57CHL1    H9 5362   1.864   0.599  16.170 -0.6598 -1.5164  0.2165
   57CHL1   C10 5363   2.045   0.501  16.158 -0.2290 -0.4160  0.2731
   57CHL1   C19 5364   2.157   0.459  16.253  0.0318 -0.7756 -0.0436
   57CHL1  H19A 5365   2.232   0.393  16.205  0.1988 -1.4905  1.1553
   57CHL1  H19B 5366   2.211   0.548  16.295 -1.7925 -0.4868  1.8815
   57CHL1  H19C 5367   2.118   0.398  16.338  1.0465 -1.3677  0.0145
   57CHL1    C1 5368   1.969   0.375  16.120 -0.3926 -0.7015  0.1058
   57CHL1   H1A 5369   1.931   0.320  16.209 -1.7425  1.6364  1.0987
   57CHL1   H1B 5370   1.877   0.388  16.058  0.7873  0.9057 -1.4031
   57CHL1    C2 5371   2.048   0.273  16.027  0.4989 -0.3554 -0.3657
   57CHL1   H2A 5372   1.985   0.182  16.030 -0.7101  0.4681 -0.1586
   57CHL1   H2B 5373   2.143   0.234  16.068  0.9859  1.9991  0.8511
   57CHL1   C20 5374   1.738   0.926  16.649 -0.0933  0.2148  0.4414
   57CHL1   H20 5375   1.842   0.950  16.680 -0.5164  0.4569  1.7424
   57CHL1   C21 5376   1.663   0.812  16.725 -0.5993  0.2063 -0.1805
   57CHL1  H21A 5377   1.740   0.734  16.743 -1.5863 -0.6478  0.4812
   57CHL1  H21B 5378   1.589   0.758  16.662 -0.3658  1.2442 -1.3762
   57CHL1  H21C 5379   1.603   0.847  16.812 -0.2687 -1.1462  0.6207
   57CHL1   C22 5380   1.657   1.054  16.671  0.4282 -0.2339  0.0346
   57CHL1  H22A 5381   1.696   1.139  16.612 -0.6373  0.3601  0.1651
   57CHL1  H22B 5382   1.552   1.028  16.645  0.6712 -0.3729 -0.8539
   57CHL1   C23 5383   1.660   1.109  16.806  0.1084  0.5298 -0.0343
   57CHL1  H23A 5384   1.602   1.045  16.876  3.0538 -1.5995  0.6448
   57CHL1  H23B 5385   1.755   1.120  16.863  0.0176 -0.1907  0.2706
   57CHL1   C24 5386   1.598   1.247  16.800 -0.6734  0.7973 -0.5314
   57CHL1  H24A 5387   1.668   1.312  16.742 -0.2495  0.7670 -0.0553
   57CHL1  H24B 5388   1.498   1.255  16.752 -1.6672  1.1815  1.4991
   57CHL1   C25 5389   1.584   1.307  16.940 -0.7414 -0.7197 -0.1316
   57CHL1   H25 5390   1.685   1.329  16.982 -0.9241  3.8891 -1.5946
   57CHL1   C26 5391   1.512   1.444  16.930 -0.1307  0.4057  0.6773
   57CHL1  H26A 5392   1.574   1.518  16.874  0.2681 -0.7268 -0.4321
   57CHL1  H26B 5393   1.417   1.425  16.875  0.8495 -0.6609 -0.7440
   57CHL1  H26C 5394   1.467   1.468  17.028  0.1734 -2.2451  1.5561
   57CHL1   C27 5395   1.515   1.225  17.053 -0.4442 -0.1029 -0.0428
   57CHL1  H27A 5396   1.556   1.123  17.065 -4.3026 -1.6634  1.8537
   57CHL1  H27B 5397   1.525   1.274  17.153  0.3503 -0.9496  0.3121
   57CHL1  H27C 5398   1.406   1.205  17.039 -0.4375 -0.9831  1.0084
   58CHL1    C3 5399   0.616   0.309  10.535  0.5116  0.7770 -0.4188
   58CHL1    H3 5400   0.553   0.386  10.584  0.4681  0.8236 -0.5500
   58CHL1    O3 5401   0.652   0.207  10.632 -0.6481 -0.1165  0.9767
   58CHL1   H3' 5402   0.711   0.250  10.694  1.2247  0.3035 -0.9771
   58CHL1    C4 5403   0.529   0.253  10.419 -0.1714 -0.1342  0.6117
   58CHL1   H4A 5404   0.585   0.171  10.370  0.4711  0.2124  0.7575
   58CHL1   H4B 5405   0.438   0.207  10.462 -0.8654  0.0491 -0.6029
   58CHL1    C5 5406   0.495   0.351  10.316  0.3669 -0.3147 -0.2411
   58CHL1    C6 5407   0.377   0.371  10.269  0.5271 -0.6853 -0.4132
   58CHL1    H6 5408   0.295   0.314  10.315 -0.3890  0.2229 -0.8747
   58CHL1    C7 5409   0.346   0.481  10.174  0.3979  0.8719 -0.2299
   58CHL1   H7A 5410   0.271   0.449  10.099  1.5035  0.4620 -1.1956
   58CHL1   H7B 5411   0.293   0.562  10.228 -0.6433 -0.3832  0.7072
   58CHL1    C8 5412   0.461   0.518  10.087  1.2191 -0.1187  0.0904
   58CHL1    H8 5413   0.483   0.430  10.023  0.5117 -1.8704  2.1452
   58CHL1   C14 5414   0.427   0.637   9.997 -0.6503 -0.1513 -0.0971
   58CHL1   H14 5415   0.404   0.722  10.065  0.4590  0.4174 -0.3979
   58CHL1   C15 5416   0.306   0.626   9.901  0.5638 -1.0596  0.4615
   58CHL1  H15A 5417   0.296   0.537   9.836 -1.0633  0.1149 -1.0265
   58CHL1  H15B 5418   0.206   0.644   9.948  0.6456  1.7197 -0.2172
   58CHL1   C16 5419   0.327   0.740   9.795 -0.0171 -0.7462 -0.2935
   58CHL1  H16A 5420   0.321   0.704   9.691 -2.3507  2.1419 -1.3220
   58CHL1  H16B 5421   0.251   0.821   9.803 -2.9857 -3.1204 -2.3702
   58CHL1   C17 5422   0.472   0.792   9.823  0.1997  0.6923  0.9000
   58CHL1   H17 5423   0.453   0.870   9.899 -0.0357  1.1053  0.4273
   58CHL1   C13 5424   0.547   0.688   9.905 -0.2531  0.7750  0.3324
   58CHL1   C18 5425   0.581   0.577   9.801 -0.0169 -0.4921 -0.6191
   58CHL1  H18A 5426   0.498   0.555   9.730 -0.4483  0.9093 -0.5867
   58CHL1  H18B 5427   0.673   0.601   9.744 -0.7780 -0.6903 -1.9798
   58CHL1  H18C 5428   0.594   0.484   9.859  1.7998  1.2045  1.8805
   58CHL1   C12 5429   0.665   0.734   9.991 -0.4746  0.6466 -0.3412
   58CHL1  H12A 5430   0.759   0.747   9.933 -0.7220 -2.0234 -1.4855
   58CHL1  H12B 5431   0.643   0.828  10.045 -0.4062  0.3878  0.1413
   58CHL1   C11 5432   0.698   0.611  10.087 -0.2516 -0.1126  0.8050
   58CHL1  H11A 5433   0.734   0.530  10.020  1.1408  1.0847  0.0393
   58CHL1  H11B 5434   0.791   0.632  10.144  0.4259 -1.3108  0.1880
   58CHL1    C9 5435   0.583   0.557  10.171  0.1485  0.1549 -0.2387
   58CHL1    H9 5436   0.544   0.634  10.240 -1.6518  0.4541 -1.5061
   58CHL1   C10 5437   0.616   0.435  10.263 -0.4225 -0.6313  0.1036
   58CHL1   C19 5438   0.711   0.338  10.177  0.4853  0.8756 -0.2040
   58CHL1  H19A 5439   0.656   0.305  10.085  0.0934  1.0495 -0.0335
   58CHL1  H19B 5440   0.806   0.382  10.141  0.6357 -0.0592 -1.0263
   58CHL1  H19C 5441   0.740   0.252  10.241  1.2983 -0.5678 -2.3606
   58CHL1    C1 5442   0.697   0.485  10.383  0.4328 -0.0657 -0.3038
   58CHL1   H1A 5443   0.788   0.538  10.345  0.7602  0.4904  1.2048
   58CHL1   H1B 5444   0.635   0.559  10.437 -1.5519 -1.6721 -0.2609
   58CHL1    C2 5445   0.738   0.377  10.478 -0.4766 -0.6624 -0.5210
   58CHL1   H2A 5446   0.791   0.429  10.561 -1.4444  0.5894 -0.6773
   58CHL1   H2B 5447   0.805   0.302  10.430  0.6983 -0.4426  0.6917
   58CHL1   C20 5448   0.551   0.861   9.699  0.8844  0.2877 -0.0377
   58CHL1   H20 5449   0.659   0.852   9.723  0.6312  0.8677  1.4104
   58CHL1   C21 5450   0.501   1.011   9.716 -0.1100  0.1361 -0.1031
   58CHL1  H21A 5451   0.530   1.059   9.812  0.0661  0.5000 -0.3368
   58CHL1  H21B 5452   0.391   1.006   9.701 -0.0892 -1.6417  0.0628
   58CHL1  H21C 5453   0.547   1.075   9.638  1.7089 -0.7425  0.1960
   58CHL1   C22 5454   0.521   0.800   9.560  0.1908 -0.1803 -0.1921
   58CHL1  H22A 5455   0.499   0.692   9.548  3.1373 -0.9293  0.5677
   58CHL1  H22B 5456   0.427   0.854   9.535  0.5510  1.1408  1.2082
   58CHL1   C23 5457   0.636   0.843   9.464 -0.3164  0.5526 -0.0036
   58CHL1  H23A 5458   0.596   0.809   9.366 -0.5417  0.0470  0.2634
   58CHL1  H23B 5459   0.651   0.953   9.465  0.7982  0.4558 -1.4726
   58CHL1   C24 5460   0.770   0.769   9.488 -0.5700 -0.7448  0.2264
   58CHL1  H24A 5461   0.825   0.843   9.550 -1.7808 -1.9888  2.9379
   58CHL1  H24B 5462   0.753   0.683   9.555  2.6814 -0.0292  2.1885
   58CHL1   C25 5463   0.836   0.738   9.349  0.4563 -0.0606 -0.7563
   58CHL1   H25 5464   0.759   0.685   9.289 -1.9574  1.1686  1.0466
   58CHL1   C26 5465   0.890   0.866   9.274 -0.4806 -0.1111 -0.2357
   58CHL1  H26A 5466   0.813   0.929   9.226  0.3591 -1.7515 -4.0910
   58CHL1  H26B 5467   0.953   0.925   9.344 -1.2616  0.8746 -0.3513
   58CHL1  H26C 5468   0.955   0.826   9.193  0.3291 -0.2524  0.4690
   58CHL1   C27 5469   0.947   0.639   9.375 -0.1931 -0.1777 -0.0680
   58CHL1  H27A 5470   0.996   0.610   9.280 -1.7396 -1.8430 -0.4201
   58CHL1  H27B 5471   1.022   0.687   9.440 -0.6508 -1.5833  1.5576
   58CHL1  H27C 5472   0.927   0.547   9.433  1.9828  0.3195  1.5792
   59CHL1    C3 5473   0.190   0.437  12.349 -0.1919 -0.7199 -0.1391
   59CHL1    H3 5474   0.095   0.471  12.394 -1.5217 -1.9080 -1.9141
   59CHL1    O3 5475   0.166   0.362  12.237 -0.3585 -0.5253  0.2017
   59CHL1   H3' 5476   0.251   0.322  12.217 -0.2318 -1.2692  2.0642
   59CHL1    C4 5477   0.279   0.563  12.316 -0.3466 -0.0505 -0.4122
   59CHL1   H4A 5478   0.381   0.530  12.285  0.7572  3.9000 -1.5058
   59CHL1   H4B 5479   0.235   0.621  12.232  0.6283  0.8075 -0.3442
   59CHL1    C5 5480   0.291   0.636  12.447 -0.4791 -0.2069 -1.0011
   59CHL1    C6 5481   0.251   0.762  12.463 -0.8846 -0.3391  0.6970
   59CHL1    H6 5482   0.210   0.817  12.377  0.6953  0.3380  0.3254
   59CHL1    C7 5483   0.280   0.845  12.584  0.1430 -0.0156  0.3487
   59CHL1   H7A 5484   0.289   0.952  12.558 -1.5282 -0.2518 -1.4667
   59CHL1   H7B 5485   0.193   0.850  12.654 -1.6904  0.8923 -1.8477
   59CHL1    C8 5486   0.387   0.783  12.673 -0.6006 -0.4221 -0.3415
   59CHL1    H8 5487   0.483   0.791  12.618 -0.3705 -0.0623  0.1036
   59CHL1   C14 5488   0.398   0.850  12.808 -0.2399  0.1478 -0.0728
   59CHL1   H14 5489   0.304   0.822  12.859 -0.8567  2.4236  0.1748
   59CHL1   C15 5490   0.397   1.006  12.818 -0.4184 -0.6460  0.1352
   59CHL1  H15A 5491   0.471   1.048  12.747 -1.2555 -2.3911 -1.8846
   59CHL1  H15B 5492   0.294   1.039  12.796  0.1331  0.2389 -1.2245
   59CHL1   C16 5493   0.431   1.036  12.965 -0.0301  0.6805 -0.1401
   59CHL1  H16A 5494   0.502   1.121  12.966  1.4163 -0.4826  0.6470
   59CHL1  H16B 5495   0.338   1.062  13.020 -0.3450 -1.0014  0.1935
   59CHL1   C17 5496   0.491   0.904  13.023  0.5524  0.8216  0.1835
   59CHL1   H17 5497   0.415   0.849  13.082  0.9037  1.3443  1.1321
   59CHL1   C13 5498   0.509   0.806  12.903  0.5087  0.1590 -0.3447
   59CHL1   C18 5499   0.652   0.822  12.839  0.7239 -0.1122  0.2138
   59CHL1  H18A 5500   0.675   0.931  12.836 -0.4209  0.1173 -0.7247
   59CHL1  H18B 5501   0.723   0.767  12.906  1.4348  3.2742  2.5039
   59CHL1  H18C 5502   0.655   0.782  12.736 -0.5173  2.9156 -1.1027
   59CHL1   C12 5503   0.472   0.657  12.939 -0.0005 -0.1205  0.8487
   59CHL1  H12A 5504   0.553   0.617  13.002 -0.0120 -3.2492 -0.8989
   59CHL1  H12B 5505   0.379   0.648  12.999 -1.2166  3.0178 -0.3313
   59CHL1   C11 5506   0.461   0.571  12.808  0.1800 -0.4370  1.1545
   59CHL1  H11A 5507   0.563   0.565  12.766 -0.3562  0.1222 -0.2815
   59CHL1  H11B 5508   0.421   0.473  12.840 -0.5946  0.0635  1.7519
   59CHL1    C9 5509   0.369   0.632  12.694  0.5348  0.9749  0.0064
   59CHL1    H9 5510   0.264   0.631  12.731  0.4367  1.5832 -0.2419
   59CHL1   C10 5511   0.363   0.556  12.557 -0.8879  0.6931 -0.6933
   59CHL1   C19 5512   0.510   0.524  12.517  0.1831 -0.4617  0.7662
   59CHL1  H19A 5513   0.569   0.616  12.539 -1.6474  1.2398 -1.0049
   59CHL1  H19B 5514   0.564   0.454  12.584  0.1863  0.2276  1.5049
   59CHL1  H19C 5515   0.531   0.489  12.414 -0.6827  0.8477  0.1219
   59CHL1    C1 5516   0.286   0.423  12.579  0.4524  0.2417  1.0667
   59CHL1   H1A 5517   0.354   0.359  12.640 -1.6002 -1.4658  1.6625
   59CHL1   H1B 5518   0.193   0.430  12.638 -0.7215 -0.4883 -0.6267
   59CHL1    C2 5519   0.265   0.343  12.444  0.2622  0.3556 -0.1624
   59CHL1   H2A 5520   0.198   0.258  12.467  0.0481  0.5313 -0.1352
   59CHL1   H2B 5521   0.368   0.322  12.407  0.2503  2.6101 -1.7324
   59CHL1   C20 5522   0.606   0.928  13.128  0.0025 -0.0816  0.1988
   59CHL1   H20 5523   0.697   0.960  13.074  1.0165  0.0032  1.8680
   59CHL1   C21 5524   0.650   0.800  13.204  0.4294  0.6574 -0.1644
   59CHL1  H21A 5525   0.724   0.824  13.283 -1.1893 -0.6007  1.8448
   59CHL1  H21B 5526   0.691   0.723  13.135  1.6063  0.4366  0.7457
   59CHL1  H21C 5527   0.564   0.749  13.253 -0.0651  0.7710 -0.9027
   59CHL1   C22 5528   0.580   1.033  13.234  0.1616  0.0478 -0.5202
   59CHL1  H22A 5529   0.477   1.075  13.235 -0.3578 -1.2033  0.2044
   59CHL1  H22B 5530   0.571   0.993  13.337 -3.1691 -0.4486 -0.8724
   59CHL1   C23 5531   0.675   1.149  13.239 -0.1509 -0.7711  0.8230
   59CHL1  H23A 5532   0.776   1.107  13.221 -0.0402  0.0307 -0.6188
   59CHL1  H23B 5533   0.650   1.223  13.160  0.7186 -1.1891  0.1397
   59CHL1   C24 5534   0.684   1.223  13.377 -0.0308 -0.3135  0.6431
   59CHL1  H24A 5535   0.583   1.228  13.422 -0.8451 -0.2698 -1.1204
   59CHL1  H24B 5536   0.744   1.155  13.442 -2.0396 -5.2399 -2.1071
   59CHL1   C25 5537   0.741   1.363  13.367  0.0832  0.2453  0.0206
   59CHL1   H25 5538   0.738   1.390  13.475 -2.2920 -2.4725  0.7822
   59CHL1   C26 5539   0.878   1.375  13.306  0.0860  0.2841  0.0054
   59CHL1  H26A 5540   0.917   1.479  13.300 -0.8808  0.6086 -1.4260
   59CHL1  H26B 5541   0.950   1.311  13.361 -0.1660  0.6275  0.7478
   59CHL1  H26C 5542   0.872   1.338  13.201  0.3101  1.5876 -0.4845
   59CHL1   C27 5543   0.644   1.459  13.290  0.3875 -0.1734  0.0691
   59CHL1  H27A 5544   0.668   1.564  13.317 -1.0636  0.5123 -1.1478
   59CHL1  H27B 5545   0.659   1.437  13.182  1.4821 -0.8977  0.3554
   59CHL1  H27C 5546   0.547   1.441  13.341  2.0829 -3.5403  2.5268
   60CHL1    C3 5547   2.377   2.023  14.582 -0.3464  0.7278 -0.4671
   60CHL1    H3 5548   2.315   1.936  14.611  0.9000 -0.1870 -0.4759
   60CHL1    O3 5549   2.295   2.113  14.503 -0.3231  0.5372  0.7931
   60CHL1   H3' 5550   2.345   2.129  14.423 -2.5588  0.4035 -0.7390
   60CHL1    C4 5551   2.426   2.088  14.716 -0.3031  0.3059 -0.5999
   60CHL1   H4A 5552   2.486   2.175  14.682  0.2703  0.0296 -0.3186
   60CHL1   H4B 5553   2.332   2.123  14.763 -1.2374 -3.3832  0.6358
   60CHL1    C5 5554   2.510   2.003  14.812 -0.1772  0.3771  0.4418
   60CHL1    C6 5555   2.476   1.988  14.939  0.3557  0.2066 -0.2844
   60CHL1    H6 5556   2.387   2.039  14.977  0.2882 -0.3191  0.2814
   60CHL1    C7 5557   2.557   1.889  15.029  0.5973 -0.2338  0.0787
   60CHL1   H7A 5558   2.595   1.933  15.123  1.4251 -1.3877  0.3114
   60CHL1   H7B 5559   2.487   1.810  15.063 -0.4737  0.5097 -0.3384
   60CHL1    C8 5560   2.690   1.851  14.968 -0.1652  0.8584  0.1522
   60CHL1    H8 5561   2.756   1.939  14.979 -0.4008  1.3726 -2.1618
   60CHL1   C14 5562   2.748   1.734  15.045  0.6317 -0.4291 -0.6767
   60CHL1   H14 5563   2.673   1.653  15.032  0.2113 -0.1991  0.2495
   60CHL1   C15 5564   2.750   1.753  15.198  0.1832 -0.1504 -0.0074
   60CHL1  H15A 5565   2.791   1.853  15.223 -1.1971  0.9140 -1.8071
   60CHL1  H15B 5566   2.655   1.740  15.254  1.1929 -3.0848  1.2449
   60CHL1   C16 5567   2.853   1.640  15.253  0.1527  0.0672  0.6053
   60CHL1  H16A 5568   2.925   1.699  15.314  0.3160 -0.9388  1.4198
   60CHL1  H16B 5569   2.787   1.568  15.305 -1.4251  0.3833 -0.8689
   60CHL1   C17 5570   2.920   1.579  15.121 -0.1115  0.0589 -0.0155
   60CHL1   H17 5571   2.867   1.486  15.091 -1.1335  0.5806  0.1338
   60CHL1   C13 5572   2.889   1.690  15.001  0.0347 -0.0702 -0.9161
   60CHL1   C18 5573   2.992   1.812  15.014  0.2820 -0.4693  0.4118
   60CHL1  H18A 5574   3.043   1.827  15.112  1.8789  2.4587 -0.7393
   60CHL1  H18B 5575   3.073   1.787  14.942  0.0507  2.3018 -0.9279
   60CHL1  H18C 5576   2.958   1.907  14.968  0.3429 -1.1325 -1.0694
   60CHL1   C12 5577   2.879   1.637  14.862  0.4781  0.0296 -0.3261
   60CHL1  H12A 5578   2.978   1.604  14.827  1.2865  3.3262 -1.5544
   60CHL1  H12B 5579   2.820   1.543  14.871  0.6548  0.0770  2.4551
   60CHL1   C11 5580   2.814   1.747  14.776  0.3402 -0.4001 -0.2996
   60CHL1  H11A 5581   2.894   1.818  14.744  0.8546 -1.3214 -1.1200
   60CHL1  H11B 5582   2.795   1.694  14.680  1.2530 -0.0553 -0.6827
   60CHL1    C9 5583   2.675   1.807  14.821 -0.3070 -0.3961 -0.1240
   60CHL1    H9 5584   2.599   1.726  14.813 -0.3103 -0.5402  1.2637
   60CHL1   C10 5585   2.621   1.927  14.735  0.0851 -0.2429  0.1250
   60CHL1   C19 5586   2.740   2.021  14.710 -0.0509 -0.5041 -0.1851
   60CHL1  H19A 5587   2.801   2.055  14.796  1.5811  1.7672 -2.1046
   60CHL1  H19B 5588   2.805   1.972  14.635 -1.2444 -0.0882 -1.5301
   60CHL1  H19C 5589   2.709   2.112  14.654 -0.1431  0.1941  0.9638
   60CHL1    C1 5590   2.568   1.873  14.596  0.3510 -0.2076 -0.2124
   60CHL1   H1A 5591   2.657   1.824  14.552  0.9769  1.2839 -0.6604
   60CHL1   H1B 5592   2.486   1.799  14.614 -0.7959  0.5502 -2.0394
   60CHL1    C2 5593   2.500   1.975  14.507  0.6321 -0.0946  0.2734
   60CHL1   H2A 5594   2.463   1.932  14.412  0.5863  0.2990  0.1087
   60CHL1   H2B 5595   2.567   2.062  14.489  0.7633 -0.4928 -1.3185
   60CHL1   C20 5596   3.068   1.547  15.147  0.3319 -0.2241  0.1437
   60CHL1   H20 5597   3.128   1.640  15.164  0.6406 -0.4670  0.3949
   60CHL1   C21 5598   3.122   1.461  15.031 -0.0148 -0.1021 -0.7531
   60CHL1  H21A 5599   3.115   1.522  14.938  2.0128  1.5255  0.0850
   60CHL1  H21B 5600   3.072   1.363  15.015 -2.3743  0.4848  2.1642
   60CHL1  H21C 5601   3.230   1.444  15.050  0.2022  2.8210  1.1142
   60CHL1   C22 5602   3.079   1.460  15.280 -0.0409 -0.4859 -0.4389
   60CHL1  H22A 5603   3.046   1.523  15.365  0.2685 -2.4565  1.2019
   60CHL1  H22B 5604   3.020   1.366  15.277 -2.3405  0.8647  0.5817
   60CHL1   C23 5605   3.230   1.421  15.315 -0.1095 -0.5913  1.3738
   60CHL1  H23A 5606   3.278   1.372  15.228  0.6131 -3.2407  3.1585
   60CHL1  H23B 5607   3.290   1.510  15.344  0.4203  0.1414 -1.7111
   60CHL1   C24 5608   3.242   1.320  15.438  0.6057  0.3228 -1.2193
   60CHL1  H24A 5609   3.229   1.367  15.538  1.6194 -0.6339 -0.6209
   60CHL1  H24B 5610   3.162   1.244  15.424  1.7285 -1.3916  1.0225
   60CHL1   C25 5611   3.380   1.254  15.435  0.4303 -0.1234 -0.8718
   60CHL1   H25 5612   3.388   1.211  15.333  2.2154 -0.1592 -0.7489
   60CHL1   C26 5613   3.489   1.354  15.468  1.0912  0.2456 -0.0298
   60CHL1  H26A 5614   3.488   1.385  15.575 -1.9917  0.1776  0.0647
   60CHL1  H26B 5615   3.588   1.312  15.441  0.9837 -0.5809  0.8194
   60CHL1  H26C 5616   3.467   1.448  15.413  1.8198  0.9692  0.8883
   60CHL1   C27 5617   3.389   1.140  15.542 -0.5435  0.3221  0.8544
   60CHL1  H27A 5618   3.308   1.064  15.534  0.0590 -0.1278 -2.8063
   60CHL1  H27B 5619   3.480   1.083  15.509 -1.3135  0.5518 -1.9704
   60CHL1  H27C 5620   3.403   1.193  15.638  0.9863  0.0972  0.7794
   61CHL1    C3 5621   0.959   0.857  11.271 -0.2847 -0.1490 -0.5997
   61CHL1    H3 5622   1.062   0.845  11.312 -1.2215 -0.6832  1.7375
   61CHL1    O3 5623   0.888   0.739  11.286  0.2624 -0.2713  0.5303
   61CHL1   H3' 5624   0.909   0.713  11.376 -1.1890  0.4091  1.0943
   61CHL1    C4 5625   0.874   0.957  11.368  0.5305 -0.6775  0.0366
   61CHL1   H4A 5626   0.776   0.966  11.316  0.8902  0.9762 -0.4190
   61CHL1   H4B 5627   0.855   0.925  11.473  0.2299  3.2495  1.3264
   61CHL1    C5 5628   0.940   1.095  11.361  0.4149  0.5122 -0.7305
   61CHL1    C6 5629   0.970   1.168  11.467  0.9859  0.2385 -1.0186
   61CHL1    H6 5630   0.947   1.133  11.569 -1.9362  0.9339 -1.3605
   61CHL1    C7 5631   1.023   1.305  11.462 -0.3981 -0.1114  1.1261
   61CHL1   H7A 5632   0.977   1.376  11.534  1.2992  1.6000  0.6203
   61CHL1   H7B 5633   1.131   1.312  11.490  0.0329 -0.0568 -0.4460
   61CHL1    C8 5634   1.002   1.377  11.322 -0.1037 -0.1677  0.4413
   61CHL1    H8 5635   0.895   1.397  11.302  0.1787  1.1657  0.1957
   61CHL1   C14 5636   1.104   1.493  11.307 -0.0109  0.0368 -0.6835
   61CHL1   H14 5637   1.208   1.458  11.316  0.2883  1.4811  2.9513
   61CHL1   C15 5638   1.100   1.598  11.417 -0.1527  0.4437  0.3691
   61CHL1  H15A 5639   0.993   1.620  11.439 -0.3233 -0.2845  0.2947
   61CHL1  H15B 5640   1.152   1.569  11.511  0.0120 -1.1213 -0.1892
   61CHL1   C16 5641   1.152   1.733  11.361  0.4624  0.1719 -0.0770
   61CHL1  H16A 5642   1.071   1.809  11.375  0.0239 -0.4714  0.9926
   61CHL1  H16B 5643   1.240   1.763  11.422  1.1096 -1.3269 -0.2264
   61CHL1   C17 5644   1.185   1.699  11.213  0.1910 -0.9481 -0.2330
   61CHL1   H17 5645   1.290   1.663  11.218  0.9055  1.1170  1.3138
   61CHL1   C13 5646   1.092   1.579  11.174 -0.1188  0.1139  0.1715
   61CHL1   C18 5647   0.950   1.636  11.155 -0.5674 -0.3462 -0.3571
   61CHL1  H18A 5648   0.875   1.559  11.184  0.1867 -1.3787 -1.0729
   61CHL1  H18B 5649   0.927   1.724  11.218 -0.5194 -1.2944  1.0185
   61CHL1  H18C 5650   0.941   1.681  11.054 -3.5334 -0.0806 -0.0630
   61CHL1   C12 5651   1.141   1.477  11.070  1.1165 -0.3314  0.5901
   61CHL1  H12A 5652   1.140   1.516  10.965 -2.0327 -0.2228  0.5781
   61CHL1  H12B 5653   1.242   1.447  11.104  1.0822 -2.1227 -0.7068
   61CHL1   C11 5654   1.057   1.350  11.075  0.4671  0.1858  0.1004
   61CHL1  H11A 5655   0.958   1.386  11.039  1.6323  1.8771 -1.6396
   61CHL1  H11B 5656   1.097   1.288  10.992  0.7705 -1.1546  1.2000
   61CHL1    C9 5657   1.048   1.284  11.212  0.4244 -0.3270  0.0148
   61CHL1    H9 5658   1.148   1.251  11.249  0.4037 -0.2696  0.1229
   61CHL1   C10 5659   0.960   1.153  11.218  0.7801  0.3567  0.4765
   61CHL1   C19 5660   0.819   1.186  11.161  1.3865  0.2294  0.7230
   61CHL1  H19A 5661   0.761   1.093  11.144 -0.3313  1.0073  1.9829
   61CHL1  H19B 5662   0.756   1.241  11.235  0.6058 -0.1798  0.3813
   61CHL1  H19C 5663   0.817   1.244  11.067  0.3726 -0.7662  0.0993
   61CHL1    C1 5664   1.023   1.048  11.117  0.4165  0.1706  0.3309
   61CHL1   H1A 5665   0.990   1.095  11.022 -0.1123  1.3815  1.0958
   61CHL1   H1B 5666   1.134   1.048  11.122  0.3731 -0.9864  2.2328
   61CHL1    C2 5667   0.965   0.909  11.129 -0.0839  0.5605 -0.4331
   61CHL1   H2A 5668   1.013   0.828  11.070 -1.8094 -0.1394 -0.9343
   61CHL1   H2B 5669   0.861   0.917  11.092 -0.4048 -0.2227  0.2783
   61CHL1   C20 5670   1.199   1.821  11.120 -0.1925 -0.3472 -0.1372
   61CHL1   H20 5671   1.095   1.860  11.118 -1.0101 -2.4265 -1.0122
   61CHL1   C21 5672   1.228   1.792  10.969 -0.2387  0.4219  0.5239
   61CHL1  H21A 5673   1.135   1.763  10.917 -0.0424 -1.9040  1.3465
   61CHL1  H21B 5674   1.310   1.717  10.964 -0.1583  0.3970  1.7208
   61CHL1  H21C 5675   1.264   1.886  10.922 -4.1040  1.5489 -0.5096
   61CHL1   C22 5676   1.293   1.933  11.173  0.5605  0.3090  0.4133
   61CHL1  H22A 5677   1.279   2.025  11.112 -1.4546 -0.2904 -0.1023
   61CHL1  H22B 5678   1.267   1.958  11.278  0.5156  0.7405  0.2996
   61CHL1   C23 5679   1.441   1.893  11.178 -1.0154 -0.9337  0.2620
   61CHL1  H23A 5680   1.460   1.806  11.244  0.4686 -1.5158 -0.8655
   61CHL1  H23B 5681   1.459   1.850  11.077  1.3768  1.8331 -0.6380
   61CHL1   C24 5682   1.536   2.016  11.194  0.0596 -0.1953  0.4909
   61CHL1  H24A 5683   1.495   2.081  11.114  0.4829  0.1043  0.5190
   61CHL1  H24B 5684   1.522   2.082  11.282  1.6005  0.0004  0.6149
   61CHL1   C25 5685   1.685   1.987  11.165 -0.2805  0.5875 -0.0530
   61CHL1   H25 5686   1.696   1.942  11.064 -0.9723 -0.3529  0.2789
   61CHL1   C26 5687   1.761   2.122  11.151  0.2225  0.1348 -0.0272
   61CHL1  H26A 5688   1.736   2.196  11.230 -0.7880 -0.4630  0.2285
   61CHL1  H26B 5689   1.870   2.102  11.149  0.7868  2.8115 -1.2462
   61CHL1  H26C 5690   1.736   2.156  11.048 -0.3943  1.3584  0.5050
   61CHL1   C27 5691   1.745   1.890  11.262 -0.3200 -0.0815 -0.8139
   61CHL1  H27A 5692   1.856   1.892  11.260 -0.2660 -0.5621  0.4762
   61CHL1  H27B 5693   1.713   1.929  11.361 -0.8685 -0.4024 -0.8627
   61CHL1  H27C 5694   1.699   1.791  11.244  2.0216 -1.3613 -0.2004
   62CHL1    C3 5695   3.002   0.138  14.302 -0.2393 -0.3059  0.1565
   62CHL1    H3 5696   3.014   0.138  14.192 -1.0755 -0.5245  0.0585
   62CHL1    O3 5697   2.961   0.006  14.340  1.1741  0.0344 -0.0642
   62CHL1   H3' 5698   3.013  -0.024  14.414  0.8062 -1.0365 -0.2195
   62CHL1    C4 5699   3.140   0.168  14.373 -0.0218  0.3358  0.6678
   62CHL1   H4A 5700   3.127   0.154  14.483  2.2223 -2.5045  0.6935
   62CHL1   H4B 5701   3.193   0.085  14.322  1.3573  0.9596  1.0379
   62CHL1    C5 5702   3.189   0.311  14.340  0.2710 -0.5438  0.7838
   62CHL1    C6 5703   3.308   0.337  14.286  0.5579 -0.2730  0.0554
   62CHL1    H6 5704   3.377   0.252  14.281  0.2366 -0.7012  2.1575
   62CHL1    C7 5705   3.365   0.481  14.273 -0.0528  0.7548  0.3022
   62CHL1   H7A 5706   3.471   0.465  14.299 -0.4799  0.2114  1.8654
   62CHL1   H7B 5707   3.365   0.499  14.164 -1.9421  0.1694  0.1554
   62CHL1    C8 5708   3.288   0.585  14.344  0.1913 -0.3702 -0.0476
   62CHL1    H8 5709   3.312   0.579  14.453 -0.2060 -1.2495 -0.0021
   62CHL1   C14 5710   3.335   0.716  14.299 -0.3726  0.2841  0.4511
   62CHL1   H14 5711   3.309   0.722  14.191  2.4414 -0.8344 -0.3927
   62CHL1   C15 5712   3.483   0.750  14.305 -0.4228  0.3103  1.0933
   62CHL1  H15A 5713   3.514   0.736  14.411  0.4053  1.3980  1.0121
   62CHL1  H15B 5714   3.542   0.689  14.233  0.8169  1.1056  1.4010
   62CHL1   C16 5715   3.488   0.903  14.281 -0.5366  0.1584  0.0338
   62CHL1  H16A 5716   3.536   0.952  14.368  0.7200 -0.1789 -0.4598
   62CHL1  H16B 5717   3.542   0.921  14.186 -0.8614 -1.7619 -0.5665
   62CHL1   C17 5718   3.339   0.946  14.277 -0.7419  0.1892 -0.2693
   62CHL1   H17 5719   3.306   0.931  14.173 -0.2616  1.8240 -0.6975
   62CHL1   C13 5720   3.265   0.847  14.363 -0.3200  0.2557  0.0561
   62CHL1   C18 5721   3.290   0.868  14.511 -0.8754  0.0701 -0.0849
   62CHL1  H18A 5722   3.390   0.905  14.541 -0.0145 -1.1307 -1.3697
   62CHL1  H18B 5723   3.223   0.945  14.555 -0.2843  0.2932  0.4460
   62CHL1  H18C 5724   3.268   0.774  14.565 -1.4290  0.3361  0.1581
   62CHL1   C12 5725   3.118   0.822  14.344  0.1962 -0.3303  0.4353
   62CHL1  H12A 5726   3.066   0.902  14.400 -0.6592 -2.4163  2.8145
   62CHL1  H12B 5727   3.095   0.834  14.236  0.5903  1.2507  0.4999
   62CHL1   C11 5728   3.071   0.689  14.390 -0.6965 -0.0323  0.1624
   62CHL1  H11A 5729   3.100   0.680  14.497  1.7302 -1.0125 -0.5168
   62CHL1  H11B 5730   2.961   0.672  14.382 -0.6971  0.1622 -0.2827
   62CHL1    C9 5731   3.140   0.573  14.318 -0.4975  0.3983 -0.0151
   62CHL1    H9 5732   3.113   0.583  14.211 -0.8704  4.1708  0.3088
   62CHL1   C10 5733   3.087   0.427  14.362  0.2908  0.1377 -0.1020
   62CHL1   C19 5734   3.055   0.418  14.522  0.3956  0.1820  0.2412
   62CHL1  H19A 5735   2.961   0.476  14.531  0.6651  1.1368 -2.4052
   62CHL1  H19B 5736   3.034   0.316  14.561 -0.8454 -0.6551 -2.4276
   62CHL1  H19C 5737   3.148   0.454  14.573  0.5133  0.9163 -0.4628
   62CHL1    C1 5738   2.952   0.381  14.294 -0.1860  0.0706  0.0224
   62CHL1   H1A 5739   2.886   0.464  14.329 -0.3067  0.2695 -0.6673
   62CHL1   H1B 5740   2.958   0.382  14.183 -0.7884 -0.3905 -0.0190
   62CHL1    C2 5741   2.894   0.243  14.338 -0.2922 -0.6651  0.9455
   62CHL1   H2A 5742   2.805   0.215  14.279 -0.4266  2.2575 -0.3775
   62CHL1   H2B 5743   2.857   0.232  14.443  0.1505 -2.3406  0.9592
   62CHL1   C20 5744   3.317   1.093  14.299 -0.5454 -0.3533 -0.2362
   62CHL1   H20 5745   3.295   1.100  14.407 -2.9762 -1.1740 -0.6147
   62CHL1   C21 5746   3.187   1.136  14.228 -0.4839  0.1531 -0.2024
   62CHL1  H21A 5747   3.149   1.234  14.262 -3.6395 -0.3396 -1.9340
   62CHL1  H21B 5748   3.106   1.069  14.265 -0.0657  1.0790  2.6133
   62CHL1  H21C 5749   3.206   1.126  14.119  0.2529 -1.0333  0.0141
   62CHL1   C22 5750   3.430   1.185  14.256  0.8197 -0.0923  0.9969
   62CHL1  H22A 5751   3.532   1.140  14.263  1.6353  1.4788 -0.2283
   62CHL1  H22B 5752   3.410   1.209  14.150 -1.9886  0.5370  1.5850
   62CHL1   C23 5753   3.416   1.324  14.325  0.0856 -0.4869 -0.7902
   62CHL1  H23A 5754   3.315   1.360  14.296 -0.8626 -2.2715  0.1062
   62CHL1  H23B 5755   3.424   1.317  14.436  1.0720 -0.4936 -0.8590
   62CHL1   C24 5756   3.526   1.414  14.268  0.6062  0.1172 -0.4825
   62CHL1  H24A 5757   3.524   1.399  14.158 -1.1142  0.6481 -0.5702
   62CHL1  H24B 5758   3.485   1.517  14.281  1.7502  0.8173 -2.0116
   62CHL1   C25 5759   3.667   1.396  14.321 -0.5967 -0.5234  0.9252
   62CHL1   H25 5760   3.718   1.312  14.270  2.0190  1.6467 -0.3197
   62CHL1   C26 5761   3.762   1.509  14.276 -0.7529 -0.3967  0.1666
   62CHL1  H26A 5762   3.715   1.609  14.276  0.9229  0.4811 -2.2999
   62CHL1  H26B 5763   3.853   1.508  14.341 -0.0318  0.8743 -0.7821
   62CHL1  H26C 5764   3.801   1.507  14.172  0.9323  3.8903  0.5061
   62CHL1   C27 5765   3.681   1.376  14.473 -1.0317 -0.7380 -0.2429
   62CHL1  H27A 5766   3.643   1.466  14.527  1.5113 -0.8143  1.8795
   62CHL1  H27B 5767   3.627   1.286  14.510  2.2505 -1.3726  3.6261
   62CHL1  H27C 5768   3.789   1.366  14.496 -0.3819 -1.0925 -3.1515
   63CHL1    C3 5769   3.034   2.601  21.206 -0.1361 -0.6927 -0.2131
   63CHL1    H3 5770   3.014   2.663  21.116  0.3853 -1.7499 -1.0805
   63CHL1    O3 5771   2.922   2.525  21.229  0.2302  0.1002 -0.4146
   63CHL1   H3' 5772   2.944   2.456  21.292  0.0001  1.8307  1.7062
   63CHL1    C4 5773   3.162   2.515  21.189 -0.0134 -1.0590  0.0227
   63CHL1   H4A 5774   3.165   2.452  21.281 -0.4771 -1.9469 -0.5572
   63CHL1   H4B 5775   3.143   2.443  21.106  1.9397  0.5773 -1.9714
   63CHL1    C5 5776   3.293   2.595  21.179  0.0416 -0.0344  0.3846
   63CHL1    C6 5777   3.380   2.567  21.080  0.5509  0.5607 -0.2649
   63CHL1    H6 5778   3.366   2.478  21.016  1.4925  0.2872 -0.1201
   63CHL1    C7 5779   3.504   2.647  21.056 -0.4623  0.1520 -0.4018
   63CHL1   H7A 5780   3.583   2.576  21.025  0.5291  1.3041 -0.6219
   63CHL1   H7B 5781   3.483   2.718  20.973  2.0924  2.0827  0.4703
   63CHL1    C8 5782   3.546   2.742  21.167 -0.1957  0.2977 -0.0626
   63CHL1    H8 5783   3.610   2.689  21.240  0.2926  0.0443 -0.6749
   63CHL1   C14 5784   3.629   2.857  21.111  0.5131  0.1077 -0.0068
   63CHL1   H14 5785   3.566   2.920  21.045  1.6349  0.0418 -1.1813
   63CHL1   C15 5786   3.748   2.820  21.026  0.0909 -0.4765 -0.2128
   63CHL1  H15A 5787   3.806   2.736  21.071  1.5740 -0.5872 -2.1905
   63CHL1  H15B 5788   3.715   2.787  20.926 -0.1146  1.3326 -0.7764
   63CHL1   C16 5789   3.828   2.957  21.017 -0.7261  0.3942 -0.1487
   63CHL1  H16A 5790   3.938   2.944  21.023 -0.6770  1.2346  1.1638
   63CHL1  H16B 5791   3.802   3.018  20.928 -2.3941  2.1293  1.4306
   63CHL1   C17 5792   3.769   3.048  21.125 -0.5494  0.7619  0.8638
   63CHL1   H17 5793   3.694   3.117  21.080  0.5742  2.5561  1.5886
   63CHL1   C13 5794   3.691   2.952  21.212 -0.2160  0.0126 -0.6480
   63CHL1   C18 5795   3.786   2.878  21.305  0.2482  0.2573  0.0887
   63CHL1  H18A 5796   3.866   2.814  21.261 -0.1897 -0.7512  0.7074
   63CHL1  H18B 5797   3.823   2.940  21.390  0.3940 -0.0966  0.2869
   63CHL1  H18C 5798   3.726   2.804  21.362 -2.3677  0.3694 -2.3221
   63CHL1   C12 5799   3.576   3.011  21.297 -0.0692 -0.3737 -0.2319
   63CHL1  H12A 5800   3.623   3.071  21.378  1.5129 -1.6477 -0.1598
   63CHL1  H12B 5801   3.516   3.086  21.241 -1.7468 -1.0028  0.6562
   63CHL1   C11 5802   3.472   2.902  21.349  0.4823 -0.4683  0.0424
   63CHL1  H11A 5803   3.534   2.863  21.432 -0.3731  0.0168  0.9320
   63CHL1  H11B 5804   3.385   2.961  21.383  0.1548  0.4235 -2.1897
   63CHL1    C9 5805   3.428   2.805  21.232  0.3639 -0.5288 -0.1898
   63CHL1    H9 5806   3.393   2.874  21.153  1.0042 -0.5316 -0.4824
   63CHL1   C10 5807   3.313   2.706  21.278 -0.0178 -0.4452  0.2998
   63CHL1   C19 5808   3.360   2.643  21.411 -0.5077  0.4237 -0.3225
   63CHL1  H19A 5809   3.460   2.596  21.401 -1.4528 -2.0086  0.9506
   63CHL1  H19B 5810   3.377   2.726  21.483  0.8629 -0.1853  0.0866
   63CHL1  H19C 5811   3.290   2.566  21.452  0.0630 -0.6236 -1.2626
   63CHL1    C1 5812   3.184   2.785  21.300  0.2677  0.7823  0.0502
   63CHL1   H1A 5813   3.198   2.845  21.392 -0.3429 -0.9950  1.3475
   63CHL1   H1B 5814   3.168   2.849  21.210  1.1961  1.9054  0.6522
   63CHL1    C2 5815   3.058   2.697  21.326  0.5871  0.1516  0.3501
   63CHL1   H2A 5816   2.962   2.751  21.345 -1.1475 -2.8964  1.0092
   63CHL1   H2B 5817   3.089   2.640  21.416  3.9579  2.1474  0.6042
   63CHL1   C20 5818   3.877   3.152  21.171  0.3549 -0.2814 -0.1968
   63CHL1   H20 5819   3.958   3.102  21.229  0.1637  0.3913  0.6634
   63CHL1   C21 5820   3.812   3.245  21.275  0.6035  0.0152  0.2179
   63CHL1  H21A 5821   3.709   3.271  21.241  0.0968 -2.8446 -0.7692
   63CHL1  H21B 5822   3.865   3.340  21.297 -2.6016  1.7980  0.8036
   63CHL1  H21C 5823   3.796   3.194  21.372 -1.1440 -2.4858 -1.2566
   63CHL1   C22 5824   3.942   3.236  21.060 -0.1330 -0.3103  0.5602
   63CHL1  H22A 5825   4.012   3.308  21.108 -0.2469  0.3820 -0.2800
   63CHL1  H22B 5826   3.985   3.160  20.991 -0.5675 -0.6993  0.7192
   63CHL1   C23 5827   3.842   3.330  20.983  0.2386 -0.3979  0.3894
   63CHL1  H23A 5828   3.757   3.269  20.946 -0.2309  0.2783  0.3243
   63CHL1  H23B 5829   3.808   3.411  21.051 -1.1551 -1.3943  0.9281
   63CHL1   C24 5830   3.919   3.397  20.870 -0.5220  0.1843  0.1884
   63CHL1  H24A 5831   3.993   3.468  20.913 -1.1256 -0.0559  1.6814
   63CHL1  H24B 5832   3.974   3.316  20.818  0.2650  0.3505  0.7506
   63CHL1   C25 5833   3.835   3.476  20.768 -0.1230  0.6006 -0.1377
   63CHL1   H25 5834   3.754   3.418  20.718  1.1410 -0.6119 -0.8428
   63CHL1   C26 5835   3.771   3.590  20.842  0.6489 -0.5896 -0.3788
   63CHL1  H26A 5836   3.848   3.627  20.912  0.2774 -1.1765  0.3464
   63CHL1  H26B 5837   3.757   3.675  20.771 -0.2295  0.7026  1.2875
   63CHL1  H26C 5838   3.681   3.570  20.904  0.8814  1.0404  0.5301
   63CHL1   C27 5839   3.936   3.531  20.669  0.3526 -0.1132  0.4238
   63CHL1  H27A 5840   3.993   3.454  20.613 -0.9278 -1.9931  1.5833
   63CHL1  H27B 5841   3.895   3.593  20.587 -0.3425 -1.3092 -0.1620
   63CHL1  H27C 5842   4.022   3.577  20.722 -0.1119  0.3285  0.7978
   64CHL1    C3 5843   0.723   3.167  14.736 -0.4078  0.9679  0.5439
   64CHL1    H3 5844   0.718   3.057  14.754  1.2820  0.5484 -1.1740
   64CHL1    O3 5845   0.818   3.199  14.639  0.3315 -0.1562  0.6042
   64CHL1   H3' 5846   0.874   3.121  14.636  1.6940  0.7799  1.0122
   64CHL1    C4 5847   0.589   3.208  14.683 -0.2501 -0.7679 -0.0857
   64CHL1   H4A 5848   0.598   3.316  14.661 -2.8103 -0.3886  0.4161
   64CHL1   H4B 5849   0.565   3.166  14.583 -2.3254  0.1620 -0.0111
   64CHL1    C5 5850   0.482   3.182  14.792 -0.3728  0.4493  0.3256
   64CHL1    C6 5851   0.374   3.112  14.760  0.3495 -0.0460  0.0600
   64CHL1    H6 5852   0.372   3.070  14.659  2.0307 -2.0105  0.7775
   64CHL1    C7 5853   0.258   3.096  14.859 -0.6557 -0.1312  0.1493
   64CHL1   H7A 5854   0.164   3.121  14.806 -1.5009 -0.9670  1.1999
   64CHL1   H7B 5855   0.267   2.992  14.898  0.9005 -0.5462 -1.2140
   64CHL1    C8 5856   0.275   3.193  14.985 -0.0928 -0.6061  0.0577
   64CHL1    H8 5857   0.246   3.294  14.951 -0.0095 -0.0087  1.6750
   64CHL1   C14 5858   0.173   3.144  15.086 -0.2443 -0.0356 -1.0849
   64CHL1   H14 5859   0.218   3.047  15.113 -1.2099 -0.2301 -0.1436
   64CHL1   C15 5860   0.022   3.130  15.046 -0.4317  0.1826 -0.1205
   64CHL1  H15A 5861  -0.025   3.211  14.985 -0.8102 -0.9677 -1.3960
   64CHL1  H15B 5862   0.014   3.034  14.992 -0.5716 -0.3894  0.8931
   64CHL1   C16 5863  -0.048   3.128  15.188  0.2439 -0.2760 -0.3682
   64CHL1  H16A 5864  -0.126   3.206  15.203  0.1764 -0.7746  2.3238
   64CHL1  H16B 5865  -0.095   3.028  15.198 -2.5399  0.8705 -0.8671
   64CHL1   C17 5866   0.071   3.139  15.292 -0.2859 -0.6082 -0.0432
   64CHL1   H17 5867   0.107   3.034  15.306  1.4308 -0.2129 -1.1384
   64CHL1   C13 5868   0.178   3.225  15.214  1.0212 -0.2081 -0.3258
   64CHL1   C18 5869   0.123   3.368  15.179  0.5098 -0.4565  0.3387
   64CHL1  H18A 5870   0.138   3.440  15.262  1.7855 -0.8011  0.4274
   64CHL1  H18B 5871   0.173   3.412  15.090 -0.7104  1.6959  0.6398
   64CHL1  H18C 5872   0.013   3.360  15.167  0.1895 -0.2772  2.6905
   64CHL1   C12 5873   0.315   3.229  15.273 -0.6390  0.5041  0.1670
   64CHL1  H12A 5874   0.318   3.288  15.367  0.3638  1.2778 -0.3294
   64CHL1  H12B 5875   0.347   3.124  15.291 -1.7289  0.1248 -0.0866
   64CHL1   C11 5876   0.422   3.278  15.169 -0.3924  0.1090 -0.2370
   64CHL1  H11A 5877   0.390   3.383  15.151 -0.9942 -0.1580 -0.7566
   64CHL1  H11B 5878   0.526   3.270  15.207 -0.7270 -2.8400  0.2431
   64CHL1    C9 5879   0.418   3.196  15.036 -0.4280 -0.2536 -0.0450
   64CHL1    H9 5880   0.444   3.095  15.073 -0.2010  0.3618  1.5436
   64CHL1   C10 5881   0.520   3.246  14.930  1.0521  0.5301  0.2339
   64CHL1   C19 5882   0.519   3.398  14.911 -0.1891  0.0920 -1.0317
   64CHL1  H19A 5883   0.415   3.434  14.893  0.3287  1.3845 -1.6235
   64CHL1  H19B 5884   0.561   3.451  14.999 -2.3325 -1.8107  1.2414
   64CHL1  H19C 5885   0.570   3.441  14.822  0.5265 -0.4781 -0.8993
   64CHL1    C1 5886   0.653   3.197  14.974 -0.1662  0.5985 -0.1792
   64CHL1   H1A 5887   0.685   3.247  15.068 -0.1987  0.3254 -0.0211
   64CHL1   H1B 5888   0.663   3.088  14.994 -2.7446  0.2153 -0.6289
   64CHL1    C2 5889   0.761   3.226  14.868 -0.4300 -0.0949  0.1128
   64CHL1   H2A 5890   0.859   3.185  14.898  0.4570  1.4788 -0.5521
   64CHL1   H2B 5891   0.777   3.334  14.849 -0.0251 -0.4829 -2.0755
   64CHL1   C20 5892   0.025   3.188  15.430 -0.4485  0.8331 -0.1895
   64CHL1   H20 5893   0.021   3.299  15.431  1.6870  0.9793 -1.5609
   64CHL1   C21 5894   0.118   3.161  15.542  0.3595  0.4997  0.6941
   64CHL1  H21A 5895   0.117   3.057  15.582 -0.4351 -0.8325 -2.4963
   64CHL1  H21B 5896   0.103   3.237  15.621 -0.3175 -0.4416  1.5039
   64CHL1  H21C 5897   0.223   3.182  15.515  0.8159 -2.0329  0.2160
   64CHL1   C22 5898  -0.111   3.134  15.487 -0.5370  0.1479  0.0200
   64CHL1  H22A 5899  -0.189   3.126  15.409 -0.0779 -0.9600 -0.3412
   64CHL1  H22B 5900  -0.096   3.028  15.516 -2.0199 -0.1740 -0.3324
   64CHL1   C23 5901  -0.159   3.210  15.609  0.7145  0.2755  0.0870
   64CHL1  H23A 5902  -0.076   3.213  15.683  1.7678 -1.6084 -0.9393
   64CHL1  H23B 5903  -0.175   3.314  15.573  2.0053  0.0617 -1.2033
   64CHL1   C24 5904  -0.278   3.137  15.674  0.1011 -0.3129 -0.2708
   64CHL1  H24A 5905  -0.351   3.128  15.591 -0.0324 -0.8908 -0.0992
   64CHL1  H24B 5906  -0.251   3.035  15.708 -2.7390 -0.3002  2.4642
   64CHL1   C25 5907  -0.339   3.200  15.794 -0.0721  0.3179 -0.1186
   64CHL1   H25 5908  -0.263   3.252  15.856 -0.2535  0.2873  0.1303
   64CHL1   C26 5909  -0.438   3.319  15.766 -0.7505 -0.4415  0.1751
   64CHL1  H26A 5910  -0.511   3.280  15.691  0.0399  1.7142 -1.8482
   64CHL1  H26B 5911  -0.481   3.333  15.867  1.4991  1.2460  0.9788
   64CHL1  H26C 5912  -0.384   3.406  15.723 -0.8139  0.1183  1.2025
   64CHL1   C27 5913  -0.405   3.101  15.879  0.1334 -0.2314  0.2326
   64CHL1  H27A 5914  -0.458   3.145  15.966 -1.8691 -0.5332 -0.7875
   64CHL1  H27B 5915  -0.476   3.052  15.808  0.3541 -1.5489  0.8864
   64CHL1  H27C 5916  -0.340   3.016  15.911  1.3963 -0.2122 -2.0828
   65CHL1    C3 5917   1.999   0.643  11.242  0.1678  0.1237 -0.3625
   65CHL1    H3 5918   1.963   0.614  11.141  2.3592 -1.6301 -0.7336
   65CHL1    O3 5919   2.025   0.530  11.325 -0.3830 -0.0683  0.2442
   65CHL1   H3' 5920   1.971   0.531  11.404  2.3701 -1.0905  2.3216
   65CHL1    C4 5921   2.138   0.715  11.219  0.0631  0.1987 -0.1892
   65CHL1   H4A 5922   2.178   0.739  11.320 -0.8802  0.5761  0.0994
   65CHL1   H4B 5923   2.203   0.635  11.176 -1.1410 -0.2253 -1.2677
   65CHL1    C5 5924   2.093   0.837  11.138 -0.0731 -0.1851 -0.6905
   65CHL1    C6 5925   2.144   0.852  11.013 -0.6320 -0.0693 -0.1668
   65CHL1    H6 5926   2.207   0.772  10.971  0.0928  0.7511 -0.6594
   65CHL1    C7 5927   2.128   0.974  10.936 -0.0814 -0.4998  0.2148
   65CHL1   H7A 5928   2.230   1.004  10.905 -0.1038 -0.1338  0.4878
   65CHL1   H7B 5929   2.061   0.956  10.849 -0.2027 -1.9592  0.5836
   65CHL1    C8 5930   2.072   1.098  11.018  0.4515  0.7242  0.4681
   65CHL1    H8 5931   2.159   1.134  11.078  0.3812  2.5860 -0.4720
   65CHL1   C14 5932   2.036   1.215  10.922  0.4298 -0.0586 -0.3805
   65CHL1   H14 5933   1.951   1.179  10.860  0.5634 -0.5314 -0.2862
   65CHL1   C15 5934   2.131   1.271  10.819 -0.3327 -0.0663 -0.0066
   65CHL1  H15A 5935   2.237   1.276  10.850  0.8473 -1.3647 -3.3080
   65CHL1  H15B 5936   2.132   1.210  10.726  0.0771  2.0942 -1.5027
   65CHL1   C16 5937   2.076   1.408  10.789 -0.4808  0.8443 -0.0440
   65CHL1  H16A 5938   2.163   1.477  10.796  2.4246 -2.1285 -3.1314
   65CHL1  H16B 5939   2.027   1.414  10.689  1.0040  0.4838 -0.8240
   65CHL1   C17 5940   1.964   1.443  10.890 -0.3547 -0.0608 -0.3117
   65CHL1   H17 5941   1.864   1.417  10.850 -1.3954 -0.9087  2.6157
   65CHL1   C13 5942   1.995   1.341  11.000 -0.1380 -0.6983 -0.2583
   65CHL1   C18 5943   2.110   1.396  11.090  0.3860  0.3529 -0.0348
   65CHL1  H18A 5944   2.054   1.462  11.159  0.0209 -1.1180  1.1056
   65CHL1  H18B 5945   2.159   1.332  11.166  0.1474  1.8314  1.4020
   65CHL1  H18C 5946   2.191   1.456  11.043 -1.0222  1.7195 -0.8050
   65CHL1   C12 5947   1.866   1.294  11.075  0.7755  0.1852 -0.5995
   65CHL1  H12A 5948   1.827   1.382  11.131  2.1444  1.3439 -1.3841
   65CHL1  H12B 5949   1.792   1.262  10.999  0.9216  1.0315 -1.1075
   65CHL1   C11 5950   1.906   1.181  11.174 -0.1306 -0.0502  0.7035
   65CHL1  H11A 5951   1.980   1.224  11.244  0.8891 -1.0527  0.2824
   65CHL1  H11B 5952   1.813   1.153  11.227 -0.9599 -0.4512 -0.8820
   65CHL1    C9 5953   1.962   1.057  11.107  0.3456  0.3221  0.7735
   65CHL1    H9 5954   1.877   1.021  11.046  0.5823  0.7297  0.1960
   65CHL1   C10 5955   2.011   0.945  11.203 -0.8325  0.5748 -0.5549
   65CHL1   C19 5956   2.089   1.001  11.325  0.2032 -0.2035 -0.1852
   65CHL1  H19A 5957   2.027   1.074  11.382 -1.3825 -1.8206  0.2474
   65CHL1  H19B 5958   2.117   0.931  11.407 -2.4243  1.3208  2.2440
   65CHL1  H19C 5959   2.187   1.041  11.293  0.6779 -0.9377  0.3263
   65CHL1    C1 5960   1.883   0.871  11.260 -0.2737 -0.2591 -0.3202
   65CHL1   H1A 5961   1.828   0.947  11.321  1.0024  1.0883 -0.7820
   65CHL1   H1B 5962   1.820   0.863  11.169 -1.7468  2.8446  0.2630
   65CHL1    C2 5963   1.898   0.732  11.322 -0.2281 -0.2525 -0.1863
   65CHL1   H2A 5964   1.802   0.679  11.302  0.3075 -1.1962 -0.2948
   65CHL1   H2B 5965   1.931   0.736  11.428  1.2444  1.1957 -0.6565
   65CHL1   C20 5966   1.950   1.596  10.920 -0.5449  0.1989 -0.2184
   65CHL1   H20 5967   2.050   1.625  10.959  0.8037 -1.6092 -2.0801
   65CHL1   C21 5968   1.838   1.629  11.018  0.3258  0.2397 -0.4994
   65CHL1  H21A 5969   1.738   1.603  10.978 -0.4152  2.5994 -0.3571
   65CHL1  H21B 5970   1.831   1.740  11.026 -1.3412  0.3489 -2.5207
   65CHL1  H21C 5971   1.857   1.591  11.120  1.0319  0.0945 -0.6781
   65CHL1   C22 5972   1.925   1.675  10.793  0.1751  0.1336 -0.6375
   65CHL1  H22A 5973   1.998   1.643  10.716 -1.2965  0.8169 -2.3828
   65CHL1  H22B 5974   1.827   1.654  10.746 -0.5386  1.6726  0.1014
   65CHL1   C23 5975   1.944   1.830  10.805  0.2453  0.6515 -0.0445
   65CHL1  H23A 5976   1.911   1.874  10.901  1.1850 -2.0158  1.6186
   65CHL1  H23B 5977   2.050   1.862  10.795  0.8287 -1.6415 -2.1594
   65CHL1   C24 5978   1.876   1.916  10.697 -0.0025  0.2468  0.0023
   65CHL1  H24A 5979   1.923   1.906  10.597 -1.0897 -0.1904 -0.4786
   65CHL1  H24B 5980   1.772   1.878  10.689  0.9297 -3.1102  2.0139
   65CHL1   C25 5981   1.873   2.068  10.742 -0.2122  0.3701 -0.5602
   65CHL1   H25 5982   1.820   2.076  10.839  1.9988  2.3073  0.5909
   65CHL1   C26 5983   2.008   2.132  10.769  0.5516  0.2998  0.2707
   65CHL1  H26A 5984   2.050   2.089  10.863  1.1307  2.1492  0.9126
   65CHL1  H26B 5985   2.070   2.119  10.678 -0.0240  1.6098 -0.3467
   65CHL1  H26C 5986   1.986   2.241  10.777 -2.4317 -0.0522 -1.6053
   65CHL1   C27 5987   1.793   2.160  10.643  0.4763 -0.7078 -0.8095
   65CHL1  H27A 5988   1.844   2.156  10.544 -0.5803 -1.0109 -1.3559
   65CHL1  H27B 5989   1.687   2.127  10.638  0.3936 -0.5105 -0.3611
   65CHL1  H27C 5990   1.780   2.264  10.677 -1.8758 -0.4846 -2.1641
   66CHL1    C3 5991   2.593   0.767  11.312  0.2677  0.3526 -0.2341
   66CHL1    H3 5992   2.551   0.837  11.388 -0.7384 -0.3500 -0.1231
   66CHL1    O3 5993   2.561   0.635  11.350 -0.1990  0.1659 -0.3549
   66CHL1   H3' 5994   2.606   0.578  11.288  1.5097  1.3096 -0.2281
   66CHL1    C4 5995   2.513   0.810  11.179 -0.5679  0.5491  0.3459
   66CHL1   H4A 5996   2.525   0.725  11.108 -0.6285  1.3258 -0.6179
   66CHL1   H4B 5997   2.405   0.801  11.204 -0.5160 -0.9068  0.1690
   66CHL1    C5 5998   2.555   0.941  11.118  1.4399 -0.5296 -0.2608
   66CHL1    C6 5999   2.461   1.040  11.091 -0.3337  0.5395 -0.5001
   66CHL1    H6 6000   2.355   1.015  11.110  0.0433 -2.9287 -2.3229
   66CHL1    C7 6001   2.495   1.161  11.013 -0.4526 -0.4234 -0.5961
   66CHL1   H7A 6002   2.428   1.165  10.924 -0.1597 -1.0243 -0.8503
   66CHL1   H7B 6003   2.500   1.249  11.080  0.9017 -1.4896  0.7517
   66CHL1    C8 6004   2.636   1.153  10.955 -0.0901  0.5010  0.3352
   66CHL1    H8 6005   2.631   1.095  10.860 -2.0259  0.7634  0.2395
   66CHL1   C14 6006   2.686   1.296  10.913  0.1922 -0.7748 -0.4853
   66CHL1   H14 6007   2.678   1.358  11.005 -1.0803 -0.2592 -0.9135
   66CHL1   C15 6008   2.591   1.383  10.821 -0.4438  0.8433  0.0262
   66CHL1  H15A 6009   2.572   1.321  10.731 -0.6090 -1.0704  1.3208
   66CHL1  H15B 6010   2.503   1.413  10.883 -1.5928 -0.7433 -0.7806
   66CHL1   C16 6011   2.682   1.499  10.782  0.1270 -0.2324 -0.1103
   66CHL1  H16A 6012   2.652   1.525  10.678  1.4567  2.5089  0.1038
   66CHL1  H16B 6013   2.648   1.583  10.847  0.1399 -0.6643  0.4665
   66CHL1   C17 6014   2.829   1.467  10.828  0.4097 -0.4523  0.3630
   66CHL1   H17 6015   2.838   1.515  10.928 -0.8664  1.7009 -0.4947
   66CHL1   C13 6016   2.827   1.315  10.857 -0.0852  0.2781 -0.3183
   66CHL1   C18 6017   2.846   1.235  10.723  0.3347 -0.0004 -0.7415
   66CHL1  H18A 6018   2.951   1.248  10.690  0.3724  1.6045 -0.0912
   66CHL1  H18B 6019   2.821   1.127  10.734 -0.2434  0.0406 -1.5763
   66CHL1  H18C 6020   2.782   1.275  10.641  0.4168 -1.5141 -1.5755
   66CHL1   C12 6021   2.921   1.253  10.961 -0.0525 -0.4097  0.6337
   66CHL1  H12A 6022   3.022   1.257  10.915 -0.5315  0.6571 -0.3497
   66CHL1  H12B 6023   2.900   1.310  11.054  0.1288  0.4210  0.1746
   66CHL1   C11 6024   2.889   1.110  10.998 -0.3315 -0.8928 -0.9202
   66CHL1  H11A 6025   2.908   1.050  10.906 -0.0832 -0.6860 -1.0042
   66CHL1  H11B 6026   2.959   1.066  11.072  0.2219 -0.3094 -1.0890
   66CHL1    C9 6027   2.741   1.094  11.051 -1.0596  0.1268 -0.2849
   66CHL1    H9 6028   2.725   1.159  11.139  1.3483  0.0958  0.2481
   66CHL1   C10 6029   2.704   0.958  11.093 -0.0049 -0.1367  0.1238
   66CHL1   C19 6030   2.747   0.861  10.981  0.1893 -0.0154  0.1280
   66CHL1  H19A 6031   2.704   0.877  10.880  0.5117  0.3370  0.0419
   66CHL1  H19B 6032   2.856   0.845  10.971  0.0075 -1.2281 -0.0165
   66CHL1  H19C 6033   2.708   0.762  11.013  2.1053 -0.9447 -0.2628
   66CHL1    C1 6034   2.768   0.923  11.233  0.2896 -1.2572 -0.5791
   66CHL1   H1A 6035   2.879   0.920  11.230  0.2642 -1.5400 -2.1522
   66CHL1   H1B 6036   2.743   1.003  11.305  0.1222 -2.4485  0.7403
   66CHL1    C2 6037   2.743   0.790  11.291 -0.7078 -0.4349 -0.1187
   66CHL1   H2A 6038   2.791   0.771  11.389 -2.1508 -0.4268  0.6169
   66CHL1   H2B 6039   2.781   0.707  11.226  0.6157 -1.7959  2.2566
   66CHL1   C20 6040   2.933   1.529  10.736 -0.3140 -0.6692  1.1296
   66CHL1   H20 6041   2.928   1.485  10.634 -0.5215  1.4111  0.2012
   66CHL1   C21 6042   3.071   1.513  10.786 -0.2801 -0.2871  0.5766
   66CHL1  H21A 6043   3.148   1.534  10.708  0.4212 -3.4996  0.2936
   66CHL1  H21B 6044   3.095   1.411  10.821 -2.5684 -1.3465 -0.7467
   66CHL1  H21C 6045   3.089   1.580  10.873 -2.0490 -0.1080  0.8371
   66CHL1   C22 6046   2.912   1.681  10.703  0.8552 -0.1889 -0.3958
   66CHL1  H22A 6047   2.808   1.692  10.664 -0.6227 -0.1528  3.2290
   66CHL1  H22B 6048   2.930   1.740  10.795  0.0672 -0.0375 -0.3301
   66CHL1   C23 6049   3.007   1.738  10.597  0.0400 -0.9210  0.1622
   66CHL1  H23A 6050   3.107   1.724  10.644 -0.2379 -0.1816  0.9855
   66CHL1  H23B 6051   3.014   1.690  10.496  1.8321  0.4858 -0.4275
   66CHL1   C24 6052   2.987   1.883  10.563  0.0084 -0.5785  0.8168
   66CHL1  H24A 6053   2.980   1.951  10.651  1.8963 -0.1480  0.6862
   66CHL1  H24B 6054   3.072   1.922  10.502 -1.0552 -3.2533 -2.7446
   66CHL1   C25 6055   2.856   1.908  10.473  0.1873 -0.4368  0.4496
   66CHL1   H25 6056   2.767   1.862  10.519 -1.3042  0.7181 -1.1450
   66CHL1   C26 6057   2.840   2.061  10.459  0.5174  0.1802 -0.1581
   66CHL1  H26A 6058   2.834   2.104  10.562  1.4308  0.2560 -0.1286
   66CHL1  H26B 6059   2.922   2.108  10.401  0.6616  1.0222  0.7034
   66CHL1  H26C 6060   2.760   2.080  10.384  0.0419  0.3123  0.3686
   66CHL1   C27 6061   2.872   1.844  10.336 -0.5645 -0.0103 -0.6291
   66CHL1  H27A 6062   2.778   1.844  10.276 -0.0610 -0.1814 -1.4295
   66CHL1  H27B 6063   2.896   1.737  10.349  0.2788  0.3464  1.1156
   66CHL1  H27C 6064   2.942   1.898  10.269 -0.6289 -1.1875 -1.6870
   67CHL1    C3 6065   1.322   2.897  15.546  0.5578  0.0564 -0.5483
   67CHL1    H3 6066   1.425   2.868  15.575  1.1734 -0.6499 -3.1593
   67CHL1    O3 6067   1.314   2.831  15.416  0.2536  0.4246 -0.3038
   67CHL1   H3' 6068   1.399   2.786  15.410  0.2168  0.4297 -1.0085
   67CHL1    C4 6069   1.225   2.831  15.645  0.8930  0.0539 -0.0066
   67CHL1   H4A 6070   1.135   2.835  15.580  1.5906  2.0113 -0.9098
   67CHL1   H4B 6071   1.248   2.724  15.665 -0.6559 -0.0782  1.2732
   67CHL1    C5 6072   1.204   2.907  15.774  0.6398 -0.1814  0.4702
   67CHL1    C6 6073   1.217   2.848  15.890 -0.4337  0.5931 -0.5227
   67CHL1    H6 6074   1.239   2.740  15.899  0.5887  0.6936 -1.6126
   67CHL1    C7 6075   1.186   2.917  16.018  0.4787  0.1135  0.4860
   67CHL1   H7A 6076   1.105   2.860  16.068  0.9306 -0.7931  0.2080
   67CHL1   H7B 6077   1.277   2.924  16.080 -0.8069  0.8709  2.3678
   67CHL1    C8 6078   1.126   3.058  15.999 -0.2199 -0.3555 -0.3791
   67CHL1    H8 6079   1.019   3.046  15.970 -0.1878  1.5141 -1.4980
   67CHL1   C14 6080   1.127   3.137  16.129 -0.4980 -0.3435  0.1801
   67CHL1   H14 6081   1.234   3.161  16.148 -0.9268 -0.4553  3.1431
   67CHL1   C15 6082   1.074   3.065  16.256  0.1635  0.1069 -0.4152
   67CHL1  H15A 6083   0.976   3.016  16.238 -0.3026  0.9501 -0.2030
   67CHL1  H15B 6084   1.144   2.988  16.294 -0.5974  0.1727  1.1943
   67CHL1   C16 6085   1.060   3.186  16.355  0.5132 -0.2023  0.4887
   67CHL1  H16A 6086   0.954   3.184  16.388  1.0517  1.3677  2.4823
   67CHL1  H16B 6087   1.131   3.180  16.439  2.9891 -1.2478 -1.5425
   67CHL1   C17 6088   1.097   3.314  16.272 -0.8471 -0.0495  0.4635
   67CHL1   H17 6089   1.206   3.314  16.292 -0.7253 -0.6390 -0.1844
   67CHL1   C13 6090   1.078   3.285  16.124 -0.7401  0.3977 -0.6045
   67CHL1   C18 6091   0.930   3.296  16.094 -0.1267 -0.6982 -0.0214
   67CHL1  H18A 6092   0.890   3.257  15.998 -0.5516  0.5200 -0.3521
   67CHL1  H18B 6093   0.859   3.256  16.170 -1.4412  1.1012 -0.2373
   67CHL1  H18C 6094   0.907   3.405  16.089  0.7125 -0.4154  1.4906
   67CHL1   C12 6095   1.164   3.361  16.023  0.6545  0.0035 -0.6737
   67CHL1  H12A 6096   1.121   3.460  15.998  1.2429  1.0055  1.9609
   67CHL1  H12B 6097   1.272   3.355  16.049  0.5926 -3.4725 -0.7827
   67CHL1   C11 6098   1.161   3.284  15.883 -0.4488 -0.0226 -0.7863
   67CHL1  H11A 6099   1.059   3.293  15.841  0.0047 -0.2062 -1.9572
   67CHL1  H11B 6100   1.233   3.334  15.814 -0.1426 -0.0365 -0.4816
   67CHL1    C9 6101   1.197   3.136  15.890  0.5982 -0.7929  0.0689
   67CHL1    H9 6102   1.303   3.142  15.922  1.0126  1.0287 -1.4746
   67CHL1   C10 6103   1.184   3.061  15.754 -0.0438 -0.1272  0.2803
   67CHL1   C19 6104   1.037   3.077  15.693  0.3871 -0.1455  0.0021
   67CHL1  H19A 6105   1.018   3.182  15.661  4.2601  1.4538  2.1661
   67CHL1  H19B 6106   1.022   3.014  15.603  0.4257 -0.0969 -0.0382
   67CHL1  H19C 6107   0.952   3.053  15.761 -0.7942  0.3661 -1.2334
   67CHL1    C1 6108   1.292   3.114  15.658  0.1276 -0.6388 -0.9085
   67CHL1   H1A 6109   1.282   3.225  15.652  0.6392 -0.4046  1.6173
   67CHL1   H1B 6110   1.388   3.101  15.712 -0.6529 -2.7794  0.0409
   67CHL1    C2 6111   1.300   3.046  15.523 -0.2369  0.0873 -0.2337
   67CHL1   H2A 6112   1.387   3.088  15.469  1.2003 -1.7816  0.5354
   67CHL1   H2B 6113   1.202   3.067  15.474 -0.5962 -0.6892  0.1292
   67CHL1   C20 6114   1.046   3.453  16.317 -0.2738  0.4972  1.0838
   67CHL1   H20 6115   1.040   3.512  16.223 -0.4701 -0.5664  0.4129
   67CHL1   C21 6116   1.147   3.515  16.414  0.3502  0.0014  0.2131
   67CHL1  H21A 6117   1.103   3.607  16.458  1.6032  0.0792  1.3895
   67CHL1  H21B 6118   1.240   3.544  16.361  0.3087  0.5619  0.4446
   67CHL1  H21C 6119   1.167   3.453  16.505  0.9612 -2.2411 -1.3739
   67CHL1   C22 6120   0.902   3.447  16.377 -0.2683 -0.4379  0.4257
   67CHL1  H22A 6121   0.837   3.380  16.317  0.6563  0.2479 -1.4130
   67CHL1  H22B 6122   0.912   3.402  16.478  0.2552 -0.7106  0.2578
   67CHL1   C23 6123   0.840   3.587  16.385 -0.3893 -0.5263 -0.1826
   67CHL1  H23A 6124   0.903   3.661  16.439 -1.2309  0.9578 -1.1498
   67CHL1  H23B 6125   0.821   3.626  16.282  2.2064  1.6060  0.0242
   67CHL1   C24 6126   0.710   3.577  16.456 -0.3672  0.2547 -0.7553
   67CHL1  H24A 6127   0.651   3.485  16.432  1.5045 -0.8345 -1.4158
   67CHL1  H24B 6128   0.743   3.561  16.560  0.2616  1.8709 -0.6788
   67CHL1   C25 6129   0.631   3.709  16.467 -0.1407 -0.6684  0.1212
   67CHL1   H25 6130   0.702   3.790  16.493 -0.9768  0.0204  0.3249
   67CHL1   C26 6131   0.580   3.760  16.330  0.1041  0.3657 -0.9211
   67CHL1  H26A 6132   0.509   3.689  16.283  2.5815 -3.2596  0.3581
   67CHL1  H26B 6133   0.532   3.858  16.347 -0.4552 -0.2044  1.0694
   67CHL1  H26C 6134   0.664   3.773  16.258  0.0406 -0.6507 -1.1904
   67CHL1   C27 6135   0.524   3.700  16.575  0.4934  0.6778  0.0892
   67CHL1  H27A 6136   0.469   3.795  16.594 -1.3669 -0.2451 -0.4100
   67CHL1  H27B 6137   0.455   3.624  16.533 -0.8493  0.9897  1.6037
   67CHL1  H27C 6138   0.551   3.661  16.676 -3.1556  1.5707  1.6134
   68CHL1    C3 6139   2.557   2.421  13.327 -0.4809 -0.2708  0.2128
   68CHL1    H3 6140   2.562   2.431  13.216  0.7825 -1.8751  0.0981
   68CHL1    O3 6141   2.635   2.519  13.396  0.2394  0.2236 -0.1256
   68CHL1   H3' 6142   2.623   2.497  13.488  1.4658  2.8376  0.7536
   68CHL1    C4 6143   2.413   2.429  13.367 -0.6998 -0.0167 -0.9427
   68CHL1   H4A 6144   2.406   2.417  13.477 -4.8430  0.9219 -0.9612
   68CHL1   H4B 6145   2.381   2.534  13.346  2.6697  1.8009  1.8338
   68CHL1    C5 6146   2.327   2.325  13.292 -0.0275 -0.0380 -0.3467
   68CHL1    C6 6147   2.219   2.356  13.220 -0.8099 -0.5394 -0.3909
   68CHL1    H6 6148   2.181   2.459  13.216 -1.4960 -0.7867 -0.4839
   68CHL1    C7 6149   2.130   2.262  13.155  0.3767  0.5449 -0.2420
   68CHL1   H7A 6150   2.030   2.299  13.184  0.8357  1.4109  0.2878
   68CHL1   H7B 6151   2.136   2.258  13.044  1.4609 -1.8944 -0.1654
   68CHL1    C8 6152   2.151   2.118  13.197  0.2017  0.6822 -0.1125
   68CHL1    H8 6153   2.106   2.090  13.295 -1.3183 -1.0349 -1.2240
   68CHL1   C14 6154   2.081   2.024  13.102  0.1503  0.5791 -0.1054
   68CHL1   H14 6155   2.120   2.045  13.001  0.3230  2.4765  0.3174
   68CHL1   C15 6156   1.926   2.027  13.092  0.1089 -0.4898  0.3548
   68CHL1  H15A 6157   1.875   2.010  13.189 -1.4083 -0.8054 -0.4688
   68CHL1  H15B 6158   1.890   2.124  13.051  1.3605 -0.8286 -1.7050
   68CHL1   C16 6159   1.893   1.901  13.003  0.3002 -0.1932  0.0477
   68CHL1  H16A 6160   1.805   1.844  13.041 -0.9350  1.1706 -0.6460
   68CHL1  H16B 6161   1.874   1.941  12.901 -1.5166  3.4266  1.6462
   68CHL1   C17 6162   2.024   1.812  13.006  0.4342 -0.0088  0.1734
   68CHL1   H17 6163   2.083   1.847  12.919 -0.6848  0.5096 -0.4011
   68CHL1   C13 6164   2.108   1.871  13.121 -0.5286 -0.3944  0.7774
   68CHL1   C18 6165   2.050   1.828  13.254 -0.1337  0.2119 -0.0267
   68CHL1  H18A 6166   2.084   1.891  13.339  0.5250 -1.9353  1.3844
   68CHL1  H18B 6167   1.939   1.820  13.245 -0.2718  0.3637  1.3115
   68CHL1  H18C 6168   2.077   1.723  13.276 -2.0793 -1.0428 -3.0095
   68CHL1   C12 6169   2.266   1.845  13.115  0.0714 -0.0667 -0.2118
   68CHL1  H12A 6170   2.293   1.743  13.150 -2.4176 -0.9448 -0.6884
   68CHL1  H12B 6171   2.305   1.868  13.014 -0.9159  1.6589 -0.2385
   68CHL1   C11 6172   2.327   1.939  13.223 -0.1844 -0.4436 -0.4119
   68CHL1  H11A 6173   2.288   1.909  13.323 -0.6027 -0.8524 -0.6925
   68CHL1  H11B 6174   2.436   1.927  13.237 -0.2319  0.7294  1.3564
   68CHL1    C9 6175   2.304   2.091  13.202  0.2560 -0.0265  0.0494
   68CHL1    H9 6176   2.344   2.118  13.102 -1.4410  1.0047 -0.3894
   68CHL1   C10 6177   2.377   2.178  13.303 -0.6099 -0.3289 -0.3126
   68CHL1   C19 6178   2.338   2.129  13.451  0.0225  0.0794 -0.0404
   68CHL1  H19A 6179   2.229   2.113  13.466  0.3826 -1.4043  1.1842
   68CHL1  H19B 6180   2.374   2.029  13.483 -4.1948 -1.3749  0.7457
   68CHL1  H19C 6181   2.378   2.199  13.528 -0.8044  1.0029 -0.4189
   68CHL1    C1 6182   2.531   2.169  13.287 -0.1826 -0.1055  0.2896
   68CHL1   H1A 6183   2.565   2.070  13.326  1.1498  0.1054 -0.2775
   68CHL1   H1B 6184   2.563   2.158  13.181  3.1276 -1.2724  1.2751
   68CHL1    C2 6185   2.613   2.279  13.361  0.2976 -0.4971  0.1759
   68CHL1   H2A 6186   2.723   2.270  13.345 -0.1201 -0.7324 -3.2045
   68CHL1   H2B 6187   2.614   2.262  13.471  0.3413  0.0484  0.2673
   68CHL1   C20 6188   2.009   1.653  12.995  0.5188  0.2638 -0.0436
   68CHL1   H20 6189   2.109   1.612  13.018  0.7476  0.6890 -0.2675
   68CHL1   C21 6190   1.978   1.625  12.851  0.1202 -0.3958 -0.2727
   68CHL1  H21A 6191   2.064   1.630  12.781 -0.8098  0.5406 -1.4026
   68CHL1  H21B 6192   1.895   1.691  12.816 -0.9002 -0.8174  1.2214
   68CHL1  H21C 6193   1.965   1.516  12.841  4.4288 -1.2415  1.1086
   68CHL1   C22 6194   1.906   1.594  13.087  0.6561 -0.2690 -0.7042
   68CHL1  H22A 6195   1.919   1.624  13.194 -1.1528  1.0708 -0.8068
   68CHL1  H22B 6196   1.804   1.627  13.060  0.0130 -0.0775  1.6744
   68CHL1   C23 6197   1.908   1.442  13.093  0.2420  0.6578 -0.6804
   68CHL1  H23A 6198   1.878   1.409  12.991  0.1219  1.8664 -1.0512
   68CHL1  H23B 6199   2.011   1.404  13.108 -0.3141 -1.2060 -1.2469
   68CHL1   C24 6200   1.812   1.377  13.198 -0.0142  0.3386  0.9372
   68CHL1  H24A 6201   1.824   1.402  13.305  0.1214 -0.6261  1.1486
   68CHL1  H24B 6202   1.707   1.403  13.172 -0.6077 -1.2441  1.6362
   68CHL1   C25 6203   1.807   1.221  13.191 -0.6688  0.4337  0.2217
   68CHL1   H25 6204   1.909   1.195  13.155 -0.6991  1.0903 -0.3497
   68CHL1   C26 6205   1.797   1.141  13.326  0.2859 -0.5246  0.1776
   68CHL1  H26A 6206   1.881   1.163  13.395  1.4696 -3.5055 -0.1931
   68CHL1  H26B 6207   1.701   1.170  13.373 -0.0137 -0.5442 -0.4136
   68CHL1  H26C 6208   1.771   1.037  13.298 -3.4917  0.6446 -1.3583
   68CHL1   C27 6209   1.706   1.172  13.082  0.2548 -0.0599  0.6092
   68CHL1  H27A 6210   1.759   1.089  13.031  0.3108 -0.2490  0.9644
   68CHL1  H27B 6211   1.614   1.140  13.136  0.5205 -1.3390  0.3289
   68CHL1  H27C 6212   1.683   1.247  13.004 -1.5939 -0.6908  0.5125
   69CHL1    C3 6213   3.374   2.507  14.787 -0.5056  0.2707 -0.1511
   69CHL1    H3 6214   3.309   2.419  14.804  1.9597 -1.2210  2.3243
   69CHL1    O3 6215   3.319   2.595  14.685  0.5002 -0.0987 -0.4315
   69CHL1   H3' 6216   3.393   2.653  14.666  0.3644  1.3744  2.7803
   69CHL1    C4 6217   3.386   2.586  14.919  0.5705  0.0436  0.5677
   69CHL1   H4A 6218   3.453   2.670  14.891  2.5305 -0.9050  2.1589
   69CHL1   H4B 6219   3.287   2.627  14.948  1.5710  1.6028  1.9668
   69CHL1    C5 6220   3.452   2.494  15.027  0.2801  0.4710  0.0977
   69CHL1    C6 6221   3.395   2.469  15.143  0.6964 -1.0223  0.0294
   69CHL1    H6 6222   3.300   2.519  15.167  1.0563  0.1430 -0.8991
   69CHL1    C7 6223   3.456   2.402  15.259  0.0976 -0.4444 -0.2641
   69CHL1   H7A 6224   3.452   2.461  15.353  1.1509 -2.1433  0.9157
   69CHL1   H7B 6225   3.413   2.303  15.285  0.0471 -0.1815  0.7248
   69CHL1    C8 6226   3.607   2.377  15.233 -0.7516  0.5621 -0.5337
   69CHL1    H8 6227   3.654   2.477  15.245  0.0512  0.2345 -0.8786
   69CHL1   C14 6228   3.668   2.271  15.335 -0.0622 -0.8525  0.5584
   69CHL1   H14 6229   3.627   2.172  15.305  1.1381 -0.7129 -1.7315
   69CHL1   C15 6230   3.634   2.291  15.485  0.5717  0.0579  0.1982
   69CHL1  H15A 6231   3.650   2.397  15.516 -0.6403  0.3717 -0.1842
   69CHL1  H15B 6232   3.528   2.269  15.511  0.5173 -0.5416 -0.4898
   69CHL1   C16 6233   3.728   2.197  15.553 -0.8292  0.3606 -0.6888
   69CHL1  H16A 6234   3.782   2.248  15.636  0.0793  0.3546 -1.2624
   69CHL1  H16B 6235   3.679   2.113  15.608 -0.0546  0.4590  0.1865
   69CHL1   C17 6236   3.832   2.139  15.453 -0.0264  0.3782  0.7919
   69CHL1   H17 6237   3.788   2.043  15.416 -0.2264  1.4975 -2.1810
   69CHL1   C13 6238   3.816   2.239  15.327 -0.3771 -0.5874 -0.0902
   69CHL1   C18 6239   3.896   2.370  15.350 -0.4252  0.1823 -1.1651
   69CHL1  H18A 6240   3.875   2.415  15.450 -0.3749 -1.3930 -0.4058
   69CHL1  H18B 6241   4.007   2.356  15.349 -0.0644  1.5593  2.6099
   69CHL1  H18C 6242   3.880   2.449  15.274  1.2250  2.0255  0.2762
   69CHL1   C12 6243   3.825   2.185  15.182 -0.6147 -0.4938  0.2095
   69CHL1  H12A 6244   3.933   2.159  15.172  0.6679  3.9262  0.1991
   69CHL1  H12B 6245   3.760   2.096  15.172 -1.2322  0.0570 -0.7863
   69CHL1   C11 6246   3.786   2.286  15.077 -0.2609  0.7712 -0.1540
   69CHL1  H11A 6247   3.859   2.370  15.069 -1.1148  1.3600 -2.3884
   69CHL1  H11B 6248   3.791   2.237  14.978 -1.9270  0.8170 -0.2890
   69CHL1    C9 6249   3.637   2.332  15.086  0.1003  0.3372 -0.2406
   69CHL1    H9 6250   3.578   2.239  15.068  0.9953 -0.0161 -1.5356
   69CHL1   C10 6251   3.584   2.434  14.991  0.2642  0.9555  0.5017
   69CHL1   C19 6252   3.689   2.541  14.975 -0.2186  0.4395 -0.1292
   69CHL1  H19A 6253   3.781   2.497  14.932 -0.6842  1.0486 -1.8445
   69CHL1  H19B 6254   3.665   2.624  14.905 -2.9164  0.7638  1.0403
   69CHL1  H19C 6255   3.714   2.578  15.077 -0.1145 -0.7699  0.2945
   69CHL1    C1 6256   3.571   2.357  14.852 -0.0122  0.7948  0.0552
   69CHL1   H1A 6257   3.676   2.340  14.820  0.3526 -1.8547  2.2953
   69CHL1   H1B 6258   3.524   2.257  14.863 -0.7486  1.1180 -0.1396
   69CHL1    C2 6259   3.512   2.444  14.744 -0.7839 -0.3449 -1.0397
   69CHL1   H2A 6260   3.509   2.385  14.649  0.3570 -1.6865 -0.2757
   69CHL1   H2B 6261   3.582   2.525  14.714 -0.5139 -0.2241 -0.1012
   69CHL1   C20 6262   3.973   2.099  15.505  0.6542  0.3334 -0.3261
   69CHL1   H20 6263   4.027   2.191  15.537 -0.0778  0.3730  0.8880
   69CHL1   C21 6264   4.060   2.040  15.392 -0.9571 -0.8230  0.0107
   69CHL1  H21A 6265   4.151   1.997  15.439 -1.1676  0.8814  2.1198
   69CHL1  H21B 6266   4.091   2.120  15.320  1.2110 -0.3769  1.3435
   69CHL1  H21C 6267   4.014   1.970  15.320  0.6299 -1.7477 -0.1504
   69CHL1   C22 6268   3.946   2.005  15.629  0.0884 -0.4716  0.8471
   69CHL1  H22A 6269   4.046   1.978  15.668  1.3925  0.9190 -1.3106
   69CHL1  H22B 6270   3.892   2.069  15.702 -0.3791  0.8566 -0.5958
   69CHL1   C23 6271   3.871   1.869  15.605  0.1776  0.3467  0.5679
   69CHL1  H23A 6272   3.767   1.896  15.575 -0.0740 -0.2889  0.8548
   69CHL1  H23B 6273   3.919   1.821  15.517  0.3395 -0.4860  1.1051
   69CHL1   C24 6274   3.878   1.780  15.723  0.3271  0.2070 -0.2541
   69CHL1  H24A 6275   3.982   1.745  15.734  0.1369  0.3194  2.8493
   69CHL1  H24B 6276   3.865   1.846  15.811 -1.4724 -1.0380  0.4851
   69CHL1   C25 6277   3.775   1.666  15.735  0.4279  0.2935 -0.6989
   69CHL1   H25 6278   3.673   1.698  15.705  0.5388  0.5992 -0.7520
   69CHL1   C26 6279   3.831   1.551  15.644  0.0560 -0.5240  0.2794
   69CHL1  H26A 6280   3.779   1.453  15.653 -0.5913 -0.2154  0.0165
   69CHL1  H26B 6281   3.848   1.576  15.537  0.4801 -2.4497 -0.1373
   69CHL1  H26C 6282   3.933   1.540  15.686 -0.0488 -0.0744  0.6597
   69CHL1   C27 6283   3.761   1.614  15.877 -0.6353 -0.5159  0.2011
   69CHL1  H27A 6284   3.859   1.580  15.918  0.0808 -2.6630 -2.8858
   69CHL1  H27B 6285   3.715   1.685  15.948 -0.1262 -1.0153  1.0549
   69CHL1  H27C 6286   3.699   1.521  15.881 -0.6841 -0.4878  0.0964
   70CHL1    C3 6287   3.303   0.773  11.108 -0.0380 -0.3845  0.4547
   70CHL1    H3 6288   3.384   0.750  11.036 -0.1248 -1.9451  0.8193
   70CHL1    O3 6289   3.258   0.651  11.162  0.0141 -0.4081 -0.3540
   70CHL1   H3' 6290   3.183   0.684  11.211  1.5654  1.8042  0.6790
   70CHL1    C4 6291   3.366   0.860  11.210  0.0913  1.0879 -0.1631
   70CHL1   H4A 6292   3.290   0.878  11.290  1.9436  0.4580  1.8587
   70CHL1   H4B 6293   3.442   0.803  11.269 -0.7895  0.4889  0.4120
   70CHL1    C5 6294   3.432   0.983  11.156  0.1684 -0.3616 -0.0199
   70CHL1    C6 6295   3.559   1.015  11.163 -0.1684  0.3567 -0.0966
   70CHL1    H6 6296   3.636   0.957  11.217  0.9969 -0.6315 -2.6829
   70CHL1    C7 6297   3.628   1.140  11.111  0.2199 -0.2643 -0.1843
   70CHL1   H7A 6298   3.708   1.175  11.179 -0.0284 -0.2067  0.0824
   70CHL1   H7B 6299   3.693   1.118  11.023 -0.1075 -1.4790 -0.1379
   70CHL1    C8 6300   3.523   1.248  11.076 -0.0918  0.8337 -0.3015
   70CHL1    H8 6301   3.500   1.297  11.173 -1.4181 -2.5763  1.2759
   70CHL1   C14 6302   3.595   1.345  10.980  0.1518  0.5229 -0.0735
   70CHL1   H14 6303   3.634   1.282  10.897 -0.1216 -3.2100  2.4317
   70CHL1   C15 6304   3.709   1.425  11.038 -0.0843 -0.0292  0.1154
   70CHL1  H15A 6305   3.699   1.456  11.144  1.0392 -3.0023  1.2114
   70CHL1  H15B 6306   3.794   1.354  11.046  0.5257  0.3981 -1.9721
   70CHL1   C16 6307   3.734   1.529  10.928  1.1359  0.5839 -0.1486
   70CHL1  H16A 6308   3.756   1.633  10.961  0.8076  0.9021 -0.9100
   70CHL1  H16B 6309   3.817   1.487  10.868  0.3620 -2.7103  0.8675
   70CHL1   C17 6310   3.607   1.529  10.826 -0.2211  0.5685 -0.9470
   70CHL1   H17 6311   3.637   1.464  10.741  0.6374  0.7699 -0.8081
   70CHL1   C13 6312   3.504   1.437  10.901  0.1420  0.5910 -0.0705
   70CHL1   C18 6313   3.439   1.527  11.013 -0.5949  0.7127 -0.3623
   70CHL1  H18A 6314   3.340   1.570  10.985 -1.1726 -0.2819  0.1026
   70CHL1  H18B 6315   3.421   1.468  11.106  1.3522 -0.9145 -0.9374
   70CHL1  H18C 6316   3.506   1.608  11.048  0.0849  0.2055 -0.4668
   70CHL1   C12 6317   3.391   1.364  10.820 -0.2143 -0.0384 -0.3340
   70CHL1  H12A 6318   3.324   1.442  10.778  0.0047 -0.1532 -0.9069
   70CHL1  H12B 6319   3.433   1.305  10.736 -1.4663 -1.5502  0.0407
   70CHL1   C11 6320   3.324   1.271  10.911 -0.0039 -0.1668 -0.6936
   70CHL1  H11A 6321   3.256   1.330  10.976 -1.7035 -1.7103 -1.0043
   70CHL1  H11B 6322   3.256   1.199  10.862 -0.0892 -1.7947  1.6664
   70CHL1    C9 6323   3.414   1.184  10.995  0.3418  0.3851 -0.3493
   70CHL1    H9 6324   3.470   1.121  10.923  0.8952 -0.1011  0.4850
   70CHL1   C10 6325   3.330   1.072  11.079 -0.1232 -0.0802 -0.1329
   70CHL1   C19 6326   3.239   1.150  11.181  0.0797  0.6171 -0.3210
   70CHL1  H19A 6327   3.175   1.235  11.148  0.2451  1.3083  1.0473
   70CHL1  H19B 6328   3.178   1.073  11.232  0.0062  0.4967 -0.5909
   70CHL1  H19C 6329   3.303   1.192  11.262  1.6862  0.9849 -1.7230
   70CHL1    C1 6330   3.242   0.984  10.978 -0.0295 -0.0847 -0.5649
   70CHL1   H1A 6331   3.157   1.054  10.963  0.0703  0.4879  1.2784
   70CHL1   H1B 6332   3.316   0.959  10.899  1.3241 -2.5503  1.3484
   70CHL1    C2 6333   3.188   0.850  11.033  0.8084  0.0582 -0.8470
   70CHL1   H2A 6334   3.154   0.797  10.941 -1.9980  3.4855 -2.0749
   70CHL1   H2B 6335   3.098   0.874  11.094  0.9004  0.2001 -0.7661
   70CHL1   C20 6336   3.566   1.658  10.770 -0.6041  0.1174 -0.1512
   70CHL1   H20 6337   3.490   1.707  10.835 -0.0380 -0.3875  0.9046
   70CHL1   C21 6338   3.508   1.622  10.627 -1.2261  0.0542  0.0382
   70CHL1  H21A 6339   3.413   1.566  10.636 -1.4797  0.6049  1.0395
   70CHL1  H21B 6340   3.572   1.549  10.574 -1.5806 -1.4787  1.6232
   70CHL1  H21C 6341   3.496   1.707  10.556  0.5589  0.3350  0.0149
   70CHL1   C22 6342   3.679   1.765  10.745  0.6213  0.3271  0.6616
   70CHL1  H22A 6343   3.647   1.851  10.683 -2.5353 -0.5079  0.9523
   70CHL1  H22B 6344   3.713   1.815  10.838  1.3048  0.2217  0.4738
   70CHL1   C23 6345   3.806   1.721  10.663  0.2566 -0.1857  0.5106
   70CHL1  H23A 6346   3.853   1.628  10.703  2.0703 -0.1667 -1.3919
   70CHL1  H23B 6347   3.779   1.704  10.557  1.7186  1.1870 -0.1307
   70CHL1   C24 6348   3.918   1.828  10.663 -0.1422  0.0108 -0.3341
   70CHL1  H24A 6349   3.925   1.842  10.773  3.0370 -0.6184 -0.3493
   70CHL1  H24B 6350   4.015   1.777  10.644  1.3728  2.3666  0.5531
   70CHL1   C25 6351   3.909   1.957  10.580 -0.1841  0.6348 -0.1003
   70CHL1   H25 6352   3.812   2.010  10.585  1.4664  3.8135  1.5261
   70CHL1   C26 6353   4.010   2.058  10.637  0.5732 -0.4404  0.5100
   70CHL1  H26A 6354   3.974   2.096  10.735 -0.0767  0.3492 -0.0188
   70CHL1  H26B 6355   4.120   2.051  10.653  0.7852  0.7574 -0.3339
   70CHL1  H26C 6356   4.008   2.146  10.570  1.4405 -1.1351 -0.4491
   70CHL1   C27 6357   3.920   1.928  10.427  0.3504 -0.2825  0.6398
   70CHL1  H27A 6358   3.842   1.863  10.382  1.7370 -0.6224 -1.4566
   70CHL1  H27B 6359   3.904   2.025  10.374 -0.2225 -0.7764 -0.1178
   70CHL1  H27C 6360   4.020   1.888  10.399  0.3401  0.1930 -0.1131
   71CHL1    C3 6361   3.402   3.414  14.788  0.9605 -0.4263  0.3108
   71CHL1    H3 6362   3.387   3.440  14.895 -0.0314  1.4187 -0.2259
   71CHL1    O3 6363   3.356   3.278  14.756 -0.0283 -0.4815 -0.6833
   71CHL1   H3' 6364   3.262   3.275  14.738  0.0359  0.5888 -1.2723
   71CHL1    C4 6365   3.327   3.521  14.700  0.1588  0.2820 -0.3366
   71CHL1   H4A 6366   3.334   3.485  14.596  1.5896 -0.0466 -0.1520
   71CHL1   H4B 6367   3.220   3.513  14.727  0.8145  1.0636  3.0146
   71CHL1    C5 6368   3.397   3.658  14.723  0.5050 -0.0959  0.3253
   71CHL1    C6 6369   3.326   3.763  14.769  0.5921  0.1288  0.2946
   71CHL1    H6 6370   3.220   3.740  14.786  0.8195  0.2268  2.0053
   71CHL1    C7 6371   3.373   3.906  14.778 -0.7225 -0.2456  0.8129
   71CHL1   H7A 6372   3.302   3.977  14.732 -0.9150 -0.2518  1.1025
   71CHL1   H7B 6373   3.389   3.930  14.885  3.1228 -1.8208  0.7635
   71CHL1    C8 6374   3.511   3.927  14.710 -0.3191  0.3756 -0.6627
   71CHL1    H8 6375   3.501   3.931  14.600  0.8302  1.1477 -0.7598
   71CHL1   C14 6376   3.575   4.056  14.759 -0.8370  0.2270 -0.1969
   71CHL1   H14 6377   3.585   4.058  14.869 -2.5808  1.7630 -0.0128
   71CHL1   C15 6378   3.501   4.189  14.740 -0.0081 -0.5735  0.5410
   71CHL1  H15A 6379   3.434   4.194  14.652 -1.3890  1.8664  1.6339
   71CHL1  H15B 6380   3.423   4.195  14.818  0.4714 -3.2195  1.3473
   71CHL1   C16 6381   3.609   4.299  14.745 -0.4677  0.1454 -0.4746
   71CHL1  H16A 6382   3.583   4.358  14.654 -0.3956  1.9980  0.6622
   71CHL1  H16B 6383   3.615   4.366  14.833  0.9091 -0.0139 -0.4244
   71CHL1   C17 6384   3.750   4.236  14.741 -0.8501  0.2956  0.0912
   71CHL1   H17 6385   3.798   4.231  14.841  0.1019  0.4597 -0.3487
   71CHL1   C13 6386   3.713   4.085  14.698 -0.6828 -0.7335  0.2741
   71CHL1   C18 6387   3.705   4.080  14.540  0.0276  0.0215 -0.3055
   71CHL1  H18A 6388   3.647   4.164  14.496  0.4641  0.8353  0.6236
   71CHL1  H18B 6389   3.802   4.101  14.490 -0.4221 -0.0922 -1.2451
   71CHL1  H18C 6390   3.667   3.982  14.504  2.6070 -0.6165 -1.5554
   71CHL1   C12 6391   3.813   3.983  14.739 -0.1233 -0.0719  0.0323
   71CHL1  H12A 6392   3.913   3.996  14.694  0.5152 -0.4680  1.2792
   71CHL1  H12B 6393   3.821   3.993  14.850 -1.0823 -1.4592  0.2537
   71CHL1   C11 6394   3.760   3.848  14.699  0.3349 -0.4400  0.4481
   71CHL1  H11A 6395   3.774   3.830  14.590 -0.5254 -1.8300  0.5455
   71CHL1  H11B 6396   3.821   3.772  14.753 -0.7647 -1.1534  0.7179
   71CHL1    C9 6397   3.608   3.812  14.733 -0.0145 -0.2804 -0.2065
   71CHL1    H9 6398   3.603   3.810  14.844 -0.2987  0.1506 -0.2093
   71CHL1   C10 6399   3.550   3.673  14.685 -0.1957  0.2437 -1.0040
   71CHL1   C19 6400   3.557   3.662  14.530 -0.0749  0.3205  0.6057
   71CHL1  H19A 6401   3.555   3.558  14.493  1.4879  0.2399  0.6705
   71CHL1  H19B 6402   3.473   3.717  14.483  0.1660  0.0252 -0.1780
   71CHL1  H19C 6403   3.652   3.701  14.487  0.4270 -2.0086 -0.5503
   71CHL1    C1 6404   3.616   3.553  14.763 -0.7591 -0.5512  0.7269
   71CHL1   H1A 6405   3.719   3.559  14.721 -1.9146 -0.7375 -2.3645
   71CHL1   H1B 6406   3.633   3.574  14.871 -1.9810  0.2498  0.7807
   71CHL1    C2 6407   3.556   3.416  14.750  0.2293  0.1534 -0.0214
   71CHL1   H2A 6408   3.611   3.340  14.809 -1.9670 -1.4797  0.0565
   71CHL1   H2B 6409   3.577   3.384  14.646  2.1807  0.9022  0.0954
   71CHL1   C20 6410   3.848   4.312  14.654 -0.5021 -0.0346  0.0565
   71CHL1   H20 6411   3.801   4.339  14.557 -2.5126 -1.1474  0.6581
   71CHL1   C21 6412   3.987   4.248  14.635  0.4623  0.0830 -0.4559
   71CHL1  H21A 6413   4.054   4.324  14.590 -1.9719  2.7064  0.0500
   71CHL1  H21B 6414   3.980   4.156  14.573 -0.6333  0.3242 -0.7012
   71CHL1  H21C 6415   4.032   4.225  14.734  0.7587  2.3871 -0.0132
   71CHL1   C22 6416   3.866   4.455  14.719 -0.0861  0.9705  0.3462
   71CHL1  H22A 6417   3.771   4.511  14.724 -0.0160  1.0890  0.3711
   71CHL1  H22B 6418   3.897   4.448  14.826 -2.3672  1.3335  1.0778
   71CHL1   C23 6419   3.962   4.550  14.645  0.6500  0.3103  0.2139
   71CHL1  H23A 6420   4.063   4.503  14.650  0.8456  0.3525 -2.2254
   71CHL1  H23B 6421   3.927   4.545  14.540  1.6218 -0.0722 -0.0991
   71CHL1   C24 6422   3.959   4.690  14.706 -0.2008  0.2978  0.4155
   71CHL1  H24A 6423   3.867   4.746  14.680 -0.3802  0.4409  1.3259
   71CHL1  H24B 6424   3.960   4.684  14.817 -1.7788 -0.1751  0.4162
   71CHL1   C25 6425   4.082   4.774  14.676 -0.1186  0.1420  0.3190
   71CHL1   H25 6426   4.163   4.727  14.736  1.9282  0.2165 -2.2133
   71CHL1   C26 6427   4.126   4.764  14.530  0.0175  0.0801 -0.5774
   71CHL1  H26A 6428   4.171   4.665  14.508  0.4059  0.3677 -1.1058
   71CHL1  H26B 6429   4.038   4.775  14.464  0.4575 -0.1657 -1.2124
   71CHL1  H26C 6430   4.192   4.852  14.514 -1.3718  1.3495  0.4175
   71CHL1   C27 6431   4.054   4.911  14.731  0.2096 -0.3355 -0.3131
   71CHL1  H27A 6432   3.971   4.967  14.683  0.4124 -1.6923 -2.3615
   71CHL1  H27B 6433   4.051   4.904  14.842 -0.5330 -3.2580 -0.4596
   71CHL1  H27C 6434   4.135   4.985  14.713 -1.3149  1.5875  0.2972
   72CHL1    C3 6435   2.316   2.235  11.965 -0.0141  0.5857  0.5583
   72CHL1    H3 6436   2.418   2.241  11.921 -0.7193 -0.8539 -1.4209
   72CHL1    O3 6437   2.245   2.357  11.941  0.5062 -0.8911 -0.0201
   72CHL1   H3' 6438   2.182   2.345  12.014  0.4346 -1.1423 -0.1218
   72CHL1    C4 6439   2.239   2.126  11.891 -0.6521 -0.2505 -0.2787
   72CHL1   H4A 6440   2.145   2.120  11.949 -0.6719 -2.7897 -0.4487
   72CHL1   H4B 6441   2.215   2.158  11.788  0.7051  2.2430  0.0961
   72CHL1    C5 6442   2.306   1.990  11.901  0.3862  0.0541 -0.5220
   72CHL1    C6 6443   2.340   1.921  11.796  0.4066 -0.3932  0.2271
   72CHL1    H6 6444   2.324   1.967  11.698 -0.5959  0.1888  0.6470
   72CHL1    C7 6445   2.396   1.781  11.803 -0.7831  0.1002 -0.0027
   72CHL1   H7A 6446   2.355   1.712  11.726  1.8323 -0.6586 -0.8312
   72CHL1   H7B 6447   2.504   1.782  11.774 -0.8005  0.1929 -0.0672
   72CHL1    C8 6448   2.393   1.719  11.944 -0.0277  0.0181 -0.2411
   72CHL1    H8 6449   2.290   1.683  11.967 -0.8769  2.1039 -0.5565
   72CHL1   C14 6450   2.496   1.610  11.957  0.2203  0.4188 -0.0222
   72CHL1   H14 6451   2.590   1.669  11.949  1.2613 -1.0520  0.6857
   72CHL1   C15 6452   2.509   1.497  11.854  0.3118 -0.3319 -0.0599
   72CHL1  H15A 6453   2.408   1.453  11.839 -0.1842  0.7802 -0.0851
   72CHL1  H15B 6454   2.537   1.523  11.750 -3.1020  0.3409 -0.9510
   72CHL1   C16 6455   2.599   1.386  11.919 -0.0470 -0.3542  0.1212
   72CHL1  H16A 6456   2.555   1.284  11.910 -0.5711 -0.0408 -1.2231
   72CHL1  H16B 6457   2.686   1.387  11.850  0.4585 -2.7176  0.6225
   72CHL1   C17 6458   2.632   1.430  12.063  0.1170 -0.2802  0.1494
   72CHL1   H17 6459   2.725   1.491  12.062 -1.3955  2.2089  1.6180
   72CHL1   C13 6460   2.515   1.536  12.091 -0.0331 -0.6307  0.6292
   72CHL1   C18 6461   2.381   1.464  12.125 -0.2420 -0.0718  0.5208
   72CHL1  H18A 6462   2.393   1.415  12.224  1.8715  1.1281  0.9265
   72CHL1  H18B 6463   2.301   1.540  12.140  0.7225  0.5426  3.2202
   72CHL1  H18C 6464   2.344   1.393  12.048 -1.2649  0.8159  0.1664
   72CHL1   C12 6465   2.551   1.655  12.193 -0.1343  0.3936 -0.1696
   72CHL1  H12A 6466   2.568   1.615  12.295  0.4817 -0.2559 -0.5210
   72CHL1  H12B 6467   2.646   1.688  12.146  1.0404 -3.2070 -0.6222
   72CHL1   C11 6468   2.443   1.770  12.193 -0.1352 -0.2436  0.0165
   72CHL1  H11A 6469   2.346   1.727  12.224 -0.3494  0.0605 -0.2243
   72CHL1  H11B 6470   2.471   1.854  12.260  1.1556  2.1776 -3.2769
   72CHL1    C9 6471   2.427   1.831  12.049 -0.0187 -0.4337 -0.0109
   72CHL1    H9 6472   2.522   1.870  12.008 -1.4296  2.2064 -1.0051
   72CHL1   C10 6473   2.325   1.951  12.051 -0.5887 -0.1781  0.9079
   72CHL1   C19 6474   2.194   1.912  12.125  0.1378  0.2555  0.0231
   72CHL1  H19A 6475   2.160   1.821  12.070  2.1344  0.3239 -1.4571
   72CHL1  H19B 6476   2.214   1.884  12.230 -1.4939  0.9913  0.5567
   72CHL1  H19C 6477   2.121   1.995  12.122 -1.6644 -1.2474  0.3391
   72CHL1    C1 6478   2.403   2.066  12.122 -0.7219  0.2866 -0.1478
   72CHL1   H1A 6479   2.424   2.041  12.228 -0.3945 -1.4500 -0.5912
   72CHL1   H1B 6480   2.500   2.082  12.070 -1.4840 -0.3080 -1.8056
   72CHL1    C2 6481   2.332   2.199  12.114  0.2394  0.4929 -0.0421
   72CHL1   H2A 6482   2.391   2.286  12.152  1.5878 -0.9020  1.2236
   72CHL1   H2B 6483   2.242   2.192  12.178  1.2256  0.1357  1.3598
   72CHL1   C20 6484   2.645   1.313  12.159 -0.2963  0.3802  0.6798
   72CHL1   H20 6485   2.548   1.259  12.163 -0.1189 -0.1199 -1.0016
   72CHL1   C21 6486   2.682   1.366  12.296 -0.1444 -0.0022 -0.0074
   72CHL1  H21A 6487   2.704   1.273  12.353  0.9416  1.0118  1.3261
   72CHL1  H21B 6488   2.592   1.413  12.341 -0.3028  2.0253 -2.2497
   72CHL1  H21C 6489   2.767   1.437  12.300  1.0409 -1.4047  2.9062
   72CHL1   C22 6490   2.748   1.203  12.108  0.2658 -0.2642  0.0118
   72CHL1  H22A 6491   2.726   1.176  12.002  2.5218  1.0567 -0.8647
   72CHL1  H22B 6492   2.848   1.251  12.114  0.0975 -0.0613  1.4472
   72CHL1   C23 6493   2.769   1.073  12.187  1.6406  0.7572 -0.6267
   72CHL1  H23A 6494   2.819   1.090  12.285  0.6506  1.1811 -0.1818
   72CHL1  H23B 6495   2.672   1.023  12.204 -0.4057  3.7499 -2.4932
   72CHL1   C24 6496   2.864   0.978  12.111 -0.7477 -0.7003  0.6637
   72CHL1  H24A 6497   2.831   0.967  12.006 -2.4072  5.0383  0.2681
   72CHL1  H24B 6498   2.962   1.029  12.106  0.4116 -2.9266 -3.4553
   72CHL1   C25 6499   2.906   0.839  12.172  0.1164  0.0487  0.5382
   72CHL1   H25 6500   2.828   0.760  12.159  1.0648 -0.4339 -3.4860
   72CHL1   C26 6501   3.019   0.788  12.082  0.0080 -0.6600  0.2262
   72CHL1  H26A 6502   3.118   0.831  12.107 -0.7501  1.1330  0.2512
   72CHL1  H26B 6503   3.036   0.678  12.090  0.7584 -0.4990  0.8716
   72CHL1  H26C 6504   2.994   0.809  11.976 -0.4097  0.1243  0.4722
   72CHL1   C27 6505   2.956   0.853  12.317  0.3284 -0.0448  0.1569
   72CHL1  H27A 6506   2.870   0.867  12.385  0.3949 -2.6462  0.9079
   72CHL1  H27B 6507   2.997   0.760  12.362  0.6969  0.9624  1.9667
   72CHL1  H27C 6508   3.041   0.920  12.340  3.1941 -2.9219 -1.1670
   73CHL1    C3 6509   2.492   2.516  12.477  0.5399  0.5016  0.1777
   73CHL1    H3 6510   2.389   2.476  12.492  1.5173 -2.2775 -0.0125
   73CHL1    O3 6511   2.497   2.652  12.443 -0.6311 -0.0978  0.0147
   73CHL1   H3' 6512   2.552   2.650  12.364  0.3178  2.2528  0.5384
   73CHL1    C4 6513   2.567   2.476  12.609  0.1447  0.3219 -0.2059
   73CHL1   H4A 6514   2.667   2.523  12.608  0.2502  0.1023 -0.1072
   73CHL1   H4B 6515   2.505   2.526  12.686 -0.8109 -1.5433  0.3188
   73CHL1    C5 6516   2.578   2.327  12.642  0.7072 -0.2409 -0.5446
   73CHL1    C6 6517   2.540   2.277  12.769  0.6559  0.6880  0.2081
   73CHL1    H6 6518   2.486   2.342  12.839 -1.2106 -0.9500  0.3595
   73CHL1    C7 6519   2.554   2.133  12.804  0.2997 -0.6171 -0.4975
   73CHL1   H7A 6520   2.594   2.121  12.907  0.9359 -0.1616 -0.6898
   73CHL1   H7B 6521   2.457   2.080  12.787  0.8413 -1.6938 -0.3104
   73CHL1    C8 6522   2.655   2.063  12.710  0.6880  0.2487  0.2077
   73CHL1    H8 6523   2.760   2.094  12.729  0.4528  1.6682 -0.6707
   73CHL1   C14 6524   2.657   1.916  12.746 -0.6123  0.1144  0.3211
   73CHL1   H14 6525   2.552   1.888  12.725  0.2923 -3.1586 -0.6084
   73CHL1   C15 6526   2.683   1.873  12.891 -0.0162 -0.1357 -0.6290
   73CHL1  H15A 6527   2.778   1.918  12.925 -1.4714  1.5139  1.5529
   73CHL1  H15B 6528   2.600   1.905  12.958  0.6461  1.5920 -0.5737
   73CHL1   C16 6529   2.704   1.720  12.876  0.0125  0.2860  0.6573
   73CHL1  H16A 6530   2.794   1.683  12.930 -0.6668 -0.8803  1.0229
   73CHL1  H16B 6531   2.616   1.669  12.920 -1.1078  0.7229 -0.9944
   73CHL1   C17 6532   2.712   1.696  12.721 -0.1379 -0.2934  0.2355
   73CHL1   H17 6533   2.607   1.669  12.698 -0.7719  1.4917  0.8328
   73CHL1   C13 6534   2.744   1.829  12.653 -0.7696  0.3920  0.2564
   73CHL1   C18 6535   2.894   1.868  12.667 -0.8200 -0.3780  0.5075
   73CHL1  H18A 6536   2.939   1.856  12.768  1.2129  1.2364 -0.1232
   73CHL1  H18B 6537   2.961   1.809  12.600  0.0412 -0.3728  1.3404
   73CHL1  H18C 6538   2.903   1.974  12.634  0.4681 -0.7075 -0.2775
   73CHL1   C12 6539   2.688   1.844  12.512 -0.2494 -1.0339  0.5082
   73CHL1  H12A 6540   2.756   1.795  12.440 -2.4535 -2.5523 -0.6440
   73CHL1  H12B 6541   2.584   1.808  12.501 -0.6786 -0.3084  1.9738
   73CHL1   C11 6542   2.685   1.994  12.464 -0.0280 -0.3031  0.2026
   73CHL1  H11A 6543   2.787   2.038  12.462 -1.0916  2.2951 -1.0708
   73CHL1  H11B 6544   2.637   1.994  12.364  1.5312 -0.8198 -0.5846
   73CHL1    C9 6545   2.612   2.093  12.564  0.3570  0.2338 -0.2463
   73CHL1    H9 6546   2.504   2.073  12.549  0.2780  1.4702 -1.5134
   73CHL1   C10 6547   2.635   2.244  12.528  0.4082 -0.0984  0.3618
   73CHL1   C19 6548   2.778   2.281  12.523 -0.0449  0.6519 -0.7842
   73CHL1  H19A 6549   2.826   2.261  12.621  0.0073 -0.3956 -1.0037
   73CHL1  H19B 6550   2.837   2.220  12.451 -0.3057  0.6360 -0.9853
   73CHL1  H19C 6551   2.793   2.386  12.491  0.3966  0.8408  0.0334
   73CHL1    C1 6552   2.556   2.275  12.397  0.4676 -0.4049  0.6460
   73CHL1   H1A 6553   2.598   2.226  12.306  0.7770  1.9302 -0.5364
   73CHL1   H1B 6554   2.450   2.241  12.408  0.1389 -0.9283 -2.7413
   73CHL1    C2 6555   2.544   2.430  12.363  0.3190  1.0561  0.1592
   73CHL1   H2A 6556   2.483   2.428  12.270 -0.6079 -1.2408  0.7342
   73CHL1   H2B 6557   2.643   2.471  12.335  0.2180  0.8700 -0.4955
   73CHL1   C20 6558   2.799   1.579  12.674 -0.2094  0.1360 -0.5686
   73CHL1   H20 6559   2.833   1.602  12.571  1.1824  1.6545  0.1841
   73CHL1   C21 6560   2.709   1.455  12.682 -0.2998  0.3389 -0.2229
   73CHL1  H21A 6561   2.765   1.361  12.663 -2.4533 -0.7254 -1.7505
   73CHL1  H21B 6562   2.622   1.470  12.614 -0.8207 -3.5606 -0.6068
   73CHL1  H21C 6563   2.661   1.443  12.781 -0.3321 -1.8982 -0.4687
   73CHL1   C22 6564   2.925   1.552  12.759 -0.0583 -0.1168 -0.2168
   73CHL1  H22A 6565   2.980   1.644  12.788 -1.1433  0.1904  0.9712
   73CHL1  H22B 6566   2.890   1.504  12.853 -0.7181 -0.4311 -0.6202
   73CHL1   C23 6567   3.022   1.462  12.679  0.4709 -0.3869 -0.4051
   73CHL1  H23A 6568   2.966   1.367  12.675 -2.8614  0.9590  4.6273
   73CHL1  H23B 6569   3.039   1.482  12.571 -0.2420 -2.5771 -0.9771
   73CHL1   C24 6570   3.156   1.454  12.752  0.0343 -0.8043  0.5144
   73CHL1  H24A 6571   3.155   1.408  12.853  0.7365  0.2529  1.0148
   73CHL1  H24B 6572   3.233   1.397  12.695  2.9254  1.7644  1.5636
   73CHL1   C25 6573   3.231   1.588  12.763  0.2208  0.2592  0.5040
   73CHL1   H25 6574   3.172   1.664  12.819 -1.0790  0.7652 -1.4353
   73CHL1   C26 6575   3.360   1.567  12.834 -0.9820 -1.3609 -0.0887
   73CHL1  H26A 6576   3.426   1.499  12.776  0.8511 -0.3582  0.7328
   73CHL1  H26B 6577   3.408   1.666  12.848 -1.1862 -1.2871  0.0944
   73CHL1  H26C 6578   3.356   1.523  12.936 -0.7834 -0.1491  0.4605
   73CHL1   C27 6579   3.252   1.654  12.627  0.0445  0.9116 -0.1891
   73CHL1  H27A 6580   3.321   1.741  12.633 -1.6616  2.3780 -1.0768
   73CHL1  H27B 6581   3.293   1.586  12.549 -0.6729 -0.2566  0.4331
   73CHL1  H27C 6582   3.154   1.697  12.598 -0.6991 -0.2446  0.5203
   74CHL1    C3 6583   0.953   2.617   7.831 -0.0827  0.1351  0.6742
   74CHL1    H3 6584   1.057   2.586   7.853  0.4091  1.1097 -0.2003
   74CHL1    O3 6585   0.937   2.629   7.690 -0.4343 -0.1681 -0.6004
   74CHL1   H3' 6586   1.010   2.684   7.661 -0.7169  0.8289  0.5140
   74CHL1    C4 6587   0.858   2.506   7.880 -0.6068  0.2545 -0.0311
   74CHL1   H4A 6588   0.757   2.536   7.846  0.1120  1.3771 -1.3298
   74CHL1   H4B 6589   0.889   2.414   7.826 -1.4842 -0.1708  0.1775
   74CHL1    C5 6590   0.865   2.483   8.032  0.1223 -0.6746  0.8597
   74CHL1    C6 6591   0.882   2.355   8.078  0.4362  0.0348 -0.4751
   74CHL1    H6 6592   0.892   2.270   8.009  2.3083 -0.4305  0.3144
   74CHL1    C7 6593   0.890   2.332   8.229  0.1954  0.1701 -0.5044
   74CHL1   H7A 6594   0.824   2.252   8.269  1.9652 -0.1106  2.0919
   74CHL1   H7B 6595   0.989   2.289   8.257 -0.6594 -1.6476 -0.0732
   74CHL1    C8 6596   0.862   2.458   8.309  0.1869 -0.5955  0.7470
   74CHL1    H8 6597   0.751   2.463   8.309  0.0846 -0.0933 -2.9813
   74CHL1   C14 6598   0.918   2.439   8.452  0.1801  0.0685  0.4544
   74CHL1   H14 6599   1.028   2.439   8.439 -0.0674 -1.4550 -2.5866
   74CHL1   C15 6600   0.890   2.309   8.529  0.2626  0.5499 -0.5107
   74CHL1  H15A 6601   0.780   2.301   8.541  0.6137 -0.0589  3.3969
   74CHL1  H15B 6602   0.941   2.218   8.488 -0.0380  0.1023  0.1006
   74CHL1   C16 6603   0.943   2.346   8.672 -0.2949 -0.1885  0.3940
   74CHL1  H16A 6604   0.872   2.315   8.751 -0.6422  1.7132  0.8844
   74CHL1  H16B 6605   1.044   2.305   8.691 -0.0997 -0.3668 -0.9407
   74CHL1   C17 6606   0.960   2.507   8.683  0.2738 -0.2939 -0.1345
   74CHL1   H17 6607   1.070   2.515   8.671  0.4087 -3.5352 -2.6504
   74CHL1   C13 6608   0.889   2.558   8.549 -0.2268  0.1265  0.2124
   74CHL1   C18 6609   0.732   2.569   8.584  0.6772 -0.1157  0.7229
   74CHL1  H18A 6610   0.700   2.473   8.631 -1.1524 -0.1331 -0.4569
   74CHL1  H18B 6611   0.717   2.661   8.643 -0.5432  0.6698 -0.7686
   74CHL1  H18C 6612   0.670   2.582   8.493 -0.2062  0.7002  1.4371
   74CHL1   C12 6613   0.946   2.686   8.496  0.7412  0.1898  0.7520
   74CHL1  H12A 6614   0.914   2.775   8.554 -1.2732  1.3415 -1.9313
   74CHL1  H12B 6615   1.056   2.674   8.484  0.4699 -3.3246  0.6076
   74CHL1   C11 6616   0.887   2.713   8.351 -0.4069 -0.5555  0.3437
   74CHL1  H11A 6617   0.779   2.737   8.362 -0.4666 -0.3253 -0.6131
   74CHL1  H11B 6618   0.933   2.809   8.318 -1.9840  1.0746  2.5542
   74CHL1    C9 6619   0.913   2.592   8.256 -0.1379 -0.4450  0.8007
   74CHL1    H9 6620   1.024   2.585   8.255 -0.0253  0.9224 -0.5130
   74CHL1   C10 6621   0.864   2.615   8.111  0.0841 -0.3297  0.8010
   74CHL1   C19 6622   0.722   2.670   8.095 -0.4627 -0.5753  0.6696
   74CHL1  H19A 6623   0.695   2.686   7.988 -0.4657  2.5073  1.0499
   74CHL1  H19B 6624   0.652   2.596   8.138 -0.2449 -1.8406 -1.0438
   74CHL1  H19C 6625   0.705   2.769   8.141  0.9770  0.4723 -0.9035
   74CHL1    C1 6626   0.958   2.729   8.052 -0.6023  0.3899 -0.1951
   74CHL1   H1A 6627   0.938   2.823   8.108 -2.4016 -0.6312  0.9717
   74CHL1   H1B 6628   1.063   2.698   8.066 -1.1229 -1.6284 -0.3866
   74CHL1    C2 6629   0.943   2.749   7.901  0.6337  0.7446 -0.4992
   74CHL1   H2A 6630   1.029   2.814   7.873  1.6966 -0.0106  0.8433
   74CHL1   H2B 6631   0.854   2.811   7.878  0.2679  0.6732  0.6324
   74CHL1   C20 6632   0.926   2.567   8.824 -0.3058  0.0141 -0.7627
   74CHL1   H20 6633   0.820   2.541   8.847 -0.2378  0.9145  0.7093
   74CHL1   C21 6634   0.948   2.717   8.829 -0.4823 -0.8840 -0.0535
   74CHL1  H21A 6635   0.946   2.753   8.934 -2.0838 -2.3737  0.4667
   74CHL1  H21B 6636   0.880   2.771   8.759  0.8005  0.3811 -0.3829
   74CHL1  H21C 6637   1.052   2.734   8.794 -0.7704  2.3261  0.3123
   74CHL1   C22 6638   1.012   2.510   8.939  0.4618 -0.8495  0.7900
   74CHL1  H22A 6639   1.027   2.402   8.919  2.3177 -0.4778 -0.0861
   74CHL1  H22B 6640   1.104   2.571   8.928 -1.2475  1.4125 -3.2988
   74CHL1   C23 6641   0.949   2.505   9.093  0.3996  0.0058  0.2441
   74CHL1  H23A 6642   0.903   2.602   9.120  0.4454 -0.5566  2.5761
   74CHL1  H23B 6643   0.872   2.425   9.102 -0.1540  0.5586  0.4672
   74CHL1   C24 6644   1.062   2.480   9.197  0.2783 -0.5500 -0.8920
   74CHL1  H24A 6645   1.118   2.390   9.162 -0.8932 -1.0762 -1.4796
   74CHL1  H24B 6646   1.136   2.563   9.192  0.3681 -0.5745 -0.0487
   74CHL1   C25 6647   1.011   2.472   9.336  0.1790 -0.1151 -0.2176
   74CHL1   H25 6648   0.915   2.417   9.330 -0.5431  1.0350  0.4479
   74CHL1   C26 6649   1.108   2.404   9.434 -1.4003 -0.6609  0.2845
   74CHL1  H26A 6650   1.149   2.308   9.397 -0.3674  0.5408 -1.8500
   74CHL1  H26B 6651   1.196   2.469   9.450 -1.7952  0.5219 -1.9040
   74CHL1  H26C 6652   1.064   2.398   9.535 -1.5370 -0.0946  0.2618
   74CHL1   C27 6653   0.985   2.606   9.397 -0.2933  0.0939  0.2201
   74CHL1  H27A 6654   1.076   2.666   9.420 -1.0279  0.8719  1.1733
   74CHL1  H27B 6655   0.916   2.664   9.333  0.6959 -1.3331 -2.3123
   74CHL1  H27C 6656   0.938   2.593   9.497 -0.0851 -0.0503  0.3021
   75CHL1    C3 6657   2.753   2.556  11.755  0.5669 -0.6539 -0.2498
   75CHL1    H3 6658   2.806   2.497  11.677  1.2005  1.0492 -1.1480
   75CHL1    O3 6659   2.694   2.676  11.714 -0.0470  0.3144 -0.1590
   75CHL1   H3' 6660   2.758   2.738  11.748  0.9456 -1.4525  1.3649
   75CHL1    C4 6661   2.644   2.457  11.805  0.6368 -0.3082 -0.4188
   75CHL1   H4A 6662   2.593   2.500  11.894 -1.3733 -1.4792 -0.9439
   75CHL1   H4B 6663   2.563   2.451  11.729 -0.5216  2.5468  0.4629
   75CHL1    C5 6664   2.700   2.322  11.830  0.3547 -0.0638 -0.0304
   75CHL1    C6 6665   2.673   2.212  11.759 -0.2465 -0.2235  0.2537
   75CHL1    H6 6666   2.605   2.208  11.672  0.5282 -0.7904 -0.3402
   75CHL1    C7 6667   2.735   2.080  11.779  0.3911 -0.5337  0.2402
   75CHL1   H7A 6668   2.662   1.998  11.760 -0.7072  0.7184 -1.2058
   75CHL1   H7B 6669   2.819   2.066  11.708  0.4584  1.6319 -0.1895
   75CHL1    C8 6670   2.811   2.076  11.916  0.1736 -0.1228  0.3838
   75CHL1    H8 6671   2.729   2.076  11.990 -1.4357  0.2751 -1.3303
   75CHL1   C14 6672   2.905   1.952  11.936  0.2123 -0.3163  0.3859
   75CHL1   H14 6673   2.989   1.968  11.866 -1.0284  1.2466 -0.8130
   75CHL1   C15 6674   2.840   1.816  11.915 -0.0042  0.0183  0.7171
   75CHL1  H15A 6675   2.741   1.801  11.963 -1.2859 -1.9358 -2.2579
   75CHL1  H15B 6676   2.832   1.789  11.807 -0.8560 -0.3432  0.8664
   75CHL1   C16 6677   2.950   1.722  11.972  0.3908 -0.5125 -0.1550
   75CHL1  H16A 6678   2.894   1.654  12.041 -2.0286  0.4055 -1.1165
   75CHL1  H16B 6679   2.997   1.654  11.898 -0.7546  0.2163 -1.5923
   75CHL1   C17 6680   3.047   1.802  12.056 -0.2282  0.1327 -0.4236
   75CHL1   H17 6681   3.134   1.819  11.990 -0.1274 -1.9939 -0.9122
   75CHL1   C13 6682   2.979   1.942  12.071  0.6382 -0.4122  0.4677
   75CHL1   C18 6683   2.876   1.936  12.187 -0.1860  0.7814  0.4941
   75CHL1  H18A 6684   2.799   2.017  12.187 -1.0807 -0.0337  1.5822
   75CHL1  H18B 6685   2.820   1.840  12.186  0.3829  0.4324 -1.0222
   75CHL1  H18C 6686   2.932   1.959  12.280 -0.3010  0.0149  0.7598
   75CHL1   C12 6687   3.069   2.062  12.083 -0.4653  0.3551 -0.3384
   75CHL1  H12A 6688   3.128   2.052  12.176 -0.7843  0.2086 -0.1491
   75CHL1  H12B 6689   3.132   2.055  11.992 -1.0578 -0.8176 -0.6807
   75CHL1   C11 6690   2.992   2.193  12.069 -0.8388 -0.3080  0.8048
   75CHL1  H11A 6691   2.925   2.200  12.158 -0.6463 -2.2071  1.1467
   75CHL1  H11B 6692   3.059   2.282  12.067  0.1607 -1.0404  0.6617
   75CHL1    C9 6693   2.892   2.204  11.941 -0.4319  0.3252  0.0485
   75CHL1    H9 6694   2.958   2.212  11.852 -0.0630  0.7492  0.3605
   75CHL1   C10 6695   2.802   2.333  11.944 -0.2967  0.8134  0.0468
   75CHL1   C19 6696   2.722   2.338  12.077  0.7160  1.0585 -0.1931
   75CHL1  H19A 6697   2.792   2.360  12.161  2.4881 -2.4195 -0.5680
   75CHL1  H19B 6698   2.652   2.424  12.070  0.5115  0.8664 -0.5034
   75CHL1  H19C 6699   2.664   2.244  12.093 -0.2537  1.8670  1.3362
   75CHL1    C1 6700   2.907   2.452  11.922  0.4957 -1.1824 -0.0623
   75CHL1   H1A 6701   2.961   2.470  12.018  0.0009  0.3935 -0.0425
   75CHL1   H1B 6702   2.974   2.410  11.844 -0.0238  0.3896 -1.4158
   75CHL1    C2 6703   2.845   2.580  11.872 -0.3813  0.0627 -0.1190
   75CHL1   H2A 6704   2.914   2.665  11.851  0.6618 -0.4879  0.9218
   75CHL1   H2B 6705   2.770   2.629  11.938  0.5291  0.8457  0.3584
   75CHL1   C20 6706   3.090   1.726  12.185 -0.0200 -0.1357 -0.6639
   75CHL1   H20 6707   3.010   1.736  12.262 -0.4508  2.3217 -1.3622
   75CHL1   C21 6708   3.210   1.802  12.260  0.4737 -0.4415  0.1187
   75CHL1  H21A 6709   3.161   1.872  12.330 -1.4394 -2.0761  0.5039
   75CHL1  H21B 6710   3.274   1.855  12.187 -0.5778  0.1374 -0.4040
   75CHL1  H21C 6711   3.274   1.727  12.312  0.1475 -2.4300 -2.1813
   75CHL1   C22 6712   3.120   1.575  12.167 -0.4553 -0.0194 -0.1121
   75CHL1  H22A 6713   3.144   1.518  12.260 -3.4765 -2.4199 -0.6267
   75CHL1  H22B 6714   3.032   1.518  12.132  0.3550 -1.3114 -0.0965
   75CHL1   C23 6715   3.225   1.550  12.062 -0.1389  0.2116 -1.1172
   75CHL1  H23A 6716   3.207   1.602  11.965  0.5905 -1.2046 -2.0261
   75CHL1  H23B 6717   3.323   1.579  12.105 -1.0906  1.5434  0.2717
   75CHL1   C24 6718   3.224   1.396  12.045  0.5057 -0.3654  0.5955
   75CHL1  H24A 6719   3.240   1.339  12.139 -0.0206  0.2859  1.0931
   75CHL1  H24B 6720   3.122   1.362  12.018  1.0534 -0.8990 -0.8871
   75CHL1   C25 6721   3.319   1.335  11.937 -0.1115  0.1303  0.6996
   75CHL1   H25 6722   3.301   1.388  11.841  1.4730  0.4515  0.5525
   75CHL1   C26 6723   3.466   1.357  11.981  0.1839 -0.4080  0.0503
   75CHL1  H26A 6724   3.501   1.311  12.076 -0.9792 -1.1286  0.1402
   75CHL1  H26B 6725   3.528   1.338  11.891 -0.5425 -0.6770 -0.4025
   75CHL1  H26C 6726   3.480   1.465  12.001 -0.1352 -0.4635  0.5835
   75CHL1   C27 6727   3.285   1.187  11.918  0.1177 -0.2398 -0.0734
   75CHL1  H27A 6728   3.192   1.171  11.859 -0.0125 -2.5571  0.6721
   75CHL1  H27B 6729   3.372   1.139  11.868 -1.1348 -1.4619 -1.1862
   75CHL1  H27C 6730   3.286   1.136  12.016  0.7873 -0.6081 -0.2690
   76CHL1    C3 6731   2.100   2.680  15.691 -0.0971 -1.2341  0.2441
   76CHL1    H3 6732   2.206   2.677  15.724  0.3131 -0.3549 -0.9301
   76CHL1    O3 6733   2.095   2.808  15.620 -0.8769  0.0612 -0.0972
   76CHL1   H3' 6734   2.008   2.825  15.581 -2.4670 -3.3036  1.5688
   76CHL1    C4 6735   2.076   2.573  15.589 -0.1816 -0.4975  0.0171
   76CHL1   H4A 6736   1.981   2.596  15.535  0.2007  0.4489 -0.2774
   76CHL1   H4B 6737   2.155   2.569  15.511  0.2554  0.8584  0.3701
   76CHL1    C5 6738   2.056   2.436  15.651 -0.9306 -0.2013  1.2431
   76CHL1    C6 6739   2.131   2.329  15.613  0.4783 -1.3624 -0.1457
   76CHL1    H6 6740   2.210   2.345  15.538  2.3421  1.5272  2.2096
   76CHL1    C7 6741   2.096   2.188  15.659 -0.4214  0.2135 -1.0711
   76CHL1   H7A 6742   2.093   2.116  15.575 -1.2006 -2.0318  0.7968
   76CHL1   H7B 6743   2.169   2.149  15.733 -2.7104 -0.4654  0.9759
   76CHL1    C8 6744   1.963   2.180  15.735 -0.3009  0.3635 -0.1893
   76CHL1    H8 6745   1.885   2.184  15.657  0.9994 -0.2856 -1.5847
   76CHL1   C14 6746   1.944   2.048  15.808 -0.0901  0.3309  0.5662
   76CHL1   H14 6747   2.019   2.053  15.890  1.0144  4.8192 -0.4236
   76CHL1   C15 6748   1.967   1.922  15.723  0.5103 -0.9162 -0.4206
   76CHL1  H15A 6749   1.923   1.947  15.624  1.6678 -1.7612 -1.1869
   76CHL1  H15B 6750   2.077   1.908  15.709  0.6780  1.6692 -2.5446
   76CHL1   C16 6751   1.899   1.813  15.798 -0.3580  0.6105 -0.8727
   76CHL1  H16A 6752   1.824   1.763  15.732 -0.4863  0.3515 -0.5366
   76CHL1  H16B 6753   1.969   1.735  15.833 -1.3644  0.7483  1.6185
   76CHL1   C17 6754   1.829   1.882  15.923 -0.3418 -0.7605 -0.2826
   76CHL1   H17 6755   1.899   1.874  16.009 -2.3043 -2.3841  1.2437
   76CHL1   C13 6756   1.814   2.034  15.888  0.0970  0.9014 -0.0366
   76CHL1   C18 6757   1.687   2.057  15.803  0.1133  0.6032 -0.2013
   76CHL1  H18A 6758   1.676   1.982  15.722 -2.1104 -1.4064  1.7825
   76CHL1  H18B 6759   1.592   2.066  15.860  0.4438 -0.0867  0.4665
   76CHL1  H18C 6760   1.692   2.157  15.755 -0.8400  0.5555 -0.4217
   76CHL1   C12 6761   1.831   2.141  16.005 -0.4532  0.6799 -0.7766
   76CHL1  H12A 6762   1.741   2.138  16.069  0.6867  0.8903  0.8877
   76CHL1  H12B 6763   1.916   2.124  16.074  0.4930 -1.3967 -2.3416
   76CHL1   C11 6764   1.853   2.285  15.946  0.4931 -0.6010  0.7468
   76CHL1  H11A 6765   1.753   2.315  15.908  0.2494 -2.8643 -0.5819
   76CHL1  H11B 6766   1.874   2.341  16.039 -0.9970 -1.7772  1.8481
   76CHL1    C9 6767   1.964   2.299  15.828  0.0755 -0.0633  0.2881
   76CHL1    H9 6768   2.068   2.285  15.864 -0.3320 -1.2135  1.0778
   76CHL1   C10 6769   1.955   2.432  15.761  0.5556  0.1329  0.2147
   76CHL1   C19 6770   1.813   2.458  15.697 -0.3565  0.3656 -0.5592
   76CHL1  H19A 6771   1.768   2.362  15.664  1.1680 -0.7488  0.5060
   76CHL1  H19B 6772   1.755   2.503  15.780 -1.0335 -0.5735 -0.5062
   76CHL1  H19C 6773   1.803   2.520  15.605 -1.7753 -0.0989 -0.7532
   76CHL1    C1 6774   1.975   2.546  15.869  0.2152 -0.3323  0.4858
   76CHL1   H1A 6775   1.889   2.552  15.938 -1.4313 -2.4208 -1.2559
   76CHL1   H1B 6776   2.060   2.525  15.937 -0.1827 -1.3361  0.6880
   76CHL1    C2 6777   2.003   2.688  15.814  0.5788 -0.1242  0.4517
   76CHL1   H2A 6778   2.047   2.762  15.885  0.4116  0.3135  0.1022
   76CHL1   H2B 6779   1.905   2.718  15.771  1.2301  1.4008 -0.0056
   76CHL1   C20 6780   1.704   1.815  15.970 -0.6996  0.2136  0.2235
   76CHL1   H20 6781   1.627   1.826  15.890  0.1533 -1.2387 -0.8504
   76CHL1   C21 6782   1.650   1.884  16.098 -0.9494  0.7377  0.6168
   76CHL1  H21A 6783   1.605   1.983  16.072 -0.4201  0.8123 -0.0276
   76CHL1  H21B 6784   1.711   1.893  16.191 -0.8338  0.1881  0.5948
   76CHL1  H21C 6785   1.558   1.837  16.139 -0.7822  1.3049  1.6838
   76CHL1   C22 6786   1.721   1.665  15.995  0.1641  1.3727 -0.6644
   76CHL1  H22A 6787   1.765   1.613  15.907  1.5004 -2.6821  2.0932
   76CHL1  H22B 6788   1.785   1.645  16.083 -1.7236 -1.5854  0.1902
   76CHL1   C23 6789   1.586   1.590  16.018  0.5140  0.3299 -0.0783
   76CHL1  H23A 6790   1.611   1.483  16.033  1.1062  0.6145  1.1395
   76CHL1  H23B 6791   1.532   1.612  16.112 -0.6701  4.3547 -1.4971
   76CHL1   C24 6792   1.476   1.615  15.910  0.2180  0.6213  0.2444
   76CHL1  H24A 6793   1.450   1.722  15.895 -0.9844  0.2100 -0.7733
   76CHL1  H24B 6794   1.491   1.575  15.808  0.7398  1.9546 -0.2329
   76CHL1   C25 6795   1.340   1.564  15.965 -0.2770  0.1721 -0.6620
   76CHL1   H25 6796   1.311   1.606  16.064 -0.2777  0.2168 -0.6804
   76CHL1   C26 6797   1.233   1.603  15.866  0.0424  0.6934  0.0466
   76CHL1  H26A 6798   1.209   1.710  15.884  3.0709  1.3653  0.6271
   76CHL1  H26B 6799   1.268   1.588  15.762  1.1035 -0.6763  0.5704
   76CHL1  H26C 6800   1.145   1.538  15.886 -1.0628  1.9404 -0.5964
   76CHL1   C27 6801   1.342   1.405  15.973 -0.1637  0.2945  0.2203
   76CHL1  H27A 6802   1.348   1.381  15.865 -1.9825 -1.3721  0.4429
   76CHL1  H27B 6803   1.434   1.369  16.023  2.2054  2.8051 -1.9342
   76CHL1  H27C 6804   1.246   1.368  16.013 -1.1481  0.8105 -1.5389
   77SOPE     N 6805   0.060   2.269  18.542 -0.1894  0.1227 -0.0707
   77SOPE   HN1 6806   0.039   2.207  18.623  0.3064  1.4417  1.1075
   77SOPE   HN2 6807  -0.004   2.351  18.553  1.3259  1.0510  3.6170
   77SOPE   HN3 6808   0.030   2.224  18.453  0.4091  4.8551 -3.0223
   77SOPE   C12 6809   0.205   2.319  18.555 -0.1082 -0.7167 -0.0694
   77SOPE  H12A 6810   0.197   2.386  18.644 -1.0817 -0.5745 -0.2485
   77SOPE  H12B 6811   0.236   2.367  18.460  0.0120  1.6811  1.0842
   77SOPE   C11 6812   0.289   2.202  18.582 -0.9803  0.5875 -0.4683
   77SOPE  H11A 6813   0.385   2.236  18.625 -0.5510 -0.8658 -0.2251
   77SOPE  H11B 6814   0.325   2.155  18.488 -1.5680  1.7069 -1.2864
   77SOPE     P 6815   0.199   1.965  18.611 -0.1489 -0.4006 -0.1148
   77SOPE   O13 6816   0.101   1.967  18.502  0.5682 -0.6058 -0.1814
   77SOPE   O14 6817   0.171   1.880  18.727 -0.5286 -0.6163  0.0674
   77SOPE   O12 6818   0.223   2.109  18.667 -0.1456  0.0393 -0.1624
   77SOPE   O11 6819   0.337   1.921  18.539 -0.3110  0.2060 -0.6105
   77SOPE    C1 6820   0.452   1.910  18.630  0.1882 -0.0385  0.1209
   77SOPE    HA 6821   0.431   1.839  18.712 -2.7202  1.4801  0.8282
   77SOPE    HB 6822   0.459   2.013  18.672 -2.6405  0.2803 -0.0000
   77SOPE    C2 6823   0.583   1.877  18.542 -0.0127 -0.5273  0.6063
   77SOPE    HS 6824   0.666   1.866  18.614  0.9696  1.5256 -0.1180
   77SOPE   O21 6825   0.614   1.977  18.446  0.4373 -0.3449  0.3344
   77SOPE   C21 6826   0.670   2.091  18.510 -0.3853 -0.0222 -0.1834
   77SOPE   O22 6827   0.692   2.102  18.629  0.1968  0.3317 -0.1292
   77SOPE   C22 6828   0.714   2.193  18.403  0.1587  0.3739  0.1236
   77SOPE   H2R 6829   0.622   2.241  18.362  0.3619  0.0469 -0.7388
   77SOPE   H2S 6830   0.747   2.123  18.324 -1.3106 -0.1712 -0.0459
   77SOPE    C3 6831   0.573   1.743  18.472  0.1212 -1.2179 -0.4185
   77SOPE    HX 6832   0.478   1.737  18.413 -0.3906  3.2972 -0.4662
   77SOPE    HY 6833   0.548   1.670  18.551  0.9195  0.8583  1.8856
   77SOPE   O31 6834   0.688   1.695  18.409 -0.2817  0.0553 -0.0712
   77SOPE   C31 6835   0.697   1.731  18.281  0.3343 -0.0370  0.1191
   77SOPE   O32 6836   0.605   1.778  18.217 -0.0948 -0.3601  0.1904
   77SOPE   C32 6837   0.841   1.715  18.238 -0.6124 -0.4919  0.7143
   77SOPE   H2X 6838   0.874   1.613  18.211 -0.4155  0.6064 -3.8944
   77SOPE   H2Y 6839   0.910   1.756  18.315  0.8428 -0.6442 -0.4621
   77SOPE   C23 6840   0.817   2.303  18.446  0.8025  0.3837 -0.7252
   77SOPE   H3R 6841   0.903   2.261  18.503 -1.2185 -2.2773  0.5675
   77SOPE   H3S 6842   0.766   2.379  18.508  1.1379  1.5231 -1.8056
   77SOPE   C24 6843   0.882   2.374  18.326  0.4253  0.7084  0.1050
   77SOPE   H4R 6844   0.969   2.433  18.362  2.0717 -1.0861 -0.7697
   77SOPE   H4S 6845   0.930   2.299  18.260  1.6520  1.5788 -0.0183
   77SOPE   C25 6846   0.792   2.464  18.248 -0.1336  0.3740  0.4118
   77SOPE   H5R 6847   0.687   2.428  18.233  0.0628 -0.2362  0.4568
   77SOPE   H5S 6848   0.786   2.560  18.304  0.0038  0.0305  1.0272
   77SOPE   C26 6849   0.851   2.481  18.107 -0.3364 -0.0316  0.2550
   77SOPE   H6R 6850   0.959   2.506  18.108  0.3876 -2.8451  0.5914
   77SOPE   H6S 6851   0.844   2.385  18.051 -1.7042  0.5413 -0.6342
   77SOPE   C27 6852   0.797   2.604  18.020  0.2666 -0.2588 -0.6069
   77SOPE   H7R 6853   0.687   2.595  18.015  0.2939  0.0805 -2.3401
   77SOPE   H7S 6854   0.823   2.701  18.068  1.8179  0.2309 -2.3136
   77SOPE   C28 6855   0.857   2.609  17.884 -0.0900 -0.1555  0.1411
   77SOPE   H8R 6856   0.966   2.603  17.904 -0.4526 -0.4688  2.1594
   77SOPE   H8S 6857   0.826   2.511  17.841 -0.0908  0.0114 -0.2464
   77SOPE   C29 6858   0.821   2.735  17.812 -0.1944 -0.6093 -0.0864
   77SOPE   H91 6859   0.736   2.793  17.851  0.1793 -0.5647  0.6755
   77SOPE  C210 6860   0.896   2.801  17.725  0.6192 -0.1786  0.0897
   77SOPE  H101 6861   0.856   2.897  17.688  0.2900 -0.1392  0.5422
   77SOPE  C211 6862   1.027   2.749  17.671  0.2337  0.0787 -0.4242
   77SOPE  H11R 6863   1.035   2.640  17.689 -1.5530 -0.1194 -0.5823
   77SOPE  H11S 6864   1.113   2.795  17.723  2.4316 -3.2146 -0.8459
   77SOPE  C212 6865   1.051   2.768  17.517  0.5526 -0.4179  0.2005
   77SOPE  H12R 6866   1.156   2.737  17.498  1.7243  2.3632  1.5868
   77SOPE  H12S 6867   1.051   2.876  17.492  2.4871 -0.5583 -0.6371
   77SOPE  C213 6868   0.957   2.686  17.426  0.1043 -0.0408 -0.1713
   77SOPE  H13R 6869   0.853   2.720  17.446 -0.1927 -1.4280  0.7697
   77SOPE  H13S 6870   0.967   2.583  17.466  2.8905  0.7699  1.5063
   77SOPE  C214 6871   0.980   2.680  17.270 -0.0712 -0.2427 -0.3544
   77SOPE  H14R 6872   0.909   2.603  17.232 -1.1423 -0.6658  2.3252
   77SOPE  H14S 6873   1.084   2.651  17.245  0.2485  0.8034 -0.2688
   77SOPE  C215 6874   0.946   2.809  17.194 -0.5463 -0.9940 -0.1741
   77SOPE  H15R 6875   0.984   2.894  17.253 -0.7999  0.5749 -2.1505
   77SOPE  H15S 6876   0.839   2.831  17.177 -0.0587  1.8095 -0.0371
   77SOPE  C216 6877   1.015   2.836  17.057  0.3974 -0.5683  0.6502
   77SOPE  H16R 6878   0.995   2.941  17.027  0.0015 -1.1471 -1.2005
   77SOPE  H16S 6879   0.958   2.772  16.987 -0.6572  1.2250 -0.1808
   77SOPE  C217 6880   1.167   2.818  17.037  0.4232  0.5217  0.0589
   77SOPE  H17R 6881   1.194   2.711  17.048 -0.5013  0.3381  0.6309
   77SOPE  H17S 6882   1.213   2.885  17.114 -0.4009  2.4402 -1.0623
   77SOPE  C218 6883   1.208   2.865  16.897 -0.6491 -0.3909 -0.7951
   77SOPE  H18R 6884   1.193   2.975  16.890 -1.4719 -0.5528 -1.9081
   77SOPE  H18S 6885   1.147   2.821  16.815  0.0202 -0.5707 -1.1969
   77SOPE  H18T 6886   1.312   2.835  16.873 -0.3913  2.1348 -3.3595
   77SOPE   C33 6887   0.879   1.783  18.107  0.6093  0.2524  0.6338
   77SOPE   H3X 6888   0.988   1.802  18.097  1.0164 -2.0629  0.1196
   77SOPE   H3Y 6889   0.841   1.887  18.096  0.6581  0.2547  0.4767
   77SOPE   C34 6890   0.854   1.696  17.978  0.0630 -0.8496  0.4239
   77SOPE   H4X 6891   0.748   1.687  17.946  0.4732  0.1528 -1.3608
   77SOPE   H4Y 6892   0.903   1.597  17.990  0.8798 -0.6542 -1.1333
   77SOPE   C35 6893   0.926   1.758  17.860  0.3728 -0.4681  0.1758
   77SOPE   H5X 6894   1.035   1.777  17.869  0.5809 -1.5230  0.0622
   77SOPE   H5Y 6895   0.885   1.859  17.838 -0.0081 -1.0050 -1.8872
   77SOPE   C36 6896   0.905   1.684  17.729  0.7655 -0.2333  0.0460
   77SOPE   H6X 6897   0.797   1.659  17.726  0.5720  0.3138  1.6565
   77SOPE   H6Y 6898   0.961   1.589  17.719  0.7757 -0.5093  2.2898
   77SOPE   C37 6899   0.927   1.777  17.604 -0.9038 -0.0946 -0.7840
   77SOPE   H7X 6900   1.037   1.792  17.600 -1.2337  2.7634 -1.2622
   77SOPE   H7Y 6901   0.877   1.876  17.615 -1.2472 -0.1272 -1.9457
   77SOPE   C38 6902   0.874   1.716  17.474 -0.1676  0.2228  0.7179
   77SOPE   H8X 6903   0.768   1.688  17.491 -0.4357  1.4142  1.0399
   77SOPE   H8Y 6904   0.927   1.618  17.466 -0.0918  0.2743  0.5736
   77SOPE   C39 6905   0.899   1.802  17.351  0.4567 -0.1052 -0.4813
   77SOPE   H9X 6906   0.959   1.890  17.382  1.8004 -0.4972 -1.8646
   77SOPE   H9Y 6907   0.804   1.834  17.303 -0.3620 -2.0126 -0.2237
   77SOPE  C310 6908   0.996   1.730  17.254  0.8092  0.0505 -0.6787
   77SOPE  H10X 6909   1.080   1.703  17.320 -0.2332  1.9153  1.5509
   77SOPE  H10Y 6910   1.055   1.792  17.183  3.2081 -0.3836  0.8199
   77SOPE  C311 6911   0.932   1.606  17.179  0.2905  0.1488  0.0816
   77SOPE  H11X 6912   0.832   1.614  17.131 -0.3201 -2.9211  0.6058
   77SOPE  H11Y 6913   0.919   1.520  17.248  2.7280 -0.5239 -0.1974
   77SOPE  C312 6914   1.031   1.557  17.073 -0.3978 -0.2781  0.0703
   77SOPE  H12X 6915   1.133   1.551  17.114 -0.6483 -0.5888  0.6604
   77SOPE  H12Y 6916   1.027   1.632  16.991 -2.6907 -1.5895 -1.1327
   77SOPE  C313 6917   0.983   1.420  17.015 -0.1375 -1.1048 -0.7315
   77SOPE  H13X 6918   0.878   1.421  16.979 -1.0563  1.0715  1.6922
   77SOPE  H13Y 6919   0.974   1.351  17.102 -1.1758 -0.5352 -0.3580
   77SOPE  C314 6920   1.090   1.366  16.930 -0.1615 -0.4749  0.4578
   77SOPE  H14X 6921   1.188   1.361  16.982  0.3612 -1.3833 -0.5575
   77SOPE  H14Y 6922   1.105   1.435  16.844 -0.4340 -0.2728  0.5723
   77SOPE  C315 6923   1.062   1.226  16.873 -0.0757 -0.2497  0.0631
   77SOPE  H15X 6924   0.984   1.240  16.795  0.3051  2.2383  0.0522
   77SOPE  H15Y 6925   1.016   1.162  16.951  3.3877 -1.8387  0.9946
   77SOPE  C316 6926   1.179   1.142  16.800  0.1719  0.0328 -0.8135
   77SOPE  H16X 6927   1.227   1.095  16.889 -1.9556  0.9389  0.9421
   77SOPE  H16Y 6928   1.255   1.212  16.761 -1.6323  2.0349 -0.9451
   77SOPE  C317 6929   1.134   1.035  16.706 -0.3089  0.2621 -0.1224
   77SOPE  H17X 6930   1.224   0.987  16.662 -0.6950 -0.1200 -0.5003
   77SOPE  H17Y 6931   1.070   1.063  16.620 -0.3424  1.5612  0.2906
   77SOPE  C318 6932   1.058   0.923  16.783  0.7715 -0.3786  0.0719
   77SOPE  H18X 6933   0.961   0.955  16.827  0.3814  0.1469 -1.1110
   77SOPE  H18Y 6934   1.119   0.897  16.872  0.7143 -2.0795 -0.3569
   77SOPE  H18Z 6935   1.043   0.835  16.717 -1.8174 -0.0757  0.1660
   78SOPE     N 6936   0.004   1.924  18.246  0.1799 -0.3672 -0.0186
   78SOPE   HN1 6937  -0.072   1.987  18.280  0.4629 -0.6310  1.1550
   78SOPE   HN2 6938  -0.038   1.830  18.233 -1.1497  0.2336 -0.2056
   78SOPE   HN3 6939   0.078   1.921  18.319  1.8515  0.0175 -1.6182
   78SOPE   C12 6940   0.065   1.989  18.117  0.1524  0.5661 -0.3492
   78SOPE  H12A 6941   0.138   1.918  18.073 -1.5958 -1.8704  0.4257
   78SOPE  H12B 6942   0.101   2.090  18.146  0.6466  0.5485 -0.9072
   78SOPE   C11 6943  -0.047   2.016  18.021 -0.5548 -0.5674 -0.1748
   78SOPE  H11A 6944  -0.001   2.076  17.939  0.6783 -2.0463 -0.6167
   78SOPE  H11B 6945  -0.119   2.083  18.073  0.4326 -0.8970  1.7019
   78SOPE     P 6946  -0.219   1.900  17.862  0.1512 -0.3192  0.1653
   78SOPE   O13 6947  -0.253   2.038  17.825 -0.8507  0.0512 -0.1674
   78SOPE   O14 6948  -0.335   1.816  17.896  0.2255 -0.3179 -0.0523
   78SOPE   O12 6949  -0.112   1.899  17.981  0.9636  0.6771 -0.8186
   78SOPE   O11 6950  -0.143   1.834  17.742  0.3336 -0.2812 -0.7727
   78SOPE    C1 6951  -0.016   1.881  17.698 -0.0086  0.5299  0.4374
   78SOPE    HA 6952   0.044   1.924  17.781 -0.7511  1.0800  0.7003
   78SOPE    HB 6953  -0.030   1.961  17.622 -1.7351  0.7787  0.9646
   78SOPE    C2 6954   0.060   1.765  17.631 -0.2703 -0.1848 -0.0595
   78SOPE    HS 6955   0.167   1.796  17.636  0.3788 -2.4007  0.8719
   78SOPE   O21 6956   0.010   1.750  17.497  0.2146 -0.3037  0.1535
   78SOPE   C21 6957   0.086   1.799  17.396 -0.2431 -0.0335  0.1746
   78SOPE   O22 6958   0.189   1.858  17.412  0.4772 -0.9306 -0.0480
   78SOPE   C22 6959   0.028   1.764  17.259 -0.3009 -0.4104  0.0675
   78SOPE   H2R 6960  -0.081   1.787  17.262 -0.1413  0.3106  1.2649
   78SOPE   H2S 6961   0.035   1.655  17.239 -4.1112 -0.4518 -2.0739
   78SOPE    C3 6962   0.064   1.639  17.716 -0.7545  0.0591 -0.5004
   78SOPE    HX 6963  -0.029   1.579  17.708 -0.0977 -0.8456 -1.8314
   78SOPE    HY 6964   0.091   1.656  17.822  1.4487 -3.2247 -0.3741
   78SOPE   O31 6965   0.177   1.557  17.676  0.0907  0.1314  0.1236
   78SOPE   C31 6966   0.147   1.457  17.586  0.0101 -0.6660  0.1724
   78SOPE   O32 6967   0.038   1.442  17.538 -0.4265  1.0646 -0.5652
   78SOPE   C32 6968   0.268   1.372  17.552  0.3029 -0.9204 -0.3043
   78SOPE   H2X 6969   0.262   1.282  17.618 -0.1546 -0.1326  0.7608
   78SOPE   H2Y 6970   0.353   1.441  17.564 -0.4769  0.3209 -1.6074
   78SOPE   C23 6971   0.081   1.849  17.138 -0.3732  0.0715  0.4975
   78SOPE   H3R 6972   0.186   1.823  17.112 -0.6865 -1.2212  0.4555
   78SOPE   H3S 6973   0.084   1.958  17.162  0.7492 -0.2050  1.7291
   78SOPE   C24 6974  -0.007   1.832  17.017  0.8683  0.8030  0.1776
   78SOPE   H4R 6975  -0.013   1.726  16.985  0.7844  0.8497  0.0415
   78SOPE   H4S 6976  -0.107   1.873  17.043  0.4620 -0.9079  1.4543
   78SOPE   C25 6977   0.034   1.909  16.893 -0.0288  0.3990 -0.5187
   78SOPE   H5R 6978   0.124   1.855  16.857  1.8432  2.6766  0.5425
   78SOPE   H5S 6979  -0.047   1.903  16.816 -0.2038 -2.3383 -0.2298
   78SOPE   C26 6980   0.072   2.055  16.912  0.1981 -0.4014 -0.3430
   78SOPE   H6R 6981  -0.026   2.107  16.907 -0.0603 -0.6374  1.6221
   78SOPE   H6S 6982   0.111   2.069  17.015  0.3639 -0.9968 -0.3233
   78SOPE   C27 6983   0.164   2.121  16.809  0.3954 -0.0118  0.0747
   78SOPE   H7R 6984   0.114   2.093  16.714  1.9511 -1.9985 -0.2335
   78SOPE   H7S 6985   0.166   2.230  16.829  0.1281 -0.1368  0.7973
   78SOPE   C28 6986   0.306   2.063  16.805  0.1812 -0.7136 -0.4008
   78SOPE   H8R 6987   0.355   2.099  16.898 -0.7687  0.2824 -0.2670
   78SOPE   H8S 6988   0.309   1.953  16.796  1.3022 -1.0594  2.8674
   78SOPE   C29 6989   0.370   2.121  16.679 -0.3148  0.4528  0.5133
   78SOPE   H91 6990   0.420   2.218  16.693 -0.3147  0.6645 -0.8604
   78SOPE  C210 6991   0.386   2.061  16.558 -0.0308 -0.5473  0.0532
   78SOPE  H101 6992   0.439   2.118  16.481 -1.0349  1.3462  0.7111
   78SOPE  C211 6993   0.347   1.923  16.525  0.3748 -0.2613  0.8043
   78SOPE  H11R 6994   0.321   1.861  16.614  1.0182  1.2336  2.0892
   78SOPE  H11S 6995   0.426   1.859  16.480 -0.5274 -1.3869  0.7652
   78SOPE  C212 6996   0.233   1.920  16.418 -0.4616 -0.1237  0.7478
   78SOPE  H12R 6997   0.149   1.967  16.474  0.6537 -1.2258  3.5363
   78SOPE  H12S 6998   0.205   1.815  16.394 -0.7394 -0.1520  1.1814
   78SOPE  C213 6999   0.270   1.992  16.283 -0.0013 -1.0083  0.4063
   78SOPE  H13R 7000   0.364   1.947  16.244  0.3861  0.5903 -0.6159
   78SOPE  H13S 7001   0.294   2.097  16.311  0.4939 -1.3155  1.1442
   78SOPE  C214 7002   0.167   1.988  16.175  0.1653  0.2594 -0.4511
   78SOPE  H14R 7003   0.070   2.022  16.219  1.0401 -0.5897  2.3066
   78SOPE  H14S 7004   0.158   1.889  16.126 -0.5151  0.5848 -0.9964
   78SOPE  C215 7005   0.207   2.087  16.066 -0.2788  0.3402  0.7644
   78SOPE  H15R 7006   0.307   2.058  16.026 -0.3884  1.3303 -0.2998
   78SOPE  H15S 7007   0.223   2.189  16.108  1.0921  0.0015  1.1248
   78SOPE  C216 7008   0.122   2.102  15.938 -0.6125 -0.9409 -0.2487
   78SOPE  H16R 7009   0.113   2.002  15.891  1.4385  0.0924 -3.2092
   78SOPE  H16S 7010   0.176   2.174  15.873 -0.7979 -0.3749  0.2199
   78SOPE  C217 7011  -0.017   2.155  15.960 -0.2038 -0.0920 -0.2947
   78SOPE  H17R 7012  -0.015   2.257  16.004 -0.4022  0.3798 -1.3521
   78SOPE  H17S 7013  -0.077   2.095  16.032  0.6142  0.5935  0.9932
   78SOPE  C218 7014  -0.093   2.170  15.829 -0.3612 -0.3001 -1.3032
   78SOPE  H18R 7015  -0.041   2.218  15.743 -0.1673  0.4921 -0.7528
   78SOPE  H18S 7016  -0.192   2.220  15.837  0.2825  0.7430  0.7914
   78SOPE  H18T 7017  -0.116   2.063  15.813  0.4184 -0.9482  1.4997
   78SOPE   C33 7018   0.247   1.318  17.408  0.0793  0.3699  0.7893
   78SOPE   H3X 7019   0.147   1.269  17.410 -0.7332  1.8886 -0.4149
   78SOPE   H3Y 7020   0.326   1.240  17.402 -0.9929 -0.7008  0.1015
   78SOPE   C34 7021   0.253   1.427  17.291 -0.2516  0.1939  0.0431
   78SOPE   H4X 7022   0.355   1.469  17.295 -0.2203  0.0311  1.5708
   78SOPE   H4Y 7023   0.187   1.509  17.327  0.5750 -0.1276  2.4617
   78SOPE   C35 7024   0.222   1.375  17.152  0.0759  0.7038 -0.4230
   78SOPE   H5X 7025   0.117   1.342  17.166  0.7070 -2.2482 -1.9070
   78SOPE   H5Y 7026   0.286   1.290  17.121 -0.9315 -0.9501  1.7798
   78SOPE   C36 7027   0.230   1.486  17.041  0.3243  0.7198 -0.4634
   78SOPE   H6X 7028   0.335   1.521  17.033 -0.0284  1.9686  0.1333
   78SOPE   H6Y 7029   0.156   1.567  17.063 -0.6593 -0.2612 -0.0450
   78SOPE   C37 7030   0.199   1.436  16.893 -0.2679  1.3699  0.6355
   78SOPE   H7X 7031   0.103   1.383  16.876  0.7197 -0.1974 -0.3607
   78SOPE   H7Y 7032   0.288   1.378  16.862 -0.3538  0.6812  1.6234
   78SOPE   C38 7033   0.194   1.559  16.805 -0.1178 -0.3769 -0.3913
   78SOPE   H8X 7034   0.289   1.615  16.820 -0.4436 -0.0690  0.5850
   78SOPE   H8Y 7035   0.117   1.631  16.839  1.1555  0.1287  1.5885
   78SOPE   C39 7036   0.176   1.530  16.659 -1.1292 -0.0440  0.4867
   78SOPE   H9X 7037   0.164   1.628  16.609 -0.4033  0.5174  1.3796
   78SOPE   H9Y 7038   0.096   1.454  16.647 -0.2800 -0.9641  0.4757
   78SOPE  C310 7039   0.306   1.464  16.600 -0.4173 -0.1277  0.2281
   78SOPE  H10X 7040   0.331   1.359  16.626  1.2489 -0.1508 -1.2337
   78SOPE  H10Y 7041   0.391   1.534  16.612  0.8395 -1.2529 -1.4279
   78SOPE  C311 7042   0.301   1.456  16.443 -0.0351  0.0841 -0.2124
   78SOPE  H11X 7043   0.267   1.556  16.408 -0.4917 -0.4545 -1.3674
   78SOPE  H11Y 7044   0.214   1.391  16.418 -0.2357 -0.0378  0.7713
   78SOPE  C312 7045   0.431   1.398  16.379  0.6608  0.1904  0.7131
   78SOPE  H12X 7046   0.447   1.289  16.399  1.6834  0.0261 -0.8603
   78SOPE  H12Y 7047   0.514   1.459  16.418  0.0532  2.1014 -0.8382
   78SOPE  C313 7048   0.427   1.409  16.229 -0.0530  0.4030  0.2576
   78SOPE  H13X 7049   0.428   1.517  16.200  1.0562  0.2028 -0.4875
   78SOPE  H13Y 7050   0.326   1.372  16.201  0.3010 -0.1017 -0.3761
   78SOPE  C314 7051   0.531   1.321  16.156  0.3762 -0.6160  0.9617
   78SOPE  H14X 7052   0.513   1.223  16.205 -2.1925 -1.9120 -2.1689
   78SOPE  H14Y 7053   0.637   1.347  16.178  1.2172 -3.0747  0.2157
   78SOPE  C315 7054   0.503   1.306  16.008 -0.1548 -1.0152 -0.2547
   78SOPE  H15X 7055   0.525   1.396  15.947 -0.9053  0.1780  1.1829
   78SOPE  H15Y 7056   0.400   1.276  15.979 -0.0406  0.2592 -2.0978
   78SOPE  C316 7057   0.589   1.180  15.962 -0.1483 -0.5878 -0.4237
   78SOPE  H16X 7058   0.574   1.171  15.852 -0.3024 -0.9169 -0.3748
   78SOPE  H16Y 7059   0.542   1.087  16.000  1.1562 -1.2441 -0.3789
   78SOPE  C317 7060   0.738   1.183  15.988  0.2367 -0.0924  0.0182
   78SOPE  H17X 7061   0.782   1.088  15.951  0.4585  0.1425 -0.3260
   78SOPE  H17Y 7062   0.773   1.193  16.093  0.6562  2.1630 -0.2761
   78SOPE  C318 7063   0.809   1.286  15.901  0.0853  0.1176 -0.1886
   78SOPE  H18X 7064   0.915   1.303  15.929 -0.0838  2.8724 -0.8945
   78SOPE  H18Y 7065   0.768   1.388  15.917  1.3147  0.9034 -1.7419
   78SOPE  H18Z 7066   0.805   1.267  15.792  2.4588  1.3555 -0.5731
   79SOPE     N 7067   2.591   2.214  22.185 -0.3752 -0.0035 -0.0023
   79SOPE   HN1 7068   2.600   2.280  22.265 -0.8083  0.5328 -0.3961
   79SOPE   HN2 7069   2.683   2.206  22.136 -0.3793 -1.2229  0.1615
   79SOPE   HN3 7070   2.520   2.255  22.122 -1.0448  0.8389  1.2554
   79SOPE   C12 7071   2.551   2.087  22.234 -0.3608 -0.6922 -0.8168
   79SOPE  H12A 7072   2.442   2.082  22.256 -0.3716 -0.5520 -0.8365
   79SOPE  H12B 7073   2.595   2.067  22.334 -2.2549  1.7648  0.6288
   79SOPE   C11 7074   2.613   1.979  22.149 -0.5052  0.3893  0.1822
   79SOPE  H11A 7075   2.607   1.880  22.201  0.2283 -0.4840 -1.3366
   79SOPE  H11B 7076   2.721   2.002  22.144 -0.6115  0.9009  0.2442
   79SOPE     P 7077   2.430   1.888  21.996 -0.5467  0.2513  0.3819
   79SOPE   O13 7078   2.375   1.940  21.870 -0.3860  0.0646  0.1421
   79SOPE   O14 7079   2.357   1.904  22.121  0.3004 -0.1002  0.1041
   79SOPE   O12 7080   2.567   1.975  22.013  0.7180 -0.0096 -0.5836
   79SOPE   O11 7081   2.479   1.738  21.975  0.2272 -0.2381  0.3637
   79SOPE    C1 7082   2.601   1.703  21.912  0.6446 -0.3118 -0.1046
   79SOPE    HA 7083   2.668   1.789  21.892  0.2175  0.4273  1.4996
   79SOPE    HB 7084   2.588   1.675  21.805  2.6746 -0.2541 -0.4031
   79SOPE    C2 7085   2.686   1.589  21.989  0.2444 -0.1081  0.8497
   79SOPE    HS 7086   2.770   1.560  21.922  0.1611 -0.0126  0.7022
   79SOPE   O21 7087   2.603   1.478  22.020  0.1700  0.4470  0.3901
   79SOPE   C21 7088   2.573   1.404  21.913 -0.1361  0.0369  0.3628
   79SOPE   O22 7089   2.623   1.413  21.802 -0.0860  0.6283  0.6513
   79SOPE   C22 7090   2.483   1.290  21.951 -0.5361 -0.0507 -0.4658
   79SOPE   H2R 7091   2.388   1.299  21.894 -1.7820  2.4905  1.8006
   79SOPE   H2S 7092   2.462   1.305  22.059  0.0057 -1.3630 -0.1614
   79SOPE    C3 7093   2.740   1.645  22.123  0.0255  0.6511 -0.2658
   79SOPE    HX 7094   2.645   1.677  22.171  0.9960  2.3107  0.6331
   79SOPE    HY 7095   2.796   1.740  22.109 -0.2887  0.6049 -2.1365
   79SOPE   O31 7096   2.809   1.538  22.194  0.4224  0.4461 -0.1555
   79SOPE   C31 7097   2.748   1.484  22.304 -0.6161  0.1482 -0.2473
   79SOPE   O32 7098   2.636   1.507  22.345 -0.1151  0.0456  0.6125
   79SOPE   C32 7099   2.840   1.379  22.364  0.3829  0.5648 -0.0097
   79SOPE   H2X 7100   2.910   1.358  22.281 -0.3649 -0.9518 -0.2926
   79SOPE   H2Y 7101   2.784   1.283  22.371  0.7911  0.0420 -2.8246
   79SOPE   C23 7102   2.561   1.162  21.921 -0.4745 -0.3059  0.5191
   79SOPE   H3R 7103   2.601   1.160  21.817  1.0748 -0.3860  1.0837
   79SOPE   H3S 7104   2.494   1.076  21.937 -1.4581  0.4971  0.7999
   79SOPE   C24 7105   2.680   1.139  22.017 -0.0023  0.7234  0.1407
   79SOPE   H4R 7106   2.749   1.060  21.981 -0.1803 -0.0301  1.3971
   79SOPE   H4S 7107   2.746   1.228  22.029  2.3431 -0.4722 -2.7231
   79SOPE   C25 7108   2.647   1.092  22.166  0.1191  0.1961  0.7492
   79SOPE   H5R 7109   2.741   1.078  22.224  0.0907 -1.6251  0.4169
   79SOPE   H5S 7110   2.587   1.169  22.219 -1.4871  0.3004 -1.1277
   79SOPE   C26 7111   2.571   0.952  22.175  0.2564 -0.4205 -0.0219
   79SOPE   H6R 7112   2.541   0.906  22.271 -1.7883 -1.3304 -1.0167
   79SOPE   H6S 7113   2.483   0.952  22.106  0.5776  2.0240 -0.5291
   79SOPE   C27 7114   2.656   0.843  22.112  0.0730  0.1536  0.0477
   79SOPE   H7R 7115   2.673   0.855  22.002 -1.9933  1.5077 -0.1709
   79SOPE   H7S 7116   2.760   0.848  22.151  0.3465 -2.5173 -0.0905
   79SOPE   C28 7117   2.598   0.708  22.130 -0.5384  0.3302  0.1875
   79SOPE   H8R 7118   2.576   0.684  22.236  0.4337 -0.7192  0.1765
   79SOPE   H8S 7119   2.504   0.689  22.075 -0.1060 -0.5195 -0.2695
   79SOPE   C29 7120   2.702   0.612  22.080 -0.2237 -0.8005 -0.1188
   79SOPE   H91 7121   2.712   0.599  21.972 -2.7748  0.5527 -0.6017
   79SOPE  C210 7122   2.783   0.548  22.155 -0.3701 -0.3350 -0.3846
   79SOPE  H101 7123   2.866   0.493  22.109  0.8683  1.8549 -0.9396
   79SOPE  C211 7124   2.804   0.548  22.308 -0.0573 -0.1327 -0.4418
   79SOPE  H11R 7125   2.776   0.447  22.347 -2.4190  0.6261 -0.0183
   79SOPE  H11S 7126   2.735   0.611  22.368  0.6294 -0.0420  0.2670
   79SOPE  C212 7127   2.948   0.580  22.348  0.0591  0.2452 -0.2955
   79SOPE  H12R 7128   2.990   0.675  22.309 -1.7757  0.3323 -2.2692
   79SOPE  H12S 7129   3.005   0.494  22.308  0.8699  0.4407  0.4066
   79SOPE  C213 7130   2.974   0.573  22.494  0.1901 -0.6206 -0.3204
   79SOPE  H13R 7131   2.923   0.482  22.534 -1.5963  0.1838 -0.6854
   79SOPE  H13S 7132   2.923   0.661  22.537 -0.1040 -1.5029  1.2150
   79SOPE  C214 7133   3.116   0.585  22.541 -0.7711 -0.2319  0.0171
   79SOPE  H14R 7134   3.181   0.647  22.475  1.8496 -0.8295  1.8528
   79SOPE  H14S 7135   3.165   0.485  22.536 -0.7321 -0.2488  0.6144
   79SOPE  C215 7136   3.122   0.642  22.684  0.2676 -0.2456 -0.4557
   79SOPE  H15R 7137   3.076   0.565  22.749 -1.2175  0.4785 -0.6033
   79SOPE  H15S 7138   3.059   0.734  22.685 -0.4087 -0.7080  0.2013
   79SOPE  C216 7139   3.264   0.654  22.729 -0.1833 -0.5894 -0.0141
   79SOPE  H16R 7140   3.274   0.697  22.831 -1.0477 -1.0935  0.3020
   79SOPE  H16S 7141   3.313   0.713  22.649 -0.8445 -0.5003 -0.3595
   79SOPE  C217 7142   3.345   0.522  22.745 -0.1004  0.3148 -0.0098
   79SOPE  H17R 7143   3.341   0.456  22.655 -1.6132  0.9158 -0.4078
   79SOPE  H17S 7144   3.275   0.476  22.818  0.2327  0.9274  0.7000
   79SOPE  C218 7145   3.476   0.514  22.826 -0.7800 -0.8548  0.5889
   79SOPE  H18R 7146   3.507   0.411  22.854  3.0136  0.1956  0.8748
   79SOPE  H18S 7147   3.460   0.580  22.914 -0.9459  1.4493 -1.0664
   79SOPE  H18T 7148   3.558   0.557  22.764 -1.1265 -0.1816  0.5813
   79SOPE   C33 7149   2.896   1.421  22.504  0.0278 -0.3094  0.6970
   79SOPE   H3X 7150   2.816   1.421  22.581 -0.9191  0.4601 -0.2712
   79SOPE   H3Y 7151   2.935   1.524  22.493 -0.6575  0.0301  1.3525
   79SOPE   C34 7152   3.003   1.327  22.553 -0.1381 -0.1619  0.7257
   79SOPE   H4X 7153   3.056   1.374  22.639 -0.6762 -1.4717  1.8174
   79SOPE   H4Y 7154   3.076   1.307  22.472 -0.0613  2.9116 -0.0859
   79SOPE   C35 7155   2.942   1.194  22.599  0.1041  0.8314  0.0974
   79SOPE   H5X 7156   2.888   1.142  22.517 -0.3253  2.4022 -0.6642
   79SOPE   H5Y 7157   2.869   1.212  22.681  0.6969 -0.7991  1.0086
   79SOPE   C36 7158   3.062   1.120  22.663  0.0224  0.9799 -0.3008
   79SOPE   H6X 7159   3.032   1.029  22.718  2.2295  0.5869  0.3507
   79SOPE   H6Y 7160   3.099   1.186  22.744  0.2263 -1.0303  1.3226
   79SOPE   C37 7161   3.177   1.081  22.571 -0.0102  0.9392 -0.4658
   79SOPE   H7X 7162   3.240   1.001  22.618 -0.9858 -0.4900 -1.5089
   79SOPE   H7Y 7163   3.235   1.173  22.546 -0.0628  1.3751  0.9361
   79SOPE   C38 7164   3.141   1.014  22.435  0.0841  0.2781  0.2019
   79SOPE   H8X 7165   3.087   1.095  22.382 -0.3748  0.9063  1.5884
   79SOPE   H8Y 7166   3.080   0.927  22.471  0.0982  0.1645 -0.0456
   79SOPE   C39 7167   3.252   0.953  22.341  0.1210 -0.2177  0.7000
   79SOPE   H9X 7168   3.310   0.872  22.392  1.6082  0.2751 -0.1384
   79SOPE   H9Y 7169   3.337   1.023  22.331 -1.5388  1.7654 -0.2621
   79SOPE  C310 7170   3.188   0.894  22.217  0.7451 -0.9837 -0.4145
   79SOPE  H10X 7171   3.150   0.993  22.184 -0.8487 -1.0781  1.0401
   79SOPE  H10Y 7172   3.104   0.823  22.231  1.9852 -2.4910 -0.3515
   79SOPE  C311 7173   3.292   0.832  22.119 -0.6056 -0.2429  0.0266
   79SOPE  H11X 7174   3.233   0.801  22.030 -1.7137 -0.3092  0.7639
   79SOPE  H11Y 7175   3.331   0.743  22.172 -0.2065 -0.3306 -0.4068
   79SOPE  C312 7176   3.396   0.929  22.062 -0.5161 -0.3506 -0.2475
   79SOPE  H12X 7177   3.457   0.972  22.143 -1.6926 -0.8428  0.9393
   79SOPE  H12Y 7178   3.339   1.013  22.015 -1.2327 -0.9782 -0.5301
   79SOPE  C313 7179   3.486   0.864  21.954  0.0317 -0.7627 -0.6322
   79SOPE  H13X 7180   3.419   0.821  21.877 -0.9140 -0.4037 -0.0272
   79SOPE  H13Y 7181   3.565   0.799  21.997  0.0148 -0.4124 -0.0531
   79SOPE  C314 7182   3.559   0.977  21.879 -0.0486  0.8855 -0.0269
   79SOPE  H14X 7183   3.650   0.933  21.835 -0.2091 -1.1391  1.5455
   79SOPE  H14Y 7184   3.591   1.057  21.949  2.9625  0.0899 -0.3663
   79SOPE  C315 7185   3.475   1.031  21.758 -0.8686 -0.3973  0.2707
   79SOPE  H15X 7186   3.367   1.013  21.781 -0.7654 -1.1856  0.1527
   79SOPE  H15Y 7187   3.495   0.974  21.665  2.0035 -0.6888  0.9905
   79SOPE  C316 7188   3.506   1.181  21.718  0.2440  0.0354 -0.2676
   79SOPE  H16X 7189   3.614   1.179  21.695  0.8393  1.4645  2.0499
   79SOPE  H16Y 7190   3.491   1.248  21.805 -2.7201  0.8341 -1.2745
   79SOPE  C317 7191   3.428   1.228  21.593  0.0420 -0.6849 -0.2903
   79SOPE  H17X 7192   3.320   1.220  21.617  0.3663 -1.5833  1.0055
   79SOPE  H17Y 7193   3.451   1.167  21.503  1.1111 -0.7894  0.0371
   79SOPE  C318 7194   3.467   1.367  21.554 -0.5612 -0.2337  0.5428
   79SOPE  H18X 7195   3.414   1.401  21.463 -1.7037 -1.0404  0.8955
   79SOPE  H18Y 7196   3.577   1.385  21.548 -0.5037 -0.7855 -0.2005
   79SOPE  H18Z 7197   3.436   1.435  21.636 -2.1828  1.4342 -1.3556
   80SOPE     N 7198   3.134   0.931  18.657 -0.1778 -0.0425  0.1802
   80SOPE   HN1 7199   3.118   0.958  18.756  0.8569 -2.8598  1.2136
   80SOPE   HN2 7200   3.227   0.885  18.666  1.3643  2.8153 -0.1948
   80SOPE   HN3 7201   3.154   1.020  18.608  2.7287 -1.5564 -1.7058
   80SOPE   C12 7202   3.023   0.845  18.607 -0.1493 -0.7762 -0.3728
   80SOPE  H12A 7203   2.940   0.919  18.615 -0.4187 -1.1216  0.0007
   80SOPE  H12B 7204   3.005   0.748  18.658 -0.2411 -2.3648 -3.2312
   80SOPE   C11 7205   3.038   0.803  18.460  0.5669  0.1921  0.5002
   80SOPE  H11A 7206   2.955   0.734  18.433 -0.5432  2.0377 -1.1015
   80SOPE  H11B 7207   3.126   0.735  18.457  1.0632  0.8530 -1.4311
   80SOPE     P 7208   2.932   0.993  18.314 -0.4093 -0.5538  0.3836
   80SOPE   O13 7209   2.962   1.139  18.327 -0.3102  0.1358  0.3900
   80SOPE   O14 7210   2.807   0.946  18.389  0.6099 -0.1131 -0.4738
   80SOPE   O12 7211   3.058   0.917  18.370 -0.3202  0.0090  0.2923
   80SOPE   O11 7212   2.925   0.961  18.161 -0.0293  0.1335 -0.0921
   80SOPE    C1 7213   2.953   0.838  18.097  0.7315  0.1439 -0.0767
   80SOPE    HA 7214   2.902   0.829  17.999  0.8262 -0.4757 -0.0683
   80SOPE    HB 7215   2.904   0.754  18.151  1.5598  0.2802  0.9274
   80SOPE    C2 7216   3.105   0.813  18.065  0.2790  0.9244  0.6204
   80SOPE    HS 7217   3.154   0.845  18.159 -1.3676 -0.5298  2.0402
   80SOPE   O21 7218   3.146   0.896  17.960  1.0143 -0.3267  0.0396
   80SOPE   C21 7219   3.275   0.923  17.960  0.0697  0.0459 -0.6164
   80SOPE   O22 7220   3.355   0.868  18.034 -0.8333 -0.0619  0.1875
   80SOPE   C22 7221   3.319   1.021  17.853 -0.0177  0.5936  0.6364
   80SOPE   H2R 7222   3.345   1.120  17.895  2.2488  0.1713  0.3361
   80SOPE   H2S 7223   3.240   1.039  17.777  2.6802  0.1465 -2.5278
   80SOPE    C3 7224   3.132   0.662  18.038  0.7257 -0.4287  0.4218
   80SOPE    HX 7225   3.087   0.609  18.124 -1.1667  0.6038  0.1130
   80SOPE    HY 7226   3.242   0.647  18.032  0.7581  0.1663 -1.0125
   80SOPE   O31 7227   3.053   0.625  17.925  0.7334  0.7739  0.0043
   80SOPE   C31 7228   3.126   0.605  17.813  0.2579  1.2143  0.0621
   80SOPE   O32 7229   3.244   0.581  17.815  0.0637 -0.4516 -0.1773
   80SOPE   C32 7230   3.043   0.598  17.683  0.6681 -0.1407  0.3433
   80SOPE   H2X 7231   2.997   0.698  17.667 -3.1884 -2.1968 -3.6799
   80SOPE   H2Y 7232   2.960   0.528  17.709  0.5687  0.2611  1.1660
   80SOPE   C23 7233   3.445   0.982  17.776  0.1765  0.2808 -0.0224
   80SOPE   H3R 7234   3.453   1.058  17.695 -2.1465  0.6018 -0.0163
   80SOPE   H3S 7235   3.427   0.882  17.732 -2.1005 -0.2233  1.8185
   80SOPE   C24 7236   3.570   0.982  17.860 -0.5261  0.2643  0.3221
   80SOPE   H4R 7237   3.566   1.068  17.929  1.0937  0.8316 -0.2400
   80SOPE   H4S 7238   3.569   0.890  17.923  1.4116  0.1876  0.2924
   80SOPE   C25 7239   3.697   0.979  17.781  0.5197 -0.4001 -0.0753
   80SOPE   H5R 7240   3.706   1.076  17.728 -2.4501  0.6379  1.1177
   80SOPE   H5S 7241   3.777   0.963  17.856 -0.5473  3.3474  2.1093
   80SOPE   C26 7242   3.710   0.863  17.675  0.0853  0.1800 -0.5262
   80SOPE   H6R 7243   3.687   0.775  17.737  1.8394 -0.5964 -0.9184
   80SOPE   H6S 7244   3.623   0.864  17.606 -2.1735 -0.8217  2.1280
   80SOPE   C27 7245   3.846   0.836  17.612  0.1964  0.1159 -0.2245
   80SOPE   H7R 7246   3.903   0.929  17.594 -2.6167  1.7796 -1.1531
   80SOPE   H7S 7247   3.898   0.787  17.697 -0.3781  0.0019  0.0669
   80SOPE   C28 7248   3.824   0.726  17.507  0.7314  0.3876 -0.0493
   80SOPE   H8R 7249   3.925   0.695  17.475 -0.1711 -1.0197 -1.6968
   80SOPE   H8S 7250   3.772   0.635  17.543  0.6739  0.5627  0.3204
   80SOPE   C29 7251   3.742   0.787  17.396  0.2124  0.3952  0.0679
   80SOPE   H91 7252   3.633   0.780  17.405  0.2629 -2.4746 -0.5295
   80SOPE  C210 7253   3.779   0.854  17.288 -0.1142 -0.0127  0.6968
   80SOPE  H101 7254   3.696   0.900  17.233  0.5358  0.9623  0.5002
   80SOPE  C211 7255   3.923   0.893  17.263 -0.6211 -0.2298  0.1305
   80SOPE  H11R 7256   3.986   0.906  17.353  1.8047  1.3446 -1.6641
   80SOPE  H11S 7257   3.917   0.999  17.228 -1.9536 -0.4897 -0.4823
   80SOPE  C212 7258   3.983   0.800  17.155 -0.0242 -0.0721 -0.5841
   80SOPE  H12R 7259   3.983   0.701  17.205 -2.2825 -0.2317 -0.7811
   80SOPE  H12S 7260   4.089   0.832  17.150 -0.0256  0.3641  1.2987
   80SOPE  C213 7261   3.930   0.804  17.017 -0.1582 -0.2202  0.2063
   80SOPE  H13R 7262   3.927   0.908  16.979 -1.7968 -0.0752  0.6283
   80SOPE  H13S 7263   3.822   0.776  17.013 -0.8608  2.1453  1.0299
   80SOPE  C214 7264   4.015   0.728  16.913  0.3715  0.2121 -0.9008
   80SOPE  H14R 7265   4.047   0.630  16.953 -2.6159  0.3483  2.3363
   80SOPE  H14S 7266   4.106   0.790  16.899 -0.1005  1.5187  1.2221
   80SOPE  C215 7267   3.941   0.708  16.782 -0.5086 -0.3007 -0.3259
   80SOPE  H15R 7268   4.008   0.686  16.696 -1.2331 -1.4474 -0.6257
   80SOPE  H15S 7269   3.871   0.792  16.766 -1.8158 -1.2628  0.1756
   80SOPE  C216 7270   3.842   0.588  16.778 -0.1623 -0.2718 -0.3641
   80SOPE  H16R 7271   3.785   0.599  16.684 -1.5673 -0.9354  0.3719
   80SOPE  H16S 7272   3.771   0.608  16.861  1.6918  1.8080  0.8427
   80SOPE  C217 7273   3.903   0.450  16.779 -0.3324  0.2537  0.5150
   80SOPE  H17R 7274   3.940   0.424  16.881 -1.1283 -0.1025  0.7283
   80SOPE  H17S 7275   3.985   0.441  16.705  0.1237 -2.0644  1.1976
   80SOPE  C218 7276   3.801   0.340  16.752  0.2238 -0.1175  0.2391
   80SOPE  H18R 7277   3.857   0.245  16.765  0.2610 -0.5120 -2.3527
   80SOPE  H18S 7278   3.767   0.334  16.647 -1.9912 -0.6338  0.9433
   80SOPE  H18T 7279   3.707   0.352  16.810 -0.4893  2.6329 -1.2775
   80SOPE   C33 7280   3.118   0.550  17.555 -0.2683 -0.4365  0.4092
   80SOPE   H3X 7281   3.046   0.519  17.476  0.5966 -1.0447 -0.1628
   80SOPE   H3Y 7282   3.176   0.456  17.572 -1.4931 -1.5100 -1.0252
   80SOPE   C34 7283   3.219   0.651  17.498 -0.1859 -0.0473 -0.5830
   80SOPE   H4X 7284   3.287   0.685  17.579 -1.9001  3.3296 -0.3827
   80SOPE   H4Y 7285   3.162   0.743  17.475  1.0439  0.5875 -1.1862
   80SOPE   C35 7286   3.283   0.591  17.379 -0.1419  0.7858  0.2562
   80SOPE   H5X 7287   3.352   0.670  17.345 -1.3689  1.4706 -0.7149
   80SOPE   H5Y 7288   3.208   0.572  17.299  1.6179 -1.7787 -0.9070
   80SOPE   C36 7289   3.366   0.464  17.398 -0.5533 -0.6381 -0.1640
   80SOPE   H6X 7290   3.304   0.379  17.434 -0.9811  1.1362  3.8063
   80SOPE   H6Y 7291   3.449   0.473  17.472 -0.4563  0.6509 -0.4077
   80SOPE   C37 7292   3.434   0.412  17.267 -0.1252  0.4769  0.7861
   80SOPE   H7X 7293   3.357   0.417  17.187 -1.9623  1.8875  2.5421
   80SOPE   H7Y 7294   3.456   0.304  17.277  0.8211  0.7917  2.5386
   80SOPE   C38 7295   3.563   0.491  17.234  0.6587  0.5178  0.7790
   80SOPE   H8X 7296   3.602   0.546  17.322 -0.8590 -0.2669  1.9863
   80SOPE   H8Y 7297   3.541   0.562  17.152  0.5306  1.3723  1.5332
   80SOPE   C39 7298   3.680   0.404  17.182  0.1787 -0.4969  0.2082
   80SOPE   H9X 7299   3.755   0.481  17.155 -0.1457  0.5875  2.1386
   80SOPE   H9Y 7300   3.659   0.346  17.090  0.1668 -0.5079  0.2175
   80SOPE  C310 7301   3.749   0.306  17.282  0.1442  0.0304  0.3492
   80SOPE  H10X 7302   3.700   0.208  17.263 -3.0854  1.6783 -0.6626
   80SOPE  H10Y 7303   3.730   0.347  17.383 -0.0103  0.4017  0.1718
   80SOPE  C311 7304   3.899   0.287  17.267 -0.3506 -0.2973  0.7576
   80SOPE  H11X 7305   3.928   0.264  17.372  0.5999  1.8250  1.0230
   80SOPE  H11Y 7306   3.936   0.387  17.236 -0.0174 -0.5858  0.2281
   80SOPE  C312 7307   3.929   0.168  17.173 -0.5465  0.7018  0.0182
   80SOPE  H12X 7308   3.864   0.172  17.083  1.3194  1.8397 -1.3724
   80SOPE  H12Y 7309   3.911   0.083  17.241  0.2071  0.7724  0.3128
   80SOPE  C313 7310   4.080   0.168  17.125 -0.0210 -0.1912 -0.2431
   80SOPE  H13X 7311   4.096   0.070  17.076  1.1951  0.2326 -0.7360
   80SOPE  H13Y 7312   4.150   0.169  17.211  0.0572 -1.0413 -0.2938
   80SOPE  C314 7313   4.111   0.281  17.033  0.7299 -0.0061  0.8345
   80SOPE  H14X 7314   4.083   0.383  17.068  2.8707  1.6796 -1.9288
   80SOPE  H14Y 7315   4.048   0.273  16.942 -1.7812  4.0923  1.9299
   80SOPE  C315 7316   4.256   0.284  16.977  0.7639  0.2466 -0.1052
   80SOPE  H15X 7317   4.284   0.180  16.951 -0.5216  0.3877 -2.3248
   80SOPE  H15Y 7318   4.317   0.319  17.063 -1.1635 -0.3150  1.5939
   80SOPE  C316 7319   4.279   0.375  16.855  0.0681 -0.3311 -0.0387
   80SOPE  H16X 7320   4.250   0.480  16.872 -0.6213 -0.3567 -0.9824
   80SOPE  H16Y 7321   4.214   0.331  16.776  0.2554 -0.4375 -0.1336
   80SOPE  C317 7322   4.432   0.373  16.817  0.2671 -0.1932  0.6527
   80SOPE  H17X 7323   4.482   0.399  16.913  1.3222 -0.7183  0.2604
   80SOPE  H17Y 7324   4.460   0.451  16.742  2.1484 -0.4373  1.0438
   80SOPE  C318 7325   4.482   0.240  16.765  0.9329  0.3791  0.2857
   80SOPE  H18X 7326   4.588   0.237  16.732  1.0001  0.0492  0.5339
   80SOPE  H18Y 7327   4.419   0.197  16.685  0.3729  2.1151 -0.2683
   80SOPE  H18Z 7328   4.479   0.167  16.848 -0.5099  0.1440  0.0412
   81SOPE     N 7329   0.584   2.078  23.940 -0.0833 -0.5286  0.3973
   81SOPE   HN1 7330   0.632   2.154  23.888 -1.0836 -1.8068 -2.6337
   81SOPE   HN2 7331   0.545   2.019  23.863 -1.3022  0.2832  0.3569
   81SOPE   HN3 7332   0.506   2.112  24.001  1.1386 -0.8583  2.2013
   81SOPE   C12 7333   0.683   2.003  24.021  0.1725  0.8676  0.7358
   81SOPE  H12A 7334   0.732   2.060  24.102 -0.5305 -1.5314  3.0039
   81SOPE  H12B 7335   0.764   1.978  23.949  0.5617 -0.7070  1.6762
   81SOPE   C11 7336   0.627   1.874  24.070  0.8844  0.0088  0.0895
   81SOPE  H11A 7337   0.713   1.807  24.094 -0.8654 -1.8218  1.5459
   81SOPE  H11B 7338   0.580   1.827  23.980 -1.4046  0.6263  0.9151
   81SOPE     P 7339   0.566   1.849  24.316  0.0376  0.2838 -0.1275
   81SOPE   O13 7340   0.642   1.956  24.386  0.0494  1.2154  0.3141
   81SOPE   O14 7341   0.633   1.714  24.308  0.3072  0.0835 -0.3936
   81SOPE   O12 7342   0.531   1.903  24.171 -0.0647  0.5696  0.5123
   81SOPE   O11 7343   0.425   1.828  24.390 -0.1358  0.4776  0.1980
   81SOPE    C1 7344   0.308   1.793  24.322 -0.4521  0.5133 -0.2467
   81SOPE    HA 7345   0.261   1.733  24.403  1.4857  0.2374  0.7353
   81SOPE    HB 7346   0.325   1.727  24.234 -1.8102  0.0062 -0.1609
   81SOPE    C2 7347   0.203   1.907  24.298 -0.2191 -0.1079  0.1463
   81SOPE    HS 7348   0.254   1.980  24.233  0.1940 -0.7347 -0.2434
   81SOPE   O21 7349   0.160   1.950  24.429  0.0499 -0.1550  0.0326
   81SOPE   C21 7350   0.213   2.062  24.476 -0.4241 -0.0048 -0.0349
   81SOPE   O22 7351   0.295   2.126  24.416  0.1696 -0.4195  0.1752
   81SOPE   C22 7352   0.186   2.085  24.626 -0.5158 -0.4200  0.1389
   81SOPE   H2R 7353   0.284   2.122  24.663 -0.7153  0.7896 -0.4804
   81SOPE   H2S 7354   0.162   1.985  24.667 -1.4998 -0.6236 -0.8937
   81SOPE    C3 7355   0.082   1.854  24.220  1.0183 -0.2724 -0.2672
   81SOPE    HX 7356   0.054   1.749  24.243 -0.0302  0.2978  1.1901
   81SOPE    HY 7357   0.118   1.843  24.116  0.5502 -0.1142 -0.4437
   81SOPE   O31 7358  -0.032   1.942  24.236 -0.0298  0.1367 -0.7693
   81SOPE   C31 7359  -0.053   2.027  24.138  0.2352  0.5523 -0.1160
   81SOPE   O32 7360   0.007   2.033  24.032  0.1998  0.2670 -0.3514
   81SOPE   C32 7361  -0.183   2.102  24.178 -0.3026 -0.1223 -0.2748
   81SOPE   H2X 7362  -0.182   2.128  24.286 -1.8111  0.9527 -0.4964
   81SOPE   H2Y 7363  -0.268   2.031  24.164  0.0918 -0.8521  0.8805
   81SOPE   C23 7364   0.062   2.174  24.645 -0.0576 -0.0584  1.0883
   81SOPE   H3R 7365   0.083   2.272  24.597 -1.5773 -0.3958 -0.3525
   81SOPE   H3S 7366   0.038   2.196  24.752  0.1118 -0.9580  1.3182
   81SOPE   C24 7367  -0.075   2.128  24.582 -0.0211  0.0498 -0.2423
   81SOPE   H4R 7368  -0.054   2.107  24.474  1.5607  3.4111 -0.7341
   81SOPE   H4S 7369  -0.105   2.040  24.643 -2.2428  1.0888  0.2572
   81SOPE   C25 7370  -0.202   2.222  24.580  0.1715 -0.4396 -0.1523
   81SOPE   H5R 7371  -0.270   2.179  24.504 -0.9022  0.1169  0.4705
   81SOPE   H5S 7372  -0.259   2.226  24.675  2.0271 -0.7284  1.0337
   81SOPE   C26 7373  -0.165   2.364  24.530  0.3816 -0.0411  0.2013
   81SOPE   H6R 7374  -0.093   2.406  24.603 -0.0857  1.5583 -0.2172
   81SOPE   H6S 7375  -0.113   2.356  24.432  1.5986  1.2520  0.7202
   81SOPE   C27 7376  -0.288   2.459  24.518 -0.5828  0.4460  0.4128
   81SOPE   H7R 7377  -0.354   2.445  24.430  0.2689  2.1325 -0.5443
   81SOPE   H7S 7378  -0.344   2.454  24.614  2.3271  0.8378  2.2868
   81SOPE   C28 7379  -0.239   2.603  24.512 -0.4708  0.0666  0.2395
   81SOPE   H8R 7380  -0.321   2.667  24.550 -0.8350  0.0716 -0.5251
   81SOPE   H8S 7381  -0.158   2.627  24.584  0.1753  0.6258 -0.6486
   81SOPE   C29 7382  -0.180   2.638  24.382 -0.7401 -0.0239  0.1326
   81SOPE   H91 7383  -0.205   2.570  24.299 -1.0241  0.5381 -0.2507
   81SOPE  C210 7384  -0.105   2.748  24.361 -1.2493 -0.0522 -0.5485
   81SOPE  H101 7385  -0.061   2.753  24.260 -1.1719  2.8097 -0.4503
   81SOPE  C211 7386  -0.052   2.864  24.447 -0.1916 -0.2562 -0.1908
   81SOPE  H11R 7387   0.055   2.837  24.460 -0.6831 -0.7464  4.3952
   81SOPE  H11S 7388  -0.105   2.869  24.544 -1.7284  3.0454 -1.0739
   81SOPE  C212 7389  -0.040   3.003  24.390 -0.0230 -0.5376  0.0663
   81SOPE  H12R 7390  -0.023   3.063  24.482 -1.3699 -0.7111  0.4439
   81SOPE  H12S 7391  -0.139   3.035  24.351  0.4470 -0.3427 -1.0168
   81SOPE  C213 7392   0.077   3.030  24.292 -1.0881  0.2229 -0.0526
   81SOPE  H13R 7393   0.069   2.959  24.207 -1.4764  1.1508 -0.8132
   81SOPE  H13S 7394   0.168   3.003  24.349  0.3337  1.0306 -1.8477
   81SOPE  C214 7395   0.089   3.181  24.247  0.4408 -0.4641  0.4851
   81SOPE  H14R 7396  -0.003   3.213  24.194  2.5250  0.5462 -2.8690
   81SOPE  H14S 7397   0.174   3.202  24.178  0.7421  2.7959  1.6794
   81SOPE  C215 7398   0.104   3.280  24.362 -0.0100  0.0670 -0.1405
   81SOPE  H15R 7399   0.006   3.274  24.415  0.3727  1.5051  0.7917
   81SOPE  H15S 7400   0.114   3.382  24.319 -0.0958 -0.2573 -0.9451
   81SOPE  C216 7401   0.205   3.254  24.471 -0.1404  0.1051 -0.6188
   81SOPE  H16R 7402   0.308   3.247  24.432  0.3333 -0.2717  0.6603
   81SOPE  H16S 7403   0.176   3.161  24.525 -1.6070  1.1746  0.5172
   81SOPE  C217 7404   0.217   3.363  24.575  0.0026  0.0018  0.2810
   81SOPE  H17R 7405   0.118   3.376  24.622  0.5041  1.6831  0.9574
   81SOPE  H17S 7406   0.235   3.458  24.520  1.2915  1.1799  2.5925
   81SOPE  C218 7407   0.326   3.343  24.682 -0.3130  0.6593 -0.1081
   81SOPE  H18R 7408   0.426   3.369  24.640 -0.4896  2.1914  0.3607
   81SOPE  H18S 7409   0.333   3.233  24.699  0.8484  0.9829  1.6845
   81SOPE  H18T 7410   0.311   3.396  24.778 -3.0110 -0.4385  0.1713
   81SOPE   C33 7411  -0.207   2.222  24.087 -0.4234 -0.3827  0.2846
   81SOPE   H3X 7412  -0.188   2.186  23.984  2.8361 -1.3522  1.1012
   81SOPE   H3Y 7413  -0.130   2.296  24.118  0.3320 -0.2199 -1.8183
   81SOPE   C34 7414  -0.348   2.281  24.115 -0.0850  0.0377  0.1088
   81SOPE   H4X 7415  -0.351   2.301  24.225  3.3303 -4.7811  1.3795
   81SOPE   H4Y 7416  -0.427   2.206  24.092  0.4886 -0.8657  1.0147
   81SOPE   C35 7417  -0.367   2.412  24.036  0.3375 -0.2875  0.0313
   81SOPE   H5X 7418  -0.367   2.401  23.926 -0.6843 -2.0037  0.1541
   81SOPE   H5Y 7419  -0.278   2.475  24.055  0.2581 -0.2789  0.3855
   81SOPE   C36 7420  -0.493   2.491  24.062  0.1581  0.0345  0.3823
   81SOPE   H6X 7421  -0.574   2.421  24.030 -0.7164  0.8063  0.8858
   81SOPE   H6Y 7422  -0.513   2.583  24.003 -1.8635 -0.1851  0.6506
   81SOPE   C37 7423  -0.507   2.525  24.212  0.0140 -0.0644  0.1747
   81SOPE   H7X 7424  -0.412   2.548  24.265  0.3712  1.6450 -1.0953
   81SOPE   H7Y 7425  -0.547   2.431  24.256 -0.4485  0.3038  0.5590
   81SOPE   C38 7426  -0.600   2.641  24.241  0.0005  0.1779  1.2037
   81SOPE   H8X 7427  -0.667   2.635  24.329 -2.5434 -0.5209 -0.6338
   81SOPE   H8Y 7428  -0.678   2.650  24.162  1.0524 -0.6234  0.0338
   81SOPE   C39 7429  -0.532   2.775  24.250 -0.1985 -0.0405 -0.2988
   81SOPE   H9X 7430  -0.468   2.792  24.162  0.3461 -4.1781 -0.9319
   81SOPE   H9Y 7431  -0.470   2.765  24.342  0.9927 -0.7141 -1.1506
   81SOPE  C310 7432  -0.649   2.883  24.243  0.0126 -0.6906 -0.3927
   81SOPE  H10X 7433  -0.733   2.860  24.313 -0.9055  1.6826 -0.6472
   81SOPE  H10Y 7434  -0.696   2.867  24.143  0.2708 -0.5139 -0.5430
   81SOPE  C311 7435  -0.610   3.033  24.268 -0.4124 -0.2607 -0.1815
   81SOPE  H11X 7436  -0.534   3.069  24.196  0.4728 -1.8705 -0.0829
   81SOPE  H11Y 7437  -0.565   3.027  24.370  0.2631  1.9564 -0.2826
   81SOPE  C312 7438  -0.732   3.132  24.252  0.4999 -0.4570  1.2627
   81SOPE  H12X 7439  -0.725   3.219  24.321  2.6666  0.2164  0.2704
   81SOPE  H12Y 7440  -0.815   3.070  24.294  0.2318 -1.8029 -1.0597
   81SOPE  C313 7441  -0.758   3.178  24.107  0.6431  0.3682  0.1099
   81SOPE  H13X 7442  -0.867   3.177  24.085  0.7223  1.0233 -0.3491
   81SOPE  H13Y 7443  -0.710   3.107  24.037  0.6686 -0.1876  0.6840
   81SOPE  C314 7444  -0.697   3.317  24.076  0.3465 -0.4998  0.1990
   81SOPE  H14X 7445  -0.689   3.322  23.965  1.1902 -0.9459  0.2363
   81SOPE  H14Y 7446  -0.592   3.312  24.112  0.6956 -2.3009 -0.9402
   81SOPE  C315 7447  -0.781   3.440  24.132 -0.0745  0.5299  0.0396
   81SOPE  H15X 7448  -0.716   3.527  24.112  1.2017 -0.8112 -2.0263
   81SOPE  H15Y 7449  -0.792   3.431  24.243  1.1243 -3.8946 -0.0079
   81SOPE  C316 7450  -0.915   3.457  24.067 -0.6880  0.2789  0.3553
   81SOPE  H16X 7451  -0.969   3.360  24.056  0.2686 -0.2194 -0.0747
   81SOPE  H16Y 7452  -0.894   3.481  23.961  0.3504 -1.4555  0.1315
   81SOPE  C317 7453  -0.987   3.568  24.142 -0.0495  0.7471 -0.2111
   81SOPE  H17X 7454  -0.940   3.664  24.111  0.9019 -0.5367 -2.9992
   81SOPE  H17Y 7455  -0.973   3.546  24.250  1.2576  0.3770 -0.4435
   81SOPE  C318 7456  -1.133   3.577  24.111 -0.3844  0.0911 -0.0148
   81SOPE  H18X 7457  -1.191   3.485  24.135  1.1259 -0.7474  0.5886
   81SOPE  H18Y 7458  -1.146   3.610  24.006 -0.6413  2.1004  0.6134
   81SOPE  H18Z 7459  -1.174   3.659  24.172 -0.9565 -2.1747  2.8826
   82SOPE     N 7460   1.847   1.890  19.590 -0.5364 -0.0934  0.0679
   82SOPE   HN1 7461   1.814   1.988  19.602 -0.0190  0.2261 -1.0051
   82SOPE   HN2 7462   1.770   1.824  19.568 -0.4120 -0.6686  1.2184
   82SOPE   HN3 7463   1.923   1.860  19.656 -0.2592 -1.3724 -0.7953
   82SOPE   C12 7464   1.926   1.881  19.462  0.0396  0.2279 -0.3807
   82SOPE  H12A 7465   1.861   1.923  19.381 -0.4633  0.5748  0.1965
   82SOPE  H12B 7466   1.942   1.775  19.434 -0.9524  0.2245 -1.0223
   82SOPE   C11 7467   2.061   1.948  19.467 -0.6043 -0.0574 -0.0246
   82SOPE  H11A 7468   2.103   1.953  19.364 -1.7907 -0.4758 -0.5457
   82SOPE  H11B 7469   2.131   1.892  19.532 -2.7181 -2.6109  0.2541
   82SOPE     P 7470   2.147   2.190  19.472  0.5346  0.5443  0.3189
   82SOPE   O13 7471   2.113   2.214  19.325  0.3318  0.7059 -0.7257
   82SOPE   O14 7472   2.288   2.153  19.515 -0.1377 -0.9192  0.0769
   82SOPE   O12 7473   2.049   2.081  19.512  0.4897  0.0347 -0.5381
   82SOPE   O11 7474   2.106   2.311  19.556  0.2835  0.1087 -0.0599
   82SOPE    C1 7475   1.985   2.317  19.627  1.0653  0.1105 -0.2439
   82SOPE    HA 7476   1.989   2.254  19.718 -0.0937  2.8642  1.8798
   82SOPE    HB 7477   1.900   2.272  19.571  0.9340 -0.4038  0.3598
   82SOPE    C2 7478   1.928   2.456  19.653 -0.6092  0.4095 -0.1448
   82SOPE    HS 7479   1.818   2.452  19.641 -1.0675  3.7487  1.7905
   82SOPE   O21 7480   1.979   2.551  19.557 -0.0603 -0.1443  0.5342
   82SOPE   C21 7481   1.922   2.556  19.444  0.4917 -0.2316  0.8679
   82SOPE   O22 7482   1.826   2.490  19.410  0.3801 -0.0601  0.1439
   82SOPE   C22 7483   1.979   2.678  19.367 -0.1516  0.0163  0.6419
   82SOPE   H2R 7484   2.075   2.706  19.414 -0.8973  0.8599  1.7048
   82SOPE   H2S 7485   1.903   2.758  19.385 -1.2134 -1.0914  1.2830
   82SOPE    C3 7486   1.969   2.502  19.792 -0.3808  0.5746 -0.3860
   82SOPE    HX 7487   2.079   2.497  19.808 -0.6295  0.0557  1.3969
   82SOPE    HY 7488   1.934   2.414  19.851  1.0266 -2.3551 -3.5656
   82SOPE   O31 7489   1.912   2.622  19.848  0.3996  0.1756  0.0598
   82SOPE   C31 7490   1.991   2.732  19.838 -0.3715 -0.2279 -0.4983
   82SOPE   O32 7491   2.106   2.725  19.794  0.5660 -0.0072  0.4210
   82SOPE   C32 7492   1.914   2.856  19.885  0.0599 -0.0093  0.1151
   82SOPE   H2X 7493   1.858   2.848  19.981  1.0932  3.0862  1.0726
   82SOPE   H2Y 7494   1.844   2.888  19.805 -0.0169 -1.3393 -0.3876
   82SOPE   C23 7495   2.002   2.650  19.213 -0.2233 -0.8898  0.2406
   82SOPE   H3R 7496   1.928   2.576  19.177 -1.4316  0.4462 -0.1221
   82SOPE   H3S 7497   2.100   2.603  19.192  1.2083  1.5725  0.9052
   82SOPE   C24 7498   1.998   2.778  19.120  0.6430  0.6154  0.3812
   82SOPE   H4R 7499   1.996   2.740  19.016  0.6309 -0.1714  0.6623
   82SOPE   H4S 7500   1.899   2.828  19.113  0.5035  0.1683 -1.1820
   82SOPE   C25 7501   2.112   2.875  19.149  0.0570  0.8045  0.3191
   82SOPE   H5R 7502   2.096   2.939  19.239 -0.3026  1.9113 -0.4994
   82SOPE   H5S 7503   2.194   2.808  19.182 -0.9173 -1.7761 -2.0562
   82SOPE   C26 7504   2.157   2.955  19.033 -0.9125 -0.2288 -0.5972
   82SOPE   H6R 7505   2.167   2.893  18.942 -2.0391 -0.0597 -0.8420
   82SOPE   H6S 7506   2.084   3.035  19.010  0.6393  1.4110 -0.1151
   82SOPE   C27 7507   2.295   3.019  19.064 -0.1535  0.6409  0.2779
   82SOPE   H7R 7508   2.287   3.071  19.162 -0.7222 -1.1555  1.2404
   82SOPE   H7S 7509   2.372   2.941  19.084 -0.7350  0.3002  1.2885
   82SOPE   C28 7510   2.336   3.098  18.939  0.6757  0.0317  0.5125
   82SOPE   H8R 7511   2.329   3.032  18.850  2.7039 -0.8736  0.9704
   82SOPE   H8S 7512   2.261   3.178  18.922 -1.1182 -1.9137 -1.4834
   82SOPE   C29 7513   2.476   3.154  18.942  0.2502 -0.5406 -0.3051
   82SOPE   H91 7514   2.558   3.082  18.947 -0.1464 -1.0261 -0.6664
   82SOPE  C210 7515   2.509   3.289  18.923 -0.0024 -0.2785 -0.5274
   82SOPE  H101 7516   2.615   3.318  18.922 -0.4479  1.3986 -0.8426
   82SOPE  C211 7517   2.417   3.406  18.903 -0.0588  0.0258  0.3012
   82SOPE  H11R 7518   2.354   3.401  18.812 -0.6827  0.4900  0.7018
   82SOPE  H11S 7519   2.468   3.504  18.901 -0.9338  0.5751  2.1578
   82SOPE  C212 7520   2.320   3.437  19.020 -0.0241  0.2404  0.3313
   82SOPE  H12R 7521   2.254   3.349  19.034  0.7566 -0.7926 -1.9899
   82SOPE  H12S 7522   2.252   3.524  19.003  0.2131  0.4712  0.5437
   82SOPE  C213 7523   2.383   3.484  19.145 -0.6825  0.9554 -0.1033
   82SOPE  H13R 7524   2.442   3.576  19.128 -0.0957  0.3907 -1.2304
   82SOPE  H13S 7525   2.453   3.403  19.176  0.9925  2.3250 -0.1778
   82SOPE  C214 7526   2.301   3.524  19.261 -0.6250 -0.5466 -0.0750
   82SOPE  H14R 7527   2.367   3.548  19.347 -2.8562  1.7729  1.1195
   82SOPE  H14S 7528   2.241   3.440  19.301  0.2577  0.1120  2.8659
   82SOPE  C215 7529   2.207   3.643  19.244 -0.6554  0.1284 -0.3333
   82SOPE  H15R 7530   2.136   3.613  19.164 -0.0354  0.6947 -1.1095
   82SOPE  H15S 7531   2.259   3.738  19.218 -1.2240  1.1305  1.9724
   82SOPE  C216 7532   2.105   3.664  19.370 -0.2709 -0.2957  0.4726
   82SOPE  H16R 7533   2.053   3.569  19.392 -1.8431  0.7430  1.4651
   82SOPE  H16S 7534   2.029   3.737  19.332  1.4739  1.5285  0.2995
   82SOPE  C217 7535   2.169   3.716  19.499  0.6228  0.0681  0.1899
   82SOPE  H17R 7536   2.226   3.807  19.470 -1.3076  1.7656  1.4031
   82SOPE  H17S 7537   2.237   3.646  19.553 -0.4454 -0.9352  0.2687
   82SOPE  C218 7538   2.062   3.755  19.604 -0.4442  0.5061 -0.0600
   82SOPE  H18R 7539   2.008   3.661  19.627 -0.9604  1.2585  2.0212
   82SOPE  H18S 7540   1.998   3.838  19.567  0.5106  0.1358 -2.7657
   82SOPE  H18T 7541   2.113   3.800  19.692 -0.5431 -0.6071  0.5841
   82SOPE   C33 7542   2.013   2.980  19.901  0.0832 -0.2898  0.0909
   82SOPE   H3X 7543   2.092   2.988  19.824  1.5136  0.3079  1.5829
   82SOPE   H3Y 7544   2.055   2.954  20.000  1.0020 -2.0731 -0.7045
   82SOPE   C34 7545   1.934   3.109  19.911  0.5349 -0.1807  0.0597
   82SOPE   H4X 7546   1.857   3.084  19.987  1.3559  1.1355  1.4103
   82SOPE   H4Y 7547   1.885   3.146  19.819 -0.3499  0.5817  0.8062
   82SOPE   C35 7548   2.023   3.224  19.971  0.3781  0.0909 -0.1031
   82SOPE   H5X 7549   2.090   3.168  20.041 -0.8886 -0.1972  0.9292
   82SOPE   H5Y 7550   1.968   3.295  20.036  1.6734  0.9758  0.0436
   82SOPE   C36 7551   2.094   3.303  19.852  0.5395  0.3187 -0.8037
   82SOPE   H6X 7552   2.017   3.352  19.788 -0.7151 -1.5723 -0.8387
   82SOPE   H6Y 7553   2.139   3.219  19.795  0.8653 -0.9797  1.2575
   82SOPE   C37 7554   2.186   3.404  19.903 -0.1578 -0.5600  0.7920
   82SOPE   H7X 7555   2.264   3.362  19.969 -0.4364 -2.2643  0.0767
   82SOPE   H7Y 7556   2.132   3.485  19.956  0.7126  0.7293 -0.1969
   82SOPE   C38 7557   2.265   3.467  19.782  0.3956 -0.4493  0.4852
   82SOPE   H8X 7558   2.199   3.527  19.716  1.4861  0.0631 -0.1655
   82SOPE   H8Y 7559   2.300   3.381  19.721  0.6883 -1.3956  1.9534
   82SOPE   C39 7560   2.388   3.549  19.810  0.2197  0.9258  0.3903
   82SOPE   H9X 7561   2.433   3.500  19.899 -2.0345 -1.1761  0.4972
   82SOPE   H9Y 7562   2.357   3.648  19.848  0.0459  0.1062  2.5138
   82SOPE  C310 7563   2.499   3.555  19.700  0.4054 -0.4138 -0.3697
   82SOPE  H10X 7564   2.573   3.633  19.729 -0.6585  0.9991 -1.3393
   82SOPE  H10Y 7565   2.445   3.596  19.612  0.0054  0.2569  0.1729
   82SOPE  C311 7566   2.561   3.419  19.663  0.5535 -0.1382 -0.2027
   82SOPE  H11X 7567   2.637   3.431  19.583  0.4757  2.2633 -0.0048
   82SOPE  H11Y 7568   2.476   3.359  19.624 -1.4084  2.1300  0.2790
   82SOPE  C312 7569   2.639   3.352  19.777  0.6744  0.0223  0.2330
   82SOPE  H12X 7570   2.556   3.317  19.842 -0.1920  2.4589  0.5654
   82SOPE  H12Y 7571   2.698   3.417  19.845 -2.9132  1.1116  2.5941
   82SOPE  C313 7572   2.713   3.226  19.720 -0.0804 -0.4143 -1.0817
   82SOPE  H13X 7573   2.778   3.278  19.646 -0.0646 -0.3659 -1.0331
   82SOPE  H13Y 7574   2.637   3.162  19.668  0.3997  0.8880 -3.5220
   82SOPE  C314 7575   2.780   3.134  19.822 -0.3016  0.3304 -0.1662
   82SOPE  H14X 7576   2.851   3.190  19.888  0.8650  0.4575 -1.4708
   82SOPE  H14Y 7577   2.847   3.064  19.766 -0.0482  1.3884 -1.2232
   82SOPE  C315 7578   2.680   3.061  19.908 -0.6097 -0.5925 -0.4396
   82SOPE  H15X 7579   2.625   3.126  19.980 -2.0380 -1.8506 -0.3382
   82SOPE  H15Y 7580   2.734   3.003  19.987 -1.8620  2.5891  3.0756
   82SOPE  C316 7581   2.578   2.972  19.834  0.0874  0.4740 -0.1225
   82SOPE  H16X 7582   2.627   2.916  19.752 -1.2081  0.1748 -0.7222
   82SOPE  H16Y 7583   2.501   3.037  19.786  0.3785 -0.0738 -1.3579
   82SOPE  C317 7584   2.502   2.881  19.929  0.0707  0.4770 -0.6080
   82SOPE  H17X 7585   2.435   2.941  19.994  2.6383  0.9001  1.8096
   82SOPE  H17Y 7586   2.574   2.843  20.004  0.7169 -0.4283 -1.6531
   82SOPE  C318 7587   2.422   2.768  19.863 -0.2567  0.4852 -0.4490
   82SOPE  H18X 7588   2.383   2.713  19.952 -0.9486 -1.0427 -1.6432
   82SOPE  H18Y 7589   2.489   2.697  19.810 -1.7599 -0.7605 -0.7591
   82SOPE  H18Z 7590   2.337   2.809  19.804 -0.1645 -0.6257 -1.3954
   83SOPE     N 7591   3.053   2.289   7.451 -0.0231  0.4726 -0.4719
   83SOPE   HN1 7592   3.103   2.342   7.377 -0.5668  0.6222 -0.7359
   83SOPE   HN2 7593   3.009   2.207   7.405  2.1382 -1.3846  0.5944
   83SOPE   HN3 7594   2.977   2.343   7.498  0.5916  0.9735 -0.0431
   83SOPE   C12 7595   3.158   2.223   7.543  0.4954  0.0206  0.5461
   83SOPE  H12A 7596   3.117   2.190   7.641  0.5754  0.2834  0.6685
   83SOPE  H12B 7597   3.236   2.301   7.561  1.3130  0.2156 -3.0713
   83SOPE   C11 7598   3.209   2.100   7.467  0.3380 -0.1661 -0.3421
   83SOPE  H11A 7599   3.291   2.060   7.530 -0.1968  1.7156  1.6573
   83SOPE  H11B 7600   3.258   2.142   7.376  0.4069 -0.7489 -0.5802
   83SOPE     P 7601   3.138   1.874   7.353  0.3341 -0.1793 -0.1673
   83SOPE   O13 7602   3.195   1.923   7.224  0.3165  0.9281  0.0474
   83SOPE   O14 7603   3.014   1.794   7.345  0.1490  0.0550  0.2380
   83SOPE   O12 7604   3.109   1.999   7.438  0.4030 -0.3923 -0.1025
   83SOPE   O11 7605   3.244   1.796   7.439  0.2226  0.5570 -0.9002
   83SOPE    C1 7606   3.203   1.720   7.558 -0.3760 -0.1755  0.4473
   83SOPE    HA 7607   3.222   1.611   7.550 -1.2299 -0.2258 -1.4147
   83SOPE    HB 7608   3.094   1.726   7.580 -0.3690  2.4790  0.0718
   83SOPE    C2 7609   3.279   1.773   7.688  0.0352  0.7866  0.4397
   83SOPE    HS 7610   3.258   1.882   7.696 -0.3053  0.8372 -0.8792
   83SOPE   O21 7611   3.417   1.728   7.669  0.0806  0.2837 -0.1519
   83SOPE   C21 7612   3.512   1.805   7.718 -0.0470 -0.0485  0.0369
   83SOPE   O22 7613   3.502   1.913   7.770 -0.4798 -0.6772 -0.3411
   83SOPE   C22 7614   3.643   1.729   7.703  0.1392  0.4246 -0.5327
   83SOPE   H2R 7615   3.724   1.798   7.737  0.8308 -0.4971 -0.2740
   83SOPE   H2S 7616   3.661   1.714   7.594  1.6625  0.8279 -0.3579
   83SOPE    C3 7617   3.217   1.691   7.809 -0.2648 -0.1060 -0.8024
   83SOPE    HX 7618   3.260   1.589   7.811 -0.5929 -0.2816  2.1445
   83SOPE    HY 7619   3.106   1.688   7.806 -0.6533  4.8429  0.4409
   83SOPE   O31 7620   3.251   1.748   7.935 -0.1540  0.2121  0.0175
   83SOPE   C31 7621   3.182   1.847   7.978 -0.7590 -0.1580  0.0423
   83SOPE   O32 7622   3.084   1.897   7.922  0.2486 -0.0513  0.3209
   83SOPE   C32 7623   3.241   1.891   8.119 -0.5010  0.2327  0.5853
   83SOPE   H2X 7624   3.294   1.986   8.096 -1.2458  0.7488  0.9489
   83SOPE   H2Y 7625   3.309   1.813   8.159 -1.4011 -0.1733  1.3614
   83SOPE   C23 7626   3.654   1.599   7.771  0.1980  1.1233  0.6525
   83SOPE   H3R 7627   3.757   1.562   7.752 -0.8515 -1.7088 -0.0937
   83SOPE   H3S 7628   3.575   1.528   7.739  2.0336 -0.4573 -0.5896
   83SOPE   C24 7629   3.632   1.604   7.921 -0.1406 -0.2922 -0.2008
   83SOPE   H4R 7630   3.524   1.595   7.945 -0.0959  0.4741  0.3338
   83SOPE   H4S 7631   3.668   1.514   7.974  0.2180 -1.1243 -1.7970
   83SOPE   C25 7632   3.689   1.724   7.991 -0.2409 -0.2341 -0.6351
   83SOPE   H5R 7633   3.796   1.737   7.965 -0.6148  1.0343 -1.6091
   83SOPE   H5S 7634   3.642   1.822   7.964  2.9770  1.4750 -0.4655
   83SOPE   C26 7635   3.658   1.717   8.140 -0.4471  0.1091 -0.0480
   83SOPE   H6R 7636   3.548   1.726   8.146 -0.7232 -2.7105  0.7946
   83SOPE   H6S 7637   3.680   1.613   8.172  0.9005  0.4923  0.3412
   83SOPE   C27 7638   3.739   1.821   8.223  0.2853 -0.2886  0.2644
   83SOPE   H7R 7639   3.847   1.798   8.225  0.4459  0.4533  1.8799
   83SOPE   H7S 7640   3.726   1.917   8.169  0.1763  2.1506  4.2026
   83SOPE   C28 7641   3.677   1.826   8.368 -0.4200  0.2936  0.4045
   83SOPE   H8R 7642   3.728   1.906   8.426  1.5295  0.7560 -1.7787
   83SOPE   H8S 7643   3.573   1.856   8.341 -0.6513 -0.8904 -0.0554
   83SOPE   C29 7644   3.659   1.696   8.441 -0.4378 -0.6685  0.0880
   83SOPE   H91 7645   3.564   1.649   8.412 -1.6356  1.4930  0.2538
   83SOPE  C210 7646   3.739   1.638   8.534 -0.1706  0.5448 -0.0085
   83SOPE  H101 7647   3.723   1.536   8.569  1.6398 -0.1282 -0.9927
   83SOPE  C211 7648   3.858   1.708   8.595 -0.2184  1.0507 -0.8826
   83SOPE  H11R 7649   3.890   1.806   8.554  2.3491  1.1485  1.1586
   83SOPE  H11S 7650   3.942   1.636   8.596 -1.0026  0.0937  0.8109
   83SOPE  C212 7651   3.833   1.728   8.747  0.3811  0.1721  0.1125
   83SOPE  H12R 7652   3.740   1.788   8.754 -0.0176 -0.5361  1.2845
   83SOPE  H12S 7653   3.920   1.777   8.794 -0.3885 -0.1355  1.9451
   83SOPE  C213 7654   3.811   1.590   8.824 -0.3206  0.6359  0.4861
   83SOPE  H13R 7655   3.743   1.519   8.773  1.5292 -0.5200 -0.4623
   83SOPE  H13S 7656   3.751   1.617   8.914  0.4152 -0.6038  1.3846
   83SOPE  C214 7657   3.936   1.508   8.865  0.9302  0.0518  0.5465
   83SOPE  H14R 7658   4.007   1.580   8.910 -2.2657  2.0613  2.8874
   83SOPE  H14S 7659   3.980   1.458   8.777  2.5907  0.6422  1.0130
   83SOPE  C215 7660   3.900   1.399   8.971 -0.3113  1.2374  0.3605
   83SOPE  H15R 7661   3.819   1.341   8.921  0.1213  0.7829  0.1865
   83SOPE  H15S 7662   3.860   1.453   9.060 -2.9697 -1.8690  1.2781
   83SOPE  C216 7663   4.005   1.299   9.012 -0.2094 -0.4134 -0.2889
   83SOPE  H16R 7664   4.103   1.350   9.025 -0.8107  1.4449 -2.4912
   83SOPE  H16S 7665   4.028   1.222   8.935 -0.8486 -2.2114  1.2446
   83SOPE  C217 7666   3.966   1.227   9.141  0.8231 -0.4776 -0.6298
   83SOPE  H17R 7667   3.880   1.164   9.109  1.5649 -0.8676 -1.9370
   83SOPE  H17S 7668   3.940   1.304   9.217  0.0127 -0.4499 -0.9286
   83SOPE  C218 7669   4.072   1.122   9.188 -1.1959 -0.1134  0.0025
   83SOPE  H18R 7670   4.098   1.061   9.099  0.0927 -0.2930  0.4757
   83SOPE  H18S 7671   4.035   1.057   9.271 -0.6502 -0.9495 -0.4020
   83SOPE  H18T 7672   4.168   1.170   9.217 -1.6904 -0.4423  2.4230
   83SOPE   C33 7673   3.130   1.940   8.211 -0.2190  0.0656 -0.6861
   83SOPE   H3X 7674   3.055   1.860   8.224  0.7940 -0.5091  2.5802
   83SOPE   H3Y 7675   3.071   2.018   8.158  1.5354  2.2201  0.3855
   83SOPE   C34 7676   3.177   1.993   8.344  0.2261  0.5038 -0.2179
   83SOPE   H4X 7677   3.086   2.029   8.396 -0.9585 -3.5284  0.8279
   83SOPE   H4Y 7678   3.262   2.064   8.333  1.5498 -1.0712 -0.5058
   83SOPE   C35 7679   3.225   1.880   8.437  0.1280 -0.7078  0.3574
   83SOPE   H5X 7680   3.306   1.833   8.377 -1.7615 -0.5754 -2.5006
   83SOPE   H5Y 7681   3.141   1.809   8.455 -1.3982  1.1218  0.7421
   83SOPE   C36 7682   3.285   1.945   8.562 -0.4357  1.3794 -1.0328
   83SOPE   H6X 7683   3.202   2.004   8.607 -2.0869 -0.8401 -1.0164
   83SOPE   H6Y 7684   3.370   2.014   8.546  0.0522  1.1779  0.5931
   83SOPE   C37 7685   3.330   1.839   8.661  0.0100  0.0304 -0.1791
   83SOPE   H7X 7686   3.411   1.782   8.610  0.2571 -0.4584  0.7522
   83SOPE   H7Y 7687   3.254   1.769   8.703 -1.1017  1.2292 -0.1317
   83SOPE   C38 7688   3.406   1.897   8.783 -0.0128  0.1189  0.9739
   83SOPE   H8X 7689   3.338   1.970   8.832  2.0541  0.8083  2.9823
   83SOPE   H8Y 7690   3.495   1.957   8.754  0.7838 -1.7129 -0.5845
   83SOPE   C39 7691   3.439   1.785   8.882 -0.2407  1.0064 -0.7378
   83SOPE   H9X 7692   3.488   1.703   8.825  0.0423  0.9193 -0.3711
   83SOPE   H9Y 7693   3.345   1.742   8.921  1.0571 -0.5646  0.8136
   83SOPE  C310 7694   3.515   1.833   9.006  0.5015 -0.0618 -0.5630
   83SOPE  H10X 7695   3.473   1.931   9.038 -2.6262 -1.3218 -0.4631
   83SOPE  H10Y 7696   3.621   1.852   8.980  0.4128 -0.0461 -0.9230
   83SOPE  C311 7697   3.518   1.726   9.122 -0.1296  0.4209 -0.2342
   83SOPE  H11X 7698   3.577   1.642   9.079 -1.7882 -0.7120 -0.3828
   83SOPE  H11Y 7699   3.415   1.698   9.151 -0.0235 -0.2927 -0.5296
   83SOPE  C312 7700   3.583   1.784   9.248 -0.2610  0.3251  0.2097
   83SOPE  H12X 7701   3.515   1.864   9.285 -1.3753 -1.2093  1.6521
   83SOPE  H12Y 7702   3.681   1.830   9.223  0.7406 -2.2559 -1.0595
   83SOPE  C313 7703   3.609   1.684   9.352  1.3080 -0.2965  0.7589
   83SOPE  H13X 7704   3.671   1.607   9.302  0.3268 -1.0666  0.6936
   83SOPE  H13Y 7705   3.517   1.635   9.391 -0.1825  0.5683 -1.4582
   83SOPE  C314 7706   3.692   1.737   9.468  0.5150 -0.3457  0.2645
   83SOPE  H14X 7707   3.631   1.826   9.492 -0.7613 -0.4143 -2.3853
   83SOPE  H14Y 7708   3.792   1.783   9.450  0.1452 -0.1511 -1.4264
   83SOPE  C315 7709   3.702   1.643   9.596 -0.0421 -0.3345  0.1063
   83SOPE  H15X 7710   3.772   1.682   9.673 -2.1607  0.9728  1.4865
   83SOPE  H15Y 7711   3.757   1.551   9.568  0.7789 -0.5061  2.0964
   83SOPE  C316 7712   3.579   1.598   9.675  0.4629 -0.4714  0.9516
   83SOPE  H16X 7713   3.503   1.554   9.607  0.3416 -0.6024  1.1713
   83SOPE  H16Y 7714   3.529   1.683   9.727 -1.2832 -1.0844  0.3188
   83SOPE  C317 7715   3.599   1.484   9.769  0.1092 -0.1797  0.3621
   83SOPE  H17X 7716   3.683   1.499   9.840 -0.0641 -3.1513  1.3455
   83SOPE  H17Y 7717   3.644   1.409   9.701  2.2515  3.1148 -2.1228
   83SOPE  C318 7718   3.484   1.406   9.831  0.6077  0.1780 -0.0381
   83SOPE  H18X 7719   3.433   1.458   9.914  1.3540 -0.2287  0.6902
   83SOPE  H18Y 7720   3.517   1.304   9.859 -0.7567 -0.2894 -0.0461
   83SOPE  H18Z 7721   3.410   1.393   9.749 -0.3705  0.8592  0.7078
   84SOPE     N 7722   3.101   0.596   7.312 -0.4204  0.1393 -0.7869
   84SOPE   HN1 7723   3.132   0.576   7.409 -1.0528  1.0831 -0.3725
   84SOPE   HN2 7724   3.089   0.699   7.306  1.7532  0.5776  1.0243
   84SOPE   HN3 7725   3.009   0.551   7.293 -0.8930  0.6000  0.3666
   84SOPE   C12 7726   3.200   0.548   7.213  0.4356 -0.0692 -0.5967
   84SOPE  H12A 7727   3.145   0.519   7.121  0.5409 -0.1207 -0.6425
   84SOPE  H12B 7728   3.248   0.454   7.247  1.3112  0.5142 -0.2030
   84SOPE   C11 7729   3.302   0.656   7.192  0.3709  0.4354  0.0471
   84SOPE  H11A 7730   3.355   0.682   7.287  0.7274  0.1906 -0.0845
   84SOPE  H11B 7731   3.250   0.749   7.161  0.3327  0.0408 -1.1035
   84SOPE     P 7732   3.506   0.538   7.070  0.0561  0.1071  0.1716
   84SOPE   O13 7733   3.580   0.592   6.953 -0.0907 -0.3500 -0.5004
   84SOPE   O14 7734   3.459   0.396   7.063 -0.6855 -0.4761 -0.0312
   84SOPE   O12 7735   3.376   0.619   7.081 -0.2739 -0.3939  0.5779
   84SOPE   O11 7736   3.585   0.567   7.203  0.3369 -0.3870 -0.7082
   84SOPE    C1 7737   3.652   0.453   7.259 -0.0487 -0.0996  0.6935
   84SOPE    HA 7738   3.746   0.484   7.311  0.9796  0.1453 -1.2331
   84SOPE    HB 7739   3.691   0.383   7.182 -0.9570 -1.5624  1.5220
   84SOPE    C2 7740   3.556   0.393   7.361 -0.5546 -0.4754  0.7481
   84SOPE    HS 7741   3.457   0.417   7.319  0.5344 -1.3400 -2.6463
   84SOPE   O21 7742   3.582   0.459   7.481  0.2574  0.0229 -0.7572
   84SOPE   C21 7743   3.498   0.548   7.518  0.7306  0.2481  0.6749
   84SOPE   O22 7744   3.381   0.563   7.482 -0.5897 -0.2371 -0.2829
   84SOPE   C22 7745   3.558   0.628   7.633 -0.0244 -0.1629  0.0271
   84SOPE   H2R 7746   3.659   0.658   7.598 -0.5573  1.2631 -0.3737
   84SOPE   H2S 7747   3.561   0.564   7.723  1.1072  0.0028  0.1200
   84SOPE    C3 7748   3.588   0.243   7.371 -0.6435  0.2528 -0.5420
   84SOPE    HX 7749   3.699   0.235   7.370 -0.6484  0.1330 -0.1931
   84SOPE    HY 7750   3.547   0.186   7.285 -0.2254 -1.4868  0.3614
   84SOPE   O31 7751   3.537   0.182   7.496  0.3889  0.4846  0.8132
   84SOPE   C31 7752   3.577   0.062   7.512 -0.3200 -0.0014  0.1001
   84SOPE   O32 7753   3.672   0.008   7.454 -0.2921  0.4199 -0.8387
   84SOPE   C32 7754   3.488  -0.016   7.600  0.7854 -0.4946 -0.7110
   84SOPE   H2X 7755   3.519  -0.122   7.589 -1.2645 -1.0744 -1.3488
   84SOPE   H2Y 7756   3.384  -0.014   7.561  1.1244  1.0807 -1.6101
   84SOPE   C23 7757   3.470   0.751   7.677 -0.0452  0.6566 -0.0307
   84SOPE   H3R 7758   3.426   0.784   7.580  1.9940 -1.1846 -1.7069
   84SOPE   H3S 7759   3.535   0.827   7.725 -0.2906 -0.0178  1.4086
   84SOPE   C24 7760   3.369   0.717   7.784  0.0231 -0.3935  0.3117
   84SOPE   H4R 7761   3.300   0.637   7.751  0.8364 -0.8735 -0.2343
   84SOPE   H4S 7762   3.414   0.679   7.878  2.1594 -4.1473 -2.0074
   84SOPE   C25 7763   3.292   0.850   7.821  0.4755  0.2200  0.3597
   84SOPE   H5R 7764   3.356   0.916   7.883 -2.0772 -0.1728  3.6404
   84SOPE   H5S 7765   3.270   0.890   7.720  0.8006 -3.3097 -1.2635
   84SOPE   C26 7766   3.164   0.821   7.889  0.6983  0.4860 -0.0409
   84SOPE   H6R 7767   3.118   0.919   7.916 -1.0654 -0.1657 -0.5266
   84SOPE   H6S 7768   3.097   0.774   7.815 -2.5412 -0.9269  3.4551
   84SOPE   C27 7769   3.172   0.723   8.010 -0.1124  0.2671 -0.6316
   84SOPE   H7R 7770   3.206   0.628   7.964  0.4345  0.9133 -1.5788
   84SOPE   H7S 7771   3.252   0.755   8.080  0.5275 -3.8824  0.8621
   84SOPE   C28 7772   3.043   0.707   8.088  0.9530  0.1263  0.3506
   84SOPE   H8R 7773   2.959   0.689   8.018  0.6339 -1.8560  1.1582
   84SOPE   H8S 7774   3.050   0.619   8.155  0.4268 -1.1381 -1.1875
   84SOPE   C29 7775   3.020   0.836   8.165 -0.1662  0.0271 -0.1293
   84SOPE   H91 7776   3.068   0.925   8.122 -0.3244 -0.1444 -0.6799
   84SOPE  C210 7777   2.944   0.861   8.275 -0.5509  0.5127  0.2976
   84SOPE  H101 7778   2.947   0.959   8.325  3.6648  0.2008  1.0742
   84SOPE  C211 7779   2.857   0.765   8.354 -0.2511  0.4288  0.4604
   84SOPE  H11R 7780   2.859   0.666   8.304 -1.0892  0.4011  0.4567
   84SOPE  H11S 7781   2.751   0.795   8.340 -0.4022 -0.7358 -1.0954
   84SOPE  C212 7782   2.894   0.737   8.498  0.0222  0.0151 -1.0500
   84SOPE  H12R 7783   2.886   0.827   8.563 -2.4310  0.2353 -1.5712
   84SOPE  H12S 7784   3.001   0.708   8.511  0.0256  0.7358  0.8548
   84SOPE  C213 7785   2.799   0.625   8.545 -0.3168 -0.0859 -0.0485
   84SOPE  H13R 7786   2.802   0.541   8.473  0.1817  0.6067 -0.8483
   84SOPE  H13S 7787   2.696   0.666   8.550 -0.0487  0.5037  3.6995
   84SOPE  C214 7788   2.827   0.562   8.685  0.3198 -0.1380  0.1553
   84SOPE  H14R 7789   2.788   0.635   8.760  0.3845 -1.2253  1.2810
   84SOPE  H14S 7790   2.938   0.570   8.689  0.2646  1.8736 -0.8321
   84SOPE  C215 7791   2.758   0.425   8.706 -0.4487 -0.4050 -0.7121
   84SOPE  H15R 7792   2.793   0.361   8.622 -0.2048  0.6404 -1.4257
   84SOPE  H15S 7793   2.650   0.443   8.690 -1.1645 -2.1416  1.5746
   84SOPE  C216 7794   2.780   0.352   8.838  0.1256 -0.4327 -0.4243
   84SOPE  H16R 7795   2.886   0.318   8.848  0.9520  1.8561 -0.7156
   84SOPE  H16S 7796   2.716   0.262   8.844  0.5947 -0.6979  0.9758
   84SOPE  C217 7797   2.746   0.427   8.967  0.0493  0.3386 -0.0328
   84SOPE  H17R 7798   2.644   0.469   8.954  0.2852  0.6153 -1.1024
   84SOPE  H17S 7799   2.821   0.505   8.992  0.5477 -0.3453  0.6038
   84SOPE  C218 7800   2.731   0.338   9.086  0.1068 -0.1552 -0.0576
   84SOPE  H18R 7801   2.657   0.382   9.156  0.4785  0.0546  0.2041
   84SOPE  H18S 7802   2.836   0.320   9.119  0.7467  0.1597 -1.7764
   84SOPE  H18T 7803   2.687   0.239   9.062  0.2568 -0.4523  0.8555
   84SOPE   C33 7804   3.502   0.024   7.748  0.1376  0.0779 -0.1835
   84SOPE   H3X 7805   3.497   0.135   7.753  0.9683  0.1539 -0.7741
   84SOPE   H3Y 7806   3.600   0.006   7.797  0.4661 -0.1082 -0.8837
   84SOPE   C34 7807   3.396  -0.048   7.846 -0.1081 -0.0018  0.4675
   84SOPE   H4X 7808   3.379  -0.155   7.822  1.7707 -0.4454  0.9333
   84SOPE   H4Y 7809   3.298   0.003   7.839  0.8533  2.2293  1.8832
   84SOPE   C35 7810   3.443  -0.027   7.991 -0.3964 -0.8098  0.0275
   84SOPE   H5X 7811   3.431   0.077   8.030 -1.0842 -1.1468  0.7627
   84SOPE   H5Y 7812   3.552  -0.044   7.998 -0.8531 -3.3891  2.6470
   84SOPE   C36 7813   3.387  -0.120   8.099  0.5252 -0.1294 -0.3396
   84SOPE   H6X 7814   3.438  -0.218   8.099 -0.5114 -0.7517  1.9280
   84SOPE   H6Y 7815   3.280  -0.123   8.068  0.4348  0.7890 -0.1640
   84SOPE   C37 7816   3.389  -0.064   8.237  0.0279 -0.5636 -0.1252
   84SOPE   H7X 7817   3.321   0.024   8.234 -0.9692 -1.2908  0.6607
   84SOPE   H7Y 7818   3.492  -0.024   8.254 -0.8268  0.6586  2.6823
   84SOPE   C38 7819   3.354  -0.155   8.351 -0.1892 -0.0042  0.2822
   84SOPE   H8X 7820   3.436  -0.217   8.393 -1.4487 -1.9503 -0.0304
   84SOPE   H8Y 7821   3.280  -0.223   8.305  0.2100 -1.1444  1.2954
   84SOPE   C39 7822   3.288  -0.086   8.475 -0.3004  0.0859  0.6653
   84SOPE   H9X 7823   3.194  -0.034   8.447  0.3166 -0.2755 -2.4477
   84SOPE   H9Y 7824   3.361  -0.010   8.511 -0.2166  0.2144  0.2285
   84SOPE  C310 7825   3.253  -0.187   8.585  0.4887 -0.4605  0.3943
   84SOPE  H10X 7826   3.337  -0.201   8.657 -0.0372 -2.2915  0.6913
   84SOPE  H10Y 7827   3.229  -0.287   8.544 -2.3358 -0.7347  2.3963
   84SOPE  C311 7828   3.122  -0.165   8.663 -0.2224  0.6518 -0.2248
   84SOPE  H11X 7829   3.119  -0.240   8.745 -1.7846  1.4533  0.4996
   84SOPE  H11Y 7830   3.038  -0.193   8.596  0.9666 -0.0853 -1.4559
   84SOPE  C312 7831   3.107  -0.022   8.721 -0.6655 -0.1125 -0.1428
   84SOPE  H12X 7832   3.101   0.043   8.631  0.2033 -2.2992 -1.8730
   84SOPE  H12Y 7833   3.188   0.016   8.786 -0.9391  0.9731 -0.4155
   84SOPE  C313 7834   2.971  -0.009   8.794  0.1560 -0.3309 -0.4649
   84SOPE  H13X 7835   2.895  -0.050   8.723  0.2695 -1.4038  0.0157
   84SOPE  H13Y 7836   2.938   0.097   8.800  1.1847  0.0344 -1.0255
   84SOPE  C314 7837   2.956  -0.075   8.936 -0.4717 -0.0618  0.7609
   84SOPE  H14X 7838   3.056  -0.062   8.984  0.8488  2.9921 -2.3922
   84SOPE  H14Y 7839   2.934  -0.183   8.945 -2.6713  0.3239  0.6017
   84SOPE  C315 7840   2.854  -0.006   9.027 -0.8106 -0.4417  0.5850
   84SOPE  H15X 7841   2.762  -0.008   8.966  0.5613  2.1070 -1.8119
   84SOPE  H15Y 7842   2.895   0.098   9.029 -0.4462 -0.5930  1.6158
   84SOPE  C316 7843   2.846  -0.069   9.167 -0.4969 -0.0070 -0.3886
   84SOPE  H16X 7844   2.945  -0.062   9.217 -1.5676 -0.6578  1.9832
   84SOPE  H16Y 7845   2.815  -0.175   9.158  0.3119 -0.2331 -0.5837
   84SOPE  C317 7846   2.741   0.007   9.241  0.2930  0.2502  0.0443
   84SOPE  H17X 7847   2.666   0.031   9.163  2.9731  3.8479 -1.7112
   84SOPE  H17Y 7848   2.786   0.105   9.270 -0.6111  0.7964 -0.3496
   84SOPE  C318 7849   2.699  -0.066   9.368  0.4131 -0.1320 -0.3796
   84SOPE  H18X 7850   2.791  -0.063   9.431  0.5565 -1.4878 -0.4992
   84SOPE  H18Y 7851   2.679  -0.175   9.356 -0.7422  0.1328 -1.0355
   84SOPE  H18Z 7852   2.608  -0.020   9.411 -0.3331 -1.2645 -0.6944
   85SOPE     N 7853   1.118   3.073  14.928 -0.0413  0.2643  0.3172
   85SOPE   HN1 7854   1.030   3.019  14.915  0.0220 -0.2446  1.8107
   85SOPE   HN2 7855   1.112   3.166  14.884  0.5227  0.5100  0.7468
   85SOPE   HN3 7856   1.202   3.024  14.890 -0.1108  1.0277 -0.8627
   85SOPE   C12 7857   1.133   3.092  15.077 -0.8928 -0.7070  0.0648
   85SOPE  H12A 7858   1.140   2.990  15.119  0.6751 -0.6685 -0.0701
   85SOPE  H12B 7859   1.046   3.157  15.102 -1.2618  0.2750 -3.2041
   85SOPE   C11 7860   1.264   3.164  15.115  0.9520  0.6208  0.2095
   85SOPE  H11A 7861   1.340   3.101  15.064 -1.7743 -1.7312 -1.3177
   85SOPE  H11B 7862   1.271   3.156  15.225 -0.0697 -0.5654  0.2185
   85SOPE     P 7863   1.216   3.417  15.160 -0.4352  0.2358 -0.2764
   85SOPE   O13 7864   1.125   3.497  15.081 -0.3701  0.0281 -0.1557
   85SOPE   O14 7865   1.326   3.475  15.234 -0.4141  0.0944 -0.1085
   85SOPE   O12 7866   1.271   3.300  15.072  0.3100  0.6266  0.3283
   85SOPE   O11 7867   1.132   3.333  15.259 -0.2053  0.5449  0.4011
   85SOPE    C1 7868   1.111   3.356  15.397  0.4378 -0.1294  0.3289
   85SOPE    HA 7869   1.212   3.386  15.430  0.7990 -0.2315 -0.6617
   85SOPE    HB 7870   1.080   3.261  15.445  0.1106  0.8306  2.1225
   85SOPE    C2 7871   0.996   3.454  15.423  0.4810  1.3623 -1.0061
   85SOPE    HS 7872   1.010   3.549  15.367 -0.1010  1.3569 -1.1715
   85SOPE   O21 7873   0.990   3.480  15.562 -0.4915 -0.5277  0.4192
   85SOPE   C21 7874   0.951   3.595  15.601 -0.1669 -1.0703 -0.5458
   85SOPE   O22 7875   0.927   3.691  15.531 -0.1138 -0.4125 -0.0478
   85SOPE   C22 7876   0.944   3.586  15.753  0.1103  0.1609  0.2112
   85SOPE   H2R 7877   1.047   3.572  15.793 -0.1220 -2.1122  0.1522
   85SOPE   H2S 7878   0.898   3.486  15.768 -1.3579  0.9941  1.5607
   85SOPE    C3 7879   0.860   3.395  15.375  0.3026 -0.1594  0.8808
   85SOPE    HX 7880   0.830   3.308  15.437  1.3715  1.0112  3.1735
   85SOPE    HY 7881   0.868   3.377  15.265 -1.4078  2.2834  0.2694
   85SOPE   O31 7882   0.739   3.459  15.399  0.1508 -0.0665 -0.1850
   85SOPE   C31 7883   0.716   3.568  15.323  0.3719 -0.1704 -0.4668
   85SOPE   O32 7884   0.783   3.595  15.228 -0.2723 -0.1268 -0.0286
   85SOPE   C32 7885   0.589   3.645  15.365 -0.2696 -0.3191 -0.1510
   85SOPE   H2X 7886   0.552   3.691  15.271  2.0817  1.1121 -0.4766
   85SOPE   H2Y 7887   0.624   3.715  15.444  1.3398 -1.2721  0.0186
   85SOPE   C23 7888   0.872   3.698  15.826 -0.0213 -0.0074  0.4006
   85SOPE   H3R 7889   0.906   3.798  15.791 -0.5929 -0.3081 -1.0878
   85SOPE   H3S 7890   0.915   3.683  15.927 -0.4036  0.2095  0.5961
   85SOPE   C24 7891   0.719   3.676  15.805 -0.6114 -0.0166 -0.2455
   85SOPE   H4R 7892   0.716   3.690  15.695  2.9000 -2.1483 -0.7763
   85SOPE   H4S 7893   0.689   3.570  15.820  0.3545 -0.2194  0.3189
   85SOPE   C25 7894   0.640   3.780  15.883 -1.4249 -0.5668  0.5818
   85SOPE   H5R 7895   0.629   3.775  15.993 -2.1704 -0.2450  0.5238
   85SOPE   H5S 7896   0.685   3.878  15.857 -0.1676 -1.3813 -0.4712
   85SOPE   C26 7897   0.487   3.789  15.849 -0.4530 -0.4467 -0.1579
   85SOPE   H6R 7898   0.478   3.780  15.739 -1.0762  2.6883 -0.4518
   85SOPE   H6S 7899   0.441   3.704  15.904  0.9340 -0.8138  0.4931
   85SOPE   C27 7900   0.433   3.932  15.883 -0.0848  1.1377 -0.9214
   85SOPE   H7R 7901   0.498   3.972  15.963  0.5969 -0.6804 -0.5042
   85SOPE   H7S 7902   0.452   3.999  15.796 -0.6703  0.5795 -1.4986
   85SOPE   C28 7903   0.286   3.927  15.922  0.8963  0.2481  0.0858
   85SOPE   H8R 7904   0.256   4.034  15.909  0.0345 -0.1171 -1.0670
   85SOPE   H8S 7905   0.221   3.867  15.855 -0.9895  1.6845  0.5500
   85SOPE   C29 7906   0.270   3.889  16.074 -0.0726  0.2067 -0.6500
   85SOPE   H91 7907   0.231   3.788  16.090  1.0294 -0.1234  0.0903
   85SOPE  C210 7908   0.251   3.979  16.173 -0.5680 -0.5129 -0.2528
   85SOPE  H101 7909   0.253   3.943  16.277  1.3491  1.7735  0.5908
   85SOPE  C211 7910   0.253   4.127  16.180 -0.1063  0.0529 -0.3357
   85SOPE  H11R 7911   0.168   4.171  16.236  0.5957  1.6917 -0.5163
   85SOPE  H11S 7912   0.241   4.178  16.082 -1.0343  0.9879  0.2386
   85SOPE  C212 7913   0.384   4.183  16.221 -0.0735  0.1789  0.3443
   85SOPE  H12R 7914   0.383   4.293  16.202 -2.2120  0.1760  0.2031
   85SOPE  H12S 7915   0.460   4.128  16.160 -1.7717 -2.6076  0.6148
   85SOPE  C213 7916   0.414   4.169  16.367  0.7752  0.0987 -0.1339
   85SOPE  H13R 7917   0.371   4.071  16.400  1.0795 -0.4732 -1.3779
   85SOPE  H13S 7918   0.355   4.247  16.419 -2.1433 -2.7736  1.2703
   85SOPE  C214 7919   0.564   4.180  16.384 -0.1203 -0.5927  0.7240
   85SOPE  H14R 7920   0.619   4.136  16.298  1.9109  0.6055  1.3326
   85SOPE  H14S 7921   0.598   4.131  16.478  1.1811  2.5821  2.0749
   85SOPE  C215 7922   0.613   4.323  16.404 -0.5269 -1.2410  0.7336
   85SOPE  H15R 7923   0.556   4.352  16.495 -0.1450  0.2348  0.5364
   85SOPE  H15S 7924   0.570   4.368  16.312 -1.4333  0.2631  1.8425
   85SOPE  C216 7925   0.765   4.336  16.430 -0.2444 -0.3179 -0.0964
   85SOPE  H16R 7926   0.823   4.296  16.343 -2.0634  1.7882 -2.4323
   85SOPE  H16S 7927   0.782   4.265  16.514 -1.7011  1.4514  1.7928
   85SOPE  C217 7928   0.812   4.480  16.457  0.8879  0.0937 -0.6419
   85SOPE  H17R 7929   0.920   4.488  16.481  0.3504  2.2287  1.4442
   85SOPE  H17S 7930   0.772   4.503  16.558 -0.4120 -1.0900 -0.8604
   85SOPE  C218 7931   0.782   4.583  16.352  0.8518  0.9925 -0.3663
   85SOPE  H18R 7932   0.806   4.687  16.380  1.0063  0.7839  0.2792
   85SOPE  H18S 7933   0.672   4.573  16.338  0.3631  1.9582  2.2494
   85SOPE  H18T 7934   0.829   4.555  16.255 -0.2094  0.0682 -0.6369
   85SOPE   C33 7935   0.473   3.550  15.418 -0.8255  0.1554  0.4157
   85SOPE   H3X 7936   0.515   3.490  15.502 -1.1045 -1.7625 -0.7652
   85SOPE   H3Y 7937   0.435   3.490  15.334  1.6201  0.2550 -0.8643
   85SOPE   C34 7938   0.352   3.629  15.477  0.1047  0.0463 -0.0026
   85SOPE   H4X 7939   0.299   3.683  15.396 -0.9949 -0.1333  0.5683
   85SOPE   H4Y 7940   0.394   3.710  15.540 -2.2608  0.3247  1.3494
   85SOPE   C35 7941   0.277   3.539  15.575 -0.2599 -0.1084 -0.3433
   85SOPE   H5X 7942   0.344   3.485  15.646 -0.7182  0.3402  0.4391
   85SOPE   H5Y 7943   0.222   3.468  15.510  1.2683  0.9316 -2.9225
   85SOPE   C36 7944   0.174   3.625  15.658 -0.2912 -0.1131 -0.0599
   85SOPE   H6X 7945   0.112   3.682  15.586 -0.1177 -0.9567 -0.9050
   85SOPE   H6Y 7946   0.223   3.705  15.717 -0.6994 -0.4498  0.7484
   85SOPE   C37 7947   0.093   3.529  15.749  0.6892 -0.4008 -0.0407
   85SOPE   H7X 7948   0.155   3.457  15.807  1.1661  1.1167  1.4383
   85SOPE   H7Y 7949   0.033   3.459  15.687 -1.0984  1.6984 -0.8154
   85SOPE   C38 7950  -0.010   3.589  15.837  0.9051 -0.0629  0.3080
   85SOPE   H8X 7951  -0.084   3.657  15.789 -1.4879 -2.5298  0.2923
   85SOPE   H8Y 7952   0.048   3.657  15.904  0.7576  0.0331  0.3386
   85SOPE   C39 7953  -0.093   3.486  15.905  0.1524  0.8969  0.3670
   85SOPE   H9X 7954  -0.029   3.399  15.930 -2.0550 -0.0388  3.3050
   85SOPE   H9Y 7955  -0.173   3.445  15.840  1.0156 -0.6599  0.2492
   85SOPE  C310 7956  -0.140   3.514  16.048  0.6664  0.1251 -0.6083
   85SOPE  H10X 7957  -0.195   3.608  16.070  1.7146  0.4791  0.5771
   85SOPE  H10Y 7958  -0.050   3.517  16.112 -1.2927  1.6865  2.3257
   85SOPE  C311 7959  -0.214   3.385  16.094  0.7330  0.7191  0.2823
   85SOPE  H11X 7960  -0.160   3.291  16.070 -1.0157 -0.5166  0.9757
   85SOPE  H11Y 7961  -0.307   3.372  16.035  1.2681  1.7030 -0.8362
   85SOPE  C312 7962  -0.239   3.382  16.244  0.5308  0.7351 -0.0086
   85SOPE  H12X 7963  -0.270   3.479  16.290  0.5212 -1.1363  4.3651
   85SOPE  H12Y 7964  -0.142   3.355  16.289 -0.2871 -2.3378  0.0902
   85SOPE  C313 7965  -0.340   3.270  16.277  0.9295  0.2572 -0.2137
   85SOPE  H13X 7966  -0.432   3.270  16.215  1.8171  1.2263 -1.6137
   85SOPE  H13Y 7967  -0.378   3.300  16.377  0.1198  0.3123 -0.5351
   85SOPE  C314 7968  -0.286   3.127  16.276 -0.0030 -0.4169 -0.1778
   85SOPE  H14X 7969  -0.190   3.112  16.329  1.2415  0.6008 -2.0583
   85SOPE  H14Y 7970  -0.267   3.095  16.172  0.2829  0.8696 -0.5418
   85SOPE  C315 7971  -0.384   3.020  16.329 -0.8025  0.4287  0.0666
   85SOPE  H15X 7972  -0.485   3.036  16.285 -0.6252 -0.4740 -0.7221
   85SOPE  H15Y 7973  -0.395   2.998  16.437  0.1867 -4.3721 -0.5539
   85SOPE  C316 7974  -0.354   2.873  16.274 -0.1640  0.6777 -0.2496
   85SOPE  H16X 7975  -0.335   2.878  16.164  1.4585  0.2506 -0.0090
   85SOPE  H16Y 7976  -0.451   2.821  16.291  0.6110 -0.5294  0.5647
   85SOPE  C317 7977  -0.234   2.799  16.320  0.2501 -0.4797  0.0752
   85SOPE  H17X 7978  -0.139   2.855  16.307 -0.0248  0.2154  0.9158
   85SOPE  H17Y 7979  -0.219   2.709  16.256  1.3834 -0.1558 -0.1406
   85SOPE  C318 7980  -0.259   2.752  16.462  0.0953  0.0755 -0.8140
   85SOPE  H18X 7981  -0.355   2.697  16.471  0.9445 -1.0667  3.3489
   85SOPE  H18Y 7982  -0.259   2.838  16.532  0.7634 -0.2028 -0.4567
   85SOPE  H18Z 7983  -0.179   2.687  16.505 -0.2289  0.5609  0.5741
   86SOPE     N 7984   1.808   0.288  14.633  0.0156  0.1456 -0.3224
   86SOPE   HN1 7985   1.804   0.269  14.531  0.2597  2.1469 -0.7562
   86SOPE   HN2 7986   1.867   0.212  14.672 -0.1476 -0.0308 -0.4183
   86SOPE   HN3 7987   1.714   0.295  14.678 -0.1805  0.0380 -0.7075
   86SOPE   C12 7988   1.881   0.416  14.649 -0.2387  0.0841 -0.7047
   86SOPE  H12A 7989   1.839   0.490  14.577 -1.3269 -0.1025 -0.2806
   86SOPE  H12B 7990   1.982   0.386  14.615  0.1023  0.8481 -0.3838
   86SOPE   C11 7991   1.878   0.480  14.795 -0.2885 -0.6142  0.6233
   86SOPE  H11A 7992   1.779   0.526  14.816  0.9753  2.6339  0.0514
   86SOPE  H11B 7993   1.940   0.572  14.802 -0.2602 -0.5329 -0.4646
   86SOPE     P 7994   2.082   0.357  14.905 -0.3298 -0.5153  0.0208
   86SOPE   O13 7995   2.154   0.390  14.785 -0.4950  0.2929  0.9478
   86SOPE   O14 7996   2.094   0.218  14.958 -0.3930  0.9147 -0.1943
   86SOPE   O12 7997   1.923   0.389  14.894 -0.3051  0.0133 -0.0289
   86SOPE   O11 7998   2.133   0.453  15.005  0.2568  0.0244  0.2960
   86SOPE    C1 7999   2.077   0.475  15.138 -0.1145  0.7750 -0.2329
   86SOPE    HA 8000   2.157   0.497  15.212  0.1833  1.4852 -0.7509
   86SOPE    HB 8001   2.026   0.385  15.180 -1.9960  2.3753  1.1100
   86SOPE    C2 8002   1.994   0.602  15.141  0.5049 -0.6673 -0.0448
   86SOPE    HS 8003   1.938   0.597  15.045 -1.3197 -0.3741  0.9558
   86SOPE   O21 8004   2.081   0.717  15.140 -0.3822  0.4541  0.4750
   86SOPE   C21 8005   2.030   0.821  15.080  0.3036 -0.5714  0.0746
   86SOPE   O22 8006   1.933   0.824  15.008 -0.3905  0.1427  0.2741
   86SOPE   C22 8007   2.112   0.944  15.114 -0.1217 -0.7327 -1.0908
   86SOPE   H2R 8008   2.218   0.921  15.089  0.1860 -0.0937 -0.4151
   86SOPE   H2S 8009   2.100   0.959  15.223 -1.2914 -0.3848 -1.2578
   86SOPE    C3 8010   1.895   0.601  15.264 -0.2752  0.1153  0.2595
   86SOPE    HX 8011   1.950   0.593  15.360 -0.1980  1.8330  0.3832
   86SOPE    HY 8012   1.846   0.503  15.246 -2.1625  1.0942 -0.1972
   86SOPE   O31 8013   1.808   0.714  15.276  0.4057  0.0030  0.5759
   86SOPE   C31 8014   1.696   0.703  15.202 -0.5792 -0.8041  0.8749
   86SOPE   O32 8015   1.669   0.612  15.130 -0.1778  0.3245  0.8842
   86SOPE   C32 8016   1.626   0.839  15.215  0.3055 -0.6578  0.0615
   86SOPE   H2X 8017   1.564   0.852  15.123  1.8833  2.9711 -0.6597
   86SOPE   H2Y 8018   1.705   0.917  15.217 -0.9561  0.6930 -1.0324
   86SOPE   C23 8019   2.073   1.069  15.032  0.4309 -0.1841  0.4358
   86SOPE   H3R 8020   1.985   1.055  14.966  1.6322  0.0483 -1.2816
   86SOPE   H3S 8021   2.143   1.098  14.951  0.1598  1.1046  0.6438
   86SOPE   C24 8022   2.049   1.189  15.124  0.3454  0.8567  0.4642
   86SOPE   H4R 8023   2.134   1.192  15.195  1.6696  1.5595 -1.0946
   86SOPE   H4S 8024   2.059   1.277  15.057  2.2418  0.8793  0.7099
   86SOPE   C25 8025   1.913   1.196  15.193  0.8257  0.0420 -1.2571
   86SOPE   H5R 8026   1.842   1.222  15.112 -0.0642  1.1396 -0.1658
   86SOPE   H5S 8027   1.894   1.096  15.237 -0.6117  1.7507  2.4387
   86SOPE   C26 8028   1.909   1.294  15.315  0.2035  0.6210  0.3194
   86SOPE   H6R 8029   1.974   1.252  15.394 -0.9749  1.4509  1.7948
   86SOPE   H6S 8030   1.961   1.388  15.287  2.5437 -0.5884  0.3661
   86SOPE   C27 8031   1.763   1.310  15.383 -0.3913 -0.3718 -0.6138
   86SOPE   H7R 8032   1.690   1.339  15.305 -0.6566 -0.4310 -0.3908
   86SOPE   H7S 8033   1.724   1.213  15.421  1.6276 -1.5607 -1.4230
   86SOPE   C28 8034   1.768   1.417  15.497  0.1924  0.4843 -0.6396
   86SOPE   H8R 8035   1.865   1.403  15.548 -0.3183 -0.5984  0.0802
   86SOPE   H8S 8036   1.774   1.518  15.451  1.4255  0.7039 -0.0451
   86SOPE   C29 8037   1.670   1.404  15.606  0.3976  0.3176 -0.1532
   86SOPE   H91 8038   1.570   1.449  15.591 -0.7064 -2.0482 -0.2510
   86SOPE  C210 8039   1.686   1.342  15.723  0.2835  0.0742 -0.3498
   86SOPE  H101 8040   1.602   1.344  15.794  0.5115  0.2390 -0.0833
   86SOPE  C211 8041   1.806   1.258  15.763 -0.9861  0.5069 -0.1604
   86SOPE  H11R 8042   1.884   1.260  15.684 -2.7777  0.7775 -2.0071
   86SOPE  H11S 8043   1.787   1.149  15.776  0.7111  0.1158 -0.6626
   86SOPE  C212 8044   1.863   1.310  15.891 -0.1150 -0.6464 -0.2327
   86SOPE  H12R 8045   1.793   1.298  15.977  3.1341 -1.6375  2.5120
   86SOPE  H12S 8046   1.865   1.420  15.881 -0.5996 -0.6525 -0.4235
   86SOPE  C213 8047   1.994   1.257  15.939  0.4254  0.3423 -1.2142
   86SOPE  H13R 8048   2.069   1.264  15.858  1.9015  1.2761  0.1681
   86SOPE  H13S 8049   1.977   1.152  15.971  1.9623  0.1203 -1.0405
   86SOPE  C214 8050   2.055   1.342  16.061 -0.4524 -0.2331 -0.5119
   86SOPE  H14R 8051   2.114   1.267  16.118  0.4081 -0.8502 -2.1339
   86SOPE  H14S 8052   1.972   1.375  16.126  0.9819 -0.1660  1.3741
   86SOPE  C215 8053   2.149   1.457  16.025 -0.7639  0.4083  0.2508
   86SOPE  H15R 8054   2.094   1.524  15.956 -0.7852 -0.0803 -0.2044
   86SOPE  H15S 8055   2.235   1.416  15.968 -2.5303 -3.3121  0.0123
   86SOPE  C216 8056   2.200   1.530  16.147 -0.3598  0.1247  0.0156
   86SOPE  H16R 8057   2.300   1.494  16.178 -1.1119 -0.1383  2.2932
   86SOPE  H16S 8058   2.127   1.511  16.228 -1.7400  2.6285 -0.5166
   86SOPE  C217 8059   2.214   1.680  16.123  0.5148 -0.3707  0.5196
   86SOPE  H17R 8060   2.274   1.726  16.205  0.0982  1.6409 -0.2666
   86SOPE  H17S 8061   2.115   1.729  16.119  0.9548  0.5283  0.4715
   86SOPE  C218 8062   2.288   1.724  15.993 -0.4924 -0.0752  0.3675
   86SOPE  H18R 8063   2.292   1.836  15.991  1.6492 -0.1039 -1.1695
   86SOPE  H18S 8064   2.232   1.701  15.900 -0.1113 -0.0102  0.1149
   86SOPE  H18T 8065   2.391   1.686  15.974  0.9345  3.2463  0.6100
   86SOPE   C33 8066   1.538   0.863  15.337  0.2037  0.1502 -1.0466
   86SOPE   H3X 8067   1.588   0.854  15.436  1.1031 -1.5758 -1.6077
   86SOPE   H3Y 8068   1.452   0.792  15.342 -0.1879  0.7081  1.2302
   86SOPE   C34 8069   1.475   1.000  15.341 -0.5504  0.0049  1.0602
   86SOPE   H4X 8070   1.417   1.016  15.248 -0.3237  1.1833  1.1047
   86SOPE   H4Y 8071   1.553   1.078  15.329  1.1908 -0.9995  4.5210
   86SOPE   C35 8072   1.384   1.037  15.464  0.5121 -0.4083  0.4640
   86SOPE   H5X 8073   1.408   0.983  15.558 -1.3233  0.0062  1.2092
   86SOPE   H5Y 8074   1.275   1.022  15.448  0.7377 -1.8797  0.1745
   86SOPE   C36 8075   1.411   1.182  15.502  1.1480 -0.3407 -0.5617
   86SOPE   H6X 8076   1.390   1.238  15.408 -2.3532  0.6175  0.6391
   86SOPE   H6Y 8077   1.519   1.179  15.525  1.8514  2.6114 -2.8316
   86SOPE   C37 8078   1.331   1.242  15.615  0.4791 -0.3460  0.6026
   86SOPE   H7X 8079   1.367   1.347  15.630 -0.3626  0.4964 -2.6147
   86SOPE   H7Y 8080   1.350   1.187  15.710  2.8441  0.4331  0.6639
   86SOPE   C38 8081   1.180   1.245  15.596  0.4327 -0.6755  0.2390
   86SOPE   H8X 8082   1.128   1.230  15.693 -0.2336  1.3523  0.2399
   86SOPE   H8Y 8083   1.144   1.159  15.536  1.8620 -1.5364  0.5396
   86SOPE   C39 8084   1.132   1.365  15.524  0.0977 -0.8379  0.4953
   86SOPE   H9X 8085   1.216   1.405  15.464  0.3848 -4.0274 -1.4379
   86SOPE   H9Y 8086   1.094   1.441  15.596 -0.8542 -0.8696  0.0274
   86SOPE  C310 8087   1.014   1.333  15.431 -0.0074  0.1808 -0.0813
   86SOPE  H10X 8088   1.025   1.253  15.355  1.7779 -0.5429  0.8782
   86SOPE  H10Y 8089   1.014   1.433  15.382  0.2406 -0.7210 -2.0073
   86SOPE  C311 8090   0.889   1.307  15.513 -0.0943 -0.3509  0.3569
   86SOPE  H11X 8091   0.872   1.401  15.569 -0.1829 -1.1842  1.7704
   86SOPE  H11Y 8092   0.922   1.226  15.581 -0.8860  1.3907  2.9595
   86SOPE  C312 8093   0.768   1.264  15.420  0.6718  0.1743  0.5031
   86SOPE  H12X 8094   0.790   1.175  15.357  1.1863  0.8942 -0.3718
   86SOPE  H12Y 8095   0.730   1.344  15.353 -0.3910  1.7302  2.8388
   86SOPE  C313 8096   0.654   1.222  15.514 -0.5137 -0.5415  1.1233
   86SOPE  H13X 8097   0.617   1.316  15.561 -1.7411  0.1305 -1.0513
   86SOPE  H13Y 8098   0.699   1.157  15.593  2.0410  1.5239  1.5146
   86SOPE  C314 8099   0.536   1.154  15.446 -0.6263  0.7984  1.0820
   86SOPE  H14X 8100   0.564   1.065  15.385 -1.0554  2.1245 -1.1462
   86SOPE  H14Y 8101   0.481   1.217  15.374 -0.3303 -1.6055 -1.4067
   86SOPE  C315 8102   0.434   1.075  15.529  0.1350  0.2904  1.0033
   86SOPE  H15X 8103   0.387   1.133  15.612  0.6536 -0.4189  1.8055
   86SOPE  H15Y 8104   0.479   0.984  15.574  2.6212  0.7848 -0.3078
   86SOPE  C316 8105   0.318   1.043  15.438 -0.1421 -0.0924 -0.1607
   86SOPE  H16X 8106   0.359   0.976  15.360 -0.1457  0.0351 -0.2714
   86SOPE  H16Y 8107   0.286   1.137  15.389 -0.3781 -0.0811  0.0119
   86SOPE  C317 8108   0.194   0.977  15.505  0.3338  0.2455 -0.5663
   86SOPE  H17X 8109   0.118   0.969  15.424 -0.8698  0.2941  0.5098
   86SOPE  H17Y 8110   0.139   1.038  15.581 -2.0640 -0.1322 -1.8844
   86SOPE  C318 8111   0.220   0.839  15.556 -1.1235  0.4145 -0.1013
   86SOPE  H18X 8112   0.132   0.772  15.553 -1.3543  0.7275 -0.3842
   86SOPE  H18Y 8113   0.252   0.854  15.662  1.9332 -0.9003 -0.7400
   86SOPE  H18Z 8114   0.305   0.793  15.502 -1.8794 -1.8906  0.5747
   87SOPE     N 8115   2.632   2.782  13.348  0.1930  0.1298 -0.0534
   87SOPE   HN1 8116   2.623   2.680  13.364  2.0578 -0.1755 -0.6933
   87SOPE   HN2 8117   2.578   2.831  13.422  1.8052  2.4367 -0.2594
   87SOPE   HN3 8118   2.590   2.806  13.255  0.7047 -0.6777 -0.4996
   87SOPE   C12 8119   2.774   2.823  13.370  0.2068 -0.0946  0.9171
   87SOPE  H12A 8120   2.780   2.934  13.375  0.1073 -0.0812  0.7554
   87SOPE  H12B 8121   2.850   2.778  13.304 -1.0117 -3.3591  1.5455
   87SOPE   C11 8122   2.820   2.790  13.516  0.2870 -0.2455  0.2428
   87SOPE  H11A 8123   2.923   2.831  13.523  1.7580 -3.1780 -1.9067
   87SOPE  H11B 8124   2.824   2.680  13.529 -1.0258  0.0463  4.8612
   87SOPE     P 8125   2.747   2.808  13.769 -0.2325 -0.1605 -0.0301
   87SOPE   O13 8126   2.722   2.666  13.800 -0.5600  0.2194 -0.2378
   87SOPE   O14 8127   2.657   2.901  13.835  0.3573  0.1993 -0.2299
   87SOPE   O12 8128   2.730   2.832  13.616  0.8940  0.2544  0.2290
   87SOPE   O11 8129   2.891   2.856  13.809 -0.5938 -0.5002 -0.5605
   87SOPE    C1 8130   2.992   2.757  13.835 -0.2333  0.3736 -0.7714
   87SOPE    HA 8131   3.025   2.705  13.743 -0.1798 -2.1785  0.5802
   87SOPE    HB 8132   2.956   2.679  13.906  0.0705  0.9998  0.0886
   87SOPE    C2 8133   3.111   2.836  13.898  0.2919  0.4711  0.6390
   87SOPE    HS 8134   3.074   2.886  13.990  1.6536  1.0336  0.9050
   87SOPE   O21 8135   3.164   2.915  13.788 -0.1052 -0.7146 -0.3423
   87SOPE   C21 8136   3.225   3.029  13.821  0.1873  0.2206 -0.1496
   87SOPE   O22 8137   3.231   3.072  13.932  0.2097  0.1064  0.1539
   87SOPE   C22 8138   3.268   3.098  13.691 -0.5033 -0.5862 -0.0252
   87SOPE   H2R 8139   3.189   3.082  13.614  2.0949 -2.2670 -2.5568
   87SOPE   H2S 8140   3.362   3.060  13.646 -0.2513 -0.1213  0.1044
   87SOPE    C3 8141   3.223   2.744  13.945 -0.2384  0.4519  0.1197
   87SOPE    HX 8142   3.226   2.669  13.864 -1.9317 -0.4884  0.8801
   87SOPE    HY 8143   3.184   2.687  14.032 -1.3157 -0.5618 -0.9980
   87SOPE   O31 8144   3.346   2.818  13.958 -0.3018 -0.1596 -0.0819
   87SOPE   C31 8145   3.385   2.848  14.083 -0.0575  0.4691  1.0761
   87SOPE   O32 8146   3.321   2.806  14.176 -0.2769  0.4337 -0.0424
   87SOPE   C32 8147   3.518   2.917  14.086 -0.3906 -0.1566 -0.0136
   87SOPE   H2X 8148   3.518   2.987  14.000  1.4471  0.3503  0.3542
   87SOPE   H2Y 8149   3.592   2.835  14.072  0.0409 -0.2278  2.3628
   87SOPE   C23 8150   3.279   3.256  13.687  0.4606 -0.2285  0.2143
   87SOPE   H3R 8151   3.184   3.296  13.728  0.4708  0.2153 -0.1835
   87SOPE   H3S 8152   3.300   3.292  13.584 -0.5321 -3.1374 -1.1162
   87SOPE   C24 8153   3.406   3.304  13.770 -0.3133 -0.1057  0.2263
   87SOPE   H4R 8154   3.392   3.272  13.876 -1.0723  0.3482  0.2748
   87SOPE   H4S 8155   3.495   3.250  13.731  0.9287  1.5005  0.7399
   87SOPE   C25 8156   3.436   3.461  13.764  0.9372  0.2001  0.9357
   87SOPE   H5R 8157   3.492   3.474  13.669  1.5279  0.9833  1.3790
   87SOPE   H5S 8158   3.331   3.490  13.745 -0.1255 -1.6772  3.4309
   87SOPE   C26 8159   3.519   3.516  13.870  0.6688 -0.6261  0.1673
   87SOPE   H6R 8160   3.524   3.626  13.855 -0.1292 -0.4324  1.2379
   87SOPE   H6S 8161   3.466   3.497  13.966 -0.9096  0.0434 -0.5384
   87SOPE   C27 8162   3.662   3.463  13.888  0.3557  0.5279  0.0319
   87SOPE   H7R 8163   3.654   3.359  13.925 -1.6081  0.0125 -1.7010
   87SOPE   H7S 8164   3.710   3.467  13.788  1.1120  4.4519  0.3721
   87SOPE   C28 8165   3.744   3.555  13.979 -0.7897  0.6051 -0.4972
   87SOPE   H8R 8166   3.845   3.512  14.000 -0.4091  0.9186 -1.6057
   87SOPE   H8S 8167   3.750   3.651  13.924 -2.8281  0.9111 -0.2617
   87SOPE   C29 8168   3.670   3.581  14.106  0.3284  0.7341  0.2546
   87SOPE   H91 8169   3.639   3.484  14.149  2.4031 -0.9556 -1.7313
   87SOPE  C210 8170   3.664   3.693  14.178  0.0946  0.1215  0.1673
   87SOPE  H101 8171   3.614   3.694  14.276  0.4524  1.5297  0.3675
   87SOPE  C211 8172   3.716   3.833  14.139  0.3848 -0.0918  0.0403
   87SOPE  H11R 8173   3.632   3.906  14.142  0.9701  0.5902  0.1256
   87SOPE  H11S 8174   3.748   3.822  14.033 -2.9265  0.3097 -1.1248
   87SOPE  C212 8175   3.827   3.903  14.222  0.1436  0.7081  0.3041
   87SOPE  H12R 8176   3.923   3.852  14.199 -1.0185 -1.2009 -0.6227
   87SOPE  H12S 8177   3.803   3.882  14.329 -0.2183  1.8727  0.4579
   87SOPE  C213 8178   3.836   4.055  14.212 -0.3918 -0.3464 -0.4072
   87SOPE  H13R 8179   3.916   4.078  14.285  0.3855 -0.1837 -1.2890
   87SOPE  H13S 8180   3.737   4.096  14.241 -0.3134 -1.4688  1.6837
   87SOPE  C214 8181   3.870   4.117  14.080 -0.4735 -0.0157  0.1567
   87SOPE  H14R 8182   3.774   4.114  14.024 -1.9495  0.0465  2.5401
   87SOPE  H14S 8183   3.930   4.050  14.015 -1.7360 -0.2572 -0.8091
   87SOPE  C215 8184   3.951   4.249  14.087  0.1918  0.0473  0.2536
   87SOPE  H15R 8185   3.955   4.280  13.981 -4.0556 -0.2633 -0.2042
   87SOPE  H15S 8186   4.051   4.224  14.127  1.2668  1.7095 -1.2883
   87SOPE  C216 8187   3.888   4.348  14.186  0.0277 -0.0094 -0.6405
   87SOPE  H16R 8188   3.950   4.337  14.278 -0.3714 -1.0219 -0.4831
   87SOPE  H16S 8189   3.781   4.336  14.214 -0.0158  1.3505 -0.1157
   87SOPE  C217 8190   3.902   4.487  14.136  0.1389  0.2657 -0.6113
   87SOPE  H17R 8191   3.846   4.478  14.041  0.1014  0.6159 -0.6216
   87SOPE  H17S 8192   4.007   4.506  14.105  0.7168 -1.7489 -0.0623
   87SOPE  C218 8193   3.850   4.595  14.230  0.3365  0.6649 -0.2452
   87SOPE  H18R 8194   3.917   4.616  14.316  0.2610  1.9635 -0.4732
   87SOPE  H18S 8195   3.755   4.555  14.271  1.8222 -3.8252 -0.6351
   87SOPE  H18T 8196   3.825   4.686  14.170 -0.6068 -1.0464 -2.5903
   87SOPE   C33 8197   3.557   2.994  14.212 -0.2934 -0.8492  0.2038
   87SOPE   H3X 8198   3.664   3.021  14.215 -0.3575  0.0068 -2.7078
   87SOPE   H3Y 8199   3.552   2.926  14.300  1.2484  1.6199  2.3695
   87SOPE   C34 8200   3.496   3.132  14.250  0.3789 -0.4112  0.4907
   87SOPE   H4X 8201   3.386   3.124  14.246  0.2741  1.0934 -0.1741
   87SOPE   H4Y 8202   3.536   3.219  14.194  2.1139  0.1368  2.4632
   87SOPE   C35 8203   3.526   3.173  14.392  0.5968  0.0614  0.0494
   87SOPE   H5X 8204   3.500   3.083  14.452  0.7481  0.2244  0.3544
   87SOPE   H5Y 8205   3.460   3.255  14.427 -0.1178 -0.1020 -0.8489
   87SOPE   C36 8206   3.663   3.195  14.434 -0.7859 -0.2741  0.8037
   87SOPE   H6X 8207   3.726   3.107  14.411 -1.0820 -0.3403  0.2133
   87SOPE   H6Y 8208   3.683   3.212  14.542 -2.3453 -0.3874  1.1361
   87SOPE   C37 8209   3.727   3.328  14.376 -0.4466  0.1665 -0.3320
   87SOPE   H7X 8210   3.667   3.411  14.418  0.3891  0.8366 -0.4354
   87SOPE   H7Y 8211   3.726   3.326  14.265  1.8051 -0.6828 -0.3773
   87SOPE   C38 8212   3.875   3.357  14.423  0.0383 -0.4706 -0.3307
   87SOPE   H8X 8213   3.944   3.288  14.371  0.5360 -1.3247  1.3729
   87SOPE   H8Y 8214   3.886   3.345  14.533 -1.7456  3.2715  0.4270
   87SOPE   C39 8215   3.926   3.503  14.385  0.5617 -0.7521  1.1910
   87SOPE   H9X 8216   3.847   3.581  14.391  2.9292  1.8151  1.0168
   87SOPE   H9Y 8217   3.960   3.511  14.280  0.8747  2.0211  1.4354
   87SOPE  C310 8218   4.026   3.561  14.484 -0.8315 -0.2125 -0.1999
   87SOPE  H10X 8219   4.095   3.485  14.526 -0.6304  1.0849  1.9745
   87SOPE  H10Y 8220   3.979   3.596  14.578 -0.1432 -0.7095  0.3383
   87SOPE  C311 8221   4.118   3.669  14.423  0.7943 -0.0205 -0.5214
   87SOPE  H11X 8222   4.047   3.750  14.396  0.3952  0.7877  2.5512
   87SOPE  H11Y 8223   4.168   3.632  14.331  0.9610 -0.1653 -0.3742
   87SOPE  C312 8224   4.219   3.727  14.520 -0.8562 -1.0379 -0.1291
   87SOPE  H12X 8225   4.304   3.784  14.478 -0.6655 -0.7513  0.6294
   87SOPE  H12Y 8226   4.269   3.643  14.572 -1.9930 -0.7468  1.5164
   87SOPE  C313 8227   4.156   3.821  14.631  0.1149  0.4582 -1.0055
   87SOPE  H13X 8228   4.087   3.750  14.682  0.5536  1.0488  0.4602
   87SOPE  H13Y 8229   4.107   3.915  14.600  0.7813  1.3515  0.5608
   87SOPE  C314 8230   4.263   3.860  14.726 -0.4467 -0.8332  1.0729
   87SOPE  H14X 8231   4.310   3.942  14.668 -0.0935 -1.2983  0.7011
   87SOPE  H14Y 8232   4.333   3.775  14.733 -1.1663 -1.5204  0.2028
   87SOPE  C315 8233   4.207   3.908  14.857  0.4628 -0.6437  0.4768
   87SOPE  H15X 8234   4.168   3.825  14.919 -3.2152  0.8086  0.3963
   87SOPE  H15Y 8235   4.131   3.989  14.845  2.7873  1.6110  0.0385
   87SOPE  C316 8236   4.312   3.984  14.943 -0.3963  1.0604  0.0822
   87SOPE  H16X 8237   4.406   3.927  14.957 -0.5937  0.2597 -1.6167
   87SOPE  H16Y 8238   4.266   3.980  15.044  1.1089 -2.1797  0.7614
   87SOPE  C317 8239   4.343   4.115  14.876 -0.5247 -0.1680  0.0587
   87SOPE  H17X 8240   4.254   4.162  14.829 -0.6574 -1.8170 -1.4948
   87SOPE  H17Y 8241   4.419   4.089  14.798 -1.5413 -1.9137 -0.4155
   87SOPE  C318 8242   4.388   4.231  14.972 -0.6290 -1.3255  0.2106
   87SOPE  H18X 8243   4.329   4.221  15.066  0.1947 -0.1145  0.8880
   87SOPE  H18Y 8244   4.370   4.321  14.909 -0.0703  0.0238  1.8923
   87SOPE  H18Z 8245   4.497   4.212  14.987 -0.2886  1.3816  1.8269
   88SOPE     N 8246   2.390   0.215  11.369  0.3760  0.1698  0.1669
   88SOPE   HN1 8247   2.349   0.121  11.385  0.3941  0.1582  0.1453
   88SOPE   HN2 8248   2.389   0.225  11.265 -2.3945  1.5077  0.2278
   88SOPE   HN3 8249   2.482   0.222  11.418  1.0588  1.6026 -1.2199
   88SOPE   C12 8250   2.301   0.322  11.428 -0.3239  0.4262 -0.2370
   88SOPE  H12A 8251   2.200   0.296  11.389 -0.4186  0.6924 -0.1693
   88SOPE  H12B 8252   2.328   0.425  11.397 -0.5052  0.0775 -1.6255
   88SOPE   C11 8253   2.294   0.314  11.584 -0.3815  0.8231 -0.0440
   88SOPE  H11A 8254   2.242   0.400  11.630 -1.1542 -0.2914  1.2255
   88SOPE  H11B 8255   2.401   0.308  11.616 -0.3655  0.4705 -0.1591
   88SOPE     P 8256   2.078   0.169  11.657 -0.1833  0.1412  0.2981
   88SOPE   O13 8257   2.063   0.034  11.714 -0.1717  0.0079  0.3830
   88SOPE   O14 8258   1.993   0.213  11.542  0.1861  0.1720  0.0171
   88SOPE   O12 8259   2.236   0.187  11.624 -0.1178 -0.3843 -0.7317
   88SOPE   O11 8260   2.047   0.276  11.769  0.4479 -0.1102  0.8256
   88SOPE    C1 8261   2.145   0.290  11.875 -0.4803  0.2426 -0.4796
   88SOPE    HA 8262   2.244   0.328  11.840  0.0890  0.7680  1.5618
   88SOPE    HB 8263   2.144   0.203  11.945 -2.6415  0.6177  0.0187
   88SOPE    C2 8264   2.096   0.411  11.961 -0.0134 -0.4150 -0.1440
   88SOPE    HS 8265   1.991   0.393  11.992  0.0221  0.1542  0.3056
   88SOPE   O21 8266   2.124   0.538  11.888 -0.0789 -0.2188  0.1228
   88SOPE   C21 8267   2.019   0.616  11.894  0.8457  0.2322 -0.4000
   88SOPE   O22 8268   1.921   0.604  11.967 -0.1943 -0.3477  0.2032
   88SOPE   C22 8269   2.026   0.726  11.795  0.5069  0.3393  0.2303
   88SOPE   H2R 8270   2.040   0.688  11.692 -1.8818  3.4876 -1.4248
   88SOPE   H2S 8271   2.109   0.794  11.823  0.2012  0.6167  0.4698
   88SOPE    C3 8272   2.185   0.406  12.098 -0.3363  0.3261  0.5874
   88SOPE    HX 8273   2.290   0.427  12.068 -1.2053  5.4238  0.2633
   88SOPE    HY 8274   2.182   0.306  12.147 -1.7377  0.0447 -0.0153
   88SOPE   O31 8275   2.146   0.508  12.178 -0.2402 -0.2877  0.0035
   88SOPE   C31 8276   2.058   0.483  12.274  0.4311 -0.7267 -0.0077
   88SOPE   O32 8277   2.000   0.378  12.290 -0.3885 -0.1675  0.1567
   88SOPE   C32 8278   2.032   0.611  12.351  0.5064  0.1699  0.3674
   88SOPE   H2X 8279   2.092   0.694  12.309 -0.2735 -0.4026 -1.9972
   88SOPE   H2Y 8280   2.088   0.586  12.443  0.8974  0.0338  0.0932
   88SOPE   C23 8281   1.904   0.815  11.793 -0.1530  0.1354 -0.2637
   88SOPE   H3R 8282   1.898   0.870  11.889 -0.6567  0.3479 -0.4099
   88SOPE   H3S 8283   1.803   0.770  11.785 -0.1258 -0.0743  0.5034
   88SOPE   C24 8284   1.909   0.921  11.674  0.0613  0.3763 -0.0847
   88SOPE   H4R 8285   2.006   0.970  11.694  0.0003  0.7799 -0.7416
   88SOPE   H4S 8286   1.904   0.888  11.568  3.4119  2.0705 -0.9125
   88SOPE   C25 8287   1.816   1.044  11.705 -0.8973 -0.4373 -0.8055
   88SOPE   H5R 8288   1.714   1.001  11.709 -1.1861  0.2073 -1.0378
   88SOPE   H5S 8289   1.835   1.083  11.808 -5.4675 -1.1879  0.5616
   88SOPE   C26 8290   1.833   1.170  11.614  0.0130  0.4961 -0.3261
   88SOPE   H6R 8291   1.842   1.114  11.519 -1.2360 -1.4291  0.6211
   88SOPE   H6S 8292   1.735   1.222  11.617  0.3866  1.1861  1.5283
   88SOPE   C27 8293   1.943   1.268  11.656 -0.1819 -0.1297 -0.4168
   88SOPE   H7R 8294   2.035   1.214  11.688 -0.1731 -0.7516 -1.4411
   88SOPE   H7S 8295   1.964   1.336  11.571 -0.1341 -0.5064 -0.7077
   88SOPE   C28 8296   1.900   1.374  11.762 -0.1701  1.0193 -0.0205
   88SOPE   H8R 8297   1.806   1.421  11.727 -0.4925 -1.2701 -2.5297
   88SOPE   H8S 8298   1.886   1.323  11.860 -0.8211  0.7252 -0.2599
   88SOPE   C29 8299   2.009   1.476  11.789 -0.6641 -0.4709 -0.6563
   88SOPE   H91 8300   2.100   1.426  11.825 -0.7136  0.2476  0.5386
   88SOPE  C210 8301   2.021   1.613  11.770 -0.4395  0.3228 -0.6911
   88SOPE  H101 8302   2.110   1.666  11.805  0.7708 -1.1872 -1.3810
   88SOPE  C211 8303   1.917   1.701  11.708 -0.4970  0.1084 -0.5864
   88SOPE  H11R 8304   1.889   1.791  11.767 -1.2666 -0.7780  0.4593
   88SOPE  H11S 8305   1.827   1.638  11.697 -1.6283  1.7256 -0.9770
   88SOPE  C212 8306   1.964   1.748  11.574  0.1722 -0.2898  0.2266
   88SOPE  H12R 8307   1.882   1.803  11.521  0.4902  0.8392  0.8735
   88SOPE  H12S 8308   1.983   1.664  11.504 -1.3595  1.7136 -2.8314
   88SOPE  C213 8309   2.082   1.845  11.575 -0.4324 -0.4267  0.3580
   88SOPE  H13R 8310   2.180   1.795  11.589 -0.3278  0.0105  1.2159
   88SOPE  H13S 8311   2.065   1.921  11.653  0.0264  0.8871 -0.7649
   88SOPE  C214 8312   2.080   1.932  11.439 -0.2162  0.5672 -1.0306
   88SOPE  H14R 8313   1.986   1.992  11.435  0.1339  1.1264 -0.9939
   88SOPE  H14S 8314   2.090   1.865  11.351  1.4477  1.9370 -1.9416
   88SOPE  C215 8315   2.187   2.038  11.437 -0.1717  0.9814 -0.2241
   88SOPE  H15R 8316   2.193   2.100  11.529 -0.2415 -1.3619  1.4517
   88SOPE  H15S 8317   2.163   2.108  11.354  0.6549  0.7879 -0.6407
   88SOPE  C216 8318   2.332   1.993  11.408 -0.1300 -0.3980 -0.2843
   88SOPE  H16R 8319   2.339   1.934  11.314 -0.7191 -1.1703  0.1506
   88SOPE  H16S 8320   2.357   1.914  11.480 -1.0760 -0.5869 -0.1443
   88SOPE  C217 8321   2.423   2.119  11.406  0.0346  1.2475  0.4787
   88SOPE  H17R 8322   2.411   2.187  11.493 -0.8108  1.0826  0.5022
   88SOPE  H17S 8323   2.381   2.166  11.314 -1.1928 -4.1012 -2.1191
   88SOPE  C218 8324   2.571   2.071  11.394  0.3627 -0.0079  0.1570
   88SOPE  H18R 8325   2.599   2.041  11.291  1.5226  1.0536  0.1341
   88SOPE  H18S 8326   2.587   1.987  11.465  2.4136 -0.8507 -1.1955
   88SOPE  H18T 8327   2.651   2.145  11.418  0.9652 -0.1733 -1.2391
   88SOPE   C33 8328   1.882   0.643  12.363 -0.5069 -0.4614  0.8816
   88SOPE   H3X 8329   1.837   0.549  12.400 -1.7141  0.5440  2.0179
   88SOPE   H3Y 8330   1.844   0.665  12.261  3.6616 -0.3851 -0.8855
   88SOPE   C34 8331   1.856   0.764  12.445 -0.2934  0.0282  0.1675
   88SOPE   H4X 8332   1.758   0.810  12.421 -1.4332 -2.1570  0.3184
   88SOPE   H4Y 8333   1.934   0.831  12.403 -1.9394 -0.0971 -3.5189
   88SOPE   C35 8334   1.853   0.734  12.597  0.0968 -0.3415  0.5659
   88SOPE   H5X 8335   1.934   0.663  12.621  0.3225  0.3109  1.8215
   88SOPE   H5Y 8336   1.754   0.696  12.630 -0.6223  2.1883  1.5580
   88SOPE   C36 8337   1.868   0.853  12.697  0.2205 -0.2485 -0.5327
   88SOPE   H6X 8338   1.852   0.804  12.796 -0.4847  0.6270 -0.2023
   88SOPE   H6Y 8339   1.771   0.906  12.696 -0.9389 -2.0024  2.5884
   88SOPE   C37 8340   1.999   0.929  12.701 -0.0904  0.5424  0.0562
   88SOPE   H7X 8341   2.008   0.978  12.602 -2.1331  1.5216  0.3021
   88SOPE   H7Y 8342   2.077   0.851  12.712  0.0741  0.9049  1.7395
   88SOPE   C38 8343   2.005   1.038  12.815 -0.1851  0.5651  0.9393
   88SOPE   H8X 8344   1.966   0.994  12.909  0.0460 -0.3176  0.6242
   88SOPE   H8Y 8345   1.928   1.115  12.793  0.0572 -0.0529 -2.7384
   88SOPE   C39 8346   2.139   1.109  12.829 -0.0182 -0.1852 -0.3434
   88SOPE   H9X 8347   2.173   1.142  12.729 -1.2101 -2.7654 -1.7281
   88SOPE   H9Y 8348   2.212   1.030  12.857  0.2062  0.4045  0.8301
   88SOPE  C310 8349   2.138   1.228  12.928  0.5417  0.4834  0.1107
   88SOPE  H10X 8350   2.165   1.208  13.034 -2.2451  2.1275  1.2165
   88SOPE  H10Y 8351   2.031   1.257  12.937 -0.1054 -1.8743  0.6425
   88SOPE  C311 8352   2.211   1.359  12.881  0.3103 -0.3418  0.2852
   88SOPE  H11X 8353   2.210   1.434  12.963  3.0734 -1.1329  1.1618
   88SOPE  H11Y 8354   2.158   1.397  12.792 -0.1328  0.3132  0.8177
   88SOPE  C312 8355   2.365   1.345  12.850  0.2639  1.3472 -0.7960
   88SOPE  H12X 8356   2.426   1.432  12.820  3.6101 -1.1543 -1.9371
   88SOPE  H12Y 8357   2.387   1.263  12.778 -0.2309  0.0705  0.4505
   88SOPE  C313 8358   2.433   1.297  12.977 -0.6130 -0.5155 -0.5135
   88SOPE  H13X 8359   2.537   1.267  12.950 -0.3058  0.3997 -0.3803
   88SOPE  H13Y 8360   2.393   1.201  13.017  0.5494 -0.8591 -0.1233
   88SOPE  C314 8361   2.439   1.414  13.087 -0.0013 -0.0750 -0.9460
   88SOPE  H14X 8362   2.345   1.432  13.144 -1.2375  0.7747 -3.1529
   88SOPE  H14Y 8363   2.475   1.507  13.039  0.6659  0.2181  0.0739
   88SOPE  C315 8364   2.552   1.383  13.186 -0.6881  0.7104  0.7343
   88SOPE  H15X 8365   2.651   1.348  13.151 -0.7144 -0.5171  1.7940
   88SOPE  H15Y 8366   2.526   1.304  13.260  0.9395 -1.7494 -1.1434
   88SOPE  C316 8367   2.594   1.504  13.265 -0.1278 -0.1459 -0.3167
   88SOPE  H16X 8368   2.499   1.525  13.319  0.3289  0.5067  0.2517
   88SOPE  H16Y 8369   2.620   1.585  13.194 -0.1309  1.2401  1.2213
   88SOPE  C317 8370   2.713   1.477  13.354  0.0732  0.5850  0.2876
   88SOPE  H17X 8371   2.803   1.439  13.300  0.5399 -1.8579  2.5670
   88SOPE  H17Y 8372   2.680   1.389  13.414 -0.5365 -1.6032 -2.9652
   88SOPE  C318 8373   2.761   1.590  13.439 -0.3209 -0.4054 -0.3481
   88SOPE  H18X 8374   2.793   1.679  13.381  0.1193 -1.5772 -1.9814
   88SOPE  H18Y 8375   2.833   1.554  13.516 -1.1715  1.8948  1.6619
   88SOPE  H18Z 8376   2.679   1.628  13.503  0.0399 -1.0508  0.5159
   89SAPC     N 8377   0.693   1.824  25.541  0.3046 -0.1780  0.7617
   89SAPC   C12 8378   0.602   1.828  25.659 -0.1700  0.1763 -0.0890
   89SAPC  H12A 8379   0.535   1.908  25.632 -2.0628 -0.6942  1.7680
   89SAPC  H12B 8380   0.670   1.856  25.738 -0.3565  1.4611 -0.3588
   89SAPC   C13 8381   0.632   1.757  25.423  0.4011  0.4826  0.0079
   89SAPC  H13A 8382   0.637   1.649  25.420 -0.9544  0.4006 -0.2891
   89SAPC  H13B 8383   0.531   1.791  25.406  1.0585  1.4846 -2.2277
   89SAPC  H13C 8384   0.686   1.786  25.335 -0.5251  1.9062 -0.1223
   89SAPC   C14 8385   0.733   1.965  25.514 -0.7577 -1.2687  0.0119
   89SAPC  H14A 8386   0.801   1.966  25.431  0.9610  1.4964  1.3080
   89SAPC  H14B 8387   0.647   2.028  25.494  0.4836 -0.3645 -2.9956
   89SAPC  H14C 8388   0.783   2.012  25.597  0.9603  0.3777 -1.8552
   89SAPC   C15 8389   0.821   1.744  25.559  0.2616  0.1368  0.0587
   89SAPC  H15A 8390   0.876   1.782  25.644 -0.1025 -0.0109  0.3693
   89SAPC  H15B 8391   0.793   1.643  25.584 -1.8407  0.4789 -0.6885
   89SAPC  H15C 8392   0.886   1.741  25.474 -0.4198 -2.2180 -0.4517
   89SAPC   C11 8393   0.513   1.700  25.691 -0.2116  0.6415  0.2597
   89SAPC  H11A 8394   0.458   1.660  25.603  0.6004 -2.9565  1.2332
   89SAPC  H11B 8395   0.434   1.730  25.764  0.5164  0.7543  1.0246
   89SAPC     P 8396   0.521   1.462  25.782  0.1045 -0.0284 -0.1382
   89SAPC   O13 8397   0.603   1.372  25.869  0.4246 -0.2266 -0.0959
   89SAPC   O14 8398   0.387   1.491  25.834 -0.3737  0.1289  0.3295
   89SAPC   O12 8399   0.598   1.601  25.755  0.4037 -0.3389 -0.4461
   89SAPC   O11 8400   0.511   1.399  25.637  0.0007  0.3592 -0.0741
   89SAPC    C1 8401   0.645   1.383  25.570  0.4339  0.0475 -0.0485
   89SAPC    HA 8402   0.633   1.431  25.471 -0.0058  2.5400  1.1392
   89SAPC    HB 8403   0.736   1.419  25.623  0.2300 -0.1802  0.4591
   89SAPC    C2 8404   0.681   1.233  25.545  0.6370 -0.4609 -0.1829
   89SAPC    HS 8405   0.699   1.183  25.643 -1.0830 -1.3288 -0.2937
   89SAPC   O21 8406   0.796   1.228  25.461 -0.3324 -0.7107 -0.7831
   89SAPC   C21 8407   0.869   1.120  25.467 -0.4567  0.1293  0.0934
   89SAPC   O22 8408   0.844   1.019  25.536 -0.6674  0.1217  0.4594
   89SAPC   C22 8409   0.999   1.131  25.392  0.5776 -0.4662  0.1594
   89SAPC   H2R 8410   0.966   1.173  25.295 -1.2530  0.9674  1.3455
   89SAPC   H2S 8411   1.069   1.207  25.433  2.6541 -1.5178 -1.2334
   89SAPC    C3 8412   0.558   1.157  25.484 -0.2852  0.5111 -0.0155
   89SAPC    HX 8413   0.478   1.180  25.558  0.9755 -1.0452  1.9498
   89SAPC    HY 8414   0.581   1.048  25.481  1.4315  0.7200  2.3764
   89SAPC   O31 8415   0.529   1.213  25.354 -0.0088 -0.9466  0.0147
   89SAPC   C31 8416   0.403   1.241  25.323 -1.2458  0.5691  0.1626
   89SAPC   O32 8417   0.312   1.222  25.399 -0.4484  0.5084 -0.7041
   89SAPC   C32 8418   0.388   1.280  25.179 -0.8340 -0.4288 -0.1330
   89SAPC   H2X 8419   0.434   1.190  25.133 -1.8845 -0.7490 -0.5925
   89SAPC   H2Y 8420   0.449   1.369  25.153  1.1952 -1.6676  0.1146
   89SAPC   C23 8421   1.066   0.997  25.378  0.2450  0.4796  0.4835
   89SAPC   H3R 8422   0.992   0.940  25.318 -0.6889  1.4549  0.6953
   89SAPC   H3S 8423   1.068   0.961  25.483  1.4350  1.4087  0.8020
   89SAPC   C24 8424   1.205   1.000  25.313 -0.1517  0.0813 -0.7949
   89SAPC   H4R 8425   1.240   0.895  25.300  1.2943  0.4559 -0.1782
   89SAPC   H4S 8426   1.266   1.048  25.393 -0.2879  1.2291 -1.3668
   89SAPC   C25 8427   1.224   1.088  25.184 -0.8512  0.7267  0.0128
   89SAPC   H5R 8428   1.160   1.177  25.172 -0.2472  1.0911 -0.5649
   89SAPC   C26 8429   1.287   1.037  25.067  0.0504 -0.5642 -0.1062
   89SAPC   H6R 8430   1.285   1.102  24.978  0.2294  0.2015  0.4426
   89SAPC   C27 8431   1.353   0.909  25.034  0.5438  0.1959  0.2319
   89SAPC   H7R 8432   1.273   0.833  25.018  1.3271 -0.5383 -0.2988
   89SAPC   H7S 8433   1.404   0.871  25.125 -1.2650 -0.7080  0.9141
   89SAPC   C28 8434   1.434   0.914  24.901 -0.1080  0.4060  0.5323
   89SAPC   H8R 8435   1.429   1.000  24.831  1.6869 -0.9400 -1.3947
   89SAPC   C29 8436   1.526   0.823  24.863  0.6246 -0.2862  0.7019
   89SAPC   H9R 8437   1.589   0.848  24.776 -1.2077 -0.0163 -0.5979
   89SAPC  C210 8438   1.564   0.695  24.944 -0.1954  0.5691  0.5276
   89SAPC  H10R 8439   1.602   0.726  25.043  0.0109 -0.6532  0.8558
   89SAPC  H10S 8440   1.638   0.642  24.880 -1.3213  0.3937 -0.6847
   89SAPC  C211 8441   1.448   0.591  24.963  0.9016  0.3663  0.1706
   89SAPC  H11R 8442   1.360   0.601  24.897 -0.0276  1.5795  1.5178
   89SAPC  C212 8443   1.458   0.492  25.053 -0.7680  0.0906  0.7259
   89SAPC  H12R 8444   1.383   0.412  25.053  0.2046 -1.0644 -3.5697
   89SAPC  C213 8445   1.555   0.466  25.160 -0.3968  0.0176 -0.1000
   89SAPC  H13R 8446   1.651   0.516  25.135  0.7567  0.1195  3.7606
   89SAPC  H13S 8447   1.589   0.361  25.167  1.7735  0.6239 -0.8535
   89SAPC  C214 8448   1.516   0.519  25.293 -0.3278  0.7298 -1.0334
   89SAPC  H14R 8449   1.414   0.557  25.306 -1.4630 -2.8053  2.3920
   89SAPC  C215 8450   1.580   0.500  25.405  0.5354  0.0970 -0.2234
   89SAPC  H15R 8451   1.542   0.535  25.502  0.6559 -1.0374  0.2441
   89SAPC  C216 8452   1.722   0.451  25.406 -0.4431 -0.3499 -0.6039
   89SAPC  H16R 8453   1.787   0.532  25.447  0.8773 -1.6419 -0.0435
   89SAPC  H16S 8454   1.768   0.422  25.309 -0.7924 -0.1845 -0.8213
   89SAPC  C217 8455   1.757   0.334  25.498 -0.2174 -0.3503 -0.8202
   89SAPC  H17R 8456   1.692   0.247  25.474  0.6865 -0.8749 -1.4384
   89SAPC  H17S 8457   1.732   0.349  25.605 -0.7982 -1.1318 -0.8327
   89SAPC  C218 8458   1.902   0.294  25.488  0.2077  1.4194 -0.0565
   89SAPC  H18R 8459   1.970   0.375  25.522 -0.2057  1.8464 -0.2384
   89SAPC  H18S 8460   1.935   0.270  25.385 -2.0048  0.6184 -0.6269
   89SAPC  C219 8461   1.934   0.175  25.587  0.2953 -0.0471 -0.3061
   89SAPC  H19R 8462   1.944   0.234  25.680 -0.7161 -2.0430  1.1281
   89SAPC  H19S 8463   2.039   0.141  25.576  0.8295  1.1555  0.7945
   89SAPC  C220 8464   1.823   0.081  25.618  0.0237  0.4084  0.2941
   89SAPC  H20R 8465   1.847  -0.005  25.683  0.0229  0.5301  0.4569
   89SAPC  H20S 8466   1.773   0.045  25.525  0.7631  0.1025  0.0142
   89SAPC  H20T 8467   1.738   0.128  25.672 -0.0505  1.2651 -0.5306
   89SAPC   C33 8468   0.238   1.312  25.141 -0.9646 -0.0435  0.0176
   89SAPC   H3X 8469   0.197   1.372  25.225 -0.2914  0.6565 -0.1378
   89SAPC   H3Y 8470   0.180   1.218  25.132  0.0234 -0.7458  0.7105
   89SAPC   C34 8471   0.227   1.387  25.008 -0.0062  0.5395 -0.3214
   89SAPC   H4X 8472   0.277   1.485  25.022 -0.5523  0.5323  2.2822
   89SAPC   H4Y 8473   0.122   1.415  24.989  0.2557  2.1388  0.4150
   89SAPC   C35 8474   0.287   1.298  24.897  0.4552  0.5275 -0.2539
   89SAPC   H5X 8475   0.253   1.193  24.905  3.7276 -0.5168  1.9078
   89SAPC   H5Y 8476   0.398   1.304  24.903  0.4658  0.3644 -0.2798
   89SAPC   C36 8477   0.239   1.340  24.762 -0.1491 -0.1774  1.2678
   89SAPC   H6X 8478   0.258   1.446  24.734  0.5174 -0.0182  2.2571
   89SAPC   H6Y 8479   0.129   1.322  24.756  0.0624 -1.2600  0.5332
   89SAPC   C37 8480   0.305   1.268  24.645 -0.0243  0.1711 -0.1315
   89SAPC   H7X 8481   0.365   1.187  24.692 -1.4626 -0.3170  0.9438
   89SAPC   H7Y 8482   0.373   1.332  24.585  1.8150 -1.0575  0.5513
   89SAPC   C38 8483   0.205   1.189  24.551 -0.5249 -0.1598 -0.3423
   89SAPC   H8X 8484   0.143   1.126  24.618  0.9004 -0.2571  0.9574
   89SAPC   H8Y 8485   0.258   1.116  24.487 -1.5798 -1.4308  0.1954
   89SAPC   C39 8486   0.121   1.275  24.453 -0.1812 -0.5490 -0.0914
   89SAPC   H9X 8487   0.181   1.343  24.390 -1.4820 -0.2871 -1.0889
   89SAPC   H9Y 8488   0.041   1.331  24.505 -1.0510 -0.1833 -1.7755
   89SAPC  C310 8489   0.052   1.172  24.357 -0.4147  0.4507 -0.6455
   89SAPC  H10X 8490  -0.038   1.133  24.409  0.7238 -0.6808  0.5555
   89SAPC  H10Y 8491   0.130   1.093  24.345  0.0694  0.9869 -1.0803
   89SAPC  C311 8492   0.010   1.228  24.222  1.1181 -0.1193  0.1469
   89SAPC  H11X 8493   0.100   1.260  24.165  0.5573  1.4572  0.1021
   89SAPC  H11Y 8494  -0.046   1.324  24.230  0.9256 -0.1274 -0.9828
   89SAPC  C312 8495  -0.054   1.121  24.133 -0.0141 -0.2356 -0.5916
   89SAPC  H12X 8496  -0.124   1.155  24.054  0.8586 -0.3176 -1.4136
   89SAPC  H12Y 8497  -0.123   1.051  24.185 -0.1807  1.2065  1.2461
   89SAPC  C313 8498   0.053   1.042  24.055 -0.4903  0.1492  0.3362
   89SAPC  H13X 8499   0.103   0.991  24.140 -1.0045  1.9723  1.7928
   89SAPC  H13Y 8500   0.130   1.107  24.008 -1.9642 -0.0993 -2.6524
   89SAPC  C314 8501  -0.011   0.958  23.943 -0.6170 -0.4733 -0.2746
   89SAPC  H14X 8502  -0.106   0.907  23.967 -0.5993 -0.0948  0.6548
   89SAPC  H14Y 8503   0.067   0.881  23.923  1.1015  0.6297  1.6938
   89SAPC  C315 8504  -0.031   1.033  23.816  0.0192 -0.1453  0.3408
   89SAPC  H15X 8505   0.057   1.069  23.759 -1.0795  2.2814  0.0619
   89SAPC  H15Y 8506  -0.073   1.133  23.838  1.1715  0.6239 -0.8616
   89SAPC  C316 8507  -0.130   0.975  23.717 -0.1476 -0.7070 -0.0675
   89SAPC  H16X 8508  -0.233   1.003  23.750  0.0560  0.2291 -0.2223
   89SAPC  H16Y 8509  -0.136   0.864  23.720 -1.6196 -0.6306  1.3366
   89SAPC  C317 8510  -0.115   1.019  23.571  0.2534  0.1457 -0.1479
   89SAPC  H17X 8511  -0.030   0.960  23.530  2.3555  2.3188  0.8065
   89SAPC  H17Y 8512  -0.086   1.126  23.575  0.8429  0.1581 -2.8955
   89SAPC  C318 8513  -0.238   1.010  23.479  0.7893 -0.2553 -0.4490
   89SAPC  H18X 8514  -0.298   0.917  23.480  1.9612 -1.0318 -0.5124
   89SAPC  H18Y 8515  -0.202   1.031  23.376 -0.2599  1.7857 -0.4482
   89SAPC  H18Z 8516  -0.308   1.090  23.511  1.1079 -0.1170 -0.0883
   90SAPC     N 8517   2.317   0.522  26.461 -0.0866 -0.0239  0.1935
   90SAPC   C12 8518   2.325   0.424  26.345  0.1547  0.6363  0.0635
   90SAPC  H12A 8519   2.378   0.337  26.382  0.7312  0.9322 -0.0684
   90SAPC  H12B 8520   2.380   0.469  26.264 -0.5518  0.6935 -0.3919
   90SAPC   C13 8521   2.234   0.463  26.568  0.1287  0.2627  0.4377
   90SAPC  H13A 8522   2.210   0.547  26.633  1.5735 -0.0042  1.3682
   90SAPC  H13B 8523   2.143   0.416  26.535  0.1341  0.4457  0.1556
   90SAPC  H13C 8524   2.292   0.395  26.629  0.9113  1.5056  1.1343
   90SAPC   C14 8525   2.455   0.569  26.510  0.1802 -0.3920  0.4242
   90SAPC  H14A 8526   2.492   0.635  26.433 -1.3467 -0.8302 -0.7443
   90SAPC  H14B 8527   2.443   0.619  26.605  1.8291  0.7348  0.0768
   90SAPC  H14C 8528   2.529   0.491  26.522 -0.2584 -1.1031 -1.1793
   90SAPC   C15 8529   2.238   0.640  26.407 -0.3662  0.3821  0.0263
   90SAPC  H15A 8530   2.140   0.612  26.371 -0.3498 -0.0321  0.2898
   90SAPC  H15B 8531   2.218   0.709  26.488 -1.0342  2.2382 -1.6613
   90SAPC  H15C 8532   2.294   0.692  26.331  1.5645  0.4756  1.4327
   90SAPC   C11 8533   2.198   0.355  26.283  0.1832  0.3757  0.8491
   90SAPC  H11A 8534   2.230   0.298  26.193  1.7061  0.3903  1.3535
   90SAPC  H11B 8535   2.129   0.431  26.240  1.0745  0.1918 -1.0098
   90SAPC     P 8536   2.001   0.185  26.337 -0.4139  0.1322 -0.3674
   90SAPC   O13 8537   2.006   0.056  26.404  0.7844  0.0443 -0.2848
   90SAPC   O14 8538   1.884   0.267  26.361  0.2986  0.1555 -0.3852
   90SAPC   O12 8539   2.127   0.271  26.375  0.0260 -0.4714 -0.3313
   90SAPC   O11 8540   2.011   0.152  26.181  0.0191  0.1926  0.1677
   90SAPC    C1 8541   1.926   0.039  26.132 -0.3430 -0.7441  0.1076
   90SAPC    HA 8542   1.871  -0.015  26.212  1.7836 -0.3569  1.9268
   90SAPC    HB 8543   1.846   0.084  26.070 -0.9183 -1.8699  0.0057
   90SAPC    C2 8544   1.996  -0.041  26.012  0.6644 -0.1744  0.9909
   90SAPC    HS 8545   2.066  -0.110  26.063  2.5469  1.5485  0.8468
   90SAPC   O21 8546   2.049   0.046  25.917  0.7113 -0.4348 -0.2021
   90SAPC   C21 8547   2.188   0.050  25.922  0.0006  0.1092 -0.4281
   90SAPC   O22 8548   2.256   0.003  26.012  0.0686  0.2502  0.4672
   90SAPC   C22 8549   2.243   0.149  25.827 -0.1335 -0.0947  0.3103
   90SAPC   H2R 8550   2.178   0.178  25.741  2.4613  1.5479 -1.2198
   90SAPC   H2S 8551   2.252   0.244  25.884  0.3754 -0.0796  0.2068
   90SAPC    C3 8552   1.894  -0.131  25.936  0.3471 -0.5618  0.0322
   90SAPC    HX 8553   1.819  -0.066  25.886  2.0600  0.8828 -0.7928
   90SAPC    HY 8554   1.840  -0.191  26.012  0.6435 -1.4906 -0.4721
   90SAPC   O31 8555   1.962  -0.211  25.837  0.2384  0.2377 -0.3939
   90SAPC   C31 8556   1.886  -0.280  25.751 -0.0889  0.0169  0.0243
   90SAPC   O32 8557   1.766  -0.271  25.738 -0.4780  0.3704 -0.3532
   90SAPC   C32 8558   1.980  -0.372  25.667 -0.5367 -0.8411  0.0835
   90SAPC   H2X 8559   1.908  -0.454  25.647 -1.2088  0.0166 -1.1953
   90SAPC   H2Y 8560   2.055  -0.420  25.734  0.8186  2.1142  0.9122
   90SAPC   C23 8561   2.379   0.106  25.775  0.4745  0.5777 -0.0682
   90SAPC   H3R 8562   2.366   0.006  25.727 -0.5457  1.1752 -1.0923
   90SAPC   H3S 8563   2.449   0.105  25.861  0.6847 -1.2004 -0.2122
   90SAPC   C24 8564   2.449   0.194  25.678  1.0459 -0.0564 -0.5017
   90SAPC   H4R 8565   2.551   0.158  25.656  2.3322  4.4905 -3.5117
   90SAPC   H4S 8566   2.462   0.296  25.721 -0.7968  0.8523 -1.9362
   90SAPC   C25 8567   2.358   0.219  25.553  0.2114  1.3741  0.0472
   90SAPC   H5R 8568   2.264   0.272  25.571 -0.0415  0.8172  0.4039
   90SAPC   C26 8569   2.389   0.183  25.423 -0.2633  0.0888  0.3062
   90SAPC   H6R 8570   2.312   0.204  25.348 -2.2379 -0.0560  2.1864
   90SAPC   C27 8571   2.516   0.126  25.372 -0.2427 -0.3648  0.3212
   90SAPC   H7R 8572   2.590   0.144  25.453 -0.2486  1.3077 -0.0077
   90SAPC   H7S 8573   2.558   0.194  25.294  0.1396 -0.9374  0.0186
   90SAPC   C28 8574   2.491  -0.016  25.320 -0.8372  0.0240 -0.0846
   90SAPC   H8R 8575   2.412  -0.030  25.245 -1.3533 -0.0308  0.4612
   90SAPC   C29 8576   2.560  -0.122  25.363  0.4068 -0.1138  0.0377
   90SAPC   H9R 8577   2.525  -0.214  25.315 -1.1516  0.1565  0.6081
   90SAPC  C210 8578   2.663  -0.131  25.476 -0.6266 -0.6777 -0.1982
   90SAPC  H10R 8579   2.701  -0.035  25.517  2.3826 -1.1674 -1.6143
   90SAPC  H10S 8580   2.753  -0.185  25.441  0.5629 -0.7865  2.7012
   90SAPC  C211 8581   2.592  -0.214  25.582  0.2542  0.5563  0.7089
   90SAPC  H11R 8582   2.519  -0.156  25.639  0.1052  1.1412 -0.0602
   90SAPC  C212 8583   2.615  -0.338  25.623 -0.2819  0.7168  0.0843
   90SAPC  H12R 8584   2.561  -0.370  25.714 -1.0448 -0.0272 -0.6109
   90SAPC  C213 8585   2.706  -0.451  25.564  0.1511  0.0727 -0.5041
   90SAPC  H13R 8586   2.751  -0.510  25.647 -2.9462 -3.9620 -1.3808
   90SAPC  H13S 8587   2.790  -0.398  25.513  1.9944 -2.2890 -0.0756
   90SAPC  C214 8588   2.646  -0.552  25.470 -0.4118  0.2715  0.5561
   90SAPC  H14R 8589   2.563  -0.508  25.412 -0.5033 -1.2144 -0.5045
   90SAPC  C215 8590   2.698  -0.671  25.436 -0.3793 -0.4062  0.8393
   90SAPC  H15R 8591   2.641  -0.740  25.372  0.1285 -0.6386  0.6250
   90SAPC  C216 8592   2.816  -0.744  25.503 -0.4326  0.0300  0.2472
   90SAPC  H16R 8593   2.777  -0.842  25.539 -0.3563  0.5034  1.6937
   90SAPC  H16S 8594   2.846  -0.693  25.597 -2.9056 -1.3206  1.8599
   90SAPC  C217 8595   2.937  -0.745  25.402 -0.3230 -0.9242  0.0262
   90SAPC  H17R 8596   3.026  -0.796  25.444  0.2152 -0.5008 -0.5750
   90SAPC  H17S 8597   2.981  -0.649  25.368  0.5647 -1.6951 -1.1153
   90SAPC  C218 8598   2.897  -0.833  25.281 -0.0840  0.0420  0.1199
   90SAPC  H18R 8599   2.827  -0.779  25.214 -0.0632 -0.9857 -0.7480
   90SAPC  H18S 8600   2.870  -0.940  25.297  3.3033 -0.8926  0.5149
   90SAPC  C219 8601   3.020  -0.846  25.184  0.2457  0.1083  0.4147
   90SAPC  H19R 8602   3.118  -0.862  25.234 -0.5204 -1.6558  1.4248
   90SAPC  H19S 8603   3.025  -0.755  25.121 -0.3758 -0.3852 -0.3655
   90SAPC  C220 8604   3.008  -0.953  25.080 -0.6499  0.2411  0.1065
   90SAPC  H20R 8605   3.103  -0.967  25.025 -1.5025  0.7314 -1.5678
   90SAPC  H20S 8606   2.926  -0.934  25.007 -0.3656  0.0462 -0.2625
   90SAPC  H20T 8607   2.987  -1.043  25.142 -0.2790  0.3448  0.3897
   90SAPC   C33 8608   2.023  -0.319  25.530 -0.2646 -0.1302 -0.2973
   90SAPC   H3X 8609   1.934  -0.295  25.467  0.5634  0.8864 -1.1241
   90SAPC   H3Y 8610   2.088  -0.393  25.479 -0.3011 -2.5370  2.8761
   90SAPC   C34 8611   2.094  -0.180  25.546 -0.7039  0.3749  0.5565
   90SAPC   H4X 8612   2.183  -0.176  25.613 -0.1811  2.1618 -0.1828
   90SAPC   H4Y 8613   2.016  -0.110  25.583 -0.1790  0.0831  2.3121
   90SAPC   C35 8614   2.145  -0.142  25.406 -0.6933  0.2980 -0.1766
   90SAPC   H5X 8615   2.197  -0.226  25.357  0.4812  1.0816 -0.3129
   90SAPC   H5Y 8616   2.212  -0.053  25.408  0.4522 -0.5620  0.8641
   90SAPC   C36 8617   2.032  -0.099  25.309  0.9742 -0.0238  0.1768
   90SAPC   H6X 8618   1.972  -0.023  25.364  1.2205 -0.9087  1.7384
   90SAPC   H6Y 8619   1.967  -0.186  25.285  0.4345 -0.6555  3.4778
   90SAPC   C37 8620   2.080  -0.026  25.185  0.0932 -0.4312 -0.0136
   90SAPC   H7X 8621   2.149   0.056  25.213 -0.7870  0.6785 -0.9692
   90SAPC   H7Y 8622   1.999   0.024  25.126  1.8569  0.7693 -1.5616
   90SAPC   C38 8623   2.160  -0.118  25.098  0.3617 -0.2068  0.8700
   90SAPC   H8X 8624   2.104  -0.208  25.066 -0.0778  0.7859 -1.3701
   90SAPC   H8Y 8625   2.253  -0.161  25.142  1.0451 -1.3298 -1.4664
   90SAPC   C39 8626   2.193  -0.044  24.963  0.2083  0.3909  0.3950
   90SAPC   H9X 8627   2.253   0.045  24.990  1.2011 -0.4289  0.9475
   90SAPC   H9Y 8628   2.097  -0.016  24.914  1.5020  2.0728 -1.3306
   90SAPC  C310 8629   2.272  -0.136  24.866  0.6326 -0.4338  0.4396
   90SAPC  H10X 8630   2.213  -0.230  24.860  0.1613 -0.0678 -0.9626
   90SAPC  H10Y 8631   2.372  -0.162  24.907  0.0937 -1.3249  1.2169
   90SAPC  C311 8632   2.282  -0.077  24.725 -0.6052  0.2621 -0.1954
   90SAPC  H11X 8633   2.176  -0.070  24.693 -0.6582 -1.2849 -0.4257
   90SAPC  H11Y 8634   2.342  -0.142  24.657  0.4059  0.2594  0.6664
   90SAPC  C312 8635   2.340   0.067  24.709 -0.3874 -0.6379  0.2601
   90SAPC  H12X 8636   2.448   0.061  24.734  0.1298  1.5114 -1.2119
   90SAPC  H12Y 8637   2.283   0.141  24.770 -0.6712  1.3419 -2.2703
   90SAPC  C313 8638   2.331   0.128  24.570 -0.3359  0.3380 -0.7302
   90SAPC  H13X 8639   2.221   0.124  24.553 -0.7156 -3.0570  1.4970
   90SAPC  H13Y 8640   2.397   0.068  24.504  0.5605  2.1779 -1.5856
   90SAPC  C314 8641   2.378   0.277  24.566 -0.1402 -0.4277 -0.3990
   90SAPC  H14X 8642   2.388   0.317  24.463 -2.0440  1.5286  0.0958
   90SAPC  H14Y 8643   2.482   0.272  24.606  0.6527 -1.0342 -2.4344
   90SAPC  C315 8644   2.282   0.378  24.629  0.0054  0.0187  0.4195
   90SAPC  H15X 8645   2.263   0.353  24.735  0.0125 -0.6733  0.2624
   90SAPC  H15Y 8646   2.187   0.360  24.574 -0.6671 -1.9828  2.1114
   90SAPC  C316 8647   2.323   0.524  24.632 -0.5404 -0.9547  0.3021
   90SAPC  H16X 8648   2.330   0.549  24.524  1.2764 -0.3139  0.5312
   90SAPC  H16Y 8649   2.419   0.554  24.680 -0.7829  2.4892 -1.0803
   90SAPC  C317 8650   2.216   0.620  24.683  0.1452 -0.3480  0.5839
   90SAPC  H17X 8651   2.237   0.729  24.670  0.3432 -0.5434 -0.9330
   90SAPC  H17Y 8652   2.200   0.596  24.790  1.1193 -1.7267  0.4343
   90SAPC  C318 8653   2.074   0.593  24.620  0.1429  0.4701  0.1419
   90SAPC  H18X 8654   1.987   0.649  24.661  1.7695  3.0469  0.2848
   90SAPC  H18Y 8655   2.045   0.487  24.640  1.0247  0.3761  1.0103
   90SAPC  H18Z 8656   2.082   0.607  24.510  0.5790  0.2577  0.1457
   91SAPC     N 8657   1.457   1.719  25.867  1.2184 -0.7387 -0.1150
   91SAPC   C12 8658   1.434   1.851  25.791 -0.6014 -0.3372 -0.6457
   91SAPC  H12A 8659   1.341   1.838  25.737 -0.1429  0.7487 -1.7640
   91SAPC  H12B 8660   1.499   1.857  25.705 -0.2186 -1.1611 -0.4179
   91SAPC   C13 8661   1.462   1.600  25.769 -0.0156  0.4996 -0.2334
   91SAPC  H13A 8662   1.532   1.614  25.688 -1.4295 -2.3215 -2.1049
   91SAPC  H13B 8663   1.494   1.505  25.808  1.5804  1.1033  0.0442
   91SAPC  H13C 8664   1.375   1.590  25.706  1.8980  1.0411 -3.1510
   91SAPC   C14 8665   1.581   1.723  25.947  0.0147  0.0340 -0.4435
   91SAPC  H14A 8666   1.586   1.791  26.031  0.1433  0.5120 -0.8327
   91SAPC  H14B 8667   1.602   1.624  25.985  3.8574 -0.0635 -2.3293
   91SAPC  H14C 8668   1.664   1.741  25.880  1.3578 -0.4888  1.0292
   91SAPC   C15 8669   1.349   1.693  25.964 -0.2668  0.0064  0.6275
   91SAPC  H15A 8670   1.262   1.656  25.911 -0.3426  0.1327  0.6663
   91SAPC  H15B 8671   1.374   1.618  26.038 -0.1589 -1.6411 -0.9900
   91SAPC  H15C 8672   1.324   1.784  26.016 -1.5044  0.0338  0.0118
   91SAPC   C11 8673   1.421   1.986  25.871  0.2442 -0.9881  0.0608
   91SAPC  H11A 8674   1.337   1.984  25.943 -0.7113  1.4532 -0.8840
   91SAPC  H11B 8675   1.394   2.062  25.794  1.3338 -1.4749 -0.8424
   91SAPC     P 8676   1.663   2.081  25.883 -0.5309 -0.0626  0.2069
   91SAPC   O13 8677   1.665   2.227  25.896  0.4193 -0.8148  0.1129
   91SAPC   O14 8678   1.778   2.010  25.945 -0.4063  0.2009 -0.0167
   91SAPC   O12 8679   1.534   2.031  25.951 -0.2036  1.1628  0.4757
   91SAPC   O11 8680   1.656   2.045  25.730 -0.0592  0.4352 -0.1000
   91SAPC    C1 8681   1.702   2.138  25.631 -0.0912 -0.3074  0.4623
   91SAPC    HA 8682   1.660   2.241  25.634 -2.3716 -1.1634  0.0844
   91SAPC    HB 8683   1.809   2.164  25.644  0.1345 -0.5237 -0.7819
   91SAPC    C2 8684   1.690   2.084  25.484  0.3214 -0.1034 -0.3741
   91SAPC    HS 8685   1.581   2.072  25.466 -0.3639  0.3059  2.8588
   91SAPC   O21 8686   1.772   1.966  25.458  0.2309  0.4616 -0.1845
   91SAPC   C21 8687   1.705   1.856  25.488 -0.6077  0.2011 -0.6185
   91SAPC   O22 8688   1.588   1.847  25.517 -0.3140 -0.1069  0.0440
   91SAPC   C22 8689   1.804   1.749  25.474 -0.0348  0.6657  0.3183
   91SAPC   H2R 8690   1.843   1.748  25.370 -1.5093  0.1591 -0.2532
   91SAPC   H2S 8691   1.892   1.755  25.542  1.0569 -1.5767 -0.7630
   91SAPC    C3 8692   1.738   2.200  25.382  0.4674  0.3307 -0.1974
   91SAPC    HX 8693   1.846   2.216  25.403  0.6330 -2.3760  1.5585
   91SAPC    HY 8694   1.695   2.300  25.406 -1.2347  0.1821 -2.4033
   91SAPC   O31 8695   1.718   2.161  25.247 -0.6143  0.0502 -0.1793
   91SAPC   C31 8696   1.599   2.188  25.193  0.1194 -0.2819 -0.0271
   91SAPC   O32 8697   1.506   2.254  25.240 -0.6278 -0.9903  0.0573
   91SAPC   C32 8698   1.602   2.120  25.057  0.1949  0.0165 -0.0051
   91SAPC   H2X 8699   1.506   2.155  25.015  0.4453 -1.2203 -1.7079
   91SAPC   H2Y 8700   1.591   2.013  25.085  2.2780  0.4899  3.2067
   91SAPC   C23 8701   1.746   1.599  25.498 -0.0407  0.1177 -0.9752
   91SAPC   H3R 8702   1.652   1.575  25.444 -0.7476  0.9781 -0.1583
   91SAPC   H3S 8703   1.717   1.598  25.605  2.5570 -0.3173 -0.1925
   91SAPC   C24 8704   1.854   1.486  25.476 -0.1558 -0.2504 -0.3091
   91SAPC   H4R 8705   1.820   1.401  25.538  0.8246 -0.8078 -0.5223
   91SAPC   H4S 8706   1.950   1.513  25.526 -0.8300 -1.0609  1.4910
   91SAPC   C25 8707   1.872   1.450  25.331 -0.9324 -0.9274  0.3196
   91SAPC   H5R 8708   1.899   1.540  25.273  1.9341 -2.8168 -1.5075
   91SAPC   C26 8709   1.851   1.334  25.271  0.0644  0.2675  0.4878
   91SAPC   H6R 8710   1.868   1.311  25.165 -1.6190  3.2033 -0.5397
   91SAPC   C27 8711   1.783   1.212  25.341  0.8321  0.1761 -0.2647
   91SAPC   H7R 8712   1.728   1.249  25.430  0.3243 -0.4746 -0.3028
   91SAPC   H7S 8713   1.866   1.151  25.382  1.4896  0.3498 -1.2919
   91SAPC   C28 8714   1.675   1.129  25.269  0.3325  0.1588  0.6474
   91SAPC   H8R 8715   1.579   1.178  25.245 -0.4330 -1.6190 -0.1063
   91SAPC   C29 8716   1.692   1.008  25.224  0.1203  0.6124  0.1426
   91SAPC   H9R 8717   1.598   0.966  25.187  0.0654  0.0049  0.9458
   91SAPC  C210 8718   1.822   0.924  25.231  0.2803  0.0148  0.2823
   91SAPC  H10R 8719   1.906   0.988  25.263  0.1851  0.2915 -0.0219
   91SAPC  H10S 8720   1.857   0.899  25.128 -0.6044 -1.7292  0.3655
   91SAPC  C211 8721   1.824   0.800  25.317  0.0485 -0.5205 -0.1693
   91SAPC  H11R 8722   1.730   0.756  25.356  0.0563 -0.0110  0.4431
   91SAPC  C212 8723   1.943   0.737  25.353 -0.1796  0.0544 -0.1377
   91SAPC  H12R 8724   1.939   0.662  25.434  3.2548  1.0639  1.1617
   91SAPC  C213 8725   2.082   0.769  25.303  0.5050 -0.1002  0.5930
   91SAPC  H13R 8726   2.117   0.865  25.348 -1.3805  1.4922 -1.1208
   91SAPC  H13S 8727   2.086   0.778  25.192  0.2631 -1.5273  0.4517
   91SAPC  C214 8728   2.175   0.659  25.344  0.2917 -0.1436  0.3970
   91SAPC  H14R 8729   2.216   0.658  25.446  2.2310 -0.3624 -0.3456
   91SAPC  C215 8730   2.224   0.567  25.255  0.7592  0.7744 -0.3604
   91SAPC  H15R 8731   2.286   0.488  25.300 -1.3376  0.0353  1.3705
   91SAPC  C216 8732   2.184   0.546  25.110  0.4962  0.4745  0.6770
   91SAPC  H16R 8733   2.279   0.518  25.059  0.6749 -1.0446  1.7939
   91SAPC  H16S 8734   2.124   0.625  25.060  2.7394  2.6855  1.3116
   91SAPC  C217 8735   2.091   0.422  25.097  0.0407  0.4938  0.0357
   91SAPC  H17R 8736   2.011   0.444  25.172  0.7516  2.1827  0.3465
   91SAPC  H17S 8737   2.148   0.330  25.119  1.9360  1.6166  0.0571
   91SAPC  C218 8738   2.036   0.409  24.956  0.4093 -0.2254  0.2073
   91SAPC  H18R 8739   2.122   0.420  24.887  1.1071  2.5382  1.4102
   91SAPC  H18S 8740   1.965   0.490  24.930  0.5805 -0.2957 -0.4960
   91SAPC  C219 8741   1.953   0.286  24.930  0.5175 -0.6045  0.6853
   91SAPC  H19R 8742   2.011   0.200  24.970  0.9168 -1.5319 -1.7670
   91SAPC  H19S 8743   1.953   0.263  24.822 -1.0602  1.8747  0.0725
   91SAPC  C220 8744   1.817   0.291  24.991 -0.8629 -0.2884  0.2420
   91SAPC  H20R 8745   1.777   0.188  25.006  0.9574 -0.8512  1.4733
   91SAPC  H20S 8746   1.743   0.343  24.926 -0.6548 -0.9117 -0.5130
   91SAPC  H20T 8747   1.815   0.341  25.089 -0.8233 -0.5242  0.3641
   91SAPC   C33 8748   1.721   2.160  24.964  0.3080 -0.0473 -0.1936
   91SAPC   H3X 8749   1.719   2.070  24.898  3.2764 -1.9530  2.0862
   91SAPC   H3Y 8750   1.821   2.160  25.011  1.1333 -0.3000 -1.8879
   91SAPC   C34 8751   1.692   2.284  24.877 -0.1087  0.7379  0.2375
   91SAPC   H4X 8752   1.598   2.259  24.823  0.4882  1.8309 -1.3703
   91SAPC   H4Y 8753   1.773   2.301  24.804  1.0723  1.3434  1.6319
   91SAPC   C35 8754   1.693   2.413  24.960  0.3545  0.0935 -0.4984
   91SAPC   H5X 8755   1.783   2.411  25.026 -0.2787 -0.3077  0.3732
   91SAPC   H5Y 8756   1.613   2.416  25.037  0.7256 -0.3731 -0.0926
   91SAPC   C36 8757   1.689   2.539  24.876  0.6903 -0.3491  0.5516
   91SAPC   H6X 8758   1.770   2.539  24.800  1.0671  0.4478  0.9520
   91SAPC   H6Y 8759   1.720   2.633  24.926 -1.2639  2.1295 -2.4648
   91SAPC   C37 8760   1.547   2.566  24.818 -0.3982 -0.2374 -0.8313
   91SAPC   H7X 8761   1.471   2.565  24.899  2.3375 -2.6517  1.9357
   91SAPC   H7Y 8762   1.519   2.476  24.760  0.9195 -1.3357  0.2027
   91SAPC   C38 8763   1.548   2.692  24.733  0.2234 -0.1865  0.3344
   91SAPC   H8X 8764   1.556   2.779  24.802 -1.0538 -0.3065  0.6721
   91SAPC   H8Y 8765   1.442   2.694  24.700 -0.3983 -0.0655  2.2143
   91SAPC   C39 8766   1.642   2.697  24.612  0.2229  0.2153 -0.0871
   91SAPC   H9X 8767   1.623   2.609  24.547  0.4353  0.1348 -0.0392
   91SAPC   H9Y 8768   1.744   2.690  24.654  0.6297  0.5796 -0.9983
   91SAPC  C310 8769   1.632   2.823  24.526 -0.7011 -1.0896  0.1627
   91SAPC  H10X 8770   1.618   2.916  24.586  1.6028 -0.3475 -0.3368
   91SAPC  H10Y 8771   1.540   2.821  24.463  1.4702  0.3502 -3.3340
   91SAPC  C311 8772   1.751   2.830  24.423  0.7327 -0.3634 -0.1692
   91SAPC  H11X 8773   1.794   2.729  24.413  1.9174  0.2592 -1.7849
   91SAPC  H11Y 8774   1.834   2.895  24.459 -1.5005  1.5752  1.9092
   91SAPC  C312 8775   1.691   2.870  24.288  0.4961  0.0227 -0.0657
   91SAPC  H12X 8776   1.619   2.953  24.301 -0.0956  0.4235 -4.5194
   91SAPC  H12Y 8777   1.636   2.783  24.248  0.1675  0.2637 -0.1381
   91SAPC  C313 8778   1.805   2.922  24.197 -0.1020 -0.2714  0.9148
   91SAPC  H13X 8779   1.842   3.018  24.239  0.9443  0.2195 -1.0336
   91SAPC  H13Y 8780   1.762   2.941  24.097 -0.2170  0.5653  1.1204
   91SAPC  C314 8781   1.928   2.823  24.190  0.0399 -0.2075  0.5488
   91SAPC  H14X 8782   1.883   2.721  24.183 -2.7846  0.8810  1.2027
   91SAPC  H14Y 8783   1.995   2.824  24.279 -1.2659 -0.2876  1.5697
   91SAPC  C315 8784   2.005   2.855  24.062 -0.5892  0.1074 -0.2175
   91SAPC  H15X 8785   2.062   2.951  24.065  0.2952 -0.3387 -1.8017
   91SAPC  H15Y 8786   1.936   2.857  23.976 -0.6852 -0.6930 -0.1641
   91SAPC  C316 8787   2.101   2.739  24.028  0.1962  0.1519  0.2814
   91SAPC  H16X 8788   2.041   2.645  24.024  0.7056 -0.1995  0.7694
   91SAPC  H16Y 8789   2.188   2.728  24.095  0.9312 -1.3474 -0.8375
   91SAPC  C317 8790   2.145   2.761  23.884 -0.9641 -0.1029 -0.1056
   91SAPC  H17X 8791   2.200   2.857  23.878  0.0969 -0.7508 -1.0582
   91SAPC  H17Y 8792   2.054   2.775  23.823 -0.8686 -2.9729 -1.0508
   91SAPC  C318 8793   2.217   2.643  23.820  0.7595 -0.6334  0.0754
   91SAPC  H18X 8794   2.162   2.548  23.837 -1.9652  1.2606  3.2761
   91SAPC  H18Y 8795   2.314   2.625  23.872 -0.2256  0.8822  2.6627
   91SAPC  H18Z 8796   2.226   2.651  23.710 -1.1381  1.8052  0.0124
   92SAPC     N 8797   0.355   2.050  22.034 -0.8309  0.3465 -0.6868
   92SAPC   C12 8798   0.329   2.147  22.146  0.7753  0.1842 -0.5489
   92SAPC  H12A 8799   0.311   2.086  22.234  0.4992  0.1977 -0.5938
   92SAPC  H12B 8800   0.231   2.191  22.133  0.4161  0.1097  1.4690
   92SAPC   C13 8801   0.260   1.942  22.025  0.5554 -0.2597  0.0906
   92SAPC  H13A 8802   0.271   1.899  21.926  1.6115  4.4953 -2.1707
   92SAPC  H13B 8803   0.262   1.865  22.101  3.8202 -0.0115  0.3849
   92SAPC  H13C 8804   0.162   1.988  22.019  0.9120  0.5114  0.0096
   92SAPC   C14 8805   0.361   2.131  21.909  0.8641 -0.1643  0.3317
   92SAPC  H14A 8806   0.444   2.199  21.919  1.0813 -0.5262  0.9906
   92SAPC  H14B 8807   0.370   2.067  21.822 -0.7620 -0.2644  0.2031
   92SAPC  H14C 8808   0.275   2.195  21.897 -0.9881 -2.6705 -0.5718
   92SAPC   C15 8809   0.484   1.977  22.053 -0.4186 -0.1382 -0.4857
   92SAPC  H15A 8810   0.469   1.884  22.107 -0.5312 -1.1239 -2.1534
   92SAPC  H15B 8811   0.526   1.950  21.957  1.3444  4.1331 -1.1347
   92SAPC  H15C 8812   0.551   2.037  22.113 -1.7527 -0.6304  1.5867
   92SAPC   C11 8813   0.439   2.256  22.186 -0.0918  0.6989 -0.9194
   92SAPC  H11A 8814   0.386   2.317  22.262 -1.1316 -0.8438 -0.3480
   92SAPC  H11B 8815   0.458   2.323  22.099  1.9486  0.8196 -0.4313
   92SAPC     P 8816   0.570   2.146  22.379  0.0602 -0.3318  0.0747
   92SAPC   O13 8817   0.468   2.045  22.408  0.3622 -0.1023 -0.2301
   92SAPC   O14 8818   0.706   2.097  22.411  0.6308 -0.1692  0.5805
   92SAPC   O12 8819   0.564   2.193  22.228 -0.1364 -0.2940  0.5446
   92SAPC   O11 8820   0.538   2.282  22.459 -0.0563  0.2011  0.2482
   92SAPC    C1 8821   0.643   2.361  22.509  0.0400 -1.2083 -0.2829
   92SAPC    HA 8822   0.665   2.329  22.613 -0.4856 -1.9144 -0.3851
   92SAPC    HB 8823   0.740   2.342  22.458  1.2985 -1.5080  2.0882
   92SAPC    C2 8824   0.622   2.519  22.501  0.0832  0.3526  0.4670
   92SAPC    HS 8825   0.727   2.555  22.495  0.3520  0.0405  2.5782
   92SAPC   O21 8826   0.564   2.557  22.625  0.1161 -0.0781  0.6344
   92SAPC   C21 8827   0.644   2.568  22.730  0.1855 -0.3082  0.0905
   92SAPC   O22 8828   0.765   2.558  22.736  0.2917 -0.4844 -0.1370
   92SAPC   C22 8829   0.561   2.635  22.844  0.0519  0.2627 -0.1303
   92SAPC   H2R 8830   0.490   2.710  22.802 -2.7899 -1.5400  1.1618
   92SAPC   H2S 8831   0.492   2.555  22.878  0.6514 -1.3884 -2.4836
   92SAPC    C3 8832   0.548   2.566  22.377  0.4899 -0.0624 -0.0131
   92SAPC    HX 8833   0.445   2.525  22.375  0.3079  0.4035 -0.8796
   92SAPC    HY 8834   0.597   2.519  22.289 -1.7766  0.6437 -1.7349
   92SAPC   O31 8835   0.543   2.713  22.368  0.0613  0.0835 -0.4321
   92SAPC   C31 8836   0.639   2.761  22.291  0.6207  0.9349 -0.6118
   92SAPC   O32 8837   0.726   2.701  22.230  0.2214 -0.5534  0.0034
   92SAPC   C32 8838   0.617   2.910  22.280 -0.5690 -0.5737 -0.2472
   92SAPC   H2X 8839   0.593   2.956  22.378  0.8189 -0.9662  0.2966
   92SAPC   H2Y 8840   0.536   2.921  22.205 -0.3629  0.7117 -0.3042
   92SAPC   C23 8841   0.656   2.712  22.943  0.2425 -0.2237 -0.2373
   92SAPC   H3R 8842   0.720   2.789  22.894  1.6680 -1.3987 -0.3067
   92SAPC   H3S 8843   0.723   2.632  22.982  0.8069  0.4327  0.1735
   92SAPC   C24 8844   0.570   2.778  23.061 -0.5035 -0.0454  0.0107
   92SAPC   H4R 8845   0.504   2.702  23.106 -1.3301 -0.1875 -1.3850
   92SAPC   H4S 8846   0.502   2.861  23.030  0.1477  0.5088  0.0499
   92SAPC   C25 8847   0.660   2.836  23.163  0.3772  0.5321 -0.3836
   92SAPC   H5R 8848   0.689   2.758  23.235 -1.1398 -0.2060 -0.5349
   92SAPC   C26 8849   0.694   2.958  23.192  0.5913 -0.9845  0.0197
   92SAPC   H6R 8850   0.755   2.973  23.282 -0.8210 -1.0393  1.0171
   92SAPC   C27 8851   0.653   3.081  23.127  0.5631 -0.1245  0.2414
   92SAPC   H7R 8852   0.650   3.158  23.207  2.5533 -1.1300  1.3691
   92SAPC   H7S 8853   0.553   3.050  23.090  0.3390 -1.5329  1.8868
   92SAPC   C28 8854   0.751   3.126  23.017 -0.1617 -1.1361 -0.5945
   92SAPC   H8R 8855   0.728   3.073  22.923  0.7535  0.6295 -1.8721
   92SAPC   C29 8856   0.858   3.211  23.019 -0.6369 -0.1784  0.6051
   92SAPC   H9R 8857   0.910   3.227  22.923 -0.3870 -0.6215  0.6679
   92SAPC  C210 8858   0.904   3.298  23.133  0.5315  0.6306  0.0406
   92SAPC  H10R 8859   0.872   3.256  23.231 -0.4589  3.2741  0.9467
   92SAPC  H10S 8860   0.839   3.388  23.131 -1.8257 -0.9888 -0.9603
   92SAPC  C211 8861   1.052   3.322  23.128  0.9915 -0.3359 -0.0095
   92SAPC  H11R 8862   1.115   3.235  23.150  1.3540 -0.3076 -0.8829
   92SAPC  C212 8863   1.100   3.444  23.097  0.3134 -0.3296  0.1663
   92SAPC  H12R 8864   1.204   3.469  23.122  0.4055  1.4595 -1.6722
   92SAPC  C213 8865   1.027   3.559  23.038  0.7093 -0.9787  0.0273
   92SAPC  H13R 8866   0.919   3.535  23.043  1.1018 -2.7986  0.4966
   92SAPC  H13S 8867   1.050   3.563  22.929  1.9090  0.7599  0.2976
   92SAPC  C214 8868   1.069   3.685  23.096 -0.4361 -0.2809  0.6294
   92SAPC  H14R 8869   1.103   3.668  23.199 -0.9055 -0.0692  0.8238
   92SAPC  C215 8870   1.043   3.807  23.054  0.2794 -0.0871 -0.4059
   92SAPC  H15R 8871   1.084   3.889  23.115  1.5008 -0.1139 -1.1565
   92SAPC  C216 8872   0.975   3.850  22.931  0.3101 -0.2766 -0.4617
   92SAPC  H16R 8873   0.881   3.902  22.961  1.3130  0.2220  2.0556
   92SAPC  H16S 8874   0.938   3.766  22.868  2.1675 -1.4766 -0.0162
   92SAPC  C217 8875   1.050   3.943  22.833 -0.0437 -0.1070 -0.3551
   92SAPC  H17R 8876   1.136   3.885  22.795 -0.1461  0.1938 -1.0676
   92SAPC  H17S 8877   1.089   4.033  22.885  0.1258  0.5582 -1.5943
   92SAPC  C218 8878   0.967   3.990  22.718 -0.5934 -0.8676  0.3933
   92SAPC  H18R 8879   0.911   3.909  22.668 -1.2432  0.7247 -1.5976
   92SAPC  H18S 8880   1.031   4.044  22.645 -0.9000  0.3605  0.9976
   92SAPC  C219 8881   0.870   4.108  22.756  0.5348  0.4313 -0.5021
   92SAPC  H19R 8882   0.793   4.064  22.823 -0.1269 -2.1694 -2.7913
   92SAPC  H19S 8883   0.804   4.139  22.672  1.1570  2.0382 -0.4330
   92SAPC  C220 8884   0.929   4.231  22.819  0.0937 -0.3154 -0.0137
   92SAPC  H20R 8885   0.858   4.316  22.822  0.9211  0.4317 -0.8074
   92SAPC  H20S 8886   1.012   4.260  22.750 -0.1197  1.8699  0.5754
   92SAPC  H20T 8887   0.971   4.231  22.921  0.4673  3.6414 -0.0118
   92SAPC   C33 8888   0.744   2.987  22.229 -0.2759 -0.3064  0.1903
   92SAPC   H3X 8889   0.835   2.951  22.282 -1.5672 -0.8197  2.1914
   92SAPC   H3Y 8890   0.733   3.093  22.259 -0.6637 -1.1662  3.5229
   92SAPC   C34 8891   0.781   2.984  22.083  0.2427 -0.1027 -0.0151
   92SAPC   H4X 8892   0.705   3.010  22.007  0.8406 -1.8938 -1.3154
   92SAPC   H4Y 8893   0.805   2.880  22.051  4.2390  0.6458  0.0027
   92SAPC   C35 8894   0.910   3.064  22.054 -0.1815 -0.2489  0.3667
   92SAPC   H5X 8895   0.976   3.061  22.143  0.9626  1.6593 -0.3482
   92SAPC   H5Y 8896   0.892   3.171  22.031  2.4182  0.6256  2.0709
   92SAPC   C36 8897   0.984   3.015  21.922  0.5148  0.3891  0.1223
   92SAPC   H6X 8898   0.966   2.906  21.912  1.6116  0.2856 -0.9746
   92SAPC   H6Y 8899   1.091   3.032  21.945  1.2650 -2.6168 -0.7127
   92SAPC   C37 8900   0.944   3.081  21.793  0.0776  0.0044 -0.2442
   92SAPC   H7X 8901   0.933   3.192  21.799 -1.8825 -0.2145  0.9704
   92SAPC   H7Y 8902   0.841   3.044  21.775 -0.3503  0.7142  0.6240
   92SAPC   C38 8903   1.034   3.036  21.672  0.4733  0.7161  0.1125
   92SAPC   H8X 8904   1.001   3.108  21.594  0.2686  0.3814 -0.1103
   92SAPC   H8Y 8905   1.004   2.932  21.649 -0.0491  0.3863  2.0617
   92SAPC   C39 8906   1.180   3.065  21.675 -0.3421 -0.1418  0.1499
   92SAPC   H9X 8907   1.232   3.019  21.762 -1.9924 -0.5654  0.9565
   92SAPC   H9Y 8908   1.186   3.176  21.678 -2.8408  0.1783 -2.2342
   92SAPC  C310 8909   1.241   3.021  21.534 -0.3542 -0.3095  0.2924
   92SAPC  H10X 8910   1.202   3.088  21.454  3.3586  1.7850 -0.0270
   92SAPC  H10Y 8911   1.213   2.915  21.521 -0.2058 -0.2849 -0.2815
   92SAPC  C311 8912   1.390   3.041  21.534  0.2681  0.3597 -0.0737
   92SAPC  H11X 8913   1.423   2.974  21.616 -1.0917 -1.5852 -1.0162
   92SAPC  H11Y 8914   1.431   3.140  21.562  0.9227  0.3363 -0.9020
   92SAPC  C312 8915   1.445   2.988  21.407  0.1225  0.1708  0.3385
   92SAPC  H12X 8916   1.391   3.014  21.314 -0.0417  1.4320  0.7742
   92SAPC  H12Y 8917   1.420   2.880  21.413 -1.2254  0.5524  2.4471
   92SAPC  C313 8918   1.592   3.015  21.380  0.0438 -0.4542 -0.4964
   92SAPC  H13X 8919   1.608   3.118  21.419 -0.6024 -0.5712  0.0889
   92SAPC  H13Y 8920   1.621   3.012  21.273  2.2135 -1.9452  0.0687
   92SAPC  C314 8921   1.681   2.915  21.447 -0.6652 -0.0801 -0.5905
   92SAPC  H14X 8922   1.670   2.814  21.403 -1.3613 -0.4046  0.2964
   92SAPC  H14Y 8923   1.641   2.915  21.551 -0.3366  4.9597 -0.2045
   92SAPC  C315 8924   1.830   2.933  21.446  0.3513  0.0952  0.2916
   92SAPC  H15X 8925   1.881   2.858  21.510  0.2083 -0.5975 -0.3968
   92SAPC  H15Y 8926   1.838   3.033  21.495 -1.8183  0.0054  0.9219
   92SAPC  C316 8927   1.892   2.931  21.309  0.2898  0.0503 -0.5752
   92SAPC  H16X 8928   1.857   3.023  21.258 -0.8228  2.0995  3.4412
   92SAPC  H16Y 8929   1.873   2.839  21.250 -0.9609  0.1877 -0.4126
   92SAPC  C317 8930   2.046   2.930  21.319 -0.1883  0.3472 -0.8312
   92SAPC  H17X 8931   2.070   2.829  21.359 -1.2815  0.4442  0.1479
   92SAPC  H17Y 8932   2.079   3.006  21.393  0.4611  1.1994 -1.9729
   92SAPC  C318 8933   2.120   2.948  21.189  0.1846  0.0847  0.1560
   92SAPC  H18X 8934   2.089   2.873  21.113  0.2672 -0.4046  0.5903
   92SAPC  H18Y 8935   2.230   2.941  21.182  0.1321  0.4270 -1.4055
   92SAPC  H18Z 8936   2.093   3.046  21.146  1.2308  0.5797  0.6001
   93SAPC     N 8937   1.502   2.217  22.593  0.1307  0.2753 -0.0845
   93SAPC   C12 8938   1.372   2.289  22.562 -0.1440  0.0790  0.2983
   93SAPC  H12A 8939   1.296   2.265  22.635  0.2466 -2.2636  0.0143
   93SAPC  H12B 8940   1.345   2.252  22.465 -0.3263  2.0384 -0.4473
   93SAPC   C13 8941   1.613   2.273  22.511 -0.0667  0.4417  0.2561
   93SAPC  H13A 8942   1.708   2.226  22.530 -0.4044 -0.4650 -0.2388
   93SAPC  H13B 8943   1.594   2.249  22.407  0.5677  0.0361  0.2210
   93SAPC  H13C 8944   1.618   2.381  22.509 -1.4108  0.5070 -1.1735
   93SAPC   C14 8945   1.545   2.243  22.733 -0.1535 -0.1093 -0.4974
   93SAPC  H14A 8946   1.554   2.350  22.750 -4.3136 -0.0205  2.8215
   93SAPC  H14B 8947   1.472   2.207  22.803 -0.0948  2.1302  0.8325
   93SAPC  H14C 8948   1.642   2.199  22.753 -0.8018 -1.1844  0.3839
   93SAPC   C15 8949   1.501   2.066  22.568  0.5446 -0.3335 -0.4682
   93SAPC  H15A 8950   1.473   2.042  22.467  1.2874 -4.6771  0.1965
   93SAPC  H15B 8951   1.604   2.036  22.582  0.4443 -0.8919 -0.9143
   93SAPC  H15C 8952   1.425   2.017  22.627 -1.3822  0.0611 -2.4927
   93SAPC   C11 8953   1.374   2.446  22.558 -0.6318 -0.0489  0.1642
   93SAPC  H11A 8954   1.273   2.485  22.531 -0.9331 -1.6891 -1.2885
   93SAPC  H11B 8955   1.438   2.474  22.471 -0.0190 -0.9627  0.3045
   93SAPC     P 8956   1.314   2.509  22.812  0.1163  0.9178 -0.0342
   93SAPC   O13 8957   1.188   2.441  22.777 -0.3612  0.0017 -0.1757
   93SAPC   O14 8958   1.386   2.460  22.935  0.2146 -0.3087  0.1915
   93SAPC   O12 8959   1.415   2.502  22.684 -0.4877 -0.1146 -0.2072
   93SAPC   O11 8960   1.281   2.659  22.839 -0.4202  0.1601 -0.0015
   93SAPC    C1 8961   1.375   2.762  22.803  0.2604 -0.1032 -0.4956
   93SAPC    HA 8962   1.440   2.740  22.716 -1.3022  0.7042 -1.9149
   93SAPC    HB 8963   1.309   2.848  22.780 -0.3361 -0.9644 -2.1470
   93SAPC    C2 8964   1.453   2.814  22.926 -0.2604  0.2880 -0.4146
   93SAPC    HS 8965   1.523   2.892  22.889  1.2427 -0.4048  0.8418
   93SAPC   O21 8966   1.523   2.714  23.000  0.0072 -0.1993  0.0004
   93SAPC   C21 8967   1.625   2.655  22.942 -0.8951  0.5883  0.0927
   93SAPC   O22 8968   1.661   2.681  22.827  0.6091 -1.0747  0.4940
   93SAPC   C22 8969   1.707   2.571  23.037  0.1848 -0.8600 -0.6023
   93SAPC   H2R 8970   1.639   2.499  23.087  0.7319 -0.0885  1.3183
   93SAPC   H2S 8971   1.790   2.528  22.976  1.0480  2.0627 -1.6704
   93SAPC    C3 8972   1.352   2.890  23.021 -0.4414  0.0305 -0.2703
   93SAPC    HX 8973   1.280   2.809  23.045 -0.3600 -0.5149 -1.7685
   93SAPC    HY 8974   1.297   2.967  22.963 -1.0980  0.3760  0.7782
   93SAPC   O31 8975   1.429   2.952  23.126 -0.0908 -0.4259 -0.2163
   93SAPC   C31 8976   1.415   2.908  23.246  0.3735  0.3963 -1.0785
   93SAPC   O32 8977   1.354   2.810  23.283  0.0401 -0.0895  0.1905
   93SAPC   C32 8978   1.506   2.991  23.336 -0.1153 -0.1518  0.6205
   93SAPC   H2X 8979   1.552   3.080  23.287  1.1120 -0.3822  1.3096
   93SAPC   H2Y 8980   1.589   2.921  23.358 -0.1537 -0.8464 -1.2594
   93SAPC   C23 8981   1.757   2.668  23.148  0.3540 -0.2170 -0.4229
   93SAPC   H3R 8982   1.669   2.710  23.202  0.7438 -0.4068  0.3850
   93SAPC   H3S 8983   1.813   2.746  23.092  2.3906 -1.4515 -0.2193
   93SAPC   C24 8984   1.851   2.623  23.267 -0.7064  0.5069  0.4277
   93SAPC   H4R 8985   1.822   2.524  23.308 -0.3391 -0.3161 -1.2081
   93SAPC   H4S 8986   1.825   2.687  23.354  0.0984 -0.7348  1.6094
   93SAPC   C25 8987   2.003   2.638  23.231  0.3625 -0.0265 -0.5007
   93SAPC   H5R 8988   2.050   2.567  23.161  0.5703  0.3697 -0.7671
   93SAPC   C26 8989   2.087   2.733  23.283  0.2250 -0.0478  0.6065
   93SAPC   H6R 8990   2.191   2.727  23.250 -0.5826 -0.2511 -2.1565
   93SAPC   C27 8991   2.051   2.846  23.379  0.3316 -0.1793 -0.4202
   93SAPC   H7R 8992   1.948   2.834  23.421  0.9476 -0.5495  1.0425
   93SAPC   H7S 8993   2.036   2.940  23.322 -3.2979  1.4465  2.7098
   93SAPC   C28 8994   2.153   2.870  23.489 -0.0541 -0.4830 -0.9471
   93SAPC   H8R 8995   2.240   2.803  23.498 -0.2900 -0.7056 -0.2624
   93SAPC   C29 8996   2.124   2.958  23.589  0.4705 -0.4563 -0.5833
   93SAPC   H9R 8997   2.201   2.961  23.668 -0.6644 -1.5636  0.6208
   93SAPC  C210 8998   2.007   3.059  23.593  0.1300  0.0008 -0.0783
   93SAPC  H10R 8999   1.938   3.026  23.513  0.9407 -0.3895 -0.6251
   93SAPC  H10S 9000   2.046   3.160  23.564 -0.1184 -0.2840 -1.4513
   93SAPC  C211 9001   1.954   3.075  23.735 -0.2631  0.2790  0.5438
   93SAPC  H11R 9002   1.996   3.014  23.816  0.6257 -2.6739 -1.9621
   93SAPC  C212 9003   1.843   3.148  23.777 -0.3886  0.3946  0.4564
   93SAPC  H12R 9004   1.805   3.133  23.879  1.6331  0.0001  1.1930
   93SAPC  C213 9005   1.740   3.221  23.692  0.1780 -0.4030 -0.1233
   93SAPC  H13R 9006   1.633   3.193  23.706  0.1975 -0.9370 -0.9230
   93SAPC  H13S 9007   1.740   3.190  23.585 -2.6199  1.0659 -0.6670
   93SAPC  C214 9008   1.749   3.373  23.697  0.0994  0.1862  0.2248
   93SAPC  H14R 9009   1.844   3.414  23.735  0.4702 -0.3065 -0.1596
   93SAPC  C215 9010   1.653   3.461  23.653 -0.0799  0.9316 -0.0273
   93SAPC  H15R 9011   1.670   3.570  23.657  1.6021  0.6800  0.3364
   93SAPC  C216 9012   1.525   3.426  23.584 -0.4734  0.2794 -0.3369
   93SAPC  H16R 9013   1.448   3.388  23.655  0.0824 -0.3599 -0.0666
   93SAPC  H16S 9014   1.531   3.352  23.501 -1.8424 -1.2503  0.8665
   93SAPC  C217 9015   1.464   3.558  23.534  0.0370  0.0904  0.1947
   93SAPC  H17R 9016   1.472   3.643  23.605 -0.6894  1.1231 -0.9350
   93SAPC  H17S 9017   1.355   3.541  23.525  0.3708 -1.0411 -3.1070
   93SAPC  C218 9018   1.526   3.599  23.396  0.4879  0.5607  0.3220
   93SAPC  H18R 9019   1.518   3.507  23.335 -0.5246  1.0314 -0.2885
   93SAPC  H18S 9020   1.634   3.625  23.395  0.7188 -0.3405  1.0843
   93SAPC  C219 9021   1.431   3.701  23.322 -0.1773  0.5399  0.1853
   93SAPC  H19R 9022   1.444   3.797  23.376 -2.4554 -0.4016  2.6403
   93SAPC  H19S 9023   1.328   3.667  23.346  0.3361 -0.7517  0.6426
   93SAPC  C220 9024   1.457   3.708  23.171  0.1926 -0.2663 -0.4618
   93SAPC  H20R 9025   1.421   3.613  23.126 -2.2853  0.1255  0.5042
   93SAPC  H20S 9026   1.565   3.718  23.147 -0.0546 -1.3551 -2.2229
   93SAPC  H20T 9027   1.396   3.784  23.117 -0.8455 -0.5640  0.2721
   93SAPC   C33 9028   1.432   3.024  23.468 -0.5394  0.2028 -1.0736
   93SAPC   H3X 9029   1.492   3.079  23.543 -1.0941  0.3754 -0.7556
   93SAPC   H3Y 9030   1.402   2.932  23.523  2.5041 -0.3691 -0.1714
   93SAPC   C34 9031   1.303   3.103  23.448  0.1408 -0.3960  0.0846
   93SAPC   H4X 9032   1.213   3.049  23.411  0.4736 -0.4466 -0.6623
   93SAPC   H4Y 9033   1.316   3.176  23.364  0.4952 -2.1013 -1.4030
   93SAPC   C35 9034   1.257   3.179  23.577 -0.4458  0.7796 -0.2567
   93SAPC   H5X 9035   1.341   3.207  23.644 -1.5169  1.3725  0.8902
   93SAPC   H5Y 9036   1.203   3.099  23.633 -2.7374  2.3005 -0.1758
   93SAPC   C36 9037   1.164   3.295  23.549 -0.6170  0.0135  0.1292
   93SAPC   H6X 9038   1.061   3.262  23.523 -0.6881 -0.4184  0.9292
   93SAPC   H6Y 9039   1.210   3.358  23.470 -0.7661  0.5128  0.4358
   93SAPC   C37 9040   1.157   3.396  23.666  0.1119  0.5264 -0.4178
   93SAPC   H7X 9041   1.249   3.428  23.720 -2.3457  2.5975  2.9625
   93SAPC   H7Y 9042   1.100   3.344  23.746  1.0579  0.9805  0.5707
   93SAPC   C38 9043   1.086   3.528  23.634 -0.3977 -0.0774 -0.7026
   93SAPC   H8X 9044   0.987   3.520  23.586 -0.8973 -1.1819  0.4631
   93SAPC   H8Y 9045   1.147   3.584  23.560  0.7132  0.3712  0.5120
   93SAPC   C39 9046   1.072   3.632  23.750 -1.0028  0.6877  1.1967
   93SAPC   H9X 9047   1.053   3.578  23.845 -0.7607  0.1007  0.9138
   93SAPC   H9Y 9048   0.991   3.700  23.716 -0.2757  1.0510  0.1580
   93SAPC  C310 9049   1.201   3.707  23.770 -0.1546 -0.4396  0.6344
   93SAPC  H10X 9050   1.285   3.637  23.749  0.2815 -0.3309  1.9231
   93SAPC  H10Y 9051   1.214   3.735  23.877 -1.4497 -1.0009  0.9501
   93SAPC  C311 9052   1.230   3.817  23.671  0.6250  0.7308  0.4937
   93SAPC  H11X 9053   1.134   3.870  23.657 -1.8219 -3.2752  0.3865
   93SAPC  H11Y 9054   1.255   3.779  23.570 -0.2501  2.8773 -0.5857
   93SAPC  C312 9055   1.339   3.918  23.716  0.0458 -0.3316  0.4846
   93SAPC  H12X 9056   1.425   3.865  23.764  0.2201  0.9836  1.6856
   93SAPC  H12Y 9057   1.301   3.980  23.800  1.1122  1.6539 -0.4354
   93SAPC  C313 9058   1.372   4.016  23.598 -0.1994  0.0920  0.1784
   93SAPC  H13X 9059   1.439   3.950  23.540 -0.7192 -1.8296  1.6681
   93SAPC  H13Y 9060   1.436   4.092  23.647  1.8260 -2.2418  1.3526
   93SAPC  C314 9061   1.249   4.078  23.530 -0.2554 -0.3044  0.4275
   93SAPC  H14X 9062   1.208   4.140  23.613  2.5529  0.4424  1.3506
   93SAPC  H14Y 9063   1.184   3.993  23.499 -0.0309 -0.8400  1.3979
   93SAPC  C315 9064   1.292   4.155  23.407  0.1564  0.3906 -0.8316
   93SAPC  H15X 9065   1.338   4.072  23.350 -2.4959 -1.4238 -0.4862
   93SAPC  H15Y 9066   1.369   4.234  23.423 -1.5922  2.3356 -1.6946
   93SAPC  C316 9067   1.179   4.215  23.330  0.8235  0.4269 -0.2095
   93SAPC  H16X 9068   1.096   4.251  23.394 -0.0321  1.3596 -1.7776
   93SAPC  H16Y 9069   1.128   4.147  23.259  0.4462  1.5362 -1.0384
   93SAPC  C317 9070   1.240   4.318  23.238 -0.1379  1.0277 -0.6942
   93SAPC  H17X 9071   1.331   4.297  23.179  1.6170  2.5520  1.3135
   93SAPC  H17Y 9072   1.253   4.414  23.294 -0.9494  0.5139  0.4239
   93SAPC  C318 9073   1.120   4.351  23.143 -0.4616 -0.0492 -0.3671
   93SAPC  H18X 9074   1.103   4.267  23.072 -2.5697 -0.3737  0.4508
   93SAPC  H18Y 9075   1.142   4.447  23.090 -0.7540 -0.1109 -0.6040
   93SAPC  H18Z 9076   1.020   4.364  23.190  0.0305  0.9810  0.4263
   94SAPC     N 9077   0.445   2.343  21.449  0.1116 -0.1093 -0.3377
   94SAPC   C12 9078   0.574   2.299  21.386 -0.3691  0.5101 -0.4009
   94SAPC  H12A 9079   0.572   2.294  21.278 -1.3668  2.1874 -0.4966
   94SAPC  H12B 9080   0.592   2.196  21.413  0.2467  0.2219 -1.8039
   94SAPC   C13 9081   0.429   2.495  21.441  0.0121 -0.2616 -0.2082
   94SAPC  H13A 9082   0.504   2.548  21.499 -1.0472  1.1716 -0.0878
   94SAPC  H13B 9083   0.426   2.528  21.338  0.9128 -0.9772 -0.4723
   94SAPC  H13C 9084   0.339   2.521  21.494 -1.0583 -3.9756  0.1119
   94SAPC   C14 9085   0.322   2.280  21.388 -0.0431 -0.2490 -0.0744
   94SAPC  H14A 9086   0.241   2.335  21.434  1.1320  2.1657 -0.7370
   94SAPC  H14B 9087   0.316   2.301  21.282 -0.8519  0.2315  0.0597
   94SAPC  H14C 9088   0.321   2.172  21.399  1.4703 -0.1690  1.0370
   94SAPC   C15 9089   0.437   2.309  21.594 -0.2497  0.4422 -0.0072
   94SAPC  H15A 9090   0.530   2.323  21.648 -0.4283 -0.0927  0.4474
   94SAPC  H15B 9091   0.353   2.365  21.633 -1.1187 -0.7066 -0.1804
   94SAPC  H15C 9092   0.424   2.204  21.611  0.7203  0.2713 -0.2323
   94SAPC   C11 9093   0.691   2.381  21.429  0.5816  0.7011 -0.1831
   94SAPC  H11A 9094   0.686   2.406  21.537 -1.0259  0.3857 -0.1567
   94SAPC  H11B 9095   0.688   2.473  21.366  0.6100  0.5439 -0.4177
   94SAPC     P 9096   0.865   2.212  21.511  0.1448  0.1621 -0.1941
   94SAPC   O13 9097   0.757   2.191  21.620 -0.6723  0.3639  0.2240
   94SAPC   O14 9098   0.919   2.092  21.447 -0.2402 -0.2020 -0.3554
   94SAPC   O12 9099   0.809   2.307  21.404  0.1617  0.3816 -0.2901
   94SAPC   O11 9100   0.992   2.289  21.566  0.6191 -0.1097  0.1611
   94SAPC    C1 9101   0.987   2.382  21.672  1.3412  0.0039 -0.3355
   94SAPC    HA 9102   0.889   2.434  21.680  0.8204 -1.0547  0.4309
   94SAPC    HB 9103   0.989   2.331  21.771 -0.8370 -0.9470 -0.7186
   94SAPC    C2 9104   1.102   2.481  21.660  0.4486 -0.2125 -0.4249
   94SAPC    HS 9105   1.201   2.434  21.679  1.5690  2.4734  0.9784
   94SAPC   O21 9106   1.087   2.591  21.753  0.1192  0.0611 -0.4041
   94SAPC   C21 9107   1.129   2.561  21.872 -0.3817 -0.4661 -0.0011
   94SAPC   O22 9108   1.170   2.453  21.912 -0.0206  0.1987 -0.3127
   94SAPC   C22 9109   1.119   2.689  21.957  0.7650  0.7322 -0.1356
   94SAPC   H2R 9110   1.179   2.763  21.900 -1.5921  1.7933 -1.3626
   94SAPC   H2S 9111   1.010   2.709  21.945  0.6935  0.3037 -0.1975
   94SAPC    C3 9112   1.102   2.550  21.519 -0.1150 -0.2228  0.1849
   94SAPC    HX 9113   1.033   2.637  21.530  0.5613  0.4754 -0.9256
   94SAPC    HY 9114   1.055   2.492  21.437 -0.1140 -0.5452  0.4104
   94SAPC   O31 9115   1.235   2.606  21.489 -0.5056  0.1216  0.2811
   94SAPC   C31 9116   1.324   2.514  21.438  0.1143 -0.7426 -0.7431
   94SAPC   O32 9117   1.309   2.395  21.427 -0.6764 -0.1352  0.0728
   94SAPC   C32 9118   1.451   2.581  21.398 -0.8856 -0.5771  1.2678
   94SAPC   H2X 9119   1.529   2.531  21.459  1.8755  0.8281 -0.8569
   94SAPC   H2Y 9120   1.443   2.691  21.414 -1.1050 -0.3708 -0.0822
   94SAPC   C23 9121   1.151   2.670  22.106  0.6866  0.3170 -0.2206
   94SAPC   H3R 9122   1.256   2.635  22.114 -0.0575 -1.5351  3.7536
   94SAPC   H3S 9123   1.092   2.593  22.158 -0.3108  1.2899  0.1335
   94SAPC   C24 9124   1.147   2.798  22.177  0.7247 -0.8927  0.2142
   94SAPC   H4R 9125   1.039   2.822  22.185  0.7174 -1.5378  3.6404
   94SAPC   H4S 9126   1.197   2.877  22.118 -0.3404 -1.3540 -1.3806
   94SAPC   C25 9127   1.218   2.786  22.307  0.6470 -0.1628  0.4675
   94SAPC   H5R 9128   1.325   2.766  22.292  0.4750 -1.3953  0.7912
   94SAPC   C26 9129   1.165   2.790  22.432 -0.8261  0.0495 -0.4303
   94SAPC   H6R 9130   1.236   2.778  22.514 -1.5260 -0.4276  0.1161
   94SAPC   C27 9131   1.021   2.812  22.463 -0.2350  0.7237 -0.2319
   94SAPC   H7R 9132   0.968   2.731  22.409  0.7987 -1.2303  1.5471
   94SAPC   H7S 9133   0.986   2.904  22.411  0.9263 -0.0605 -2.4862
   94SAPC   C28 9134   0.987   2.802  22.612 -0.0329  0.2858  0.9117
   94SAPC   H8R 9135   0.998   2.700  22.650 -1.1686  0.5617  2.0651
   94SAPC   C29 9136   0.932   2.890  22.694  0.3085  0.1743  0.9477
   94SAPC   H9R 9137   0.911   2.852  22.795 -1.1661  2.3614  1.5418
   94SAPC  C210 9138   0.900   3.041  22.662 -0.2390  0.2250 -0.0141
   94SAPC  H10R 9139   0.981   3.086  22.600 -1.4080  1.4396 -0.7096
   94SAPC  H10S 9140   0.908   3.102  22.754  1.8806  1.0097 -0.6626
   94SAPC  C211 9141   0.767   3.072  22.602 -0.3813 -0.2818  0.6923
   94SAPC  H11R 9142   0.692   2.992  22.612 -1.0506  0.2435 -0.0085
   94SAPC  C212 9143   0.733   3.182  22.529 -0.6584 -0.0725  0.0544
   94SAPC  H12R 9144   0.630   3.186  22.491 -1.0638 -2.4794  0.7533
   94SAPC  C213 9145   0.816   3.303  22.512 -1.3285 -0.1966  0.1316
   94SAPC  H13R 9146   0.921   3.266  22.510 -1.1005  0.3400 -3.0684
   94SAPC  H13S 9147   0.810   3.379  22.593 -3.0808 -0.6030  0.4126
   94SAPC  C214 9148   0.778   3.363  22.377 -0.3981 -0.2454 -0.2324
   94SAPC  H14R 9149   0.813   3.303  22.291 -0.6505  0.2697 -0.7059
   94SAPC  C215 9150   0.714   3.484  22.360  0.2029 -0.4626  0.1404
   94SAPC  H15R 9151   0.692   3.508  22.255 -1.2748 -0.9811  0.3029
   94SAPC  C216 9152   0.660   3.577  22.465  0.3259  0.2203 -0.1786
   94SAPC  H16R 9153   0.738   3.652  22.488  0.0767  0.4577 -0.1011
   94SAPC  H16S 9154   0.647   3.530  22.565  0.7583 -0.0355 -0.2437
   94SAPC  C217 9155   0.527   3.634  22.423  0.3375 -0.3314 -0.1765
   94SAPC  H17R 9156   0.539   3.682  22.324  0.2763  1.3611  0.5865
   94SAPC  H17S 9157   0.500   3.711  22.499  0.8560 -1.1240  0.8485
   94SAPC  C218 9158   0.407   3.534  22.428  0.3555 -0.3635 -0.2829
   94SAPC  H18R 9159   0.412   3.508  22.536 -0.6966 -0.5297 -0.2634
   94SAPC  H18S 9160   0.427   3.442  22.368  0.5377  0.0740 -0.8947
   94SAPC  C219 9161   0.266   3.590  22.405 -0.6888 -0.5457 -0.1280
   94SAPC  H19R 9162   0.264   3.684  22.465  0.1649  0.0746 -1.0431
   94SAPC  H19S 9163   0.196   3.519  22.455 -2.3554  0.3909 -1.0298
   94SAPC  C220 9164   0.219   3.602  22.260 -0.1217  0.1519 -0.7284
   94SAPC  H20R 9165   0.254   3.513  22.204 -1.4542 -0.0213 -1.3364
   94SAPC  H20S 9166   0.270   3.690  22.216  2.2361 -0.7361  0.0962
   94SAPC  H20T 9167   0.108   3.612  22.252 -0.3654 -0.5633  1.1986
   94SAPC   C33 9168   1.483   2.568  21.244  0.0869  0.2293 -0.6779
   94SAPC   H3X 9169   1.513   2.465  21.216 -1.3003 -0.0643 -1.1723
   94SAPC   H3Y 9170   1.572   2.633  21.227  1.0683 -0.0312  2.7473
   94SAPC   C34 9171   1.360   2.606  21.153  0.4175  0.6009  0.9979
   94SAPC   H4X 9172   1.262   2.573  21.193  0.4230  1.7100  1.9905
   94SAPC   H4Y 9173   1.368   2.554  21.055  0.1123  2.3174  0.0288
   94SAPC   C35 9174   1.316   2.754  21.134 -0.0181 -0.5953  0.1044
   94SAPC   H5X 9175   1.312   2.819  21.224  2.1146 -0.6449  0.2911
   94SAPC   H5Y 9176   1.220   2.751  21.078  0.2107 -1.0881 -0.2714
   94SAPC   C36 9177   1.408   2.840  21.040 -0.2239 -0.1740  0.2771
   94SAPC   H6X 9178   1.434   2.771  20.957  0.9018 -0.7630  1.0979
   94SAPC   H6Y 9179   1.501   2.861  21.096 -1.5393  1.9961  1.8113
   94SAPC   C37 9180   1.345   2.968  20.980  0.2251 -0.2939  0.6561
   94SAPC   H7X 9181   1.428   3.021  20.929  0.4239  0.3113  1.5886
   94SAPC   H7Y 9182   1.317   3.028  21.069 -0.5762  2.5256 -1.3353
   94SAPC   C38 9183   1.216   2.966  20.891  0.1023 -0.3576 -0.4549
   94SAPC   H8X 9184   1.131   2.929  20.951  0.8115  1.5344  1.8900
   94SAPC   H8Y 9185   1.228   2.896  20.806  0.7332 -0.5567 -0.2077
   94SAPC   C39 9186   1.169   3.099  20.848 -0.0836 -0.7359  0.0414
   94SAPC   H9X 9187   1.249   3.152  20.792 -0.5858  1.9830  1.7019
   94SAPC   H9Y 9188   1.152   3.167  20.934 -0.3332 -1.1877  0.3559
   94SAPC  C310 9189   1.053   3.092  20.748  0.6431 -1.3328  0.1106
   94SAPC  H10X 9190   0.959   3.060  20.797 -0.2058 -1.1784 -1.3779
   94SAPC  H10Y 9191   1.079   3.032  20.658  1.3561  0.6992 -1.1114
   94SAPC  C311 9192   1.027   3.236  20.702  0.1319 -0.1654 -0.0198
   94SAPC  H11X 9193   1.103   3.286  20.637 -0.7970  1.2798 -0.0430
   94SAPC  H11Y 9194   1.012   3.304  20.789 -1.9836  0.4419 -0.7951
   94SAPC  C312 9195   0.895   3.246  20.615  0.3434 -0.7815 -0.9097
   94SAPC  H12X 9196   0.811   3.185  20.654  0.7847 -1.7611 -1.4460
   94SAPC  H12Y 9197   0.914   3.211  20.511 -1.8816  0.5958 -1.8365
   94SAPC  C313 9198   0.856   3.391  20.617 -0.3119  0.1692  0.1899
   94SAPC  H13X 9199   0.944   3.452  20.588  1.1037 -1.6119  0.5711
   94SAPC  H13Y 9200   0.818   3.415  20.719 -0.3949  0.6295  0.0515
   94SAPC  C314 9201   0.753   3.429  20.512 -0.4995  0.0376 -0.4769
   94SAPC  H14X 9202   0.663   3.364  20.523  1.0862 -2.1010  0.7774
   94SAPC  H14Y 9203   0.810   3.402  20.421  0.9520 -0.2695  0.4889
   94SAPC  C315 9204   0.713   3.577  20.519 -0.1599  0.6310 -0.1539
   94SAPC  H15X 9205   0.803   3.640  20.501  1.5661 -1.8942 -1.0130
   94SAPC  H15Y 9206   0.663   3.590  20.617 -1.8040  0.0658 -0.8824
   94SAPC  C316 9207   0.608   3.596  20.397 -0.8756  0.3622 -0.1550
   94SAPC  H16X 9208   0.534   3.513  20.406  0.0194 -0.5168 -0.6661
   94SAPC  H16Y 9209   0.670   3.571  20.308 -1.4158 -1.1423 -0.1318
   94SAPC  C317 9210   0.542   3.734  20.395 -0.6968 -0.1059  0.4802
   94SAPC  H17X 9211   0.470   3.738  20.479  1.5126 -3.0969  2.7261
   94SAPC  H17Y 9212   0.491   3.753  20.298 -1.2723  0.9398  0.9676
   94SAPC  C318 9213   0.629   3.864  20.418 -0.4151 -0.2730 -0.3327
   94SAPC  H18X 9214   0.571   3.950  20.456  1.5257  0.7501  0.4923
   94SAPC  H18Y 9215   0.685   3.890  20.325 -0.1175 -1.1627 -0.4168
   94SAPC  H18Z 9216   0.709   3.848  20.494 -1.2349  0.9226  0.8066
   95SAPC     N 9217   0.569   3.518  11.001  0.1425 -0.1887 -0.3527
   95SAPC   C12 9218   0.482   3.407  10.936 -0.0038  0.1356 -0.5545
   95SAPC  H12A 9219   0.505   3.318  10.992 -0.0707  0.6996  0.3765
   95SAPC  H12B 9220   0.514   3.383  10.835  0.9303 -0.1638 -0.1921
   95SAPC   C13 9221   0.710   3.480  10.996 -0.2408 -0.0607  0.6258
   95SAPC  H13A 9222   0.749   3.482  10.895  1.8858  0.2582  1.3890
   95SAPC  H13B 9223   0.775   3.534  11.062 -0.6199  1.6813 -0.3669
   95SAPC  H13C 9224   0.723   3.379  11.031  1.1330  0.5830  2.0723
   95SAPC   C14 9225   0.547   3.644  10.930  0.1991 -0.3601 -0.3407
   95SAPC  H14A 9226   0.564   3.631  10.824  1.5843 -1.8497  0.0073
   95SAPC  H14B 9227   0.442   3.666  10.940  0.2695 -0.7906  2.0320
   95SAPC  H14C 9228   0.605   3.731  10.956  1.3250 -0.4829 -2.2427
   95SAPC   C15 9229   0.529   3.545  11.144 -0.3639 -0.1588  0.2892
   95SAPC  H15A 9230   0.551   3.460  11.207  0.4453 -0.1988 -0.0289
   95SAPC  H15B 9231   0.592   3.628  11.175  1.1218 -1.1768  0.0949
   95SAPC  H15C 9232   0.424   3.570  11.147 -0.3983 -0.2512 -0.0894
   95SAPC   C11 9233   0.327   3.426  10.932  0.1557 -0.2911  0.1083
   95SAPC  H11A 9234   0.301   3.340  10.866  0.5881 -0.3138 -0.0353
   95SAPC  H11B 9235   0.304   3.524  10.885 -2.1229 -0.5603  0.5542
   95SAPC     P 9236   0.227   3.285  11.129 -0.1053 -0.2321  0.0954
   95SAPC   O13 9237   0.344   3.201  11.127 -0.0964  0.7610 -0.0950
   95SAPC   O14 9238   0.165   3.313  11.263 -0.4226  0.4341 -0.2071
   95SAPC   O12 9239   0.267   3.419  11.061  0.0202 -0.0816 -0.3247
   95SAPC   O11 9240   0.120   3.228  11.027  0.1808 -0.0219  0.0685
   95SAPC    C1 9241  -0.000   3.313  11.012 -0.2106  0.3847 -0.3508
   95SAPC    HA 9242  -0.075   3.311  11.094 -0.4746  1.2870 -0.5649
   95SAPC    HB 9243   0.022   3.418  10.984 -0.0755  0.9197  1.6465
   95SAPC    C2 9244  -0.091   3.267  10.888  0.0121 -0.0494 -0.0421
   95SAPC    HS 9245  -0.188   3.316  10.907 -0.2295 -0.1759 -0.8894
   95SAPC   O21 9246  -0.098   3.115  10.884 -0.4614 -0.3908  0.0227
   95SAPC   C21 9247  -0.132   3.058  10.997  0.0069  0.6589  0.3055
   95SAPC   O22 9248  -0.198   3.118  11.086  0.6624  0.3528  0.1587
   95SAPC   C22 9249  -0.096   2.907  10.998  0.0012  0.0674 -0.7023
   95SAPC   H2R 9250  -0.127   2.862  11.095 -1.1257 -1.4950 -1.7310
   95SAPC   H2S 9251  -0.161   2.858  10.923  0.7121 -0.1943 -1.1552
   95SAPC    C3 9252  -0.042   3.307  10.755  0.2119 -0.8220  0.0048
   95SAPC    HX 9253  -0.113   3.275  10.676  0.0352 -0.5076  0.0349
   95SAPC    HY 9254   0.058   3.262  10.738  1.2945  0.5103  2.3149
   95SAPC   O31 9255  -0.034   3.448  10.740 -0.1982 -0.0939  0.5786
   95SAPC   C31 9256   0.020   3.477  10.620  0.2672 -0.6472 -0.6011
   95SAPC   O32 9257   0.056   3.389  10.540 -0.3206  0.1148 -0.0978
   95SAPC   C32 9258   0.032   3.627  10.602 -0.1587 -0.0829 -0.4293
   95SAPC   H2X 9259   0.101   3.665  10.680 -1.3435  2.0626 -0.3526
   95SAPC   H2Y 9260  -0.064   3.682  10.612 -0.0252  0.5427 -2.2762
   95SAPC   C23 9261   0.051   2.881  10.976 -0.1637  0.3696 -0.4860
   95SAPC   H3R 9262   0.108   2.927  11.060  0.7303 -0.1863 -0.7781
   95SAPC   H3S 9263   0.072   2.939  10.883 -1.0368  2.7676  0.7039
   95SAPC   C24 9264   0.084   2.738  10.951  0.1242  0.0006  0.3026
   95SAPC   H4R 9265   0.028   2.705  10.861 -0.8172  1.8347  0.1633
   95SAPC   H4S 9266   0.036   2.684  11.035 -2.6802  0.1695 -1.0620
   95SAPC   C25 9267   0.228   2.701  10.935 -0.0974 -0.1029 -0.2967
   95SAPC   H5R 9268   0.290   2.703  11.026  2.1152  2.4905 -1.7040
   95SAPC   C26 9269   0.274   2.635  10.829 -1.1905  0.1666  0.2224
   95SAPC   H6R 9270   0.375   2.592  10.834 -1.6073 -1.0520 -1.1383
   95SAPC   C27 9271   0.211   2.616  10.692 -0.6195  0.4778 -0.8266
   95SAPC   H7R 9272   0.120   2.680  10.680  0.1204  1.8955  0.6514
   95SAPC   H7S 9273   0.171   2.513  10.687  1.4070 -0.3144 -1.2873
   95SAPC   C28 9274   0.312   2.654  10.590  0.5072  0.5591 -0.0792
   95SAPC   H8R 9275   0.321   2.758  10.556  0.8713  0.3544 -0.6175
   95SAPC   C29 9276   0.379   2.568  10.512  0.0532 -0.2726 -0.7059
   95SAPC   H9R 9277   0.444   2.611  10.434  1.0049  1.5041  0.9728
   95SAPC  C210 9278   0.372   2.416  10.514 -0.3382 -0.1549 -0.1415
   95SAPC  H10R 9279   0.371   2.383  10.620  1.0638 -0.4465 -0.1913
   95SAPC  H10S 9280   0.466   2.374  10.471 -0.3016  0.6462 -0.8587
   95SAPC  C211 9281   0.255   2.361  10.441 -0.1182  0.2789  0.3516
   95SAPC  H11R 9282   0.163   2.351  10.501 -0.1034 -1.0977  0.1619
   95SAPC  C212 9283   0.246   2.321  10.309 -0.1574  0.2455 -0.2637
   95SAPC  H12R 9284   0.150   2.282  10.271 -1.2841  1.7915  0.8491
   95SAPC  C213 9285   0.361   2.334  10.212 -0.1380  0.6905 -0.2547
   95SAPC  H13R 9286   0.451   2.385  10.254 -1.4597 -0.6842  4.9516
   95SAPC  H13S 9287   0.329   2.403  10.131  0.1119 -1.1342 -1.9529
   95SAPC  C214 9288   0.429   2.215  10.158  0.7007  0.3295  0.1183
   95SAPC  H14R 9289   0.413   2.123  10.215 -0.1788  0.2653 -0.2096
   95SAPC  C215 9290   0.515   2.205  10.060  0.1854 -0.0406  0.3348
   95SAPC  H15R 9291   0.570   2.111  10.048  0.7254  0.0731  1.8316
   95SAPC  C216 9292   0.574   2.329   9.992 -0.1071  0.1290 -0.5848
   95SAPC  H16R 9293   0.675   2.297   9.959  0.8140  1.7418  0.5434
   95SAPC  H16S 9294   0.593   2.414  10.060  1.6820 -0.2567 -0.5481
   95SAPC  C217 9295   0.512   2.376   9.863  0.3719  0.3327 -0.0415
   95SAPC  H17R 9296   0.413   2.420   9.884  0.1559 -0.3050  0.3027
   95SAPC  H17S 9297   0.490   2.291   9.794 -0.3356  1.1935 -0.9158
   95SAPC  C218 9298   0.601   2.478   9.795 -0.1022  0.4164 -0.1089
   95SAPC  H18R 9299   0.708   2.448   9.791  0.1359  1.3357 -1.1350
   95SAPC  H18S 9300   0.609   2.556   9.874  1.5801  0.1557  0.0233
   95SAPC  C219 9301   0.551   2.526   9.664  0.3642 -0.8335  0.4573
   95SAPC  H19R 9302   0.446   2.560   9.665  0.3121 -0.8023 -1.4252
   95SAPC  H19S 9303   0.535   2.442   9.592  2.4878  0.2574 -1.4213
   95SAPC  C220 9304   0.634   2.629   9.589 -0.3638 -0.2053  0.5712
   95SAPC  H20R 9305   0.742   2.615   9.610 -0.3316 -0.3219  0.3287
   95SAPC  H20S 9306   0.596   2.731   9.612  0.8976 -0.0990  2.3916
   95SAPC  H20T 9307   0.617   2.616   9.480 -1.3756 -1.2186  0.8348
   95SAPC   C33 9308   0.087   3.659  10.459  0.2338  0.2742  0.2006
   95SAPC   H3X 9309   0.179   3.598  10.444 -0.3035 -0.7472  0.9258
   95SAPC   H3Y 9310   0.116   3.766  10.468  2.1009  0.0076 -1.7427
   95SAPC   C34 9311  -0.013   3.627  10.348  0.8032 -0.2196 -0.1906
   95SAPC   H4X 9312  -0.070   3.535  10.374 -0.0072  0.2306 -0.3527
   95SAPC   H4Y 9313   0.031   3.589  10.253  2.8099 -1.3715  1.1227
   95SAPC   C35 9314  -0.124   3.727  10.334 -0.1895  0.1501 -0.1178
   95SAPC   H5X 9315  -0.079   3.820  10.291  1.3914 -1.3188 -1.7972
   95SAPC   H5Y 9316  -0.157   3.752  10.437 -1.1872  1.9003 -0.8028
   95SAPC   C36 9317  -0.240   3.678  10.241 -0.3383  0.1257 -0.4400
   95SAPC   H6X 9318  -0.310   3.600  10.276 -1.2285  1.9134  2.0169
   95SAPC   H6Y 9319  -0.184   3.637  10.153 -0.5174  1.3601 -1.1612
   95SAPC   C37 9320  -0.324   3.788  10.187  0.3825  0.2167 -0.1227
   95SAPC   H7X 9321  -0.391   3.735  10.117  0.5458  0.2624 -0.3154
   95SAPC   H7Y 9322  -0.262   3.858  10.126  0.1826 -1.0531 -1.8526
   95SAPC   C38 9323  -0.419   3.857  10.284 -0.5190  0.0466  0.1459
   95SAPC   H8X 9324  -0.354   3.898  10.365 -0.3484  1.3325 -0.6182
   95SAPC   H8Y 9325  -0.491   3.781  10.319 -0.7217  0.3012  0.2821
   95SAPC   C39 9326  -0.486   3.973  10.208  0.3748 -0.1975 -0.5963
   95SAPC   H9X 9327  -0.581   3.994  10.260 -0.4832 -1.9354 -1.3877
   95SAPC   H9Y 9328  -0.520   3.950  10.105 -1.0010  0.6982 -0.3592
   95SAPC  C310 9329  -0.403   4.102  10.197 -0.2692 -0.6895  0.2049
   95SAPC  H10X 9330  -0.301   4.085  10.157  0.1886 -0.0869  1.0830
   95SAPC  H10Y 9331  -0.381   4.148  10.296 -2.1984  0.7152  0.0547
   95SAPC  C311 9332  -0.475   4.203  10.114 -0.3389 -0.0292  0.2928
   95SAPC  H11X 9333  -0.570   4.231  10.166  0.2502  3.8247 -0.3769
   95SAPC  H11Y 9334  -0.503   4.168  10.012  0.9032 -1.9306  0.5576
   95SAPC  C312 9335  -0.394   4.339  10.078  0.0976 -0.1631  0.4811
   95SAPC  H12X 9336  -0.313   4.307  10.009 -0.1963 -1.7514  0.8306
   95SAPC  H12Y 9337  -0.359   4.387  10.172 -0.6439  2.5302 -0.5033
   95SAPC  C313 9338  -0.474   4.441  10.012 -0.5180 -0.1168  0.8137
   95SAPC  H13X 9339  -0.554   4.473  10.083  1.1873 -0.8305  3.1747
   95SAPC  H13Y 9340  -0.530   4.393   9.929  0.8198  0.2121 -0.3173
   95SAPC  C314 9341  -0.391   4.561   9.963  0.5176  0.2869  0.8004
   95SAPC  H14X 9342  -0.307   4.530   9.898  0.3336 -0.0117  0.7001
   95SAPC  H14Y 9343  -0.344   4.609  10.051 -0.7819  0.3784  1.4788
   95SAPC  C315 9344  -0.487   4.661   9.889 -0.1225  1.1692  0.0505
   95SAPC  H15X 9345  -0.429   4.752   9.866  1.4611  0.3447  0.6249
   95SAPC  H15Y 9346  -0.558   4.691   9.969 -0.0273  0.3022  0.4799
   95SAPC  C316 9347  -0.544   4.605   9.757 -0.0703  0.3215  0.2916
   95SAPC  H16X 9348  -0.612   4.685   9.719  1.7002  1.8693  0.2552
   95SAPC  H16Y 9349  -0.611   4.519   9.781  0.8288 -0.7413 -0.8704
   95SAPC  C317 9350  -0.443   4.548   9.652  0.4935 -0.1461 -0.5270
   95SAPC  H17X 9351  -0.503   4.527   9.561 -0.2507 -0.2994 -0.0144
   95SAPC  H17Y 9352  -0.408   4.448   9.686  1.0075 -0.9512 -3.2406
   95SAPC  C318 9353  -0.322   4.646   9.620 -0.4266  0.0552 -0.2939
   95SAPC  H18X 9354  -0.255   4.593   9.548 -0.7601  0.1332 -0.6632
   95SAPC  H18Y 9355  -0.255   4.663   9.706 -1.4564  1.2502  0.2925
   95SAPC  H18Z 9356  -0.352   4.738   9.566  2.7315  1.0833 -0.4913
   96SAPC     N 9357   2.342   3.120   6.910 -0.5517 -0.2934  0.1917
   96SAPC   C12 9358   2.197   3.123   6.952 -0.2939  0.5699  0.3297
   96SAPC  H12A 9359   2.128   3.146   6.872 -0.5302  2.6744  1.0728
   96SAPC  H12B 9360   2.203   3.201   7.026  2.0810 -0.0236  0.8450
   96SAPC   C13 9361   2.428   3.129   7.030 -0.5202  0.0830  0.2346
   96SAPC  H13A 9362   2.533   3.134   7.009 -0.5363  0.8882  0.3268
   96SAPC  H13B 9363   2.412   3.212   7.097 -1.8766  0.3957 -0.4382
   96SAPC  H13C 9364   2.403   3.050   7.100 -1.5587 -1.2527 -1.5555
   96SAPC   C14 9365   2.387   2.996   6.829 -0.0193 -0.0317 -0.4017
   96SAPC  H14A 9366   2.386   2.906   6.888 -1.6316 -1.3364 -2.3134
   96SAPC  H14B 9367   2.324   2.980   6.743  0.5040 -0.4525 -0.7101
   96SAPC  H14C 9368   2.488   3.012   6.795  0.6498 -0.9454  1.0870
   96SAPC   C15 9369   2.367   3.239   6.826  1.2884 -0.2742 -0.2165
   96SAPC  H15A 9370   2.350   3.324   6.891 -0.4383 -0.9789  0.3268
   96SAPC  H15B 9371   2.467   3.255   6.789  0.3403  0.5287 -2.5872
   96SAPC  H15C 9372   2.294   3.254   6.748  2.6580 -0.7533 -1.6295
   96SAPC   C11 9373   2.150   2.992   7.017  0.2914 -0.1504  0.2988
   96SAPC  H11A 9374   2.159   2.916   6.937  1.9179  1.2909 -0.9574
   96SAPC  H11B 9375   2.044   3.008   7.047  0.6072  0.1727  1.2795
   96SAPC     P 9376   2.289   2.815   7.156  0.2785 -0.2157 -0.5480
   96SAPC   O13 9377   2.391   2.788   7.056 -0.4804  0.2008 -0.3335
   96SAPC   O14 9378   2.338   2.816   7.295  0.6169  0.5103  0.1988
   96SAPC   O12 9379   2.224   2.957   7.131  0.0851  0.1112  0.4891
   96SAPC   O11 9380   2.165   2.714   7.149  0.0410 -0.2820 -0.0345
   96SAPC    C1 9381   2.042   2.753   7.206 -0.5391 -0.2471  0.3399
   96SAPC    HA 9382   2.036   2.862   7.228 -2.2333 -0.0052 -1.0914
   96SAPC    HB 9383   1.967   2.738   7.126 -0.1172 -0.2742 -0.0511
   96SAPC    C2 9384   2.007   2.677   7.335  0.4499 -0.2799 -0.1745
   96SAPC    HS 9385   1.913   2.723   7.373  1.4561 -0.0643  2.2504
   96SAPC   O21 9386   2.099   2.696   7.443  0.3444 -0.1299 -0.5553
   96SAPC   C21 9387   2.107   2.821   7.494 -1.1835  0.8484  0.3706
   96SAPC   O22 9388   2.049   2.915   7.449  0.4680 -0.3974  0.3130
   96SAPC   C22 9389   2.207   2.812   7.607  0.1777  0.3420  0.6023
   96SAPC   H2R 9390   2.277   2.728   7.589  0.1576  0.5119 -0.2804
   96SAPC   H2S 9391   2.272   2.901   7.600  0.4292  0.1834  0.9065
   96SAPC    C3 9392   1.989   2.525   7.301 -0.4013 -0.3994  0.0172
   96SAPC    HX 9393   2.064   2.490   7.227  0.2972 -1.2153  1.0727
   96SAPC    HY 9394   1.890   2.506   7.254 -0.5598 -1.2175  0.6563
   96SAPC   O31 9395   2.003   2.440   7.415  0.2639  0.4803  0.0223
   96SAPC   C31 9396   1.905   2.451   7.502  0.0304  0.2934 -0.3417
   96SAPC   O32 9397   1.810   2.527   7.494  0.0325  1.3033  0.3665
   96SAPC   C32 9398   1.915   2.356   7.622  0.4273  0.2279  0.0387
   96SAPC   H2X 9399   1.932   2.253   7.583 -0.7348  0.4636 -1.1300
   96SAPC   H2Y 9400   1.819   2.373   7.675  1.1550 -0.0444  1.5160
   96SAPC   C23 9401   2.142   2.791   7.744  0.3685 -0.0149  0.9643
   96SAPC   H3R 9402   2.080   2.699   7.748  1.2184 -0.5957  0.9505
   96SAPC   H3S 9403   2.069   2.873   7.762  0.6228  0.1588  1.2133
   96SAPC   C24 9404   2.241   2.802   7.870 -0.3538  0.0971 -0.3482
   96SAPC   H4R 9405   2.173   2.835   7.951 -1.6730  2.5649 -2.3109
   96SAPC   H4S 9406   2.312   2.887   7.855  0.5190 -0.7731 -1.3769
   96SAPC   C25 9407   2.306   2.675   7.894  0.0945  0.3773 -0.0533
   96SAPC   H5R 9408   2.319   2.609   7.807 -3.1173  0.8763 -1.0595
   96SAPC   C26 9409   2.354   2.642   8.017  0.3935 -0.2413  0.7021
   96SAPC   H6R 9410   2.416   2.552   8.027 -0.3315 -0.7533  0.7091
   96SAPC   C27 9411   2.341   2.728   8.140 -0.8151  1.2714  0.7773
   96SAPC   H7R 9412   2.318   2.661   8.225  3.3404 -2.1194 -0.4075
   96SAPC   H7S 9413   2.270   2.813   8.136  0.5275  2.5679  2.4493
   96SAPC   C28 9414   2.469   2.795   8.171  0.3926 -0.0309 -0.4807
   96SAPC   H8R 9415   2.489   2.875   8.098  0.0342  0.6103  0.1165
   96SAPC   C29 9416   2.546   2.775   8.280 -0.3411  0.0273  0.1819
   96SAPC   H9R 9417   2.629   2.845   8.298 -1.6343  1.6404  0.1267
   96SAPC  C210 9418   2.509   2.676   8.385 -0.1037 -0.1418 -0.1189
   96SAPC  H10R 9419   2.601   2.661   8.447  1.3018  0.4138 -1.9767
   96SAPC  H10S 9420   2.482   2.578   8.340 -1.7759  0.5897 -0.7566
   96SAPC  C211 9421   2.398   2.725   8.481 -0.2700  0.0872  0.4611
   96SAPC  H11R 9422   2.324   2.792   8.435  0.5615  1.8424  1.5590
   96SAPC  C212 9423   2.397   2.699   8.611 -1.1376  0.1762  0.8426
   96SAPC  H12R 9424   2.321   2.759   8.664 -2.6894  1.4725 -2.5612
   96SAPC  C213 9425   2.499   2.620   8.688  0.0903 -0.4473  0.5157
   96SAPC  H13R 9426   2.529   2.700   8.759 -1.4505 -0.4947  1.2742
   96SAPC  H13S 9427   2.585   2.573   8.637  0.4146 -1.2615  1.7591
   96SAPC  C214 9428   2.429   2.497   8.747 -0.1511  0.2934 -0.3845
   96SAPC  H14R 9429   2.434   2.403   8.690 -0.6238 -1.1914  1.8908
   96SAPC  C215 9430   2.369   2.483   8.869  0.4461  0.3381  0.1724
   96SAPC  H15R 9431   2.327   2.388   8.904 -2.7852  1.9726  1.1859
   96SAPC  C216 9432   2.358   2.585   8.980  0.6296 -0.5696 -0.4830
   96SAPC  H16R 9433   2.436   2.664   8.971 -2.1187  2.2951 -0.5625
   96SAPC  H16S 9434   2.377   2.536   9.078 -1.7195 -0.0868  0.2654
   96SAPC  C217 9435   2.220   2.648   8.978  0.1332  0.7916 -0.0737
   96SAPC  H17R 9436   2.145   2.566   8.969 -0.0261  1.1600 -2.6130
   96SAPC  H17S 9437   2.202   2.714   8.891 -0.5425  0.0464 -0.5065
   96SAPC  C218 9438   2.190   2.720   9.109 -0.2207  0.3149 -0.0465
   96SAPC  H18R 9439   2.264   2.791   9.152 -0.0118  0.7113 -1.0282
   96SAPC  H18S 9440   2.173   2.649   9.193 -0.9333  1.9105  1.2144
   96SAPC  C219 9441   2.054   2.799   9.114 -0.0689  0.4633  0.1661
   96SAPC  H19R 9442   1.980   2.725   9.077  0.8640 -1.0695  1.2756
   96SAPC  H19S 9443   2.057   2.881   9.040 -2.6432 -0.3000 -0.9118
   96SAPC  C220 9444   2.010   2.846   9.257  0.1552  0.0804 -0.3885
   96SAPC  H20R 9445   2.040   2.775   9.338  1.4453  1.2876  0.2372
   96SAPC  H20S 9446   1.900   2.851   9.272  0.0353  0.4055 -1.3232
   96SAPC  H20T 9447   2.057   2.946   9.268  1.5360 -0.5768 -0.0563
   96SAPC   C33 9448   2.030   2.401   7.713  0.0332  0.4673 -0.5649
   96SAPC   H3X 9449   2.007   2.505   7.743  0.8424  0.2651  0.8151
   96SAPC   H3Y 9450   2.134   2.384   7.679  0.2813  1.3290 -0.2445
   96SAPC   C34 9451   2.024   2.327   7.850 -0.4005 -0.0592  0.2508
   96SAPC   H4X 9452   2.017   2.219   7.826  1.3120  0.1309 -1.3086
   96SAPC   H4Y 9453   1.926   2.335   7.902 -0.8178 -1.2550 -0.3103
   96SAPC   C35 9454   2.138   2.343   7.950  0.1729  0.0878 -0.0930
   96SAPC   H5X 9455   2.142   2.450   7.982  1.4078  0.6931 -2.1246
   96SAPC   H5Y 9456   2.228   2.324   7.889  0.8938 -1.8637  1.4684
   96SAPC   C36 9457   2.138   2.253   8.081 -0.4123 -0.5579 -0.5692
   96SAPC   H6X 9458   2.123   2.148   8.049 -0.8564 -0.7335  0.2088
   96SAPC   H6Y 9459   2.051   2.281   8.145 -0.0577  0.4862 -0.5283
   96SAPC   C37 9460   2.277   2.282   8.149  0.3575 -0.7794 -0.1753
   96SAPC   H7X 9461   2.283   2.385   8.189  0.0391 -1.1046  0.7336
   96SAPC   H7Y 9462   2.366   2.289   8.082  2.5116  0.3387  2.5986
   96SAPC   C38 9463   2.324   2.184   8.254  0.3589 -0.4520 -0.0820
   96SAPC   H8X 9464   2.433   2.182   8.273  0.0552  1.3554  2.4540
   96SAPC   H8Y 9465   2.296   2.088   8.206 -1.0521 -0.0412 -0.1134
   96SAPC   C39 9466   2.247   2.205   8.391 -0.3237 -0.2185 -0.0442
   96SAPC   H9X 9467   2.142   2.234   8.369  0.0407  1.6235  0.4753
   96SAPC   H9Y 9468   2.283   2.289   8.454  0.5706 -0.8261  0.2755
   96SAPC  C310 9469   2.245   2.070   8.467  0.1241  0.4027 -0.7180
   96SAPC  H10X 9470   2.344   2.021   8.453 -0.8149 -2.4417  1.7211
   96SAPC  H10Y 9471   2.168   2.009   8.416 -0.9573  2.9498 -2.3634
   96SAPC  C311 9472   2.213   2.075   8.616 -0.3354  1.1394 -0.2145
   96SAPC  H11X 9473   2.115   2.126   8.632 -0.4820  0.3534  1.6396
   96SAPC  H11Y 9474   2.291   2.141   8.659  0.3612  0.5909 -0.6308
   96SAPC  C312 9475   2.214   1.943   8.687  0.2408 -0.1349 -0.4827
   96SAPC  H12X 9476   2.308   1.891   8.658 -0.5895 -1.2152 -1.3388
   96SAPC  H12Y 9477   2.134   1.881   8.639 -1.1976 -1.6326  3.4545
   96SAPC  C313 9478   2.186   1.956   8.838 -0.4914  0.0414  0.6311
   96SAPC  H13X 9479   2.093   2.011   8.865 -1.1887 -1.0205  0.4231
   96SAPC  H13Y 9480   2.274   2.002   8.889 -1.0826  0.1309  1.6126
   96SAPC  C314 9481   2.160   1.818   8.905  0.2584 -0.1388  0.6850
   96SAPC  H14X 9482   2.249   1.761   8.868  0.0251 -0.2420  0.2736
   96SAPC  H14Y 9483   2.065   1.767   8.879  0.4147 -0.6346  1.0702
   96SAPC  C315 9484   2.166   1.824   9.054  0.3216 -0.2014  0.3350
   96SAPC  H15X 9485   2.255   1.880   9.091 -0.3561  0.3959  1.0905
   96SAPC  H15Y 9486   2.171   1.720   9.093 -0.6422  0.0063  1.0541
   96SAPC  C316 9487   2.053   1.910   9.111 -0.0534  0.5353 -0.0585
   96SAPC  H16X 9488   1.953   1.870   9.084 -0.1210  0.4700  0.2852
   96SAPC  H16Y 9489   2.055   2.013   9.068  3.4019  0.4395 -0.4019
   96SAPC  C317 9490   2.059   1.916   9.264 -0.1344  0.2098  0.0351
   96SAPC  H17X 9491   2.152   1.966   9.298 -0.5084  1.3792 -0.6175
   96SAPC  H17Y 9492   2.052   1.815   9.310 -0.2315 -0.2339 -0.9434
   96SAPC  C318 9493   1.936   1.994   9.311 -0.7536 -0.3967 -0.4615
   96SAPC  H18X 9494   1.844   1.938   9.284 -1.1389 -1.3750  2.5229
   96SAPC  H18Y 9495   1.945   2.094   9.263 -1.3702 -0.9439 -1.7786
   96SAPC  H18Z 9496   1.947   2.007   9.420 -0.6414 -0.2587 -0.4882
   97SAPC     N 9497   1.292   2.925  11.339  0.1678 -0.0373 -0.7126
   97SAPC   C12 9498   1.220   2.957  11.209  1.2010  0.0266 -0.5955
   97SAPC  H12A 9499   1.298   2.996  11.145  2.1559  1.1673  1.1877
   97SAPC  H12B 9500   1.137   3.024  11.223 -0.5336 -2.1702  0.1934
   97SAPC   C13 9501   1.385   2.803  11.328 -0.6389  0.3605  0.9083
   97SAPC  H13A 9502   1.328   2.717  11.296 -1.1687  0.7818  0.7057
   97SAPC  H13B 9503   1.460   2.825  11.253 -0.8303 -1.8604 -0.0155
   97SAPC  H13C 9504   1.432   2.778  11.422  0.7382 -0.2533  0.0877
   97SAPC   C14 9505   1.365   3.052  11.384  0.9038  0.5172 -0.2228
   97SAPC  H14A 9506   1.281   3.116  11.405  0.2924  0.3158 -1.9354
   97SAPC  H14B 9507   1.429   3.033  11.469  2.3205 -0.4511 -1.4557
   97SAPC  H14C 9508   1.427   3.095  11.307  1.9971  0.0194  0.3586
   97SAPC   C15 9509   1.187   2.887  11.441 -0.8117 -0.2809  0.4546
   97SAPC  H15A 9510   1.106   2.957  11.456 -1.4772 -0.5870 -1.4902
   97SAPC  H15B 9511   1.159   2.787  11.415  2.7411 -0.7644 -2.1839
   97SAPC  H15C 9512   1.235   2.878  11.537  0.3429 -0.4552 -0.1296
   97SAPC   C11 9513   1.151   2.833  11.132  0.5067  0.2335  0.0324
   97SAPC  H11A 9514   1.081   2.882  11.061 -0.5683 -0.2464  0.7406
   97SAPC  H11B 9515   1.083   2.773  11.197 -0.7796 -0.2964 -1.7366
   97SAPC     P 9516   1.220   2.674  10.935  0.4022 -0.1881 -0.2367
   97SAPC   O13 9517   1.287   2.758  10.831 -0.0424  0.7137  0.0420
   97SAPC   O14 9518   1.256   2.531  10.940  0.0659 -0.3330 -0.5399
   97SAPC   O12 9519   1.248   2.745  11.079 -0.2923  0.0053 -0.2511
   97SAPC   O11 9520   1.063   2.691  10.914 -0.2563  0.2740 -0.1088
   97SAPC    C1 9521   0.961   2.617  10.978  0.5648 -1.0712 -0.1789
   97SAPC    HA 9522   1.004   2.562  11.065  1.1946 -2.0540 -1.1030
   97SAPC    HB 9523   0.892   2.693  11.023 -0.7315 -2.1980 -0.2197
   97SAPC    C2 9524   0.865   2.527  10.887 -0.1214 -0.2893  0.7192
   97SAPC    HS 9525   0.776   2.513  10.951  0.9329  1.4714  2.7093
   97SAPC   O21 9526   0.944   2.410  10.859 -0.3611 -0.1504  0.3474
   97SAPC   C21 9527   0.933   2.319  10.956  0.5976  0.1161 -0.9925
   97SAPC   O22 9528   0.858   2.329  11.056 -0.0192  0.4623 -0.2034
   97SAPC   C22 9529   1.023   2.194  10.939  0.4542  0.8917 -0.3229
   97SAPC   H2R 9530   1.075   2.184  10.841 -0.0747 -3.2162 -0.3537
   97SAPC   H2S 9531   1.107   2.204  11.011  0.0494  0.5602  0.2041
   97SAPC    C3 9532   0.817   2.601  10.760 -0.6642  0.0579 -0.0992
   97SAPC    HX 9533   0.897   2.659  10.708  0.2232 -1.1054 -0.0569
   97SAPC    HY 9534   0.730   2.668  10.774 -0.2528  0.6017 -0.0719
   97SAPC   O31 9535   0.762   2.501  10.673  0.3038 -0.0975  0.1696
   97SAPC   C31 9536   0.845   2.449  10.588  0.0076 -0.5262 -0.2517
   97SAPC   O32 9537   0.964   2.475  10.579 -0.1712 -0.2220 -0.5816
   97SAPC   C32 9538   0.773   2.354  10.497  0.0086 -0.4210 -0.7696
   97SAPC   H2X 9539   0.749   2.407  10.402  0.7795  2.3883  0.4827
   97SAPC   H2Y 9540   0.674   2.322  10.535  0.5958  0.3660  1.5905
   97SAPC   C23 9541   0.938   2.066  10.941 -0.1542  0.9857  0.2255
   97SAPC   H3R 9542   0.858   2.061  11.018  0.5945 -0.2250  0.9626
   97SAPC   H3S 9543   1.008   1.981  10.958  0.2638  1.6877  2.2725
   97SAPC   C24 9544   0.856   2.054  10.808 -0.5992  0.2987  0.3888
   97SAPC   H4R 9545   0.930   2.055  10.724 -1.4046  0.5684 -0.3353
   97SAPC   H4S 9546   0.803   2.152  10.805  0.8209  1.0757 -0.5022
   97SAPC   C25 9547   0.750   1.951  10.796  0.5462  0.1742 -0.7071
   97SAPC   H5R 9548   0.660   1.970  10.856  1.4820 -1.2164  1.2621
   97SAPC   C26 9549   0.758   1.840  10.724  0.1656 -0.2656 -0.2650
   97SAPC   H6R 9550   0.680   1.762  10.727  1.6364 -1.8254 -0.9966
   97SAPC   C27 9551   0.866   1.788  10.630 -0.5687 -0.5514  0.6274
   97SAPC   H7R 9552   0.941   1.869  10.621  0.5556 -1.6099  0.0803
   97SAPC   H7S 9553   0.823   1.770  10.529 -0.7396  3.3040 -0.1221
   97SAPC   C28 9554   0.927   1.669  10.698  0.2875  0.1658  0.2105
   97SAPC   H8R 9555   0.953   1.680  10.804 -1.5250 -3.3169  1.1503
   97SAPC   C29 9556   0.973   1.556  10.631  0.1659 -0.6907 -0.2575
   97SAPC   H9R 9557   1.023   1.484  10.698  0.6185  1.2141  1.5671
   97SAPC  C210 9558   0.950   1.522  10.484  0.6290 -0.0748 -0.3865
   97SAPC  H10R 9559   0.866   1.580  10.442 -0.9009  0.6199  3.3039
   97SAPC  H10S 9560   0.917   1.416  10.478 -1.7426  0.5433  0.6423
   97SAPC  C211 9561   1.075   1.541  10.413 -0.0580  0.3802  0.1555
   97SAPC  H11R 9562   1.100   1.647  10.398  1.1820 -0.2580 -2.9980
   97SAPC  C212 9563   1.154   1.449  10.357 -0.0107 -0.2204 -0.1360
   97SAPC  H12R 9564   1.248   1.484  10.311  0.4963 -0.6905  0.5340
   97SAPC  C213 9565   1.131   1.301  10.365  0.1591  0.5750 -0.6310
   97SAPC  H13R 9566   1.125   1.267  10.260 -0.7684 -0.2979 -0.3110
   97SAPC  H13S 9567   1.031   1.273  10.405 -0.0201 -1.9325 -2.6008
   97SAPC  C214 9568   1.234   1.237  10.451 -0.1488 -0.3037 -0.5190
   97SAPC  H14R 9569   1.296   1.298  10.519  1.3897 -1.0247 -1.2186
   97SAPC  C215 9570   1.260   1.104  10.449 -0.8359  0.2950 -0.3650
   97SAPC  H15R 9571   1.340   1.057  10.509 -1.9075 -0.0442  0.8462
   97SAPC  C216 9572   1.198   1.002  10.363  0.8478  0.1553 -0.6023
   97SAPC  H16R 9573   1.243   0.991  10.262  2.8664  0.0650  0.2462
   97SAPC  H16S 9574   1.092   1.031  10.347  1.2097  2.6781  0.9509
   97SAPC  C217 9575   1.187   0.858  10.414  0.0519  0.1256  0.1402
   97SAPC  H17R 9576   1.116   0.843  10.498  0.0743  0.6288  0.2492
   97SAPC  H17S 9577   1.286   0.815  10.441  0.6364  0.4607 -1.3691
   97SAPC  C218 9578   1.136   0.763  10.299 -0.7154 -0.0926  0.3370
   97SAPC  H18R 9579   1.199   0.770  10.208  0.2475 -1.2558  0.8802
   97SAPC  H18S 9580   1.037   0.802  10.267 -0.4201  1.5740  1.3308
   97SAPC  C219 9581   1.117   0.614  10.341 -0.5898 -0.1916  0.8482
   97SAPC  H19R 9582   1.032   0.611  10.412 -2.0586 -0.0421 -0.8360
   97SAPC  H19S 9583   1.208   0.575  10.393  0.2949  1.8686  0.9488
   97SAPC  C220 9584   1.074   0.532  10.219 -0.1031 -0.1806 -0.1423
   97SAPC  H20R 9585   1.071   0.430  10.264  0.3669 -0.2229 -0.2074
   97SAPC  H20S 9586   1.144   0.513  10.135  0.3230 -3.4882  0.8191
   97SAPC  H20T 9587   0.981   0.583  10.186 -1.6232 -0.2839  3.4799
   97SAPC   C33 9588   0.854   2.225  10.464 -0.6062 -0.5131 -0.4055
   97SAPC   H3X 9589   0.857   2.168  10.559 -2.7489 -1.6194 -0.9493
   97SAPC   H3Y 9590   0.957   2.260  10.439 -1.0359  2.6897  1.6501
   97SAPC   C34 9591   0.797   2.135  10.357 -0.1804  0.5080 -0.2429
   97SAPC   H4X 9592   0.747   2.200  10.282 -0.4300  0.3686 -0.2005
   97SAPC   H4Y 9593   0.712   2.074  10.395 -0.2861  0.2450 -0.8791
   97SAPC   C35 9594   0.890   2.050  10.283 -1.1274 -0.0153  0.5527
   97SAPC   H5X 9595   0.916   1.958  10.338 -0.1823  0.2910  0.6317
   97SAPC   H5Y 9596   0.984   2.106  10.262 -0.6977 -0.3890  1.4394
   97SAPC   C36 9597   0.831   2.031  10.148 -0.1984  0.5590 -0.3734
   97SAPC   H6X 9598   0.914   2.012  10.076  0.3755 -1.0181  0.6400
   97SAPC   H6Y 9599   0.781   2.122  10.110 -0.7562  0.6401  0.5287
   97SAPC   C37 9600   0.740   1.903  10.145  0.2485 -0.2324  0.2742
   97SAPC   H7X 9601   0.696   1.893  10.044 -0.2311  0.1511  0.4408
   97SAPC   H7Y 9602   0.658   1.910  10.220  0.1851  1.3653  0.0956
   97SAPC   C38 9603   0.812   1.771  10.178 -0.3025 -0.1282 -0.0441
   97SAPC   H8X 9604   0.840   1.774  10.285 -1.2570 -1.0352  0.2485
   97SAPC   H8Y 9605   0.907   1.763  10.121  0.1469  0.0049  0.6720
   97SAPC   C39 9606   0.727   1.646  10.161  0.3112  1.1520 -0.2484
   97SAPC   H9X 9607   0.792   1.556  10.175  1.3884  1.7385 -1.3112
   97SAPC   H9Y 9608   0.680   1.623  10.063  2.7423 -1.7709 -0.8889
   97SAPC  C310 9609   0.609   1.648  10.259 -0.5969  0.0692  0.8412
   97SAPC  H10X 9610   0.532   1.710  10.208 -0.1430 -0.7028 -0.8405
   97SAPC  H10Y 9611   0.635   1.692  10.358  0.5727  1.6816 -0.1303
   97SAPC  C311 9612   0.566   1.507  10.293 -0.1511 -0.1910  0.5982
   97SAPC  H11X 9613   0.653   1.439  10.302  0.4380  0.3839 -0.5935
   97SAPC  H11Y 9614   0.510   1.472  10.203  1.8027 -0.5522 -0.5387
   97SAPC  C312 9615   0.475   1.496  10.419 -0.2107 -0.7120 -0.1484
   97SAPC  H12X 9616   0.391   1.568  10.408 -1.3026 -2.1627 -2.1156
   97SAPC  H12Y 9617   0.529   1.533  10.508  0.8185 -0.4489 -0.8630
   97SAPC  C313 9618   0.403   1.366  10.434  0.0196 -0.0830 -0.9058
   97SAPC  H13X 9619   0.468   1.275  10.435 -0.3055 -0.3399  1.1341
   97SAPC  H13Y 9620   0.336   1.355  10.346 -1.3602 -2.0118  0.3233
   97SAPC  C314 9621   0.313   1.360  10.561 -0.2318 -0.1753 -0.5512
   97SAPC  H14X 9622   0.227   1.430  10.552 -0.3121 -0.1554  0.3028
   97SAPC  H14Y 9623   0.375   1.386  10.649 -0.3648 -0.4040 -0.3874
   97SAPC  C315 9624   0.262   1.224  10.601  0.1712  0.3237  0.0088
   97SAPC  H15X 9625   0.234   1.221  10.708  1.8769 -1.3182  0.4681
   97SAPC  H15Y 9626   0.339   1.145  10.587 -0.5664 -0.2174 -1.1621
   97SAPC  C316 9627   0.136   1.176  10.520  0.0176  0.3275 -0.1122
   97SAPC  H16X 9628   0.174   1.149  10.419  2.8071  0.3634  0.8639
   97SAPC  H16Y 9629   0.069   1.261  10.496  1.5701  1.3083 -1.1471
   97SAPC  C317 9630   0.057   1.065  10.595  0.0321 -0.1082 -0.7182
   97SAPC  H17X 9631  -0.020   1.025  10.526  0.3478  0.6586 -1.5378
   97SAPC  H17Y 9632   0.003   1.107  10.683 -0.7309 -2.7805  0.1647
   97SAPC  C318 9633   0.140   0.940  10.639 -0.3830  0.2344  0.4502
   97SAPC  H18X 9634   0.163   0.877  10.551  1.8175  1.3314  0.1538
   97SAPC  H18Y 9635   0.084   0.871  10.705  0.0748 -0.4260  0.1559
   97SAPC  H18Z 9636   0.232   0.979  10.688  0.2570  1.2667 -1.4906
   98SAPC     N 9637   1.019   0.014  10.525 -0.1063  0.0471  0.1699
   98SAPC   C12 9638   1.075   0.120  10.614  0.8891 -1.0750 -0.2282
   98SAPC  H12A 9639   1.159   0.077  10.667  0.1922  1.5037  3.3487
   98SAPC  H12B 9640   1.005   0.149  10.691 -0.3003 -1.1145 -1.2671
   98SAPC   C13 9641   0.954  -0.087  10.611  0.0897  0.0520 -0.0229
   98SAPC  H13A 9642   0.903  -0.165  10.556  1.0032 -1.2707  0.9350
   98SAPC  H13B 9643   1.032  -0.141  10.663 -0.5128 -0.3359  0.4963
   98SAPC  H13C 9644   0.881  -0.051  10.681  0.5461  1.4646 -0.2458
   98SAPC   C14 9645   0.915   0.060  10.428  0.2109 -0.4699 -0.1085
   98SAPC  H14A 9646   0.947   0.134  10.356 -1.6367  1.1805  0.6820
   98SAPC  H14B 9647   0.869  -0.025  10.378  0.9618 -0.6094 -0.5817
   98SAPC  H14C 9648   0.840   0.108  10.488  0.5314  0.9194 -0.7745
   98SAPC   C15 9649   1.128  -0.054  10.449  0.1943  0.4733 -0.1274
   98SAPC  H15A 9650   1.186  -0.116  10.516  0.0177 -2.0780 -2.1888
   98SAPC  H15B 9651   1.099  -0.123  10.372 -1.4763 -0.7081  1.4888
   98SAPC  H15C 9652   1.183   0.030  10.407 -0.4931  2.7900  3.1749
   98SAPC   C11 9653   1.109   0.261  10.548  0.0135  0.1410  0.2682
   98SAPC  H11A 9654   1.134   0.325  10.636  0.8307 -1.1021  0.9842
   98SAPC  H11B 9655   1.019   0.305  10.502  1.4134  2.5231 -0.3423
   98SAPC     P 9656   1.359   0.228  10.494  0.3571 -0.4892 -0.1662
   98SAPC   O13 9657   1.381   0.258  10.638  0.6832 -0.4595  0.1976
   98SAPC   O14 9658   1.405   0.099  10.442  0.0670 -0.4308 -0.4289
   98SAPC   O12 9659   1.212   0.262  10.445 -0.6541 -0.8207 -0.0639
   98SAPC   O11 9660   1.440   0.341  10.418 -0.9213 -0.4223  0.1179
   98SAPC    C1 9661   1.425   0.358  10.278  0.3483  0.3601 -0.1524
   98SAPC    HA 9662   1.444   0.259  10.233 -1.4959 -0.3125  0.4823
   98SAPC    HB 9663   1.322   0.387  10.250  0.5357  1.2892  0.0538
   98SAPC    C2 9664   1.520   0.477  10.224  0.5887 -0.2649  0.4705
   98SAPC    HS 9665   1.505   0.481  10.114 -1.2364 -1.8830  0.5975
   98SAPC   O21 9666   1.652   0.455  10.270  0.3402  0.2753 -0.0266
   98SAPC   C21 9667   1.725   0.382  10.200 -0.2952  0.1108 -0.3817
   98SAPC   O22 9668   1.686   0.321  10.095 -0.2704  0.2943  0.0479
   98SAPC   C22 9669   1.866   0.387  10.251 -0.3372 -0.0779 -0.2416
   98SAPC   H2R 9670   1.864   0.441  10.348 -2.1046  0.5204 -0.5753
   98SAPC   H2S 9671   1.902   0.282  10.261 -0.3066  0.0717  1.4988
   98SAPC    C3 9672   1.466   0.614  10.273 -0.4441 -0.3547 -0.0678
   98SAPC    HX 9673   1.451   0.620  10.382 -2.3394 -1.1533 -0.2549
   98SAPC    HY 9674   1.366   0.616  10.224  0.6185  0.0216 -2.3746
   98SAPC   O31 9675   1.531   0.731  10.220 -0.1449 -0.2834  0.4483
   98SAPC   C31 9676   1.608   0.802  10.314  0.3396 -0.3245 -0.1026
   98SAPC   O32 9677   1.635   0.764  10.425 -0.3597  0.3393 -0.7930
   98SAPC   C32 9678   1.651   0.931  10.260 -0.2294 -0.1133  0.1479
   98SAPC   H2X 9679   1.698   0.906  10.163  3.0014 -1.3259  1.8796
   98SAPC   H2Y 9680   1.723   0.986  10.324 -1.4060  1.1140  0.4636
   98SAPC   C23 9681   1.957   0.459  10.146 -0.4591 -0.4883 -0.3871
   98SAPC   H3R 9682   1.931   0.426  10.043 -1.5775  1.8401 -0.9110
   98SAPC   H3S 9683   2.058   0.432  10.183 -0.5056  1.6666  1.5484
   98SAPC   C24 9684   1.961   0.615  10.152 -0.1203  0.0111 -0.1486
   98SAPC   H4R 9685   1.855   0.647  10.144  0.1014  0.8497  0.1169
   98SAPC   H4S 9686   2.014   0.645  10.060  2.7606  1.2722  1.7662
   98SAPC   C25 9687   2.028   0.692  10.267 -0.0645  0.2546  1.3131
   98SAPC   H5R 9688   2.031   0.630  10.358  1.6541 -0.2077  0.9851
   98SAPC   C26 9689   2.085   0.814  10.269 -0.1610 -0.0479 -0.3183
   98SAPC   H6R 9690   2.146   0.843  10.357 -0.3114 -0.4763 -0.0723
   98SAPC   C27 9691   2.078   0.911  10.159  0.0920  0.1008  0.6889
   98SAPC   H7R 9692   2.009   0.883  10.076  1.9190 -0.2376 -0.7894
   98SAPC   H7S 9693   2.181   0.906  10.116 -0.1942 -0.7609  0.0814
   98SAPC   C28 9694   2.061   1.047  10.207  0.0414 -0.0685 -0.1976
   98SAPC   H8R 9695   2.120   1.082  10.292 -1.9667 -0.7988  1.5779
   98SAPC   C29 9696   1.991   1.145  10.141  0.5025 -0.3096  0.3493
   98SAPC   H9R 9697   2.008   1.251  10.166  0.5168 -0.1461 -0.3406
   98SAPC  C210 9698   1.904   1.120  10.019  0.0107 -0.0667 -0.5863
   98SAPC  H10R 9699   1.815   1.060  10.047  1.1858 -0.5150  2.5994
   98SAPC  H10S 9700   1.958   1.056   9.946  1.4816  0.5821 -0.1080
   98SAPC  C211 9701   1.858   1.247   9.956  0.7008  0.4674 -0.6974
   98SAPC  H11R 9702   1.805   1.317  10.022  2.3112  2.2956 -1.2442
   98SAPC  C212 9703   1.865   1.284   9.832 -0.1925  0.6175  0.2946
   98SAPC  H12R 9704   1.816   1.379   9.810 -1.3724  0.3035  1.4178
   98SAPC  C213 9705   1.937   1.205   9.723  0.1664 -0.3791 -0.7982
   98SAPC  H13R 9706   1.889   1.105   9.713 -0.7325  0.2100 -3.1176
   98SAPC  H13S 9707   2.038   1.174   9.759 -0.5912 -0.8887  0.9703
   98SAPC  C214 9708   1.953   1.275   9.591 -0.1597  0.0714  0.4114
   98SAPC  H14R 9709   2.005   1.372   9.592 -1.3545  0.7338  1.0764
   98SAPC  C215 9710   1.921   1.218   9.470  0.2105 -0.2219  0.0286
   98SAPC  H15R 9711   1.959   1.275   9.384 -2.4461  1.0631 -0.4135
   98SAPC  C216 9712   1.850   1.088   9.443 -0.1628 -0.0280 -0.2562
   98SAPC  H16R 9713   1.807   1.041   9.534  0.0816  1.8620  0.8712
   98SAPC  H16S 9714   1.926   1.021   9.395 -0.3072  1.4579 -2.7246
   98SAPC  C217 9715   1.744   1.091   9.324 -0.1672  0.2792 -0.5274
   98SAPC  H17R 9716   1.668   1.170   9.344  0.2966  1.1496 -2.0227
   98SAPC  H17S 9717   1.681   1.000   9.322 -1.2783  0.9944  0.5963
   98SAPC  C218 9718   1.804   1.131   9.184  0.0494  0.1980  0.4576
   98SAPC  H18R 9719   1.893   1.069   9.160 -1.4580 -1.0790 -2.3703
   98SAPC  H18S 9720   1.833   1.238   9.178  0.8062  0.0012  0.4982
   98SAPC  C219 9721   1.707   1.096   9.072  0.6781 -0.0903 -0.0547
   98SAPC  H19R 9722   1.601   1.117   9.098  0.4457 -2.0026  0.7093
   98SAPC  H19S 9723   1.708   0.985   9.068 -1.3975 -0.1203 -1.5215
   98SAPC  C220 9724   1.726   1.158   8.934 -0.0124  0.2869  0.3172
   98SAPC  H20R 9725   1.830   1.143   8.899 -0.9338  0.7909 -2.9727
   98SAPC  H20S 9726   1.694   1.264   8.925 -0.1830  0.3032  1.0025
   98SAPC  H20T 9727   1.658   1.099   8.870 -0.2529  0.8567  0.0377
   98SAPC   C33 9728   1.533   1.034  10.239 -0.1447 -0.1237  0.2025
   98SAPC   H3X 9729   1.502   1.051  10.344 -1.4707 -2.0590  0.1749
   98SAPC   H3Y 9730   1.445   0.980  10.199 -1.2067  0.0327  2.1897
   98SAPC   C34 9731   1.581   1.160  10.158  0.7837 -0.3175  0.2758
   98SAPC   H4X 9732   1.615   1.116  10.062  1.0391  0.2022  0.1254
   98SAPC   H4Y 9733   1.661   1.208  10.218  1.8517  0.0069 -1.3420
   98SAPC   C35 9734   1.468   1.261  10.133 -0.2063  0.6306 -0.2371
   98SAPC   H5X 9735   1.424   1.288  10.231 -0.4499  1.0493 -0.4585
   98SAPC   H5Y 9736   1.388   1.221  10.067 -0.3298  1.9323 -0.9220
   98SAPC   C36 9737   1.520   1.392  10.075 -0.4453  0.0399 -0.4647
   98SAPC   H6X 9738   1.551   1.382   9.969  0.8572 -0.4742 -0.0575
   98SAPC   H6Y 9739   1.599   1.435  10.140 -0.5581  2.1364 -1.6255
   98SAPC   C37 9740   1.406   1.495  10.067  0.1582 -0.5935 -0.0846
   98SAPC   H7X 9741   1.435   1.601  10.047  1.5341 -0.9451 -0.0819
   98SAPC   H7Y 9742   1.369   1.505  10.171  0.3619 -1.1226  0.0419
   98SAPC   C38 9743   1.299   1.455   9.968 -0.2372 -0.1287  0.9728
   98SAPC   H8X 9744   1.255   1.360  10.005  1.0064 -0.9248  0.4963
   98SAPC   H8Y 9745   1.353   1.428   9.875 -2.6824  1.1751 -0.9293
   98SAPC   C39 9746   1.201   1.570   9.932 -0.2840  0.0741  0.1303
   98SAPC   H9X 9747   1.245   1.646   9.864 -0.8374  0.0626 -0.2503
   98SAPC   H9Y 9748   1.164   1.636  10.013 -0.1196  0.4905 -0.1279
   98SAPC  C310 9749   1.077   1.516   9.848  0.3942  0.1862 -0.4131
   98SAPC  H10X 9750   1.027   1.459   9.929  0.1811 -2.1408 -2.1076
   98SAPC  H10Y 9751   1.117   1.445   9.773 -0.9334 -2.8483  1.5746
   98SAPC  C311 9752   0.989   1.628   9.801 -0.8878  0.6349  0.4389
   98SAPC  H11X 9753   1.021   1.662   9.701 -1.3092 -0.1639  0.0182
   98SAPC  H11Y 9754   1.009   1.716   9.866  1.6710 -0.6515  1.5464
   98SAPC  C312 9755   0.846   1.586   9.792 -0.1658 -0.0365 -0.4972
   98SAPC  H12X 9756   0.796   1.562   9.888 -1.2285  0.6117 -0.8651
   98SAPC  H12Y 9757   0.851   1.491   9.735  0.0394 -0.6857  0.5818
   98SAPC  C313 9758   0.779   1.691   9.714  0.3217 -0.7170  0.0171
   98SAPC  H13X 9759   0.680   1.663   9.670 -0.1105  1.2140 -0.3376
   98SAPC  H13Y 9760   0.830   1.728   9.622 -0.4822  0.2829 -0.0571
   98SAPC  C314 9761   0.752   1.809   9.808 -0.1070  0.2025 -0.0014
   98SAPC  H14X 9762   0.846   1.839   9.859  0.2586 -2.4646  1.0637
   98SAPC  H14Y 9763   0.685   1.774   9.889  1.6173  1.4871  2.0931
   98SAPC  C315 9764   0.692   1.938   9.756  0.4681 -0.0498 -0.0614
   98SAPC  H15X 9765   0.642   1.991   9.839  2.7419  2.6241 -0.2678
   98SAPC  H15Y 9766   0.609   1.913   9.686 -0.2530 -0.4230  0.9129
   98SAPC  C316 9767   0.796   2.031   9.679  0.4017  0.4003 -0.2480
   98SAPC  H16X 9768   0.868   1.969   9.622  0.3949  1.0331 -0.9683
   98SAPC  H16Y 9769   0.854   2.089   9.753  0.4488 -0.8056  0.6886
   98SAPC  C317 9770   0.727   2.131   9.595  0.7822 -0.6116  0.2146
   98SAPC  H17X 9771   0.643   2.178   9.649 -0.0909  0.0019 -1.5910
   98SAPC  H17Y 9772   0.673   2.081   9.512  0.4959  0.3631 -0.1990
   98SAPC  C318 9773   0.821   2.239   9.543  0.3153  0.1586 -0.0761
   98SAPC  H18X 9774   0.898   2.203   9.472  0.3985  0.0438  0.0712
   98SAPC  H18Y 9775   0.871   2.297   9.623  0.1650  0.0712  0.0838
   98SAPC  H18Z 9776   0.756   2.306   9.483 -0.3630 -1.4018 -1.1597
   99SAPC     N 9777   1.776   2.782  14.893 -0.3272  0.7456  0.2051
   99SAPC   C12 9778   1.642   2.837  14.931  0.4921 -0.5875 -0.2264
   99SAPC  H12A 9779   1.574   2.800  14.855  0.4788  1.9978 -1.5778
   99SAPC  H12B 9780   1.629   2.943  14.921 -1.9726 -0.8010  0.1520
   99SAPC   C13 9781   1.780   2.628  14.911 -0.3218 -0.3693 -0.4663
   99SAPC  H13A 9782   1.785   2.610  15.018  3.5571 -0.3720 -0.4920
   99SAPC  H13B 9783   1.699   2.568  14.874 -1.7555  0.5434  1.0231
   99SAPC  H13C 9784   1.875   2.586  14.881 -0.8914 -2.1383  0.0656
   99SAPC   C14 9785   1.798   2.811  14.745  0.0953  0.3430 -0.5495
   99SAPC  H14A 9786   1.899   2.783  14.718  0.1756 -0.8222  0.8596
   99SAPC  H14B 9787   1.727   2.751  14.691 -1.8516  1.0509  1.1165
   99SAPC  H14C 9788   1.783   2.917  14.731  0.7569  0.3637 -1.1698
   99SAPC   C15 9789   1.880   2.846  14.965 -0.6475  0.2879  0.5978
   99SAPC  H15A 9790   1.868   2.833  15.071  0.4309 -0.3352  0.6640
   99SAPC  H15B 9791   1.973   2.799  14.937 -1.7327 -0.3743 -2.4045
   99SAPC  H15C 9792   1.878   2.952  14.949 -0.3280  0.3334  0.8706
   99SAPC   C11 9793   1.588   2.801  15.076  0.0353 -0.2303  0.3536
   99SAPC  H11A 9794   1.578   2.690  15.083 -0.6599 -0.1990 -0.0977
   99SAPC  H11B 9795   1.484   2.835  15.090 -0.1452 -0.0292 -1.3797
   99SAPC     P 9796   1.698   2.767  15.315 -0.3571  0.0182 -0.0032
   99SAPC   O13 9797   1.815   2.831  15.391  0.4544 -0.2223 -0.2394
   99SAPC   O14 9798   1.572   2.753  15.390 -0.5746 -0.1960 -0.0970
   99SAPC   O12 9799   1.679   2.852  15.181  0.2443 -0.6944  0.3604
   99SAPC   O11 9800   1.763   2.629  15.265 -0.0262 -0.0091  0.1028
   99SAPC    C1 9801   1.697   2.505  15.288  0.4493 -0.0915  0.5242
   99SAPC    HA 9802   1.684   2.487  15.396 -1.2560 -0.1492  0.3461
   99SAPC    HB 9803   1.592   2.508  15.250  0.6146  2.8365  0.0447
   99SAPC    C2 9804   1.771   2.386  15.233 -0.0213  0.1481 -0.5930
   99SAPC    HS 9805   1.780   2.389  15.122 -1.0179 -0.3105 -0.7056
   99SAPC   O21 9806   1.709   2.273  15.279  1.0704  0.4396  0.5939
   99SAPC   C21 9807   1.710   2.164  15.204 -0.4525  0.1310 -0.1245
   99SAPC   O22 9808   1.717   2.158  15.084  0.3429  0.2742  0.0288
   99SAPC   C22 9809   1.695   2.040  15.297 -1.2456 -0.2887  0.2454
   99SAPC   H2R 9810   1.776   2.037  15.373 -0.7324 -1.6828 -0.3244
   99SAPC   H2S 9811   1.607   2.066  15.359 -2.0276 -0.3429 -0.8177
   99SAPC    C3 9812   1.914   2.378  15.287  0.2683  0.1267  0.1346
   99SAPC    HX 9813   1.908   2.371  15.398 -1.8050  0.8964  0.1061
   99SAPC    HY 9814   1.952   2.482  15.273 -1.9849  1.0589  0.4510
   99SAPC   O31 9815   1.984   2.275  15.221  0.3127  0.0321  0.1983
   99SAPC   C31 9816   2.112   2.309  15.180 -0.4429 -0.0627  0.0818
   99SAPC   O32 9817   2.174   2.407  15.219  0.4273  0.0930  0.2947
   99SAPC   C32 9818   2.171   2.205  15.080 -0.7284 -0.3177  0.1999
   99SAPC   H2X 9819   2.282   2.201  15.083 -0.6687  0.6822 -0.2189
   99SAPC   H2Y 9820   2.137   2.236  14.979  0.4745 -2.5246 -0.9519
   99SAPC   C23 9821   1.686   1.912  15.223  0.5661 -0.7994  0.3671
   99SAPC   H3R 9822   1.772   1.893  15.155  1.5157  2.2272  0.5535
   99SAPC   H3S 9823   1.595   1.910  15.160  1.9828 -2.1115 -1.7529
   99SAPC   C24 9824   1.697   1.788  15.320  0.8310 -0.3990  0.1464
   99SAPC   H4R 9825   1.792   1.805  15.375  1.8747 -1.8564 -1.0918
   99SAPC   H4S 9826   1.705   1.696  15.258  0.8609 -1.2804  1.4221
   99SAPC   C25 9827   1.571   1.784  15.404 -0.5891 -0.5868 -0.5549
   99SAPC   H5R 9828   1.560   1.874  15.467 -2.5378 -1.7637  0.9158
   99SAPC   C26 9829   1.470   1.697  15.406  1.0793 -0.7861 -0.2179
   99SAPC   H6R 9830   1.392   1.718  15.480  0.6927 -0.3680 -0.7333
   99SAPC   C27 9831   1.461   1.570  15.328 -0.7858 -0.5911  0.1767
   99SAPC   H7R 9832   1.455   1.484  15.398 -1.0842 -0.9509 -0.2842
   99SAPC   H7S 9833   1.555   1.562  15.270 -1.2530 -0.0928 -0.6731
   99SAPC   C28 9834   1.341   1.569  15.235  0.2553  0.1048  0.5309
   99SAPC   H8R 9835   1.248   1.532  15.278 -0.3903 -2.1145 -2.4263
   99SAPC   C29 9836   1.339   1.577  15.097  0.1816 -0.1203 -0.0899
   99SAPC   H9R 9837   1.243   1.560  15.046  0.0387  0.3764  0.0049
   99SAPC  C210 9838   1.460   1.616  15.024  0.5219  0.6292  0.1204
   99SAPC  H10R 9839   1.550   1.572  15.071  0.2450  1.5030  1.5311
   99SAPC  H10S 9840   1.470   1.726  15.037 -1.2767  0.8869 -0.4192
   99SAPC  C211 9841   1.453   1.601  14.873 -0.8579 -0.4892  0.0312
   99SAPC  H11R 9842   1.393   1.677  14.822  1.2619  0.6606 -0.8680
   99SAPC  C212 9843   1.513   1.519  14.793  0.1898  0.1066  0.3208
   99SAPC  H12R 9844   1.492   1.522  14.686  1.9717  1.1480 -0.0502
   99SAPC  C213 9845   1.591   1.405  14.843 -0.0946  0.5932 -0.0396
   99SAPC  H13R 9846   1.551   1.306  14.814 -2.1823  1.1823  0.6731
   99SAPC  H13S 9847   1.584   1.380  14.951 -0.0202  0.4298 -0.0719
   99SAPC  C214 9848   1.746   1.401  14.824 -0.5406  0.5179  0.2306
   99SAPC  H14R 9849   1.792   1.443  14.915 -0.1232 -0.0387  0.2775
   99SAPC  C215 9850   1.826   1.367  14.723 -0.0228 -0.5581  0.3220
   99SAPC  H15R 9851   1.935   1.365  14.737  0.0256 -1.6303 -0.1020
   99SAPC  C216 9852   1.769   1.317  14.591  0.2027 -0.0790  0.0749
   99SAPC  H16R 9853   1.769   1.394  14.511 -0.8576 -1.8423 -1.7354
   99SAPC  H16S 9854   1.661   1.294  14.602 -0.1014 -0.1064 -2.3114
   99SAPC  C217 9855   1.843   1.191  14.535  0.3252 -0.0539 -0.1377
   99SAPC  H17R 9856   1.951   1.214  14.546  0.1874  0.6353 -0.1606
   99SAPC  H17S 9857   1.816   1.172  14.429  0.7957 -3.8495  0.2978
   99SAPC  C218 9858   1.809   1.059  14.611  0.0513 -0.7408 -0.1101
   99SAPC  H18R 9859   1.698   1.049  14.613 -0.0808 -0.2713 -2.0761
   99SAPC  H18S 9860   1.853   1.053  14.712  0.6685 -0.9952 -0.3876
   99SAPC  C219 9861   1.859   0.938  14.529  0.3626  0.1654  0.1589
   99SAPC  H19R 9862   1.965   0.960  14.506 -0.0325  1.2601 -0.6685
   99SAPC  H19S 9863   1.787   0.934  14.444 -0.3053 -0.8714  0.7466
   99SAPC  C220 9864   1.859   0.805  14.603  0.1524  0.7436  0.7791
   99SAPC  H20R 9865   1.925   0.733  14.550 -0.1455 -0.1151  1.5604
   99SAPC  H20S 9866   1.756   0.765  14.601 -0.8447  3.1136  1.0208
   99SAPC  H20T 9867   1.888   0.812  14.710 -2.9143 -1.7728  1.9253
   99SAPC   C33 9868   2.117   2.061  15.106 -0.0958  0.3998  0.4696
   99SAPC   H3X 9869   2.130   2.004  15.011  0.3708 -0.3209  0.9578
   99SAPC   H3Y 9870   2.009   2.066  15.131 -0.1142  0.1692  0.4376
   99SAPC   C34 9871   2.189   1.983  15.221  0.2372 -0.0989 -0.6402
   99SAPC   H4X 9872   2.199   2.064  15.296 -0.6040  0.5884 -1.2495
   99SAPC   H4Y 9873   2.289   1.951  15.187  0.3558 -1.2188  0.6550
   99SAPC   C35 9874   2.095   1.881  15.287 -0.2670  0.5535  0.4420
   99SAPC   H5X 9875   2.050   1.820  15.206 -0.0189 -1.4911  1.7750
   99SAPC   H5Y 9876   2.010   1.933  15.336 -1.0811  1.4625 -1.8160
   99SAPC   C36 9877   2.164   1.784  15.383  0.4552 -0.4893 -0.2636
   99SAPC   H6X 9878   2.214   1.848  15.459  1.8413 -0.7010 -0.9558
   99SAPC   H6Y 9879   2.239   1.721  15.330  1.1062  1.1879 -1.4374
   99SAPC   C37 9880   2.080   1.679  15.457  0.4221  0.1332  0.2372
   99SAPC   H7X 9881   2.054   1.590  15.395  4.1705 -0.9367 -0.0518
   99SAPC   H7Y 9882   1.980   1.718  15.482  0.3734  1.0061 -1.1964
   99SAPC   C38 9883   2.156   1.639  15.581 -0.7172  0.4302  0.0614
   99SAPC   H8X 9884   2.089   1.595  15.658 -0.5249 -0.7339 -0.4188
   99SAPC   H8Y 9885   2.212   1.723  15.629 -1.1248  1.0222 -0.4876
   99SAPC   C39 9886   2.263   1.529  15.564 -0.0562  0.6071 -0.3269
   99SAPC   H9X 9887   2.307   1.501  15.662 -0.9170  1.3698  0.2985
   99SAPC   H9Y 9888   2.340   1.571  15.497  3.4451 -1.4789  2.0570
   99SAPC  C310 9889   2.206   1.406  15.514  0.6361  0.4232  0.6151
   99SAPC  H10X 9890   2.147   1.413  15.420 -1.1950  0.5184  1.7248
   99SAPC  H10Y 9891   2.129   1.372  15.586 -1.1748 -0.1699 -1.4859
   99SAPC  C311 9892   2.315   1.297  15.507  0.1261  0.0285 -0.0706
   99SAPC  H11X 9893   2.371   1.292  15.603 -0.7495 -1.1799  0.4117
   99SAPC  H11Y 9894   2.384   1.324  15.424  0.2586  2.1061  0.6530
   99SAPC  C312 9895   2.271   1.149  15.484  0.2784  0.3196  0.5404
   99SAPC  H12X 9896   2.222   1.139  15.385  0.2886 -1.7348  0.6979
   99SAPC  H12Y 9897   2.197   1.117  15.560 -2.3473  1.4802 -1.3813
   99SAPC  C313 9898   2.395   1.060  15.480 -0.2846  0.3756  0.1511
   99SAPC  H13X 9899   2.433   1.049  15.584 -4.4809 -0.9985  1.7446
   99SAPC  H13Y 9900   2.470   1.110  15.415 -0.7775  0.8605 -0.0512
   99SAPC  C314 9901   2.356   0.916  15.434 -0.0803 -0.8284  0.8132
   99SAPC  H14X 9902   2.450   0.856  15.431 -0.2547 -1.1173 -3.0845
   99SAPC  H14Y 9903   2.308   0.916  15.334  3.9715 -2.4706 -1.4077
   99SAPC  C315 9904   2.271   0.845  15.540 -0.6662  0.0427 -0.0565
   99SAPC  H15X 9905   2.189   0.913  15.573 -0.4225  0.0466  0.5696
   99SAPC  H15Y 9906   2.344   0.811  15.616 -0.5902 -2.4838 -1.1735
   99SAPC  C316 9907   2.196   0.725  15.482  0.2722  0.6868 -0.3347
   99SAPC  H16X 9908   2.132   0.749  15.395  2.0676  2.5648 -1.2117
   99SAPC  H16Y 9909   2.129   0.693  15.565 -0.3802  2.1080 -0.2822
   99SAPC  C317 9910   2.303   0.616  15.460 -0.5787 -0.2299 -0.2839
   99SAPC  H17X 9911   2.394   0.657  15.412  0.4838  0.9775  2.5494
   99SAPC  H17Y 9912   2.257   0.549  15.384 -0.8447 -0.7502  0.3254
   99SAPC  C318 9913   2.344   0.523  15.579 -0.1145 -0.1899 -0.2256
   99SAPC  H18X 9914   2.423   0.448  15.557 -0.0421 -0.0535 -0.4261
   99SAPC  H18Y 9915   2.256   0.470  15.623  2.6544 -2.4588  3.1650
   99SAPC  H18Z 9916   2.390   0.589  15.656  2.2470  0.4442 -2.0685
  100SAPC     N 9917   0.528   1.647   7.076  0.7002  0.3789  0.7525
  100SAPC   C12 9918   0.599   1.553   6.982 -0.6136  0.2922  0.1878
  100SAPC  H12A 9919   0.700   1.538   7.017 -1.0453 -2.0254  0.6246
  100SAPC  H12B 9920   0.618   1.600   6.886 -1.6364 -0.8154 -0.5857
  100SAPC   C13 9921   0.391   1.678   7.014 -0.5260  0.4785 -0.0199
  100SAPC  H13A 9922   0.329   1.735   7.081 -0.9839  1.5633 -1.3095
  100SAPC  H13B 9923   0.407   1.723   6.917 -0.1067 -1.4083 -0.8655
  100SAPC  H13C 9924   0.337   1.586   6.996 -0.5261  0.7930 -1.9277
  100SAPC   C14 9925   0.486   1.585   7.206  0.1995 -0.1792 -0.4942
  100SAPC  H14A 9926   0.560   1.542   7.272 -2.4403 -0.5581  2.4617
  100SAPC  H14B 9927   0.434   1.657   7.268  0.4773 -1.3330  1.1684
  100SAPC  H14C 9928   0.410   1.512   7.184  0.5314 -0.3710 -1.0315
  100SAPC   C15 9929   0.615   1.770   7.105 -0.0484  0.2851 -0.0567
  100SAPC  H15A 9930   0.568   1.838   7.175 -0.0946  0.3364 -0.1375
  100SAPC  H15B 9931   0.703   1.735   7.156 -0.3313 -0.3577  0.0018
  100SAPC  H15C 9932   0.635   1.835   7.021 -0.1786 -0.3311 -0.5765
  100SAPC   C11 9933   0.551   1.405   6.960 -0.0645  0.1541 -0.0773
  100SAPC  H11A 9934   0.618   1.357   6.885  0.0440 -2.1182  1.3813
  100SAPC  H11B 9935   0.445   1.418   6.930 -0.1525 -0.4013 -0.0057
  100SAPC     P 9936   0.524   1.177   7.080 -0.3125  0.0189  0.3058
  100SAPC   O13 9937   0.379   1.171   7.042  0.7354 -0.1990 -0.0953
  100SAPC   O14 9938   0.625   1.111   6.992 -0.7350  0.4205 -0.3004
  100SAPC   O12 9939   0.565   1.335   7.090  0.3405 -0.2907  0.1162
  100SAPC   O11 9940   0.539   1.116   7.222 -0.3611 -0.4753  0.3654
  100SAPC    C1 9941   0.448   1.135   7.326 -0.4410  0.7126 -0.0294
  100SAPC    HA 9942   0.444   1.241   7.360  1.0721  0.4673  1.0017
  100SAPC    HB 9943   0.348   1.099   7.293 -0.5171  1.9248 -1.2312
  100SAPC    C2 9944   0.491   1.045   7.444  0.3204  1.1393 -0.5236
  100SAPC    HS 9945   0.396   1.015   7.494  0.7536 -0.1729 -0.4365
  100SAPC   O21 9946   0.583   1.095   7.539  0.5850  0.5392  0.4017
  100SAPC   C21 9947   0.535   1.194   7.608  0.1060  0.5408 -0.2647
  100SAPC   O22 9948   0.427   1.249   7.582  0.3018 -0.3423  0.1490
  100SAPC   C22 9949   0.634   1.227   7.724 -0.1897 -0.0893  0.1571
  100SAPC   H2R 9950   0.664   1.132   7.772 -3.3208 -0.3814  1.7428
  100SAPC   H2S 9951   0.728   1.259   7.673  1.0848 -0.5265  2.0895
  100SAPC    C3 9952   0.544   0.908   7.394  0.4140  0.3480 -0.1908
  100SAPC    HX 9953   0.639   0.945   7.349 -0.0566  1.4948 -0.2819
  100SAPC    HY 9954   0.482   0.848   7.325  0.2581 -0.4616  0.6397
  100SAPC   O31 9955   0.587   0.826   7.507 -0.1947  0.5917  0.4680
  100SAPC   C31 9956   0.485   0.775   7.576  0.5336  0.3183  0.7360
  100SAPC   O32 9957   0.366   0.773   7.535 -0.3813 -0.4899 -0.2750
  100SAPC   C32 9958   0.541   0.718   7.710 -0.1159  0.0340 -0.1583
  100SAPC   H2X 9959   0.649   0.744   7.711 -0.9711  4.3528 -1.5698
  100SAPC   H2Y 9960   0.521   0.609   7.699 -2.0080  0.2020  1.2882
  100SAPC   C23 9961   0.598   1.329   7.834  0.1438  0.4575 -0.6872
  100SAPC   H3R 9962   0.503   1.374   7.797 -1.0980 -1.3852  0.1010
  100SAPC   H3S 9963   0.677   1.406   7.841  1.1022 -0.6207  1.3557
  100SAPC   C24 9964   0.555   1.262   7.966 -0.7995 -0.2383 -0.1844
  100SAPC   H4R 9965   0.647   1.216   8.008 -1.7656  0.2513  2.7078
  100SAPC   H4S 9966   0.477   1.186   7.941 -1.6441  0.3564  0.5877
  100SAPC   C25 9967   0.498   1.363   8.070  0.3061 -0.4412  0.7586
  100SAPC   H5R 9968   0.572   1.438   8.104  2.5128 -2.0707 -0.2077
  100SAPC   C26 9969   0.370   1.367   8.118  0.9721  0.3437 -0.4315
  100SAPC   H6R 9970   0.345   1.440   8.197 -0.6789  0.5352 -1.0916
  100SAPC   C27 9971   0.249   1.279   8.089  0.0331  0.7801 -0.5490
  100SAPC   H7R 9972   0.241   1.267   7.979  2.0880  0.3738 -0.7042
  100SAPC   H7S 9973   0.152   1.326   8.114 -0.1528  0.4161 -0.5892
  100SAPC   C28 9974   0.248   1.147   8.155  0.0352  0.9800  0.3858
  100SAPC   H8R 9975   0.253   1.060   8.087  1.2896  1.0736  0.3345
  100SAPC   C29 9976   0.241   1.119   8.288  0.5232 -0.5129 -0.3392
  100SAPC   H9R 9977   0.225   1.017   8.327 -2.7537  0.2566  0.6180
  100SAPC  C210 9978   0.233   1.229   8.387 -0.2603 -0.4780  1.0708
  100SAPC  H10R 9979   0.150   1.214   8.459 -0.4683 -0.2675  0.8781
  100SAPC  H10S 9980   0.209   1.329   8.344 -3.5721 -0.8708  1.7281
  100SAPC  C211 9981   0.350   1.244   8.480 -0.4540  0.4259 -0.3313
  100SAPC  H11R 9982   0.428   1.310   8.440 -0.4715 -0.9322 -2.8273
  100SAPC  C212 9983   0.383   1.167   8.585  0.3559 -0.3791 -0.5991
  100SAPC  H12R 9984   0.472   1.197   8.643 -0.3282  3.7296 -1.3475
  100SAPC  C213 9985   0.310   1.050   8.645 -0.2379  0.8239 -0.6051
  100SAPC  H13R 9986   0.376   0.997   8.717 -0.9355  1.3007  0.4168
  100SAPC  H13S 9987   0.290   0.985   8.557 -1.7948  3.0153 -1.9807
  100SAPC  C214 9988   0.177   1.084   8.704  0.1838  0.6014 -0.1309
  100SAPC  H14R 9989   0.146   1.189   8.701  1.4268  1.0230 -4.1734
  100SAPC  C215 9990   0.098   0.997   8.777  0.1292 -0.9343 -0.6407
  100SAPC  H15R 9991   0.007   1.041   8.819  0.2733 -0.0396 -1.2544
  100SAPC  C216 9992   0.116   0.853   8.801 -0.5968 -0.0902  0.5522
  100SAPC  H16R 9993   0.197   0.812   8.736 -1.0665 -2.2886  1.2502
  100SAPC  H16S 9994   0.020   0.806   8.771 -0.6179  1.8978 -2.9834
  100SAPC  C217 9995   0.136   0.814   8.947 -0.3120  0.0067 -0.0994
  100SAPC  H17R 9996   0.200   0.893   8.992 -1.1765  1.7860 -1.8357
  100SAPC  H17S 9997   0.177   0.711   8.945  0.4668  0.3076  0.0456
  100SAPC  C218 9998   0.004   0.805   9.023 -0.4509 -0.1789  0.5168
  100SAPC  H18R 9999  -0.053   0.717   8.986 -1.9076  0.0802  2.0025
  100SAPC  H18S10000  -0.059   0.897   9.023  1.9815  1.5651  1.3251
  100SAPC  C21910001   0.022   0.765   9.175  0.4677  0.2417  0.0001
  100SAPC  H19R10002   0.074   0.849   9.226  1.1333 -0.2299  0.1074
  100SAPC  H19S10003   0.089   0.677   9.177 -0.0568 -0.1570  0.4143
  100SAPC  C22010004  -0.125   0.738   9.235  0.1108 -0.5802  0.1683
  100SAPC  H20R10005  -0.117   0.715   9.344 -0.1557  0.6027  0.4529
  100SAPC  H20S10006  -0.182   0.659   9.182  0.2621  0.5474 -1.7765
  100SAPC  H20T10007  -0.190   0.828   9.227 -0.2953 -1.0282 -2.6992
  100SAPC   C3310008   0.453   0.765   7.835 -0.6882  0.2620  0.2281
  100SAPC   H3X10009   0.417   0.870   7.829 -0.9457  0.1451 -0.3119
  100SAPC   H3Y10010   0.507   0.754   7.931 -2.5260  1.4653  1.4518
  100SAPC   C3410011   0.326   0.683   7.851 -0.2205  1.0168  0.1226
  100SAPC   H4X10012   0.338   0.573   7.854 -1.2812  0.9061  1.9628
  100SAPC   H4Y10013   0.250   0.710   7.775  0.8944  1.0854 -0.9922
  100SAPC   C3510014   0.252   0.718   7.989  0.7530  0.6229 -0.0992
  100SAPC   H5X10015   0.232   0.828   7.993 -2.5098  0.1218  0.0847
  100SAPC   H5Y10016   0.316   0.673   8.068 -2.0581 -2.1786  0.7570
  100SAPC   C3610017   0.109   0.655   7.989  0.4259 -0.7744  0.4957
  100SAPC   H6X10018   0.113   0.553   7.946  1.0129  0.0741 -1.5885
  100SAPC   H6Y10019   0.046   0.707   7.913  1.2342 -3.1205 -1.9322
  100SAPC   C3710020   0.047   0.654   8.133 -0.0842  0.2955  0.7563
  100SAPC   H7X10021   0.130   0.600   8.184  0.5614 -0.2736 -0.8194
  100SAPC   H7Y10022  -0.050   0.599   8.134  0.6484 -1.1435 -0.9295
  100SAPC   C3810023   0.024   0.797   8.180  0.0884 -0.5850  0.0493
  100SAPC   H8X10024  -0.017   0.852   8.093  2.2301 -1.1242 -1.3565
  100SAPC   H8Y10025   0.118   0.842   8.218 -1.0951  0.5240  1.8303
  100SAPC   C3910026  -0.080   0.797   8.294 -0.1088  0.0269  0.2148
  100SAPC   H9X10027  -0.049   0.729   8.377  0.1775  1.5777  1.4086
  100SAPC   H9Y10028  -0.176   0.755   8.256  0.0934 -0.8733  0.6619
  100SAPC  C31010029  -0.111   0.939   8.351  0.2419 -0.2965  0.0369
  100SAPC  H10X10030  -0.124   1.015   8.271  1.2544  0.0259  0.1673
  100SAPC  H10Y10031  -0.022   0.975   8.406  0.6014 -0.7234 -0.2620
  100SAPC  C31110032  -0.234   0.929   8.439 -0.0948  0.2709  0.0118
  100SAPC  H11X10033  -0.240   0.823   8.470 -0.8256  0.5036  0.6794
  100SAPC  H11Y10034  -0.332   0.941   8.388 -1.1491 -0.5087  1.7758
  100SAPC  C31210035  -0.229   1.022   8.556 -1.0071  0.3045 -0.3961
  100SAPC  H12X10036  -0.215   1.116   8.499  0.4201  1.4470  1.6799
  100SAPC  H12Y10037  -0.139   1.000   8.618 -1.7536 -0.9915  0.2641
  100SAPC  C31310038  -0.350   1.020   8.647  0.6889  0.0929  0.2461
  100SAPC  H13X10039  -0.443   1.018   8.586  0.4335  0.5027  0.6149
  100SAPC  H13Y10040  -0.349   1.120   8.696 -2.8964  0.5899 -0.4588
  100SAPC  C31410041  -0.334   0.921   8.757  0.4575 -0.1939 -0.6284
  100SAPC  H14X10042  -0.250   0.969   8.813 -0.4427 -0.3341  0.8992
  100SAPC  H14Y10043  -0.304   0.820   8.725 -0.0121 -1.7238  3.1806
  100SAPC  C31510044  -0.460   0.916   8.849  0.1565 -1.0611 -0.2063
  100SAPC  H15X10045  -0.548   0.899   8.783  0.5238  1.7639 -1.5956
  100SAPC  H15Y10046  -0.484   1.019   8.882 -2.5102 -1.0250 -1.9351
  100SAPC  C31610047  -0.442   0.836   8.973  0.0404 -0.2407  0.1729
  100SAPC  H16X10048  -0.505   0.872   9.057  0.9433  1.8172  0.0174
  100SAPC  H16Y10049  -0.337   0.846   9.008 -0.4241 -0.8020  1.8116
  100SAPC  C31710050  -0.459   0.681   8.969 -0.5450  0.5765  0.5807
  100SAPC  H17X10051  -0.388   0.640   8.894 -0.5941 -1.1330  1.4312
  100SAPC  H17Y10052  -0.560   0.665   8.926 -0.2568  2.2517 -0.8221
  100SAPC  C31810053  -0.458   0.607   9.101  0.2417 -0.1826  0.2063
  100SAPC  H18X10054  -0.481   0.501   9.075  0.8021 -0.4054  0.5938
  100SAPC  H18Y10055  -0.545   0.647   9.157 -0.6996  1.5803 -2.3267
  100SAPC  H18Z10056  -0.367   0.615   9.164  0.0805 -0.0288  0.4253
  101OSM      N10057   2.566   1.718  21.311  0.5640 -0.3318  0.1489
  101OSM    C1510058   2.644   1.845  21.298  0.3417 -0.0754  0.2256
  101OSM   H15A10059   2.594   1.934  21.334 -0.7489 -0.6608  0.2141
  101OSM   H15B10060   2.663   1.855  21.192 -0.3005 -2.1729 -0.1381
  101OSM   H15C10061   2.741   1.837  21.344  0.8815 -3.1657 -1.1757
  101OSM    C1410062   2.505   1.699  21.454 -0.4878 -0.5569 -0.2648
  101OSM   H14A10063   2.457   1.794  21.476 -2.4750 -0.3661 -4.4805
  101OSM   H14B10064   2.582   1.685  21.528 -0.6180  2.2913  0.5426
  101OSM   H14C10065   2.429   1.622  21.453 -0.8243 -0.2608 -2.3067
  101OSM    C1310066   2.445   1.715  21.224  0.2085 -0.2491  0.1062
  101OSM   H13A10067   2.392   1.805  21.248  2.7639  2.1037 -2.2979
  101OSM   H13B10068   2.393   1.624  21.247  1.7321 -1.7679 -1.9647
  101OSM   H13C10069   2.453   1.724  21.116 -2.5216 -4.9401 -0.7850
  101OSM    C1210070   2.665   1.611  21.269 -0.4159  0.0602 -0.4963
  101OSM   H12A10071   2.619   1.513  21.268 -1.5394  0.5636  0.0670
  101OSM   H12B10072   2.743   1.612  21.344 -0.3065 -1.3042 -0.5648
  101OSM    C1110073   2.738   1.626  21.128 -0.7397  0.4225  0.6929
  101OSM   H11A10074   2.657   1.652  21.057 -0.6648 -0.3303  0.3270
  101OSM   H11B10075   2.775   1.525  21.099 -1.7056  1.3494 -5.0098
  101OSM      P10076   2.971   1.712  21.205  0.1417 -0.0287 -0.4173
  101OSM    O1310077   3.066   1.809  21.159 -0.2205 -0.1413  0.5612
  101OSM    O1410078   2.954   1.701  21.347  0.0738 -0.1963  0.2190
  101OSM    O1110079   3.027   1.581  21.156  0.1448 -0.9648  0.0087
  101OSM    O1210080   2.837   1.732  21.127  0.4364  0.0654  0.2532
  101OSM    C1S10081   3.074   1.544  21.027  0.2523  0.2028 -0.1818
  101OSM    H1S10082   3.142   1.623  20.990 -0.3521 -0.5329 -3.0614
  101OSM    H1T10083   2.992   1.539  20.952  0.8455 -2.6451 -0.7678
  101OSM     NF10084   3.210   1.372  20.912 -0.1792 -0.5465  0.9315
  101OSM    HNF10085   3.196   1.293  20.853  0.6348  2.6436 -4.1624
  101OSM    C2S10086   3.134   1.405  21.030 -0.0869  0.5773  0.0599
  101OSM    H2S10087   3.204   1.410  21.116 -2.9162 -2.4331  2.8232
  101OSM    C3S10088   3.014   1.306  21.065  0.5793 -0.0301 -0.1356
  101OSM    H3S10089   2.940   1.301  20.983  2.8768 -2.0369 -2.2201
  101OSM     O310090   2.951   1.341  21.192  0.3432  0.3214 -0.4094
  101OSM    HO310091   2.976   1.430  21.218  1.1683 -0.5247  1.9742
  101OSM    C4S10092   3.069   1.164  21.067 -0.0106 -0.0300  0.3333
  101OSM    H4S10093   3.043   1.113  20.973 -0.9030  0.4241  0.3178
  101OSM    C5S10094   3.133   1.097  21.165  0.4612  0.2722 -0.1126
  101OSM    H5S10095   3.159   1.141  21.263  1.9490 -1.6388  0.4243
  101OSM    C6S10096   3.196   0.967  21.139 -0.6927  0.2510  0.0602
  101OSM    H6S10097   3.303   0.965  21.167 -0.2578 -1.8224 -1.5096
  101OSM    H6T10098   3.191   0.947  21.030 -3.0132  1.6502 -0.1704
  101OSM    C7S10099   3.130   0.855  21.212 -0.6231 -0.2258 -0.2294
  101OSM    H7S10100   3.027   0.839  21.174 -0.7343 -2.0459  0.7053
  101OSM    H7T10101   3.115   0.865  21.322 -0.4096  1.2950 -0.3226
  101OSM    C8S10102   3.190   0.719  21.183 -0.2051  0.0222 -0.1753
  101OSM    H8S10103   3.126   0.642  21.231  0.5350 -0.1172  0.6124
  101OSM    H8T10104   3.290   0.713  21.230  0.3589 -1.7734 -1.5012
  101OSM    C9S10105   3.207   0.673  21.036  0.4593 -0.2415 -0.0168
  101OSM    H9S10106   3.291   0.731  20.994  2.0407 -1.6098  1.1075
  101OSM    H9T10107   3.115   0.694  20.977  0.4899  0.6123  0.2231
  101OSM   C10S10108   3.243   0.526  21.024 -0.2269  0.0684 -0.4075
  101OSM   H10S10109   3.166   0.458  21.067 -0.3116  0.0327 -0.6165
  101OSM   H10T10110   3.337   0.519  21.083  0.6365  0.0471 -1.7387
  101OSM   C11S10111   3.265   0.485  20.879  0.9790 -0.1846  0.6258
  101OSM   H11S10112   3.353   0.546  20.849 -0.0329  1.3688  0.7272
  101OSM   H11T10113   3.174   0.505  20.819  0.6471  1.6534  1.6845
  101OSM   C12S10114   3.315   0.340  20.862  0.8908  0.7685 -0.4675
  101OSM   H12S10115   3.242   0.259  20.884  2.4842 -0.3606  0.8532
  101OSM   H12T10116   3.392   0.330  20.941  0.8173  0.0305 -0.4773
  101OSM   C13S10117   3.367   0.308  20.722  0.5816 -0.4486  0.1478
  101OSM   H13S10118   3.433   0.394  20.699 -0.0715 -0.4175 -1.7721
  101OSM   H13T10119   3.280   0.308  20.653 -1.5819 -0.0745  2.6619
  101OSM   C14S10120   3.447   0.186  20.705  0.1964  0.0862 -0.5817
  101OSM   H14S10121   3.379   0.104  20.735 -0.3017 -0.5815 -3.3393
  101OSM   H14T10122   3.539   0.196  20.767 -0.4190 -0.2329  0.4070
  101OSM   C15S10123   3.480   0.158  20.559 -0.1229  0.6558 -0.0650
  101OSM   H15S10124   3.531   0.250  20.522  2.4816 -0.7381 -0.1936
  101OSM   H15T10125   3.389   0.143  20.497  0.1133 -3.2517  0.2603
  101OSM   C16S10126   3.566   0.030  20.534  0.2086 -0.1712 -0.7299
  101OSM   H16S10127   3.533  -0.058  20.593  1.4108 -1.4117 -1.8155
  101OSM   H16T10128   3.670   0.061  20.559 -0.1780  0.9910 -0.5010
  101OSM   C17S10129   3.572  -0.017  20.388  0.3217  0.0539  0.6137
  101OSM   H17S10130   3.470  -0.025  20.344  0.7716 -0.7808 -0.3179
  101OSM   H17T10131   3.614  -0.119  20.373 -3.2268 -1.3611 -0.8590
  101OSM   C18S10132   3.652   0.083  20.295 -0.0878 -0.2200 -0.2131
  101OSM   H18S10133   3.662   0.043  20.192 -1.4056  0.9720 -0.8498
  101OSM   H18T10134   3.758   0.086  20.328 -0.0013  0.0465 -0.5167
  101OSM   H18U10135   3.626   0.190  20.310 -0.2799 -0.1941 -0.7240
  101OSM    C1F10136   3.322   1.440  20.871 -0.2330  1.2033  0.0140
  101OSM     OF10137   3.362   1.534  20.931  0.1597 -0.5075 -0.3416
  101OSM    C2F10138   3.397   1.383  20.758  0.1556  0.0579 -0.6037
  101OSM    H2F10139   3.364   1.446  20.674  2.4689  0.7766 -1.0482
  101OSM    H2G10140   3.374   1.274  20.752  1.1625 -0.3824  1.9716
  101OSM    C3F10141   3.543   1.426  20.772  0.4401 -0.0427 -0.1892
  101OSM    H3F10142   3.596   1.388  20.862 -1.4317 -0.6814  0.7027
  101OSM    H3G10143   3.545   1.537  20.771  0.0602 -0.0379 -1.0122
  101OSM    C4F10144   3.626   1.371  20.648  0.4045 -0.0250 -0.3946
  101OSM    H4F10145   3.612   1.438  20.561 -2.9305 -0.9840 -0.7038
  101OSM    H4G10146   3.586   1.269  20.629 -0.3829  0.4184 -1.1625
  101OSM    C5F10147   3.775   1.352  20.679 -0.5425 -0.9287 -0.0611
  101OSM    H5F10148   3.799   1.312  20.780  0.0633 -0.2999  0.0475
  101OSM    H5G10149   3.818   1.454  20.685 -1.2190 -0.7119  2.0161
  101OSM    C6F10150   3.843   1.248  20.590  0.5985  0.1750 -0.0442
  101OSM    H6F10151   3.948   1.254  20.625  0.3773  1.6390  0.4395
  101OSM    H6G10152   3.858   1.276  20.483  0.6425 -0.1729 -0.1314
  101OSM    C7F10153   3.787   1.099  20.591 -0.0568  0.1923  0.6135
  101OSM    H7F10154   3.679   1.105  20.567 -0.3058 -0.9362  1.3781
  101OSM    H7G10155   3.806   1.061  20.694  0.3397  0.1167  0.5148
  101OSM    C8F10156   3.863   1.016  20.490 -0.9607  0.1683 -0.3396
  101OSM    H8F10157   3.972   1.038  20.492 -0.9421  0.2219 -1.4810
  101OSM    H8G10158   3.830   1.032  20.385  0.6244  0.5588 -0.8016
  101OSM    C9F10159   3.833   0.872  20.525  0.6929  0.4665  0.1658
  101OSM    H9F10160   3.726   0.849  20.510  0.5065  2.1839 -1.5146
  101OSM   C10F10161   3.909   0.787  20.588 -0.1752  0.7718  0.2357
  101OSM   H10F10162   3.878   0.682  20.586  1.9550  0.0717  0.9737
  101OSM   C11F10163   4.054   0.806  20.638  0.0064  0.5622 -0.8969
  101OSM   H11F10164   4.060   0.771  20.744  0.2978 -0.9474 -1.3861
  101OSM   H11G10165   4.081   0.914  20.638  3.1133 -0.1025 -1.3918
  101OSM   C12F10166   4.162   0.724  20.566 -0.3282  0.1742  0.0988
  101OSM   H12F10167   4.212   0.782  20.485 -0.1311 -1.1709 -0.7750
  101OSM   H12G10168   4.120   0.635  20.515  0.0566 -0.0122  0.1047
  101OSM   C13F10169   4.274   0.674  20.662 -0.0388 -0.0679  0.9938
  101OSM   H13F10170   4.231   0.591  20.722 -3.2853  1.0730  0.4276
  101OSM   H13G10171   4.301   0.754  20.735 -0.8563  1.4380 -0.2904
  101OSM   C14F10172   4.403   0.626  20.584  0.5792 -0.1392 -0.5853
  101OSM   H14F10173   4.371   0.537  20.526  0.2068 -0.7186  0.4882
  101OSM   H14G10174   4.472   0.581  20.659 -0.7173 -1.2733 -0.0328
  101OSM   C15F10175   4.480   0.733  20.499 -0.2768 -0.1576  0.0946
  101OSM   H15F10176   4.489   0.838  20.535  1.5587  0.4409 -1.8545
  101OSM   H15G10177   4.436   0.754  20.399  1.6876 -0.7505 -0.9565
  101OSM   C16F10178   4.619   0.682  20.469 -0.2322  0.2753 -0.3839
  101OSM   H16F10179   4.613   0.587  20.413 -0.9855  0.1783 -0.1430
  101OSM   H16G10180   4.672   0.668  20.565 -0.6683 -1.8626 -0.4056
  101OSM   C17F10181   4.694   0.794  20.392 -0.4543  0.0476  0.0389
  101OSM   H17F10182   4.711   0.881  20.459  0.7146 -0.3210  0.2554
  101OSM   H17G10183   4.639   0.825  20.300 -1.9352 -2.5944 -0.0643
  101OSM   C18F10184   4.827   0.738  20.349  0.3343 -0.2195  0.3373
  101OSM   H18F10185   4.874   0.674  20.426 -0.8692  1.2525  2.3899
  101OSM   H18G10186   4.897   0.817  20.315  1.1749 -0.5465  1.2651
  101OSM   H18H10187   4.807   0.669  20.264 -1.3597 -0.5211  0.9283
  102OSM      N10188   3.374   1.712  20.227  0.3059 -0.1700 -0.6081
  102OSM    C1510189   3.355   1.858  20.215 -0.3113  0.2541  0.5751
  102OSM   H15A10190   3.316   1.883  20.117 -0.1297  1.0838  0.7023
  102OSM   H15B10191   3.451   1.909  20.214  0.3574 -0.9409  1.4963
  102OSM   H15C10192   3.293   1.907  20.288  0.8963  0.2006  1.6810
  102OSM    C1410193   3.472   1.678  20.118 -0.1858  0.1697 -0.3642
  102OSM   H14A10194   3.417   1.703  20.028 -0.3263 -1.8797 -0.9058
  102OSM   H14B10195   3.489   1.572  20.104 -2.2444 -0.2918  0.3738
  102OSM   H14C10196   3.569   1.725  20.127  1.0610 -2.3334  0.0078
  102OSM    C1310197   3.441   1.677  20.359 -0.3637 -0.1400 -0.2683
  102OSM   H13A10198   3.463   1.571  20.354 -0.0879 -0.1075  0.1791
  102OSM   H13B10199   3.369   1.686  20.439 -0.4402 -1.4462 -0.1694
  102OSM   H13C10200   3.530   1.731  20.389  0.1762 -0.6419 -0.9253
  102OSM    C1210201   3.256   1.634  20.206  0.5920  0.1200 -0.3230
  102OSM   H12A10202   3.268   1.530  20.233 -0.5696  0.1349  0.3519
  102OSM   H12B10203   3.218   1.633  20.105 -0.9850  0.7872  0.2235
  102OSM    C1110204   3.142   1.658  20.310  0.4906  1.0581 -0.1900
  102OSM   H11A10205   3.059   1.594  20.271  0.6379 -0.7682  2.2662
  102OSM   H11B10206   3.099   1.760  20.317 -2.5698 -0.2266  2.0734
  102OSM      P10207   3.111   1.666  20.571 -0.3086  0.2061  0.1654
  102OSM    O1310208   3.226   1.692  20.655 -0.3922 -0.7978  0.1208
  102OSM    O1410209   3.011   1.772  20.542  0.4182 -0.1749  0.1259
  102OSM    O1110210   3.026   1.553  20.636 -0.0735  0.3709 -0.0975
  102OSM    O1210211   3.169   1.598  20.436 -0.4524 -0.7782  0.0246
  102OSM    C1S10212   3.033   1.420  20.584 -0.6232 -0.4570  0.1804
  102OSM    H1S10213   3.138   1.387  20.600 -0.6197 -0.6330 -0.1962
  102OSM    H1T10214   3.012   1.410  20.475 -0.3346 -1.7631  0.2288
  102OSM     NF10215   2.976   1.184  20.623  0.2334  0.2265  0.1644
  102OSM    HNF10216   2.934   1.167  20.534  0.3197 -2.5083  0.5535
  102OSM    C2S10217   2.952   1.316  20.666  0.0583 -0.3273 -0.3740
  102OSM    H2S10218   2.985   1.327  20.771 -1.2119 -1.4362  0.1690
  102OSM    C3S10219   2.804   1.355  20.665 -0.2842 -0.5481  0.0210
  102OSM    H3S10220   2.774   1.323  20.563 -0.5169  0.0011 -0.0857
  102OSM     O310221   2.772   1.494  20.669 -0.0923  0.1652 -0.1503
  102OSM    HO310222   2.856   1.532  20.642  0.9604 -0.6050  1.7994
  102OSM    C4S10223   2.721   1.261  20.751  0.1989 -0.5074 -0.7518
  102OSM    H4S10224   2.706   1.161  20.709  2.5175 -1.5266  0.6555
  102OSM    C5S10225   2.668   1.289  20.878  0.5645  0.2105 -0.6483
  102OSM    H5S10226   2.700   1.378  20.933  2.2987 -0.3832 -0.6411
  102OSM    C6S10227   2.600   1.188  20.973 -0.4636  0.3839  0.2450
  102OSM    H6S10228   2.491   1.212  20.980 -0.3545  1.0163 -0.1585
  102OSM    H6T10229   2.645   1.206  21.073 -0.8488 -3.1822  1.2133
  102OSM    C7S10230   2.623   1.039  20.941 -0.0116 -0.0061  0.1372
  102OSM    H7S10231   2.593   1.015  20.837  0.6312 -0.7112  0.0987
  102OSM    H7T10232   2.563   0.975  21.009 -1.0716  1.4783  0.6588
  102OSM    C8S10233   2.772   1.012  20.971  0.0508 -0.0865  0.1060
  102OSM    H8S10234   2.783   1.005  21.081 -0.1191 -0.2037  0.1133
  102OSM    H8T10235   2.845   1.090  20.940  1.3772 -0.7748  1.3798
  102OSM    C9S10236   2.820   0.879  20.896  0.2468 -0.0667  0.0072
  102OSM    H9S10237   2.930   0.883  20.907  0.3412 -1.3387 -0.2677
  102OSM    H9T10238   2.793   0.887  20.789 -0.3097  0.9698  0.2146
  102OSM   C10S10239   2.752   0.757  20.954 -0.1686  0.3426  0.1573
  102OSM   H10S10240   2.644   0.759  20.930 -0.3070  1.2712  0.8139
  102OSM   H10T10241   2.762   0.748  21.064  1.1994 -1.3597 -0.0550
  102OSM   C11S10242   2.810   0.631  20.884 -0.5102  0.4867  0.0632
  102OSM   H11S10243   2.920   0.646  20.895 -0.5180  0.7552 -0.2005
  102OSM   H11T10244   2.783   0.634  20.777 -1.7964 -1.8053  0.2704
  102OSM   C12S10245   2.765   0.500  20.949 -0.0290 -0.4301  0.0684
  102OSM   H12S10246   2.664   0.504  20.996  0.4387  3.5613  1.1037
  102OSM   H12T10247   2.831   0.486  21.038  0.9580  2.6956 -0.0416
  102OSM   C13S10248   2.781   0.379  20.851 -0.8889 -0.2629 -0.2186
  102OSM   H13S10249   2.740   0.407  20.752  3.1567  0.4015 -1.9319
  102OSM   H13T10250   2.732   0.293  20.901 -0.9206  0.1994  0.5612
  102OSM   C14S10251   2.929   0.351  20.812  0.0980 -0.4933 -0.0466
  102OSM   H14S10252   2.995   0.361  20.901 -0.6961  2.3508  0.3230
  102OSM   H14T10253   2.961   0.433  20.745  3.1790  2.0883  4.0578
  102OSM   C15S10254   2.949   0.206  20.750  0.0913  0.3186 -0.3148
  102OSM   H15S10255   3.046   0.218  20.698  0.7716  1.7101  1.1804
  102OSM   H15T10256   2.881   0.190  20.664  0.2615  2.9948 -1.0273
  102OSM   C16S10257   2.967   0.088  20.847  0.1332  0.3237 -0.4967
  102OSM   H16S10258   2.874   0.051  20.894 -0.2755  1.4116 -0.4296
  102OSM   H16T10259   3.033   0.108  20.934 -0.9150  1.9725 -0.0376
  102OSM   C17S10260   3.036  -0.027  20.763  0.2649 -0.1748  0.3750
  102OSM   H17S10261   3.138  -0.001  20.727 -0.7989  0.7063 -2.2707
  102OSM   H17T10262   2.973  -0.040  20.672 -1.0122  0.5015  1.1353
  102OSM   C18S10263   3.042  -0.171  20.818  0.2137 -0.2181  0.1526
  102OSM   H18S10264   3.107  -0.246  20.769 -0.0264 -1.2165  1.3317
  102OSM   H18T10265   2.938  -0.208  20.807 -1.0606  2.9841  0.3844
  102OSM   H18U10266   3.060  -0.168  20.928 -1.6627  1.3086  0.4767
  102OSM    C1F10267   3.088   1.124  20.651  0.2666  0.1490  0.2581
  102OSM     OF10268   3.163   1.160  20.739  0.3339  0.3828 -0.3422
  102OSM    C2F10269   3.108   1.002  20.577 -0.0117  0.4297  0.1078
  102OSM    H2F10270   3.126   1.035  20.473 -1.2023 -0.9735 -0.5961
  102OSM    H2G10271   3.007   0.957  20.584 -0.1405  0.6258 -0.4891
  102OSM    C3F10272   3.215   0.900  20.634  0.2238  0.6419 -0.7147
  102OSM    H3F10273   3.194   0.857  20.734 -3.5686  0.1461 -1.5657
  102OSM    H3G10274   3.318   0.939  20.636  1.3631 -2.0966  2.0116
  102OSM    C4F10275   3.221   0.769  20.542 -0.4221 -0.2155  0.0729
  102OSM    H4F10276   3.303   0.707  20.585 -1.1605  0.3422  2.4493
  102OSM    H4G10277   3.257   0.804  20.443  1.8261  0.4457  1.0453
  102OSM    C5F10278   3.102   0.678  20.551  0.2293  0.6123 -0.6418
  102OSM    H5F10279   3.050   0.683  20.649  0.2846  1.6954 -0.6535
  102OSM    H5G10280   3.143   0.575  20.543 -1.3540 -0.0397 -0.6519
  102OSM    C6F10281   3.004   0.684  20.435 -0.2509 -0.6137 -0.5527
  102OSM    H6F10282   3.058   0.679  20.339 -0.7804 -0.7018 -0.8512
  102OSM    H6G10283   2.966   0.789  20.444  1.0530 -0.1084 -0.7599
  102OSM    C7F10284   2.885   0.585  20.446  0.4156 -0.4015  0.1870
  102OSM    H7F10285   2.815   0.602  20.530 -0.2902  0.2762 -0.5141
  102OSM    H7G10286   2.920   0.482  20.466  1.2301 -0.2384 -0.3520
  102OSM    C8F10287   2.795   0.581  20.316 -0.4446 -0.3297  0.4576
  102OSM    H8F10288   2.724   0.500  20.340  0.0571 -1.9364 -2.8544
  102OSM    H8G10289   2.852   0.558  20.223 -0.2143  0.8586  0.2841
  102OSM    C9F10290   2.730   0.718  20.282  0.0244  0.0990 -0.3554
  102OSM    H9F10291   2.738   0.784  20.369 -0.5260 -0.5265  0.1889
  102OSM   C10F10292   2.700   0.773  20.167 -0.2588  0.2625 -0.4454
  102OSM   H10F10293   2.640   0.864  20.152 -2.9871 -1.7654 -3.1442
  102OSM   C11F10294   2.717   0.695  20.042  0.3998 -0.2930 -0.6967
  102OSM   H11F10295   2.713   0.588  20.072 -1.0571 -0.0664  0.0112
  102OSM   H11G10296   2.820   0.720  20.009  0.3701 -2.3576 -2.5862
  102OSM   C12F10297   2.622   0.721  19.928  0.1374  0.0219  0.3445
  102OSM   H12F10298   2.636   0.822  19.884 -1.8013  0.0241 -0.3442
  102OSM   H12G10299   2.519   0.696  19.961  1.1178 -0.0259  3.6977
  102OSM   C13F10300   2.646   0.628  19.812  0.3402  0.3858  0.4115
  102OSM   H13F10301   2.653   0.523  19.848  0.1941  0.3814  0.4267
  102OSM   H13G10302   2.748   0.652  19.774  0.2840  0.1316  0.0919
  102OSM   C14F10303   2.544   0.649  19.707  0.4750 -0.2880  0.8244
  102OSM   H14F10304   2.549   0.758  19.683  1.0827 -0.0484  1.9515
  102OSM   H14G10305   2.436   0.649  19.730  0.0120  3.3636 -0.6256
  102OSM   C15F10306   2.568   0.573  19.572 -0.1578  0.5815 -0.7740
  102OSM   H15F10307   2.529   0.632  19.486  1.7412  2.3522 -0.4871
  102OSM   H15G10308   2.505   0.482  19.586  1.2667 -0.6317 -1.8859
  102OSM   C16F10309   2.703   0.527  19.546  0.8655 -0.5028 -0.1694
  102OSM   H16F10310   2.741   0.469  19.633  0.8584 -0.4162 -0.1084
  102OSM   H16G10311   2.780   0.606  19.537 -0.0202  0.3361 -0.5632
  102OSM   C17F10312   2.708   0.426  19.428  0.0977  0.4570 -0.5980
  102OSM   H17F10313   2.664   0.335  19.474  2.8488 -1.1610 -0.9536
  102OSM   H17G10314   2.814   0.396  19.412 -0.6038 -2.0099 -1.1458
  102OSM   C18F10315   2.638   0.448  19.299 -0.2196  0.0722 -0.2429
  102OSM   H18F10316   2.649   0.555  19.269  1.5065  0.0430  0.1850
  102OSM   H18G10317   2.530   0.425  19.309 -0.5066  1.5698  0.4172
  102OSM   H18H10318   2.672   0.379  19.219 -1.5821 -1.7230  0.6661
  103OSM      N10319   0.439   2.205  19.983 -0.3800 -0.0986  0.6266
  103OSM    C1510320   0.379   2.141  20.108  0.5317 -0.1880  0.0483
  103OSM   H15A10321   0.349   2.220  20.175  0.3819  1.5273 -1.9449
  103OSM   H15B10322   0.449   2.077  20.160  0.6197 -2.1483 -2.2680
  103OSM   H15C10323   0.296   2.081  20.073 -0.1875  1.4876 -1.2701
  103OSM    C1410324   0.549   2.289  20.027  0.3334 -0.3459  0.2686
  103OSM   H14A10325   0.636   2.241  20.069  0.3750 -0.5603 -0.0612
  103OSM   H14B10326   0.515   2.364  20.098 -1.2065 -0.2332 -0.5445
  103OSM   H14C10327   0.595   2.344  19.946  0.1585  1.6166  1.4101
  103OSM    C1310328   0.486   2.098  19.892  0.0072 -0.1222  0.2166
  103OSM   H13A10329   0.522   2.017  19.954  0.0508 -0.0140  0.3350
  103OSM   H13B10330   0.558   2.134  19.820  0.4459 -0.6396  0.3889
  103OSM   H13C10331   0.403   2.066  19.830 -1.0212  1.6634  0.5992
  103OSM    C1210332   0.332   2.288  19.907  0.1664 -0.0612  0.2104
  103OSM   H12A10333   0.378   2.363  19.845 -0.2109  0.6139  0.7405
  103OSM   H12B10334   0.279   2.339  19.985 -0.0906  1.6259 -1.0217
  103OSM    C1110335   0.235   2.212  19.819 -0.2411 -0.6842  0.0086
  103OSM   H11A10336   0.286   2.160  19.735  1.5509 -0.5042  0.9204
  103OSM   H11B10337   0.158   2.279  19.775 -0.8227 -2.8169 -2.4753
  103OSM      P10338   0.041   2.117  19.949  0.1708  0.1982  0.3919
  103OSM    O1310339  -0.059   2.092  19.840 -0.0185  0.0163 -0.3195
  103OSM    O1410340   0.036   2.029  20.072 -0.8828 -0.4746  0.1014
  103OSM    O1110341   0.035   2.264  20.001 -0.5273 -0.2717  0.2105
  103OSM    O1210342   0.179   2.093  19.886  0.6235 -0.5214  0.1202
  103OSM    C1S10343  -0.043   2.283  20.124  0.7069  0.0902  0.9254
  103OSM    H1S10344   0.016   2.223  20.196  0.4698 -0.6533  0.5143
  103OSM    H1T10345  -0.142   2.234  20.117  0.3157  0.6541  2.3808
  103OSM     NF10346  -0.122   2.442  20.285  0.1114  0.6673  0.2901
  103OSM    HNF10347  -0.208   2.489  20.265 -1.7251 -2.7652 -0.8506
  103OSM    C2S10348  -0.033   2.427  20.173  0.2893  0.2057  0.2076
  103OSM    H2S10349   0.072   2.438  20.210  1.0777 -1.1727 -1.4579
  103OSM    C3S10350  -0.043   2.528  20.049  0.3459  0.2503  0.1538
  103OSM    H3S10351  -0.119   2.491  19.978  0.0570  1.2281 -0.0598
  103OSM     O310352   0.075   2.531  19.970  0.4389 -0.2200 -0.3059
  103OSM    HO310353   0.102   2.440  19.955  1.8827 -0.1164  1.3845
  103OSM    C4S10354  -0.069   2.663  20.104  0.1081 -0.0980  0.1912
  103OSM    H4S10355  -0.175   2.689  20.086 -0.7710 -1.4961  2.8020
  103OSM    C5S10356   0.011   2.744  20.175  0.4278 -0.3684  0.3024
  103OSM    H5S10357   0.120   2.728  20.178  0.7924  1.3764 -1.6282
  103OSM    C6S10358  -0.034   2.878  20.233 -0.3810  0.2155  0.0260
  103OSM    H6S10359   0.048   2.952  20.222 -0.4514  0.3686  0.5239
  103OSM    H6T10360  -0.042   2.878  20.343 -0.9913 -2.2081  0.0505
  103OSM    C7S10361  -0.163   2.947  20.201  0.3299 -0.4839 -0.2606
  103OSM    H7S10362  -0.244   2.886  20.247 -1.3499  1.8741  0.1272
  103OSM    H7T10363  -0.180   2.943  20.092  0.8109  3.5439 -0.6231
  103OSM    C8S10364  -0.172   3.095  20.246 -0.3221  0.4095 -0.6158
  103OSM    H8S10365  -0.132   3.098  20.349  2.5530 -2.9385 -1.4417
  103OSM    H8T10366  -0.272   3.141  20.230 -0.6239 -0.5121 -1.4860
  103OSM    C9S10367  -0.088   3.189  20.159 -0.3868  0.3720 -0.1467
  103OSM    H9S10368   0.014   3.148  20.146  0.5780  1.0424  3.8416
  103OSM    H9T10369  -0.071   3.279  20.222  2.6032  1.8943 -2.8755
  103OSM   C10S10370  -0.151   3.220  20.022 -0.1164 -0.2292  0.6250
  103OSM   H10S10371  -0.258   3.251  20.026 -0.5042 -1.4388  0.3009
  103OSM   H10T10372  -0.150   3.135  19.950  0.0236  1.8345 -1.9781
  103OSM   C11S10373  -0.069   3.325  19.943 -0.1586  0.0097 -0.0745
  103OSM   H11S10374  -0.095   3.323  19.835  0.5894 -1.7340 -0.2606
  103OSM   H11T10375   0.040   3.321  19.964 -0.1136 -1.3404 -0.4731
  103OSM   C12S10376  -0.106   3.470  20.002  0.2060  0.0194  0.2868
  103OSM   H12S10377  -0.094   3.472  20.113 -3.4429  3.0664  0.8412
  103OSM   H12T10378  -0.211   3.475  19.965 -0.0466 -1.1156  0.7822
  103OSM   C13S10379  -0.018   3.576  19.938 -0.3728 -0.2646 -0.5728
  103OSM   H13S10380  -0.027   3.567  19.828  1.0252  2.3053 -0.9679
  103OSM   H13T10381   0.089   3.566  19.967  0.0385  0.3767 -1.7939
  103OSM   C14S10382  -0.070   3.715  19.978  0.1614  0.0495  0.6352
  103OSM   H14S10383  -0.087   3.725  20.088 -1.8968 -2.4457  0.6420
  103OSM   H14T10384  -0.175   3.721  19.941 -0.1286  3.0475  1.6468
  103OSM   C15S10385  -0.002   3.827  19.909 -0.0589  0.0835  0.2777
  103OSM   H15S10386  -0.072   3.911  19.887 -0.5772 -0.2996  0.4433
  103OSM   H15T10387   0.032   3.795  19.809 -1.4462 -0.5703 -0.0049
  103OSM   C16S10388   0.121   3.877  19.995  0.3970 -0.1657 -0.0047
  103OSM   H16S10389   0.197   3.796  19.988  0.7434  0.2071 -0.6233
  103OSM   H16T10390   0.092   3.882  20.102  0.1718  1.2180 -0.1135
  103OSM   C17S10391   0.164   4.010  19.935  0.0144 -0.0424  0.2414
  103OSM   H17S10392   0.088   4.088  19.957 -2.0932 -1.1254 -2.5473
  103OSM   H17T10393   0.167   3.985  19.827  0.3880 -0.7138  0.3938
  103OSM   C18S10394   0.300   4.054  19.983  0.0436 -0.6527  0.3069
  103OSM   H18S10395   0.293   4.054  20.094 -3.2194  0.4965  0.2163
  103OSM   H18T10396   0.313   4.161  19.957 -0.6509 -0.7148 -0.3391
  103OSM   H18U10397   0.389   3.995  19.952  1.9187  1.2239  1.8288
  103OSM    C1F10398  -0.101   2.393  20.406 -0.5755  0.0676  0.7359
  103OSM     OF10399   0.005   2.332  20.428 -0.1474 -0.5564 -0.8229
  103OSM    C2F10400  -0.211   2.415  20.512  0.2691  0.0103  0.2150
  103OSM    H2F10401  -0.212   2.316  20.561  0.9030  0.3648  0.9701
  103OSM    H2G10402  -0.308   2.432  20.460 -0.0500  1.0528  1.1189
  103OSM    C3F10403  -0.180   2.521  20.618 -0.1614 -1.1164 -0.1219
  103OSM    H3F10404  -0.083   2.491  20.663  0.4273  0.3536 -0.3650
  103OSM    H3G10405  -0.259   2.508  20.695 -0.6138  0.4289 -0.2950
  103OSM    C4F10406  -0.197   2.675  20.581 -0.8921 -0.2694 -0.0137
  103OSM    H4F10407  -0.304   2.702  20.563 -0.4282  1.7482 -0.0024
  103OSM    H4G10408  -0.133   2.704  20.495  1.0160 -0.5354  1.2752
  103OSM    C5F10409  -0.160   2.771  20.697  0.6210  1.0232 -0.1533
  103OSM    H5F10410  -0.057   2.748  20.733  0.5574 -0.2162 -0.7187
  103OSM    H5G10411  -0.243   2.754  20.769  0.9669  1.3002  0.3228
  103OSM    C6F10412  -0.155   2.912  20.640 -0.0389 -0.4664 -0.0402
  103OSM    H6F10413  -0.262   2.938  20.642 -0.0711 -0.5693 -0.3120
  103OSM    H6G10414  -0.127   2.908  20.532 -0.2831 -1.1030 -0.0837
  103OSM    C7F10415  -0.054   2.993  20.718  0.5022  0.0352 -1.3203
  103OSM    H7F10416   0.038   2.936  20.744  1.0790  1.3654 -0.2592
  103OSM    H7G10417  -0.102   3.015  20.816 -0.9222 -0.0268 -1.9882
  103OSM    C8F10418  -0.008   3.125  20.653 -0.0405  0.4180 -0.2965
  103OSM    H8F10419   0.038   3.122  20.551  0.8945  0.5918  0.1095
  103OSM    H8G10420   0.083   3.160  20.707  0.3266  1.9114 -1.7918
  103OSM    C9F10421  -0.124   3.221  20.634 -0.1376 -0.0776  0.0191
  103OSM    H9F10422  -0.165   3.244  20.535  0.8106 -0.1821 -0.4061
  103OSM   C10F10423  -0.178   3.290  20.735  0.7163  0.1501 -0.5621
  103OSM   H10F10424  -0.262   3.358  20.715  1.4791  1.3396  0.1495
  103OSM   C11F10425  -0.139   3.287  20.882 -0.1775  0.3952  0.5165
  103OSM   H11F10426  -0.037   3.247  20.902  0.1148  0.4014 -0.8569
  103OSM   H11G10427  -0.212   3.232  20.945 -0.1409  2.0755  2.0950
  103OSM   C12F10428  -0.140   3.433  20.933  0.2656  0.3016 -0.8360
  103OSM   H12F10429  -0.229   3.492  20.899 -0.0421  0.3431  0.0275
  103OSM   H12G10430  -0.053   3.487  20.889  1.4751 -0.7552  0.1981
  103OSM   C13F10431  -0.124   3.442  21.088 -0.3012 -0.1548  0.0167
  103OSM   H13F10432  -0.025   3.394  21.107  1.2814  2.6555 -0.4280
  103OSM   H13G10433  -0.206   3.386  21.136  0.7427 -0.0338  2.0775
  103OSM   C14F10434  -0.126   3.591  21.132 -0.4506 -0.4882  0.6991
  103OSM   H14F10435  -0.215   3.633  21.081  0.7390 -0.1380 -1.1649
  103OSM   H14G10436  -0.036   3.640  21.088  1.1678 -2.2403  1.8758
  103OSM   C15F10437  -0.125   3.596  21.289 -0.4207  0.5789  1.2189
  103OSM   H15F10438  -0.054   3.517  21.322 -1.4379 -0.7376  0.3110
  103OSM   H15G10439  -0.225   3.561  21.319 -1.2269  2.5905  1.0505
  103OSM   C16F10440  -0.103   3.738  21.335  0.9737 -0.0158 -0.6063
  103OSM   H16F10441  -0.036   3.804  21.276  0.3479  1.6641  0.4876
  103OSM   H16G10442  -0.051   3.731  21.433  0.0252 -0.6927 -0.1343
  103OSM   C17F10443  -0.235   3.809  21.357  0.4064  0.4930  0.0107
  103OSM   H17F10444  -0.289   3.767  21.444 -0.6903  2.4026  0.3249
  103OSM   H17G10445  -0.310   3.803  21.274 -3.7232  1.1586  3.3308
  103OSM   C18F10446  -0.225   3.953  21.393  0.4132 -0.1333  0.3977
  103OSM   H18F10447  -0.323   3.951  21.446 -1.6171 -4.4015 -2.8759
  103OSM   H18G10448  -0.218   4.020  21.304  0.3962 -1.3202 -0.5154
  103OSM   H18H10449  -0.140   3.974  21.461  3.0964  0.0923 -2.7852
  104OSM      N10450   0.344   1.329  19.054  0.2482 -0.6038  0.6850
  104OSM    C1510451   0.218   1.254  19.050  0.8476  0.7287  0.1191
  104OSM   H15A10452   0.175   1.258  19.149 -1.8868 -1.0304 -0.8652
  104OSM   H15B10453   0.234   1.148  19.038  1.3210  0.7608  0.4872
  104OSM   H15C10454   0.149   1.293  18.976  0.4923  0.2619  0.2018
  104OSM    C1410455   0.300   1.470  19.068  0.4147 -0.4902  0.2769
  104OSM   H14A10456   0.215   1.477  19.135  1.0633 -2.0681  1.3176
  104OSM   H14B10457   0.274   1.514  18.973 -0.3780 -1.7026 -0.0897
  104OSM   H14C10458   0.382   1.535  19.097 -1.4826  1.7776  0.9601
  104OSM    C1310459   0.429   1.279  19.163 -0.3794  0.2187 -0.1723
  104OSM   H13A10460   0.524   1.327  19.144  0.1396 -1.5830 -2.4673
  104OSM   H13B10461   0.430   1.171  19.160  1.4331  0.2191 -0.7916
  104OSM   H13C10462   0.397   1.311  19.262  0.8736  0.4135  0.1828
  104OSM    C1210463   0.411   1.310  18.918 -0.3970  0.2425 -0.1826
  104OSM   H12A10464   0.345   1.365  18.852 -1.0947 -1.4116 -0.8943
  104OSM   H12B10465   0.398   1.206  18.895  0.5880  0.1932 -0.5478
  104OSM    C1110466   0.557   1.345  18.901 -0.1523  0.3950 -0.4992
  104OSM   H11A10467   0.582   1.328  18.794 -1.6492 -0.8169 -0.7000
  104OSM   H11B10468   0.615   1.280  18.970  1.3285  3.6764  1.6164
  104OSM      P10469   0.547   1.603  18.849  0.5637  0.2305 -0.1797
  104OSM    O1310470   0.457   1.566  18.740  0.2876  0.0886  0.3630
  104OSM    O1410471   0.487   1.701  18.939 -0.9986  0.0590 -1.1916
  104OSM    O1110472   0.686   1.656  18.793  0.1555 -0.1115  0.1108
  104OSM    O1210473   0.590   1.479  18.937 -0.0818  0.8232 -0.3465
  104OSM    C1S10474   0.778   1.562  18.746 -0.0045 -0.5187 -0.2908
  104OSM    H1S10475   0.725   1.495  18.675  1.1893  1.0306 -2.7971
  104OSM    H1T10476   0.815   1.504  18.833 -0.8990 -0.5714  0.0606
  104OSM     NF10477   1.011   1.523  18.649 -0.0412  0.0825 -0.9105
  104OSM    HNF10478   1.095   1.541  18.700 -0.3726  1.7552 -0.8976
  104OSM    C2S10479   0.908   1.619  18.678 -0.0926  0.0982 -0.5148
  104OSM    H2S10480   0.864   1.659  18.584 -0.9793 -1.3344 -0.7376
  104OSM    C3S10481   0.962   1.757  18.741 -0.1160  0.8273 -0.7267
  104OSM    H3S10482   1.016   1.729  18.834  0.0103 -1.4325 -1.4205
  104OSM     O310483   0.860   1.851  18.784  0.9589  0.1496  0.1159
  104OSM    HO310484   0.779   1.799  18.784 -0.0485  1.6417  1.3909
  104OSM    C4S10485   1.067   1.825  18.651  0.0220  0.6023  0.3220
  104OSM    H4S10486   1.169   1.790  18.672  0.0811  0.5189 -0.1042
  104OSM    C5S10487   1.047   1.913  18.550  0.5496  0.5450  0.9180
  104OSM    H5S10488   0.947   1.932  18.508  1.7807  0.7818 -2.0871
  104OSM    C6S10489   1.161   1.967  18.467  0.8296  0.0757  1.2422
  104OSM    H6S10490   1.256   1.912  18.482 -0.6467 -3.4872 -0.9536
  104OSM    H6T10491   1.171   2.073  18.496  2.4725  0.6657 -1.1577
  104OSM    C7S10492   1.122   1.966  18.317  0.2558 -0.2893  0.2992
  104OSM    H7S10493   1.030   2.026  18.302 -0.4185 -1.1322  0.9309
  104OSM    H7T10494   1.096   1.862  18.290  3.8498 -1.3787  0.6240
  104OSM    C8S10495   1.225   2.028  18.220  0.1203  0.3090 -0.5817
  104OSM    H8S10496   1.320   1.971  18.235  0.0850  0.4455  0.1917
  104OSM    H8T10497   1.247   2.130  18.257  0.5368 -1.4081  4.7099
  104OSM    C9S10498   1.181   2.044  18.077 -0.6334  0.3206  1.0860
  104OSM    H9S10499   1.160   1.947  18.026  2.8332  1.1014 -2.2581
  104OSM    H9T10500   1.265   2.082  18.016 -1.7482 -1.4686 -1.7882
  104OSM   C10S10501   1.064   2.142  18.050 -0.0615  0.2360  0.2691
  104OSM   H10S10502   1.094   2.242  18.089  0.0813 -0.2251  1.3508
  104OSM   H10T10503   0.976   2.114  18.111  1.2763 -1.2047  1.6314
  104OSM   C11S10504   1.017   2.158  17.899  0.4697 -0.3154  0.1810
  104OSM   H11S10505   0.919   2.209  17.904  1.5159  1.7085  3.3446
  104OSM   H11T10506   1.000   2.056  17.857  1.7501 -0.5477  0.1784
  104OSM   C12S10507   1.136   2.214  17.812  0.4074  0.4288 -0.3138
  104OSM   H12S10508   1.218   2.139  17.821 -1.7772 -2.6268 -3.1587
  104OSM   H12T10509   1.170   2.313  17.850  0.6593  0.1526  0.2020
  104OSM   C13S10510   1.104   2.207  17.665 -0.2569 -0.2478  0.2002
  104OSM   H13S10511   1.053   2.112  17.638 -1.1558  0.9654 -2.7296
  104OSM   H13T10512   1.198   2.215  17.608  0.4033  3.8922  1.5291
  104OSM   C14S10513   1.016   2.321  17.612 -0.6747 -0.1785 -0.2938
  104OSM   H14S10514   1.070   2.417  17.623  1.8732 -1.5465 -0.0228
  104OSM   H14T10515   0.929   2.344  17.678 -0.3823 -2.3966  0.9915
  104OSM   C15S10516   0.968   2.300  17.469 -0.2740  0.3347  0.3825
  104OSM   H15S10517   0.889   2.374  17.449 -0.8545 -0.2517  0.4707
  104OSM   H15T10518   0.919   2.200  17.473 -1.1750  0.7931  0.9900
  104OSM   C16S10519   1.069   2.305  17.356  0.4704  0.5989  0.5884
  104OSM   H16S10520   1.150   2.232  17.379  2.3297  2.5327  0.5559
  104OSM   H16T10521   1.128   2.399  17.352 -1.0676  1.6630  1.7127
  104OSM   C17S10522   1.021   2.262  17.215 -0.6512 -0.5943  0.3860
  104OSM   H17S10523   1.095   2.280  17.134  0.0408 -0.3132  1.0713
  104OSM   H17T10524   0.940   2.331  17.185 -1.4776 -1.8965 -0.4814
  104OSM   C18S10525   0.976   2.117  17.216  0.1518 -0.1822 -0.3930
  104OSM   H18S10526   0.954   2.074  17.116 -0.1751  1.0139 -0.8490
  104OSM   H18T10527   0.885   2.106  17.279  1.1846  1.6646  1.5505
  104OSM   H18U10528   1.052   2.041  17.246 -1.6019 -1.3984  1.2341
  104OSM    C1F10529   0.999   1.423  18.570 -0.0305  0.2531 -0.6796
  104OSM     OF10530   0.909   1.431  18.488 -0.0354  0.3554  0.2761
  104OSM    C2F10531   1.095   1.304  18.579 -0.2603 -0.3243 -0.4754
  104OSM    H2F10532   1.109   1.263  18.681  1.2638 -0.8810 -0.8816
  104OSM    H2G10533   1.198   1.345  18.568 -0.5333  0.3156 -0.7178
  104OSM    C3F10534   1.065   1.200  18.471 -0.0812 -0.1059 -0.9306
  104OSM    H3F10535   1.055   1.253  18.374  0.1124  0.1667 -0.8024
  104OSM    H3G10536   0.971   1.147  18.500  1.9017 -2.0709  2.6355
  104OSM    C4F10537   1.186   1.106  18.466  0.0727  0.6557 -0.5702
  104OSM    H4F10538   1.158   0.999  18.457  0.0860  0.7512 -1.9346
  104OSM    H4G10539   1.250   1.124  18.556  0.9896  2.0082 -1.4535
  104OSM    C5F10540   1.282   1.135  18.343  0.3640 -0.0603 -0.0097
  104OSM    H5F10541   1.360   1.057  18.353  2.4968  2.2296  3.3697
  104OSM    H5G10542   1.332   1.232  18.363  2.1492 -1.4081  2.8484
  104OSM    C6F10543   1.197   1.132  18.211 -0.4788 -0.6346  0.4110
  104OSM    H6F10544   1.177   1.238  18.185  1.6056  0.1030  1.5949
  104OSM    H6G10545   1.094   1.092  18.217 -1.3358  1.5233  1.3874
  104OSM    C7F10546   1.281   1.069  18.094  0.2394  0.3968 -0.0399
  104OSM    H7F10547   1.339   0.985  18.138  1.2635  1.1653  0.1251
  104OSM    H7G10548   1.356   1.145  18.063  1.8469 -1.9949 -2.4642
  104OSM    C8F10549   1.204   1.026  17.964 -0.1634  0.1306 -0.0653
  104OSM    H8F10550   1.273   1.013  17.878 -1.2678 -2.0300 -0.7090
  104OSM    H8G10551   1.134   1.106  17.934 -0.1884 -0.4220 -1.5496
  104OSM    C9F10552   1.109   0.909  17.974  0.4574 -0.6553  0.0475
  104OSM    H9F10553   1.060   0.907  18.072  2.0939  2.0284  1.0503
  104OSM   C10F10554   1.062   0.829  17.877  0.3960  0.3368  0.5118
  104OSM   H10F10555   0.992   0.747  17.897  0.3423  0.2755  0.0839
  104OSM   C11F10556   1.115   0.832  17.745 -0.1579  0.2203  0.0278
  104OSM   H11F10557   1.214   0.883  17.739  0.1255 -0.3675 -0.4521
  104OSM   H11G10558   1.039   0.892  17.691 -1.3442 -0.8203  0.4949
  104OSM   C12F10559   1.130   0.690  17.684 -0.0821 -0.5688  0.4212
  104OSM   H12F10560   1.170   0.690  17.580  1.2860 -0.7232  0.9330
  104OSM   H12G10561   1.037   0.629  17.683  0.5671 -1.6621  2.3040
  104OSM   C13F10562   1.245   0.626  17.765  0.3661  0.5727  0.0592
  104OSM   H13F10563   1.218   0.585  17.864  2.8911  0.1408  0.6473
  104OSM   H13G10564   1.328   0.697  17.783 -1.0609  2.4367 -0.4596
  104OSM   C14F10565   1.306   0.504  17.696 -0.1361 -0.6876 -0.0470
  104OSM   H14F10566   1.338   0.530  17.593  1.5053 -1.4419  0.2348
  104OSM   H14G10567   1.224   0.430  17.679 -0.9772  0.3605 -0.6701
  104OSM   C15F10568   1.418   0.428  17.777 -0.2800 -0.8598 -0.2229
  104OSM   H15F10569   1.380   0.414  17.880 -1.4196  0.3067 -0.4513
  104OSM   H15G10570   1.503   0.499  17.787  0.8472 -2.3215  0.8493
  104OSM   C16F10571   1.461   0.294  17.714 -0.2971  0.3038  0.0058
  104OSM   H16F10572   1.547   0.261  17.775 -0.7281 -2.2985 -0.6939
  104OSM   H16G10573   1.512   0.310  17.616  0.9988  1.1843  0.7934
  104OSM   C17F10574   1.354   0.189  17.708  0.0416 -0.0967  0.5200
  104OSM   H17F10575   1.279   0.215  17.631  1.3577  1.2315 -0.3586
  104OSM   H17G10576   1.298   0.182  17.804  0.0264  1.2445  0.6180
  104OSM   C18F10577   1.411   0.056  17.649  0.4747 -0.5724 -0.5630
  104OSM   H18F10578   1.333  -0.022  17.644  0.9206 -0.9825 -1.3116
  104OSM   H18G10579   1.506   0.014  17.691  1.1836 -0.7055 -2.2288
  104OSM   H18H10580   1.426   0.086  17.543  0.6765 -0.2056 -0.4324
  105OSM      N10581   3.528   1.751  19.612 -0.4917 -0.2623 -0.0345
  105OSM    C1510582   3.563   1.679  19.491  0.3218 -0.4882 -0.1521
  105OSM   H15A10583   3.640   1.739  19.445  1.7784  0.4388  3.1208
  105OSM   H15B10584   3.479   1.675  19.424  0.1864  0.2258 -0.0279
  105OSM   H15C10585   3.598   1.581  19.518 -1.4112 -1.2248 -0.4371
  105OSM    C1410586   3.429   1.860  19.580  0.5661  0.3547  0.3630
  105OSM   H14A10587   3.473   1.924  19.505  0.9478  1.6481  1.6490
  105OSM   H14B10588   3.403   1.921  19.665  2.2416  2.2411 -0.3841
  105OSM   H14C10589   3.334   1.824  19.542 -0.5544  2.4406  1.0467
  105OSM    C1310590   3.477   1.653  19.708  0.2520 -0.0251 -0.4147
  105OSM   H13A10591   3.431   1.695  19.796  1.0206  2.0028 -0.9128
  105OSM   H13B10592   3.549   1.576  19.730  0.5998  0.4687  0.2189
  105OSM   H13C10593   3.402   1.590  19.662 -0.2259  1.5778 -1.9755
  105OSM    C1210594   3.647   1.813  19.688 -0.8098  0.3681 -0.4002
  105OSM   H12A10595   3.720   1.738  19.718 -0.9287  1.3500  2.7468
  105OSM   H12B10596   3.614   1.852  19.783  1.3903 -2.6683  1.8089
  105OSM    C1110597   3.736   1.923  19.627  0.1684 -0.1880  0.9238
  105OSM   H11A10598   3.826   1.946  19.689  1.0283 -0.1178 -0.3230
  105OSM   H11B10599   3.677   2.017  19.615  1.1609  0.1175 -2.2184
  105OSM      P10600   3.907   1.801  19.484 -0.5692  0.2157  0.0100
  105OSM    O1310601   3.912   1.684  19.573  0.2257  0.3223 -0.4129
  105OSM    O1410602   3.932   1.775  19.340  0.3257  0.0213 -0.0819
  105OSM    O1110603   4.015   1.904  19.528  0.5157 -0.0278  0.5725
  105OSM    O1210604   3.774   1.869  19.503 -0.4408  0.0800 -0.6173
  105OSM    C1S10605   4.160   1.884  19.501  0.3031  0.1370 -0.0726
  105OSM    H1S10606   4.183   1.781  19.465 -0.2722  0.6735 -2.1579
  105OSM    H1T10607   4.218   1.894  19.595  0.5186  0.3019 -0.2219
  105OSM     NF10608   4.318   1.943  19.325 -0.0862  0.3328 -0.3980
  105OSM    HNF10609   4.402   1.995  19.339 -0.3776  0.4749  0.9669
  105OSM    C2S10610   4.209   1.989  19.404 -0.3687 -0.6291 -0.3826
  105OSM    H2S10611   4.133   1.982  19.323  0.4462 -0.6302 -1.1653
  105OSM    C3S10612   4.228   2.124  19.462 -0.8401 -0.6709 -0.3665
  105OSM    H3S10613   4.310   2.113  19.537 -2.1370 -1.2535  1.0052
  105OSM     O310614   4.106   2.169  19.533  0.1471  0.2922 -0.1105
  105OSM    HO310615   4.052   2.090  19.532  0.4539  0.0335  1.6283
  105OSM    C4S10616   4.277   2.226  19.355  0.2477 -0.3988  0.2223
  105OSM    H4S10617   4.385   2.241  19.353  0.1891 -0.0219 -0.2381
  105OSM    C5S10618   4.195   2.303  19.274 -0.8204  0.2642  0.5590
  105OSM    H5S10619   4.086   2.291  19.277 -0.8930 -0.0358 -1.6027
  105OSM    C6S10620   4.250   2.410  19.176  0.7430 -0.8391 -0.2509
  105OSM    H6S10621   4.358   2.429  19.192  1.0496 -2.6240  0.0506
  105OSM    H6T10622   4.206   2.512  19.174 -1.5926 -1.7666 -3.4070
  105OSM    C7S10623   4.227   2.355  19.038  0.4412  0.2490 -0.1712
  105OSM    H7S10624   4.120   2.326  19.028  0.5588 -1.3836  2.3086
  105OSM    H7T10625   4.291   2.268  19.013  0.9183  0.5226  0.0894
  105OSM    C8S10626   4.270   2.469  18.940  0.8143 -0.3419 -0.0703
  105OSM    H8S10627   4.329   2.540  19.002  1.4105  0.6620 -1.7168
  105OSM    H8T10628   4.183   2.528  18.904 -0.0952 -2.0722 -0.8194
  105OSM    C9S10629   4.363   2.425  18.840 -0.3649  0.3098  1.2329
  105OSM    H9S10630   4.322   2.347  18.772 -2.9590  1.0232  1.8813
  105OSM    H9T10631   4.451   2.373  18.885  2.1806  1.6593 -1.8298
  105OSM   C10S10632   4.432   2.532  18.752  0.4092 -0.2050  0.6022
  105OSM   H10S10633   4.356   2.601  18.711 -3.1461 -3.9362  0.3620
  105OSM   H10T10634   4.464   2.474  18.663  1.0811  0.1441  0.6033
  105OSM   C11S10635   4.548   2.601  18.825 -0.3398 -0.0217 -0.0123
  105OSM   H11S10636   4.609   2.526  18.879 -0.7475 -1.7293 -1.8075
  105OSM   H11T10637   4.505   2.676  18.896  1.4535  3.5216 -2.3816
  105OSM   C12S10638   4.641   2.680  18.729  0.3804  0.0247  1.1238
  105OSM   H12S10639   4.583   2.766  18.689  1.7325  0.0004 -0.9965
  105OSM   H12T10640   4.659   2.616  18.641 -0.4187  0.9973  0.2188
  105OSM   C13S10641   4.771   2.728  18.779 -0.0412 -0.2463 -0.0563
  105OSM   H13S10642   4.813   2.644  18.839 -1.1463 -1.3647 -0.8089
  105OSM   H13T10643   4.745   2.820  18.836 -1.0414  0.9212 -2.2650
  105OSM   C14S10644   4.882   2.785  18.685 -0.5362  0.1806  0.4789
  105OSM   H14S10645   4.916   2.692  18.634 -3.1845 -0.3118 -0.5876
  105OSM   H14T10646   4.966   2.831  18.740  0.5073  1.4992 -2.0704
  105OSM   C15S10647   4.835   2.876  18.572 -0.5856 -0.6110 -0.1089
  105OSM   H15S10648   4.775   2.963  18.609  2.6983  1.5645  0.5100
  105OSM   H15T10649   4.777   2.807  18.506 -1.4726 -2.3031  2.3047
  105OSM   C16S10650   4.940   2.952  18.493  0.1203  0.6111  0.6626
  105OSM   H16S10651   4.892   3.031  18.432 -0.6177 -1.0360 -1.0014
  105OSM   H16T10652   4.976   2.880  18.417  0.2500  1.3703  0.0018
  105OSM   C17S10653   5.059   3.016  18.569  0.3678  0.1979  0.2171
  105OSM   H17S10654   5.130   2.944  18.616  0.1781  0.2343  0.5607
  105OSM   H17T10655   5.029   3.085  18.650 -0.1657  1.0172 -0.6539
  105OSM   C18S10656   5.146   3.085  18.466  0.5177 -0.5569 -0.0274
  105OSM   H18S10657   5.240   3.134  18.500 -2.2076  3.8174  2.1580
  105OSM   H18T10658   5.088   3.172  18.427  1.4278  0.6699  1.2757
  105OSM   H18U10659   5.179   3.021  18.381  0.7834  2.4870 -2.4248
  105OSM    C1F10660   4.329   1.845  19.239 -0.0338 -0.5107 -0.2799
  105OSM     OF10661   4.229   1.793  19.185 -0.0809 -0.0298 -0.3696
  105OSM    C2F10662   4.471   1.799  19.225  0.1637 -0.2316  0.3112
  105OSM    H2F10663   4.531   1.810  19.318 -0.5538  0.2591  0.7342
  105OSM    H2G10664   4.517   1.858  19.143  3.8268 -0.8044  1.7509
  105OSM    C3F10665   4.486   1.644  19.190 -0.3384 -0.3002  0.3199
  105OSM    H3F10666   4.432   1.629  19.094 -1.0302  0.7605  0.5372
  105OSM    H3G10667   4.444   1.580  19.270 -1.4443  1.6007  1.3224
  105OSM    C4F10668   4.634   1.604  19.166 -0.1950 -0.9267 -0.5217
  105OSM    H4F10669   4.679   1.599  19.268  1.8076 -1.5223 -1.3865
  105OSM    H4G10670   4.681   1.687  19.111 -0.4196 -1.4571 -1.5310
  105OSM    C5F10671   4.667   1.469  19.119  0.0352 -0.0260 -0.8126
  105OSM    H5F10672   4.778   1.464  19.128 -0.0962 -0.7133  0.7318
  105OSM    H5G10673   4.635   1.453  19.013 -0.5528  1.6595 -0.9111
  105OSM    C6F10674   4.603   1.353  19.197  1.3695  0.2898 -0.4704
  105OSM    H6F10675   4.567   1.397  19.292 -1.3980 -2.2009 -0.2263
  105OSM    H6G10676   4.668   1.267  19.222 -2.4787 -1.7596  4.0881
  105OSM    C7F10677   4.484   1.297  19.113  0.3513  0.7268 -0.3061
  105OSM    H7F10678   4.531   1.246  19.027  2.0598  0.5180  0.7154
  105OSM    H7G10679   4.431   1.383  19.067 -1.2874 -1.1139 -2.0589
  105OSM    C8F10680   4.385   1.215  19.193  0.2899  0.6663  0.1596
  105OSM    H8F10681   4.297   1.177  19.138 -0.3265 -1.5324  2.4511
  105OSM    H8G10682   4.343   1.278  19.275 -2.2993  0.5221 -0.9640
  105OSM    C9F10683   4.459   1.088  19.241  0.3633  0.2236  0.2975
  105OSM    H9F10684   4.537   1.108  19.316  0.8235  1.7568 -0.5455
  105OSM   C10F10685   4.415   0.963  19.221 -0.2334 -0.2369 -0.4372
  105OSM   H10F10686   4.464   0.879  19.273 -2.7722 -0.7615  1.2934
  105OSM   C11F10687   4.299   0.924  19.123 -0.4901 -0.3743 -0.4749
  105OSM   H11F10688   4.345   0.881  19.031 -0.8495  1.7642 -1.7519
  105OSM   H11G10689   4.230   1.007  19.097  1.3608  2.3669  2.5691
  105OSM   C12F10690   4.206   0.824  19.196 -0.5710 -0.2530  0.1023
  105OSM   H12F10691   4.107   0.855  19.156  0.9352  2.8626 -1.6021
  105OSM   H12G10692   4.199   0.851  19.304 -1.5375 -0.0338 -0.0030
  105OSM   C13F10693   4.230   0.682  19.169  0.9083 -0.2313  0.1258
  105OSM   H13F10694   4.331   0.646  19.198  1.1606  0.8786  0.6965
  105OSM   H13G10695   4.211   0.670  19.060 -0.8696  0.9901  0.2574
  105OSM   C14F10696   4.118   0.589  19.239 -0.0366  1.6016 -0.2745
  105OSM   H14F10697   4.025   0.648  19.251 -2.0356 -1.7092  2.0228
  105OSM   H14G10698   4.164   0.562  19.337 -0.7887  0.6979 -0.1608
  105OSM   C15F10699   4.088   0.462  19.156  0.8211  0.0666  0.1531
  105OSM   H15F10700   4.182   0.405  19.140  0.6774 -0.1662  0.1400
  105OSM   H15G10701   4.054   0.503  19.059  1.0794  0.0562  0.0589
  105OSM   C16F10702   3.968   0.374  19.203  0.2626 -0.3259 -0.0106
  105OSM   H16F10703   3.882   0.441  19.222 -1.1575 -2.3742  1.1352
  105OSM   H16G10704   3.984   0.337  19.307  0.8411  1.6335  0.6318
  105OSM   C17F10705   3.934   0.266  19.105  0.5060  1.0043 -0.4533
  105OSM   H17F10706   3.994   0.279  19.012  1.2058 -1.5408 -0.4472
  105OSM   H17G10707   3.824   0.272  19.090  0.6088  0.9668 -1.2947
  105OSM   C18F10708   3.977   0.129  19.151  0.3239  0.0300 -0.2047
  105OSM   H18F10709   3.979   0.113  19.261  1.4285 -2.0452 -0.4890
  105OSM   H18G10710   4.077   0.101  19.112  1.5415  1.9465  1.2916
  105OSM   H18H10711   3.898   0.054  19.130 -1.3680  2.0154 -1.3094
  106OSM      N10712   1.522   1.995  21.639  0.1252 -0.2058 -0.0857
  106OSM    C1510713   1.539   2.114  21.547  0.0550  0.5129 -0.4238
  106OSM   H15A10714   1.469   2.119  21.464 -0.6367 -1.9718 -0.0942
  106OSM   H15B10715   1.638   2.116  21.504  0.4608  0.3661  0.4736
  106OSM   H15C10716   1.525   2.208  21.597  1.5447  0.0878  0.8610
  106OSM    C1410717   1.381   1.997  21.691  0.3131  0.2405  0.1213
  106OSM   H14A10718   1.342   1.903  21.726 -2.3275  1.1021 -0.2894
  106OSM   H14B10719   1.326   2.026  21.603  2.0704  0.1380 -1.0493
  106OSM   H14C10720   1.371   2.078  21.763  0.1377 -0.4866  0.9326
  106OSM    C1310721   1.538   1.874  21.559  0.0324 -0.1091 -0.0229
  106OSM   H13A10722   1.474   1.869  21.473  1.1544 -1.2043 -0.8217
  106OSM   H13B10723   1.525   1.782  21.615 -2.3697 -0.8919 -1.7137
  106OSM   H13C10724   1.641   1.862  21.529  0.0167  0.9800 -0.5593
  106OSM    C1210725   1.632   1.998  21.750  0.8989 -0.4949  0.8715
  106OSM   H12A10726   1.627   2.101  21.785  0.5415  0.3544 -1.4655
  106OSM   H12B10727   1.728   1.975  21.708  1.0638 -0.7454  1.3733
  106OSM    C1110728   1.613   1.899  21.863  0.5021  0.2848  0.0959
  106OSM   H11A10729   1.515   1.917  21.911  0.9015  2.2911  0.2416
  106OSM   H11B10730   1.680   1.920  21.949  1.3482 -1.9780  0.0664
  106OSM      P10731   1.778   1.721  21.788  0.2218  0.3264  0.2204
  106OSM    O1310732   1.780   1.581  21.736  0.5826  0.1623  0.6604
  106OSM    O1410733   1.851   1.820  21.708  0.4385  0.3382  0.3523
  106OSM    O1110734   1.839   1.728  21.934  0.4538  0.2129  0.1359
  106OSM    O1210735   1.624   1.762  21.812  0.1202 -0.2593  0.3366
  106OSM    C1S10736   1.790   1.646  22.044 -0.2203 -1.0694  0.3757
  106OSM    H1S10737   1.681   1.663  22.057  0.2344  2.3682  0.5418
  106OSM    H1T10738   1.841   1.688  22.133 -1.1845 -2.3422  1.5497
  106OSM     NF10739   1.774   1.405  22.112  0.4089  0.1448 -0.1459
  106OSM    HNF10740   1.815   1.395  22.202  0.6511 -1.0087 -0.3781
  106OSM    C2S10741   1.843   1.498  22.029 -0.5517  0.1627 -0.5938
  106OSM    H2S10742   1.820   1.456  21.929 -0.5479 -0.5706 -0.2936
  106OSM    C3S10743   2.000   1.487  22.034  0.0427 -0.6422  0.0262
  106OSM    H3S10744   2.031   1.519  22.136 -1.7881 -0.1546  0.4585
  106OSM     O310745   2.063   1.582  21.950  0.2720 -0.6623 -0.0342
  106OSM    HO310746   1.991   1.637  21.919  1.3054  2.2436  2.2985
  106OSM    C4S10747   2.046   1.346  22.020  0.7267  0.9705 -0.1747
  106OSM    H4S10748   2.039   1.292  22.116  1.0053 -0.1958 -0.8035
  106OSM    C5S10749   2.084   1.286  21.906  0.0574  0.0656 -0.8135
  106OSM    H5S10750   2.081   1.347  21.814  1.1529  0.0669 -0.8553
  106OSM    C6S10751   2.106   1.134  21.889 -0.7178  0.3197 -0.2359
  106OSM    H6S10752   2.202   1.120  21.834  0.1510  2.3985  0.6861
  106OSM    H6T10753   2.028   1.087  21.825 -1.3300  0.4269  0.4246
  106OSM    C7S10754   2.104   1.052  22.023  0.1309 -0.0505  0.2137
  106OSM    H7S10755   2.013   1.081  22.079  0.2744 -0.2228  0.5412
  106OSM    H7T10756   2.187   1.079  22.093  1.4885 -0.8894 -1.0083
  106OSM    C8S10757   2.110   0.903  21.993 -0.5066 -0.4285  0.6019
  106OSM    H8S10758   2.200   0.873  21.934 -0.0119 -1.1767  1.6874
  106OSM    H8T10759   2.024   0.872  21.930  0.7119  0.4781 -1.6483
  106OSM    C9S10760   2.110   0.821  22.126 -0.3812  0.2678  0.2322
  106OSM    H9S10761   2.032   0.861  22.194  1.6690  0.8856  2.3575
  106OSM    H9T10762   2.209   0.824  22.177  1.0451 -1.9026 -2.1250
  106OSM   C10S10763   2.077   0.676  22.101  0.1810  1.0905  0.1241
  106OSM   H10S10764   2.132   0.639  22.011 -1.3813  0.3191 -0.5518
  106OSM   H10T10765   1.972   0.660  22.068  0.5094  1.1467 -0.9849
  106OSM   C11S10766   2.102   0.583  22.215 -0.1951 -0.2408 -0.4782
  106OSM   H11S10767   2.186   0.619  22.279  0.4189 -0.2321 -1.2761
  106OSM   H11T10768   2.134   0.481  22.185  0.0380 -0.0521 -0.8805
  106OSM   C12S10769   1.977   0.571  22.303 -0.3757 -0.5166  0.3346
  106OSM   H12S10770   1.887   0.559  22.238 -1.4692  3.0860  0.9581
  106OSM   H12T10771   1.976   0.669  22.354  2.1474 -0.9309  1.3201
  106OSM   C13S10772   1.987   0.471  22.410  0.1555  0.1728  0.2751
  106OSM   H13S10773   1.929   0.497  22.501 -0.6134  1.6621 -0.6124
  106OSM   H13T10774   2.096   0.466  22.431  0.3404  1.1239 -0.4358
  106OSM   C14S10775   1.953   0.329  22.368  0.2567  0.2155 -0.1616
  106OSM   H14S10776   2.030   0.292  22.295  0.4792 -1.3219  0.8009
  106OSM   H14T10777   1.849   0.324  22.329  0.2925  0.7054 -0.3213
  106OSM   C15S10778   1.965   0.217  22.477 -0.5250  0.4790 -1.1128
  106OSM   H15S10779   1.889   0.222  22.558  1.3811 -3.7892  1.2744
  106OSM   H15T10780   2.062   0.239  22.527 -0.3012 -0.8480 -0.9053
  106OSM   C16S10781   1.962   0.075  22.422  0.4341 -0.0981  0.9165
  106OSM   H16S10782   2.040   0.067  22.343 -2.0027 -0.4811 -1.6658
  106OSM   H16T10783   1.864   0.054  22.373 -0.1593 -2.1113  2.8331
  106OSM   C17S10784   1.993  -0.036  22.527 -0.3065 -0.1691 -0.3082
  106OSM   H17S10785   1.908  -0.040  22.598  2.4463 -1.2337  3.2246
  106OSM   H17T10786   2.086  -0.003  22.578  0.4827  0.6711 -2.2034
  106OSM   C18S10787   2.026  -0.173  22.464  0.0293 -0.1445  0.1019
  106OSM   H18S10788   2.015  -0.253  22.540  2.5320 -0.0678  0.6238
  106OSM   H18T10789   2.130  -0.179  22.427  0.4617 -0.7807  1.3766
  106OSM   H18U10790   1.960  -0.200  22.378 -0.3732  0.2534  0.2828
  106OSM    C1F10791   1.651   1.374  22.085 -1.0898  0.1438  0.1659
  106OSM     OF10792   1.597   1.409  21.978  0.4906  0.2304 -0.8166
  106OSM    C2F10793   1.589   1.280  22.185  0.3231 -0.0436  0.3350
  106OSM    H2F10794   1.622   1.304  22.289 -0.9322  2.1294  0.2943
  106OSM    H2G10795   1.607   1.175  22.155 -2.9199 -0.1124 -1.8916
  106OSM    C3F10796   1.433   1.283  22.181 -0.0573 -0.1475 -0.5360
  106OSM    H3F10797   1.401   1.266  22.076 -1.5729 -1.8077  0.1568
  106OSM    H3G10798   1.412   1.388  22.212  1.8906 -0.1197  0.9085
  106OSM    C4F10799   1.373   1.183  22.281  0.7947 -0.1262 -0.3337
  106OSM    H4F10800   1.431   1.091  22.260 -0.3178 -0.6915 -1.0481
  106OSM    H4G10801   1.268   1.175  22.243  0.1618  2.2995  0.7108
  106OSM    C5F10802   1.384   1.226  22.426 -1.1158 -0.2210 -0.0328
  106OSM    H5F10803   1.369   1.336  22.427 -1.1355 -0.1007 -3.3871
  106OSM    H5G10804   1.489   1.209  22.458 -1.0994  1.7458  1.1193
  106OSM    C6F10805   1.296   1.159  22.532 -0.7362 -0.3693 -0.1069
  106OSM    H6F10806   1.317   1.050  22.530  0.7120 -0.1179  0.3013
  106OSM    H6G10807   1.193   1.169  22.489  0.0384  1.9614 -1.5824
  106OSM    C7F10808   1.320   1.200  22.678  0.0736 -0.4710 -0.5517
  106OSM    H7F10809   1.250   1.153  22.750  0.6109 -0.3516  0.0548
  106OSM    H7G10810   1.325   1.311  22.686 -1.4703 -0.4875  1.2987
  106OSM    C8F10811   1.463   1.150  22.706  0.9506  0.2019 -0.0113
  106OSM    H8F10812   1.542   1.207  22.654  0.2508  0.9567 -0.2628
  106OSM    H8G10813   1.457   1.041  22.685  1.3303  0.0085  0.8270
  106OSM    C9F10814   1.499   1.147  22.859 -0.2221  0.2215  0.1871
  106OSM    H9F10815   1.477   1.248  22.894 -1.1802  0.4329 -0.9573
  106OSM   C10F10816   1.524   1.041  22.944  0.0952 -0.1468  0.8788
  106OSM   H10F10817   1.549   1.067  23.048 -1.4572 -1.2551  1.5683
  106OSM   C11F10818   1.545   0.902  22.898 -0.2976 -0.0469  0.4891
  106OSM   H11F10819   1.628   0.889  22.825 -1.5268  1.3193 -1.2384
  106OSM   H11G10820   1.453   0.869  22.844 -1.1113  0.9133  1.2399
  106OSM   C12F10821   1.568   0.798  23.007 -0.1453  0.4019 -0.2422
  106OSM   H12F10822   1.477   0.810  23.070  1.2235  0.2715  1.8952
  106OSM   H12G10823   1.663   0.822  23.060 -0.3896 -0.1453  0.4746
  106OSM   C13F10824   1.569   0.657  22.950 -0.4679 -0.3181 -0.1667
  106OSM   H13F10825   1.647   0.649  22.872 -0.5884 -0.4230 -0.2777
  106OSM   H13G10826   1.473   0.639  22.898 -0.6732 -0.7322  0.3393
  106OSM   C14F10827   1.582   0.545  23.053 -0.2854 -0.1289 -0.1582
  106OSM   H14F10828   1.594   0.445  23.006  1.5762  0.0465 -0.1469
  106OSM   H14G10829   1.494   0.549  23.120  0.3866  1.5095  0.7075
  106OSM   C15F10830   1.707   0.568  23.142  0.0443  0.1100 -0.7173
  106OSM   H15F10831   1.691   0.661  23.201  0.6915 -0.0597 -0.2602
  106OSM   H15G10832   1.787   0.603  23.073 -0.8527  0.5252 -1.5631
  106OSM   C16F10833   1.736   0.443  23.215  0.0726  0.3191 -0.7729
  106OSM   H16F10834   1.759   0.355  23.150  2.1327  0.0845  0.1891
  106OSM   H16G10835   1.656   0.394  23.273  1.4934 -1.0853  0.0892
  106OSM   C17F10836   1.857   0.466  23.312  0.5465  0.3810  0.2646
  106OSM   H17F10837   1.833   0.546  23.385  1.5097  0.4799  0.4856
  106OSM   H17G10838   1.942   0.510  23.256  0.7903  0.1961  0.4865
  106OSM   C18F10839   1.902   0.337  23.380 -0.6091 -0.3149 -0.2316
  106OSM   H18F10840   1.935   0.271  23.298  1.4433  1.4038 -0.8909
  106OSM   H18G10841   1.817   0.301  23.441 -0.4446  0.5870  0.5688
  106OSM   H18H10842   1.990   0.358  23.445 -0.6647 -0.4609 -0.1088
  107OSM      N10843   1.082   2.552  23.183 -0.6040  0.4601 -0.6960
  107OSM    C1510844   1.229   2.582  23.164 -0.1370  0.5211  0.3754
  107OSM   H15A10845   1.254   2.597  23.060 -1.6616  1.3232  0.0891
  107OSM   H15B10846   1.299   2.511  23.205 -0.4717 -1.8305 -2.7628
  107OSM   H15C10847   1.243   2.675  23.218  1.1580  0.4063  0.2585
  107OSM    C1410848   0.995   2.652  23.123  0.2973  0.1917 -0.1174
  107OSM   H14A10849   1.026   2.755  23.136 -0.8794  0.4311  0.9920
  107OSM   H14B10850   0.895   2.637  23.160  1.2200 -0.4112  2.3234
  107OSM   H14C10851   1.000   2.646  23.016  1.3193 -1.9711  0.0021
  107OSM    C1310852   1.047   2.430  23.115  0.6830  0.5047  0.3612
  107OSM   H13A10853   0.940   2.413  23.118  0.9964 -2.0302 -0.1466
  107OSM   H13B10854   1.098   2.345  23.159  2.2887 -0.1802 -2.5548
  107OSM   H13C10855   1.066   2.433  23.008  0.8500  0.8096  0.4021
  107OSM    C1210856   1.042   2.545  23.331  0.0434  0.1158 -0.2719
  107OSM   H12A10857   0.940   2.511  23.337  0.1611 -0.2462 -0.3107
  107OSM   H12B10858   1.039   2.643  23.378  1.8312  0.4033 -0.6762
  107OSM    C1110859   1.110   2.442  23.431  0.4085  0.3119  1.3082
  107OSM   H11A10860   1.086   2.463  23.537  0.3333  0.3037  1.2938
  107OSM   H11B10861   1.218   2.461  23.416  0.0216  1.1507 -0.7462
  107OSM      P10862   0.950   2.248  23.454  0.0028 -0.2165  0.3320
  107OSM    O1310863   0.839   2.334  23.416 -0.2686  0.1549 -0.0257
  107OSM    O1410864   0.944   2.106  23.414 -0.4977 -0.0178  0.3422
  107OSM    O1110865   0.968   2.263  23.609  0.3788  0.2860 -0.3617
  107OSM    O1210866   1.081   2.301  23.395 -0.6225 -0.2458 -0.4062
  107OSM    C1S10867   1.093   2.215  23.668  0.3695 -0.1147 -0.0313
  107OSM    H1S10868   1.184   2.267  23.631  2.5239 -1.3267  3.0968
  107OSM    H1T10869   1.100   2.107  23.640 -1.4405 -0.4630  0.7588
  107OSM     NF10870   1.212   2.176  23.889  1.2903 -0.4079  0.8146
  107OSM    HNF10871   1.196   2.107  23.960 -1.6621 -0.9295 -0.2279
  107OSM    C2S10872   1.087   2.229  23.820 -0.1643  0.5613 -0.3498
  107OSM    H2S10873   1.086   2.339  23.834  2.4167  0.5309  0.5730
  107OSM    C3S10874   0.953   2.169  23.881 -0.3207 -0.1102 -0.3528
  107OSM    H3S10875   0.957   2.058  23.879 -1.4562 -0.2408  1.7227
  107OSM     O310876   0.830   2.207  23.821 -0.4281 -0.0123 -0.4024
  107OSM    HO310877   0.849   2.225  23.728  0.4076  1.0422 -0.0480
  107OSM    C4S10878   0.964   2.206  24.033 -0.0065 -0.1145 -0.2892
  107OSM    H4S10879   1.008   2.124  24.092 -1.8057 -1.2061 -0.3853
  107OSM    C5S10880   0.914   2.319  24.095  0.1314 -0.8054 -0.5640
  107OSM    H5S10881   0.864   2.394  24.032 -2.8599 -1.1819  1.1666
  107OSM    C6S10882   0.920   2.350  24.238 -0.0942 -0.4063  0.8241
  107OSM    H6S10883   0.921   2.261  24.304 -0.9427 -2.3038 -1.5701
  107OSM    H6T10884   0.828   2.405  24.265  0.4011 -0.6183  3.1341
  107OSM    C7S10885   1.047   2.427  24.264 -1.2172 -0.2267  0.2778
  107OSM    H7S10886   1.130   2.361  24.229 -0.4951  0.8378 -0.0533
  107OSM    H7T10887   1.071   2.454  24.370 -1.6599 -0.3290  0.4072
  107OSM    C8S10888   1.055   2.552  24.183  0.3258  0.3317  0.2303
  107OSM    H8S10889   0.960   2.610  24.189 -0.8856 -0.8551 -3.9273
  107OSM    H8T10890   1.049   2.518  24.077  1.4647 -1.7230  0.7790
  107OSM    C9S10891   1.165   2.644  24.210  0.0878  0.0683  0.3195
  107OSM    H9S10892   1.161   2.735  24.147  2.3941 -0.4109 -0.5962
  107OSM    H9T10893   1.262   2.594  24.190 -0.3179 -1.1650  1.2991
  107OSM   C10S10894   1.165   2.702  24.359 -0.5024  0.0882  0.3785
  107OSM   H10S10895   1.255   2.766  24.373 -0.9552  0.6012  1.0235
  107OSM   H10T10896   1.194   2.617  24.424 -1.3385 -0.9136 -0.5277
  107OSM   C11S10897   1.044   2.769  24.423  0.4553  0.4632 -0.6909
  107OSM   H11S10898   0.968   2.696  24.458 -0.2331  1.7146  0.5305
  107OSM   H11T10899   1.001   2.833  24.343  0.7516  0.7050 -0.6589
  107OSM   C12S10900   1.077   2.851  24.545  0.7411 -0.4508 -0.1000
  107OSM   H12S10901   0.977   2.877  24.585  0.2196 -2.4402  0.0284
  107OSM   H12T10902   1.140   2.938  24.520  0.8115 -1.5010 -4.4254
  107OSM   C13S10903   1.146   2.768  24.654  0.2913 -0.0752 -0.2665
  107OSM   H13S10904   1.243   2.728  24.618  0.2953 -0.7384  0.4447
  107OSM   H13T10905   1.068   2.690  24.668  0.6569 -0.4885 -0.5372
  107OSM   C14S10906   1.165   2.848  24.784 -0.3690  0.5594 -0.3652
  107OSM   H14S10907   1.061   2.884  24.802 -0.3044 -1.0195  4.4753
  107OSM   H14T10908   1.236   2.932  24.764 -0.4971  0.5809 -0.7363
  107OSM   C15S10909   1.208   2.762  24.903 -0.1899 -0.3633 -0.2502
  107OSM   H15S10910   1.316   2.766  24.930  0.2912  2.2961 -2.1342
  107OSM   H15T10911   1.170   2.660  24.879 -0.4771 -0.4307  0.4717
  107OSM   C16S10912   1.133   2.807  25.030  0.3665  0.9106 -0.0869
  107OSM   H16S10913   1.033   2.842  24.996  1.1886  3.0094 -0.4581
  107OSM   H16T10914   1.181   2.897  25.073 -0.3514 -0.1704  3.2374
  107OSM   C17S10915   1.141   2.699  25.142 -0.0476  0.2716  0.7152
  107OSM   H17S10916   1.251   2.698  25.155  0.6696  0.9934 -3.7181
  107OSM   H17T10917   1.112   2.603  25.093  0.0318  0.4061  0.3995
  107OSM   C18S10918   1.081   2.730  25.277  0.2903 -0.0347  1.1215
  107OSM   H18S10919   1.133   2.666  25.352  0.2211 -1.4209  0.0308
  107OSM   H18T10920   0.978   2.690  25.280  0.9457 -2.0835 -0.9187
  107OSM   H18U10921   1.098   2.839  25.291  0.9754 -0.0856  0.7791
  107OSM    C1F10922   1.335   2.231  23.873 -0.9715  0.2435 -0.3676
  107OSM     OF10923   1.358   2.340  23.832  0.3019 -0.4226 -0.2270
  107OSM    C2F10924   1.448   2.144  23.926 -0.4021 -0.6255  0.3192
  107OSM    H2F10925   1.434   2.035  23.907  2.0729 -0.7669 -1.1927
  107OSM    H2G10926   1.455   2.152  24.037 -1.9219  0.5872  0.3590
  107OSM    C3F10927   1.587   2.194  23.859 -0.0400 -0.2414 -0.8038
  107OSM    H3F10928   1.602   2.302  23.880  0.7778 -0.0015 -2.4731
  107OSM    H3G10929   1.582   2.174  23.750  1.2036 -1.7151 -0.6188
  107OSM    C4F10930   1.709   2.132  23.920 -0.1864  0.4062  0.1924
  107OSM    H4F10931   1.714   2.021  23.923 -0.0448  0.3675 -0.9847
  107OSM    H4G10932   1.716   2.167  24.025 -1.4396  0.0131  0.4316
  107OSM    C5F10933   1.829   2.176  23.841  0.3288 -0.1796 -0.3132
  107OSM    H5F10934   1.840   2.282  23.870 -3.0015  0.0083  0.6149
  107OSM    H5G10935   1.801   2.169  23.733 -0.4556  0.0829 -0.1319
  107OSM    C6F10936   1.961   2.108  23.874  0.6792  0.0443 -0.2561
  107OSM    H6F10937   1.954   2.001  23.846  1.4979 -0.7559  2.3045
  107OSM    H6G10938   1.958   2.118  23.985 -0.2863  2.7342 -0.4294
  107OSM    C7F10939   2.077   2.185  23.811  0.4880  0.3368  0.2115
  107OSM    H7F10940   2.053   2.293  23.816 -1.2944 -0.0343  0.6258
  107OSM    H7G10941   2.073   2.163  23.702 -1.4664 -1.9478  0.6439
  107OSM    C8F10942   2.213   2.160  23.868  0.0235 -0.3456 -0.0678
  107OSM    H8F10943   2.257   2.066  23.828 -4.8908 -3.2363  0.4996
  107OSM    H8G10944   2.200   2.147  23.978 -0.8181 -0.8937 -0.2203
  107OSM    C9F10945   2.303   2.277  23.838  0.2491  0.5409  0.7497
  107OSM    H9F10946   2.308   2.303  23.731 -2.2487  1.2311  0.7327
  107OSM   C10F10947   2.362   2.356  23.926  0.0499 -0.0285 -0.0126
  107OSM   H10F10948   2.444   2.425  23.900  0.8851 -1.2542 -0.7138
  107OSM   C11F10949   2.330   2.354  24.075 -0.2934 -0.2401  0.1089
  107OSM   H11F10950   2.285   2.262  24.118  0.1976 -0.2429  0.6381
  107OSM   H11G10951   2.257   2.431  24.108  0.3798  0.0627  0.9514
  107OSM   C12F10952   2.450   2.372  24.168 -0.5704 -0.8309 -0.1986
  107OSM   H12F10953   2.485   2.474  24.143  0.1298 -0.8973  0.4798
  107OSM   H12G10954   2.526   2.293  24.147  0.3255  0.1492 -0.7267
  107OSM   C13F10955   2.412   2.360  24.316 -0.3296  0.6479  0.1748
  107OSM   H13F10956   2.383   2.255  24.338 -0.1654  0.1402 -1.8634
  107OSM   H13G10957   2.332   2.435  24.337  1.0167  2.3331 -0.4745
  107OSM   C14F10958   2.524   2.382  24.419 -0.0942  0.0378  0.0571
  107OSM   H14F10959   2.489   2.352  24.521 -0.3805 -1.1573 -0.3730
  107OSM   H14G10960   2.547   2.490  24.407 -2.2288  0.3010 -2.7492
  107OSM   C15F10961   2.649   2.301  24.382 -0.4994  0.5321  0.6019
  107OSM   H15F10962   2.670   2.321  24.275 -2.4990  1.7170  0.3742
  107OSM   H15G10963   2.625   2.194  24.395  0.3978  0.0915 -1.1363
  107OSM   C16F10964   2.776   2.343  24.460 -0.1983 -0.2754 -0.1874
  107OSM   H16F10965   2.799   2.448  24.434  0.5511 -0.0299  1.3466
  107OSM   H16G10966   2.848   2.266  24.424 -1.4462 -1.7672  0.3687
  107OSM   C17F10967   2.764   2.331  24.609  0.2689  1.2405 -0.4742
  107OSM   H17F10968   2.721   2.231  24.630  2.4061  0.5713  1.0989
  107OSM   H17G10969   2.688   2.406  24.638  1.7408  2.3586  0.6546
  107OSM   C18F10970   2.892   2.356  24.695  1.0459 -0.9305  0.2704
  107OSM   H18F10971   2.984   2.341  24.635  1.3154  3.0084 -0.6109
  107OSM   H18G10972   2.892   2.290  24.784  1.7928 -1.3180 -0.0072
  107OSM   H18H10973   2.890   2.465  24.717  0.4424 -1.0483  0.8327
  108OSM      N10974   2.179   2.256  22.804 -0.3801  0.0752  0.5994
  108OSM    C1510975   2.194   2.371  22.707 -0.3079 -0.0426  1.2877
  108OSM   H15A10976   2.201   2.467  22.755  1.5615  0.8940 -0.6728
  108OSM   H15B10977   2.127   2.374  22.622  0.3280  1.0915  0.8058
  108OSM   H15C10978   2.292   2.362  22.660 -0.1844  0.4294  1.4539
  108OSM    C1410979   2.146   2.128  22.735 -0.1121  0.5043 -0.1293
  108OSM   H14A10980   2.075   2.155  22.658  0.0134  1.7581  0.1741
  108OSM   H14B10981   2.099   2.052  22.795 -0.8702  0.8429 -0.2791
  108OSM   H14C10982   2.235   2.082  22.696 -0.5378 -0.2365 -0.2399
  108OSM    C1310983   2.311   2.242  22.885  0.1337  0.4276  0.1200
  108OSM   H13A10984   2.336   2.335  22.932  0.1017  0.0253  0.9511
  108OSM   H13B10985   2.394   2.212  22.822  0.0974 -1.1725  0.7803
  108OSM   H13C10986   2.306   2.151  22.943  0.3218 -1.1459 -2.1784
  108OSM    C1210987   2.069   2.287  22.909 -0.2898  0.4429  0.8228
  108OSM   H12A10988   2.107   2.336  22.998  1.1692 -1.2132  1.1636
  108OSM   H12B10989   2.053   2.189  22.952 -0.4085  0.1574  0.1469
  108OSM    C1110990   1.939   2.334  22.854 -0.2700 -0.1565 -0.2322
  108OSM   H11A10991   1.908   2.285  22.759 -1.8578 -0.6899  0.5263
  108OSM   H11B10992   1.946   2.444  22.844 -1.9112  0.0990  0.9369
  108OSM      P10993   1.790   2.165  22.991  0.0499 -0.2029  0.1531
  108OSM    O1310994   1.650   2.181  23.048 -0.5928 -0.1275 -0.3769
  108OSM    O1410995   1.806   2.072  22.878 -0.3375 -0.0592 -0.4067
  108OSM    O1110996   1.887   2.125  23.106 -0.4045  0.6658  0.4116
  108OSM    O1210997   1.843   2.311  22.951 -0.0892 -0.2394 -0.7608
  108OSM    C1S10998   1.895   2.225  23.210 -0.1448  0.0370 -0.1881
  108OSM    H1S10999   1.794   2.239  23.253  0.7231  1.8410  1.3538
  108OSM    H1T11000   1.933   2.322  23.171 -0.3132  0.4568  0.6805
  108OSM     NF11001   1.999   2.280  23.434  0.0830  0.3171 -0.3155
  108OSM    HNF11002   2.085   2.330  23.423  0.0227  0.5505  0.2025
  108OSM    C2S11003   1.986   2.181  23.327 -0.2728  0.7284 -0.2657
  108OSM    H2S11004   1.932   2.095  23.372 -2.5984  3.1915  2.0210
  108OSM    C3S11005   2.129   2.144  23.267  0.5576  0.6139  0.4282
  108OSM    H3S11006   2.181   2.240  23.248  1.6219  0.1991  1.1601
  108OSM     O311007   2.126   2.062  23.142 -0.2285 -0.5927 -0.3743
  108OSM    HO311008   2.032   2.060  23.121 -0.7330 -0.8104  1.7256
  108OSM    C4S11009   2.205   2.079  23.376 -0.3117  0.3587 -0.5146
  108OSM    H4S11010   2.276   2.144  23.429 -0.2897 -0.0633 -0.0214
  108OSM    C5S11011   2.193   1.951  23.419  1.0279  0.0276  0.1745
  108OSM    H5S11012   2.122   1.881  23.372  0.9587 -0.8515  1.5254
  108OSM    C6S11013   2.247   1.905  23.553  0.5580  0.2182 -0.5979
  108OSM    H6S11014   2.304   1.976  23.617 -0.1838  0.4677 -0.2055
  108OSM    H6T11015   2.309   1.819  23.521 -2.3521 -1.5110 -2.0479
  108OSM    C7S11016   2.143   1.830  23.638 -0.1103  0.3091 -0.9310
  108OSM    H7S11017   2.102   1.745  23.580  0.4157 -0.4883 -0.1630
  108OSM    H7T11018   2.055   1.896  23.653  1.3478  2.3580 -0.9018
  108OSM    C8S11019   2.199   1.771  23.778  0.3994 -0.2845  0.0560
  108OSM    H8S11020   2.274   1.846  23.812 -0.1058 -0.0431  0.6756
  108OSM    H8T11021   2.235   1.667  23.765  0.4258 -0.2455 -0.1821
  108OSM    C9S11022   2.103   1.758  23.892  0.0335  0.6552 -0.2451
  108OSM    H9S11023   2.017   1.701  23.850  0.6538  1.8444 -3.4177
  108OSM    H9T11024   2.058   1.852  23.930 -0.2598  0.0367  0.9954
  108OSM   C10S11025   2.157   1.691  24.016  0.2582 -0.0525 -1.0687
  108OSM   H10S11026   2.263   1.718  24.038  0.8940 -1.7616 -1.8012
  108OSM   H10T11027   2.160   1.580  24.011  1.6860 -0.0775 -0.2608
  108OSM   C11S11028   2.086   1.726  24.150  0.3781  0.4046  0.0531
  108OSM   H11S11029   2.109   1.657  24.233  0.3369 -1.7335 -1.6177
  108OSM   H11T11030   1.976   1.731  24.136  0.2112  1.9628  1.5846
  108OSM   C12S11031   2.114   1.873  24.198  0.5438  1.1351 -0.2978
  108OSM   H12S11032   2.079   1.947  24.124  1.7155 -0.2075 -2.2979
  108OSM   H12T11033   2.225   1.881  24.199  0.5930  0.8003 -1.7194
  108OSM   C13S11034   2.065   1.871  24.347  0.2347 -0.1735 -1.0146
  108OSM   H13S11035   2.129   1.807  24.411  0.2056  1.1590  0.4122
  108OSM   H13T11036   1.970   1.815  24.350  1.8951 -3.2999 -1.9838
  108OSM   C14S11037   2.051   2.012  24.407  0.4745  0.5853  0.4364
  108OSM   H14S11038   1.999   2.082  24.338 -0.8308 -2.3176 -1.7280
  108OSM   H14T11039   2.153   2.052  24.427  0.5283  0.0264  1.3291
  108OSM   C15S11040   1.974   2.012  24.538 -0.0688  0.4750 -0.1497
  108OSM   H15S11041   1.968   2.113  24.583  0.5208  0.4097  0.0899
  108OSM   H15T11042   2.025   1.946  24.612  2.8020  1.2860 -1.2756
  108OSM   C16S11043   1.830   1.973  24.498 -0.5249  0.4565  0.2527
  108OSM   H16S11044   1.823   1.863  24.481 -0.9538  0.4835  0.2581
  108OSM   H16T11045   1.788   2.030  24.412 -0.2880 -1.7602 -1.4436
  108OSM   C17S11046   1.727   2.020  24.604  0.3140 -0.5459 -0.0130
  108OSM   H17S11047   1.743   2.127  24.629  0.1153 -0.9416  1.9762
  108OSM   H17T11048   1.756   1.978  24.702 -2.4320  1.1697  1.6828
  108OSM   C18S11049   1.587   2.001  24.567 -0.6313 -0.3061 -0.3469
  108OSM   H18S11050   1.520   2.045  24.644  0.4549  0.2671  0.2972
  108OSM   H18T11051   1.574   1.891  24.565 -0.2371 -0.4365  1.9279
  108OSM   H18U11052   1.567   2.041  24.465 -0.1847  0.2825 -0.2075
  108OSM    C1F11053   1.896   2.329  23.503 -0.4660 -0.0651  0.5482
  108OSM     OF11054   1.791   2.268  23.485  0.4402 -0.5281  0.0726
  108OSM    C2F11055   1.920   2.456  23.582 -0.2689 -0.1355 -0.0311
  108OSM    H2F11056   1.985   2.518  23.516  1.2661 -0.6921  0.9128
  108OSM    H2G11057   1.994   2.424  23.658 -0.6911 -0.3658  0.2805
  108OSM    C3F11058   1.798   2.529  23.631 -0.0770 -0.4353 -0.1931
  108OSM    H3F11059   1.721   2.468  23.682  0.2152 -1.4679 -0.9557
  108OSM    H3G11060   1.749   2.572  23.541  1.5034 -2.0475 -1.8946
  108OSM    C4F11061   1.833   2.646  23.723  0.4202 -0.2131 -0.4655
  108OSM    H4F11062   1.917   2.709  23.690  0.6718  1.5771  3.0705
  108OSM    H4G11063   1.871   2.603  23.819 -0.5847  1.8491  0.9365
  108OSM    C5F11064   1.719   2.743  23.758  0.0345 -0.3743  0.2854
  108OSM    H5F11065   1.647   2.743  23.674  3.3887 -0.0486 -2.8183
  108OSM    H5G11066   1.769   2.842  23.768 -0.0257 -0.2510 -0.5846
  108OSM    C6F11067   1.634   2.721  23.889  0.0090  0.4675 -0.1727
  108OSM    H6F11068   1.699   2.750  23.974 -0.7687  1.1818  0.1941
  108OSM    H6G11069   1.606   2.614  23.902 -1.3565  1.0536  2.3746
  108OSM    C7F11070   1.499   2.798  23.881  0.1703  0.0474  0.2919
  108OSM    H7F11071   1.433   2.751  23.956  0.8269 -1.8725 -0.2677
  108OSM    H7G11072   1.459   2.774  23.780  0.0660 -0.3455  0.4260
  108OSM    C8F11073   1.504   2.950  23.889  0.4436 -0.2376 -0.2889
  108OSM    H8F11074   1.556   2.984  23.797 -0.0451 -0.0548 -0.4992
  108OSM    H8G11075   1.559   2.986  23.978 -0.6079 -1.5859  0.9643
  108OSM    C9F11076   1.365   3.011  23.884 -0.1269 -0.7305 -0.5890
  108OSM    H9F11077   1.312   2.991  23.789 -1.7115  0.4441  0.0004
  108OSM   C10F11078   1.299   3.071  23.989 -0.5203 -0.4775  0.5989
  108OSM   H10F11079   1.203   3.120  23.970  0.3461  1.0190 -0.1083
  108OSM   C11F11080   1.354   3.101  24.128  0.4296  0.0489 -0.0216
  108OSM   H11F11081   1.427   3.027  24.167  1.2745  1.8402  1.9957
  108OSM   H11G11082   1.270   3.101  24.201 -2.7955  1.3876 -3.4112
  108OSM   C12F11083   1.417   3.240  24.131 -0.3939  0.4560  0.2593
  108OSM   H12F11084   1.467   3.261  24.034 -2.8651  1.5424 -0.8704
  108OSM   H12G11085   1.493   3.240  24.212 -1.2999  2.0707  1.1660
  108OSM   C13F11086   1.316   3.344  24.169  0.0761 -0.6742  0.4368
  108OSM   H13F11087   1.266   3.310  24.262  1.5706 -0.8618  1.2081
  108OSM   H13G11088   1.240   3.368  24.091  1.0969 -1.2015 -0.7499
  108OSM   C14F11089   1.380   3.484  24.188 -0.4348 -0.0871  0.6505
  108OSM   H14F11090   1.465   3.489  24.118 -1.7230 -0.5505 -1.0208
  108OSM   H14G11091   1.430   3.483  24.288  0.6395  1.1716  0.1383
  108OSM   C15F11092   1.272   3.589  24.173  0.1195 -0.3251  0.1264
  108OSM   H15F11093   1.183   3.568  24.235  0.3198  1.4193  1.0642
  108OSM   H15G11094   1.239   3.591  24.067 -1.7561 -3.1610  0.5717
  108OSM   C16F11095   1.313   3.738  24.215 -0.1946  0.2710  0.2254
  108OSM   H16F11096   1.356   3.728  24.317  0.5159 -1.4892 -0.2209
  108OSM   H16G11097   1.225   3.805  24.226  0.1017  0.8835 -0.9908
  108OSM   C17F11098   1.419   3.787  24.114 -0.3844  0.1567  0.2540
  108OSM   H17F11099   1.374   3.787  24.012  2.2481  1.9524 -1.0307
  108OSM   H17G11100   1.515   3.731  24.104  0.5395  1.7765 -0.3323
  108OSM   C18F11101   1.454   3.932  24.131  0.1000 -0.7793 -0.3620
  108OSM   H18F11102   1.482   3.954  24.236 -1.8322 -0.2918  0.0895
  108OSM   H18G11103   1.363   3.996  24.139 -0.8816 -2.0130 -1.2731
  108OSM   H18H11104   1.523   3.964  24.049 -0.4391  0.6977 -0.2741
  109OSM      N11105   2.713   1.936  20.379  0.1147  0.9644 -0.4385
  109OSM    C1511106   2.671   1.937  20.521 -0.1333  0.5129  0.2165
  109OSM   H15A11107   2.754   1.950  20.589 -0.6877 -0.5384  1.1306
  109OSM   H15B11108   2.632   1.838  20.539 -0.1684  0.5389  0.2843
  109OSM   H15C11109   2.591   2.008  20.538 -0.5891  0.2144 -0.6369
  109OSM    C1411110   2.593   1.936  20.292  0.4315 -0.0550 -0.0663
  109OSM   H14A11111   2.521   2.013  20.315 -2.4418 -1.6758 -2.7965
  109OSM   H14B11112   2.548   1.838  20.305  1.3779 -0.4315  0.4578
  109OSM   H14C11113   2.620   1.943  20.188 -1.1304 -0.5053 -0.5363
  109OSM    C1311114   2.786   2.058  20.335  0.3321 -0.3791  0.8027
  109OSM   H13A11115   2.742   2.153  20.360  2.8724  0.9726  0.3826
  109OSM   H13B11116   2.820   2.049  20.233 -1.5030 -0.3352  0.1380
  109OSM   H13C11117   2.875   2.068  20.395 -0.5188  0.4400  1.9888
  109OSM    C1211118   2.795   1.814  20.351  0.1978 -0.2636  0.3534
  109OSM   H12A11119   2.894   1.822  20.392  0.2193 -2.2309  0.7742
  109OSM   H12B11120   2.816   1.805  20.245  0.3248 -3.0908  0.5493
  109OSM    C1111121   2.746   1.674  20.396 -0.4178  0.6216  0.4807
  109OSM   H11A11122   2.725   1.670  20.505 -1.7884 -0.0279  0.2251
  109OSM   H11B11123   2.825   1.602  20.366  0.8525  1.1577  2.3877
  109OSM      P11124   2.490   1.607  20.388 -0.0195 -0.6488 -0.6311
  109OSM    O1311125   2.462   1.688  20.508  0.1448 -0.5349 -0.0866
  109OSM    O1411126   2.383   1.613  20.286 -0.5421  0.3157 -0.5166
  109OSM    O1111127   2.514   1.460  20.435  0.1903 -0.1932 -0.4640
  109OSM    O1211128   2.625   1.647  20.328 -0.0961  0.0073  0.2524
  109OSM    C1S11129   2.568   1.368  20.342  0.5583  0.2092 -0.6809
  109OSM    H1S11130   2.671   1.386  20.306  0.5589  0.8175 -0.3990
  109OSM    H1T11131   2.501   1.362  20.254 -1.2197  2.1709  0.4264
  109OSM     NF11132   2.626   1.139  20.302  0.4676  0.4612  0.0131
  109OSM    HNF11133   2.561   1.098  20.240  2.0464 -0.9515 -0.7675
  109OSM    C2S11134   2.559   1.220  20.395 -0.2255  0.4624 -0.1428
  109OSM    H2S11135   2.620   1.211  20.487  1.1593 -0.4387 -1.1042
  109OSM    C3S11136   2.416   1.180  20.435  0.2517 -0.3074 -1.0437
  109OSM    H3S11137   2.334   1.191  20.362 -1.9097 -1.2714  1.1036
  109OSM     O311138   2.373   1.257  20.548  0.0707 -0.2549 -0.0112
  109OSM    HO311139   2.435   1.330  20.551 -0.5226  0.2877 -0.6275
  109OSM    C4S11140   2.424   1.033  20.469  0.2054 -0.2166 -0.0141
  109OSM    H4S11141   2.413   0.974  20.377 -0.2877 -1.7508  0.9810
  109OSM    C5S11142   2.451   0.976  20.592 -0.4944  0.3595  1.0673
  109OSM    H5S11143   2.470   1.045  20.675 -2.0427  1.9700  0.1587
  109OSM    C6S11144   2.463   0.827  20.610  0.0308 -0.1621 -0.1660
  109OSM    H6S11145   2.389   0.802  20.690  0.0944 -0.8398 -0.3176
  109OSM    H6T11146   2.566   0.806  20.647  0.2455  2.4871  0.9860
  109OSM    C7S11147   2.419   0.741  20.491 -0.4160  0.0011 -0.3361
  109OSM    H7S11148   2.503   0.745  20.418  1.0185  0.9358  1.2786
  109OSM    H7T11149   2.328   0.786  20.445 -1.3152 -1.7930 -0.3853
  109OSM    C8S11150   2.391   0.591  20.526 -0.1695  0.5516  0.9494
  109OSM    H8S11151   2.373   0.547  20.425  1.1888 -0.6424  1.2003
  109OSM    H8T11152   2.300   0.580  20.589  0.7189  0.6465  2.2918
  109OSM    C9S11153   2.513   0.524  20.593  0.4614  0.0675 -0.0026
  109OSM    H9S11154   2.525   0.540  20.703 -1.5668 -1.7304  0.5540
  109OSM    H9T11155   2.604   0.559  20.540  1.2059 -1.7372  0.0210
  109OSM   C10S11156   2.505   0.371  20.568 -0.4279  0.3547 -0.6720
  109OSM   H10S11157   2.605   0.325  20.584 -1.3875 -1.2069  1.5219
  109OSM   H10T11158   2.457   0.346  20.471 -0.6424  1.2269 -0.7968
  109OSM   C11S11159   2.433   0.287  20.679  0.3158 -0.8748 -0.4551
  109OSM   H11S11160   2.326   0.309  20.696  0.6031 -1.2256  2.2886
  109OSM   H11T11161   2.488   0.308  20.774 -0.5717  0.6841 -0.2545
  109OSM   C12S11162   2.443   0.133  20.655 -0.0067 -0.4429 -0.2158
  109OSM   H12S11163   2.419   0.117  20.548 -4.9676  1.0788  0.4384
  109OSM   H12T11164   2.368   0.084  20.720 -0.7468 -0.9059 -1.3890
  109OSM   C13S11165   2.590   0.084  20.688 -0.3327  0.0740 -0.4421
  109OSM   H13S11166   2.625   0.128  20.784 -0.7689 -2.1038  0.7904
  109OSM   H13T11167   2.648   0.107  20.596 -1.4969 -1.0602 -1.4910
  109OSM   C14S11168   2.592  -0.069  20.711 -0.6671  0.8662  0.3986
  109OSM   H14S11169   2.692  -0.112  20.688 -1.0566  1.2704 -2.3318
  109OSM   H14T11170   2.527  -0.102  20.627  1.6129  1.7310 -1.8461
  109OSM   C15S11171   2.542  -0.121  20.839 -0.1650 -0.1070 -0.0470
  109OSM   H15S11172   2.438  -0.091  20.866  0.2869  0.5827  0.9836
  109OSM   H15T11173   2.611  -0.074  20.912 -0.8968  0.1679  0.4800
  109OSM   C16S11174   2.552  -0.278  20.856  0.4250  0.8136 -0.1065
  109OSM   H16S11175   2.656  -0.316  20.855  0.0654 -0.1996 -0.8099
  109OSM   H16T11176   2.493  -0.333  20.779 -1.0347  1.7121  0.3263
  109OSM   C17S11177   2.496  -0.317  20.995 -0.5913  0.0100  0.5240
  109OSM   H17S11178   2.548  -0.265  21.077  1.2002 -0.1364 -0.4570
  109OSM   H17T11179   2.524  -0.423  21.015 -1.1765 -0.0157  1.2138
  109OSM   C18S11180   2.350  -0.287  21.023 -0.7714  0.0385  0.2079
  109OSM   H18S11181   2.287  -0.285  20.931  2.7560  0.4504 -2.4286
  109OSM   H18T11182   2.346  -0.184  21.065  0.9777 -0.3970  1.5289
  109OSM   H18U11183   2.306  -0.364  21.089  1.6228 -1.5535  0.0716
  109OSM    C1F11184   2.758   1.125  20.291 -0.2523  0.5273  0.1791
  109OSM     OF11185   2.834   1.146  20.391 -0.3487 -0.4504  0.1130
  109OSM    C2F11186   2.810   1.100  20.153 -0.3871 -0.9962  0.0168
  109OSM    H2F11187   2.841   1.194  20.101 -1.1294 -0.4842  0.4793
  109OSM    H2G11188   2.727   1.052  20.097  0.3359 -1.4157 -0.7277
  109OSM    C3F11189   2.937   1.015  20.165 -0.2198  0.6481 -0.1542
  109OSM    H3F11190   2.919   0.914  20.208 -2.4782  0.9041 -0.3954
  109OSM    H3G11191   3.021   1.062  20.220 -0.1274 -0.0898  0.3436
  109OSM    C4F11192   2.984   0.977  20.026  0.2111  0.3673 -0.4356
  109OSM    H4F11193   2.994   1.072  19.969  0.2839  0.8342  0.3438
  109OSM    H4G11194   2.908   0.913  19.975 -1.8459  2.4223 -0.1068
  109OSM    C5F11195   3.112   0.906  20.036 -0.1223  0.3429  0.2253
  109OSM    H5F11196   3.163   0.932  20.131  2.2433 -1.5892 -0.4033
  109OSM    H5G11197   3.176   0.922  19.946  0.5998 -0.7434  0.5211
  109OSM    C6F11198   3.099   0.759  20.039  0.2990  0.3471 -0.9711
  109OSM    H6F11199   3.008   0.730  20.096 -0.5678 -0.0945 -2.4961
  109OSM    H6G11200   3.187   0.720  20.093 -1.5020  0.0584  1.9964
  109OSM    C7F11201   3.100   0.704  19.891  0.8801  0.4801 -0.4717
  109OSM    H7F11202   3.180   0.756  19.833 -0.4491  0.9231 -1.9836
  109OSM    H7G11203   2.999   0.725  19.851 -0.1653 -2.4825  0.3043
  109OSM    C8F11204   3.126   0.552  19.893 -0.5743 -0.3086  0.5279
  109OSM    H8F11205   3.072   0.497  19.973 -1.0177 -1.6735 -0.6681
  109OSM    H8G11206   3.236   0.540  19.905 -0.6493 -1.0556  0.5582
  109OSM    C9F11207   3.088   0.492  19.756 -0.3820  0.7810  0.1973
  109OSM    H9F11208   3.114   0.562  19.674  0.8476 -0.8013 -0.8244
  109OSM   C10F11209   3.007   0.390  19.722 -0.0315 -0.1771  0.4014
  109OSM   H10F11210   2.981   0.375  19.616 -2.1419  1.4333  0.6090
  109OSM   C11F11211   2.942   0.291  19.810  0.2414  0.0097 -0.0697
  109OSM   H11F11212   2.839   0.269  19.776 -0.6758  1.7213  1.4849
  109OSM   H11G11213   2.928   0.330  19.912 -2.5212  0.3789 -0.5196
  109OSM   C12F11214   3.008   0.151  19.839 -0.0990  0.5023  0.1740
  109OSM   H12F11215   2.952   0.081  19.904  1.4367  0.6097  1.6692
  109OSM   H12G11216   3.102   0.159  19.898  2.0241 -2.0223 -2.5329
  109OSM   C13F11217   3.053   0.081  19.710 -0.2694  0.2718  0.0774
  109OSM   H13F11218   3.127   0.136  19.649  2.9024 -2.7190  0.8878
  109OSM   H13G11219   2.958   0.058  19.657 -0.2260 -2.9041  1.1574
  109OSM   C14F11220   3.128  -0.050  19.745  0.7014  0.3609  0.3815
  109OSM   H14F11221   3.057  -0.107  19.809  0.6582  2.2273  2.1088
  109OSM   H14G11222   3.224  -0.044  19.801  1.2507 -1.4483 -0.3240
  109OSM   C15F11223   3.131  -0.143  19.618 -0.4692  0.2401 -0.5485
  109OSM   H15F11224   3.169  -0.087  19.530 -1.7368 -0.8074 -1.8138
  109OSM   H15G11225   3.029  -0.179  19.592 -0.6593  0.0203  0.4803
  109OSM   C16F11226   3.224  -0.272  19.649 -0.2695 -0.4345 -0.0940
  109OSM   H16F11227   3.203  -0.310  19.751 -0.3915 -0.8228 -0.2627
  109OSM   H16G11228   3.329  -0.241  19.634 -0.1348 -0.3379  0.9902
  109OSM   C17F11229   3.207  -0.398  19.554 -0.1114  0.3824 -0.5732
  109OSM   H17F11230   3.296  -0.463  19.563  1.9247  2.8463 -1.7130
  109OSM   H17G11231   3.207  -0.357  19.450 -0.3909  0.5687 -0.5022
  109OSM   C18F11232   3.075  -0.480  19.564  0.1274  0.0921  0.7015
  109OSM   H18F11233   2.990  -0.410  19.581 -1.2783 -1.7699  1.9143
  109OSM   H18G11234   3.083  -0.531  19.663  0.4744 -1.0910  0.0861
  109OSM   H18H11235   3.051  -0.561  19.492  0.6687 -0.5396  1.2122
  110OSM      N11236   0.477   2.206  23.491  0.3370 -0.2205  0.4127
  110OSM    C1511237   0.372   2.220  23.597 -0.3931  0.0683  0.2227
  110OSM   H15A11238   0.276   2.194  23.556 -0.9349  1.2382  0.6972
  110OSM   H15B11239   0.360   2.326  23.617 -0.0747  0.6270 -2.2463
  110OSM   H15C11240   0.388   2.166  23.689  0.8489  0.7714  0.4353
  110OSM    C1411241   0.616   2.215  23.542 -0.1034  0.2239 -0.4896
  110OSM   H14A11242   0.689   2.248  23.470 -0.1320  2.6250  0.4780
  110OSM   H14B11243   0.655   2.128  23.594 -0.5312 -0.2059 -0.8791
  110OSM   H14C11244   0.617   2.290  23.619  1.4115  1.6262 -1.8000
  110OSM    C1311245   0.454   2.075  23.410  0.0709 -0.1722 -0.0637
  110OSM   H13A11246   0.543   2.053  23.353  0.0341  0.2543 -0.2890
  110OSM   H13B11247   0.377   2.084  23.334  0.2466 -2.0171 -0.5158
  110OSM   H13C11248   0.431   1.994  23.478  1.4714 -0.4238  0.1401
  110OSM    C1211249   0.464   2.313  23.387  1.1011  0.3748  0.2714
  110OSM   H12A11250   0.533   2.280  23.311  1.1566  1.1913 -0.0457
  110OSM   H12B11251   0.504   2.407  23.424  1.3139 -0.3295  1.9331
  110OSM    C1111252   0.321   2.336  23.321 -0.0799 -0.5175  0.0706
  110OSM   H11A11253   0.323   2.423  23.252  0.4366  0.1282  0.8816
  110OSM   H11B11254   0.242   2.359  23.396 -0.4310  1.3323 -0.7980
  110OSM      P11255   0.272   2.212  23.086 -0.1826 -0.2078  0.0183
  110OSM    O1311256   0.414   2.228  23.049 -0.3695  0.0019 -0.4070
  110OSM    O1411257   0.195   2.096  23.048 -0.7051  0.3908 -0.6558
  110OSM    O1111258   0.198   2.339  23.043 -0.5482 -0.8635 -0.3818
  110OSM    O1211259   0.275   2.223  23.247 -0.0967  0.4408 -0.4311
  110OSM    C1S11260   0.084   2.393  23.110 -0.1501  0.4531  0.3904
  110OSM    H1S11261   0.060   2.346  23.208  1.7546 -1.5858 -0.0223
  110OSM    H1T11262  -0.010   2.374  23.054  0.3544  0.5698 -0.5124
  110OSM     NF11263  -0.044   2.593  23.191 -0.5128  0.8714  0.0419
  110OSM    HNF11264  -0.095   2.652  23.130 -0.5581  2.1516  1.2520
  110OSM    C2S11265   0.081   2.550  23.122 -0.2113  0.4954 -0.2789
  110OSM    H2S11266   0.163   2.581  23.190 -0.6820 -0.6945  0.8632
  110OSM    C3S11267   0.096   2.610  22.981 -0.2015  0.6452 -0.0425
  110OSM    H3S11268   0.006   2.580  22.924  1.1362 -0.9604 -1.4004
  110OSM     O311269   0.209   2.573  22.905 -0.1290 -0.3346 -0.0264
  110OSM    HO311270   0.241   2.502  22.961  2.7815  0.4334 -0.5480
  110OSM    C4S11271   0.095   2.759  22.991  0.3859 -0.4970  1.0390
  110OSM    H4S11272   0.179   2.804  23.046  2.0829  0.7744 -2.2924
  110OSM    C5S11273   0.002   2.833  22.934 -0.0141 -0.4845  0.2831
  110OSM    H5S11274  -0.086   2.792  22.882  1.5446 -2.0031 -1.2582
  110OSM    C6S11275  -0.009   2.988  22.943 -0.6413 -0.0044 -0.0542
  110OSM    H6S11276   0.096   3.023  22.930  0.1545 -2.1672  0.1480
  110OSM    H6T11277  -0.043   3.019  23.044 -0.3325 -0.6614  0.2605
  110OSM    C7S11278  -0.102   3.035  22.835  0.4846 -0.5697  0.6253
  110OSM    H7S11279  -0.197   2.979  22.848 -1.0385  1.4359 -0.9610
  110OSM    H7T11280  -0.062   3.018  22.733  1.8852 -0.5295  1.1517
  110OSM    C8S11281  -0.143   3.188  22.846 -0.5535 -0.7403 -0.3989
  110OSM    H8S11282  -0.052   3.252  22.844 -1.6771  0.9547  0.7847
  110OSM    H8T11283  -0.187   3.213  22.944 -0.3729  1.6640 -0.8755
  110OSM    C9S11284  -0.233   3.234  22.741  0.2640  0.0718  0.2818
  110OSM    H9S11285  -0.334   3.188  22.753  1.0539 -2.1027 -0.8339
  110OSM    H9T11286  -0.203   3.196  22.641  2.2163 -0.4971  1.0455
  110OSM   C10S11287  -0.244   3.386  22.720  0.5243 -0.1833 -0.5462
  110OSM   H10S11288  -0.310   3.400  22.632  0.5889  1.1938 -0.3957
  110OSM   H10T11289  -0.147   3.440  22.715 -0.5784  1.9206 -0.2829
  110OSM   C11S11290  -0.327   3.448  22.838 -0.0010  0.0822  0.4598
  110OSM   H11S11291  -0.268   3.437  22.932  0.2658  0.7396  0.3740
  110OSM   H11T11292  -0.426   3.398  22.847 -1.0240  1.9967  0.3037
  110OSM   C12S11293  -0.345   3.602  22.822  0.2329  0.2770  0.3337
  110OSM   H12S11294  -0.249   3.642  22.784  0.7900  0.7828  2.1818
  110OSM   H12T11295  -0.349   3.649  22.923 -1.0572  0.3523  0.2763
  110OSM   C13S11296  -0.475   3.645  22.746 -0.7670  0.0273 -0.1571
  110OSM   H13S11297  -0.560   3.603  22.803 -1.0505  2.6120  1.4553
  110OSM   H13T11298  -0.462   3.589  22.651  0.0537 -1.2659  0.6791
  110OSM   C14S11299  -0.503   3.801  22.725 -0.2874  0.9690  0.2948
  110OSM   H14S11300  -0.579   3.807  22.644 -0.2116 -0.3853  0.1000
  110OSM   H14T11301  -0.414   3.860  22.695 -0.5097  1.3246  0.3297
  110OSM   C15S11302  -0.574   3.862  22.845  0.3646 -0.3226 -0.0604
  110OSM   H15S11303  -0.665   3.799  22.856 -0.4120  0.5392 -1.2540
  110OSM   H15T11304  -0.610   3.960  22.808  1.9328  0.5764  0.6777
  110OSM   C16S11305  -0.496   3.879  22.981  0.1319  0.1517  0.7415
  110OSM   H16S11306  -0.395   3.921  22.966 -0.5270  2.0346  1.2517
  110OSM   H16T11307  -0.483   3.774  23.015 -0.2415 -0.0053  0.4099
  110OSM   C17S11308  -0.578   3.965  23.084  0.1826 -0.4657 -0.2889
  110OSM   H17S11309  -0.522   3.955  23.180  2.0565 -0.1028 -1.3006
  110OSM   H17T11310  -0.677   3.924  23.114  0.6243 -0.4783  1.2445
  110OSM   C18S11311  -0.573   4.114  23.044 -0.1220 -0.4191 -0.2546
  110OSM   H18S11312  -0.607   4.180  23.126  0.9878  0.1355 -0.2155
  110OSM   H18T11313  -0.643   4.141  22.962  0.2215  0.8743 -0.1407
  110OSM   H18U11314  -0.469   4.139  23.014 -0.1116 -0.8806 -0.6256
  110OSM    C1F11315  -0.088   2.552  23.310  0.0447  1.1332 -0.6112
  110OSM     OF11316  -0.018   2.499  23.399  0.2403 -0.1202  0.0397
  110OSM    C2F11317  -0.228   2.581  23.333  0.5083 -0.3899 -0.4552
  110OSM    H2F11318  -0.291   2.503  23.285 -0.9345  0.4085  0.0821
  110OSM    H2G11319  -0.267   2.669  23.278 -0.5429 -1.5169 -1.5889
  110OSM    C3F11320  -0.247   2.597  23.487  0.9985 -0.3648 -0.0322
  110OSM    H3F11321  -0.166   2.657  23.533 -0.5501  1.3964  0.5074
  110OSM    H3G11322  -0.251   2.502  23.545 -3.4643  0.6756  1.7200
  110OSM    C4F11323  -0.378   2.671  23.532 -0.9557  0.3802 -0.0482
  110OSM    H4F11324  -0.372   2.656  23.642  3.2011 -1.3675 -0.3000
  110OSM    H4G11325  -0.457   2.607  23.488 -1.4312 -0.7633  2.3126
  110OSM    C5F11326  -0.374   2.815  23.500  0.1966 -0.6789 -0.1919
  110OSM    H5F11327  -0.349   2.835  23.394 -1.7804 -2.0751 -0.9650
  110OSM    H5G11328  -0.292   2.861  23.559 -0.5289  0.9771 -0.4250
  110OSM    C6F11329  -0.504   2.891  23.545 -0.7874 -0.8251  1.2521
  110OSM    H6F11330  -0.586   2.830  23.502 -2.8900  1.6261  1.5604
  110OSM    H6G11331  -0.503   2.992  23.499 -0.3347 -0.2246  2.5265
  110OSM    C7F11332  -0.515   2.895  23.697 -0.4614  0.5112 -0.5978
  110OSM    H7F11333  -0.431   2.955  23.739 -0.9599  1.2746 -0.6748
  110OSM    H7G11334  -0.522   2.789  23.728  1.1181  0.6040  0.2001
  110OSM    C8F11335  -0.634   2.968  23.754 -0.2970  0.3557  1.4081
  110OSM    H8F11336  -0.621   3.069  23.709  2.8984 -1.0352 -1.2224
  110OSM    H8G11337  -0.636   2.987  23.863 -2.6989 -2.5231  2.0007
  110OSM    C9F11338  -0.759   2.896  23.725 -0.1264 -0.0627  0.5171
  110OSM    H9F11339  -0.734   2.789  23.727  0.1899 -0.1653 -3.0637
  110OSM   C10F11340  -0.882   2.942  23.692  0.7353  0.2304  0.4960
  110OSM   H10F11341  -0.961   2.867  23.674  0.2719  1.3783 -2.9179
  110OSM   C11F11342  -0.919   3.089  23.675  0.2451  0.1464  0.5866
  110OSM   H11F11343  -0.984   3.101  23.585 -0.1600  0.0606  0.8666
  110OSM   H11G11344  -0.828   3.153  23.671 -0.7388  1.5416 -1.6468
  110OSM   C12F11345  -0.996   3.143  23.801  0.2437  0.0651  0.3602
  110OSM   H12F11346  -0.934   3.127  23.892 -0.9776 -0.0828  1.1830
  110OSM   H12G11347  -1.090   3.086  23.813  1.3044 -1.2485  3.3115
  110OSM   C13F11348  -1.025   3.294  23.790 -0.4366  0.2878  0.1315
  110OSM   H13F11349  -0.941   3.357  23.827 -0.1677  0.3194 -0.5303
  110OSM   H13G11350  -1.105   3.325  23.861 -0.0770  3.5118 -0.7282
  110OSM   C14F11351  -1.068   3.332  23.655 -0.1102 -0.5742  0.3308
  110OSM   H14F11352  -1.115   3.248  23.599 -0.8157 -0.1926  0.3381
  110OSM   H14G11353  -0.987   3.356  23.583  0.7634  0.4588  1.6130
  110OSM   C15F11354  -1.168   3.456  23.654  0.0521 -0.4094  0.0430
  110OSM   H15F11355  -1.150   3.510  23.559  0.5236  1.0954  0.9540
  110OSM   H15G11356  -1.140   3.526  23.735 -1.6830  0.0955  0.2491
  110OSM   C16F11357  -1.321   3.418  23.678 -0.5051  0.0646  0.2214
  110OSM   H16F11358  -1.332   3.381  23.782  0.2481  2.6842  1.3156
  110OSM   H16G11359  -1.351   3.338  23.606 -0.0037  1.1601 -1.2691
  110OSM   C17F11360  -1.407   3.540  23.676  0.3517 -0.2381 -0.1242
  110OSM   H17F11361  -1.370   3.623  23.739 -0.8898  0.7741 -0.6781
  110OSM   H17G11362  -1.508   3.508  23.709 -0.7923  3.0778 -0.0945
  110OSM   C18F11363  -1.430   3.599  23.540 -0.0014  0.2697  0.0470
  110OSM   H18F11364  -1.519   3.665  23.552  0.1790  0.4740  0.2703
  110OSM   H18G11365  -1.437   3.511  23.473  1.1899  0.2478 -0.0616
  110OSM   H18H11366  -1.341   3.657  23.508 -1.6168  2.9471  0.1034
  111OSM      N11367   2.676   1.131  17.987  0.4077  0.2641 -0.2191
  111OSM    C1511368   2.624   1.182  18.113  0.6863 -0.1395  0.1521
  111OSM   H15A11369   2.675   1.156  18.205 -0.8497 -1.7653  0.6053
  111OSM   H15B11370   2.524   1.144  18.125  0.6081 -0.5649 -1.6579
  111OSM   H15C11371   2.612   1.289  18.103 -0.0997  0.3059  4.0724
  111OSM    C1411372   2.819   1.173  17.980 -0.2262 -0.3130  0.0799
  111OSM   H14A11373   2.819   1.281  17.981 -1.0164 -0.3051  0.9878
  111OSM   H14B11374   2.863   1.132  17.890 -1.8130 -2.0573  0.0253
  111OSM   H14C11375   2.875   1.136  18.065  0.5685 -0.8116 -0.6421
  111OSM    C1311376   2.675   0.981  17.986 -0.0875 -0.1845  0.2416
  111OSM   H13A11377   2.578   0.937  18.006  1.3105 -2.1790  3.6209
  111OSM   H13B11378   2.739   0.942  18.065 -0.5898  1.7234  1.6519
  111OSM   H13C11379   2.706   0.946  17.888  0.0286  0.9391 -0.1292
  111OSM    C1211380   2.595   1.172  17.862 -0.7794 -0.4767  0.4075
  111OSM   H12A11381   2.492   1.144  17.871 -1.6954  1.0444 -3.3077
  111OSM   H12B11382   2.632   1.111  17.780 -2.5071 -1.5295  0.3734
  111OSM    C1111383   2.609   1.320  17.834 -0.7839 -0.0591 -0.5961
  111OSM   H11A11384   2.597   1.381  17.926 -2.6432  0.2069 -0.9767
  111OSM   H11B11385   2.515   1.353  17.784 -1.4091  1.2166  1.3211
  111OSM      P11386   2.762   1.331  17.620 -0.4601  0.4739 -0.6865
  111OSM    O1311387   2.751   1.456  17.539 -0.0140 -0.1348 -0.3049
  111OSM    O1411388   2.892   1.257  17.609  0.6265 -0.3988  0.0128
  111OSM    O1111389   2.651   1.229  17.578  0.5524  0.1350 -0.1616
  111OSM    O1211390   2.738   1.353  17.774  0.5148 -0.2304  0.1491
  111OSM    C1S11391   2.526   1.281  17.521 -0.1708 -0.0870 -0.6411
  111OSM    H1S11392   2.507   1.385  17.554  0.3103  0.2087 -1.2804
  111OSM    H1T11393   2.438   1.222  17.557 -0.6949  0.9548 -0.1802
  111OSM     NF11394   2.382   1.323  17.317  0.5900 -0.4889 -0.3413
  111OSM    HNF11395   2.321   1.252  17.283 -1.9104  1.8577 -1.1108
  111OSM    C2S11396   2.515   1.285  17.365  0.2404 -0.0737 -0.2793
  111OSM    H2S11397   2.585   1.361  17.326 -0.4097  0.2288 -0.8896
  111OSM    C3S11398   2.553   1.152  17.301 -0.7667 -0.2922 -0.3549
  111OSM    H3S11399   2.475   1.074  17.313 -0.8832  0.0226  1.1746
  111OSM     O311400   2.671   1.096  17.357  0.2830  0.2655 -0.0338
  111OSM    HO311401   2.688   1.152  17.433  2.1071 -2.0276  1.3845
  111OSM    C4S11402   2.581   1.174  17.155 -0.1500  0.2857 -0.1724
  111OSM    H4S11403   2.668   1.238  17.137  0.2017 -0.2029 -0.2176
  111OSM    C5S11404   2.510   1.115  17.052  0.2181 -0.4651 -0.7660
  111OSM    H5S11405   2.428   1.044  17.074 -1.1712  1.1817 -0.4265
  111OSM    C6S11406   2.531   1.133  16.907  0.4696 -0.1600 -0.3144
  111OSM    H6S11407   2.439   1.132  16.844  0.8559 -0.8121 -0.8844
  111OSM    H6T11408   2.594   1.049  16.871  1.3933  1.2750 -2.2048
  111OSM    C7S11409   2.597   1.268  16.877 -0.2708  0.0379 -0.0138
  111OSM    H7S11410   2.696   1.287  16.923  1.6161 -1.3897 -3.1523
  111OSM    H7T11411   2.529   1.349  16.912  1.7054  2.1929 -0.8639
  111OSM    C8S11412   2.617   1.294  16.728 -0.7964 -0.1046 -0.4301
  111OSM    H8S11413   2.670   1.391  16.721  2.4014 -1.5718  1.1858
  111OSM    H8T11414   2.519   1.298  16.675 -1.0917  2.5518  0.1927
  111OSM    C9S11415   2.700   1.188  16.656  0.3119 -0.3656 -0.2526
  111OSM    H9S11416   2.646   1.090  16.659 -1.7400  0.6638 -1.2093
  111OSM    H9T11417   2.799   1.175  16.704 -0.6752 -0.0168  2.0003
  111OSM   C10S11418   2.728   1.215  16.508  0.1178  0.3244  0.1664
  111OSM   H10S11419   2.758   1.322  16.496 -1.7345  0.9143  0.3564
  111OSM   H10T11420   2.635   1.200  16.449 -0.6237 -0.0406  1.3903
  111OSM   C11S11421   2.829   1.109  16.452  0.1768 -0.0164  0.2344
  111OSM   H11S11422   2.824   1.005  16.490  3.3784 -0.0063  0.9346
  111OSM   H11T11423   2.935   1.135  16.470  0.3335  1.0377 -1.7844
  111OSM   C12S11424   2.823   1.070  16.302 -1.3054  0.0158 -0.4311
  111OSM   H12S11425   2.824   1.165  16.244  1.2994 -0.4266 -1.2101
  111OSM   H12T11426   2.735   1.010  16.270 -3.2623  1.5137  1.7581
  111OSM   C13S11427   2.953   0.999  16.262 -0.5504 -0.8463  0.8015
  111OSM   H13S11428   2.951   0.900  16.314  3.0335 -1.7171 -0.4274
  111OSM   H13T11429   3.043   1.051  16.301 -0.1913 -0.8359 -0.0164
  111OSM   C14S11430   2.970   1.007  16.110  0.5464 -0.6910  0.8020
  111OSM   H14S11431   2.925   1.100  16.069  0.0784 -0.7318  1.2224
  111OSM   H14T11432   2.911   0.923  16.065 -0.8832 -0.7271  2.6359
  111OSM   C15S11433   3.113   1.009  16.055  0.3067 -0.8560  0.4326
  111OSM   H15S11434   3.152   0.919  16.108  1.2568 -0.2630  0.7461
  111OSM   H15T11435   3.168   1.102  16.080 -0.2673 -0.3220 -0.2557
  111OSM   C16S11436   3.138   0.982  15.904 -0.2981 -0.5978 -0.4449
  111OSM   H16S11437   3.108   0.878  15.879 -0.9333 -0.1072 -1.8037
  111OSM   H16T11438   3.246   0.986  15.879  0.0055 -0.5129  0.8149
  111OSM   C17S11439   3.057   1.073  15.817 -0.1530 -0.3101 -0.0379
  111OSM   H17S11440   2.953   1.076  15.854 -0.3261  0.8915 -0.5879
  111OSM   H17T11441   3.056   1.034  15.713 -0.6547  1.0216 -0.5470
  111OSM   C18S11442   3.103   1.222  15.819 -0.1798 -0.1202  0.3982
  111OSM   H18S11443   3.213   1.237  15.812 -0.4261  1.2628 -1.0614
  111OSM   H18T11444   3.063   1.274  15.909  0.5040  0.9652  0.0969
  111OSM   H18U11445   3.060   1.286  15.739 -1.8860 -0.0218  1.3439
  111OSM    C1F11446   2.328   1.440  17.331 -0.0084 -0.5171 -0.4616
  111OSM     OF11447   2.385   1.533  17.388 -0.4320  0.2984 -0.1840
  111OSM    C2F11448   2.195   1.468  17.284 -0.1186 -0.1236 -0.7148
  111OSM    H2F11449   2.131   1.504  17.367 -0.0952  1.3817 -1.3133
  111OSM    H2G11450   2.148   1.373  17.251  1.1005 -0.6497 -1.0203
  111OSM    C3F11451   2.192   1.583  17.181 -0.5113 -0.6006  0.5470
  111OSM    H3F11452   2.216   1.677  17.235 -1.3244  0.5785 -1.0819
  111OSM    H3G11453   2.087   1.593  17.146 -0.2195  1.5444  0.1544
  111OSM    C4F11454   2.287   1.550  17.064 -0.1264  0.3865  0.2039
  111OSM    H4F11455   2.263   1.444  17.043  0.8602 -0.1599  1.7059
  111OSM    H4G11456   2.392   1.539  17.098 -0.8314 -2.4136  1.7729
  111OSM    C5F11457   2.282   1.653  16.948 -0.6389 -0.7222 -0.2246
  111OSM    H5F11458   2.338   1.742  16.984 -1.2679 -1.2015  2.1513
  111OSM    H5G11459   2.177   1.683  16.931 -0.3797  0.1472 -0.3290
  111OSM    C6F11460   2.340   1.589  16.819  0.6586 -0.1792 -0.0512
  111OSM    H6F11461   2.275   1.502  16.792  0.4495 -0.1079  0.2286
  111OSM    H6G11462   2.443   1.555  16.845 -0.0944 -4.2254 -1.5411
  111OSM    C7F11463   2.329   1.675  16.694 -0.1776 -0.2151  0.6269
  111OSM    H7F11464   2.376   1.774  16.713  0.6692 -0.3775 -0.5373
  111OSM    H7G11465   2.220   1.690  16.678 -0.1033  1.3806  1.3888
  111OSM    C8F11466   2.392   1.604  16.572  0.7594 -0.0149  0.2256
  111OSM    H8F11467   2.355   1.648  16.476 -0.5701 -3.3905 -0.9796
  111OSM    H8G11468   2.345   1.503  16.570  3.5745 -1.4094 -0.1523
  111OSM    C9F11469   2.542   1.601  16.564  0.1566  0.6382 -0.2123
  111OSM    H9F11470   2.590   1.610  16.663 -0.9559 -2.2355  0.6840
  111OSM   C10F11471   2.617   1.583  16.453  0.4690 -0.2990  0.1377
  111OSM   H10F11472   2.725   1.583  16.471  1.0135  2.0928 -2.4323
  111OSM   C11F11473   2.554   1.564  16.316 -0.5134  0.1341 -0.0505
  111OSM   H11F11474   2.554   1.658  16.257 -0.0511  1.7577  2.3703
  111OSM   H11G11475   2.448   1.531  16.319 -0.3556 -0.3571  0.3602
  111OSM   C12F11476   2.620   1.447  16.242  0.4374  0.5757  0.4000
  111OSM   H12F11477   2.556   1.414  16.157  0.6868  1.8578 -0.3088
  111OSM   H12G11478   2.624   1.355  16.305  0.7151 -1.1501 -1.9673
  111OSM   C13F11479   2.764   1.468  16.179  0.1176  0.2955  0.0555
  111OSM   H13F11480   2.827   1.453  16.269 -1.0861 -1.1360  0.7210
  111OSM   H13G11481   2.765   1.574  16.147 -1.1241  0.5501  0.7618
  111OSM   C14F11482   2.799   1.378  16.062  0.7234  0.8086  0.1644
  111OSM   H14F11483   2.737   1.286  16.071  0.8417  0.9463  3.5307
  111OSM   H14G11484   2.907   1.354  16.069  1.1114  2.3035 -0.2810
  111OSM   C15F11485   2.761   1.454  15.925  0.3885  0.2727 -0.4216
  111OSM   H15F11486   2.828   1.542  15.927  0.6254  0.0988 -0.6148
  111OSM   H15G11487   2.657   1.494  15.918  0.2119 -0.4048 -2.2327
  111OSM   C16F11488   2.773   1.367  15.803  0.0035  0.2838  0.5045
  111OSM   H16F11489   2.696   1.287  15.806  0.9139 -0.6067  0.5981
  111OSM   H16G11490   2.869   1.314  15.790 -1.3578 -2.3903  0.5684
  111OSM   C17F11491   2.746   1.443  15.682  0.0718  0.2624  0.0223
  111OSM   H17F11492   2.649   1.496  15.693 -0.4825 -0.9813  1.4707
  111OSM   H17G11493   2.748   1.373  15.596 -3.0178  0.5565 -0.3976
  111OSM   C18F11494   2.848   1.554  15.642 -0.6129 -0.7115 -0.4934
  111OSM   H18F11495   2.839   1.586  15.536  3.6410  1.6329 -0.3710
  111OSM   H18G11496   2.952   1.518  15.655 -0.3638  0.1912  0.1409
  111OSM   H18H11497   2.844   1.635  15.719  1.4552 -2.0137  1.1058
  112OSM      N11498   0.489   3.084  26.139  0.1038 -0.1440 -0.9333
  112OSM    C1511499   0.463   3.186  26.245  0.4806 -0.6009  0.4119
  112OSM   H15A11500   0.515   3.279  26.229  1.8860 -1.4757 -0.3548
  112OSM   H15B11501   0.491   3.150  26.343 -2.3140  0.9501  1.9084
  112OSM   H15C11502   0.358   3.210  26.243  0.5139 -0.4692  0.1222
  112OSM    C1411503   0.416   2.960  26.180  0.7811  0.3360 -0.2743
  112OSM   H14A11504   0.484   2.877  26.168  0.6412  0.1633  0.1081
  112OSM   H14B11505   0.320   2.953  26.131  0.3363  1.9817  0.2962
  112OSM   H14C11506   0.399   2.967  26.287 -0.9169 -1.4692 -0.3649
  112OSM    C1311507   0.442   3.128  25.998 -0.2947 -0.4011 -0.0658
  112OSM   H13A11508   0.509   3.204  25.963 -0.4852 -0.7296 -1.1630
  112OSM   H13B11509   0.341   3.165  26.013 -1.3981 -2.8649 -0.8489
  112OSM   H13C11510   0.438   3.040  25.935 -0.3772  1.3062 -2.5361
  112OSM    C1211511   0.637   3.053  26.133 -0.0162 -0.0561  0.3433
  112OSM   H12A11512   0.675   3.036  26.233  0.4792  1.3868  0.4285
  112OSM   H12B11513   0.687   3.142  26.099 -3.4651  1.5855 -0.8810
  112OSM    C1111514   0.697   2.946  26.037  0.2377  0.8968  0.6095
  112OSM   H11A11515   0.807   2.963  26.037  0.6199 -1.2243  1.6376
  112OSM   H11B11516   0.662   2.965  25.933  0.6824  1.5345  0.5692
  112OSM      P11517   0.748   2.729  26.183  0.1922 -0.0597 -0.1129
  112OSM    O1311518   0.758   2.822  26.301 -0.2976  0.4196  0.0920
  112OSM    O1411519   0.685   2.595  26.208 -0.0333 -0.4804 -0.5994
  112OSM    O1111520   0.882   2.727  26.099 -0.8149  0.3571 -0.0578
  112OSM    O1211521   0.656   2.811  26.081 -0.6450  0.4762 -0.3132
  112OSM    C1S11522   0.921   2.634  25.998  0.5556 -0.5082  0.1741
  112OSM    H1S11523   0.849   2.550  26.001  1.4744 -1.3017  2.3984
  112OSM    H1T11524   1.021   2.592  26.025  0.8221 -0.4374 -0.6904
  112OSM     NF11525   0.967   2.625  25.761 -0.3808 -0.4460 -0.2003
  112OSM    HNF11526   1.058   2.619  25.722  0.5091  1.4531  1.4462
  112OSM    C2S11527   0.948   2.714  25.869  0.1202 -0.1505  0.0004
  112OSM    H2S11528   0.862   2.782  25.846 -1.0062 -2.1052 -1.9191
  112OSM    C3S11529   1.068   2.808  25.902  0.4237 -0.4238 -0.2028
  112OSM    H3S11530   1.160   2.748  25.918 -0.1212 -0.6421  2.6763
  112OSM     O311531   1.073   2.887  26.022 -0.3431  0.3194 -0.2175
  112OSM    HO311532   0.994   2.866  26.073 -0.3366  1.2168  0.1693
  112OSM    C4S11533   1.099   2.900  25.787 -0.4799  0.4947 -0.6547
  112OSM    H4S11534   1.157   2.841  25.714 -0.6164  0.5199 -0.7840
  112OSM    C5S11535   1.062   3.026  25.762  0.2111 -0.4091  0.2237
  112OSM    H5S11536   0.997   3.085  25.829 -0.0982  0.8287 -1.1168
  112OSM    C6S11537   1.113   3.110  25.649  0.7877 -0.6785  0.0779
  112OSM    H6S11538   1.166   3.195  25.697 -1.4212  0.0950  1.3201
  112OSM    H6T11539   1.032   3.156  25.587  2.2439  1.7086 -0.1781
  112OSM    C7S11540   1.206   3.038  25.550  0.0529  0.0707  0.3934
  112OSM    H7S11541   1.140   2.976  25.484  0.3107 -2.3262  2.2375
  112OSM    H7T11542   1.283   2.973  25.596  0.5661  2.0169  2.4211
  112OSM    C8S11543   1.289   3.144  25.466 -0.1077 -0.1433  0.2283
  112OSM    H8S11544   1.358   3.193  25.538 -0.6116  0.8758  0.0397
  112OSM    H8T11545   1.223   3.221  25.420  0.1637  0.8642  1.4684
  112OSM    C9S11546   1.380   3.075  25.358  0.5234 -0.8144 -0.2888
  112OSM    H9S11547   1.439   3.152  25.304  2.1534 -1.3680  0.6508
  112OSM    H9T11548   1.324   3.023  25.277  0.3851  1.2573 -1.6019
  112OSM   C10S11549   1.476   2.963  25.398  0.4073 -0.0166  0.8462
  112OSM   H10S11550   1.424   2.865  25.408 -1.1832  0.6270 -0.7346
  112OSM   H10T11551   1.516   2.989  25.498  1.4527 -3.0025  1.3309
  112OSM   C11S11552   1.582   2.955  25.294  0.2513 -0.1251 -0.1688
  112OSM   H11S11553   1.660   3.034  25.306  0.5902 -0.1685 -1.8578
  112OSM   H11T11554   1.546   2.979  25.191  2.5939  1.5522 -0.6889
  112OSM   C12S11555   1.642   2.819  25.297 -0.6449 -0.4277  0.4629
  112OSM   H12S11556   1.564   2.760  25.243 -0.9307  2.2815 -2.3573
  112OSM   H12T11557   1.648   2.790  25.404 -1.9559  0.6460  0.8435
  112OSM   C13S11558   1.772   2.796  25.210  0.1563 -0.1246 -0.8088
  112OSM   H13S11559   1.842   2.877  25.241  0.2519  0.1552 -1.7485
  112OSM   H13T11560   1.738   2.798  25.105 -1.4228 -4.2193 -0.5570
  112OSM   C14S11561   1.832   2.659  25.237  0.2240 -0.3464  0.0734
  112OSM   H14S11562   1.751   2.587  25.213 -0.4666  0.1780  0.8011
  112OSM   H14T11563   1.852   2.654  25.346  0.0684  3.7134  0.4414
  112OSM   C15S11564   1.952   2.629  25.152 -0.1310 -0.0679  0.0211
  112OSM   H15S11565   2.029   2.708  25.135 -0.3920 -0.2976 -2.5788
  112OSM   H15T11566   1.923   2.587  25.054 -0.3138 -0.7012  0.3424
  112OSM   C16S11567   2.033   2.518  25.220  0.5272  0.6424  0.0965
  112OSM   H16S11568   1.970   2.456  25.286 -1.1181  1.0163 -1.0635
  112OSM   H16T11569   2.122   2.554  25.276 -0.7354 -1.2789  3.7037
  112OSM   C17S11570   2.087   2.421  25.110 -0.1045 -0.1687  0.2232
  112OSM   H17S11571   2.164   2.469  25.046 -2.6874  3.1121 -0.7661
  112OSM   H17T11572   2.012   2.378  25.041  0.8829  0.2300 -1.1276
  112OSM   C18S11573   2.159   2.299  25.177  0.2201 -0.1169 -0.2560
  112OSM   H18S11574   2.084   2.234  25.228 -1.4756  1.5787 -0.4724
  112OSM   H18T11575   2.236   2.322  25.254  0.0636  0.3346 -0.2350
  112OSM   H18U11576   2.199   2.228  25.102 -1.7360 -0.4293 -1.0604
  112OSM    C1F11577   0.862   2.556  25.705  0.9460  0.4264  0.4291
  112OSM     OF11578   0.745   2.584  25.736 -0.3953 -0.0392  0.4511
  112OSM    C2F11579   0.900   2.450  25.606  0.6253  0.0400  0.2082
  112OSM    H2F11580   0.974   2.380  25.649  1.1019 -0.8983 -2.0399
  112OSM    H2G11581   0.944   2.492  25.513 -0.6723 -2.2920 -1.5732
  112OSM    C3F11582   0.773   2.370  25.558  0.2407 -0.9269 -0.0041
  112OSM    H3F11583   0.722   2.339  25.652  1.3852 -1.2738  0.5099
  112OSM    H3G11584   0.796   2.276  25.502  1.7922 -1.4695  1.4717
  112OSM    C4F11585   0.660   2.445  25.484 -0.3723 -0.0491  0.2010
  112OSM    H4F11586   0.639   2.548  25.522  1.4276  0.7042 -0.7038
  112OSM    H4G11587   0.566   2.390  25.501 -0.7639  0.4976 -0.1344
  112OSM    C5F11588   0.700   2.450  25.339 -0.8965 -0.1595 -0.3645
  112OSM    H5F11589   0.709   2.347  25.300  0.5416 -0.1328 -0.1504
  112OSM    H5G11590   0.807   2.479  25.333 -0.2143 -2.0078  1.4599
  112OSM    C6F11591   0.626   2.541  25.242  0.7028 -0.3112  0.0511
  112OSM    H6F11592   0.646   2.646  25.275  0.0242 -0.0181 -0.4586
  112OSM    H6G11593   0.521   2.508  25.246  1.2879 -2.1700  2.6469
  112OSM    C7F11594   0.691   2.515  25.103  0.2987  0.4789 -0.0241
  112OSM    H7F11595   0.630   2.430  25.066  0.9042 -0.1164  0.3129
  112OSM    H7G11596   0.798   2.496  25.129  0.2187  1.1021  0.8367
  112OSM    C8F11597   0.695   2.631  24.995 -0.2651  0.0567 -0.1453
  112OSM    H8F11598   0.592   2.646  24.954 -1.0436 -0.5869  1.5020
  112OSM    H8G11599   0.762   2.594  24.915  2.6089  0.0257  2.1224
  112OSM    C9F11600   0.751   2.760  25.044 -0.4937  0.5201 -0.2542
  112OSM    H9F11601   0.815   2.753  25.133 -1.5312  0.3769  0.5066
  112OSM   C10F11602   0.748   2.878  24.979 -0.3698 -0.5601 -0.8012
  112OSM   H10F11603   0.807   2.954  25.032  0.3510 -2.1781  0.8138
  112OSM   C11F11604   0.662   2.912  24.861 -0.7816 -0.2568  0.3792
  112OSM   H11F11605   0.592   2.995  24.884 -2.6014 -0.3923 -3.8807
  112OSM   H11G11606   0.608   2.822  24.825 -0.8033 -1.0683  2.3026
  112OSM   C12F11607   0.739   2.940  24.733 -0.4974 -0.4708  0.1777
  112OSM   H12F11608   0.772   2.846  24.683 -0.5985  0.9497 -2.7889
  112OSM   H12G11609   0.828   3.005  24.748 -0.9295  0.0858  0.3273
  112OSM   C13F11610   0.660   3.001  24.621 -0.3690  0.6590 -0.1478
  112OSM   H13F11611   0.600   3.090  24.648  0.0243  1.9394 -3.1163
  112OSM   H13G11612   0.587   2.921  24.600 -1.4586  1.5642  0.1186
  112OSM   C14F11613   0.735   3.055  24.494  0.4654 -0.7022  0.0025
  112OSM   H14F11614   0.801   2.974  24.457 -1.5819 -3.0819  1.2753
  112OSM   H14G11615   0.795   3.143  24.526 -0.5755 -0.4720  1.3868
  112OSM   C15F11616   0.644   3.100  24.377  0.2054  0.4094  0.9836
  112OSM   H15F11617   0.711   3.156  24.308 -0.9786  1.4470  0.6370
  112OSM   H15G11618   0.561   3.170  24.402 -0.5544 -0.9410  2.3659
  112OSM   C16F11619   0.579   2.975  24.311 -0.5579 -0.1131 -0.0201
  112OSM   H16F11620   0.550   2.897  24.385 -2.2901 -0.1872 -0.7184
  112OSM   H16G11621   0.639   2.930  24.229 -1.3507 -1.4685  0.1167
  112OSM   C17F11622   0.453   3.016  24.239 -0.8007  0.1276  0.0838
  112OSM   H17F11623   0.483   3.080  24.153  1.6758 -1.4223 -0.3150
  112OSM   H17G11624   0.381   3.070  24.304  0.7216  1.6640  0.5711
  112OSM   C18F11625   0.393   2.889  24.164  0.3226 -0.0295 -0.8259
  112OSM   H18F11626   0.336   2.924  24.076  0.1214  0.9219 -0.3342
  112OSM   H18G11627   0.313   2.838  24.222 -0.5850  0.4200 -1.6412
  112OSM   H18H11628   0.478   2.826  24.131  2.4589  2.2262  0.0224
  113OSM      N11629   1.441   1.695  20.846  0.5225 -0.0906 -0.4147
  113OSM    C1511630   1.505   1.800  20.759  0.0265 -0.1865  0.8312
  113OSM   H15A11631   1.536   1.756  20.665 -0.7058 -1.3410  1.1116
  113OSM   H15B11632   1.600   1.833  20.798  0.4489 -0.4591  0.0541
  113OSM   H15C11633   1.434   1.875  20.727 -2.3446 -1.7097  2.1780
  113OSM    C1411634   1.362   1.759  20.950  0.3688 -0.0002 -0.3459
  113OSM   H14A11635   1.297   1.690  21.002  0.1453  0.4049 -0.0863
  113OSM   H14B11636   1.297   1.836  20.912  0.0111  0.9406  2.0346
  113OSM   H14C11637   1.428   1.796  21.027  0.8276 -1.4605 -0.0044
  113OSM    C1311638   1.347   1.612  20.763  0.2466 -0.1243  0.1230
  113OSM   H13A11639   1.314   1.519  20.805 -3.9597  0.3228 -1.7131
  113OSM   H13B11640   1.402   1.587  20.674 -0.5718 -0.3482 -0.3212
  113OSM   H13C11641   1.270   1.681  20.734  2.0271  1.0573 -2.1408
  113OSM    C1211642   1.551   1.599  20.896  0.6746  0.1117 -0.2307
  113OSM   H12A11643   1.591   1.545  20.812  0.4647 -1.6221  0.7437
  113OSM   H12B11644   1.508   1.520  20.956  0.8473  0.7649  0.7883
  113OSM    C1111645   1.667   1.659  20.979  0.7534  0.0804 -0.7937
  113OSM   H11A11646   1.746   1.707  20.918  0.3533  4.0173  1.4435
  113OSM   H11B11647   1.724   1.581  21.034 -1.8419 -1.7857 -0.5461
  113OSM      P11648   1.584   1.722  21.231  0.0329 -0.1947 -0.0708
  113OSM    O1311649   1.706   1.715  21.313 -0.1574 -0.0293  0.4776
  113OSM    O1411650   1.492   1.831  21.274  0.1200 -0.4115 -0.2284
  113OSM    O1111651   1.513   1.582  21.224 -1.1003 -0.6949 -0.3811
  113OSM    O1211652   1.615   1.753  21.076 -0.3374  0.6441  0.0071
  113OSM    C1S11653   1.504   1.510  21.350 -0.4809 -0.7493  0.6136
  113OSM    H1S11654   1.437   1.565  21.419  1.3572 -1.2528  2.9135
  113OSM    H1T11655   1.600   1.491  21.402  1.0457 -1.1931 -2.1468
  113OSM     NF11656   1.402   1.304  21.459 -0.9580 -0.4833  0.0348
  113OSM    HNF11657   1.471   1.240  21.494 -0.7552  0.6978  1.9556
  113OSM    C2S11658   1.433   1.374  21.330  1.1896 -0.6926  0.4720
  113OSM    H2S11659   1.337   1.389  21.277  1.6084 -1.2386 -0.4577
  113OSM    C3S11660   1.516   1.287  21.235  0.2819 -0.2485 -0.4154
  113OSM    H3S11661   1.616   1.277  21.284 -0.1470 -1.2215  0.2970
  113OSM     O311662   1.569   1.344  21.111 -0.5691 -0.1091 -0.2990
  113OSM    HO311663   1.553   1.438  21.111 -0.1567 -0.0311 -1.2297
  113OSM    C4S11664   1.449   1.153  21.204  0.9214  0.7933 -0.0064
  113OSM    H4S11665   1.373   1.145  21.125 -1.9754 -1.3695  2.7495
  113OSM    C5S11666   1.494   1.030  21.249 -0.2913 -0.5547 -0.1090
  113OSM    H5S11667   1.581   1.037  21.315 -0.3033  0.6191 -0.1829
  113OSM    C6S11668   1.450   0.894  21.213 -0.1377  0.0651  0.6579
  113OSM    H6S11669   1.412   0.837  21.300  1.3143 -1.4986  0.3156
  113OSM    H6T11670   1.532   0.845  21.157  1.8158  1.7577  1.8965
  113OSM    C7S11671   1.329   0.892  21.111 -0.3861 -0.0693  0.5049
  113OSM    H7S11672   1.348   0.957  21.023 -2.6009  1.2897  0.9403
  113OSM    H7T11673   1.244   0.947  21.157 -0.8529 -0.4701  0.1344
  113OSM    C8S11674   1.299   0.752  21.066  0.2082 -0.9760  0.0772
  113OSM    H8S11675   1.286   0.701  21.164 -0.9962  3.1454  2.3221
  113OSM    H8T11676   1.393   0.708  21.026  0.6140  0.0976 -0.1850
  113OSM    C9S11677   1.182   0.727  20.959 -0.8939  0.6643  0.3901
  113OSM    H9S11678   1.190   0.809  20.885  2.3315  0.1071 -0.0215
  113OSM    H9T11679   1.083   0.727  21.009 -1.0787 -1.6710  0.1355
  113OSM   C10S11680   1.192   0.596  20.875  0.0274 -0.2933 -0.3696
  113OSM   H10S11681   1.268   0.602  20.794  1.0900 -1.7056  0.4703
  113OSM   H10T11682   1.092   0.588  20.826 -1.4327  2.3689  1.8974
  113OSM   C11S11683   1.233   0.465  20.958  0.4245 -0.6813  0.4387
  113OSM   H11S11684   1.151   0.458  21.033 -2.2613  0.2824 -2.1964
  113OSM   H11T11685   1.326   0.478  21.016  0.1473  1.0309  0.5488
  113OSM   C12S11686   1.243   0.337  20.866  0.7105 -0.5942 -1.0573
  113OSM   H12S11687   1.341   0.354  20.818  1.2255  2.7385  0.9011
  113OSM   H12T11688   1.155   0.330  20.798 -0.9979  0.5068  0.8899
  113OSM   C13S11689   1.256   0.206  20.949  0.2800 -0.1060  0.0851
  113OSM   H13S11690   1.159   0.185  20.998 -1.2543  3.3294 -1.1547
  113OSM   H13T11691   1.317   0.222  21.040  0.4289 -1.2894  0.2023
  113OSM   C14S11692   1.289   0.081  20.870  0.3504  0.8384  0.0464
  113OSM   H14S11693   1.378   0.097  20.805  0.4561 -0.7883 -0.2494
  113OSM   H14T11694   1.203   0.048  20.808 -0.3323  1.3130  0.7216
  113OSM   C15S11695   1.349  -0.038  20.959  0.0667 -0.1783 -0.2496
  113OSM   H15S11696   1.433   0.007  21.015 -0.8890  0.5310  0.6375
  113OSM   H15T11697   1.375  -0.115  20.883 -0.2724  0.3637 -0.9246
  113OSM   C16S11698   1.249  -0.096  21.051  0.4510  0.1764  0.0814
  113OSM   H16S11699   1.164  -0.140  20.995 -0.0530  1.4284 -0.1819
  113OSM   H16T11700   1.219  -0.016  21.122  0.3542 -0.2156  0.4861
  113OSM   C17S11701   1.303  -0.207  21.144  0.3677  0.4287  0.6478
  113OSM   H17S11702   1.385  -0.160  21.202 -0.0341  0.3743  1.2705
  113OSM   H17T11703   1.350  -0.290  21.088  0.4698  0.5342  0.5774
  113OSM   C18S11704   1.196  -0.275  21.231  0.3143  0.1652  0.7742
  113OSM   H18S11705   1.257  -0.340  21.298 -0.1782 -1.1838 -0.0478
  113OSM   H18T11706   1.129  -0.336  21.167  2.4459 -0.3241 -1.1046
  113OSM   H18U11707   1.152  -0.193  21.290  0.1713  0.3963  0.3471
  113OSM    C1F11708   1.315   1.346  21.539  0.3132  0.2052 -0.9928
  113OSM     OF11709   1.259   1.454  21.516  0.6701 -0.0366  0.1017
  113OSM    C2F11710   1.294   1.259  21.660  0.6117 -0.0068  0.0968
  113OSM    H2F11711   1.382   1.276  21.726 -0.5522 -1.8531  2.2867
  113OSM    H2G11712   1.316   1.155  21.629  3.1634  0.4713  0.1154
  113OSM    C3F11713   1.167   1.283  21.739  0.1774  0.4758  0.6220
  113OSM    H3F11714   1.089   1.246  21.669 -0.0808  0.6554  0.8174
  113OSM    H3G11715   1.140   1.386  21.768  0.3707  1.0570 -1.1343
  113OSM    C4F11716   1.170   1.192  21.862 -0.5123  0.9524  0.3088
  113OSM    H4F11717   1.235   1.247  21.933  0.2261  0.4632  0.0232
  113OSM    H4G11718   1.209   1.090  21.845 -0.2622  0.8996  1.1604
  113OSM    C5F11719   1.027   1.178  21.915  0.3634 -0.0095 -0.0096
  113OSM    H5F11720   0.971   1.138  21.828  2.1731  1.4239 -1.9442
  113OSM    H5G11721   0.985   1.276  21.946  0.5338 -0.6367  2.4988
  113OSM    C6F11722   1.013   1.087  22.039  0.2724 -0.0387  0.0681
  113OSM    H6F11723   0.905   1.070  22.057  0.7474 -0.6008  2.9065
  113OSM    H6G11724   1.049   1.148  22.124 -0.3699  1.6853 -0.8608
  113OSM    C7F11725   1.095   0.957  22.035 -0.1702  0.7409  0.2665
  113OSM    H7F11726   1.086   0.900  22.129 -2.0943  0.3090 -0.1496
  113OSM    H7G11727   1.205   0.975  22.032  0.0107 -0.4082 -1.5388
  113OSM    C8F11728   1.055   0.864  21.917  0.5699 -0.6641 -0.0476
  113OSM    H8F11729   1.060   0.920  21.821  0.1281  2.2664  1.5388
  113OSM    H8G11730   0.948   0.836  21.922  0.9914 -2.3029  0.6758
  113OSM    C9F11731   1.152   0.750  21.902  0.4291 -0.3811 -0.4940
  113OSM    H9F11732   1.235   0.763  21.831  1.5262  2.9322  1.1770
  113OSM   C10F11733   1.143   0.624  21.956  0.1483 -0.9449  0.7236
  113OSM   H10F11734   1.229   0.557  21.955  0.0123 -1.1250 -0.6646
  113OSM   C11F11735   1.044   0.572  22.058  0.2557  0.4530  0.3166
  113OSM   H11F11736   0.959   0.526  22.004  1.2592  0.6827 -1.5193
  113OSM   H11G11737   1.001   0.658  22.114  0.5104 -0.1039  1.4116
  113OSM   C12F11738   1.103   0.490  22.172  0.0179  0.2501  0.0047
  113OSM   H12F11739   1.026   0.494  22.253 -1.1283 -1.2742 -0.9443
  113OSM   H12G11740   1.195   0.535  22.214 -1.1502  1.6859  1.1748
  113OSM   C13F11741   1.107   0.345  22.147  0.1577 -0.1612  0.8601
  113OSM   H13F11742   1.196   0.344  22.079 -1.2432  1.8214 -1.1298
  113OSM   H13G11743   1.013   0.308  22.100  0.4693 -1.8283  1.4730
  113OSM   C14F11744   1.145   0.249  22.265  0.4152 -0.2095  0.1308
  113OSM   H14F11745   1.206   0.297  22.345 -1.7319  0.5226  1.4277
  113OSM   H14G11746   1.212   0.165  22.237  1.3006  0.2497  0.8208
  113OSM   C15F11747   1.021   0.202  22.333 -0.9356  0.5773 -1.0248
  113OSM   H15F11748   0.938   0.167  22.269 -0.1494 -2.0464 -0.7368
  113OSM   H15G11749   0.991   0.295  22.386  1.5628 -0.1960  2.0454
  113OSM   C16F11750   1.039   0.083  22.436  0.1179 -0.5245 -0.2143
  113OSM   H16F11751   1.030  -0.010  22.376 -0.2517 -0.2680 -0.5657
  113OSM   H16G11752   0.947   0.084  22.499  0.3880 -2.1882  0.2448
  113OSM   C17F11753   1.174   0.078  22.514  0.2577  0.4536 -0.0528
  113OSM   H17F11754   1.177   0.178  22.562 -1.5964  1.1261 -1.2286
  113OSM   H17G11755   1.255   0.062  22.440  0.5629 -0.4808  0.4649
  113OSM   C18F11756   1.192  -0.038  22.610 -0.1922 -0.3341  0.3617
  113OSM   H18F11757   1.153  -0.013  22.711  0.1979 -0.2030  0.4800
  113OSM   H18G11758   1.302  -0.049  22.614 -0.0212  1.2795  0.9760
  113OSM   H18H11759   1.151  -0.137  22.579 -2.7476  0.8069 -0.1595
  114OSM      N11760   2.475   1.301  26.372 -0.6789 -0.2249  0.3084
  114OSM    C1511761   2.451   1.395  26.491  0.6963  0.4421  0.3102
  114OSM   H15A11762   2.408   1.342  26.575  1.2479 -0.2563  0.1650
  114OSM   H15B11763   2.383   1.473  26.460  0.9489 -0.2250 -2.1659
  114OSM   H15C11764   2.548   1.427  26.526  0.8069 -1.7567  2.2679
  114OSM    C1411765   2.596   1.221  26.407  0.5371  0.4731 -0.6718
  114OSM   H14A11766   2.570   1.165  26.495  1.4036  0.1142 -0.6316
  114OSM   H14B11767   2.679   1.285  26.430  0.5801 -0.5713  2.4858
  114OSM   H14C11768   2.616   1.154  26.324  0.2970  0.2928 -0.5839
  114OSM    C1311769   2.357   1.217  26.351  1.2732 -0.5987  0.1952
  114OSM   H13A11770   2.379   1.139  26.280 -0.2392  0.9966 -2.2038
  114OSM   H13B11771   2.273   1.281  26.325  2.2339  1.1366  1.1532
  114OSM   H13C11772   2.327   1.174  26.446 -1.9338  0.0516 -0.4128
  114OSM    C1211773   2.506   1.392  26.254 -0.0178  0.1160 -0.0346
  114OSM   H12A11774   2.571   1.474  26.281 -0.1577  0.3578 -0.4226
  114OSM   H12B11775   2.412   1.441  26.232  0.1647  1.3539  1.7203
  114OSM    C1111776   2.558   1.332  26.119 -0.2369  0.5655  0.6860
  114OSM   H11A11777   2.658   1.298  26.151 -0.2765  1.2432  1.5749
  114OSM   H11B11778   2.573   1.411  26.041  1.5005 -1.2952 -0.9782
  114OSM      P11779   2.531   1.089  26.013  0.2922 -0.4187 -0.5577
  114OSM    O1311780   2.680   1.107  25.999 -0.2071 -0.0077  0.4426
  114OSM    O1411781   2.497   0.977  26.103 -0.0473 -0.4281  0.5338
  114OSM    O1111782   2.471   1.071  25.874  0.3168 -0.4565 -0.6790
  114OSM    O1211783   2.469   1.222  26.074  0.3403 -0.1982 -0.7362
  114OSM    C1S11784   2.411   1.180  25.800  0.2761 -0.6591  0.7731
  114OSM    H1S11785   2.456   1.279  25.822  1.5949 -0.9961 -0.2708
  114OSM    H1T11786   2.303   1.185  25.825  0.1131 -1.8072  0.3812
  114OSM     NF11787   2.420   1.297  25.580  0.5708 -0.0568 -0.2119
  114OSM    HNF11788   2.337   1.305  25.525 -0.0686 -0.4828  0.6671
  114OSM    C2S11789   2.430   1.164  25.641 -0.6212 -0.0789  0.9566
  114OSM    H2S11790   2.539   1.146  25.624 -0.4543 -0.8706  2.6102
  114OSM    C3S11791   2.359   1.046  25.576 -1.0258 -0.5201  0.0432
  114OSM    H3S11792   2.250   1.053  25.597 -1.1194  0.1521 -0.6077
  114OSM     O311793   2.406   0.929  25.629 -0.1674 -0.5173 -0.0163
  114OSM    HO311794   2.438   0.941  25.719  2.5640 -2.3152 -0.6306
  114OSM    C4S11795   2.379   1.041  25.430 -0.2438 -0.3256  0.3706
  114OSM    H4S11796   2.472   0.990  25.398  0.4156  0.3330  1.1726
  114OSM    C5S11797   2.282   1.077  25.341 -0.4939 -0.8162 -0.2177
  114OSM    H5S11798   2.191   1.121  25.386 -0.2532  1.2427 -1.6267
  114OSM    C6S11799   2.284   1.065  25.188 -0.0569  0.6178  0.1101
  114OSM    H6S11800   2.301   1.168  25.149 -0.4837  0.0179 -1.7513
  114OSM    H6T11801   2.189   1.020  25.152 -0.6378  2.0418 -0.2168
  114OSM    C7S11802   2.410   0.979  25.147  0.7179  0.5178 -0.5744
  114OSM    H7S11803   2.402   0.880  25.197  0.8371  0.3372 -0.9097
  114OSM    H7T11804   2.502   1.033  25.179 -0.1914  2.2496 -0.7372
  114OSM    C8S11805   2.422   0.944  24.999 -0.1084 -0.7515 -1.0844
  114OSM    H8S11806   2.329   0.902  24.955 -0.3876 -0.4898 -0.7376
  114OSM    H8T11807   2.487   0.854  25.000  1.8543  0.6042  0.1775
  114OSM    C9S11808   2.500   1.049  24.919  0.1988 -0.6146  0.7489
  114OSM    H9S11809   2.592   1.079  24.973  1.9669 -1.9467 -1.3606
  114OSM    H9T11810   2.439   1.140  24.900 -1.2450 -1.7711 -0.3680
  114OSM   C10S11811   2.550   0.989  24.783 -0.5977  0.1808 -0.8474
  114OSM   H10S11812   2.601   0.896  24.817 -1.3755  0.5021  1.3862
  114OSM   H10T11813   2.618   1.059  24.732 -1.2853  0.7945 -0.9344
  114OSM   C11S11814   2.446   0.953  24.680 -0.2022 -0.3340  0.3257
  114OSM   H11S11815   2.395   1.042  24.636  2.1537  0.9678  0.0612
  114OSM   H11T11816   2.363   0.894  24.724 -1.1135  0.2888 -0.5180
  114OSM   C12S11817   2.503   0.864  24.564  0.2299 -0.5214  0.4192
  114OSM   H12S11818   2.514   0.760  24.599 -0.3542 -0.3749  1.0577
  114OSM   H12T11819   2.602   0.904  24.535 -0.2105  1.7552  1.7169
  114OSM   C13S11820   2.411   0.854  24.436 -0.4749 -0.1186  0.4994
  114OSM   H13S11821   2.309   0.824  24.468  0.1352 -0.8049  1.8640
  114OSM   H13T11822   2.462   0.788  24.361 -2.2843 -0.1520 -0.7622
  114OSM   C14S11823   2.394   0.990  24.372 -0.6224  0.4078  0.2157
  114OSM   H14S11824   2.493   1.019  24.332  0.0922 -0.7930  1.0351
  114OSM   H14T11825   2.365   1.067  24.446  2.0178  1.1214  0.5884
  114OSM   C15S11826   2.292   0.994  24.249 -0.7922 -0.2169 -0.3666
  114OSM   H15S11827   2.193   0.987  24.299 -0.6089  3.3468  0.7248
  114OSM   H15T11828   2.312   0.901  24.191 -1.1240 -1.2466  1.1245
  114OSM   C16S11829   2.303   1.121  24.179  0.0988 -0.0671  0.1475
  114OSM   H16S11830   2.249   1.115  24.082 -0.5174 -0.1705  0.4970
  114OSM   H16T11831   2.413   1.123  24.163 -0.0310 -2.8883 -1.8169
  114OSM   C17S11832   2.262   1.237  24.271  0.3551 -0.6061 -0.1891
  114OSM   H17S11833   2.347   1.249  24.342  0.1211  2.1337 -0.2816
  114OSM   H17T11834   2.167   1.209  24.321 -0.4836  0.8354 -0.9098
  114OSM   C18S11835   2.243   1.371  24.196 -0.1644  0.3793  0.2352
  114OSM   H18S11836   2.227   1.446  24.277  1.9299  1.6153 -0.4175
  114OSM   H18T11837   2.158   1.360  24.125 -0.0940 -0.5342  0.2872
  114OSM   H18U11838   2.338   1.396  24.144 -0.0835  0.6542  0.5096
  114OSM    C1F11839   2.503   1.404  25.601 -0.1932  0.1184  0.2412
  114OSM     OF11840   2.606   1.393  25.671  0.0807 -0.1359 -0.2600
  114OSM    C2F11841   2.473   1.535  25.537  0.4520 -0.1829  0.1724
  114OSM    H2F11842   2.558   1.596  25.574  0.3304 -0.3728  0.7808
  114OSM    H2G11843   2.376   1.568  25.580 -0.2258  0.0017 -1.4313
  114OSM    C3F11844   2.472   1.539  25.382 -0.1374 -0.1769 -0.2347
  114OSM    H3F11845   2.563   1.495  25.336 -0.6631 -1.3877 -0.1627
  114OSM    H3G11846   2.486   1.644  25.349  1.8302 -0.5200 -0.5775
  114OSM    C4F11847   2.351   1.480  25.316 -0.2040  0.1407  0.6501
  114OSM    H4F11848   2.266   1.530  25.367  0.3041  0.9612  0.7192
  114OSM    H4G11849   2.331   1.375  25.345 -0.2901  0.4953  1.9425
  114OSM    C5F11850   2.337   1.492  25.165 -0.1813 -0.7314  0.2562
  114OSM    H5F11851   2.404   1.420  25.113 -1.2460 -1.4210 -0.2066
  114OSM    H5G11852   2.363   1.596  25.137 -0.4802 -0.8625 -0.5552
  114OSM    C6F11853   2.195   1.449  25.112 -0.3331 -0.0254  0.5190
  114OSM    H6F11854   2.139   1.531  25.161 -0.4566 -0.7652  1.6689
  114OSM    H6G11855   2.160   1.353  25.157 -1.0129  0.3596  0.8263
  114OSM    C7F11856   2.173   1.462  24.964 -0.1605 -0.8221 -0.1795
  114OSM    H7F11857   2.221   1.558  24.935 -2.6724  0.2991 -0.8839
  114OSM    H7G11858   2.064   1.470  24.947 -0.0642  1.4039 -0.1508
  114OSM    C8F11859   2.228   1.355  24.872 -0.2044  0.0933 -0.3721
  114OSM    H8F11860   2.209   1.262  24.930 -1.5899  1.5648  1.6989
  114OSM    H8G11861   2.338   1.372  24.870 -0.2927  0.5992 -2.0058
  114OSM    C9F11862   2.176   1.356  24.739  0.1971  0.1613  0.4293
  114OSM    H9F11863   2.193   1.435  24.665  1.4817 -1.2269 -0.8083
  114OSM   C10F11864   2.126   1.243  24.678 -0.2336  0.4576 -0.0956
  114OSM   H10F11865   2.081   1.260  24.579 -1.4924 -0.8919  0.1967
  114OSM   C11F11866   2.110   1.103  24.740  0.2829 -0.2209  0.0977
  114OSM   H11F11867   2.207   1.079  24.790  0.8745  0.7406 -0.5437
  114OSM   H11G11868   2.097   1.028  24.659  0.7318 -1.9021  1.5184
  114OSM   C12F11869   1.990   1.095  24.837 -0.0940 -0.5710  0.0138
  114OSM   H12F11870   2.013   1.156  24.927  1.1603 -1.0536  0.0375
  114OSM   H12G11871   1.980   0.993  24.878 -1.4499 -1.3699 -2.0977
  114OSM   C13F11872   1.854   1.123  24.770 -1.1684  0.0909  0.2311
  114OSM   H13F11873   1.844   1.232  24.750 -0.8229  0.1752  0.5146
  114OSM   H13G11874   1.779   1.097  24.847 -0.2373 -1.5269  0.6329
  114OSM   C14F11875   1.818   1.043  24.643  0.8784 -0.6093 -0.2192
  114OSM   H14F11876   1.804   0.936  24.671  0.6537 -0.4061  0.4728
  114OSM   H14G11877   1.891   1.056  24.561 -0.9369  0.3835 -1.7418
  114OSM   C15F11878   1.686   1.109  24.596  0.5715  0.7874 -0.4157
  114OSM   H15F11879   1.710   1.217  24.590 -0.3433  1.0685  0.5783
  114OSM   H15G11880   1.618   1.099  24.684  0.8396 -0.9443 -0.3679
  114OSM   C16F11881   1.628   1.061  24.466 -0.0060 -0.1899  0.3250
  114OSM   H16F11882   1.592   0.956  24.463 -1.4669  0.2587  1.0715
  114OSM   H16G11883   1.710   1.061  24.391 -0.8665 -1.3991 -0.6561
  114OSM   C17F11884   1.520   1.154  24.418  0.3397 -0.3269  0.6667
  114OSM   H17F11885   1.567   1.254  24.412  1.0244 -0.7286 -2.1575
  114OSM   H17G11886   1.431   1.156  24.485 -0.6030  1.7550 -0.5205
  114OSM   C18F11887   1.462   1.122  24.281  0.1870 -0.1759 -0.3845
  114OSM   H18F11888   1.499   1.204  24.217  1.6974 -0.4808  0.0496
  114OSM   H18G11889   1.352   1.113  24.297  0.2607 -0.0813  0.2352
  114OSM   H18H11890   1.519   1.035  24.244 -1.0511  0.2773 -3.6323
  115OSM      N11891   1.460   1.825  19.026 -0.3764  0.8082  0.4262
  115OSM    C1511892   1.385   1.705  18.978 -0.2291 -0.0255  0.1349
  115OSM   H15A11893   1.445   1.628  18.933 -0.8438 -2.3312  2.9576
  115OSM   H15B11894   1.306   1.728  18.909  0.7565  1.2947 -0.6120
  115OSM   H15C11895   1.348   1.660  19.069 -0.2137 -0.2456  0.0319
  115OSM    C1411896   1.516   1.902  18.913  0.4278  0.4146 -0.2097
  115OSM   H14A11897   1.444   1.974  18.879 -0.2930  0.0049  0.4273
  115OSM   H14B11898   1.561   1.843  18.835 -0.4197 -1.3304  0.5777
  115OSM   H14C11899   1.599   1.966  18.941  1.3705 -0.8759  0.0444
  115OSM    C1311900   1.371   1.910  19.109  0.9397  0.1544  0.0699
  115OSM   H13A11901   1.334   1.845  19.187 -0.8146 -0.6594 -1.3685
  115OSM   H13B11902   1.288   1.957  19.058  0.5158  0.0270  0.6324
  115OSM   H13C11903   1.426   1.995  19.148 -1.0960  0.5792  2.2558
  115OSM    C1211904   1.575   1.774  19.115  0.4787 -0.8114  0.6620
  115OSM   H12A11905   1.650   1.850  19.129 -0.6803  0.5922 -0.4038
  115OSM   H12B11906   1.620   1.694  19.058 -1.2713 -1.5045  0.1753
  115OSM    C1111907   1.522   1.727  19.257  0.4494  0.2168 -0.3192
  115OSM   H11A11908   1.420   1.687  19.241  0.4302  0.7641 -1.7565
  115OSM   H11B11909   1.514   1.823  19.314  2.3789  1.4677 -2.0057
  115OSM      P11910   1.609   1.587  19.470 -0.1625 -0.2765 -0.0065
  115OSM    O1311911   1.700   1.470  19.474  0.2448 -0.2636 -0.0017
  115OSM    O1411912   1.658   1.708  19.544  0.1748 -0.3742 -0.5849
  115OSM    O1111913   1.457   1.549  19.516  0.1006 -0.2253  0.4006
  115OSM    O1211914   1.598   1.620  19.317 -0.1227  0.1150 -0.3203
  115OSM    C1S11915   1.389   1.435  19.464 -0.0981 -0.2083  0.6759
  115OSM    H1S11916   1.396   1.429  19.354  0.2658  3.7370  0.3614
  115OSM    H1T11917   1.281   1.455  19.485  0.1502  1.6139  0.3221
  115OSM     NF11918   1.357   1.195  19.456 -0.2320  0.3143 -0.2407
  115OSM    HNF11919   1.263   1.178  19.485 -0.6869  1.3159 -1.0380
  115OSM    C2S11920   1.424   1.298  19.533 -0.4865  0.3737  0.3137
  115OSM    H2S11921   1.533   1.278  19.527 -0.6278  0.0251 -2.5962
  115OSM    C3S11922   1.375   1.304  19.682 -0.1849  0.1185 -0.2047
  115OSM    H3S11923   1.266   1.327  19.680 -0.5734 -1.6055 -1.3326
  115OSM     O311924   1.450   1.400  19.766  0.0838 -0.1835  0.1760
  115OSM    HO311925   1.521   1.414  19.704 -1.1289  1.4404 -0.9337
  115OSM    C4S11926   1.381   1.161  19.742 -0.6874 -0.4319  0.0456
  115OSM    H4S11927   1.467   1.103  19.705 -1.0825 -0.7297 -0.4173
  115OSM    C5S11928   1.294   1.093  19.820  0.4962 -0.1106 -1.2951
  115OSM    H5S11929   1.214   1.147  19.871 -0.2944  0.0315 -2.6586
  115OSM    C6S11930   1.306   0.947  19.867 -0.6942 -0.6845  0.7743
  115OSM    H6S11931   1.216   0.913  19.922 -0.3196  2.6064  3.7453
  115OSM    H6T11932   1.388   0.943  19.942 -2.9949  0.6824  3.5390
  115OSM    C7S11933   1.342   0.847  19.751 -0.1456  0.2269  0.5364
  115OSM    H7S11934   1.442   0.882  19.717 -0.4617  1.5479  0.9358
  115OSM    H7T11935   1.272   0.844  19.665  3.7848 -0.7186 -2.9257
  115OSM    C8S11936   1.350   0.706  19.805 -0.5402  0.5893  0.1643
  115OSM    H8S11937   1.378   0.714  19.912 -3.3729  1.1488  0.9665
  115OSM    H8T11938   1.430   0.651  19.751 -1.3791  0.1994 -0.7266
  115OSM    C9S11939   1.219   0.626  19.799 -0.4371  0.3712 -0.5633
  115OSM    H9S11940   1.185   0.621  19.693  1.0363 -0.6992 -1.0210
  115OSM    H9T11941   1.139   0.682  19.851  1.6377  2.4940  0.5356
  115OSM   C10S11942   1.235   0.477  19.852  0.4351 -0.3554  0.0295
  115OSM   H10S11943   1.241   0.490  19.962 -1.9349  0.8369  0.0677
  115OSM   H10T11944   1.321   0.419  19.812  0.5195  0.9457 -1.8020
  115OSM   C11S11945   1.108   0.397  19.831 -0.0331  0.1420  0.3323
  115OSM   H11S11946   1.075   0.394  19.725 -0.3931 -0.1975  0.4503
  115OSM   H11T11947   1.020   0.436  19.887 -0.8828 -0.7244 -0.3508
  115OSM   C12S11948   1.135   0.253  19.880 -0.1930  0.2788  0.0255
  115OSM   H12S11949   1.189   0.262  19.976 -0.7864 -0.5936  0.4536
  115OSM   H12T11950   1.211   0.212  19.810  0.5278 -1.5570  1.7911
  115OSM   C13S11951   1.004   0.174  19.903 -0.3584 -0.7593 -0.0280
  115OSM   H13S11952   0.929   0.186  19.822 -1.6424 -0.0174  1.2231
  115OSM   H13T11953   0.959   0.217  19.995 -0.1467 -0.2061 -0.1774
  115OSM   C14S11954   1.041   0.026  19.915 -0.2377  0.0769  0.4624
  115OSM   H14S11955   1.119   0.014  19.993  0.7075 -2.5090 -0.7683
  115OSM   H14T11956   1.084   0.006  19.815 -0.1717 -0.3626  0.5772
  115OSM   C15S11957   0.915  -0.056  19.933  0.2041  0.0603  0.0692
  115OSM   H15S11958   0.836  -0.028  19.861  0.3134  1.4828  0.4798
  115OSM   H15T11959   0.868  -0.041  20.032 -2.0166 -1.2879 -0.7091
  115OSM   C16S11960   0.945  -0.208  19.905  0.2974  1.1611 -0.8746
  115OSM   H16S11961   0.854  -0.270  19.915  0.5461  0.9856  0.5011
  115OSM   H16T11962   1.012  -0.246  19.985 -1.0245 -1.4363 -0.9211
  115OSM   C17S11963   0.988  -0.232  19.765 -0.5029  0.3752  0.5326
  115OSM   H17S11964   1.093  -0.206  19.736 -0.2306 -0.6206  0.5827
  115OSM   H17T11965   0.921  -0.177  19.696 -3.3325 -2.5433  0.7263
  115OSM   C18S11966   0.975  -0.386  19.722  0.0751 -0.2521  0.1314
  115OSM   H18S11967   0.995  -0.404  19.614 -0.4330  1.6219 -0.3126
  115OSM   H18T11968   0.868  -0.417  19.727 -0.1373  0.1658 -1.4885
  115OSM   H18U11969   1.039  -0.452  19.785  1.3323  2.6717  2.1197
  115OSM    C1F11970   1.399   1.141  19.343 -0.6728 -0.1925 -0.4287
  115OSM     OF11971   1.497   1.178  19.275  0.2714  0.3250 -0.6418
  115OSM    C2F11972   1.316   1.035  19.277  1.0109  1.0332  0.4786
  115OSM    H2F11973   1.352   1.043  19.172  1.9652  4.0782  0.9499
  115OSM    H2G11974   1.210   1.067  19.282 -0.8979 -4.1992  0.1295
  115OSM    C3F11975   1.337   0.899  19.346 -0.3094  0.2520 -0.6323
  115OSM    H3F11976   1.316   0.900  19.455 -2.6322 -0.5091 -1.0190
  115OSM    H3G11977   1.441   0.860  19.337 -0.4815 -1.8289  3.7932
  115OSM    C4F11978   1.247   0.790  19.294  0.4791  0.5922 -0.4994
  115OSM    H4F11979   1.267   0.774  19.186  0.1027  2.9761 -0.9781
  115OSM    H4G11980   1.142   0.825  19.301  0.0225 -0.5593 -1.4311
  115OSM    C5F11981   1.238   0.663  19.377 -0.0798 -0.4826  0.3951
  115OSM    H5F11982   1.251   0.672  19.487 -0.2511 -2.6201  0.6365
  115OSM    H5G11983   1.329   0.605  19.349  1.1650  0.4927  2.2708
  115OSM    C6F11984   1.112   0.582  19.352  0.2887  0.1223  0.6812
  115OSM    H6F11985   1.102   0.562  19.243 -1.2462  2.3629  0.3468
  115OSM    H6G11986   1.024   0.645  19.377  0.8620  1.4770 -0.5307
  115OSM    C7F11987   1.125   0.450  19.430  0.0971 -0.0775 -0.0941
  115OSM    H7F11988   1.154   0.455  19.537  0.2688  0.0699 -0.1467
  115OSM    H7G11989   1.202   0.392  19.376  0.8896  1.1729 -0.3648
  115OSM    C8F11990   0.992   0.366  19.429 -0.1705 -0.6175  0.4294
  115OSM    H8F11991   0.915   0.428  19.480  2.8197  2.2716  1.8279
  115OSM    H8G11992   1.026   0.283  19.494 -0.4651  0.4563  2.0100
  115OSM    C9F11993   0.953   0.328  19.290 -0.7846 -0.0459  0.3858
  115OSM    H9F11994   0.947   0.413  19.220  1.6202 -0.4492 -0.3905
  115OSM   C10F11995   0.914   0.208  19.242 -0.1718 -0.5971 -0.1717
  115OSM   H10F11996   0.876   0.196  19.140 -1.3941 -2.7158  0.4550
  115OSM   C11F11997   0.908   0.082  19.335 -0.1259  0.1598 -0.1345
  115OSM   H11F11998   0.817   0.082  19.399 -0.0061  1.6519  0.0814
  115OSM   H11G11999   0.981   0.070  19.418 -2.7317 -1.6216  2.1049
  115OSM   C12F12000   0.931  -0.038  19.245  0.1293  0.2029  0.1436
  115OSM   H12F12001   1.031  -0.023  19.200 -0.4496  0.4915 -1.0965
  115OSM   H12G12002   0.860  -0.049  19.160 -0.8578 -2.2593  1.1800
  115OSM   C13F12003   0.922  -0.172  19.325 -0.5226  0.7890 -0.0702
  115OSM   H13F12004   0.821  -0.190  19.366  0.3992  1.7281  2.8907
  115OSM   H13G12005   0.998  -0.183  19.406 -0.0362  1.3132 -0.4468
  115OSM   C14F12006   0.939  -0.291  19.230  0.0502  0.6155 -0.7827
  115OSM   H14F12007   1.037  -0.288  19.178  1.2994  0.1511  1.4034
  115OSM   H14G12008   0.868  -0.279  19.146  1.5345  0.5113 -2.1017
  115OSM   C15F12009   0.930  -0.431  19.301  0.6001 -0.2595  0.4698
  115OSM   H15F12010   0.832  -0.454  19.349 -0.2313  0.1192 -0.9788
  115OSM   H15G12011   1.009  -0.433  19.379  1.3803  1.8112 -0.1788
  115OSM   C16F12012   0.935  -0.554  19.202  0.4110 -0.2576  0.3985
  115OSM   H16F12013   1.011  -0.526  19.126  0.0056  0.4280  0.2285
  115OSM   H16G12014   0.835  -0.558  19.153 -0.3073  0.7599  1.6907
  115OSM   C17F12015   0.974  -0.685  19.267  0.3498 -1.4244 -0.3593
  115OSM   H17F12016   0.892  -0.708  19.339  1.6101  1.5185  2.2537
  115OSM   H17G12017   1.064  -0.670  19.330  0.4129 -0.3153 -0.6811
  115OSM   C18F12018   0.979  -0.809  19.176  0.4462 -0.3162 -0.2393
  115OSM   H18F12019   1.021  -0.896  19.231 -0.5872 -0.0561  0.9936
  115OSM   H18G12020   1.042  -0.789  19.086  0.2432  0.9084 -0.1230
  115OSM   H18H12021   0.872  -0.826  19.151 -0.0288  1.9182  0.0679
  116OSM      N12022   2.257   1.575  22.344  0.0915  0.4483  0.5153
  116OSM    C1512023   2.241   1.427  22.340 -0.0354  0.4412  0.4721
  116OSM   H15A12024   2.217   1.390  22.438  2.0183 -0.6968  0.5931
  116OSM   H15B12025   2.332   1.384  22.300 -1.0161  0.6547 -2.2361
  116OSM   H15C12026   2.164   1.403  22.268  2.4756  2.4598 -3.2205
  116OSM    C1412027   2.314   1.615  22.209  0.6192  1.3156 -0.2829
  116OSM   H14A12028   2.234   1.600  22.138  2.6379 -1.4469 -2.2084
  116OSM   H14B12029   2.406   1.564  22.186  0.1450 -1.3841  2.9120
  116OSM   H14C12030   2.340   1.719  22.198  1.4433  0.9902 -1.6410
  116OSM    C1312031   2.126   1.640  22.372  0.3899 -0.0667 -0.2595
  116OSM   H13A12032   2.090   1.661  22.272  0.2722  2.6839  0.2705
  116OSM   H13B12033   2.137   1.741  22.409 -1.2987  0.3994 -0.9358
  116OSM   H13C12034   2.067   1.583  22.442 -1.0942  1.0238 -0.5763
  116OSM    C1212035   2.365   1.601  22.448  0.5301 -0.5774 -0.2336
  116OSM   H12A12036   2.456   1.566  22.401 -0.3630 -0.5645 -2.0258
  116OSM   H12B12037   2.359   1.552  22.545  0.8174  0.7705  0.4838
  116OSM    C1112038   2.389   1.747  22.483  0.4122 -0.6940  0.3835
  116OSM   H11A12039   2.412   1.800  22.387 -1.7728  0.7886  0.6104
  116OSM   H11B12040   2.481   1.759  22.544 -0.1623 -0.3568  1.2007
  116OSM      P12041   2.224   1.759  22.701  0.3973 -0.0107 -0.4360
  116OSM    O1312042   2.320   1.809  22.798  0.1014 -0.1852  0.4154
  116OSM    O1412043   2.086   1.816  22.717 -0.2844  0.5246  0.3048
  116OSM    O1112044   2.220   1.602  22.701  0.6941  0.3086  0.3322
  116OSM    O1212045   2.279   1.805  22.557  0.4952  0.1962 -0.6152
  116OSM    C1S12046   2.097   1.529  22.716  0.1115  0.3876 -0.5702
  116OSM    H1S12047   2.044   1.510  22.620 -0.2948  1.0646 -0.4899
  116OSM    H1T12048   2.026   1.575  22.788  1.8297  0.1859  1.3482
  116OSM     NF12049   2.005   1.306  22.769  0.4453 -0.2240 -0.0853
  116OSM    HNF12050   1.951   1.280  22.848  1.5577 -0.9592  0.4756
  116OSM    C2S12051   2.120   1.387  22.782 -0.8684  0.1792 -0.4364
  116OSM    H2S12052   2.208   1.340  22.732 -0.1900 -0.0960  0.9721
  116OSM    C3S12053   2.154   1.413  22.930 -0.9760 -0.0291  0.4867
  116OSM    H3S12054   2.074   1.463  22.988  0.7854  1.1962  2.0040
  116OSM     O312055   2.265   1.497  22.935 -0.1251 -0.2902 -0.0857
  116OSM    HO312056   2.267   1.549  22.854 -0.6493 -1.1015 -0.6300
  116OSM    C4S12057   2.184   1.291  23.013 -0.5298  0.1442  0.4468
  116OSM    H4S12058   2.098   1.257  23.073  1.5221 -2.1178  2.3514
  116OSM    C5S12059   2.299   1.217  23.025  0.9279 -0.1929 -0.4674
  116OSM    H5S12060   2.388   1.243  22.965  1.1586 -1.0810 -0.5131
  116OSM    C6S12061   2.314   1.096  23.113 -1.0199  0.7483 -0.3941
  116OSM    H6S12062   2.352   1.125  23.213 -0.4740 -0.3902 -0.2569
  116OSM    H6T12063   2.406   1.041  23.084  0.1976  1.4293  1.8932
  116OSM    C7S12064   2.188   1.013  23.131  0.4826  0.6148 -0.3175
  116OSM    H7S12065   2.138   0.990  23.034 -0.0628  0.7362 -0.0721
  116OSM    H7T12066   2.126   1.070  23.204  0.9159  0.2710  0.3230
  116OSM    C8S12067   2.224   0.880  23.197  0.3353  0.6266 -0.2309
  116OSM    H8S12068   2.311   0.877  23.267  1.0908 -2.0455 -1.1401
  116OSM    H8T12069   2.264   0.818  23.114 -0.9434 -3.7946  2.1023
  116OSM    C9S12070   2.114   0.797  23.264 -0.6746 -0.0182 -0.1152
  116OSM    H9S12071   2.167   0.706  23.299 -1.2921  0.1561  1.3559
  116OSM    H9T12072   2.032   0.770  23.195 -0.8068 -0.9022  0.3618
  116OSM   C10S12073   2.067   0.860  23.401 -0.0742  0.0052  0.0955
  116OSM   H10S12074   2.025   0.961  23.383  1.8086  0.9249  0.5561
  116OSM   H10T12075   2.154   0.873  23.469 -0.4362  0.0990  0.5450
  116OSM   C11S12076   1.964   0.779  23.478  0.2135  0.3351  0.4752
  116OSM   H11S12077   2.008   0.681  23.505  0.4461 -0.1915 -1.7055
  116OSM   H11T12078   1.881   0.756  23.409 -0.4325 -0.4883  1.4873
  116OSM   C12S12079   1.922   0.848  23.608 -0.6314 -0.2446  0.0301
  116OSM   H12S12080   1.862   0.938  23.581 -1.3954 -1.3273 -2.0761
  116OSM   H12T12081   2.002   0.864  23.683 -0.5893 -5.4309  1.4322
  116OSM   C13S12082   1.806   0.764  23.681  0.5330 -0.3409 -0.3856
  116OSM   H13S12083   1.723   0.738  23.612  0.6083  1.3720 -1.1795
  116OSM   H13T12084   1.762   0.829  23.760 -1.2027  1.0353 -2.3677
  116OSM   C14S12085   1.845   0.630  23.734  0.6733  0.7622  0.3704
  116OSM   H14S12086   1.948   0.652  23.770  1.9117 -2.6110 -0.7956
  116OSM   H14T12087   1.850   0.550  23.658 -2.1029  0.9042 -0.0472
  116OSM   C15S12088   1.760   0.562  23.847 -0.2034  0.4113 -0.7968
  116OSM   H15S12089   1.664   0.524  23.806  0.6255 -2.2236 -0.4218
  116OSM   H15T12090   1.743   0.636  23.929  0.5227  3.5853 -3.2872
  116OSM   C16S12091   1.835   0.443  23.902  0.4597 -0.1901 -0.3785
  116OSM   H16S12092   1.775   0.398  23.985 -0.6299  1.3145 -0.3251
  116OSM   H16T12093   1.929   0.487  23.942  1.0926 -1.0110 -0.9287
  116OSM   C17S12094   1.862   0.319  23.820  0.1450 -0.2699  0.4682
  116OSM   H17S12095   1.896   0.228  23.874 -2.0126 -2.4378 -1.5778
  116OSM   H17T12096   1.945   0.344  23.751 -0.7357  3.7708  0.6509
  116OSM   C18S12097   1.731   0.272  23.747 -0.6559  1.2231 -0.4122
  116OSM   H18S12098   1.752   0.195  23.669  0.4543  1.1485 -0.0488
  116OSM   H18T12099   1.667   0.355  23.711  1.2837  2.6821 -0.6574
  116OSM   H18U12100   1.664   0.218  23.818 -0.5972  0.3196 -1.0288
  116OSM    C1F12101   1.973   1.254  22.648  0.1570 -0.2946  0.6558
  116OSM     OF12102   2.044   1.281  22.554 -0.4488  0.2957 -0.0788
  116OSM    C2F12103   1.850   1.163  22.646  0.4185  0.6049  0.0685
  116OSM    H2F12104   1.762   1.224  22.614  1.3380  1.5751 -0.6690
  116OSM    H2G12105   1.837   1.119  22.747 -0.7238 -1.3434 -0.8609
  116OSM    C3F12106   1.862   1.056  22.533 -0.0557 -0.1751 -0.4922
  116OSM    H3F12107   1.959   1.004  22.544  0.6136  0.9119 -1.0215
  116OSM    H3G12108   1.874   1.105  22.434  0.7937 -1.8556 -1.2594
  116OSM    C4F12109   1.745   0.956  22.542  0.0436  0.2041  0.5753
  116OSM    H4F12110   1.649   1.005  22.571  0.4278  0.0407  2.2705
  116OSM    H4G12111   1.776   0.887  22.624 -0.6816  1.1708  1.7069
  116OSM    C5F12112   1.724   0.859  22.416  0.1243 -0.3766 -0.0826
  116OSM    H5F12113   1.642   0.791  22.446 -0.7105  1.5164  2.1461
  116OSM    H5G12114   1.819   0.802  22.403  2.8575  3.6241  0.5380
  116OSM    C6F12115   1.682   0.925  22.280 -0.0141 -0.5454  0.0532
  116OSM    H6F12116   1.749   1.007  22.247 -0.1824 -0.5895 -0.4066
  116OSM    H6G12117   1.577   0.958  22.293  0.3172  0.7033 -0.2799
  116OSM    C7F12118   1.689   0.826  22.157  0.8373 -0.2684  0.3198
  116OSM    H7F12119   1.617   0.744  22.178 -0.4363  1.2222  2.1907
  116OSM    H7G12120   1.790   0.783  22.140  0.7343  0.5444 -2.7867
  116OSM    C8F12121   1.625   0.894  22.027 -0.0053 -0.2853  0.1345
  116OSM    H8F12122   1.665   0.998  22.030 -2.8059  0.8623  0.9795
  116OSM    H8G12123   1.516   0.898  22.047  0.1799  2.0422  1.0646
  116OSM    C9F12124   1.649   0.823  21.898 -0.0272  0.2670  0.3176
  116OSM    H9F12125   1.706   0.869  21.816 -0.2011  1.4744  0.8684
  116OSM   C10F12126   1.590   0.703  21.860 -0.1665 -0.6374  0.0151
  116OSM   H10F12127   1.606   0.670  21.756 -2.8652 -0.1763 -0.6072
  116OSM   C11F12128   1.507   0.620  21.949 -0.8107 -0.2809  0.1863
  116OSM   H11F12129   1.413   0.588  21.900 -2.6353  1.8638  2.0238
  116OSM   H11G12130   1.469   0.675  22.038  0.6122 -0.8078  1.1672
  116OSM   C12F12131   1.581   0.504  22.003  0.1695  0.0086 -0.3969
  116OSM   H12F12132   1.665   0.529  22.070 -0.4289  0.4160  0.2124
  116OSM   H12G12133   1.635   0.448  21.923  1.2121 -1.3540  1.1907
  116OSM   C13F12134   1.480   0.401  22.064 -0.6566 -0.0525 -0.2342
  116OSM   H13F12135   1.410   0.373  21.982 -0.2329 -0.9599 -0.2917
  116OSM   H13G12136   1.433   0.443  22.156  0.6680  2.6700 -0.7040
  116OSM   C14F12137   1.573   0.286  22.110  0.1418  0.8004 -0.0442
  116OSM   H14F12138   1.647   0.319  22.186 -0.1168 -2.7318  1.9288
  116OSM   H14G12139   1.626   0.247  22.020  0.4588  0.6286  0.2138
  116OSM   C15F12140   1.496   0.166  22.170  0.1138  0.0339 -0.6393
  116OSM   H15F12141   1.429   0.119  22.095 -1.3161  0.9569  0.0015
  116OSM   H15G12142   1.438   0.195  22.260  0.8362  0.0159 -0.1640
  116OSM   C16F12143   1.605   0.063  22.212 -0.7649 -0.6320 -0.7213
  116OSM   H16F12144   1.632   0.077  22.319 -2.0338  1.0323 -0.5827
  116OSM   H16G12145   1.696   0.080  22.149  0.5761 -0.0302  1.2948
  116OSM   C17F12146   1.567  -0.084  22.198 -0.0851  0.2296 -0.3571
  116OSM   H17F12147   1.566  -0.109  22.090  2.8892 -0.0856 -0.4016
  116OSM   H17G12148   1.463  -0.101  22.231  0.5679 -0.0965  1.6771
  116OSM   C18F12149   1.669  -0.180  22.264  0.7060  0.4074  0.4634
  116OSM   H18F12150   1.709  -0.126  22.353  0.3522  0.9347  0.3106
  116OSM   H18G12151   1.760  -0.196  22.203  0.0270  0.0922 -0.4947
  116OSM   H18H12152   1.617  -0.274  22.291  0.9128 -0.0926 -0.8219
  117OSM      N12153   2.048   1.926  18.302 -0.1583 -0.8182 -0.4010
  117OSM    C1512154   2.014   2.055  18.240  0.3857 -0.0598 -0.0557
  117OSM   H15A12155   1.990   2.121  18.323 -1.4350 -0.8084  0.0610
  117OSM   H15B12156   1.935   2.033  18.170  1.8187 -1.6262 -1.2541
  117OSM   H15C12157   2.087   2.096  18.172  1.7456 -1.8994  0.2265
  117OSM    C1412158   2.181   1.938  18.376 -0.2093  0.0742  0.4693
  117OSM   H14A12159   2.203   1.861  18.448  2.2261  1.6440  1.5231
  117OSM   H14B12160   2.175   2.031  18.430  0.4435  0.9780 -0.9560
  117OSM   H14C12161   2.263   1.949  18.306 -1.3935 -1.0582 -1.1768
  117OSM    C1312162   1.940   1.889  18.394 -0.1589 -0.3630  0.0712
  117OSM   H13A12163   1.962   1.796  18.444  0.1750 -1.1591 -1.5097
  117OSM   H13B12164   1.851   1.878  18.334 -0.2008 -0.9111  0.2304
  117OSM   H13C12165   1.920   1.960  18.474  1.3380  4.2914 -3.2653
  117OSM    C1212166   2.052   1.822  18.191  0.3243  0.1264  0.3751
  117OSM   H12A12167   2.086   1.727  18.229 -3.0347 -1.1225  0.6127
  117OSM   H12B12168   2.124   1.849  18.114 -1.4032  1.6470 -0.7996
  117OSM    C1112169   1.926   1.792  18.108 -0.1798  0.6130 -0.3816
  117OSM   H11A12170   1.954   1.722  18.026 -0.0400 -0.2659  0.3958
  117OSM   H11B12171   1.891   1.881  18.051 -2.6352  2.0642  3.0439
  117OSM      P12172   1.809   1.568  18.196  0.1084  0.3675 -0.1118
  117OSM    O1312173   1.931   1.504  18.236 -0.3712  0.1886 -0.0560
  117OSM    O1412174   1.689   1.510  18.264  0.3307 -0.2387  0.2458
  117OSM    O1112175   1.796   1.533  18.043  0.5948 -0.1330 -0.5802
  117OSM    O1212176   1.822   1.728  18.184 -0.7356  0.3335 -0.0720
  117OSM    C1S12177   1.670   1.558  17.974 -0.0915  0.0530 -0.2517
  117OSM    H1S12178   1.609   1.632  18.031  0.0683  0.2122 -0.2855
  117OSM    H1T12179   1.620   1.459  17.970 -0.5842  0.1973  1.4532
  117OSM     NF12180   1.553   1.642  17.762  0.2501  0.1842 -0.0838
  117OSM    HNF12181   1.521   1.593  17.681 -0.9165  0.1478  0.3789
  117OSM    C2S12182   1.690   1.609  17.822  0.6685 -0.5187 -0.1229
  117OSM    H2S12183   1.749   1.703  17.831 -1.9076  1.1659  0.3389
  117OSM    C3S12184   1.778   1.509  17.740  0.2096  0.2752 -0.4263
  117OSM    H3S12185   1.722   1.414  17.728 -0.0528  0.3759 -0.0120
  117OSM     O312186   1.903   1.462  17.795 -0.2264 -0.0284 -0.5904
  117OSM    HO312187   1.902   1.520  17.871 -0.7574  2.0609 -2.1003
  117OSM    C4S12188   1.805   1.559  17.601 -0.2597  0.3074  0.0866
  117OSM    H4S12189   1.834   1.665  17.596  0.8180 -0.0296 -2.0522
  117OSM    C5S12190   1.798   1.494  17.485  0.1525 -0.1221  0.6685
  117OSM    H5S12191   1.759   1.391  17.484  0.0205 -0.2399 -4.2708
  117OSM    C6S12192   1.826   1.561  17.348  0.2598  0.4504 -0.0902
  117OSM    H6S12193   1.897   1.504  17.284  1.2201  1.9315 -0.3950
  117OSM    H6T12194   1.868   1.662  17.366 -0.4979  0.7134  0.2345
  117OSM    C7S12195   1.698   1.589  17.272 -1.0080  0.2601 -0.1061
  117OSM    H7S12196   1.644   1.661  17.338  0.6009  0.6501  0.8425
  117OSM    H7T12197   1.642   1.495  17.256  1.5300 -1.1108 -1.5812
  117OSM    C8S12198   1.703   1.664  17.134 -0.2506 -0.0655  0.2337
  117OSM    H8S12199   1.603   1.692  17.095  1.0292  1.1965 -2.4387
  117OSM    H8T12200   1.757   1.597  17.063  1.0616 -0.0097  1.1425
  117OSM    C9S12201   1.788   1.794  17.140  0.0752 -0.1157 -0.0406
  117OSM    H9S12202   1.888   1.766  17.178 -0.9427 -1.1752  2.0571
  117OSM    H9T12203   1.758   1.861  17.223  2.5262 -0.3143  1.0998
  117OSM   C10S12204   1.764   1.870  17.006  0.3611 -0.7911  0.2262
  117OSM   H10S12205   1.654   1.880  16.995  0.2050  0.3224  2.2390
  117OSM   H10T12206   1.815   1.812  16.926 -0.4669 -2.6456  0.9887
  117OSM   C11S12207   1.835   2.014  16.992  0.6747 -0.1313 -1.1977
  117OSM   H11S12208   1.945   1.999  16.990  0.8024  0.5683 -0.2524
  117OSM   H11T12209   1.813   2.072  17.084  0.0066  2.0363 -2.6391
  117OSM   C12S12210   1.808   2.096  16.870  0.1795  0.0875 -0.2043
  117OSM   H12S12211   1.836   2.200  16.895  0.4210 -0.1507  0.5210
  117OSM   H12T12212   1.699   2.099  16.845  0.5466  1.9710 -1.7708
  117OSM   C13S12213   1.877   2.061  16.742 -0.4235  0.8286  0.3282
  117OSM   H13S12214   1.984   2.035  16.756 -0.6490 -0.3345  0.0200
  117OSM   H13T12215   1.873   2.144  16.668 -3.5484 -0.7081 -1.4299
  117OSM   C14S12216   1.794   1.949  16.673  0.2355  0.0906 -0.0477
  117OSM   H14S12217   1.686   1.975  16.676  0.2240  0.0030  0.3946
  117OSM   H14T12218   1.803   1.850  16.722 -3.2362 -0.9932 -1.2793
  117OSM   C15S12219   1.845   1.934  16.526  0.1492 -0.1709 -0.1073
  117OSM   H15S12220   1.798   2.018  16.472  1.0290  1.5866  1.7326
  117OSM   H15T12221   1.800   1.835  16.503 -1.4618  0.1750  1.3917
  117OSM   C16S12222   2.001   1.933  16.513 -0.4391 -0.0859  0.8405
  117OSM   H16S12223   2.033   1.866  16.596  0.5007 -0.0122  0.5570
  117OSM   H16T12224   2.038   2.037  16.528 -0.7954  0.4108 -1.2600
  117OSM   C17S12225   2.064   1.884  16.378 -0.6233  0.4081  0.2867
  117OSM   H17S12226   2.017   1.790  16.342  1.0938  0.6092 -2.7953
  117OSM   H17T12227   2.165   1.853  16.412 -1.5037 -0.4224  2.3567
  117OSM   C18S12228   2.082   1.981  16.265 -0.2408 -0.6399  0.0426
  117OSM   H18S12229   2.050   1.930  16.173 -2.6783 -0.7759  0.8956
  117OSM   H18T12230   2.185   2.024  16.262  0.4596 -2.2956 -1.6047
  117OSM   H18U12231   2.009   2.064  16.264  1.2385  0.7727  1.3999
  117OSM    C1F12232   1.473   1.734  17.823  0.3364 -0.2691  0.0491
  117OSM     OF12233   1.513   1.798  17.920  1.1353  0.3616  0.8565
  117OSM    C2F12234   1.335   1.753  17.767 -0.0126  0.7910  0.0700
  117OSM    H2F12235   1.275   1.789  17.853 -2.5146 -2.7017 -0.0009
  117OSM    H2G12236   1.286   1.660  17.730  0.0128  1.8952 -3.0003
  117OSM    C3F12237   1.328   1.851  17.654  0.0460  0.4809 -0.5837
  117OSM    H3F12238   1.374   1.945  17.691 -1.9683  1.0735  0.5511
  117OSM    H3G12239   1.221   1.858  17.623 -0.2628 -0.4736  0.2296
  117OSM    C4F12240   1.396   1.814  17.522 -0.2205 -0.0583  0.5489
  117OSM    H4F12241   1.412   1.704  17.516  1.1164  0.1600 -0.1991
  117OSM    H4G12242   1.502   1.845  17.529  0.0838 -1.2119  1.3968
  117OSM    C5F12243   1.343   1.902  17.407 -0.3981 -0.5399 -0.2423
  117OSM    H5F12244   1.277   1.980  17.452  0.4294  0.9404 -1.4973
  117OSM    H5G12245   1.288   1.833  17.340  1.0788 -1.7688 -0.2483
  117OSM    C6F12246   1.433   1.984  17.310 -0.4077 -0.9180 -0.1751
  117OSM    H6F12247   1.503   1.909  17.266  1.4010 -0.0227  1.0529
  117OSM    H6G12248   1.495   2.060  17.363  0.6755 -1.5479 -0.4955
  117OSM    C7F12249   1.352   2.052  17.207 -0.4454  0.0743  0.3447
  117OSM    H7F12250   1.299   2.140  17.251 -1.0859 -1.3411  2.5589
  117OSM    H7G12251   1.268   1.982  17.188  0.1693 -0.7096  0.5013
  117OSM    C8F12252   1.422   2.079  17.074  0.0445 -0.4206 -0.1966
  117OSM    H8F12253   1.451   1.977  17.040  1.3302  0.3726 -1.5846
  117OSM    H8G12254   1.522   2.121  17.103 -0.0648 -0.6924  0.6176
  117OSM    C9F12255   1.355   2.158  16.962 -0.1780 -0.5822  0.3695
  117OSM    H9F12256   1.357   2.267  16.979  0.3340 -0.7352  1.3006
  117OSM   C10F12257   1.293   2.109  16.855  0.4171  0.5636 -0.1847
  117OSM   H10F12258   1.238   2.186  16.799  0.5093  1.2818  0.6926
  117OSM   C11F12259   1.268   1.958  16.825  0.4692  0.4610 -1.2531
  117OSM   H11F12260   1.181   1.944  16.758  1.2506 -1.0466 -2.0089
  117OSM   H11G12261   1.248   1.899  16.916 -1.1710  2.7621 -0.0208
  117OSM   C12F12262   1.400   1.895  16.774 -0.0927 -0.1395  0.6126
  117OSM   H12F12263   1.472   1.876  16.856 -1.1295  1.6370  2.0042
  117OSM   H12G12264   1.454   1.964  16.705 -1.0906  0.7260  0.6732
  117OSM   C13F12265   1.363   1.764  16.706 -0.4376 -0.2824  0.5285
  117OSM   H13F12266   1.282   1.781  16.632  0.6696 -0.8907 -0.8711
  117OSM   H13G12267   1.335   1.694  16.788 -1.4732 -0.0863  0.3566
  117OSM   C14F12268   1.490   1.710  16.629 -1.0101 -0.1732  0.3969
  117OSM   H14F12269   1.549   1.663  16.711 -1.0126  1.2693  1.2671
  117OSM   H14G12270   1.550   1.789  16.580 -2.1815  1.8253  2.0141
  117OSM   C15F12271   1.467   1.588  16.527  0.2633 -0.6168  0.4810
  117OSM   H15F12272   1.407   1.629  16.442 -0.6229 -0.7809  1.0140
  117OSM   H15G12273   1.403   1.511  16.576 -3.2779  0.5145 -1.8984
  117OSM   C16F12274   1.588   1.518  16.469 -0.5490  0.4706 -1.0790
  117OSM   H16F12275   1.658   1.493  16.551 -1.3856  2.4928  0.3399
  117OSM   H16G12276   1.653   1.591  16.416 -0.6228  1.5889  0.3148
  117OSM   C17F12277   1.570   1.397  16.383  0.4157 -0.1255 -0.0896
  117OSM   H17F12278   1.500   1.430  16.303  0.8344  1.2380  0.0747
  117OSM   H17G12279   1.520   1.311  16.432  2.2632 -1.6599 -0.8222
  117OSM   C18F12280   1.699   1.351  16.330 -0.1272 -0.8653  0.3914
  117OSM   H18F12281   1.755   1.429  16.275 -0.9023  0.2493  1.1588
  117OSM   H18G12282   1.695   1.266  16.258  1.2481  0.0735 -0.8603
  117OSM   H18H12283   1.766   1.325  16.414 -0.0583 -2.1290 -0.0286
  118OSM      N12284   2.758   1.313  18.547  0.0331 -0.5707  0.1526
  118OSM    C1512285   2.817   1.386  18.424  0.3224  0.9249 -0.1675
  118OSM   H15A12286   2.864   1.311  18.362 -0.7726  0.1417 -0.0765
  118OSM   H15B12287   2.893   1.458  18.448 -1.0825  2.6846 -0.7624
  118OSM   H15C12288   2.733   1.431  18.372 -1.1238  0.2327  1.4534
  118OSM    C1412289   2.657   1.220  18.499  1.1745 -0.2828 -0.6872
  118OSM   H14A12290   2.599   1.170  18.575  0.0267  1.3060 -0.4789
  118OSM   H14B12291   2.695   1.145  18.431  1.2287 -1.4606  0.5951
  118OSM   H14C12292   2.584   1.277  18.444  2.0229  2.8025  1.1700
  118OSM    C1312293   2.860   1.237  18.621 -0.7919 -0.7420  0.1401
  118OSM   H13A12294   2.938   1.307  18.648 -1.5449  0.3523 -0.4167
  118OSM   H13B12295   2.903   1.162  18.557 -1.7701  0.0723 -1.5588
  118OSM   H13C12296   2.828   1.193  18.714  1.0888 -0.5116  0.9271
  118OSM    C1212297   2.694   1.420  18.635  0.1915 -1.3748 -0.2283
  118OSM   H12A12298   2.618   1.469  18.575 -0.5007 -2.5741 -0.3707
  118OSM   H12B12299   2.762   1.496  18.670 -0.7159 -0.3769 -0.5575
  118OSM    C1112300   2.621   1.377  18.767 -0.2484  0.9117  0.3925
  118OSM   H11A12301   2.574   1.467  18.812 -0.8106 -0.0411  1.7530
  118OSM   H11B12302   2.697   1.352  18.844  0.1664 -0.2042 -0.3533
  118OSM      P12303   2.374   1.302  18.729 -0.4106  0.1316  0.5285
  118OSM    O1312304   2.325   1.370  18.850  0.1010 -0.2534  0.2197
  118OSM    O1412305   2.343   1.359  18.598  0.2582 -0.2991 -0.3616
  118OSM    O1112306   2.304   1.162  18.724 -0.0871 -0.8547 -0.2554
  118OSM    O1212307   2.527   1.272  18.741 -0.2994 -0.1842 -0.0712
  118OSM    C1S12308   2.376   1.041  18.721 -0.2764  0.8780  0.4229
  118OSM    H1S12309   2.454   1.032  18.800  0.9500  1.0059 -0.7380
  118OSM    H1T12310   2.432   1.035  18.624  0.3497  1.4988  0.7350
  118OSM     NF12311   2.355   0.784  18.740  0.1663 -0.2405 -0.0614
  118OSM    HNF12312   2.367   0.746  18.649  3.3229  0.7946 -0.2147
  118OSM    C2S12313   2.285   0.910  18.744 -0.2412 -0.1461 -0.2031
  118OSM    H2S12314   2.238   0.928  18.843  1.5256 -1.3206  0.9030
  118OSM    C3S12315   2.170   0.903  18.635 -0.3944 -0.0442 -0.1793
  118OSM    H3S12316   2.222   0.875  18.542 -0.0544 -1.7836  0.5076
  118OSM     O312317   2.115   1.032  18.600  0.3068 -0.4826  0.2641
  118OSM    HO312318   2.158   1.099  18.652  0.9554 -1.4536  1.0174
  118OSM    C4S12319   2.059   0.801  18.660 -0.1029 -0.3179  0.2304
  118OSM    H4S12320   2.080   0.703  18.616 -1.3392 -0.8250  0.7326
  118OSM    C5S12321   1.950   0.813  18.733 -0.1696  0.0829  0.3251
  118OSM    H5S12322   1.924   0.916  18.765 -4.5646 -0.4892 -0.7832
  118OSM    C6S12323   1.837   0.709  18.758 -0.0987  0.0415 -0.1027
  118OSM    H6S12324   1.747   0.771  18.741  0.2862  0.6846  0.1839
  118OSM    H6T12325   1.824   0.680  18.865  2.1656 -4.6902 -0.8201
  118OSM    C7S12326   1.848   0.579  18.678 -0.1524 -0.5195  0.5890
  118OSM    H7S12327   1.946   0.535  18.706  0.9397  2.0148  0.9615
  118OSM    H7T12328   1.855   0.609  18.571 -1.0911 -0.4877  0.5316
  118OSM    C8S12329   1.746   0.468  18.705 -0.2757  0.2724  0.4023
  118OSM    H8S12330   1.646   0.508  18.677 -1.8583 -1.1534  3.4954
  118OSM    H8T12331   1.735   0.460  18.816  1.7758  1.9249  0.7717
  118OSM    C9S12332   1.781   0.336  18.634  0.4487 -0.8723  0.3421
  118OSM    H9S12333   1.860   0.279  18.687  0.5046 -0.3627  0.8099
  118OSM    H9T12334   1.822   0.349  18.532  0.3383  2.0193  0.5959
  118OSM   C10S12335   1.665   0.230  18.630 -0.3656  0.1534 -0.9033
  118OSM   H10S12336   1.699   0.137  18.580 -0.5897 -0.4272 -0.0016
  118OSM   H10T12337   1.578   0.263  18.570  0.4112  2.1827 -1.0243
  118OSM   C11S12338   1.615   0.186  18.770 -0.3451 -0.2919 -0.0186
  118OSM   H11S12339   1.564   0.278  18.804 -0.9455 -0.6464  0.0683
  118OSM   H11T12340   1.694   0.155  18.841 -0.2539 -0.3467 -0.1424
  118OSM   C12S12341   1.511   0.078  18.758 -0.4951  0.7018 -0.2160
  118OSM   H12S12342   1.421   0.121  18.709  0.3829  0.4823 -2.1020
  118OSM   H12T12343   1.486   0.051  18.863 -2.5780 -1.8839 -1.2389
  118OSM   C13S12344   1.572  -0.051  18.693 -0.9060 -0.3995 -0.2502
  118OSM   H13S12345   1.670  -0.068  18.742 -0.4368  2.0898 -0.2253
  118OSM   H13T12346   1.591  -0.031  18.586 -0.3218 -1.4880 -0.3642
  118OSM   C14S12347   1.481  -0.177  18.710 -0.6734  0.2372 -0.1191
  118OSM   H14S12348   1.485  -0.204  18.818 -1.1941  2.7831  0.6146
  118OSM   H14T12349   1.508  -0.256  18.636 -0.0043  0.1293  0.2339
  118OSM   C15S12350   1.332  -0.150  18.688 -0.3473 -0.1830 -0.5285
  118OSM   H15S12351   1.293  -0.139  18.584  0.1694  1.8765 -0.5455
  118OSM   H15T12352   1.297  -0.056  18.735  2.2172  0.4447  0.2155
  118OSM   C16S12353   1.243  -0.267  18.734  0.1267  0.3036 -0.3586
  118OSM   H16S12354   1.279  -0.331  18.817 -0.2128 -1.6329 -1.6253
  118OSM   H16T12355   1.246  -0.339  18.649 -0.7276  0.0081 -0.1465
  118OSM   C17S12356   1.104  -0.233  18.753  0.7699  0.3579  0.2638
  118OSM   H17S12357   1.049  -0.232  18.656  2.2057 -1.4540 -0.6309
  118OSM   H17T12358   1.107  -0.126  18.781 -0.6531  0.7457 -0.9028
  118OSM   C18S12359   1.041  -0.316  18.865 -0.0205 -0.2032 -0.8303
  118OSM   H18S12360   1.107  -0.286  18.950 -0.8133 -1.7020  0.3792
  118OSM   H18T12361   1.068  -0.422  18.841 -0.2182 -0.8608  1.5753
  118OSM   H18U12362   0.933  -0.298  18.878 -0.5779 -3.3916 -0.1963
  118OSM    C1F12363   2.439   0.751  18.840  0.4680 -0.5329 -0.1807
  118OSM     OF12364   2.442   0.814  18.944  0.3515 -0.4896 -0.3856
  118OSM    C2F12365   2.556   0.655  18.811  0.2009  0.3449 -0.4431
  118OSM    H2F12366   2.647   0.709  18.846 -2.3294  2.5078  3.5520
  118OSM    H2G12367   2.556   0.619  18.706 -2.2473 -0.5549 -0.1943
  118OSM    C3F12368   2.549   0.530  18.905  0.1559 -0.2685  0.6011
  118OSM    H3F12369   2.448   0.485  18.894 -0.8827  1.6291  1.7294
  118OSM    H3G12370   2.560   0.561  19.011 -0.4489  2.1771  0.0233
  118OSM    C4F12371   2.643   0.417  18.859  0.0492  0.9688  0.2378
  118OSM    H4F12372   2.745   0.452  18.888 -0.0344  2.2489 -0.9103
  118OSM    H4G12373   2.645   0.400  18.749 -0.6328  0.0964  0.3473
  118OSM    C5F12374   2.621   0.275  18.915  0.6335 -0.2576  0.8013
  118OSM    H5F12375   2.511   0.256  18.918  0.3868  1.1045  1.0805
  118OSM    H5G12376   2.645   0.274  19.023  0.9161  1.4735  0.7712
  118OSM    C6F12377   2.702   0.166  18.845  0.0932 -0.6262  1.1054
  118OSM    H6F12378   2.722   0.069  18.894  0.9960 -2.1352 -1.9736
  118OSM    H6G12379   2.806   0.205  18.835  0.5775 -2.0669  0.2231
  118OSM    C7F12380   2.647   0.135  18.704 -0.3775 -0.6213  0.2516
  118OSM    H7F12381   2.643   0.232  18.650  0.8851  0.2468  1.6302
  118OSM    H7G12382   2.545   0.093  18.719 -0.2871 -1.5969 -1.6073
  118OSM    C8F12383   2.733   0.032  18.619  0.8493 -0.3444  0.3122
  118OSM    H8F12384   2.829   0.079  18.588  1.6367 -2.2161 -0.2079
  118OSM    H8G12385   2.674   0.035  18.524  2.2480  0.6014 -0.5681
  118OSM    C9F12386   2.740  -0.109  18.680  0.2780 -0.5859  0.6171
  118OSM    H9F12387   2.642  -0.157  18.686  0.1679 -0.4824 -0.3028
  118OSM   C10F12388   2.850  -0.175  18.732  0.8860  0.2550  0.5874
  118OSM   H10F12389   2.844  -0.276  18.774 -0.6603 -0.5695 -1.4409
  118OSM   C11F12390   2.989  -0.110  18.732  0.0545 -0.3227  0.1878
  118OSM   H11F12391   3.007  -0.035  18.652 -1.0749  1.1017  1.2046
  118OSM   H11G12392   3.073  -0.183  18.721  0.0404 -0.5890  1.6543
  118OSM   C12F12393   3.013  -0.061  18.876  0.1602 -0.1920  0.0712
  118OSM   H12F12394   3.027  -0.150  18.942 -1.4714 -0.6741 -0.2093
  118OSM   H12G12395   2.928   0.001  18.909  1.7143  1.8271  0.4969
  118OSM   C13F12396   3.132   0.034  18.879 -0.4404  0.3329 -0.1135
  118OSM   H13F12397   3.147   0.053  18.987  0.1528 -1.0727  0.0751
  118OSM   H13G12398   3.105   0.127  18.825  0.3607  0.3661 -0.4807
  118OSM   C14F12399   3.268  -0.014  18.812 -0.0484 -0.8019  0.1170
  118OSM   H14F12400   3.264  -0.027  18.702  0.9982  1.6270 -0.2700
  118OSM   H14G12401   3.291  -0.109  18.864  0.1680  0.0200  1.5901
  118OSM   C15F12402   3.388   0.081  18.817 -0.4575 -0.8676 -0.7032
  118OSM   H15F12403   3.344   0.177  18.783 -0.1671 -0.1677  0.8211
  118OSM   H15G12404   3.454   0.037  18.739 -0.3830 -0.7989 -0.6797
  118OSM   C16F12405   3.458   0.087  18.949 -0.0400  0.4413  0.1673
  118OSM   H16F12406   3.389   0.080  19.036  0.1544  0.8627  0.3567
  118OSM   H16G12407   3.519   0.179  18.956  0.4295  0.3441 -1.8552
  118OSM   C17F12408   3.548  -0.041  18.978 -0.1982 -0.3707  0.5643
  118OSM   H17F12409   3.609  -0.055  18.886 -0.7232 -0.5321  0.2379
  118OSM   H17G12410   3.486  -0.134  18.977  0.9032 -1.1353 -1.3142
  118OSM   C18F12411   3.650  -0.028  19.095  0.1401 -0.5205 -0.1188
  118OSM   H18F12412   3.725  -0.110  19.097 -1.2667 -1.8467 -0.2087
  118OSM   H18G12413   3.602  -0.025  19.195 -0.2036 -1.8683 -0.2276
  118OSM   H18H12414   3.696   0.073  19.089  1.5321 -1.0520  0.9803
  119OSM      N12415   3.185   1.390  25.862  0.0191  0.3352  0.3516
  119OSM    C1512416   3.163   1.538  25.886  0.4150 -0.3259  0.3660
  119OSM   H15A12417   3.059   1.566  25.888  0.4025 -0.1566 -1.4503
  119OSM   H15B12418   3.209   1.598  25.809 -1.4404  2.0147  0.9697
  119OSM   H15C12419   3.213   1.564  25.978  0.6154  0.9807 -0.0917
  119OSM    C1412420   3.083   1.333  25.972 -0.8521 -0.3650  0.0056
  119OSM   H14A12421   3.095   1.380  26.069 -1.1331 -3.1924  1.4998
  119OSM   H14B12422   3.103   1.228  25.985  0.6288 -0.0207  0.7152
  119OSM   H14C12423   2.983   1.363  25.946 -0.4002  2.4026  1.0064
  119OSM    C1312424   3.139   1.345  25.727 -0.2633  0.3014 -0.2978
  119OSM   H13A12425   3.154   1.239  25.713  1.2005  0.8086 -3.3245
  119OSM   H13B12426   3.175   1.409  25.648 -3.1193  1.6349 -0.6608
  119OSM   H13C12427   3.033   1.365  25.716 -0.5712  0.1290  1.9550
  119OSM    C1212428   3.326   1.352  25.883  0.0507  0.1466  0.3842
  119OSM   H12A12429   3.386   1.387  25.800 -0.2382 -0.5499 -0.1317
  119OSM   H12B12430   3.337   1.245  25.878  0.0431  0.1334  0.6346
  119OSM    C1112431   3.389   1.397  26.014 -0.4245  0.1285 -0.4420
  119OSM   H11A12432   3.442   1.315  26.066 -2.4465 -0.8087  0.2625
  119OSM   H11B12433   3.313   1.415  26.093  0.8619 -2.6501  1.5718
  119OSM      P12434   3.495   1.630  26.078 -0.0567  0.0828 -0.2000
  119OSM    O1312435   3.430   1.613  26.209 -0.3985  0.2549 -0.1561
  119OSM    O1412436   3.632   1.674  26.063 -0.2234  0.1017  0.6429
  119OSM    O1112437   3.394   1.719  26.001  0.1418  0.2763  0.0331
  119OSM    O1212438   3.484   1.500  25.986 -0.2178 -0.0403 -0.0337
  119OSM    C1S12439   3.444   1.795  25.884  0.2394  0.8869  0.4084
  119OSM    H1S12440   3.455   1.733  25.792 -0.3912  0.2728  0.7358
  119OSM    H1T12441   3.542   1.845  25.896  1.1809 -0.1336 -2.2276
  119OSM     NF12442   3.375   1.973  25.723 -0.7524 -0.2958  0.3124
  119OSM    HNF12443   3.433   2.053  25.733 -1.6647  0.1807  2.0987
  119OSM    C2S12444   3.346   1.914  25.850 -0.2134  0.2822  0.1164
  119OSM    H2S12445   3.247   1.868  25.827  0.4182 -0.7679 -0.5959
  119OSM    C3S12446   3.344   2.012  25.968 -0.8198  0.5914  0.1924
  119OSM    H3S12447   3.443   2.063  25.967 -0.2052 -0.5144  1.2055
  119OSM     O312448   3.346   1.954  26.101 -0.3117  0.7059  0.1562
  119OSM    HO312449   3.360   1.861  26.082 -1.0311  0.3421  1.2741
  119OSM    C4S12450   3.236   2.108  25.957 -0.2469 -0.3690 -0.2132
  119OSM    H4S12451   3.136   2.062  25.955  0.5623 -2.2709 -3.2706
  119OSM    C5S12452   3.250   2.239  25.919 -0.1015  0.4551 -0.4065
  119OSM    H5S12453   3.354   2.263  25.895  0.3248 -0.2274  0.6724
  119OSM    C6S12454   3.138   2.332  25.888 -0.6926 -0.0722 -0.3575
  119OSM    H6S12455   3.135   2.411  25.965  0.0667 -0.8423  0.4950
  119OSM    H6T12456   3.043   2.276  25.882  0.4972 -2.1823 -0.7412
  119OSM    C7S12457   3.162   2.422  25.761  0.8296  0.1072 -0.5671
  119OSM    H7S12458   3.263   2.463  25.777  0.3432  0.3997  2.3881
  119OSM    H7T12459   3.085   2.501  25.747  0.1829 -0.5431 -0.7288
  119OSM    C8S12460   3.157   2.345  25.630 -0.1139 -0.1916  0.4984
  119OSM    H8S12461   3.222   2.255  25.633 -0.9275 -0.7719  1.6890
  119OSM    H8T12462   3.191   2.404  25.543 -2.6368 -1.2984 -1.3670
  119OSM    C9S12463   3.013   2.294  25.587  0.0518 -0.4079 -0.4977
  119OSM    H9S12464   2.970   2.380  25.532 -0.1859  1.0970  1.8569
  119OSM    H9T12465   2.948   2.293  25.678  2.1231  0.5439  1.0895
  119OSM   C10S12466   3.013   2.163  25.515  0.1192  0.4897  0.5938
  119OSM   H10S12467   3.038   2.074  25.576 -2.2394 -2.1498 -1.9939
  119OSM   H10T12468   3.076   2.171  25.424  0.0997 -0.7500  0.4657
  119OSM   C11S12469   2.876   2.127  25.447  0.0617  0.2447 -0.5258
  119OSM   H11S12470   2.904   2.049  25.373 -0.0673  1.1336 -1.5529
  119OSM   H11T12471   2.838   2.217  25.394  0.6089  0.5761 -0.3668
  119OSM   C12S12472   2.762   2.071  25.537 -0.7715 -0.3914  0.2760
  119OSM   H12S12473   2.728   2.156  25.599  0.1170 -0.5767  1.0441
  119OSM   H12T12474   2.807   1.994  25.603  0.9744  0.1728 -0.1914
  119OSM   C13S12475   2.644   2.005  25.459  0.5020 -0.5823 -0.0862
  119OSM   H13S12476   2.681   1.950  25.369  0.6138 -0.1794 -0.2878
  119OSM   H13T12477   2.577   2.086  25.422  0.6260 -0.5546 -0.2499
  119OSM   C14S12478   2.562   1.903  25.538 -0.3409  0.8954 -0.3468
  119OSM   H14S12479   2.636   1.826  25.570 -1.6075  0.3511  1.4010
  119OSM   H14T12480   2.486   1.855  25.472  0.7783 -0.0940 -0.9573
  119OSM   C15S12481   2.488   1.956  25.666 -0.4483 -0.1934 -0.2526
  119OSM   H15S12482   2.408   2.025  25.633 -0.4639  0.0648  0.3059
  119OSM   H15T12483   2.567   2.011  25.722  1.5949 -3.7122  0.6836
  119OSM   C16S12484   2.422   1.854  25.764  0.7265  0.0629  0.0844
  119OSM   H16S12485   2.494   1.774  25.792  2.3117  1.0190 -1.0796
  119OSM   H16T12486   2.327   1.816  25.721  0.9222  0.0111 -0.2995
  119OSM   C17S12487   2.395   1.913  25.899 -0.0614  0.1305 -0.3558
  119OSM   H17S12488   2.344   2.010  25.883  0.7821  0.2261 -2.8178
  119OSM   H17T12489   2.492   1.935  25.948 -0.0522  1.9445 -1.1100
  119OSM   C18S12490   2.302   1.822  25.977  0.4927  0.4209 -1.5330
  119OSM   H18S12491   2.355   1.729  26.005 -0.3992  0.3308 -0.0319
  119OSM   H18T12492   2.203   1.806  25.929  0.0818 -2.2099  0.0270
  119OSM   H18U12493   2.282   1.867  26.077 -0.1946 -0.8596 -1.0849
  119OSM    C1F12494   3.365   1.904  25.606  0.2779 -0.2027 -0.6331
  119OSM     OF12495   3.314   1.790  25.599 -0.0885  0.3739  0.2635
  119OSM    C2F12496   3.409   1.979  25.477 -0.0713 -0.1870 -0.2466
  119OSM    H2F12497   3.519   1.991  25.487  0.0602 -1.0134 -0.6010
  119OSM    H2G12498   3.360   2.078  25.475  1.5255  0.6836  0.8741
  119OSM    C3F12499   3.395   1.899  25.348 -0.5362 -0.7007  0.3491
  119OSM    H3F12500   3.288   1.871  25.334 -0.4864 -1.0634  0.6626
  119OSM    H3G12501   3.446   1.800  25.352  0.7610 -0.0399  0.3529
  119OSM    C4F12502   3.441   1.964  25.214  0.1531 -0.5716  0.3251
  119OSM    H4F12503   3.420   1.886  25.138  0.2029  0.6030 -0.9378
  119OSM    H4G12504   3.550   1.986  25.208  0.1475 -0.5911  0.1280
  119OSM    C5F12505   3.362   2.087  25.179 -0.2799  1.1160  0.4644
  119OSM    H5F12506   3.408   2.176  25.227  1.0028  0.9636 -0.4237
  119OSM    H5G12507   3.258   2.079  25.216 -0.4142  2.8783  0.5222
  119OSM    C6F12508   3.339   2.116  25.024 -0.3254  0.2735  0.1061
  119OSM    H6F12509   3.294   2.029  24.972 -2.2870 -0.5292  2.9302
  119OSM    H6G12510   3.438   2.135  24.976  0.1998 -0.9408  0.6769
  119OSM    C7F12511   3.252   2.238  24.996  0.9550 -0.0617  0.0241
  119OSM    H7F12512   3.165   2.240  25.066  1.1345 -1.0845  0.2918
  119OSM    H7G12513   3.210   2.226  24.894  1.3646 -1.9085  0.0491
  119OSM    C8F12514   3.324   2.368  25.028 -0.8377  0.1161  0.1878
  119OSM    H8F12515   3.388   2.350  25.118  0.0333 -1.7951 -0.7681
  119OSM    H8G12516   3.259   2.449  25.067 -2.0812 -1.1382  0.8153
  119OSM    C9F12517   3.405   2.407  24.913  0.1107 -0.0945 -0.5597
  119OSM    H9F12518   3.462   2.325  24.866  3.9765  2.2652 -0.4891
  119OSM   C10F12519   3.446   2.527  24.877  1.0378  0.4168  0.4171
  119OSM   H10F12520   3.514   2.532  24.791  0.1886 -0.6484 -0.3426
  119OSM   C11F12521   3.414   2.663  24.941  0.2933  0.5177  0.4373
  119OSM   H11F12522   3.503   2.729  24.944  1.1482 -0.6089  0.6324
  119OSM   H11G12523   3.383   2.663  25.048  2.3183  1.7596  1.0831
  119OSM   C12F12524   3.310   2.749  24.863  0.1213  0.1879 -0.5029
  119OSM   H12F12525   3.207   2.706  24.861  0.0773 -0.0478  2.5356
  119OSM   H12G12526   3.350   2.750  24.759  0.9028  0.1579 -0.2105
  119OSM   C13F12527   3.300   2.901  24.900  0.4930  0.7237  0.6971
  119OSM   H13F12528   3.394   2.942  24.944  2.1876  0.5551 -2.5088
  119OSM   H13G12529   3.216   2.905  24.973 -0.4151 -0.1017 -0.2796
  119OSM   C14F12530   3.270   2.994  24.777  0.4268  0.0347  0.1607
  119OSM   H14F12531   3.361   3.001  24.714 -0.4864  0.4651 -1.1422
  119OSM   H14G12532   3.246   3.097  24.814  0.4013 -0.1254  0.5989
  119OSM   C15F12533   3.164   2.947  24.686 -0.0784  0.4679  0.1736
  119OSM   H15F12534   3.197   2.858  24.628  0.1826  0.9298 -0.3907
  119OSM   H15G12535   3.147   3.011  24.598 -2.2688  0.6631  0.6863
  119OSM   C16F12536   3.026   2.914  24.742  0.0283  0.0431  0.3651
  119OSM   H16F12537   2.987   3.011  24.778 -1.6029  0.1770 -1.5636
  119OSM   H16G12538   3.033   2.862  24.840 -0.4055 -0.1681  0.2881
  119OSM   C17F12539   2.919   2.871  24.647 -0.5015 -0.4857  0.2851
  119OSM   H17F12540   2.944   2.931  24.557  0.9328 -0.3971  0.7102
  119OSM   H17G12541   2.822   2.904  24.689 -0.3205  0.0161  0.3173
  119OSM   C18F12542   2.922   2.722  24.622  0.4529 -0.4287 -0.1362
  119OSM   H18F12543   2.906   2.671  24.720  1.1256 -0.1664  0.1116
  119OSM   H18G12544   3.017   2.680  24.583  0.4394  1.4394 -2.3824
  119OSM   H18H12545   2.833   2.697  24.561  0.8767 -0.0621 -0.9260
  120OSM      N12546   0.246   2.254  22.665 -0.2053  0.2406 -0.3123
  120OSM    C1512547   0.261   2.108  22.688  0.5089 -0.4740  0.6338
  120OSM   H15A12548   0.324   2.073  22.607  2.4692  4.2133 -0.1995
  120OSM   H15B12549   0.164   2.065  22.669 -0.2129  0.8128  1.2857
  120OSM   H15C12550   0.288   2.083  22.790 -2.6721 -1.3850  1.3667
  120OSM    C1412551   0.370   2.315  22.710 -0.9038  0.1285 -0.2982
  120OSM   H14A12552   0.451   2.261  22.664 -0.0911  0.2363  0.9530
  120OSM   H14B12553   0.386   2.298  22.816  1.1564 -1.2101 -0.7689
  120OSM   H14C12554   0.384   2.418  22.681 -0.0613  0.1486  0.1514
  120OSM    C1312555   0.238   2.278  22.517  0.1336  0.4912  0.0918
  120OSM   H13A12556   0.158   2.217  22.477 -1.5655  2.5478  0.1644
  120OSM   H13B12557   0.331   2.251  22.469  0.7169 -1.0103  1.9482
  120OSM   H13C12558   0.219   2.381  22.492  2.2440  0.5579 -1.5589
  120OSM    C1212559   0.131   2.327  22.725 -0.3432 -0.2202  0.0694
  120OSM   H12A12560   0.100   2.416  22.672 -0.1631  0.3842  0.9552
  120OSM   H12B12561   0.155   2.355  22.826 -0.2080  0.2723 -0.0927
  120OSM    C1112562  -0.002   2.247  22.734  0.0387  0.4142 -0.4966
  120OSM   H11A12563  -0.071   2.315  22.789 -1.1241 -0.4059 -0.9076
  120OSM   H11B12564   0.028   2.161  22.797  0.1536  0.5433 -0.3773
  120OSM      P12565  -0.140   2.309  22.523 -0.2535 -0.2004  0.0566
  120OSM    O1312566  -0.125   2.277  22.380  0.0892 -0.0595  0.2170
  120OSM    O1412567  -0.278   2.312  22.573 -0.1732  0.0140 -0.6056
  120OSM    O1112568  -0.075   2.452  22.551 -0.4195  0.6210  0.7888
  120OSM    O1212569  -0.052   2.205  22.608 -0.1805 -0.2295 -0.5900
  120OSM    C1S12570  -0.139   2.558  22.471  0.1573  0.0357 -0.2020
  120OSM    H1S12571  -0.239   2.571  22.517  0.2055  1.5662 -0.4822
  120OSM    H1T12572  -0.144   2.544  22.361 -1.4825  0.2939 -0.1764
  120OSM     NF12573  -0.155   2.801  22.443  0.0227 -0.7199 -0.1453
  120OSM    HNF12574  -0.124   2.858  22.368  1.2940  2.1440  2.3586
  120OSM    C2S12575  -0.072   2.691  22.495  0.2181  1.0934 -0.3565
  120OSM    H2S12576  -0.056   2.710  22.604 -0.5931 -2.4600  0.5230
  120OSM    C3S12577   0.073   2.688  22.430  1.1592  0.4289  0.8469
  120OSM    H3S12578   0.052   2.693  22.321  0.6080 -1.1174  0.8576
  120OSM     O312579   0.140   2.566  22.444 -0.1676 -0.2722 -0.4708
  120OSM    HO312580   0.063   2.517  22.473 -0.5042  0.5130 -0.0078
  120OSM    C4S12581   0.163   2.802  22.471  0.4453 -0.4816 -0.2607
  120OSM    H4S12582   0.173   2.890  22.406  1.7313 -0.8000 -0.5376
  120OSM    C5S12583   0.246   2.805  22.573  0.2648  0.3297  0.1067
  120OSM    H5S12584   0.250   2.714  22.635  0.3366 -0.3742 -0.9129
  120OSM    C6S12585   0.347   2.913  22.617  0.3152 -0.0609  0.7297
  120OSM    H6S12586   0.375   2.992  22.543 -0.7355  0.4053  0.8120
  120OSM    H6T12587   0.444   2.860  22.625  0.8804  0.6612 -0.7581
  120OSM    C7S12588   0.315   2.993  22.745 -0.1924 -0.0779  0.0665
  120OSM    H7S12589   0.319   2.923  22.832  0.4240  1.4604  1.3243
  120OSM    H7T12590   0.218   3.047  22.744  0.3181  0.9353  1.8051
  120OSM    C8S12591   0.415   3.107  22.778  0.2315  0.1222  0.1296
  120OSM    H8S12592   0.440   3.155  22.681 -1.4609 -1.2885 -1.0774
  120OSM    H8T12593   0.511   3.073  22.821 -0.5572  0.0435  1.8961
  120OSM    C9S12594   0.351   3.209  22.869  0.5725  0.6290  0.5083
  120OSM    H9S12595   0.322   3.144  22.954 -0.7798  0.5216  0.0006
  120OSM    H9T12596   0.252   3.240  22.829 -1.6186 -4.4126  1.2178
  120OSM   C10S12597   0.444   3.318  22.923 -0.4078 -1.1466 -0.3212
  120OSM   H10S12598   0.524   3.275  22.987 -1.5577  0.5505  2.3891
  120OSM   H10T12599   0.394   3.382  22.999  0.6134 -0.4042 -0.2521
  120OSM   C11S12600   0.503   3.412  22.813  0.4177 -0.5266  0.0830
  120OSM   H11S12601   0.416   3.459  22.763  0.2973  0.0780  0.8226
  120OSM   H11T12602   0.562   3.350  22.743  0.4120  0.2175 -0.5954
  120OSM   C12S12603   0.584   3.525  22.874  0.3323  0.4761 -0.0371
  120OSM   H12S12604   0.626   3.586  22.791  0.1587  0.7757  0.0997
  120OSM   H12T12605   0.672   3.478  22.924  2.0556  2.5115 -0.9816
  120OSM   C13S12606   0.531   3.618  22.981  0.7485  0.9935 -0.7639
  120OSM   H13S12607   0.493   3.557  23.065 -1.6704 -1.0751 -3.1885
  120OSM   H13T12608   0.439   3.674  22.956 -0.8670 -1.3932 -0.4355
  120OSM   C14S12609   0.634   3.710  23.037  0.7638 -0.1398 -0.0073
  120OSM   H14S12610   0.678   3.767  22.953  0.3886  1.9287  1.1358
  120OSM   H14T12611   0.716   3.652  23.086 -0.3666 -1.0871  0.8256
  120OSM   C15S12612   0.575   3.814  23.131 -0.6810 -0.0065  0.2751
  120OSM   H15S12613   0.513   3.757  23.203  1.0315 -1.7129  0.4835
  120OSM   H15T12614   0.511   3.884  23.073 -1.9962 -1.7649 -0.4806
  120OSM   C16S12615   0.677   3.902  23.194 -0.6606 -0.4218  0.2014
  120OSM   H16S12616   0.761   3.929  23.126 -1.4386  3.4568  0.5314
  120OSM   H16T12617   0.718   3.840  23.276 -0.8657 -0.4837  0.2577
  120OSM   C17S12618   0.625   4.043  23.239  0.1937 -0.0576 -0.3128
  120OSM   H17S12619   0.541   4.034  23.312 -0.0675 -0.0454 -0.6101
  120OSM   H17T12620   0.595   4.093  23.145 -0.2153 -0.3124 -0.3204
  120OSM   C18S12621   0.749   4.124  23.298  0.3150  0.2443  0.1566
  120OSM   H18S12622   0.786   4.071  23.388  1.4750  0.1668 -0.3352
  120OSM   H18T12623   0.718   4.225  23.333 -2.3625 -0.4753  0.0120
  120OSM   H18U12624   0.834   4.124  23.225  1.6742 -0.1088  1.6864
  120OSM    C1F12625  -0.273   2.836  22.501  0.2205 -0.5010  0.3160
  120OSM     OF12626  -0.299   2.784  22.608 -0.0910 -0.1572 -0.0224
  120OSM    C2F12627  -0.357   2.950  22.434  0.1561  0.1868 -0.6668
  120OSM    H2F12628  -0.341   2.936  22.325  2.3962  0.0389 -0.3693
  120OSM    H2G12629  -0.310   3.045  22.467 -2.9317  0.6760  2.9518
  120OSM    C3F12630  -0.508   2.954  22.470  0.4872 -0.0404  0.0317
  120OSM    H3F12631  -0.532   2.988  22.573 -1.1915 -1.7558  0.2549
  120OSM    H3G12632  -0.552   2.853  22.462 -0.5025  0.2674  1.2807
  120OSM    C4F12633  -0.593   3.042  22.374  0.2765 -0.5593 -0.1064
  120OSM    H4F12634  -0.580   3.005  22.270 -1.1497 -0.6649 -0.2647
  120OSM    H4G12635  -0.556   3.147  22.379 -1.0622  0.0032 -1.2884
  120OSM    C5F12636  -0.736   3.050  22.403 -0.3980 -0.5922 -0.5503
  120OSM    H5F12637  -0.747   3.077  22.510  1.6558 -0.9410 -0.2144
  120OSM    H5G12638  -0.766   2.944  22.420 -3.0582  0.0091 -1.0462
  120OSM    C6F12639  -0.833   3.127  22.313 -0.5924 -0.2453  0.6733
  120OSM    H6F12640  -0.927   3.069  22.300 -0.7857 -0.3383  2.2918
  120OSM    H6G12641  -0.783   3.133  22.215  0.2183  1.2564  1.1551
  120OSM    C7F12642  -0.871   3.264  22.372  0.5798  0.5951  0.3761
  120OSM    H7F12643  -0.771   3.300  22.404  2.0813 -2.6595 -0.2118
  120OSM    H7G12644  -0.931   3.257  22.465 -0.1487  1.0316 -0.0448
  120OSM    C8F12645  -0.919   3.359  22.260 -0.2074  0.0784 -0.4964
  120OSM    H8F12646  -0.999   3.325  22.191 -0.2499  1.0491 -0.9425
  120OSM    H8G12647  -0.829   3.377  22.197  0.7746 -0.9403  0.5627
  120OSM    C9F12648  -0.947   3.492  22.337  0.5127  0.6157 -0.0105
  120OSM    H9F12649  -1.036   3.496  22.402 -1.2450  0.5405 -2.3134
  120OSM   C10F12650  -0.872   3.601  22.343 -0.8104  0.1820 -0.0357
  120OSM   H10F12651  -0.891   3.676  22.421  2.5680 -0.4038  1.5428
  120OSM   C11F12652  -0.750   3.636  22.261  0.4882 -0.0008  0.2945
  120OSM   H11F12653  -0.756   3.744  22.233 -0.0357 -0.1511 -0.1894
  120OSM   H11G12654  -0.750   3.579  22.166 -1.6650 -1.3300  1.0408
  120OSM   C12F12655  -0.612   3.614  22.331 -0.2491  0.4556 -0.5488
  120OSM   H12F12656  -0.582   3.507  22.326 -0.4558  0.2910  1.0493
  120OSM   H12G12657  -0.622   3.637  22.439  0.1957  0.5137 -0.5143
  120OSM   C13F12658  -0.502   3.704  22.274 -0.2408 -0.3216  0.4011
  120OSM   H13F12659  -0.547   3.803  22.255 -0.4201 -0.1042  1.8334
  120OSM   H13G12660  -0.480   3.655  22.176 -1.6869 -0.8457  0.3221
  120OSM   C14F12661  -0.379   3.718  22.367 -0.3477  0.0743  0.4924
  120OSM   H14F12662  -0.355   3.613  22.394 -0.1524  0.2993  1.2431
  120OSM   H14G12663  -0.415   3.776  22.455 -0.8251 -0.6769  0.8021
  120OSM   C15F12664  -0.262   3.775  22.290 -0.1166  0.7276  1.0789
  120OSM   H15F12665  -0.300   3.870  22.246 -0.8487  0.0755  0.2810
  120OSM   H15G12666  -0.233   3.701  22.212  3.0180  1.1770  1.6875
  120OSM   C16F12667  -0.142   3.795  22.379 -0.2971 -1.0015  1.5586
  120OSM   H16F12668  -0.072   3.710  22.393  0.4876 -0.5704  0.4317
  120OSM   H16G12669  -0.178   3.834  22.476  3.1157  1.1212  2.1718
  120OSM   C17F12670  -0.057   3.910  22.319  0.0648 -0.1875 -0.0854
  120OSM   H17F12671  -0.103   4.010  22.338 -0.1148 -0.3442  0.3046
  120OSM   H17G12672  -0.047   3.899  22.209 -1.0443  2.6232 -0.5457
  120OSM   C18F12673   0.082   3.921  22.388  0.1343 -1.1677 -0.3422
  120OSM   H18F12674   0.125   3.822  22.416  0.6690 -0.6643  0.6552
  120OSM   H18G12675   0.083   3.997  22.470  0.8509 -0.3348 -1.0985
  120OSM   H18H12676   0.153   3.970  22.317  0.1764  0.3698  0.7094
  121OSM      N12677   1.697   3.398  26.578  0.2857 -0.0306 -0.3467
  121OSM    C1512678   1.660   3.352  26.720  0.2957  0.3777  0.2304
  121OSM   H15A12679   1.561   3.309  26.726  0.2856  0.2155 -0.9061
  121OSM   H15B12680   1.657   3.439  26.784  0.0910  1.4518 -1.1930
  121OSM   H15C12681   1.733   3.282  26.756  0.5929  0.2268 -0.6422
  121OSM    C1412682   1.819   3.478  26.597  0.0116 -0.2193 -0.4172
  121OSM   H14A12683   1.862   3.516  26.506  0.2237 -0.0707 -0.2564
  121OSM   H14B12684   1.893   3.415  26.643  0.1101  0.7315  0.7795
  121OSM   H14C12685   1.790   3.553  26.669  0.2716 -1.0939  0.6301
  121OSM    C1312686   1.729   3.280  26.493  0.0765 -0.9528 -0.2369
  121OSM   H13A12687   1.810   3.227  26.541  0.8723  2.0072  1.9606
  121OSM   H13B12688   1.759   3.307  26.392 -1.4327  1.0069 -0.2097
  121OSM   H13C12689   1.643   3.215  26.489 -0.5985 -0.1062  0.3733
  121OSM    C1212690   1.582   3.479  26.515  0.3268 -0.5502 -0.7519
  121OSM   H12A12691   1.551   3.554  26.586  0.1696  0.0533 -1.4498
  121OSM   H12B12692   1.503   3.409  26.493  0.1253 -0.5138 -0.1674
  121OSM    C1112693   1.610   3.548  26.375  0.3685  0.1604 -0.0012
  121OSM   H11A12694   1.701   3.609  26.393  1.9939 -1.9037 -0.7965
  121OSM   H11B12695   1.526   3.610  26.338  2.7746  2.6307 -1.7029
  121OSM      P12696   1.524   3.379  26.197  0.4121  0.0225 -0.4528
  121OSM    O1312697   1.590   3.298  26.089  0.1435 -0.1365 -0.0338
  121OSM    O1412698   1.456   3.295  26.299  0.1421  0.3676 -0.2344
  121OSM    O1112699   1.431   3.493  26.136  0.2459  0.8080  0.2233
  121OSM    O1212700   1.638   3.454  26.274 -0.4606  0.0189 -0.3680
  121OSM    C1S12701   1.475   3.569  26.018  1.0947  0.9614  0.5159
  121OSM    H1S12702   1.533   3.505  25.947  1.6695  3.0212 -0.9783
  121OSM    H1T12703   1.550   3.642  26.052  2.8136 -1.2991  1.8766
  121OSM     NF12704   1.391   3.674  25.810  0.4588 -0.1037  0.7565
  121OSM    HNF12705   1.392   3.770  25.782 -0.3344 -0.7547 -1.7513
  121OSM    C2S12706   1.350   3.634  25.941 -0.7298  0.1150 -0.0628
  121OSM    H2S12707   1.273   3.554  25.936 -0.3243 -0.2224 -1.5621
  121OSM    C3S12708   1.302   3.759  26.023  0.2098 -0.4574 -0.1890
  121OSM    H3S12709   1.389   3.829  26.018  0.7555 -1.1873 -3.4228
  121OSM     O312710   1.283   3.727  26.162  0.3030  0.4214  0.0107
  121OSM    HO312711   1.310   3.635  26.172  1.0749  0.3193 -2.3709
  121OSM    C4S12712   1.187   3.822  25.954  0.1719  0.1155  0.0487
  121OSM    H4S12713   1.219   3.895  25.877  0.6980 -1.7960 -1.6294
  121OSM    C5S12714   1.053   3.794  25.968 -0.1043  0.0794 -0.3991
  121OSM    H5S12715   1.025   3.724  26.049 -0.5908 -0.5493 -1.0977
  121OSM    C6S12716   0.933   3.849  25.894 -0.2559 -0.1901 -0.5332
  121OSM    H6S12717   0.891   3.937  25.948  1.4096  1.2494 -1.4898
  121OSM    H6T12718   0.856   3.769  25.887  0.9472 -1.3305 -1.1413
  121OSM    C7S12719   0.961   3.907  25.753  0.2392 -0.0065  0.4575
  121OSM    H7S12720   1.002   3.816  25.703  1.5613  0.8636 -0.1119
  121OSM    H7T12721   1.042   3.984  25.757  0.3558 -0.1056  0.0743
  121OSM    C8S12722   0.840   3.972  25.679  0.1094 -0.6211  0.4667
  121OSM    H8S12723   0.813   4.061  25.739 -2.4698 -0.9633 -0.0771
  121OSM    H8T12724   0.755   3.901  25.691  0.8497 -1.2744  2.1014
  121OSM    C9S12725   0.878   3.999  25.522  0.0139 -0.3486 -0.3405
  121OSM    H9S12726   0.828   3.926  25.455 -1.5441  1.6320 -1.4497
  121OSM    H9T12727   0.988   4.000  25.517  0.1501 -2.1461  0.9421
  121OSM   C10S12728   0.829   4.133  25.483  0.5135  0.0028 -0.0387
  121OSM   H10S12729   0.893   4.204  25.539 -1.2405 -0.0065  2.0792
  121OSM   H10T12730   0.726   4.138  25.523 -0.2968  0.4003 -2.0478
  121OSM   C11S12731   0.829   4.163  25.332  0.0776 -0.8470  0.3874
  121OSM   H11S12732   0.777   4.081  25.278  2.0760 -1.0506 -1.3425
  121OSM   H11T12733   0.932   4.167  25.290 -0.1636 -0.7914 -0.2054
  121OSM   C12S12734   0.760   4.302  25.308 -0.4748  0.1926 -0.6108
  121OSM   H12S12735   0.819   4.376  25.365  0.2408 -0.2707 -0.7298
  121OSM   H12T12736   0.656   4.300  25.346 -0.9095 -1.9697 -1.6893
  121OSM   C13S12737   0.769   4.333  25.151  0.0161  0.3147  0.5194
  121OSM   H13S12738   0.719   4.244  25.108  0.4459  0.3659 -0.1005
  121OSM   H13T12739   0.875   4.332  25.116 -0.6858 -1.0872 -1.8089
  121OSM   C14S12740   0.695   4.464  25.114  0.3982 -0.1830  0.4478
  121OSM   H14S12741   0.741   4.540  25.181 -0.7636 -0.6399  1.8361
  121OSM   H14T12742   0.590   4.463  25.150  0.1636 -1.2348 -0.2166
  121OSM   C15S12743   0.713   4.504  24.961 -0.2444  0.2547 -0.6867
  121OSM   H15S12744   0.642   4.446  24.898 -1.5195  1.8544 -0.8010
  121OSM   H15T12745   0.815   4.467  24.936  0.1823  1.3277 -0.6137
  121OSM   C16S12746   0.712   4.649  24.917 -0.1860  0.0228  0.2748
  121OSM   H16S12747   0.619   4.706  24.941  0.5468  0.1724  3.0862
  121OSM   H16T12748   0.731   4.648  24.808  0.9084 -4.9125  0.2819
  121OSM   C17S12749   0.829   4.723  24.985 -0.0054 -0.9168 -0.0424
  121OSM   H17S12750   0.911   4.648  24.989  0.8179  0.0159  1.3475
  121OSM   H17T12751   0.811   4.744  25.093 -0.4471 -1.7134  0.0511
  121OSM   C18S12752   0.881   4.850  24.928  0.7430 -0.4988  0.0017
  121OSM   H18S12753   0.963   4.829  24.856  1.7433  0.3707  0.8525
  121OSM   H18T12754   0.916   4.919  25.007 -0.6082 -0.9883  1.0722
  121OSM   H18U12755   0.805   4.913  24.877 -0.1800 -0.3839  1.4848
  121OSM    C1F12756   1.420   3.577  25.718  0.7307 -0.4532  0.2614
  121OSM     OF12757   1.433   3.457  25.750  0.1044  0.3972  0.1691
  121OSM    C2F12758   1.444   3.627  25.574  0.3668  0.0041 -0.2329
  121OSM    H2F12759   1.553   3.625  25.550  0.3094  1.4030 -0.7227
  121OSM    H2G12760   1.400   3.727  25.551  1.9965  0.2149 -2.8226
  121OSM    C3F12761   1.367   3.536  25.478 -0.4323  0.0939 -0.0246
  121OSM    H3F12762   1.257   3.536  25.496 -0.2339  1.7138  1.5267
  121OSM    H3G12763   1.407   3.433  25.490 -0.8377 -0.0726 -0.0664
  121OSM    C4F12764   1.382   3.578  25.324  0.4313 -0.4926 -0.8022
  121OSM    H4F12765   1.347   3.683  25.319  0.8612 -0.2142  1.3441
  121OSM    H4G12766   1.328   3.506  25.258  0.1604 -0.3090 -0.7853
  121OSM    C5F12767   1.528   3.571  25.275 -0.7061  0.1719  0.1462
  121OSM    H5F12768   1.590   3.636  25.341  2.8568 -0.0059 -2.7088
  121OSM    H5G12769   1.538   3.611  25.172 -1.4320 -1.2448 -0.4910
  121OSM    C6F12770   1.603   3.437  25.271 -0.1408  0.1959 -0.3409
  121OSM    H6F12771   1.528   3.356  25.283  0.3185 -0.5204 -2.0634
  121OSM    H6G12772   1.678   3.421  25.352 -0.6433 -2.3917 -0.2865
  121OSM    C7F12773   1.677   3.407  25.143  0.5163  0.0656 -0.3940
  121OSM    H7F12774   1.770   3.467  25.142  0.0891  0.8429  1.5771
  121OSM    H7G12775   1.610   3.443  25.062 -0.6658  2.1327  1.4101
  121OSM    C8F12776   1.689   3.253  25.116  0.5159  0.5946 -0.3670
  121OSM    H8F12777   1.583   3.224  25.106 -0.3043  2.9023  0.7964
  121OSM    H8G12778   1.746   3.202  25.197 -0.0580  0.0469 -0.3065
  121OSM    C9F12779   1.764   3.217  24.989 -0.3685  0.2939  0.0705
  121OSM    H9F12780   1.859   3.271  24.982 -0.2875 -0.0747 -2.7329
  121OSM   C10F12781   1.734   3.133  24.883  0.1257 -0.3755 -0.9750
  121OSM   H10F12782   1.805   3.143  24.799 -0.1230  0.4971 -1.0893
  121OSM   C11F12783   1.610   3.058  24.869  0.0899 -0.6950 -0.5180
  121OSM   H11F12784   1.566   3.052  24.971  0.4026  0.9714 -0.2446
  121OSM   H11G12785   1.633   2.955  24.835 -1.4602 -1.3913  0.3950
  121OSM   C12F12786   1.508   3.123  24.774 -0.3291  0.5976 -0.9015
  121OSM   H12F12787   1.451   3.045  24.719 -2.8276  1.7137 -0.0429
  121OSM   H12G12788   1.569   3.169  24.693  1.3118 -1.4124 -0.8638
  121OSM   C13F12789   1.420   3.227  24.838 -0.0395  0.4153 -0.0714
  121OSM   H13F12790   1.487   3.290  24.899  3.1702 -2.9029  0.1501
  121OSM   H13G12791   1.347   3.187  24.912  0.2604 -0.4454 -0.2296
  121OSM   C14F12792   1.342   3.325  24.746 -1.0328  0.4123 -0.4186
  121OSM   H14F12793   1.418   3.339  24.667 -0.6029  0.4166 -0.0099
  121OSM   H14G12794   1.322   3.417  24.805  0.1557 -0.5218  1.5486
  121OSM   C15F12795   1.218   3.265  24.685 -0.2888  0.2181  0.2929
  121OSM   H15F12796   1.137   3.240  24.757 -1.2243 -0.0211 -0.8086
  121OSM   H15G12797   1.241   3.165  24.645 -0.8988 -1.5681  4.0031
  121OSM   C16F12798   1.142   3.356  24.586  0.9650  0.2787 -0.2689
  121OSM   H16F12799   1.051   3.302  24.552 -0.0459  1.5085  0.3695
  121OSM   H16G12800   1.209   3.364  24.498 -1.0631 -2.8642 -2.2934
  121OSM   C17F12801   1.113   3.504  24.634  0.0970 -0.6274 -0.6722
  121OSM   H17F12802   1.208   3.546  24.674 -0.8416  1.2344 -0.2561
  121OSM   H17G12803   1.039   3.502  24.717  0.6125 -2.2968 -0.2212
  121OSM   C18F12804   1.064   3.597  24.520  0.0210  0.3507 -0.0833
  121OSM   H18F12805   1.026   3.687  24.573 -1.1870 -0.6747  0.8229
  121OSM   H18G12806   0.970   3.562  24.474  0.3964  0.9627 -1.3695
  121OSM   H18H12807   1.144   3.626  24.448 -0.7283  3.1560  0.0816
  122OSM      N12808   1.911   1.347  18.561 -0.7632  0.1661 -0.2002
  122OSM    C1512809   1.774   1.404  18.578 -0.1414 -0.6363 -1.0178
  122OSM   H15A12810   1.713   1.323  18.615 -0.3569  0.0820  0.2413
  122OSM   H15B12811   1.741   1.442  18.482  0.3085  0.1405 -0.8672
  122OSM   H15C12812   1.775   1.486  18.648  0.6118 -1.8882  0.4929
  122OSM    C1412813   1.947   1.275  18.688  0.7396  0.3599  0.0758
  122OSM   H14A12814   2.042   1.225  18.677 -0.5398 -1.5545 -3.7139
  122OSM   H14B12815   1.878   1.197  18.716 -0.0466  0.7436 -0.7469
  122OSM   H14C12816   1.956   1.346  18.769  1.6632  0.0049  0.3017
  122OSM    C1312817   1.905   1.243  18.459  0.3850 -0.3741  0.5896
  122OSM   H13A12818   1.876   1.290  18.366 -1.0784  0.4472  1.4236
  122OSM   H13B12819   1.832   1.167  18.480  1.0431 -0.7113  1.7414
  122OSM   H13C12820   2.002   1.198  18.444 -0.2301 -1.3958 -0.5225
  122OSM    C1212821   2.007   1.457  18.520  0.5107  0.4161  0.4566
  122OSM   H12A12822   1.966   1.497  18.429 -1.2026 -1.1790  0.4556
  122OSM   H12B12823   2.103   1.411  18.502  1.2727  0.3193  4.0071
  122OSM    C1112824   2.023   1.578  18.612 -0.0559 -0.2562 -0.6252
  122OSM   H11A12825   2.101   1.639  18.562 -1.0974 -0.0837 -2.0772
  122OSM   H11B12826   2.052   1.543  18.714  1.3858  1.3131 -0.4556
  122OSM      P12827   1.836   1.718  18.749 -0.4409 -0.8252  0.5953
  122OSM    O1312828   1.775   1.611  18.836 -0.0905 -0.2895  0.1395
  122OSM    O1412829   1.932   1.814  18.816  0.4311 -0.0940  0.0939
  122OSM    O1112830   1.715   1.805  18.690 -0.5247 -0.5905  0.3818
  122OSM    O1212831   1.905   1.655  18.619  0.4186 -0.0003 -0.6167
  122OSM    C1S12832   1.662   1.773  18.560  0.9131  0.1909  0.4615
  122OSM    H1S12833   1.631   1.666  18.554  2.1402 -0.1565  0.0545
  122OSM    H1T12834   1.742   1.781  18.484  0.2860  2.9671 -0.0195
  122OSM     NF12835   1.483   1.820  18.394 -0.3934 -0.0203 -0.2491
  122OSM    HNF12836   1.505   1.873  18.312 -0.1284 -0.0531 -0.2000
  122OSM    C2S12837   1.546   1.873  18.515 -0.3841  0.7775 -0.0648
  122OSM    H2S12838   1.481   1.885  18.604 -0.4467  1.0249 -0.1442
  122OSM    C3S12839   1.607   2.012  18.495 -0.1452  0.6529  0.1341
  122OSM    H3S12840   1.662   1.994  18.400 -0.9236 -1.3786 -0.0001
  122OSM     O312841   1.701   2.049  18.594 -0.5223 -0.1954  0.2640
  122OSM    HO312842   1.731   1.968  18.636  0.1735 -0.9732 -1.5949
  122OSM    C4S12843   1.507   2.123  18.481  0.3603 -0.2831  0.3696
  122OSM    H4S12844   1.497   2.140  18.373  0.5441 -3.6242 -0.2548
  122OSM    C5S12845   1.432   2.191  18.572  0.5239  0.3981  0.3766
  122OSM    H5S12846   1.427   2.156  18.676 -0.1342 -1.0853 -0.1144
  122OSM    C6S12847   1.349   2.313  18.543 -0.1913  0.4329  0.2406
  122OSM    H6S12848   1.390   2.396  18.605 -0.1021 -1.6760  3.2103
  122OSM    H6T12849   1.246   2.284  18.572  0.2411  0.5623  2.0621
  122OSM    C7S12850   1.368   2.359  18.402 -0.6167 -0.6030 -0.6507
  122OSM    H7S12851   1.344   2.275  18.333 -0.0936 -2.9295  1.8635
  122OSM    H7T12852   1.473   2.389  18.384 -1.2519  2.0697 -0.2833
  122OSM    C8S12853   1.270   2.472  18.374  0.5072 -0.4212  0.2225
  122OSM    H8S12854   1.294   2.559  18.438 -0.1515 -0.8655  1.0831
  122OSM    H8T12855   1.163   2.448  18.387  0.7100 -2.3641 -1.0996
  122OSM    C9S12856   1.300   2.537  18.234  0.5271 -0.1105  0.4769
  122OSM    H9S12857   1.252   2.475  18.156 -0.5457  0.1044  0.9433
  122OSM    H9T12858   1.410   2.546  18.230  0.6316 -0.9090  1.2084
  122OSM   C10S12859   1.228   2.673  18.228  0.2506  0.3052  0.0755
  122OSM   H10S12860   1.277   2.741  18.301 -0.0815 -0.5423  1.1216
  122OSM   H10T12861   1.121   2.657  18.255  0.6688  0.5630  2.0120
  122OSM   C11S12862   1.241   2.735  18.085  0.3930  0.1908 -1.3582
  122OSM   H11S12863   1.207   2.662  18.009 -4.1882 -1.7324  2.1484
  122OSM   H11T12864   1.349   2.762  18.075  1.8264 -4.7237 -1.4530
  122OSM   C12S12865   1.149   2.857  18.081  0.7166 -1.0877 -0.1317
  122OSM   H12S12866   1.043   2.826  18.067  1.1736 -2.3341 -0.9696
  122OSM   H12T12867   1.180   2.922  17.997 -0.5509  0.7593  0.7582
  122OSM   C13S12868   1.172   2.955  18.201 -0.1823 -0.4308  0.1826
  122OSM   H13S12869   1.282   2.958  18.212  0.3528 -2.2011 -3.2181
  122OSM   H13T12870   1.135   2.897  18.288 -2.7493 -0.1310 -0.6168
  122OSM   C14S12871   1.106   3.087  18.180  0.0168  0.4369  0.2965
  122OSM   H14S12872   1.003   3.074  18.143  0.4040  1.0345 -1.0415
  122OSM   H14T12873   1.159   3.151  18.106 -3.8319  3.2573 -0.3263
  122OSM   C15S12874   1.067   3.168  18.305  0.3379  0.3475 -0.5818
  122OSM   H15S12875   1.158   3.200  18.360  0.5604 -0.9170 -0.1865
  122OSM   H15T12876   1.001   3.118  18.380  0.3989  1.7986  0.4984
  122OSM   C16S12877   0.996   3.297  18.265 -0.2846  0.4940 -0.1212
  122OSM   H16S12878   0.900   3.280  18.212  0.6423  1.4428 -2.2294
  122OSM   H16T12879   1.064   3.345  18.191 -1.2628 -0.5866 -1.7867
  122OSM   C17S12880   0.957   3.387  18.390 -0.0733 -0.0970  0.0832
  122OSM   H17S12881   1.056   3.395  18.440  1.3673 -1.1969 -2.3938
  122OSM   H17T12882   0.889   3.324  18.451  1.4105 -0.3816  1.5293
  122OSM   C18S12883   0.892   3.518  18.337  0.3832  0.8845 -0.0977
  122OSM   H18S12884   0.839   3.574  18.417 -0.9024 -0.5176  0.0762
  122OSM   H18T12885   0.821   3.503  18.253 -0.9415  4.8287  0.1059
  122OSM   H18U12886   0.977   3.583  18.308  1.3678 -0.6836 -0.8626
  122OSM    C1F12887   1.407   1.710  18.384 -0.3390  0.0879 -0.5954
  122OSM     OF12888   1.367   1.652  18.487 -0.4690  0.0365  0.2832
  122OSM    C2F12889   1.371   1.662  18.249  0.6125 -0.4594 -0.3161
  122OSM    H2F12890   1.446   1.587  18.215  1.5475  1.1304 -1.9252
  122OSM    H2G12891   1.362   1.746  18.178 -0.1961 -0.9077 -0.7565
  122OSM    C3F12892   1.231   1.592  18.255 -0.0033  0.5603 -0.5539
  122OSM    H3F12893   1.158   1.650  18.314  0.7196 -0.2745  1.2340
  122OSM    H3G12894   1.244   1.505  18.323 -1.1025  2.1609  1.8118
  122OSM    C4F12895   1.180   1.539  18.120  0.2525  0.0252 -0.6783
  122OSM    H4F12896   1.134   1.621  18.061 -0.4327 -0.6167 -1.0558
  122OSM    H4G12897   1.096   1.471  18.146 -0.1590  0.4601 -0.8743
  122OSM    C5F12898   1.285   1.463  18.039  0.2573 -0.1908  0.4399
  122OSM    H5F12899   1.329   1.376  18.093  0.0839 -1.9492 -2.0516
  122OSM    H5G12900   1.366   1.537  18.022 -2.0285  2.6068  0.8738
  122OSM    C6F12901   1.208   1.414  17.909  0.2572  0.4106  0.1742
  122OSM    H6F12902   1.157   1.502  17.864 -0.2744  0.7717  1.4497
  122OSM    H6G12903   1.127   1.344  17.938 -0.9982  1.5260 -0.4760
  122OSM    C7F12904   1.298   1.336  17.811 -0.3583 -0.9192  0.6632
  122OSM    H7F12905   1.343   1.247  17.860 -0.1521 -0.7494  0.7789
  122OSM    H7G12906   1.386   1.391  17.772  0.1237 -1.5030  0.8947
  122OSM    C8F12907   1.217   1.297  17.684  0.7349 -0.3202  0.5359
  122OSM    H8F12908   1.126   1.244  17.721  1.5419 -0.4011  2.4908
  122OSM    H8G12909   1.267   1.218  17.624  0.2984  0.3720 -0.7824
  122OSM    C9F12910   1.170   1.411  17.607 -0.5851 -0.9109  0.0773
  122OSM    H9F12911   1.094   1.461  17.667  0.8641  0.4595  0.8533
  122OSM   C10F12912   1.193   1.451  17.482 -1.1622  0.0321  0.3910
  122OSM   H10F12913   1.151   1.545  17.444  1.6200  0.9255 -0.6921
  122OSM   C11F12914   1.275   1.367  17.390  0.0200  0.3860  0.3814
  122OSM   H11F12915   1.347   1.298  17.438 -0.0137 -0.4716 -0.7432
  122OSM   H11G12916   1.336   1.436  17.328 -2.2416  0.3230 -2.1160
  122OSM   C12F12917   1.191   1.280  17.289  0.4376  1.7555 -0.3436
  122OSM   H12F12918   1.248   1.282  17.194  0.0164 -1.0587 -0.7598
  122OSM   H12G12919   1.095   1.333  17.270 -0.0590  0.4523 -1.6759
  122OSM   C13F12920   1.165   1.133  17.348  0.3663 -0.7264  0.0510
  122OSM   H13F12921   1.127   1.156  17.450  0.1975 -0.8426  0.0144
  122OSM   H13G12922   1.261   1.084  17.373 -0.5681 -1.1238  3.2781
  122OSM   C14F12923   1.084   1.038  17.253 -0.3011  0.6874  0.0161
  122OSM   H14F12924   1.157   1.014  17.172  0.3561 -0.9499  1.0592
  122OSM   H14G12925   1.001   1.093  17.204 -1.8229 -1.2873  0.2909
  122OSM   C15F12926   1.046   0.903  17.314 -0.6041  0.3941  0.0869
  122OSM   H15F12927   0.964   0.925  17.386 -2.1964 -1.3639 -1.1170
  122OSM   H15G12928   1.135   0.856  17.361 -0.3088  0.7188 -0.1494
  122OSM   C16F12929   0.999   0.790  17.219 -0.4390 -0.3996  0.5639
  122OSM   H16F12930   0.971   0.702  17.281 -0.3535 -1.2867 -0.6154
  122OSM   H16G12931   1.080   0.760  17.149 -1.6221  0.3926 -1.2018
  122OSM   C17F12932   0.875   0.827  17.139  0.1975 -0.4058  0.3421
  122OSM   H17F12933   0.898   0.907  17.066 -0.9230 -1.7422 -1.5709
  122OSM   H17G12934   0.798   0.867  17.209 -1.5372 -0.8074 -1.2442
  122OSM   C18F12935   0.811   0.710  17.063  0.1378  0.6748 -0.8809
  122OSM   H18F12936   0.873   0.665  16.983 -0.8719 -1.8695 -0.3190
  122OSM   H18G12937   0.722   0.749  17.008 -1.6972 -2.2665 -0.2334
  122OSM   H18H12938   0.794   0.626  17.133 -0.5592  0.5609 -1.1730
  123OSM      N12939   0.720   0.694   7.051 -0.2149  0.1867  0.4654
  123OSM    C1512940   0.854   0.763   7.016  0.4358 -0.6324 -0.0291
  123OSM   H15A12941   0.882   0.831   7.095 -0.1545  1.4876 -1.5685
  123OSM   H15B12942   0.849   0.812   6.920  0.2101 -0.0427  0.2774
  123OSM   H15C12943   0.935   0.692   7.006  0.2929 -0.7768 -0.1614
  123OSM    C1412944   0.617   0.797   7.059 -0.8453  0.1501  0.1445
  123OSM   H14A12945   0.656   0.890   7.098 -0.3463  0.1433 -0.3312
  123OSM   H14B12946   0.532   0.765   7.118  0.2493 -1.5380  0.8668
  123OSM   H14C12947   0.587   0.824   6.959 -1.8556 -0.0970  0.3633
  123OSM    C1312948   0.674   0.594   6.950 -0.0830 -0.0776  0.3027
  123OSM   H13A12949   0.575   0.557   6.969  0.4629 -1.1188  1.2173
  123OSM   H13B12950   0.747   0.514   6.950  0.6760  0.5940  0.0554
  123OSM   H13C12951   0.673   0.620   6.845  0.3175 -2.6971 -0.4114
  123OSM    C1212952   0.739   0.625   7.185  0.3336  0.0413 -0.5011
  123OSM   H12A12953   0.782   0.527   7.171 -0.2299 -1.0408  3.8092
  123OSM   H12B12954   0.640   0.603   7.222  1.0619 -2.6510  0.0549
  123OSM    C1112955   0.825   0.697   7.299 -0.1736 -0.3458 -0.1779
  123OSM   H11A12956   0.796   0.646   7.393 -0.5057  0.5920  0.2348
  123OSM   H11B12957   0.789   0.801   7.314 -1.4465 -0.9595  1.2863
  123OSM      P12958   1.049   0.567   7.291 -0.1568 -0.0983  0.5683
  123OSM    O1312959   1.040   0.480   7.174  0.7080 -0.0596 -0.3382
  123OSM    O1412960   1.183   0.607   7.342  0.4905 -0.2115 -0.6491
  123OSM    O1112961   0.972   0.494   7.405 -0.3868  0.0153  0.2157
  123OSM    O1212962   0.962   0.698   7.267 -0.4422 -0.2334 -0.0009
  123OSM    C1S12963   1.028   0.390   7.484  0.7379  0.0716  0.0471
  123OSM    H1S12964   1.138   0.383   7.468  1.1904  0.3637  2.6276
  123OSM    H1T12965   0.986   0.297   7.441  2.2022 -0.0396 -1.2574
  123OSM     NF12966   1.065   0.295   7.720  0.1281  0.1541 -0.1071
  123OSM    HNF12967   1.007   0.235   7.776  0.1591 -1.8704 -2.1191
  123OSM    C2S12968   0.987   0.392   7.638  0.5416 -0.5373 -0.6472
  123OSM    H2S12969   1.021   0.491   7.675 -0.1606 -0.8048  0.7903
  123OSM    C3S12970   0.835   0.381   7.649  0.4423  0.0320 -0.1342
  123OSM    H3S12971   0.817   0.278   7.610 -0.9076  0.4633 -0.7417
  123OSM     O312972   0.765   0.476   7.577  0.0188  0.2433  0.0833
  123OSM    HO312973   0.833   0.496   7.513 -0.5510  0.3861 -0.4962
  123OSM    C4S12974   0.792   0.390   7.786 -0.0422 -0.6125  0.1412
  123OSM    H4S12975   0.772   0.296   7.839  1.6446 -0.4681  1.1268
  123OSM    C5S12976   0.764   0.502   7.861  0.5114  0.0238  0.4658
  123OSM    H5S12977   0.767   0.596   7.805 -0.5455 -1.2767 -1.9326
  123OSM    C6S12978   0.712   0.513   8.000 -0.5358 -0.2459 -0.0532
  123OSM    H6S12979   0.604   0.490   7.999 -0.6816 -0.2586  3.5435
  123OSM    H6T12980   0.719   0.620   8.028  1.7483 -0.5709  0.8690
  123OSM    C7S12981   0.800   0.431   8.102  0.0520  0.0161  0.1490
  123OSM    H7S12982   0.901   0.472   8.081  0.5952 -1.3038  0.0821
  123OSM    H7T12983   0.792   0.322   8.081  0.0596  0.2298 -1.0458
  123OSM    C8S12984   0.747   0.458   8.244  0.2833  0.1713 -0.9149
  123OSM    H8S12985   0.637   0.442   8.244  0.3393 -0.2326 -0.9366
  123OSM    H8T12986   0.764   0.563   8.275 -1.9246  0.1740  0.4784
  123OSM    C9S12987   0.818   0.369   8.352 -0.4053  0.1832  0.1838
  123OSM    H9S12988   0.919   0.413   8.360 -0.7322  1.1136 -0.5866
  123OSM    H9T12989   0.821   0.263   8.318 -2.5995  0.4754 -1.0977
  123OSM   C10S12990   0.748   0.383   8.487  0.3069  0.7858 -0.0930
  123OSM   H10S12991   0.643   0.347   8.492  0.1403  1.1190 -1.0686
  123OSM   H10T12992   0.738   0.493   8.487 -0.3029  0.8075 -2.9939
  123OSM   C11S12993   0.832   0.329   8.612 -0.2859 -0.5013  0.7339
  123OSM   H11S12994   0.937   0.343   8.580 -0.1931 -1.2670  0.6960
  123OSM   H11T12995   0.803   0.224   8.633 -0.6325 -0.3132  1.2194
  123OSM   C12S12996   0.793   0.397   8.744  0.6059  0.4610 -0.1357
  123OSM   H12S12997   0.682   0.406   8.746  0.4960 -0.6133 -0.5588
  123OSM   H12T12998   0.840   0.497   8.754  0.3424  0.4378  1.6322
  123OSM   C13S12999   0.832   0.320   8.867 -0.6970 -0.1878  0.9687
  123OSM   H13S13000   0.943   0.317   8.872 -0.4632  0.7880 -2.0112
  123OSM   H13T13001   0.806   0.212   8.860  3.4097 -1.2785  0.1009
  123OSM   C14S13002   0.784   0.375   9.003 -0.6962 -0.1262 -0.2610
  123OSM   H14S13003   0.674   0.366   8.991 -0.3750 -2.0110 -2.4437
  123OSM   H14T13004   0.811   0.481   9.025 -1.5931 -0.1478  1.0366
  123OSM   C15S13005   0.814   0.284   9.126  0.4783 -0.3392  0.1967
  123OSM   H15S13006   0.922   0.267   9.145  1.1867 -0.4375 -3.2814
  123OSM   H15T13007   0.779   0.183   9.095  0.1622 -0.0760 -0.3057
  123OSM   C16S13008   0.739   0.336   9.251 -0.3142 -0.1795  0.2238
  123OSM   H16S13009   0.633   0.347   9.221 -0.8920  0.7586  2.4632
  123OSM   H16T13010   0.771   0.437   9.285  2.4045 -0.1134 -2.0964
  123OSM   C17S13011   0.750   0.241   9.379 -0.7411 -0.5102  0.6532
  123OSM   H17S13012   0.778   0.142   9.338  0.7537 -0.8339  2.3431
  123OSM   H17T13013   0.649   0.236   9.425 -1.3545  1.2385 -0.3876
  123OSM   C18S13014   0.851   0.290   9.482 -0.1826  0.1986  0.0460
  123OSM   H18S13015   0.805   0.366   9.548 -1.2128  0.9185 -1.4412
  123OSM   H18T13016   0.937   0.334   9.427  2.6635 -4.1731  0.4980
  123OSM   H18U13017   0.889   0.207   9.545 -0.5057 -0.0192 -0.0462
  123OSM    C1F13018   1.197   0.301   7.722  0.5048  0.6940  0.5317
  123OSM     OF13019   1.266   0.386   7.657  0.9752  0.7672 -0.3680
  123OSM    C2F13020   1.263   0.197   7.802  0.4730  0.0325  0.7916
  123OSM    H2F13021   1.367   0.229   7.824  0.2069  2.7862 -1.3451
  123OSM    H2G13022   1.251   0.101   7.746 -0.8814  1.2549 -1.1314
  123OSM    C3F13023   1.188   0.169   7.931 -0.6266  0.1989 -0.2950
  123OSM    H3F13024   1.080   0.150   7.913 -0.4929  0.5699 -1.5608
  123OSM    H3G13025   1.196   0.262   7.992 -1.2735  0.5666 -0.7486
  123OSM    C4F13026   1.245   0.049   8.009 -0.6382  0.6147  0.5637
  123OSM    H4F13027   1.355   0.059   8.017 -0.5118 -1.6919  6.0958
  123OSM    H4G13028   1.230  -0.048   7.957 -0.9278  0.8621  0.1776
  123OSM    C5F13029   1.192   0.043   8.159  0.2547  0.1740  0.2887
  123OSM    H5F13030   1.196   0.150   8.191  3.1182  1.0342 -2.3886
  123OSM    H5G13031   1.251  -0.020   8.230  1.9128 -0.5282 -1.6238
  123OSM    C6F13032   1.050  -0.012   8.163  0.1007  0.0651  0.0674
  123OSM    H6F13033   0.992   0.048   8.089 -0.6887 -0.4681  0.2310
  123OSM    H6G13034   1.001   0.023   8.257  0.7550  4.2111 -0.9413
  123OSM    C7F13035   1.016  -0.163   8.152 -0.0186 -0.1715  0.3760
  123OSM    H7F13036   1.080  -0.195   8.067 -0.0391  0.7381  0.0168
  123OSM    H7G13037   0.914  -0.186   8.113 -0.4027  1.2220  0.5191
  123OSM    C8F13038   1.035  -0.255   8.272  0.4241 -0.3039 -0.2560
  123OSM    H8F13039   1.139  -0.244   8.310  0.0766  0.3067  0.5594
  123OSM    H8G13040   1.023  -0.361   8.239 -0.2974 -0.2039 -0.3325
  123OSM    C9F13041   0.932  -0.222   8.384 -0.1276 -0.0427  0.8038
  123OSM    H9F13042   0.828  -0.237   8.352 -0.0696 -1.5918  1.2362
  123OSM   C10F13043   0.958  -0.170   8.502 -0.2432  0.2731 -0.1146
  123OSM   H10F13044   0.879  -0.162   8.577  2.2435 -1.0432  2.8810
  123OSM   C11F13045   1.094  -0.147   8.558  0.6053 -0.1429  0.3611
  123OSM   H11F13046   1.135  -0.048   8.528  1.6530 -0.8316 -0.5458
  123OSM   H11G13047   1.164  -0.214   8.504 -0.3303 -0.2432 -0.7972
  123OSM   C12F13048   1.107  -0.163   8.712  0.1751 -0.2874  0.0197
  123OSM   H12F13049   1.212  -0.173   8.746  0.4341  0.1770 -0.6233
  123OSM   H12G13050   1.060  -0.257   8.748 -1.4480  0.8828  1.1376
  123OSM   C13F13051   1.039  -0.044   8.789 -0.1551  0.2406 -0.3690
  123OSM   H13F13052   0.929  -0.047   8.779 -0.3386  1.5890  0.9575
  123OSM   H13G13053   1.073   0.053   8.749  1.1827  0.1295  0.4273
  123OSM   C14F13054   1.050  -0.037   8.944  0.5919 -0.0441  0.1215
  123OSM   H14F13055   1.025  -0.138   8.983 -0.7929  0.0904 -0.3772
  123OSM   H14G13056   0.972   0.035   8.976 -1.2976 -2.3369  0.9243
  123OSM   C15F13057   1.190   0.006   8.999 -0.6046  0.7903  0.3682
  123OSM   H15F13058   1.214   0.101   8.947  0.1467 -0.1698 -1.0740
  123OSM   H15G13059   1.263  -0.072   8.972  0.7101  1.9172  0.5536
  123OSM   C16F13060   1.193   0.023   9.149 -0.7223  0.1175 -0.2729
  123OSM   H16F13061   1.147  -0.073   9.181 -2.3146  0.2436 -1.9629
  123OSM   H16G13062   1.131   0.108   9.184 -0.1590  1.1139 -1.6266
  123OSM   C17F13063   1.333   0.041   9.207 -0.0222 -0.1263 -0.8542
  123OSM   H17F13064   1.396   0.110   9.148 -0.0327  1.8563  1.3266
  123OSM   H17G13065   1.383  -0.059   9.206  1.7591  0.6865  0.4997
  123OSM   C18F13066   1.328   0.084   9.354 -0.3372  0.1157  0.2336
  123OSM   H18F13067   1.413   0.049   9.416 -0.9494 -0.1047  0.9686
  123OSM   H18G13068   1.237   0.039   9.400 -0.7132 -0.4922 -1.0645
  123OSM   H18H13069   1.319   0.193   9.373  1.3879  0.6914 -1.8855
  124OSM      N13070   0.900   2.464   7.130 -0.0395 -0.2995  0.0677
  124OSM    C1513071   0.778   2.543   7.084  0.6263 -0.2974 -1.0219
  124OSM   H15A13072   0.687   2.488   7.063 -1.3948  2.0137  1.0005
  124OSM   H15B13073   0.800   2.604   6.998 -2.2857  0.9599 -0.9833
  124OSM   H15C13074   0.747   2.608   7.165 -0.7628  0.6071 -2.2288
  124OSM    C1413075   0.858   2.377   7.245 -0.8214  0.7798  0.4062
  124OSM   H14A13076   0.760   2.337   7.222 -1.1972  1.8986 -0.0202
  124OSM   H14B13077   0.859   2.436   7.335 -1.7340  1.4705 -0.0235
  124OSM   H14C13078   0.930   2.296   7.242  0.5184  1.9684 -1.5278
  124OSM    C1313079   0.941   2.371   7.022  0.7329  0.7237 -0.4620
  124OSM   H13A13080   0.860   2.306   6.996 -0.2329  1.7032  0.0145
  124OSM   H13B13081   1.012   2.301   7.064 -1.0597 -0.5013  0.6774
  124OSM   H13C13082   0.975   2.418   6.931 -2.3486 -0.7034 -2.5066
  124OSM    C1213083   1.015   2.569   7.164 -0.0784 -0.2345  0.4688
  124OSM   H12A13084   0.965   2.652   7.211  1.8159  0.5116  1.2483
  124OSM   H12B13085   1.048   2.606   7.068  1.6212 -1.7610  0.4112
  124OSM    C1113086   1.126   2.518   7.258 -0.0282  0.0486  0.1421
  124OSM   H11A13087   1.086   2.470   7.350 -1.7380 -0.1848 -0.6825
  124OSM   H11B13088   1.192   2.598   7.298  3.3401 -3.0889  1.4093
  124OSM      P13089   1.229   2.285   7.220  0.0522 -0.2401 -0.3630
  124OSM    O1313090   1.112   2.221   7.283  0.4659 -0.0122  0.4105
  124OSM    O1413091   1.299   2.218   7.109  0.6990 -0.3853 -0.7827
  124OSM    O1113092   1.338   2.306   7.333  0.0808  0.2865  0.6226
  124OSM    O1213093   1.203   2.434   7.170  0.5325 -0.0406  0.1009
  124OSM    C1S13094   1.429   2.414   7.337 -0.1400 -0.2849  0.1469
  124OSM    H1S13095   1.388   2.502   7.283  1.0303 -0.3982 -0.9684
  124OSM    H1T13096   1.528   2.388   7.294  0.5177  2.0038  0.1331
  124OSM     NF13097   1.543   2.567   7.506  0.0762 -0.8065  0.2600
  124OSM    HNF13098   1.635   2.541   7.533  0.0779 -1.8285 -0.6646
  124OSM    C2S13099   1.452   2.456   7.489  0.7221  0.3784  0.4945
  124OSM    H2S13100   1.349   2.483   7.522  0.2415  0.5066 -1.0388
  124OSM    C3S13101   1.486   2.331   7.582 -0.1103 -0.3632 -0.5373
  124OSM    H3S13102   1.578   2.281   7.547  1.1955  0.1637  1.8906
  124OSM     O313103   1.391   2.224   7.575 -0.0462 -0.0758 -0.1787
  124OSM    HO313104   1.348   2.235   7.490 -0.1800 -2.7708 -0.5594
  124OSM    C4S13105   1.505   2.374   7.723 -0.3513 -0.4199 -0.3441
  124OSM    H4S13106   1.585   2.450   7.728 -1.5124  1.5480 -5.5256
  124OSM    C5S13107   1.424   2.357   7.826  0.2642  0.1951  0.4852
  124OSM    H5S13108   1.320   2.322   7.821  0.6242 -1.2496  2.0005
  124OSM    C6S13109   1.454   2.415   7.958  0.1740 -0.3930 -0.3533
  124OSM    H6S13110   1.422   2.521   7.963 -1.2513 -0.8591  1.6563
  124OSM    H6T13111   1.565   2.417   7.967  0.6046 -0.4040 -4.1125
  124OSM    C7S13112   1.402   2.333   8.079 -0.4013  1.0268  0.5786
  124OSM    H7S13113   1.434   2.227   8.063  0.1034  1.1789  0.5766
  124OSM    H7T13114   1.291   2.341   8.077 -0.3066  2.8302  1.2376
  124OSM    C8S13115   1.457   2.382   8.213  0.6099  0.3434 -0.2226
  124OSM    H8S13116   1.449   2.493   8.213  0.2893  0.3236 -0.7145
  124OSM    H8T13117   1.565   2.357   8.223  1.0733  2.5168  0.8521
  124OSM    C9S13118   1.380   2.330   8.332  0.2387 -0.0454 -0.3849
  124OSM    H9S13119   1.391   2.219   8.331 -1.0610 -0.1873 -1.3050
  124OSM    H9T13120   1.271   2.347   8.321  0.1867  0.9609  1.3075
  124OSM   C10S13121   1.428   2.381   8.470  0.1183  0.2446 -0.4903
  124OSM   H10S13122   1.463   2.485   8.454  0.0060  0.5849  1.2461
  124OSM   H10T13123   1.510   2.317   8.508 -1.3434 -0.2752  2.0430
  124OSM   C11S13124   1.318   2.364   8.579 -1.3665  0.9049 -0.0764
  124OSM   H11S13125   1.269   2.267   8.557  0.5477 -0.2635  0.6458
  124OSM   H11T13126   1.244   2.445   8.563 -1.6595  0.7961  0.7130
  124OSM   C12S13127   1.380   2.369   8.720 -0.1127  0.0024  0.5881
  124OSM   H12S13128   1.478   2.321   8.741 -1.4970 -1.7503  3.7777
  124OSM   H12T13129   1.320   2.305   8.788  1.6566 -0.0902  2.1398
  124OSM   C13S13130   1.376   2.509   8.778  0.3406  0.3679 -0.0306
  124OSM   H13S13131   1.274   2.550   8.793  0.7628  0.8970  1.5352
  124OSM   H13T13132   1.424   2.588   8.716  0.6138 -0.3074 -0.7002
  124OSM   C14S13133   1.442   2.508   8.920  0.1569  0.1405  0.1684
  124OSM   H14S13134   1.551   2.504   8.902 -0.2963  0.1007 -3.1419
  124OSM   H14T13135   1.405   2.414   8.966  1.1004 -0.3353 -0.0254
  124OSM   C15S13136   1.409   2.625   9.007  0.6375 -0.0502  0.0946
  124OSM   H15S13137   1.301   2.654   9.003  0.6675  0.2365  1.1486
  124OSM   H15T13138   1.463   2.705   8.952 -0.7774  0.5336 -0.4979
  124OSM   C16S13139   1.451   2.608   9.156 -0.1181  0.3855 -0.8414
  124OSM   H16S13140   1.561   2.596   9.145 -0.0442 -0.8470  0.8549
  124OSM   H16T13141   1.408   2.516   9.200  2.0048 -0.4776 -0.4435
  124OSM   C17S13142   1.414   2.733   9.243  0.8926  0.4857 -0.0402
  124OSM   H17S13143   1.320   2.779   9.205  1.4212  1.1305 -0.5934
  124OSM   H17T13144   1.494   2.807   9.222 -1.0048  1.7886 -3.3322
  124OSM   C18S13145   1.395   2.707   9.394 -0.1800 -0.7473  0.3941
  124OSM   H18S13146   1.295   2.664   9.417 -0.2175  0.2012  2.1580
  124OSM   H18T13147   1.407   2.802   9.451  1.7700 -0.1991 -0.8418
  124OSM   H18U13148   1.476   2.640   9.430  0.2856  0.1949  1.1525
  124OSM    C1F13149   1.521   2.695   7.470 -0.1723  0.6039  0.5372
  124OSM     OF13150   1.414   2.726   7.416  0.5226  0.5811  0.3601
  124OSM    C2F13151   1.630   2.798   7.485  0.2799  0.7670  0.2559
  124OSM    H2F13152   1.656   2.849   7.390  2.2775  1.3955  1.0748
  124OSM    H2G13153   1.724   2.745   7.513 -0.2371 -1.7561 -2.3934
  124OSM    C3F13154   1.609   2.897   7.590 -0.0851 -0.1256 -0.1625
  124OSM    H3F13155   1.518   2.956   7.566  0.2725 -0.9133 -4.0945
  124OSM    H3G13156   1.692   2.971   7.598 -1.3481  1.2258  0.8071
  124OSM    C4F13157   1.595   2.847   7.724  0.6133 -0.3862  0.1908
  124OSM    H4F13158   1.513   2.773   7.720  0.6072 -0.3502 -0.3529
  124OSM    H4G13159   1.569   2.929   7.795  3.0263  1.3109 -0.7228
  124OSM    C5F13160   1.722   2.782   7.787 -0.3186 -0.0623 -0.6505
  124OSM    H5F13161   1.800   2.860   7.796  1.3921 -1.8631  1.1579
  124OSM    H5G13162   1.766   2.693   7.737  1.0586  1.0697 -1.5418
  124OSM    C6F13163   1.681   2.735   7.925 -0.3048  1.1048 -0.4079
  124OSM    H6F13164   1.587   2.675   7.925 -0.0367  0.5825  1.6115
  124OSM    H6G13165   1.648   2.819   7.989 -1.8127  1.3578 -1.4785
  124OSM    C7F13166   1.794   2.655   7.991  0.2048  0.7651 -0.1557
  124OSM    H7F13167   1.883   2.720   7.979  0.2053  1.0799  1.4117
  124OSM    H7G13168   1.795   2.565   7.926  0.0298  0.8453 -0.2718
  124OSM    C8F13169   1.769   2.621   8.135 -0.8410  1.0334  0.3490
  124OSM    H8F13170   1.682   2.554   8.149  1.5787 -2.1542  1.5029
  124OSM    H8G13171   1.750   2.720   8.181 -0.3755  1.4828 -0.3933
  124OSM    C9F13172   1.889   2.535   8.181 -0.2367 -0.6334 -0.1048
  124OSM    H9F13173   1.915   2.447   8.121  0.2416 -1.4220  1.2116
  124OSM   C10F13174   1.948   2.533   8.304 -0.2157 -1.0048  0.4483
  124OSM   H10F13175   2.027   2.458   8.319  0.4625 -0.7197 -1.4797
  124OSM   C11F13176   1.915   2.634   8.415 -0.6708 -0.1957  0.0258
  124OSM   H11F13177   1.910   2.731   8.361  0.4060  0.9299  1.8258
  124OSM   H11G13178   1.999   2.654   8.486 -2.0442  0.0548  1.6536
  124OSM   C12F13179   1.784   2.603   8.483  0.3988  0.1288 -1.0274
  124OSM   H12F13180   1.706   2.622   8.407 -1.5446  1.4164  1.1416
  124OSM   H12G13181   1.766   2.687   8.554 -1.2160  0.8612 -2.2390
  124OSM   C13F13182   1.776   2.474   8.563 -0.8084 -0.2317  1.2640
  124OSM   H13F13183   1.775   2.391   8.488  1.1115 -1.3871  2.4321
  124OSM   H13G13184   1.680   2.455   8.615  0.0784 -4.6008  1.7157
  124OSM   C14F13185   1.894   2.447   8.659  0.8059 -1.0676 -0.1814
  124OSM   H14F13186   1.899   2.533   8.730  1.0265  1.2729 -2.8395
  124OSM   H14G13187   1.983   2.448   8.593  2.3785  2.7495  1.6918
  124OSM   C15F13188   1.878   2.317   8.737  0.0285 -0.4949 -0.0842
  124OSM   H15F13189   1.891   2.225   8.675  0.8352 -0.1129 -0.4902
  124OSM   H15G13190   1.772   2.318   8.771 -0.8897 -2.8308 -2.4360
  124OSM   C16F13191   1.976   2.306   8.851  0.8080  0.2669 -0.3842
  124OSM   H16F13192   2.076   2.342   8.821  0.8437  1.9056  1.5191
  124OSM   H16G13193   1.972   2.199   8.882  1.8832  0.9444  2.3173
  124OSM   C17F13194   1.936   2.394   8.972 -0.3681 -0.0833  0.4309
  124OSM   H17F13195   1.924   2.500   8.940 -0.6511 -0.0081  0.7870
  124OSM   H17G13196   2.022   2.384   9.042 -1.2789  0.3980  1.6382
  124OSM   C18F13197   1.806   2.348   9.039  0.1967 -0.3167 -0.2292
  124OSM   H18F13198   1.812   2.243   9.076  3.9368  0.4038  1.7802
  124OSM   H18G13199   1.721   2.350   8.968  0.1676  0.5512 -0.1788
  124OSM   H18H13200   1.781   2.417   9.123  0.8609  1.1368 -1.1820
  125OSM      N13201   0.995   0.023  11.468  0.3088 -0.0828 -0.6009
  125OSM    C1513202   0.862  -0.030  11.427  0.3106 -1.0520  0.7061
  125OSM   H15A13203   0.872  -0.053  11.322  1.2972  0.4791  0.4282
  125OSM   H15B13204   0.792   0.047  11.453 -0.4931 -0.9522 -1.5393
  125OSM   H15C13205   0.830  -0.111  11.492 -2.5464  0.7411  1.6939
  125OSM    C1413206   1.003   0.042  11.617  0.2673  0.1630 -0.6437
  125OSM   H14A13207   1.097   0.083  11.649  0.0402 -0.1050  0.3973
  125OSM   H14B13208   0.990  -0.055  11.664 -0.9166 -0.7917 -2.7987
  125OSM   H14C13209   0.926   0.110  11.648 -0.1161 -0.8377  0.7268
  125OSM    C1313210   1.097  -0.077  11.422  0.3237  0.1263  0.4574
  125OSM   H13A13211   1.092  -0.158  11.493  1.7120  0.0241  0.4695
  125OSM   H13B13212   1.196  -0.036  11.411 -0.1306  1.7526  1.9305
  125OSM   H13C13213   1.070  -0.119  11.327 -0.9666  0.0146  0.8567
  125OSM    C1213214   1.027   0.149  11.393 -0.7330 -0.5113 -0.0348
  125OSM   H12A13215   1.131   0.171  11.410 -0.9342  1.0427 -0.6486
  125OSM   H12B13216   0.958   0.221  11.437  0.5183  0.3942  0.5001
  125OSM    C1113217   1.006   0.163  11.240  0.0933  0.1309 -0.3924
  125OSM   H11A13218   1.013   0.269  11.208  0.7849 -0.2120 -1.4379
  125OSM   H11B13219   0.901   0.132  11.220 -0.2902  2.0520 -1.5564
  125OSM      P13220   1.241   0.098  11.128  0.0855 -0.1465  0.0080
  125OSM    O1313221   1.325   0.052  11.239  0.1986 -0.4543 -0.4968
  125OSM    O1413222   1.279   0.046  10.996 -0.3164  0.0380 -0.1018
  125OSM    O1113223   1.247   0.256  11.124 -0.2389 -0.1229  0.0882
  125OSM    O1213224   1.085   0.081  11.158 -0.3991 -0.4671  0.6143
  125OSM    C1S13225   1.215   0.340  11.008  0.7934  0.1113 -0.3253
  125OSM    H1S13226   1.106   0.338  10.991  0.5386  0.8563  1.0832
  125OSM    H1T13227   1.267   0.309  10.914  1.2640  2.1581 -0.7719
  125OSM     NF13228   1.215   0.563  10.902 -0.0129  0.1075  0.0339
  125OSM    HNF13229   1.274   0.553  10.822 -2.0011 -0.4480 -1.4467
  125OSM    C2S13230   1.256   0.490  11.021 -0.6064  0.3972  0.0605
  125OSM    H2S13231   1.203   0.530  11.110  1.5690  3.4684  0.1250
  125OSM    C3S13232   1.405   0.504  11.050 -0.4711 -0.4009  0.2667
  125OSM    H3S13233   1.470   0.464  10.969 -0.3201 -0.9497  0.6503
  125OSM     O313234   1.445   0.445  11.173 -0.2091  0.0209 -0.6046
  125OSM    HO313235   1.372   0.386  11.191 -1.1091  0.8735 -1.3676
  125OSM    C4S13236   1.435   0.651  11.067 -1.0083  0.4944 -0.4266
  125OSM    H4S13237   1.384   0.706  11.148  0.5024  3.4598 -1.3583
  125OSM    C5S13238   1.514   0.724  10.984  0.1721 -0.4135 -0.3687
  125OSM    H5S13239   1.557   0.668  10.900  2.0963  1.2916 -0.5729
  125OSM    C6S13240   1.537   0.872  10.991 -0.7261 -0.0505  0.3909
  125OSM    H6S13241   1.646   0.897  10.990 -0.9273  0.8632  0.4066
  125OSM    H6T13242   1.500   0.922  11.083  2.9999  0.9870  1.5192
  125OSM    C7S13243   1.464   0.961  10.885 -0.3376  0.0576 -0.0451
  125OSM    H7S13244   1.364   0.916  10.867 -0.6596  0.8506 -0.2881
  125OSM    H7T13245   1.524   0.942  10.794  1.1387 -0.1140  0.9270
  125OSM    C8S13246   1.459   1.110  10.920  0.5768  0.3645 -0.5446
  125OSM    H8S13247   1.551   1.139  10.975  0.9596  0.0336 -0.9975
  125OSM    H8T13248   1.377   1.120  10.994  0.2102 -1.0947 -0.7228
  125OSM    C9S13249   1.449   1.197  10.793 -0.5706  0.0726 -1.0223
  125OSM    H9S13250   1.350   1.179  10.747 -1.8984 -0.7853  1.9187
  125OSM    H9T13251   1.528   1.158  10.725 -0.7869 -0.2731 -1.0769
  125OSM   C10S13252   1.479   1.343  10.828  0.2656  0.1382  0.7621
  125OSM   H10S13253   1.584   1.344  10.864  0.7484  2.1255 -0.5509
  125OSM   H10T13254   1.422   1.373  10.919  0.8403  0.6570  0.9583
  125OSM   C11S13255   1.470   1.437  10.712 -0.2297 -0.2186 -0.4201
  125OSM   H11S13256   1.367   1.428  10.673 -0.6951 -0.5656  0.8310
  125OSM   H11T13257   1.536   1.407  10.628 -1.5270 -0.3063 -1.4249
  125OSM   C12S13258   1.488   1.588  10.762 -0.4583  0.2724  0.6726
  125OSM   H12S13259   1.591   1.628  10.774 -0.4609 -0.2454  2.8054
  125OSM   H12T13260   1.449   1.589  10.865 -2.2681 -0.0705  0.0267
  125OSM   C13S13261   1.421   1.700  10.669 -0.1713  0.7000  0.8465
  125OSM   H13S13262   1.447   1.803  10.701 -1.2731  1.5130 -0.7549
  125OSM   H13T13263   1.310   1.694  10.677  0.0005 -1.0491  3.0024
  125OSM   C14S13264   1.465   1.692  10.518  0.5440 -0.3066 -0.2948
  125OSM   H14S13265   1.412   1.611  10.463  0.7132 -0.9373  0.4641
  125OSM   H14T13266   1.574   1.681  10.503  0.4535 -0.4641 -0.8645
  125OSM   C15S13267   1.430   1.830  10.451 -0.3078 -0.0196  0.5999
  125OSM   H15S13268   1.465   1.921  10.505 -1.8848  1.6716 -1.0890
  125OSM   H15T13269   1.320   1.844  10.466 -0.3056  0.3186  0.3147
  125OSM   C16S13270   1.447   1.839  10.297  0.1171  0.4462 -0.1945
  125OSM   H16S13271   1.401   1.748  10.253  3.1460 -1.8672  1.1327
  125OSM   H16T13272   1.556   1.832  10.277  0.2790  0.7530  0.5407
  125OSM   C17S13273   1.395   1.971  10.238  0.0251  0.3241 -0.1037
  125OSM   H17S13274   1.437   2.057  10.293 -0.8401 -0.7247  2.3304
  125OSM   H17T13275   1.287   1.976  10.263 -0.0384 -3.0891  0.7696
  125OSM   C18S13276   1.425   1.977  10.093 -0.6806 -0.4913  0.8451
  125OSM   H18S13277   1.369   1.903  10.031  1.0533  1.1896 -2.9679
  125OSM   H18T13278   1.530   1.965  10.061 -0.3143  2.0082  0.9126
  125OSM   H18U13279   1.395   2.080  10.063 -0.4855 -0.4216  0.8943
  125OSM    C1F13280   1.087   0.597  10.866 -0.1519 -1.3236 -0.6111
  125OSM     OF13281   1.006   0.590  10.959  0.4142 -0.6016 -0.0700
  125OSM    C2F13282   1.068   0.659  10.728  0.1738 -0.3396  0.3394
  125OSM    H2F13283   1.108   0.583  10.658 -1.1083 -0.3275 -0.4186
  125OSM    H2G13284   1.105   0.764  10.720 -1.6803  0.4248  1.2291
  125OSM    C3F13285   0.916   0.680  10.700  1.0412  0.5183 -0.0768
  125OSM    H3F13286   0.858   0.591  10.734  1.8102 -0.0612 -0.2673
  125OSM    H3G13287   0.906   0.708  10.593  0.0251  0.3714 -0.0307
  125OSM    C4F13288   0.867   0.807  10.784  0.0005  0.1689  0.3196
  125OSM    H4F13289   0.887   0.805  10.893  0.1641 -0.3327  0.2822
  125OSM    H4G13290   0.757   0.811  10.770  0.0027  1.2814  0.5770
  125OSM    C5F13291   0.917   0.938  10.720 -0.1594  0.2293  0.0204
  125OSM    H5F13292   0.926   0.937  10.609 -0.1689 -1.5759  0.0039
  125OSM    H5G13293   1.018   0.956  10.762 -0.8404  2.2096  0.9257
  125OSM    C6F13294   0.823   1.061  10.764 -0.3623  0.4242 -0.3253
  125OSM    H6F13295   0.840   1.095  10.869 -0.2635  1.5899 -0.7057
  125OSM    H6G13296   0.723   1.013  10.761  1.0452 -2.8869  0.5005
  125OSM    C7F13297   0.819   1.183  10.670 -0.8547 -0.0998 -0.4044
  125OSM    H7F13298   0.826   1.153  10.563  2.5371 -0.6148 -0.1617
  125OSM    H7G13299   0.907   1.243  10.702 -1.4687 -0.2509  1.6868
  125OSM    C8F13300   0.698   1.279  10.702 -0.2203 -0.1563  0.5877
  125OSM    H8F13301   0.603   1.239  10.661 -2.2501  1.6712  3.1221
  125OSM    H8G13302   0.708   1.366  10.633  0.8358  0.3603  1.3447
  125OSM    C9F13303   0.673   1.319  10.844  0.0090 -0.1017  0.3766
  125OSM    H9F13304   0.729   1.406  10.883  0.9958 -0.4317 -0.2738
  125OSM   C10F13305   0.583   1.272  10.929  0.4630 -0.0706 -0.0837
  125OSM   H10F13306   0.582   1.300  11.035 -1.5625  0.5554 -0.2301
  125OSM   C11F13307   0.477   1.169  10.909 -0.2073  0.1213 -0.8493
  125OSM   H11F13308   0.464   1.123  10.809 -1.9206 -1.6343  0.1199
  125OSM   H11G13309   0.383   1.227  10.917 -0.2343  0.4559 -3.1105
  125OSM   C12F13310   0.477   1.052  11.005  0.6047 -0.7062 -0.4666
  125OSM   H12F13311   0.562   0.980  11.005  0.8361 -0.5550  2.1496
  125OSM   H12G13312   0.390   0.987  10.979 -1.1609 -0.2413  3.4935
  125OSM   C13F13313   0.449   1.084  11.150 -0.2211  0.3164 -0.1928
  125OSM   H13F13314   0.372   1.165  11.159 -2.9050 -2.1695  0.9434
  125OSM   H13G13315   0.550   1.115  11.184  0.5916 -1.9524 -0.4414
  125OSM   C14F13316   0.403   0.968  11.240  0.4993 -0.0769  0.2238
  125OSM   H14F13317   0.477   0.888  11.219 -0.5280 -1.7224  2.5249
  125OSM   H14G13318   0.304   0.933  11.203  0.7412 -0.4269 -0.1016
  125OSM   C15F13319   0.376   0.983  11.391 -0.2076 -0.4554  0.1906
  125OSM   H15F13320   0.319   0.894  11.426  0.1739  0.3257  3.0898
  125OSM   H15G13321   0.311   1.070  11.416  0.4780  0.1710 -0.1584
  125OSM   C16F13322   0.510   0.998  11.466  0.8011 -0.2651 -0.2891
  125OSM   H16F13323   0.593   1.054  11.418  0.2890 -1.6123 -2.9516
  125OSM   H16G13324   0.558   0.899  11.473  2.5187  0.5812  0.5210
  125OSM   C17F13325   0.488   1.049  11.610 -0.1510 -0.3211 -0.1806
  125OSM   H17F13326   0.426   0.972  11.662 -0.1769  0.2476  0.6578
  125OSM   H17G13327   0.426   1.141  11.609 -0.0260 -0.0913  2.7432
  125OSM   C18F13328   0.629   1.079  11.670  0.2231 -0.5337 -0.6209
  125OSM   H18F13329   0.630   1.121  11.773  2.1369  4.2638 -2.2826
  125OSM   H18G13330   0.696   1.141  11.606 -1.4536  0.9757 -0.9999
  125OSM   H18H13331   0.682   0.982  11.676  0.3943 -0.3991  0.2749
  126OSM      N13332   2.252   3.011  11.954  0.3503 -0.2828  0.4704
  126OSM    C1513333   2.187   2.940  11.841  0.1684 -0.0881 -0.0428
  126OSM   H15A13334   2.212   2.835  11.841 -0.2088 -0.3340  3.6390
  126OSM   H15B13335   2.218   2.974  11.744 -0.8336 -1.0485 -0.7185
  126OSM   H15C13336   2.081   2.958  11.834  0.3965  1.0335 -0.9769
  126OSM    C1413337   2.242   2.949  12.083  0.2833  0.7351  0.2464
  126OSM   H14A13338   2.143   2.956  12.125 -0.5546 -2.6112 -0.8583
  126OSM   H14B13339   2.305   2.997  12.157 -0.8466 -0.9480  2.4019
  126OSM   H14C13340   2.275   2.846  12.081 -0.8576  0.3516  0.5339
  126OSM    C1313341   2.395   3.014  11.923 -0.9860  0.0986  0.5419
  126OSM   H13A13342   2.455   3.052  12.005  0.3819  1.1944 -0.9230
  126OSM   H13B13343   2.421   3.061  11.830 -4.8206 -2.9532 -2.4081
  126OSM   H13C13344   2.416   2.909  11.913 -0.3303  0.2871 -0.0556
  126OSM    C1213345   2.206   3.152  11.968 -0.9462  0.0667  0.5074
  126OSM   H12A13346   2.227   3.201  11.874  1.7852  0.7327  1.3705
  126OSM   H12B13347   2.268   3.206  12.037  0.7722 -0.8219 -0.2697
  126OSM    C1113348   2.062   3.183  12.011  0.2566  0.0624  0.6844
  126OSM   H11A13349   2.044   3.128  12.105  3.5196 -0.5618  1.0893
  126OSM   H11B13350   1.991   3.135  11.940  2.8480 -1.1488 -1.2818
  126OSM      P13351   2.054   3.397  12.147  0.0333 -0.0304 -0.0889
  126OSM    O1313352   1.997   3.533  12.129 -0.1949 -0.6176  0.3868
  126OSM    O1413353   2.006   3.316  12.260  0.2417  0.2785 -0.4408
  126OSM    O1113354   2.210   3.407  12.165 -0.4634  0.2722  0.1421
  126OSM    O1213355   2.039   3.324  12.013  0.0917 -0.1999 -0.3920
  126OSM    C1S13356   2.296   3.485  12.079  1.1263  0.6308  0.4759
  126OSM    H1S13357   2.254   3.587  12.065  0.1176  0.1810  0.1104
  126OSM    H1T13358   2.301   3.435  11.980 -3.0068 -0.2236  0.5386
  126OSM     NF13359   2.525   3.573  12.053 -0.1520 -0.4289 -0.1607
  126OSM    HNF13360   2.577   3.532  11.979 -0.1664  3.6383 -2.7661
  126OSM    C2S13361   2.443   3.486  12.131  0.0492  0.0912 -0.8346
  126OSM    H2S13362   2.437   3.526  12.234 -2.4964  2.3469 -1.7357
  126OSM    C3S13363   2.507   3.345  12.137 -0.1074  0.5413  0.2928
  126OSM    H3S13364   2.523   3.302  12.036 -2.3057 -4.6033  1.8172
  126OSM     O313365   2.421   3.240  12.184  0.7821  0.0128  0.2748
  126OSM    HO313366   2.343   3.291  12.207  1.7172  2.3122 -1.3244
  126OSM    C4S13367   2.646   3.351  12.202  0.1763 -0.0069  0.6511
  126OSM    H4S13368   2.706   3.400  12.123 -1.5473 -1.2770 -1.5891
  126OSM    C5S13369   2.679   3.311  12.322  0.0849 -0.4579 -0.0098
  126OSM    H5S13370   2.607   3.263  12.390 -1.5563 -1.0747 -2.1011
  126OSM    C6S13371   2.819   3.311  12.382 -0.7670 -0.1143 -0.3973
  126OSM    H6S13372   2.893   3.341  12.304  1.0468  0.9200  1.5994
  126OSM    H6T13373   2.837   3.205  12.409  3.8126  0.2990 -1.0216
  126OSM    C7S13374   2.834   3.405  12.500 -0.3741 -0.6399 -0.0300
  126OSM    H7S13375   2.778   3.356  12.582 -2.8570 -1.5366 -2.1139
  126OSM    H7T13376   2.774   3.496  12.479 -3.8047 -1.9919  2.8997
  126OSM    C8S13377   2.980   3.450  12.547  0.9365  0.3138  0.3246
  126OSM    H8S13378   2.989   3.554  12.511  0.7056  0.3515  0.3739
  126OSM    H8T13379   3.064   3.399  12.495 -0.1599  1.6031 -2.9710
  126OSM    C9S13380   3.003   3.442  12.704 -0.7664  0.3712  0.5462
  126OSM    H9S13381   2.937   3.357  12.730 -2.6964  0.4382 -3.3824
  126OSM    H9T13382   2.970   3.527  12.768 -0.3979  0.1000  1.1109
  126OSM   C10S13383   3.156   3.408  12.720 -0.4182 -0.7366  0.3981
  126OSM   H10S13384   3.213   3.498  12.688 -1.9412 -0.0653 -0.5320
  126OSM   H10T13385   3.189   3.324  12.655 -0.3077 -1.5006  1.4066
  126OSM   C11S13386   3.190   3.361  12.857  0.0951  0.0991 -0.7485
  126OSM   H11S13387   3.142   3.262  12.872  0.8176 -0.0862  0.3919
  126OSM   H11T13388   3.160   3.437  12.932 -0.7351 -0.3944 -0.5671
  126OSM   C12S13389   3.337   3.338  12.891  0.9116  0.0202 -0.4924
  126OSM   H12S13390   3.381   3.305  12.794 -0.8355  1.4148 -1.8317
  126OSM   H12T13391   3.366   3.278  12.980  0.5395 -0.1273 -0.4691
  126OSM   C13S13392   3.423   3.461  12.916  0.1503 -0.9816  0.3378
  126OSM   H13S13393   3.399   3.531  12.833 -1.4758 -0.3179  1.3228
  126OSM   H13T13394   3.532   3.441  12.903  0.2769  0.1231 -0.4856
  126OSM   C14S13395   3.389   3.530  13.054 -0.8048  0.4423 -0.0305
  126OSM   H14S13396   3.280   3.554  13.062 -0.6076  1.4372 -0.2969
  126OSM   H14T13397   3.441   3.627  13.069  0.5136 -0.5121  1.9689
  126OSM   C15S13398   3.428   3.444  13.178 -0.2667 -0.2772 -0.0493
  126OSM   H15S13399   3.394   3.338  13.174  0.3150 -0.5058  0.8451
  126OSM   H15T13400   3.378   3.488  13.266  0.2643  0.0625  0.0807
  126OSM   C16S13401   3.575   3.444  13.215 -0.6328 -0.7227 -0.6606
  126OSM   H16S13402   3.628   3.537  13.185 -0.5955 -0.2186  0.8482
  126OSM   H16T13403   3.629   3.359  13.169 -2.5354 -2.1480 -0.3474
  126OSM   C17S13404   3.586   3.433  13.371  0.6401  0.2216  0.0377
  126OSM   H17S13405   3.511   3.356  13.401  1.2744  0.3470  2.0715
  126OSM   H17T13406   3.564   3.531  13.418  1.8479  1.0901 -1.1240
  126OSM   C18S13407   3.726   3.398  13.424  0.9671 -0.6376 -0.8464
  126OSM   H18S13408   3.795   3.478  13.389 -1.0310  0.9051 -1.4498
  126OSM   H18T13409   3.768   3.301  13.390  1.6968 -0.2331 -1.1250
  126OSM   H18U13410   3.742   3.391  13.534  2.4329 -1.1246 -1.0707
  126OSM    C1F13411   2.504   3.704  12.051  0.0648 -0.4343 -0.6647
  126OSM     OF13412   2.441   3.766  12.141 -0.6510  0.7239  0.0996
  126OSM    C2F13413   2.564   3.781  11.933  0.5072 -0.2794  0.6358
  126OSM    H2F13414   2.476   3.816  11.876  0.2372 -0.5298  0.8991
  126OSM    H2G13415   2.649   3.737  11.876  0.8605  0.8345  0.2731
  126OSM    C3F13416   2.626   3.912  11.987 -0.2598 -0.0484 -0.0251
  126OSM    H3F13417   2.710   3.883  12.054  0.7065  1.0755 -0.6963
  126OSM    H3G13418   2.541   3.960  12.039 -0.5596 -0.4675 -0.1272
  126OSM    C4F13419   2.675   4.011  11.881 -0.0255 -0.1768 -0.3497
  126OSM    H4F13420   2.594   4.011  11.804 -1.3440 -1.3578  0.9705
  126OSM    H4G13421   2.769   3.977  11.832 -0.0991 -0.9313  0.0204
  126OSM    C5F13422   2.689   4.156  11.934  0.9697 -0.0789  0.4224
  126OSM    H5F13423   2.764   4.164  12.015  0.1576 -0.5641  1.2514
  126OSM    H5G13424   2.586   4.184  11.968 -0.0069 -2.8810  0.0464
  126OSM    C6F13425   2.719   4.258  11.821  0.3293 -0.6871  0.2528
  126OSM    H6F13426   2.810   4.226  11.765  1.1628  3.3016 -0.9722
  126OSM    H6G13427   2.734   4.356  11.872 -0.6805 -0.4661  0.1467
  126OSM    C7F13428   2.618   4.282  11.709  0.1561  1.1110 -0.2524
  126OSM    H7F13429   2.603   4.195  11.641 -1.0034  0.7562  0.4360
  126OSM    H7G13430   2.651   4.365  11.643 -1.6246  2.6992  0.7566
  126OSM    C8F13431   2.480   4.307  11.774  0.2085  0.0055 -0.2746
  126OSM    H8F13432   2.491   4.396  11.838 -2.3062  0.5961 -0.5683
  126OSM    H8G13433   2.442   4.218  11.829 -1.2346  2.0071  2.1816
  126OSM    C9F13434   2.375   4.339  11.673 -0.9837 -0.3032  0.4170
  126OSM    H9F13435   2.327   4.247  11.635  0.0539 -1.3739  1.5883
  126OSM   C10F13436   2.326   4.458  11.626 -0.1769  0.8347  0.0523
  126OSM   H10F13437   2.258   4.448  11.539  1.5126 -0.2685 -1.1996
  126OSM   C11F13438   2.381   4.596  11.657  0.3786 -0.2052 -0.0396
  126OSM   H11F13439   2.459   4.587  11.735 -2.6167 -0.3795  3.1490
  126OSM   H11G13440   2.303   4.664  11.697  2.0816  1.0401  1.2638
  126OSM   C12F13441   2.435   4.664  11.527 -0.0023 -0.3581  0.7427
  126OSM   H12F13442   2.376   4.654  11.433  1.6440 -0.7771 -0.2926
  126OSM   H12G13443   2.533   4.625  11.491 -0.0193  1.2493 -1.2432
  126OSM   C13F13444   2.451   4.817  11.534 -0.0085 -0.5219 -0.4301
  126OSM   H13F13445   2.490   4.853  11.436  0.7567 -0.0770  0.0294
  126OSM   H13G13446   2.516   4.833  11.622  1.5600 -3.5479 -0.9158
  126OSM   C14F13447   2.315   4.887  11.550  0.5369  0.3465  0.4427
  126OSM   H14F13448   2.288   4.879  11.658 -1.7170  0.0101 -0.1038
  126OSM   H14G13449   2.237   4.840  11.487  1.1392  1.3233 -1.0681
  126OSM   C15F13450   2.319   5.035  11.514  0.3262 -0.2448  0.5512
  126OSM   H15F13451   2.394   5.090  11.575  0.7326  2.2989 -2.0122
  126OSM   H15G13452   2.219   5.079  11.533 -0.4751 -1.3128 -0.9567
  126OSM   C16F13453   2.346   5.060  11.362  0.2380 -0.5990  0.2445
  126OSM   H16F13454   2.274   4.997  11.305  0.3468 -1.1906  0.7489
  126OSM   H16G13455   2.448   5.021  11.339  0.3508 -0.7609  0.9982
  126OSM   C17F13456   2.343   5.206  11.328 -0.1133 -0.4530  0.1309
  126OSM   H17F13457   2.415   5.262  11.392  1.2939 -0.0223 -1.7451
  126OSM   H17G13458   2.244   5.254  11.335 -0.4833 -1.1161 -0.5001
  126OSM   C18F13459   2.382   5.223  11.183  0.0451  0.0259  0.5022
  126OSM   H18F13460   2.363   5.330  11.156 -0.2933 -0.0942  0.2575
  126OSM   H18G13461   2.336   5.154  11.109  2.8849 -2.3002  0.7154
  126OSM   H18H13462   2.488   5.196  11.164 -0.1843 -0.4675 -0.1218
  127OSM      N13463   1.393   1.699   7.279  0.8748  0.1306  0.1646
  127OSM    C1513464   1.455   1.700   7.415  0.1110 -0.5044 -0.1985
  127OSM   H15A13465   1.378   1.688   7.489 -0.4104 -3.0557 -1.0382
  127OSM   H15B13466   1.520   1.783   7.438  1.4281 -1.3251 -0.8591
  127OSM   H15C13467   1.515   1.610   7.413  0.6794 -0.1949  1.6564
  127OSM    C1413468   1.353   1.841   7.244 -0.6853 -0.5233  0.0678
  127OSM   H14A13469   1.441   1.904   7.246  0.7442 -2.3136 -1.6744
  127OSM   H14B13470   1.288   1.884   7.318 -1.8722 -0.9437 -0.7147
  127OSM   H14C13471   1.296   1.842   7.152 -2.8922  2.1373  1.3215
  127OSM    C1313472   1.503   1.661   7.189 -0.2641 -0.4263  0.2124
  127OSM   H13A13473   1.502   1.553   7.197 -1.7004 -0.4612 -0.1490
  127OSM   H13B13474   1.593   1.710   7.223 -1.8032  0.2587  3.6588
  127OSM   H13C13475   1.493   1.685   7.084  1.1664  0.7825  0.3213
  127OSM    C1213476   1.281   1.600   7.270  0.0019  0.3157 -0.1680
  127OSM   H12A13477   1.209   1.636   7.342 -2.7959 -2.1793 -1.5118
  127OSM   H12B13478   1.322   1.505   7.301  0.8701  0.6253 -0.3122
  127OSM    C1113479   1.210   1.569   7.134  0.5220 -0.5689 -0.3838
  127OSM   H11A13480   1.131   1.496   7.158  0.4798 -0.1167  0.9330
  127OSM   H11B13481   1.282   1.520   7.064  0.4950 -1.9392  0.5063
  127OSM      P13482   1.005   1.726   7.109 -0.2138 -0.5233  0.5954
  127OSM    O1313483   0.976   1.849   7.042  0.2225  0.0728  0.3801
  127OSM    O1413484   0.914   1.619   7.083  0.6231 -0.0491 -0.1545
  127OSM    O1113485   1.015   1.755   7.264  0.3852  0.3386 -0.6122
  127OSM    O1213486   1.151   1.681   7.068 -0.5146 -0.0590  0.1702
  127OSM    C1S13487   0.891   1.789   7.332 -0.5729 -0.2727 -0.4697
  127OSM    H1S13488   0.810   1.714   7.319  0.5768 -1.7443  0.4645
  127OSM    H1T13489   0.851   1.889   7.308 -0.9101 -0.0614  0.8793
  127OSM     NF13490   0.781   1.817   7.542  0.2116 -0.5636 -0.4360
  127OSM    HNF13491   0.770   1.904   7.589  1.9691 -0.7670  0.4006
  127OSM    C2S13492   0.910   1.796   7.485  0.3883 -0.1456  0.0618
  127OSM    H2S13493   0.949   1.698   7.521  0.9684 -0.1834 -0.6526
  127OSM    C3S13494   1.019   1.901   7.521  1.0425 -0.0758  0.0215
  127OSM    H3S13495   0.993   2.003   7.486  0.3912  0.2704  1.4521
  127OSM     O313496   1.138   1.893   7.451  0.5749 -0.1635 -0.4105
  127OSM    HO313497   1.115   1.827   7.384  1.2562 -0.5092 -0.3109
  127OSM    C4S13498   1.049   1.912   7.667 -0.0655  0.6977 -0.0581
  127OSM    H4S13499   1.112   1.834   7.713 -1.7604 -0.4973  0.3054
  127OSM    C5S13500   1.026   2.016   7.739 -0.5674 -0.2952 -0.2231
  127OSM    H5S13501   0.955   2.091   7.701  1.0012  1.5259  0.2756
  127OSM    C6S13502   1.057   2.036   7.890  0.1826 -0.2426  0.3790
  127OSM    H6S13503   0.983   2.105   7.936 -0.9604 -1.3633  0.2736
  127OSM    H6T13504   1.152   2.092   7.905 -1.0935  1.9046  0.9838
  127OSM    C7S13505   1.069   1.906   7.973 -0.5783  0.1605 -0.5077
  127OSM    H7S13506   1.138   1.840   7.915 -1.1577  0.6242 -1.7749
  127OSM    H7T13507   0.976   1.852   7.998  0.1567 -0.0956  1.9775
  127OSM    C8S13508   1.139   1.931   8.110  0.3929 -0.0234 -0.5432
  127OSM    H8S13509   1.063   1.958   8.186  1.1709 -0.1220  0.2859
  127OSM    H8T13510   1.210   2.015   8.099 -0.1516  0.5001 -0.1287
  127OSM    C9S13511   1.221   1.817   8.179  0.9671  0.0572  0.3376
  127OSM    H9S13512   1.291   1.785   8.098 -0.3173  0.4450 -0.9677
  127OSM    H9T13513   1.157   1.732   8.210  0.4585  0.3777  0.1800
  127OSM   C10S13514   1.304   1.866   8.294  0.4248 -0.5340  0.5931
  127OSM   H10S13515   1.342   1.967   8.266  0.2798 -0.7401 -0.3911
  127OSM   H10T13516   1.390   1.797   8.307  2.7390  1.9132 -0.6831
  127OSM   C11S13517   1.221   1.896   8.423 -0.0669  0.4639  0.3608
  127OSM   H11S13518   1.166   1.810   8.466  0.0697  0.2813  0.1703
  127OSM   H11T13519   1.141   1.972   8.410 -1.3642 -0.8968  0.1095
  127OSM   C12S13520   1.315   1.944   8.536  0.3678  0.0040 -0.1126
  127OSM   H12S13521   1.363   2.040   8.508 -2.0833  0.8361 -1.7996
  127OSM   H12T13522   1.397   1.871   8.554 -0.3080 -0.5965  0.6726
  127OSM   C13S13523   1.238   1.961   8.669 -0.0447 -0.4925 -0.2311
  127OSM   H13S13524   1.184   1.867   8.695 -1.9254  0.2735 -1.2028
  127OSM   H13T13525   1.155   2.033   8.657 -0.7365 -1.1225  0.6683
  127OSM   C14S13526   1.339   2.007   8.778  0.0129  0.7132 -0.2079
  127OSM   H14S13527   1.401   2.084   8.727  0.7450 -1.1294 -2.2470
  127OSM   H14T13528   1.414   1.928   8.799  1.5879  1.8437 -1.2951
  127OSM   C15S13529   1.281   2.055   8.911  0.3894 -0.1299 -0.2262
  127OSM   H15S13530   1.194   1.993   8.940 -0.2219  1.1260  0.6909
  127OSM   H15T13531   1.224   2.148   8.890  2.2706  0.8764 -1.2183
  127OSM   C16S13532   1.388   2.091   9.015  0.1936  0.4035 -0.2453
  127OSM   H16S13533   1.467   2.154   8.971  0.1950 -0.3523 -1.3757
  127OSM   H16T13534   1.443   2.002   9.054  0.9691  0.5593 -0.9724
  127OSM   C17S13535   1.324   2.156   9.139 -0.1211  0.0390  0.4827
  127OSM   H17S13536   1.238   2.093   9.172  0.8992 -0.3676  2.5292
  127OSM   H17T13537   1.281   2.257   9.122 -0.9733 -0.4525 -0.4404
  127OSM   C18S13538   1.412   2.165   9.261  0.0113  0.1999  0.0591
  127OSM   H18S13539   1.424   2.069   9.316  0.1171  1.9739  3.3840
  127OSM   H18T13540   1.368   2.248   9.320  0.5658  1.4050 -1.1593
  127OSM   H18U13541   1.513   2.202   9.232  0.1441 -0.1622  0.0552
  127OSM    C1F13542   0.681   1.731   7.547  0.2945 -0.5107  0.8478
  127OSM     OF13543   0.696   1.611   7.518 -0.1624 -0.0776 -0.3361
  127OSM    C2F13544   0.551   1.789   7.588  0.5548 -0.3000 -0.1129
  127OSM    H2F13545   0.484   1.787   7.499  0.8422 -1.1748 -0.3187
  127OSM    H2G13546   0.550   1.891   7.632 -1.5475 -0.3903  0.1827
  127OSM    C3F13547   0.486   1.707   7.701  0.0886 -0.4763  0.0436
  127OSM    H3F13548   0.473   1.607   7.652 -1.9853  1.4082 -3.7326
  127OSM    H3G13549   0.387   1.749   7.728  1.7746  2.0244  2.9568
  127OSM    C4F13550   0.564   1.702   7.831  0.5162  0.5839  0.2622
  127OSM    H4F13551   0.673   1.685   7.814  0.4481 -1.2814  1.3499
  127OSM    H4G13552   0.530   1.604   7.871 -0.4678  0.6797 -0.2947
  127OSM    C5F13553   0.545   1.811   7.930  0.0115 -0.0997 -0.1225
  127OSM    H5F13554   0.436   1.828   7.942  0.1196 -0.8453  2.5731
  127OSM    H5G13555   0.582   1.905   7.885 -0.7240  0.1743 -0.1753
  127OSM    C6F13556   0.604   1.789   8.067 -1.4561 -0.4547  0.1151
  127OSM    H6F13557   0.712   1.769   8.049 -1.4648 -0.2030 -0.2286
  127OSM    H6G13558   0.559   1.701   8.117 -0.1551 -0.5738  1.1271
  127OSM    C7F13559   0.572   1.919   8.151  0.0361 -0.1829  0.1296
  127OSM    H7F13560   0.464   1.944   8.150 -0.0162 -0.4276 -0.7507
  127OSM    H7G13561   0.628   2.000   8.100 -1.1302  1.7932  1.8415
  127OSM    C8F13562   0.621   1.913   8.297 -0.0644 -0.0184  0.5064
  127OSM    H8F13563   0.565   1.836   8.354 -2.0382  0.7656 -0.3182
  127OSM    H8G13564   0.597   2.004   8.356 -1.5289 -0.0281 -0.0406
  127OSM    C9F13565   0.776   1.894   8.302  0.0879 -0.4334  0.8633
  127OSM    H9F13566   0.835   1.928   8.216 -0.2366 -2.5590 -0.2520
  127OSM   C10F13567   0.838   1.825   8.391  0.1069  0.2290 -0.1662
  127OSM   H10F13568   0.946   1.813   8.373  0.0416 -0.2138 -0.2695
  127OSM   C11F13569   0.785   1.771   8.518 -0.7124  0.2139  0.1067
  127OSM   H11F13570   0.727   1.680   8.491 -1.9786  1.6516 -2.5185
  127OSM   H11G13571   0.718   1.847   8.565 -1.1358  1.2334 -1.9998
  127OSM   C12F13572   0.897   1.736   8.616  0.0976 -0.3517  0.0410
  127OSM   H12F13573   0.946   1.834   8.638  1.7195 -1.1194 -0.0247
  127OSM   H12G13574   0.970   1.675   8.559 -1.6060 -0.1217 -2.6011
  127OSM   C13F13575   0.852   1.663   8.739 -0.2608  0.8545 -0.8003
  127OSM   H13F13576   0.933   1.601   8.784 -0.5535 -0.3230 -1.8520
  127OSM   H13G13577   0.769   1.594   8.712 -1.2768  1.0680  1.5393
  127OSM   C14F13578   0.799   1.764   8.840  0.5883  0.2475 -0.7943
  127OSM   H14F13579   0.776   1.701   8.929  0.9304 -0.8041 -1.4252
  127OSM   H14G13580   0.703   1.805   8.802  0.4324 -0.7374 -1.5301
  127OSM   C15F13581   0.898   1.869   8.883  0.5885 -0.4388 -0.1614
  127OSM   H15F13582   0.923   1.948   8.809 -0.1111  0.8269  0.9041
  127OSM   H15G13583   0.995   1.816   8.886 -0.4769 -2.5277 -0.9370
  127OSM   C16F13584   0.869   1.945   9.020  0.2965  0.1334 -0.5420
  127OSM   H16F13585   0.847   1.868   9.097 -2.1629 -0.8631 -2.1085
  127OSM   H16G13586   0.771   1.996   9.010 -0.0457 -0.5032 -0.5378
  127OSM   C17F13587   0.966   2.044   9.072 -0.1313  0.0287 -0.0985
  127OSM   H17F13588   0.981   2.112   8.986  1.9927  0.2237  0.3867
  127OSM   H17G13589   1.054   1.981   9.097  0.0878  0.8837  1.4176
  127OSM   C18F13590   0.913   2.117   9.201 -0.4624  0.1551  0.5094
  127OSM   H18F13591   0.805   2.134   9.184 -0.4300 -1.1030 -1.2092
  127OSM   H18G13592   0.976   2.204   9.229  1.4356 -0.7625 -0.6939
  127OSM   H18H13593   0.935   2.036   9.274 -0.5141 -0.4628 -0.1501
  128OSM      N13594   0.423   3.044   6.689  0.1671  0.3198  0.5423
  128OSM    C1513595   0.539   2.950   6.666 -0.0862  0.2035  1.0376
  128OSM   H15A13596   0.536   2.874   6.743 -0.0341  0.4949  1.3284
  128OSM   H15B13597   0.638   2.989   6.681  0.6333 -1.0683 -0.2114
  128OSM   H15C13598   0.532   2.902   6.569  1.1376 -1.6646  1.8419
  128OSM    C1413599   0.429   3.139   6.572 -0.0239  0.4553  0.4176
  128OSM   H14A13600   0.525   3.189   6.563  1.1083 -1.9405 -2.8687
  128OSM   H14B13601   0.352   3.215   6.567 -2.1706 -1.6569 -2.5718
  128OSM   H14C13602   0.415   3.078   6.484 -0.5023  1.2940 -0.1111
  128OSM    C1313603   0.297   2.964   6.678  0.5136  0.2899  0.4620
  128OSM   H13A13604   0.207   3.023   6.683 -0.1714 -0.7393  0.5552
  128OSM   H13B13605   0.290   2.887   6.754  0.7750  0.6315  0.8370
  128OSM   H13C13606   0.292   2.908   6.586  1.2681  1.2620 -0.1814
  128OSM    C1213607   0.434   3.117   6.815 -0.5515  0.2673 -0.1050
  128OSM   H12A13608   0.359   3.195   6.808  0.9068  1.5968 -1.6376
  128OSM   H12B13609   0.522   3.179   6.809  0.3606 -1.0977 -1.7458
  128OSM    C1113610   0.432   3.037   6.947  0.0329 -0.2075 -0.2163
  128OSM   H11A13611   0.473   3.104   7.025  0.5919  0.8435 -1.3748
  128OSM   H11B13612   0.498   2.948   6.937 -0.3485 -0.4342 -0.7623
  128OSM      P13613   0.182   3.059   7.017  0.2276  0.3789 -0.0965
  128OSM    O1313614   0.179   3.193   6.952 -0.2408  0.1725  0.1839
  128OSM    O1413615   0.055   2.985   7.012 -0.2648  0.2313 -0.7250
  128OSM    O1113616   0.229   3.083   7.167 -1.1215  0.4877 -0.3302
  128OSM    O1213617   0.301   2.977   6.968  0.9672  0.3934 -0.3084
  128OSM    C1S13618   0.204   2.980   7.272 -0.0577 -0.5425 -0.3904
  128OSM    H1S13619   0.264   2.891   7.246  0.9370 -0.1102  0.3531
  128OSM    H1T13620   0.097   2.953   7.266 -0.4885  1.2730 -2.1380
  128OSM     NF13621   0.208   2.951   7.521 -0.2768  0.1961  0.5168
  128OSM    HNF13622   0.134   2.973   7.584  0.9878  0.6181  1.9146
  128OSM    C2S13623   0.231   3.044   7.413  0.3950 -0.4823  0.4205
  128OSM    H2S13624   0.339   3.069   7.412  0.2755  0.2981 -2.7316
  128OSM    C3S13625   0.145   3.175   7.428 -0.7894  0.4172  0.2649
  128OSM    H3S13626   0.041   3.139   7.414 -0.8000  0.6558 -0.2908
  128OSM     O313627   0.160   3.274   7.325  0.2770  0.7118  0.7724
  128OSM    HO313628   0.199   3.222   7.255 -0.6140  0.3446  0.5434
  128OSM    C4S13629   0.175   3.228   7.564  0.3840 -0.1544 -0.7020
  128OSM    H4S13630   0.090   3.198   7.626  1.1906  1.2507  1.1586
  128OSM    C5S13631   0.260   3.330   7.600  0.8941  0.4647  0.1868
  128OSM    H5S13632   0.322   3.376   7.521 -0.4721 -0.0890 -1.2568
  128OSM    C6S13633   0.272   3.402   7.733  0.5521  0.2625 -0.0714
  128OSM    H6S13634   0.225   3.502   7.723 -3.4230 -1.1704  1.9604
  128OSM    H6T13635   0.379   3.407   7.762  0.4147  3.9164  0.3234
  128OSM    C7S13636   0.198   3.334   7.846  0.0566  0.0086  0.1827
  128OSM    H7S13637   0.091   3.318   7.822  0.2729 -0.3077 -0.5983
  128OSM    H7T13638   0.201   3.411   7.927  1.2798 -0.1256  0.2826
  128OSM    C8S13639   0.261   3.212   7.911 -0.1951 -0.5236  0.0766
  128OSM    H8S13640   0.362   3.233   7.953 -0.2636  1.4919 -0.6184
  128OSM    H8T13641   0.286   3.133   7.837  1.8300  2.5736 -2.8671
  128OSM    C9S13642   0.178   3.168   8.031 -0.2377 -0.1421 -0.1786
  128OSM    H9S13643   0.207   3.064   8.055  1.3101  0.1112 -0.8274
  128OSM    H9T13644   0.070   3.164   8.006  0.1340 -0.2206 -1.8969
  128OSM   C10S13645   0.196   3.258   8.157 -0.6730  0.5313 -0.3782
  128OSM   H10S13646   0.130   3.345   8.132  0.8821  1.8880  0.0248
  128OSM   H10T13647   0.303   3.282   8.175 -0.6356 -0.2920  0.5498
  128OSM   C11S13648   0.144   3.197   8.294  0.1046  0.1342 -1.2644
  128OSM   H11S13649   0.171   3.090   8.295 -1.7178 -0.3696 -0.6655
  128OSM   H11T13650   0.032   3.197   8.294  0.0050  2.2563  1.0031
  128OSM   C12S13651   0.177   3.277   8.416  0.7088 -0.1122  0.4485
  128OSM   H12S13652   0.137   3.379   8.394 -0.0736 -0.7783 -1.4671
  128OSM   H12T13653   0.288   3.289   8.418  1.1954 -2.5669 -2.7806
  128OSM   C13S13654   0.130   3.211   8.547  0.7526 -0.1391 -0.4118
  128OSM   H13S13655   0.120   3.104   8.519 -0.7011 -0.0123 -0.4854
  128OSM   H13T13656   0.031   3.250   8.581  1.7167  0.3059  2.1328
  128OSM   C14S13657   0.222   3.222   8.664  0.0031 -0.7279  0.3541
  128OSM   H14S13658   0.253   3.326   8.691 -1.0215 -0.2878 -0.1167
  128OSM   H14T13659   0.321   3.183   8.630  0.8528  1.2178  0.4175
  128OSM   C15S13660   0.171   3.153   8.790  1.1356  0.0318 -0.2344
  128OSM   H15S13661   0.250   3.173   8.866  0.5359  0.4059  0.3036
  128OSM   H15T13662   0.172   3.044   8.767  2.3969 -0.1364  0.5101
  128OSM   C16S13663   0.049   3.211   8.861  0.3230 -0.5629  0.4536
  128OSM   H16S13664   0.026   3.133   8.937 -0.7927 -0.3680  0.3431
  128OSM   H16T13665  -0.043   3.200   8.798  1.8217  1.0171 -2.1743
  128OSM   C17S13666   0.070   3.360   8.908 -0.2430 -0.1327 -0.3649
  128OSM   H17S13667   0.101   3.418   8.819  2.5712 -1.4256 -0.3090
  128OSM   H17T13668   0.159   3.360   8.975 -0.0133  0.6307 -0.6578
  128OSM   C18S13669  -0.052   3.418   8.984 -0.2631  0.7434  0.5384
  128OSM   H18S13670  -0.135   3.419   8.909 -0.4173 -2.7634  0.4972
  128OSM   H18T13671  -0.032   3.520   9.022 -1.8159  1.2818  0.0088
  128OSM   H18U13672  -0.079   3.363   9.077  1.4478  1.8386  1.7282
  128OSM    C1F13673   0.279   2.842   7.540 -0.3361  0.1401  0.5952
  128OSM     OF13674   0.374   2.812   7.464 -0.4153  0.4871 -0.2384
  128OSM    C2F13675   0.231   2.750   7.647 -1.0483  0.1183  0.0418
  128OSM    H2F13676   0.258   2.650   7.608  1.5552  0.3533  1.0479
  128OSM    H2G13677   0.120   2.758   7.649 -1.0074  1.2060 -0.7827
  128OSM    C3F13678   0.312   2.776   7.776  0.3279  0.1321 -0.3897
  128OSM    H3F13679   0.323   2.884   7.801  3.4731 -0.1162 -0.2108
  128OSM    H3G13680   0.418   2.744   7.764 -0.1305 -1.6978  0.1670
  128OSM    C4F13681   0.264   2.696   7.898 -0.1542  0.5989 -0.2505
  128OSM    H4F13682   0.290   2.589   7.883  1.6942  1.2809 -2.7291
  128OSM    H4G13683   0.154   2.690   7.893 -0.0774  0.0420 -1.7073
  128OSM    C5F13684   0.306   2.756   8.029  0.1362 -0.0242 -0.8154
  128OSM    H5F13685   0.241   2.841   8.057  0.2074 -0.9347  2.6121
  128OSM    H5G13686   0.407   2.801   8.018  1.7593 -2.4351  2.2483
  128OSM    C6F13687   0.324   2.653   8.143 -0.3072 -0.0159  0.4911
  128OSM    H6F13688   0.394   2.577   8.101 -1.2676 -0.1492 -0.9473
  128OSM    H6G13689   0.223   2.620   8.177 -0.9987  0.0807 -1.3196
  128OSM    C7F13690   0.400   2.710   8.267 -0.0122  0.5354 -0.1043
  128OSM    H7F13691   0.482   2.779   8.237  0.3606  1.4288  2.6973
  128OSM    H7G13692   0.445   2.624   8.321 -0.0401 -0.0347 -0.9580
  128OSM    C8F13693   0.313   2.798   8.352 -0.0589  0.0019 -0.6018
  128OSM    H8F13694   0.261   2.880   8.298 -0.7871  0.9505  1.4541
  128OSM    H8G13695   0.363   2.852   8.435  1.0069 -4.1649  1.7773
  128OSM    C9F13696   0.208   2.722   8.417  0.3456  0.0758  0.1267
  128OSM    H9F13697   0.118   2.708   8.355  0.1817 -1.0405  0.5937
  128OSM   C10F13698   0.221   2.664   8.544 -0.2144  0.5925 -0.2446
  128OSM   H10F13699   0.154   2.586   8.583  1.4860 -0.3948  0.8249
  128OSM   C11F13700   0.343   2.672   8.627  0.3081 -0.2796  0.0705
  128OSM   H11F13701   0.424   2.732   8.579 -1.0796  2.2301  0.7135
  128OSM   H11G13702   0.391   2.573   8.641  1.8958  0.4990  0.3589
  128OSM   C12F13703   0.314   2.731   8.766  0.3114 -0.2958 -0.6263
  128OSM   H12F13704   0.235   2.666   8.810 -0.6840 -0.4185 -2.4931
  128OSM   H12G13705   0.262   2.830   8.766  0.7650  0.0494  2.2275
  128OSM   C13F13706   0.438   2.738   8.859 -0.1000 -0.2870 -0.2340
  128OSM   H13F13707   0.522   2.787   8.805 -2.0030  0.7499 -2.4423
  128OSM   H13G13708   0.454   2.636   8.900 -1.3250 -0.1838  0.5625
  128OSM   C14F13709   0.420   2.827   8.987  0.0756 -0.0099 -0.0739
  128OSM   H14F13710   0.341   2.779   9.049  1.2861  2.1926  3.4641
  128OSM   H14G13711   0.380   2.922   8.946 -1.6540 -0.1741  1.1491
  128OSM   C15F13712   0.549   2.829   9.074 -0.8388 -0.0085  0.0058
  128OSM   H15F13713   0.629   2.866   9.006 -1.6995 -0.0322 -1.0518
  128OSM   H15G13714   0.572   2.727   9.111  1.3228  0.8907  1.3425
  128OSM   C16F13715   0.526   2.915   9.198 -0.7287 -0.5320 -0.4883
  128OSM   H16F13716   0.429   2.882   9.240 -0.6368  1.6759  1.6718
  128OSM   H16G13717   0.519   3.021   9.167  0.5719 -0.6363 -1.2122
  128OSM   C17F13718   0.629   2.909   9.315  0.1552  0.0270  0.6985
  128OSM   H17F13719   0.647   2.807   9.355  2.5493  1.3040  3.2151
  128OSM   H17G13720   0.599   2.972   9.401 -0.9819 -1.4734  1.4638
  128OSM   C18F13721   0.772   2.946   9.274  0.0845  0.1543 -0.2132
  128OSM   H18F13722   0.774   3.053   9.244  0.8917  0.4735  0.9036
  128OSM   H18G13723   0.815   2.894   9.186  0.5435 -0.5388  0.4120
  128OSM   H18H13724   0.845   2.929   9.357  1.2964 -1.0713 -1.4742
  129OSM      N13725   1.382   0.893   7.263 -0.2203 -0.2123  0.1756
  129OSM    C1513726   1.442   0.918   7.405  0.1425  0.6356  0.4252
  129OSM   H15A13727   1.456   1.023   7.429 -1.5493  0.9484  0.1400
  129OSM   H15B13728   1.543   0.878   7.402  0.8375  2.2916  0.5460
  129OSM   H15C13729   1.396   0.856   7.480  0.8241 -1.8350 -1.0966
  129OSM    C1413730   1.233   0.914   7.274  0.3141  0.3730  0.2838
  129OSM   H14A13731   1.207   0.998   7.338 -0.1467  0.2434  0.2656
  129OSM   H14B13732   1.185   0.832   7.324 -0.3163  0.9833  0.7040
  129OSM   H14C13733   1.181   0.924   7.180  1.8462 -1.4660 -0.8252
  129OSM    C1313734   1.438   0.980   7.165 -0.3562  0.2030 -0.3213
  129OSM   H13A13735   1.372   0.977   7.079  1.0425 -2.9761 -1.4514
  129OSM   H13B13736   1.538   0.953   7.136 -0.3273  0.0125 -0.0491
  129OSM   H13C13737   1.445   1.080   7.204  1.3215 -0.6047  1.5656
  129OSM    C1213738   1.407   0.750   7.220 -0.3239  0.4491 -0.1323
  129OSM   H12A13739   1.373   0.722   7.121  0.0592  0.1512 -0.1844
  129OSM   H12B13740   1.364   0.691   7.300  4.1881 -1.1150  1.4332
  129OSM    C1113741   1.554   0.695   7.220  0.4794  0.5174 -0.5637
  129OSM   H11A13742   1.613   0.773   7.168  0.3863  3.1877  2.9600
  129OSM   H11B13743   1.545   0.593   7.178  0.4568  0.4411 -0.3727
  129OSM      P13744   1.739   0.616   7.376  0.0567 -0.2387 -0.0345
  129OSM    O1313745   1.725   0.466   7.362  0.6324  0.9761  0.0404
  129OSM    O1413746   1.841   0.678   7.287 -0.5496 -0.1406 -0.4262
  129OSM    O1113747   1.777   0.641   7.527 -0.2163  0.8405 -0.0142
  129OSM    O1213748   1.602   0.692   7.351 -0.3020 -0.1244 -0.5843
  129OSM    C1S13749   1.670   0.650   7.621 -0.5477 -0.2939 -0.0590
  129OSM    H1S13750   1.612   0.555   7.625 -2.3112  0.5478 -2.6404
  129OSM    H1T13751   1.595   0.726   7.589 -0.9982 -0.9316 -0.5728
  129OSM     NF13752   1.637   0.657   7.861  0.5605  0.5658 -0.2231
  129OSM    HNF13753   1.605   0.739   7.907  0.5155  0.1870  0.4337
  129OSM    C2S13754   1.740   0.675   7.760  0.1702  0.1115  0.2366
  129OSM    H2S13755   1.823   0.602   7.765  1.1979  1.2593  0.4298
  129OSM    C3S13756   1.811   0.813   7.774 -0.1067  0.1523 -0.0543
  129OSM    H3S13757   1.744   0.902   7.774 -0.8178 -0.3721 -0.5953
  129OSM     O313758   1.894   0.837   7.666 -0.4365 -0.0431 -0.0821
  129OSM    HO313759   1.882   0.753   7.622 -0.8448 -0.6068  1.0582
  129OSM    C4S13760   1.898   0.822   7.893 -0.5458 -0.4489  0.1782
  129OSM    H4S13761   1.990   0.762   7.903 -0.4522  0.1037  4.3343
  129OSM    C5S13762   1.869   0.887   8.006 -0.3209  0.7452  0.0177
  129OSM    H5S13763   1.770   0.934   8.016  0.0092  1.8935 -1.7263
  129OSM    C6S13764   1.960   0.892   8.125 -0.4928  0.0402  0.9452
  129OSM    H6S13765   1.970   0.997   8.158  0.1192 -0.0613  1.0852
  129OSM    H6T13766   2.059   0.850   8.096 -1.1446 -1.9057  1.3780
  129OSM    C7S13767   1.905   0.805   8.237 -0.0581  0.0213 -0.1823
  129OSM    H7S13768   1.979   0.788   8.319  0.0127  0.6649 -0.1121
  129OSM    H7T13769   1.895   0.702   8.196 -2.8510 -0.6612  1.8691
  129OSM    C8S13770   1.767   0.842   8.287  0.1521  0.5428  0.1693
  129OSM    H8S13771   1.686   0.834   8.212 -3.5923  1.0316  3.8406
  129OSM    H8T13772   1.780   0.946   8.324 -4.1403  1.2102  0.2343
  129OSM    C9S13773   1.726   0.762   8.415  1.1973 -0.2414  0.3757
  129OSM    H9S13774   1.813   0.761   8.483  2.2902 -3.1180 -0.8749
  129OSM    H9T13775   1.727   0.658   8.376 -0.3258  0.1019 -0.6610
  129OSM   C10S13776   1.587   0.793   8.483  0.5831 -1.0101  0.2607
  129OSM   H10S13777   1.500   0.778   8.416  1.1449 -1.6642 -0.3395
  129OSM   H10T13778   1.586   0.902   8.506  0.7376 -0.4041 -2.2734
  129OSM   C11S13779   1.568   0.713   8.611  0.9554  0.2144  0.9870
  129OSM   H11S13780   1.594   0.606   8.596  0.0989  0.0930  0.2943
  129OSM   H11T13781   1.460   0.718   8.637  0.4343  0.0812 -0.9896
  129OSM   C12S13782   1.653   0.758   8.730 -0.3948  0.0737 -0.0574
  129OSM   H12S13783   1.586   0.830   8.783  0.3298 -0.0708  1.0778
  129OSM   H12T13784   1.747   0.811   8.703  0.1458 -1.3113 -0.9930
  129OSM   C13S13785   1.693   0.646   8.818 -0.1973  0.1689 -0.2140
  129OSM   H13S13786   1.776   0.591   8.767  0.6325  2.3818 -1.3884
  129OSM   H13T13787   1.607   0.577   8.834 -0.2894 -0.0035 -1.3359
  129OSM   C14S13788   1.745   0.702   8.955  0.2838 -0.1302 -0.4783
  129OSM   H14S13789   1.652   0.710   9.016 -1.5507  0.6462 -3.1865
  129OSM   H14T13790   1.788   0.804   8.944 -1.7361  1.0878  1.9327
  129OSM   C15S13791   1.828   0.602   9.024 -0.8104  0.2376 -0.4181
  129OSM   H15S13792   1.924   0.587   8.970 -1.7474 -0.4677 -1.9340
  129OSM   H15T13793   1.771   0.507   9.014  0.3287 -0.5733  0.4949
  129OSM   C16S13794   1.856   0.632   9.177  0.4226 -0.0862  0.8468
  129OSM   H16S13795   1.927   0.567   9.232 -0.3658  1.1498  3.4704
  129OSM   H16T13796   1.757   0.619   9.227  1.1871 -0.8648  2.2248
  129OSM   C17S13797   1.920   0.773   9.205  0.2260 -0.1349 -0.2156
  129OSM   H17S13798   1.907   0.803   9.311 -3.2826  0.0797 -0.6019
  129OSM   H17T13799   1.860   0.850   9.153 -0.2153 -0.3071  0.0331
  129OSM   C18S13800   2.059   0.796   9.163 -0.3336  0.9638 -0.7796
  129OSM   H18S13801   2.072   0.788   9.053 -4.1761 -2.0185 -1.1926
  129OSM   H18T13802   2.117   0.711   9.204  0.2596  1.3109 -0.8788
  129OSM   H18U13803   2.109   0.881   9.216 -0.3854 -0.8668  2.5193
  129OSM    C1F13804   1.592   0.531   7.897 -0.7290 -0.1367 -0.5739
  129OSM     OF13805   1.656   0.433   7.866  0.8163 -0.5278  0.4558
  129OSM    C2F13806   1.473   0.521   7.983  0.5574 -0.1910 -0.0905
  129OSM    H2F13807   1.490   0.563   8.085 -0.8119  3.5272 -1.2141
  129OSM    H2G13808   1.470   0.414   8.011  1.8301  0.0012  0.8813
  129OSM    C3F13809   1.342   0.580   7.935  0.0193  0.2230  0.5914
  129OSM    H3F13810   1.314   0.527   7.841  0.7478  0.5536  0.1795
  129OSM    H3G13811   1.364   0.684   7.904  0.0540  0.7952  2.4148
  129OSM    C4F13812   1.223   0.559   8.022  0.2434  0.5788  0.5480
  129OSM    H4F13813   1.219   0.455   8.062 -2.4668  0.0347 -0.8701
  129OSM    H4G13814   1.131   0.566   7.960 -1.6264 -1.6734  2.8257
  129OSM    C5F13815   1.210   0.663   8.132  0.0314  0.1863 -0.3690
  129OSM    H5F13816   1.221   0.762   8.083  2.2903  1.8624  3.1212
  129OSM    H5G13817   1.299   0.666   8.198 -2.8026 -1.9762  4.0733
  129OSM    C6F13818   1.091   0.649   8.231 -0.1251 -0.5784  0.3101
  129OSM    H6F13819   1.102   0.551   8.283  2.6939  0.1548  1.2742
  129OSM    H6G13820   0.994   0.632   8.180 -0.3497 -2.4853  1.2739
  129OSM    C7F13821   1.082   0.769   8.330 -0.0548  0.0917 -0.1827
  129OSM    H7F13822   1.093   0.861   8.270  0.6686 -0.2517 -0.5904
  129OSM    H7G13823   1.165   0.769   8.404  0.6077  0.8586 -0.9101
  129OSM    C8F13824   0.942   0.776   8.396  0.3068  0.4416 -1.2331
  129OSM    H8F13825   0.910   0.673   8.424 -0.3911  1.3670  1.7374
  129OSM    H8G13826   0.868   0.807   8.319  1.8653  0.5584 -2.7395
  129OSM    C9F13827   0.933   0.867   8.518 -0.6928  0.4051 -0.6617
  129OSM    H9F13828   0.885   0.966   8.512 -0.2400  0.8350  1.8353
  129OSM   C10F13829   0.976   0.822   8.636  0.2437 -0.5624  0.2496
  129OSM   H10F13830   0.964   0.897   8.715 -0.5831  0.9476 -1.2372
  129OSM   C11F13831   1.043   0.698   8.680  0.1875  0.6381  0.8175
  129OSM   H11F13832   1.073   0.639   8.591 -0.9295  0.0571  0.8098
  129OSM   H11G13833   0.980   0.638   8.748  0.8716 -0.0667  0.8398
  129OSM   C12F13834   1.169   0.740   8.750 -0.2526 -0.2754  0.4292
  129OSM   H12F13835   1.227   0.820   8.699  0.2075  0.2050  1.6682
  129OSM   H12G13836   1.233   0.649   8.744  0.0470  0.0194 -1.3829
  129OSM   C13F13837   1.149   0.768   8.894 -0.2680 -0.0094  0.0984
  129OSM   H13F13838   1.111   0.678   8.948 -1.0632  0.8424  0.9844
  129OSM   H13G13839   1.074   0.848   8.910 -2.2575 -2.2496  3.3401
  129OSM   C14F13840   1.279   0.804   8.972  0.6484 -0.0584  0.2261
  129OSM   H14F13841   1.323   0.897   8.931 -1.8821  0.2630 -2.0954
  129OSM   H14G13842   1.350   0.719   8.971 -0.2393 -0.8485  1.3411
  129OSM   C15F13843   1.250   0.851   9.114 -0.1041  0.2138  0.8184
  129OSM   H15F13844   1.182   0.775   9.157 -1.9001  1.5525  0.4901
  129OSM   H15G13845   1.193   0.947   9.108 -0.7916 -0.2009  0.5639
  129OSM   C16F13846   1.390   0.867   9.179 -0.0931  0.1144 -0.1769
  129OSM   H16F13847   1.451   0.940   9.121  0.1566 -0.0835 -0.1617
  129OSM   H16G13848   1.455   0.778   9.189 -0.7317 -0.2610  0.7066
  129OSM   C17F13849   1.379   0.935   9.312  0.3865  0.5490 -0.8456
  129OSM   H17F13850   1.314   1.024   9.314  2.2598  1.9764 -0.1833
  129OSM   H17G13851   1.483   0.968   9.336  0.4782 -2.0354  3.2684
  129OSM   C18F13852   1.347   0.843   9.421 -0.0694  0.5305 -0.9776
  129OSM   H18F13853   1.428   0.767   9.415  0.7853  1.0936  1.8780
  129OSM   H18G13854   1.255   0.786   9.396  0.1547  0.5076 -1.7689
  129OSM   H18H13855   1.341   0.885   9.524 -0.2539 -0.1037 -0.7198
  130OSM      N13856   1.884   1.116   7.350 -0.5977  0.2780  0.0074
  130OSM    C1513857   2.017   1.178   7.329 -0.3361  0.0836 -0.4695
  130OSM   H15A13858   2.078   1.136   7.250  1.4563  0.1702  0.8100
  130OSM   H15B13859   2.070   1.167   7.422  0.9372 -0.0546 -1.1747
  130OSM   H15C13860   2.007   1.285   7.318 -0.9607  0.1933  0.9814
  130OSM    C1413861   1.807   1.128   7.222  0.2764  0.2019  1.0093
  130OSM   H14A13862   1.806   1.233   7.197 -0.0836 -0.6139 -3.3366
  130OSM   H14B13863   1.701   1.107   7.233  0.1908 -1.6465 -1.9691
  130OSM   H14C13864   1.844   1.077   7.134 -0.2415  1.6709 -0.0930
  130OSM    C1313865   1.900   0.967   7.376 -0.2436  0.3538  0.4607
  130OSM   H13A13866   1.970   0.922   7.308 -1.5930  0.1589 -0.8508
  130OSM   H13B13867   1.804   0.916   7.379  1.4657 -3.2443 -0.6253
  130OSM   H13C13868   1.933   0.951   7.478  0.1774  0.5733  0.3604
  130OSM    C1213869   1.814   1.187   7.467 -0.1668 -0.2997 -0.6730
  130OSM   H12A13870   1.822   1.294   7.456 -2.2433  0.1764  1.6378
  130OSM   H12B13871   1.862   1.164   7.560  0.0258  1.8868 -0.1651
  130OSM    C1113872   1.666   1.156   7.496  0.1605 -0.4714  0.0265
  130OSM   H11A13873   1.645   1.192   7.599  0.7396 -0.2587  0.0725
  130OSM   H11B13874   1.669   1.046   7.516 -1.5191 -0.4396  0.6086
  130OSM      P13875   1.512   1.337   7.376  0.4779  0.1001 -0.3866
  130OSM    O1313876   1.618   1.438   7.418  0.3061  0.0163  0.3770
  130OSM    O1413877   1.455   1.347   7.239  0.1637  0.3981 -0.3163
  130OSM    O1113878   1.395   1.364   7.479  0.6004 -0.0760 -0.6702
  130OSM    O1213879   1.572   1.190   7.397  0.4152 -0.1547  0.8248
  130OSM    C1S13880   1.283   1.272   7.473  0.0459 -0.1512  0.4415
  130OSM    H1S13881   1.324   1.169   7.487 -0.5974 -0.3934  0.6043
  130OSM    H1T13882   1.235   1.278   7.373 -0.4137 -0.9170  0.6071
  130OSM     NF13883   1.062   1.197   7.562 -0.4910  0.2943 -0.3812
  130OSM    HNF13884   0.979   1.245   7.536 -1.2756 -1.1622 -0.6491
  130OSM    C2S13885   1.176   1.293   7.584  0.4229  0.0077  0.0940
  130OSM    H2S13886   1.227   1.283   7.682 -2.4054 -2.0431  1.4607
  130OSM    C3S13887   1.126   1.438   7.578  0.0030 -0.3435 -0.2246
  130OSM    H3S13888   1.058   1.450   7.491  0.1146 -1.5122 -0.4992
  130OSM     O313889   1.219   1.540   7.556 -0.7059  0.2238 -0.4763
  130OSM    HO313890   1.293   1.494   7.518  0.4018  1.0762  0.5530
  130OSM    C4S13891   1.041   1.459   7.698  0.4066 -0.5015  1.1197
  130OSM    H4S13892   0.949   1.398   7.695  0.9058 -1.2262 -0.3941
  130OSM    C5S13893   1.073   1.527   7.804 -1.3090 -0.7285 -0.2316
  130OSM    H5S13894   1.175   1.569   7.808 -0.7508 -1.8035 -2.1254
  130OSM    C6S13895   0.984   1.546   7.923  0.7775 -0.0823  0.1152
  130OSM    H6S13896   0.876   1.557   7.898  1.0198  2.4591 -0.1289
  130OSM    H6T13897   1.019   1.645   7.961 -0.2672  0.3470  0.0036
  130OSM    C7S13898   1.004   1.431   8.024 -0.0810  0.8279 -0.3509
  130OSM    H7S13899   1.111   1.422   8.053 -0.5953 -2.4534  0.9137
  130OSM    H7T13900   0.965   1.331   7.997 -0.9786  1.0827 -0.0355
  130OSM    C8S13901   0.945   1.479   8.161 -0.0762 -0.2845  0.2977
  130OSM    H8S13902   0.834   1.483   8.167 -0.0200 -0.5798  1.8202
  130OSM    H8T13903   0.975   1.585   8.176 -1.1264 -0.1832  1.8120
  130OSM    C9S13904   1.006   1.397   8.274  0.2135 -0.1787 -0.1215
  130OSM    H9S13905   1.012   1.467   8.360  0.9047  1.8630 -1.7478
  130OSM    H9T13906   1.111   1.368   8.255 -0.2298 -1.5645 -0.5545
  130OSM   C10S13907   0.928   1.279   8.331 -0.3025 -0.0904  0.7446
  130OSM   H10S13908   0.998   1.221   8.395 -0.0792  0.5539  1.0926
  130OSM   H10T13909   0.896   1.215   8.247  0.3898  0.8761 -0.2858
  130OSM   C11S13910   0.797   1.315   8.409 -0.9000  0.3273  0.8542
  130OSM   H11S13911   0.727   1.232   8.384  1.4717 -1.2528 -0.9882
  130OSM   H11T13912   0.764   1.409   8.360 -0.7301 -1.3534 -2.8078
  130OSM   C12S13913   0.821   1.342   8.561  0.0925  0.9404  0.1347
  130OSM   H12S13914   0.733   1.388   8.610 -0.6896  0.3786 -0.7104
  130OSM   H12T13915   0.912   1.402   8.582  1.7160 -1.0916 -0.7200
  130OSM   C13S13916   0.831   1.213   8.640 -0.2919  0.0500 -0.1855
  130OSM   H13S13917   0.935   1.175   8.627  0.0503  1.6088 -2.7659
  130OSM   H13T13918   0.755   1.140   8.605 -0.3565  0.0673 -0.0823
  130OSM   C14S13919   0.791   1.239   8.789 -0.1178  0.0634 -0.2500
  130OSM   H14S13920   0.688   1.280   8.795  0.2147  0.8770  0.0277
  130OSM   H14T13921   0.872   1.305   8.828 -0.7575  0.4048  0.5145
  130OSM   C15S13922   0.788   1.106   8.872  0.4288 -0.3967  0.2314
  130OSM   H15S13923   0.761   1.131   8.976  1.8779  0.9480  0.3261
  130OSM   H15T13924   0.888   1.057   8.877  0.4061 -0.4372  0.2771
  130OSM   C16S13925   0.694   1.006   8.809  0.0379 -0.3542  0.4831
  130OSM   H16S13926   0.730   0.966   8.712 -0.4430 -0.1228  0.2081
  130OSM   H16T13927   0.595   1.047   8.779 -0.3990 -0.7189  1.4020
  130OSM   C17S13928   0.673   0.871   8.899 -0.1510  0.4973  0.2757
  130OSM   H17S13929   0.609   0.897   8.986  1.1662  0.9544  1.1433
  130OSM   H17T13930   0.770   0.842   8.944 -0.1076  2.8656  1.9338
  130OSM   C18S13931   0.616   0.752   8.814  0.3615 -0.0181 -0.1857
  130OSM   H18S13932   0.689   0.710   8.741  0.7122  1.5778 -0.7921
  130OSM   H18T13933   0.537   0.789   8.746  0.4113  1.2035  0.3898
  130OSM   H18U13934   0.580   0.669   8.880 -2.1931  1.3051  0.2144
  130OSM    C1F13935   1.065   1.062   7.564 -0.7058 -0.0677 -0.0577
  130OSM     OF13936   1.175   1.003   7.558 -0.1787 -0.4156  0.6290
  130OSM    C2F13937   0.930   0.995   7.556  0.5041  0.1228  0.3146
  130OSM    H2F13938   0.900   0.991   7.449  0.5506  0.2257  0.2976
  130OSM    H2G13939   0.865   1.066   7.611 -1.8635 -1.5407 -0.1985
  130OSM    C3F13940   0.936   0.853   7.620  0.1826  0.1143 -0.0934
  130OSM    H3F13941   1.009   0.801   7.553 -0.2201  0.5064 -0.8470
  130OSM    H3G13942   0.831   0.825   7.598  0.3530  1.0661 -2.3746
  130OSM    C4F13943   0.971   0.848   7.768  0.0511 -0.6500  0.2340
  130OSM    H4F13944   1.063   0.909   7.783  0.1125 -0.2233 -1.6100
  130OSM    H4G13945   0.994   0.746   7.803  1.5192  0.4333  2.6919
  130OSM    C5F13946   0.869   0.918   7.851 -0.3598  0.8334 -0.2872
  130OSM    H5F13947   0.777   0.856   7.855  0.2142  0.0085  0.5500
  130OSM    H5G13948   0.838   1.014   7.805  1.2049  1.9636  0.9389
  130OSM    C6F13949   0.918   0.939   7.995  0.0625  0.4507 -0.4299
  130OSM    H6F13950   1.009   1.004   7.993  0.9025 -0.6736  0.1457
  130OSM    H6G13951   0.949   0.842   8.040  0.5092  0.0548 -1.5564
  130OSM    C7F13952   0.820   0.997   8.099  0.0236  0.6778  0.3600
  130OSM    H7F13953   0.784   1.093   8.057 -1.8711 -0.1656 -0.0245
  130OSM    H7G13954   0.883   1.010   8.190  0.3437 -1.3905  0.4935
  130OSM    C8F13955   0.687   0.916   8.114  0.1293  0.0337 -0.7002
  130OSM    H8F13956   0.720   0.813   8.141 -1.1103 -0.3604 -0.5862
  130OSM    H8G13957   0.627   0.911   8.021 -0.5393  1.1428 -0.3598
  130OSM    C9F13958   0.591   0.968   8.220 -0.5173  0.1218  0.7279
  130OSM    H9F13959   0.561   1.074   8.217 -0.4168  0.1923  1.8981
  130OSM   C10F13960   0.520   0.898   8.315 -1.0723 -0.8549  1.1209
  130OSM   H10F13961   0.458   0.963   8.379 -1.2584  1.7170 -1.4419
  130OSM   C11F13962   0.513   0.754   8.357  0.2281 -0.2143  0.2784
  130OSM   H11F13963   0.605   0.713   8.403 -0.0144 -0.1861  0.7953
  130OSM   H11G13964   0.504   0.700   8.261  2.1601  2.1450 -1.3689
  130OSM   C12F13965   0.388   0.707   8.439 -0.1738  0.0241 -0.1673
  130OSM   H12F13966   0.302   0.709   8.368 -0.5589  2.6620  0.2978
  130OSM   H12G13967   0.348   0.772   8.520 -1.1179 -0.9960  0.2167
  130OSM   C13F13968   0.388   0.567   8.493  0.4857 -0.2530  0.5745
  130OSM   H13F13969   0.484   0.561   8.550 -1.7754  1.5541  5.0385
  130OSM   H13G13970   0.409   0.493   8.413 -0.7183  0.6813 -0.6570
  130OSM   C14F13971   0.258   0.530   8.572  0.5380 -0.0299  0.1842
  130OSM   H14F13972   0.184   0.493   8.498  1.5231  1.2687 -1.5382
  130OSM   H14G13973   0.213   0.615   8.629  0.1279 -0.1707  0.0773
  130OSM   C15F13974   0.293   0.420   8.674  0.4456 -0.1136 -0.8715
  130OSM   H15F13975   0.340   0.336   8.618 -1.3038 -1.8016  0.0906
  130OSM   H15G13976   0.202   0.374   8.718  0.9900 -0.8435 -0.5005
  130OSM   C16F13977   0.372   0.473   8.802  0.2082  0.1886  0.0526
  130OSM   H16F13978   0.399   0.577   8.775  0.6415 -0.3937 -1.9534
  130OSM   H16G13979   0.452   0.402   8.830  0.1859  0.8627  1.9785
  130OSM   C17F13980   0.295   0.462   8.934 -0.4347  0.2983  0.1019
  130OSM   H17F13981   0.301   0.355   8.962  1.7874  0.7312  1.5120
  130OSM   H17G13982   0.190   0.497   8.921 -0.7921  0.1017  2.1299
  130OSM   C18F13983   0.365   0.537   9.055  0.2990  0.9234  0.2285
  130OSM   H18F13984   0.303   0.502   9.141  0.6300 -0.0838  0.0737
  130OSM   H18G13985   0.361   0.648   9.047  1.2840  0.8818 -1.3828
  130OSM   H18H13986   0.470   0.501   9.062 -0.0929 -0.3724 -0.2066
  131OSM      N13987   2.405   2.413   7.363  0.3743  0.4124  0.4556
  131OSM    C1513988   2.513   2.317   7.353  0.2858 -0.5176 -0.7369
  131OSM   H15A13989   2.552   2.312   7.454  2.2490  2.1775 -1.2567
  131OSM   H15B13990   2.587   2.361   7.288 -0.2348  2.7075  0.6633
  131OSM   H15C13991   2.488   2.216   7.326 -0.3331 -0.8019  0.8021
  131OSM    C1413992   2.365   2.421   7.218  0.1776 -0.0401 -0.4469
  131OSM   H14A13993   2.279   2.482   7.197 -0.5225 -0.4446  1.0989
  131OSM   H14B13994   2.348   2.323   7.177 -0.0971 -0.2762  0.2157
  131OSM   H14C13995   2.445   2.459   7.155  0.3674 -1.1772 -0.9184
  131OSM    C1313996   2.285   2.357   7.445  0.5665 -0.4306  0.1393
  131OSM   H13A13997   2.303   2.339   7.550 -3.1145 -3.2095  0.5043
  131OSM   H13B13998   2.248   2.261   7.411  0.0024  0.4668 -1.8823
  131OSM   H13C13999   2.209   2.431   7.430  3.2310  2.0663 -2.1615
  131OSM    C1214000   2.449   2.551   7.406  0.3046  0.2133 -0.1064
  131OSM   H12A14001   2.375   2.628   7.388 -1.7450 -1.7826 -0.7292
  131OSM   H12B14002   2.535   2.577   7.346  0.4524 -0.2351 -0.0916
  131OSM    C1114003   2.496   2.568   7.550  0.1318  0.8896  0.5294
  131OSM   H11A14004   2.422   2.523   7.620 -1.2847 -0.1021 -1.4828
  131OSM   H11B14005   2.526   2.674   7.564 -0.5146  1.3080 -0.9980
  131OSM      P14006   2.763   2.559   7.544  0.5935 -0.3139 -0.8591
  131OSM    O1314007   2.860   2.453   7.574  0.0512  0.2901  0.6817
  131OSM    O1414008   2.765   2.611   7.407  0.0025 -0.0311  0.6312
  131OSM    O1114009   2.769   2.676   7.652  0.6339  0.1499 -0.1743
  131OSM    O1214010   2.618   2.494   7.576  0.0951  0.0045  0.2424
  131OSM    C1S14011   2.751   2.661   7.789  0.0725 -0.8252  1.0116
  131OSM    H1S14012   2.822   2.586   7.830 -0.0837 -1.4909  0.1136
  131OSM    H1T14013   2.650   2.621   7.811  0.4730 -1.3895  1.8834
  131OSM     NF14014   2.777   2.774   8.002  0.1067  1.2881 -0.0580
  131OSM    HNF14015   2.696   2.808   8.050 -0.2682 -0.4955  0.6302
  131OSM    C2S14016   2.777   2.797   7.858 -0.1906  0.7107 -0.2771
  131OSM    H2S14017   2.877   2.836   7.831  1.2475 -2.4655  0.0660
  131OSM    C3S14018   2.667   2.900   7.806 -0.5488 -0.3114  0.3588
  131OSM    H3S14019   2.571   2.852   7.833 -0.5210 -1.7936 -1.8962
  131OSM     O314020   2.677   2.915   7.663  0.4022  0.3774  0.0691
  131OSM    HO314021   2.719   2.831   7.642 -0.1733  0.6251 -2.2729
  131OSM    C4S14022   2.674   3.032   7.875 -0.2232 -0.1701  0.0618
  131OSM    H4S14023   2.757   3.098   7.845 -0.1956  1.1330  2.6998
  131OSM    C5S14024   2.573   3.090   7.944  0.1843  0.0958 -0.1695
  131OSM    H5S14025   2.479   3.035   7.956 -1.2055  2.2070 -0.8907
  131OSM    C6S14026   2.583   3.223   8.008  0.2995  0.2379  0.0100
  131OSM    H6S14027   2.500   3.284   7.965 -0.4269 -0.4971  0.3313
  131OSM    H6T14028   2.676   3.280   7.987 -0.5211  2.1075  1.2330
  131OSM    C7S14029   2.572   3.205   8.156  0.5572 -0.1009 -0.5521
  131OSM    H7S14030   2.583   3.309   8.192 -0.1836 -0.1141 -0.2596
  131OSM    H7T14031   2.656   3.141   8.192  0.9025  1.8623  2.4420
  131OSM    C8S14032   2.430   3.163   8.213 -0.3580 -0.3442 -0.0523
  131OSM    H8S14033   2.379   3.083   8.155 -1.3885  0.4949 -0.3287
  131OSM    H8T14034   2.383   3.260   8.187 -1.2112 -0.2619  1.6392
  131OSM    C9S14035   2.430   3.149   8.367 -1.1836  0.9260  0.2779
  131OSM    H9S14036   2.486   3.235   8.409  2.2186 -0.9920  0.0230
  131OSM    H9T14037   2.490   3.056   8.384 -0.6984  0.7247 -2.0879
  131OSM   C10S14038   2.287   3.147   8.417 -0.2237  0.2602 -0.3111
  131OSM   H10S14039   2.244   3.051   8.382 -0.0939  0.4852 -1.1171
  131OSM   H10T14040   2.237   3.238   8.376 -0.7619 -1.0587 -2.7964
  131OSM   C11S14041   2.270   3.154   8.571 -0.2804 -0.1560 -0.2550
  131OSM   H11S14042   2.161   3.147   8.591 -0.0540  2.4204  2.6960
  131OSM   H11T14043   2.313   3.252   8.600 -0.4931  0.5273 -2.1502
  131OSM   C12S14044   2.348   3.048   8.652 -0.4968  0.2221  0.1685
  131OSM   H12S14045   2.430   2.991   8.604 -2.4403 -1.9631 -0.7303
  131OSM   H12T14046   2.285   2.963   8.685 -2.0582  0.8809 -1.0193
  131OSM   C13S14047   2.416   3.123   8.780  0.4045 -0.3043 -0.4803
  131OSM   H13S14048   2.339   3.166   8.847  0.0472 -2.7041  0.7244
  131OSM   H13T14049   2.487   3.200   8.740  1.0198 -0.5397  0.1276
  131OSM   C14S14050   2.495   3.019   8.867  0.4568 -0.1080 -0.0317
  131OSM   H14S14051   2.567   2.959   8.808  1.0694  0.4553  0.1395
  131OSM   H14T14052   2.408   2.965   8.911 -0.7340  3.5429  2.6062
  131OSM   C15S14053   2.575   3.081   8.992 -0.3088  0.6810  0.6150
  131OSM   H15S14054   2.496   3.132   9.051 -0.6379 -0.0058  0.7852
  131OSM   H15T14055   2.654   3.147   8.951  2.2707 -2.1864  0.5595
  131OSM   C16S14056   2.656   2.975   9.076 -1.1244 -0.5698  0.2553
  131OSM   H16S14057   2.741   3.029   9.123 -0.1437 -0.7277 -1.2947
  131OSM   H16T14058   2.701   2.901   9.007 -1.8382 -1.4588  0.7336
  131OSM   C17S14059   2.567   2.908   9.181 -0.0472 -0.1789 -0.1987
  131OSM   H17S14060   2.480   2.852   9.141 -0.6470 -0.8264  1.9078
  131OSM   H17T14061   2.524   2.990   9.242 -1.2038 -0.2395 -0.9091
  131OSM   C18S14062   2.638   2.804   9.267 -0.1340  0.2360  0.7927
  131OSM   H18S14063   2.671   2.716   9.208 -1.0224  1.3886 -1.5078
  131OSM   H18T14064   2.576   2.776   9.355 -0.8412  2.4912  1.0542
  131OSM   H18U14065   2.732   2.843   9.312  1.3922 -0.9418 -1.2370
  131OSM    C1F14066   2.885   2.715   8.074  0.5713 -1.2000  1.0320
  131OSM     OF14067   2.992   2.696   8.012 -0.2309  0.1637  0.0571
  131OSM    C2F14068   2.864   2.689   8.223 -0.0685 -0.4346  0.3928
  131OSM    H2F14069   2.775   2.624   8.215 -1.4189  1.3450  0.2566
  131OSM    H2G14070   2.837   2.782   8.279 -0.4891 -1.4327  1.9014
  131OSM    C3F14071   2.982   2.626   8.280  0.4925  0.7761 -0.2945
  131OSM    H3F14072   3.069   2.695   8.273  0.7128  0.5541  0.1960
  131OSM    H3G14073   2.995   2.532   8.222 -3.7903  1.5789 -2.9863
  131OSM    C4F14074   2.984   2.601   8.436  0.2690  0.5458  0.0205
  131OSM    H4F14075   2.960   2.697   8.488 -0.4919  1.1922 -1.4454
  131OSM    H4G14076   3.084   2.558   8.458 -0.6451 -0.8393  1.6690
  131OSM    C5F14077   2.872   2.500   8.479 -0.5861  0.3801  0.2009
  131OSM    H5F14078   2.854   2.428   8.396 -1.5383 -0.8128  1.4000
  131OSM    H5G14079   2.776   2.552   8.499 -2.1159 -1.7091 -1.2637
  131OSM    C6F14080   2.915   2.427   8.609  0.2853  0.2747  0.2511
  131OSM    H6F14081   2.825   2.400   8.670 -0.6289  0.6626 -0.8840
  131OSM    H6G14082   2.974   2.499   8.669 -1.0912  1.0379  0.7505
  131OSM    C7F14083   2.981   2.293   8.586 -0.7378 -0.3156  0.3168
  131OSM    H7F14084   3.073   2.318   8.529 -1.2994 -0.7407 -0.8048
  131OSM    H7G14085   2.936   2.231   8.506  0.2292  1.2997 -1.5866
  131OSM    C8F14086   3.009   2.206   8.710 -0.5296 -0.2017 -0.0217
  131OSM    H8F14087   3.048   2.114   8.662 -0.5980 -0.5689  0.6167
  131OSM    H8G14088   2.916   2.165   8.756 -0.6939 -0.8824 -0.9236
  131OSM    C9F14089   3.112   2.253   8.808  0.5750  0.0821  0.5478
  131OSM    H9F14090   3.180   2.325   8.761  0.6004 -0.8537 -0.8968
  131OSM   C10F14091   3.128   2.200   8.932 -0.1515  0.1053 -0.1737
  131OSM   H10F14092   3.213   2.227   8.996 -0.6516 -0.5980  0.7956
  131OSM   C11F14093   3.036   2.100   9.001 -0.9193  0.2744 -1.1129
  131OSM   H11F14094   2.971   2.045   8.931 -1.5871  2.0147 -1.9188
  131OSM   H11G14095   2.975   2.141   9.085 -1.0046 -1.0682 -0.4927
  131OSM   C12F14096   3.121   1.991   9.079 -0.4809  0.9128 -0.0392
  131OSM   H12F14097   3.191   2.046   9.146  3.0508 -0.3906 -2.3875
  131OSM   H12G14098   3.190   1.940   9.009 -0.6447  0.9069 -0.1969
  131OSM   C13F14099   3.037   1.897   9.175 -0.4168 -0.1164 -0.5686
  131OSM   H13F14100   3.091   1.801   9.181 -0.1949 -0.2094 -2.9901
  131OSM   H13G14101   2.942   1.886   9.118 -1.3187  2.0075  0.4103
  131OSM   C14F14102   3.010   1.964   9.308  0.4261  0.0309 -0.2049
  131OSM   H14F14103   3.105   2.002   9.350  0.4508  1.4903 -1.4818
  131OSM   H14G14104   2.981   1.873   9.365  0.5773 -0.4794 -0.9276
  131OSM   C15F14105   2.901   2.068   9.318 -0.2081  1.0566 -0.3886
  131OSM   H15F14106   2.818   2.048   9.248 -1.2080 -1.4282  1.3522
  131OSM   H15G14107   2.953   2.165   9.300  0.3788  0.7805 -0.2116
  131OSM   C16F14108   2.843   2.064   9.464  0.2932  0.1436 -0.0732
  131OSM   H16F14109   2.918   2.108   9.533 -0.7035  0.5355  0.7930
  131OSM   H16G14110   2.827   1.959   9.497  1.4156  0.5109  1.7971
  131OSM   C17F14111   2.713   2.147   9.492  0.6213 -0.6270  0.2205
  131OSM   H17F14112   2.669   2.160   9.593  0.7124  0.5598  0.1272
  131OSM   H17G14113   2.639   2.086   9.435 -0.8985  1.1036  0.2446
  131OSM   C18F14114   2.719   2.285   9.432 -0.3892 -0.0173  0.3915
  131OSM   H18F14115   2.785   2.343   9.499 -1.5680 -1.7149  3.2137
  131OSM   H18G14116   2.621   2.336   9.445 -1.0354 -0.9913 -0.4928
  131OSM   H18H14117   2.756   2.274   9.328 -0.3463 -0.6787  0.4684
  132OSM      N14118   1.908   3.394  11.393  0.3243 -0.1896 -0.3535
  132OSM    C1514119   1.820   3.495  11.466  0.0026  0.1506 -0.3973
  132OSM   H15A14120   1.749   3.529  11.393 -0.2070 -2.2110 -1.4020
  132OSM   H15B14121   1.880   3.580  11.495  1.8968 -1.7392  1.6948
  132OSM   H15C14122   1.757   3.446  11.540  0.6762  0.0344  0.1070
  132OSM    C1414123   1.992   3.332  11.508 -0.1185  0.1450 -0.9338
  132OSM   H14A14124   2.081   3.391  11.521  1.5548 -2.8488  3.3131
  132OSM   H14B14125   2.017   3.229  11.489 -0.8708  0.0779 -1.6400
  132OSM   H14C14126   1.935   3.330  11.599  0.1397  1.8687 -0.6936
  132OSM    C1314127   1.828   3.286  11.332  1.0683  0.6638 -0.0230
  132OSM   H13A14128   1.755   3.338  11.271 -0.1903  0.1894  1.0292
  132OSM   H13B14129   1.772   3.235  11.409  2.1678  0.4953  0.6671
  132OSM   H13C14130   1.889   3.213  11.280 -0.1017 -0.2553 -0.1617
  132OSM    C1214131   1.995   3.468  11.289  1.2102  0.4586  1.4329
  132OSM   H12A14132   2.061   3.541  11.334  1.0992  1.2367  0.3737
  132OSM   H12B14133   1.928   3.531  11.232  2.3037  1.2228  0.9320
  132OSM    C1114134   2.081   3.386  11.186  0.6941  0.3071  0.0229
  132OSM   H11A14135   2.124   3.454  11.110 -0.7734 -1.2478 -2.3251
  132OSM   H11B14136   2.019   3.303  11.147  0.9044 -1.0315  2.3307
  132OSM      P14137   2.320   3.398  11.299  0.3702 -0.4496 -0.3398
  132OSM    O1314138   2.290   3.537  11.338  0.2976 -0.1218 -0.4949
  132OSM    O1414139   2.385   3.305  11.394  0.2596 -0.1940  0.2299
  132OSM    O1114140   2.414   3.407  11.172 -0.6801 -0.2689  0.0363
  132OSM    O1214141   2.191   3.319  11.250  0.1038 -0.5162 -0.6280
  132OSM    C1S14142   2.394   3.499  11.064  0.2548 -0.1033  0.4984
  132OSM    H1S14143   2.324   3.580  11.094 -0.3464 -0.9283  1.3797
  132OSM    H1T14144   2.349   3.449  10.975  1.6076 -0.8332  0.1999
  132OSM     NF14145   2.486   3.675  10.932 -0.3771 -0.1372  0.0251
  132OSM    HNF14146   2.501   3.661  10.834  0.0356  1.9117 -0.2498
  132OSM    C2S14147   2.527   3.568  11.026 -0.5780  0.2522  0.1244
  132OSM    H2S14148   2.571   3.609  11.119  0.2758  0.1232 -0.2096
  132OSM    C3S14149   2.626   3.454  10.969 -0.3878  0.2498  0.5321
  132OSM    H3S14150   2.567   3.393  10.897 -1.0294  0.9997  0.4206
  132OSM     O314151   2.678   3.357  11.065 -0.3523 -0.2975 -0.4078
  132OSM    HO314152   2.603   3.348  11.124 -0.9587 -1.5866 -1.3336
  132OSM    C4S14153   2.742   3.519  10.889  0.0722  0.1632  0.2578
  132OSM    H4S14154   2.828   3.549  10.951  0.1499  0.1700  0.1476
  132OSM    C5S14155   2.751   3.526  10.751 -0.2722 -0.1772 -0.0004
  132OSM    H5S14156   2.665   3.500  10.688 -0.8429 -0.3827  0.8428
  132OSM    C6S14157   2.878   3.584  10.685 -0.0735  0.0714  0.0032
  132OSM    H6S14158   2.949   3.615  10.765 -0.3928  2.1535 -0.4716
  132OSM    H6T14159   2.852   3.685  10.646  0.0845  0.3199  0.5252
  132OSM    C7S14160   2.951   3.496  10.587 -0.5729  0.1792 -0.2446
  132OSM    H7S14161   2.907   3.501  10.485  1.4453  2.8136 -1.0775
  132OSM    H7T14162   2.939   3.389  10.616  1.8854 -1.1285 -3.4982
  132OSM    C8S14163   3.101   3.526  10.578  0.0178 -0.5988 -0.2372
  132OSM    H8S14164   3.147   3.563  10.672 -0.8704 -1.9303  0.7649
  132OSM    H8T14165   3.109   3.616  10.514  0.1575 -0.7571 -0.4453
  132OSM    C9S14166   3.188   3.406  10.526 -0.3532 -0.4094 -0.1287
  132OSM    H9S14167   3.192   3.327  10.604 -0.8847  1.8891  2.3877
  132OSM    H9T14168   3.289   3.449  10.512 -0.7747  0.1720 -1.6195
  132OSM   C10S14169   3.133   3.343  10.401 -0.0315 -0.0185  0.0934
  132OSM   H10S14170   3.097   3.411  10.321 -1.9010 -1.8782 -0.7273
  132OSM   H10T14171   3.038   3.294  10.428  0.7305 -1.9092 -0.5222
  132OSM   C11S14172   3.226   3.239  10.342 -0.0382  0.1183  0.1694
  132OSM   H11S14173   3.279   3.197  10.431  0.7162  1.2380  0.2685
  132OSM   H11T14174   3.293   3.290  10.270 -0.7929  2.0936  0.7838
  132OSM   C12S14175   3.149   3.129  10.267 -0.1341 -0.0266  0.7531
  132OSM   H12S14176   3.081   3.175  10.192  1.2544 -1.3321 -1.4608
  132OSM   H12T14177   3.084   3.072  10.336 -2.5507 -2.3161 -3.0142
  132OSM   C13S14178   3.251   3.034  10.191  0.6760  0.8711  0.0724
  132OSM   H13S14179   3.306   2.977  10.269  0.6153  0.6286 -0.0592
  132OSM   H13T14180   3.332   3.092  10.140  0.6883  1.1456  0.4014
  132OSM   C14S14181   3.180   2.945  10.090 -0.8421  0.6292 -0.5748
  132OSM   H14S14182   3.169   2.988   9.988 -2.8744 -0.2246 -0.7491
  132OSM   H14T14183   3.076   2.933  10.126 -0.5307 -1.4249 -0.2574
  132OSM   C15S14184   3.234   2.799  10.087 -0.1022  0.0271 -0.6335
  132OSM   H15S14185   3.236   2.758  10.190 -0.8109 -1.1472 -1.0701
  132OSM   H15T14186   3.331   2.806  10.033  1.0554 -1.3279  1.1304
  132OSM   C16S14187   3.146   2.717   9.998  0.2066 -0.4986  0.2558
  132OSM   H16S14188   3.088   2.779   9.927  2.4452 -0.2037 -1.3942
  132OSM   H16T14189   3.067   2.687  10.071  0.5484  2.2640  1.8909
  132OSM   C17S14190   3.205   2.600   9.935 -0.3686  0.5409  0.0669
  132OSM   H17S14191   3.241   2.536  10.018 -2.3215  0.6027  1.0143
  132OSM   H17T14192   3.291   2.641   9.878  1.2382 -0.8520  1.4064
  132OSM   C18S14193   3.118   2.531   9.836  0.5773  0.1424 -0.0307
  132OSM   H18S14194   3.027   2.488   9.882 -0.4430  1.4342 -0.7677
  132OSM   H18T14195   3.168   2.449   9.780  2.5020  1.2818 -0.0580
  132OSM   H18U14196   3.086   2.611   9.766  1.9267 -1.5024 -2.6678
  132OSM    C1F14197   2.445   3.789  10.969  0.8709 -1.9416 -0.1829
  132OSM     OF14198   2.436   3.814  11.092  0.1677  0.2621  0.8221
  132OSM    C2F14199   2.404   3.891  10.867  0.0598 -0.3933  0.2022
  132OSM    H2F14200   2.297   3.873  10.841 -0.3241  1.4218  0.3875
  132OSM    H2G14201   2.459   3.884  10.771  1.1238  2.3988  0.4975
  132OSM    C3F14202   2.425   4.036  10.927  0.3417  0.9047 -0.5689
  132OSM    H3F14203   2.534   4.056  10.928  0.7008 -0.8643  0.8233
  132OSM    H3G14204   2.373   4.046  11.025 -1.3156 -2.1906 -1.0032
  132OSM    C4F14205   2.356   4.141  10.837  0.6586 -0.4384 -0.1172
  132OSM    H4F14206   2.372   4.236  10.892  0.5933 -0.9870  0.8662
  132OSM    H4G14207   2.248   4.119  10.827  0.4249  1.1736 -1.9964
  132OSM    C5F14208   2.424   4.161  10.698  0.5479 -0.8484  0.4354
  132OSM    H5F14209   2.449   4.076  10.631  0.1563 -1.1364  0.6487
  132OSM    H5G14210   2.525   4.203  10.718 -0.0825  1.6568 -1.2296
  132OSM    C6F14211   2.334   4.257  10.623 -0.2377  0.1468  0.3585
  132OSM    H6F14212   2.293   4.339  10.686 -2.4160  0.3008 -1.1479
  132OSM    H6G14213   2.259   4.194  10.570 -0.0813  1.4105 -1.4327
  132OSM    C7F14214   2.420   4.315  10.507  0.4042 -0.1461 -0.0853
  132OSM    H7F14215   2.353   4.323  10.419  2.6100  0.4271 -1.8315
  132OSM    H7G14216   2.505   4.248  10.478  0.4224 -0.8033  1.3762
  132OSM    C8F14217   2.472   4.458  10.544  0.1403 -0.1763  0.0830
  132OSM    H8F14218   2.547   4.448  10.626  1.2996  0.5260 -0.8589
  132OSM    H8G14219   2.395   4.529  10.581 -2.4939 -2.7298 -0.0922
  132OSM    C9F14220   2.546   4.515  10.424 -0.4134 -0.3659  0.2454
  132OSM    H9F14221   2.608   4.442  10.369 -2.1980 -1.6675 -0.1282
  132OSM   C10F14222   2.551   4.645  10.396 -0.2324 -0.3105 -0.3266
  132OSM   H10F14223   2.610   4.680  10.310  0.6821 -1.4850 -0.1870
  132OSM   C11F14224   2.483   4.762  10.466 -0.0101  0.1228  0.5238
  132OSM   H11F14225   2.553   4.830  10.520 -0.1245  1.2121 -0.6582
  132OSM   H11G14226   2.396   4.721  10.521 -2.4879  0.2280 -3.0213
  132OSM   C12F14227   2.427   4.855  10.358  0.2201 -0.6757  0.3838
  132OSM   H12F14228   2.351   4.793  10.305 -0.3792  0.1341  0.2809
  132OSM   H12G14229   2.516   4.885  10.298 -0.0010  0.2719  0.5164
  132OSM   C13F14230   2.354   4.977  10.409  0.4043  0.1596 -0.8513
  132OSM   H13F14231   2.285   4.939  10.488  3.7891 -0.2205  2.1942
  132OSM   H13G14232   2.280   5.009  10.334 -2.2235 -1.4731  0.8447
  132OSM   C14F14233   2.445   5.085  10.465 -0.2917 -0.1074 -0.6460
  132OSM   H14F14234   2.511   5.121  10.383 -0.9554 -0.2697 -1.2634
  132OSM   H14G14235   2.514   5.052  10.545 -1.0426 -0.6179 -0.1888
  132OSM   C15F14236   2.365   5.209  10.514  0.1764  0.7254 -0.2058
  132OSM   H15F14237   2.291   5.189  10.595  0.6069  3.4235  0.9760
  132OSM   H15G14238   2.305   5.239  10.425 -1.0945  1.4418  0.8476
  132OSM   C16F14239   2.453   5.318  10.558 -0.2837  0.4684 -0.3731
  132OSM   H16F14240   2.442   5.405  10.488  0.2304  0.1674 -0.8303
  132OSM   H16G14241   2.558   5.285  10.565 -0.7501 -0.6801  2.0355
  132OSM   C17F14242   2.420   5.374  10.696  0.5322  0.8256 -0.4592
  132OSM   H17F14243   2.429   5.292  10.770 -1.2506 -0.7730 -1.9262
  132OSM   H17G14244   2.313   5.400  10.710 -0.3802 -3.6339  2.8064
  132OSM   C18F14245   2.522   5.486  10.732 -0.6255  0.1615 -0.3309
  132OSM   H18F14246   2.519   5.563  10.652 -0.0055 -2.0420 -2.5919
  132OSM   H18G14247   2.619   5.432  10.726 -2.4580 -3.6149  0.6036
  132OSM   H18H14248   2.520   5.529  10.835 -1.6625 -0.7273  0.0406
  133OSM      N14249   2.091   3.378  13.472  0.0414  0.7463 -0.4985
  133OSM    C1514250   2.068   3.397  13.617 -1.1010 -0.6246  0.2950
  133OSM   H15A14251   1.963   3.418  13.629 -1.0010 -0.0923  0.2576
  133OSM   H15B14252   2.118   3.485  13.654 -0.0275 -1.1012  0.0173
  133OSM   H15C14253   2.094   3.309  13.673 -0.6309 -1.3547 -1.0264
  133OSM    C1414254   2.058   3.503  13.400  0.2115 -0.3454  0.3280
  133OSM   H14A14255   1.951   3.519  13.408  0.0429 -1.0374 -0.3970
  133OSM   H14B14256   2.080   3.503  13.294  0.6375  0.3456  0.4074
  133OSM   H14C14257   2.107   3.591  13.439  0.8044 -0.2249 -0.6532
  133OSM    C1314258   2.236   3.342  13.466  0.6878  0.3696  0.2145
  133OSM   H13A14259   2.262   3.251  13.519 -0.2730 -1.0432 -1.6052
  133OSM   H13B14260   2.283   3.428  13.511  2.1718 -0.1880 -0.2280
  133OSM   H13C14261   2.269   3.339  13.364  0.3427 -0.8710  0.1151
  133OSM    C1214262   2.005   3.256  13.424 -0.2029  0.1551  0.1651
  133OSM   H12A14263   2.066   3.172  13.455 -0.3122  0.4556  1.2358
  133OSM   H12B14264   2.019   3.251  13.317  3.0476 -2.9984  0.5511
  133OSM    C1114265   1.852   3.262  13.450 -0.4110 -0.2069  0.7794
  133OSM   H11A14266   1.831   3.271  13.559 -0.4553  2.4859  0.6128
  133OSM   H11B14267   1.813   3.164  13.414  1.0119 -0.4217 -0.2643
  133OSM      P14268   1.645   3.410  13.405  0.4915  0.3910 -0.3451
  133OSM    O1314269   1.591   3.445  13.275  0.2696  0.2632  0.2530
  133OSM    O1414270   1.568   3.302  13.467 -0.1615  0.3608  0.1245
  133OSM    O1114271   1.668   3.535  13.491 -0.2503  0.1278 -0.1970
  133OSM    O1214272   1.802   3.373  13.378  0.2843 -0.2077 -0.0849
  133OSM    C1S14273   1.704   3.655  13.412 -0.5905  0.3626 -0.8223
  133OSM    H1S14274   1.623   3.690  13.344 -2.4746 -0.0796  1.0913
  133OSM    H1T14275   1.794   3.627  13.354  1.6370  1.4768  1.9270
  133OSM     NF14276   1.761   3.900  13.425 -0.0416 -0.7145  0.6011
  133OSM    HNF14277   1.847   3.924  13.382 -0.5701  0.8076  0.3499
  133OSM    C2S14278   1.750   3.778  13.499  0.6227  0.2200 -0.4449
  133OSM    H2S14279   1.670   3.792  13.575 -0.0368  0.1677 -1.1196
  133OSM    C3S14280   1.874   3.737  13.582 -0.9273  0.2276 -0.6045
  133OSM    H3S14281   1.946   3.728  13.497  0.1097  0.8029  0.1923
  133OSM     O314282   1.874   3.615  13.653  0.3514  0.8074 -0.1084
  133OSM    HO314283   1.797   3.569  13.617  1.8737 -0.0443 -2.4817
  133OSM    C4S14284   1.901   3.855  13.673  0.4521 -0.1694  0.4695
  133OSM    H4S14285   1.954   3.934  13.619 -1.1226 -0.2384 -1.3110
  133OSM    C5S14286   1.841   3.886  13.792 -0.4116 -0.1588  0.2136
  133OSM    H5S14287   1.759   3.826  13.832 -1.2644  1.3484  0.8162
  133OSM    C6S14288   1.853   4.016  13.863 -0.4314  0.0238 -0.7505
  133OSM    H6S14289   1.952   4.064  13.857 -0.5387  0.5349  1.0562
  133OSM    H6T14290   1.830   3.981  13.966  0.4367  0.6810 -0.3276
  133OSM    C7S14291   1.742   4.109  13.821 -0.0118 -0.1156  0.1275
  133OSM    H7S14292   1.735   4.199  13.887  0.5615  0.3060 -0.3679
  133OSM    H7T14293   1.646   4.055  13.810  0.5572 -0.8311 -1.7177
  133OSM    C8S14294   1.760   4.187  13.686 -0.4127  0.3740  0.1285
  133OSM    H8S14295   1.762   4.116  13.601  0.2553  0.1907  0.2962
  133OSM    H8T14296   1.855   4.245  13.685 -0.3112  0.2051 -1.1023
  133OSM    C9S14297   1.647   4.289  13.677 -0.3464  0.2421 -0.1884
  133OSM    H9S14298   1.625   4.334  13.777  0.2878 -1.1502  0.5966
  133OSM    H9T14299   1.553   4.246  13.638  0.1576 -2.3060  1.1867
  133OSM   C10S14300   1.686   4.413  13.598  0.1574  0.4927  1.0353
  133OSM   H10S14301   1.723   4.378  13.499  1.2257  1.0298  1.2414
  133OSM   H10T14302   1.763   4.476  13.646  1.1569 -0.1125  0.2781
  133OSM   C11S14303   1.562   4.495  13.559 -0.4611 -0.5844  0.4096
  133OSM   H11S14304   1.485   4.437  13.504  0.3900 -2.7635  1.3496
  133OSM   H11T14305   1.593   4.584  13.501  2.0324  0.1927  2.7395
  133OSM   C12S14306   1.484   4.565  13.679  0.4919 -0.0486  0.1874
  133OSM   H12S14307   1.563   4.627  13.726  0.5773 -1.3546  1.8599
  133OSM   H12T14308   1.457   4.498  13.763 -2.8020  0.4427 -0.3455
  133OSM   C13S14309   1.368   4.655  13.625 -0.9311 -0.3341 -0.3508
  133OSM   H13S14310   1.298   4.580  13.583  4.1144 -5.5119 -0.6966
  133OSM   H13T14311   1.407   4.722  13.545 -0.6797  1.2579  1.0315
  133OSM   C14S14312   1.295   4.743  13.733 -0.0234 -0.0848 -0.0932
  133OSM   H14S14313   1.372   4.817  13.765  0.0229 -0.6267  1.0809
  133OSM   H14T14314   1.270   4.676  13.818 -1.9625 -2.1397 -2.1352
  133OSM   C15S14315   1.168   4.802  13.674 -0.1432 -0.0133 -0.0972
  133OSM   H15S14316   1.120   4.718  13.620  1.3707 -0.5817 -0.6281
  133OSM   H15T14317   1.195   4.877  13.597  0.8702 -1.4256 -1.1680
  133OSM   C16S14318   1.076   4.850  13.782  0.1170 -0.1332 -0.1400
  133OSM   H16S14319   1.129   4.920  13.851  2.4665 -0.1286 -1.8250
  133OSM   H16T14320   1.041   4.769  13.850 -0.6354  0.7340  0.5311
  133OSM   C17S14321   0.950   4.922  13.726  0.0093 -0.0400 -0.2905
  133OSM   H17S14322   0.890   4.960  13.811  1.2672 -1.3852  1.2880
  133OSM   H17T14323   0.881   4.846  13.683 -0.6225 -0.4189  1.2997
  133OSM   C18S14324   0.974   5.045  13.634 -0.1302 -0.5738  0.3208
  133OSM   H18S14325   1.046   5.117  13.679  0.0219 -1.2900  1.2562
  133OSM   H18T14326   0.882   5.100  13.604 -0.5024 -1.7879 -0.8194
  133OSM   H18U14327   1.019   5.014  13.538  1.1489  1.2003  0.2959
  133OSM    C1F14328   1.657   3.965  13.378  0.0884 -0.5572  0.3482
  133OSM     OF14329   1.543   3.934  13.404  0.4037  0.0702 -0.7383
  133OSM    C2F14330   1.678   4.083  13.284 -0.5119 -0.3270  0.2027
  133OSM    H2F14331   1.717   4.041  13.188  0.6588 -0.7524  0.8379
  133OSM    H2G14332   1.764   4.150  13.308 -1.6731  2.0824 -1.9078
  133OSM    C3F14333   1.550   4.173  13.271 -0.0792 -0.0640 -0.2170
  133OSM    H3F14334   1.524   4.208  13.373 -0.4244  0.2345 -0.4057
  133OSM    H3G14335   1.458   4.117  13.243 -0.6095  0.6786  0.0264
  133OSM    C4F14336   1.576   4.299  13.182 -0.4165 -0.1432 -0.5045
  133OSM    H4F14337   1.657   4.353  13.234 -2.9406  3.5669 -0.0730
  133OSM    H4G14338   1.489   4.369  13.177  0.8445  1.4007 -3.3865
  133OSM    C5F14339   1.604   4.273  13.033  0.8268  0.5027 -0.0828
  133OSM    H5F14340   1.698   4.215  13.026  0.8273  0.6576 -2.1105
  133OSM    H5G14341   1.607   4.374  12.987  1.1597 -0.2708 -1.8569
  133OSM    C6F14342   1.497   4.183  12.968 -0.2214  0.0519 -0.0610
  133OSM    H6F14343   1.399   4.222  13.002 -1.1872 -2.6663  0.5169
  133OSM    H6G14344   1.509   4.084  13.017 -1.5092  0.4648  1.1537
  133OSM    C7F14345   1.512   4.171  12.817 -0.1850  0.2079  0.3080
  133OSM    H7F14346   1.454   4.078  12.797 -3.5636  1.3156  3.7154
  133OSM    H7G14347   1.621   4.156  12.799  0.4249  3.8631  0.2742
  133OSM    C8F14348   1.453   4.290  12.743  0.1039 -0.4815 -0.2275
  133OSM    H8F14349   1.498   4.293  12.642  2.5481  1.6075  0.7859
  133OSM    H8G14350   1.482   4.386  12.791 -1.2659  0.5426 -1.3446
  133OSM    C9F14351   1.301   4.282  12.747  0.6142  0.1695 -0.8217
  133OSM    H9F14352   1.257   4.291  12.847 -0.0979 -2.2074 -0.8431
  133OSM   C10F14353   1.219   4.267  12.645 -0.4995  0.7655 -0.3093
  133OSM   H10F14354   1.114   4.253  12.676 -0.1155 -1.8345  0.0503
  133OSM   C11F14355   1.251   4.244  12.504 -0.1680 -0.8437 -0.5571
  133OSM   H11F14356   1.182   4.175  12.450  0.6443 -1.5809 -0.6729
  133OSM   H11G14357   1.351   4.196  12.496  0.2110 -0.3207  0.7903
  133OSM   C12F14358   1.257   4.371  12.424 -0.1095  0.0094  0.5305
  133OSM   H12F14359   1.299   4.337  12.328 -1.6455 -0.6536  0.0702
  133OSM   H12G14360   1.324   4.450  12.467 -0.2524 -0.1659  1.0797
  133OSM   C13F14361   1.120   4.434  12.400  0.3930  1.4887 -0.3730
  133OSM   H13F14362   1.073   4.452  12.499 -1.5535  0.8241 -1.1120
  133OSM   H13G14363   1.059   4.360  12.343  0.0025 -0.0779  1.9325
  133OSM   C14F14364   1.123   4.577  12.336 -0.4729 -0.1883  0.3946
  133OSM   H14F14365   1.029   4.594  12.280  0.3995  2.0313 -0.5327
  133OSM   H14G14366   1.209   4.574  12.266 -0.6002  2.2852  0.0442
  133OSM   C15F14367   1.156   4.672  12.444  0.0082 -0.4403  0.6284
  133OSM   H15F14368   1.264   4.658  12.468  0.2178  0.7896  0.5053
  133OSM   H15G14369   1.087   4.647  12.527 -0.9302 -0.3878 -0.1122
  133OSM   C16F14370   1.140   4.818  12.417  0.2604 -0.0370  0.3393
  133OSM   H16F14371   1.181   4.839  12.315 -1.6771 -1.2880 -0.7616
  133OSM   H16G14372   1.190   4.877  12.497  1.2071  0.9544 -0.9367
  133OSM   C17F14373   0.985   4.849  12.406 -0.9376  0.4979 -0.4022
  133OSM   H17F14374   0.949   4.811  12.504  0.8750 -1.6600 -0.4758
  133OSM   H17G14375   0.951   4.780  12.326 -1.0183  3.0396 -2.6990
  133OSM   C18F14376   0.953   4.994  12.373 -0.0538 -1.2094  0.4824
  133OSM   H18F14377   0.973   5.004  12.264 -0.7626 -0.3882  0.4268
  133OSM   H18G14378   1.016   5.071  12.421 -1.8358 -0.1695  1.2256
  133OSM   H18H14379   0.848   5.024  12.391 -0.1366 -0.8482 -0.5353
  134OSM      N14380   1.142   2.570  14.444  0.9211  0.3524 -0.6618
  134OSM    C1514381   1.156   2.718  14.409  0.7388  0.2318 -0.5101
  134OSM   H15A14382   1.202   2.738  14.313 -2.6669 -1.8450 -2.7758
  134OSM   H15B14383   1.206   2.770  14.490  0.1810  1.1337 -0.7331
  134OSM   H15C14384   1.063   2.769  14.390  0.0198 -0.8361  0.0775
  134OSM    C1414385   1.089   2.512  14.322  0.3262 -0.1714  0.7226
  134OSM   H14A14386   1.004   2.568  14.285  0.1036 -0.0473  1.4020
  134OSM   H14B14387   1.058   2.409  14.334  1.4854 -0.3758  2.1706
  134OSM   H14C14388   1.151   2.509  14.234 -1.9146  0.4240 -0.9860
  134OSM    C1314389   1.272   2.514  14.481 -0.4537 -0.1259 -0.4182
  134OSM   H13A14390   1.269   2.418  14.530  1.8548  1.0438  2.2180
  134OSM   H13B14391   1.317   2.578  14.555 -0.6250 -0.9320  0.4027
  134OSM   H13C14392   1.338   2.503  14.396  1.3398 -0.5105  0.9833
  134OSM    C1214393   1.038   2.559  14.566  0.2065 -0.6006 -0.2112
  134OSM   H12A14394   0.996   2.459  14.562  1.6532 -1.2033 -1.8116
  134OSM   H12B14395   0.962   2.632  14.544  0.4164 -0.4659 -0.4955
  134OSM    C1114396   1.090   2.595  14.709  0.4436  0.4952  0.7208
  134OSM   H11A14397   1.152   2.513  14.751  0.3714 -0.7368 -1.4482
  134OSM   H11B14398   0.996   2.611  14.766 -0.7852 -2.8585 -0.1134
  134OSM      P14399   1.289   2.732  14.795 -0.1522  0.2293 -0.0132
  134OSM    O1314400   1.410   2.676  14.723  0.0717 -0.4383 -0.1237
  134OSM    O1414401   1.302   2.873  14.829  0.4705 -0.1680  0.0719
  134OSM    O1114402   1.253   2.640  14.919  0.1440 -0.2539 -0.6185
  134OSM    O1214403   1.164   2.718  14.704  0.0415  0.5578  0.3963
  134OSM    C1S14404   1.182   2.709  15.027 -0.0974  0.8488  0.8685
  134OSM    H1S14405   1.080   2.745  14.998  0.2298  1.6197  0.6397
  134OSM    H1T14406   1.245   2.788  15.073  0.4671 -0.5095  2.5061
  134OSM     NF14407   1.101   2.717  15.251 -0.4076  0.1512 -0.0829
  134OSM    HNF14408   1.159   2.768  15.314 -1.6298 -0.1579  1.3446
  134OSM    C2S14409   1.159   2.629  15.158  0.4949  0.4601  0.4860
  134OSM    H2S14410   1.093   2.542  15.138  1.2007 -0.2238  1.0066
  134OSM    C3S14411   1.297   2.566  15.199 -0.0501  0.2777 -0.5258
  134OSM    H3S14412   1.359   2.652  15.230 -0.1833 -0.0099  0.5681
  134OSM     O314413   1.364   2.495  15.099 -0.1348  0.8245  0.3078
  134OSM    HO314414   1.335   2.534  15.016  3.0776  1.0009 -0.8936
  134OSM    C4S14415   1.259   2.478  15.313 -0.9674  0.7503 -0.5719
  134OSM    H4S14416   1.194   2.393  15.288 -0.0443 -0.2683  0.3809
  134OSM    C5S14417   1.290   2.493  15.445 -0.6314 -0.0609  0.1595
  134OSM    H5S14418   1.361   2.569  15.481  0.1108  0.4510 -2.2064
  134OSM    C6S14419   1.243   2.403  15.558 -0.1310  0.1626 -0.3031
  134OSM    H6S14420   1.163   2.333  15.525  0.9097 -1.8060  1.1356
  134OSM    H6T14421   1.192   2.456  15.641 -1.7539  0.5697 -1.5052
  134OSM    C7S14422   1.360   2.327  15.613  0.0538  0.3956 -0.2448
  134OSM    H7S14423   1.450   2.392  15.625  0.8510 -0.3218 -2.0608
  134OSM    H7T14424   1.382   2.247  15.539 -1.5095 -1.4394  1.1683
  134OSM    C8S14425   1.328   2.253  15.740  0.7977 -0.0571 -0.8948
  134OSM    H8S14426   1.374   2.152  15.744  1.0427  0.0466 -1.1038
  134OSM    H8T14427   1.218   2.246  15.752  0.7160  0.8011 -1.0813
  134OSM    C9S14428   1.358   2.331  15.871  0.1962 -0.1003  0.6681
  134OSM    H9S14429   1.443   2.401  15.859 -1.0877  1.3992 -0.3029
  134OSM    H9T14430   1.375   2.254  15.948  1.5254 -1.0733 -0.5495
  134OSM   C10S14431   1.233   2.408  15.912  0.6664 -0.2581 -0.3496
  134OSM   H10S14432   1.131   2.367  15.894  0.2363  1.4928 -2.2720
  134OSM   H10T14433   1.235   2.501  15.851 -0.2335  0.3260  0.4587
  134OSM   C11S14434   1.246   2.463  16.057  0.7023  0.6601  0.5111
  134OSM   H11S14435   1.344   2.515  16.063  0.8006  0.4517  0.7145
  134OSM   H11T14436   1.261   2.381  16.129  0.4328  2.0621  2.2187
  134OSM   C12S14437   1.121   2.546  16.091  0.1928  0.3679 -0.7067
  134OSM   H12S14438   1.023   2.506  16.056 -0.1004 -1.4543  1.9234
  134OSM   H12T14439   1.138   2.650  16.057 -0.7992  0.3855 -1.1862
  134OSM   C13S14440   1.108   2.566  16.247  0.2140 -0.6646  0.0883
  134OSM   H13S14441   1.207   2.578  16.295  1.2012 -3.0681 -1.2019
  134OSM   H13T14442   1.070   2.471  16.291  2.0759 -0.9350  1.1909
  134OSM   C14S14443   1.028   2.687  16.293  0.3709  0.7197  0.5744
  134OSM   H14S14444   0.923   2.659  16.271  1.0163  0.1758 -2.1173
  134OSM   H14T14445   1.051   2.787  16.252 -2.0450  0.7946 -0.7804
  134OSM   C15S14446   1.044   2.698  16.448 -0.4494 -0.3405 -0.1797
  134OSM   H15S14447   1.152   2.681  16.470 -0.6634 -0.2573  0.9754
  134OSM   H15T14448   0.981   2.617  16.490  1.3543 -2.1692 -0.7908
  134OSM   C16S14449   0.990   2.828  16.510 -0.3348 -0.0401 -0.4712
  134OSM   H16S14450   1.026   2.921  16.461 -1.4068  0.3585 -0.5361
  134OSM   H16T14451   1.022   2.817  16.615  0.1806 -2.7449 -0.8172
  134OSM   C17S14452   0.839   2.819  16.521 -1.2043 -0.0178 -0.3085
  134OSM   H17S14453   0.814   2.715  16.550 -1.7439  0.5259  1.2992
  134OSM   H17T14454   0.782   2.825  16.425 -1.4846  0.8478 -0.0983
  134OSM   C18S14455   0.788   2.913  16.625 -0.0509  0.5625  0.0754
  134OSM   H18S14456   0.776   3.014  16.581 -0.7169 -0.2468 -1.6632
  134OSM   H18T14457   0.849   2.907  16.718 -0.6050 -4.0776  0.3603
  134OSM   H18U14458   0.686   2.879  16.649 -0.0584 -1.0618 -2.0157
  134OSM    C1F14459   0.976   2.756  15.238  0.2002  0.7891  0.2753
  134OSM     OF14460   0.903   2.709  15.150  0.6948  0.6707 -0.4203
  134OSM    C2F14461   0.929   2.847  15.351  1.1245  0.2316 -0.6820
  134OSM    H2F14462   1.021   2.883  15.401  1.1501 -1.8035  0.9055
  134OSM    H2G14463   0.885   2.784  15.432  0.3213 -0.1456 -1.3866
  134OSM    C3F14464   0.837   2.960  15.302  0.3987 -0.0636  0.1637
  134OSM    H3F14465   0.748   2.923  15.246 -0.5842 -1.7278  2.6258
  134OSM    H3G14466   0.906   3.020  15.239  2.9814 -0.7820  2.1024
  134OSM    C4F14467   0.781   3.049  15.416 -0.4900  0.4207  0.4120
  134OSM    H4F14468   0.698   3.115  15.381 -0.9791 -0.8077 -0.8618
  134OSM    H4G14469   0.866   3.100  15.466 -1.2084  0.9302  1.1444
  134OSM    C5F14470   0.718   2.967  15.533  0.4568 -0.0460  0.1097
  134OSM    H5F14471   0.791   2.900  15.584  0.1520  0.3191  1.0542
  134OSM    H5G14472   0.648   2.894  15.487  2.1395 -0.9482 -1.1353
  134OSM    C6F14473   0.666   3.054  15.646 -0.0055 -0.0632 -0.0394
  134OSM    H6F14474   0.753   3.122  15.661  0.9431 -1.1524 -0.3967
  134OSM    H6G14475   0.636   2.995  15.735 -1.0421 -0.4493 -0.6213
  134OSM    C7F14476   0.538   3.129  15.616  0.4644  0.0289 -0.0925
  134OSM    H7F14477   0.458   3.059  15.582 -0.9214  1.7812 -0.5694
  134OSM    H7G14478   0.553   3.193  15.528 -3.3574  1.1057 -0.1337
  134OSM    C8F14479   0.488   3.207  15.735  0.8244  0.2269  0.1872
  134OSM    H8F14480   0.446   3.145  15.817 -0.3018  0.4555 -0.2001
  134OSM    H8G14481   0.411   3.269  15.684  0.6768 -0.2259 -0.1510
  134OSM    C9F14482   0.583   3.305  15.791 -0.4489 -0.3612 -0.1097
  134OSM    H9F14483   0.668   3.336  15.728 -1.0449 -1.0072 -1.2576
  134OSM   C10F14484   0.574   3.353  15.917 -0.0244 -0.2593  0.5257
  134OSM   H10F14485   0.652   3.421  15.954 -0.2326 -0.7582  1.9360
  134OSM   C11F14486   0.459   3.328  16.018 -0.4687 -0.2110  0.1222
  134OSM   H11F14487   0.503   3.270  16.102  0.4679  0.5019  0.1342
  134OSM   H11G14488   0.375   3.273  15.970  0.1509  0.3948 -1.7297
  134OSM   C12F14489   0.399   3.452  16.093 -0.6064 -0.5526  0.1562
  134OSM   H12F14490   0.358   3.525  16.020  1.1905 -1.3494 -1.7441
  134OSM   H12G14491   0.484   3.496  16.151  0.3579 -1.4343 -0.5611
  134OSM   C13F14492   0.280   3.417  16.190  0.4432  0.0087 -0.7128
  134OSM   H13F14493   0.303   3.335  16.262 -3.6222 -0.0217  0.7660
  134OSM   H13G14494   0.196   3.369  16.136 -2.1900  0.0226  2.9402
  134OSM   C14F14495   0.255   3.545  16.274  0.3363  0.4834 -0.3848
  134OSM   H14F14496   0.223   3.631  16.211 -0.5039  0.6354  0.2304
  134OSM   H14G14497   0.339   3.577  16.339  0.6649 -1.0784  0.0052
  134OSM   C15F14498   0.132   3.526  16.365 -0.0113  0.5511  1.0484
  134OSM   H15F14499   0.174   3.456  16.440 -0.4579  1.6555  2.3525
  134OSM   H15G14500   0.045   3.473  16.320  1.5870  0.5445 -2.3887
  134OSM   C16F14501   0.074   3.648  16.425 -0.2347 -0.1779 -0.2298
  134OSM   H16F14502   0.149   3.709  16.480  1.4322  0.2549 -2.7891
  134OSM   H16G14503  -0.000   3.620  16.503 -2.5583  0.0785 -2.2495
  134OSM   C17F14504  -0.019   3.715  16.326 -0.0682  0.1309  0.3208
  134OSM   H17F14505  -0.090   3.637  16.290  2.6127 -2.6556  0.6541
  134OSM   H17G14506   0.035   3.744  16.233  0.1877 -2.2564 -0.3419
  134OSM   C18F14507  -0.092   3.836  16.387  0.3280  0.1432  0.0574
  134OSM   H18F14508  -0.034   3.924  16.353 -0.9941 -0.2331 -3.6925
  134OSM   H18G14509  -0.104   3.812  16.495 -0.8118 -1.6633 -0.4099
  134OSM   H18H14510  -0.189   3.851  16.335  0.1188 -2.2379 -0.3809
  135OSM      N14511   1.415   3.134  10.057  0.0784 -0.0878  0.0030
  135OSM    C1514512   1.328   3.046   9.974  0.5375 -0.1135 -0.4054
  135OSM   H15A14513   1.229   3.086   9.959 -0.9429 -3.7868 -1.4384
  135OSM   H15B14514   1.313   2.956  10.031 -1.0854  0.8349  0.7286
  135OSM   H15C14515   1.370   3.027   9.876  0.8150 -0.5373 -0.2023
  135OSM    C1414516   1.445   3.266   9.985  0.7169 -0.0440 -0.1598
  135OSM   H14A14517   1.525   3.309  10.044 -0.6334  2.1629  0.1388
  135OSM   H14B14518   1.368   3.340   9.995  0.8487 -0.1204  1.8773
  135OSM   H14C14519   1.483   3.261   9.884  1.5631 -1.0631  0.1860
  135OSM    C1314520   1.355   3.171  10.191  0.3530  0.2259  0.4848
  135OSM   H13A14521   1.252   3.204  10.187  0.0446 -0.4450  2.0441
  135OSM   H13B14522   1.408   3.254  10.236  2.8133 -0.9553 -0.0822
  135OSM   H13C14523   1.354   3.086  10.258  0.6304  0.2734  0.5518
  135OSM    C1214524   1.551   3.072  10.075 -0.3602 -0.2772 -0.4122
  135OSM   H12A14525   1.614   3.134  10.138 -0.8716 -0.1911  0.0186
  135OSM   H12B14526   1.603   3.075   9.980 -0.2168 -0.4969 -0.3412
  135OSM    C1114527   1.553   2.927  10.121 -0.7880 -0.8477 -0.7473
  135OSM   H11A14528   1.659   2.897  10.140 -0.6619 -0.1210 -0.2434
  135OSM   H11B14529   1.504   2.852  10.056 -1.8233 -0.1037 -0.8465
  135OSM      P14530   1.560   2.902  10.391  0.2883  0.1524 -0.0040
  135OSM    O1314531   1.686   2.969  10.387 -0.3803 -0.3424 -0.0417
  135OSM    O1414532   1.467   2.937  10.499 -0.3465  0.3680  0.0096
  135OSM    O1114533   1.597   2.752  10.403 -0.5555  0.2052 -0.1327
  135OSM    O1214534   1.485   2.918  10.246  0.5800  0.2622  0.3012
  135OSM    C1S14535   1.497   2.648  10.408  0.6261  0.4974 -0.2603
  135OSM    H1S14536   1.402   2.683  10.362 -0.6778 -2.8377 -0.3095
  135OSM    H1T14537   1.486   2.629  10.516  0.9759 -1.6263 -0.5482
  135OSM     NF14538   1.398   2.430  10.324 -0.9030 -0.4109 -0.2055
  135OSM    HNF14539   1.388   2.357  10.391  2.1556  0.5410  1.4766
  135OSM    C2S14540   1.521   2.511  10.328  0.1050 -0.8883 -0.5337
  135OSM    H2S14541   1.552   2.540  10.226  1.1723 -0.8411 -0.2050
  135OSM    C3S14542   1.639   2.433  10.399  1.1169  0.0212 -0.3206
  135OSM    H3S14543   1.600   2.396  10.497 -2.7265 -1.1820 -2.1323
  135OSM     O314544   1.756   2.507  10.426  0.4136 -0.1804  0.1244
  135OSM    HO314545   1.735   2.598  10.402  1.9512 -0.4861 -3.0258
  135OSM    C4S14546   1.663   2.315  10.314  0.3874 -0.0624  0.4146
  135OSM    H4S14547   1.611   2.220  10.335 -1.6743 -0.1686 -3.9678
  135OSM    C5S14548   1.749   2.307  10.210  0.0365  0.5584  0.1430
  135OSM    H5S14549   1.801   2.402  10.189 -0.1615  1.1463  2.0840
  135OSM    C6S14550   1.777   2.180  10.142 -0.1482  0.0809  0.0204
  135OSM    H6S14551   1.725   2.092  10.186  1.4323 -0.0660  1.7222
  135OSM    H6T14552   1.886   2.165  10.159  0.0523  2.8702  1.7721
  135OSM    C7S14553   1.730   2.160   9.997 -0.7160  0.3123 -0.0511
  135OSM    H7S14554   1.625   2.193   9.981 -0.9508 -0.4501 -0.1217
  135OSM    H7T14555   1.740   2.051   9.975 -1.0106  0.6375 -1.9944
  135OSM    C8S14556   1.801   2.246   9.898 -0.5295 -0.3831 -0.0424
  135OSM    H8S14557   1.906   2.218   9.872 -0.5581  0.6737 -1.3972
  135OSM    H8T14558   1.809   2.345   9.946 -1.7075 -0.5939  0.6256
  135OSM    C9S14559   1.734   2.245   9.761 -0.4637 -0.6710 -0.4963
  135OSM    H9S14560   1.627   2.273   9.766 -0.4592 -0.8263  1.2968
  135OSM    H9T14561   1.743   2.146   9.710  0.0419 -1.8773  1.7867
  135OSM   C10S14562   1.806   2.339   9.658 -0.1183  0.0261  0.7021
  135OSM   H10S14563   1.915   2.331   9.676  0.4910  1.3026 -1.9718
  135OSM   H10T14564   1.788   2.447   9.681  1.8437  0.4593  0.3964
  135OSM   C11S14565   1.735   2.316   9.521 -1.0907 -0.1615  0.0005
  135OSM   H11S14566   1.626   2.322   9.541 -0.9833 -1.0062  0.9339
  135OSM   H11T14567   1.756   2.209   9.498 -0.9811 -0.0444 -0.4520
  135OSM   C12S14568   1.771   2.421   9.415 -0.5734 -0.1312  0.1888
  135OSM   H12S14569   1.710   2.512   9.429  2.4850  2.0489  0.3866
  135OSM   H12T14570   1.747   2.378   9.315 -1.7224  1.7222 -0.3662
  135OSM   C13S14571   1.919   2.469   9.411 -0.2483  0.0707 -0.2241
  135OSM   H13S14572   1.943   2.521   9.506  0.7732 -1.7643  0.5792
  135OSM   H13T14573   1.937   2.542   9.329 -3.0645  2.6365  1.2453
  135OSM   C14S14574   2.020   2.350   9.397  0.8103 -0.2363 -0.7244
  135OSM   H14S14575   2.018   2.319   9.290  1.6019  0.4369 -0.9442
  135OSM   H14T14576   1.991   2.265   9.463  0.2053  2.0579  2.1665
  135OSM   C15S14577   2.163   2.391   9.433  0.3647 -0.1379 -0.5235
  135OSM   H15S14578   2.165   2.436   9.535 -1.4451  2.0517 -1.3883
  135OSM   H15T14579   2.188   2.468   9.358  0.2763 -0.1436 -0.5591
  135OSM   C16S14580   2.271   2.281   9.425  0.4193  1.0437 -0.4822
  135OSM   H16S14581   2.247   2.194   9.490 -0.2508  1.9418  0.4982
  135OSM   H16T14582   2.369   2.308   9.471 -0.1253  1.9299  0.1769
  135OSM   C17S14583   2.292   2.241   9.271 -0.9643 -0.0116 -0.0162
  135OSM   H17S14584   2.310   2.332   9.211  0.5779 -0.1187  0.2549
  135OSM   H17T14585   2.192   2.202   9.241 -1.8979  2.5770 -0.5138
  135OSM   C18S14586   2.402   2.137   9.244 -0.7562 -0.4960  0.3653
  135OSM   H18S14587   2.383   2.078   9.152 -0.2534  0.0872 -0.1180
  135OSM   H18T14588   2.415   2.071   9.333  2.5779 -2.3078 -1.2906
  135OSM   H18U14589   2.497   2.188   9.220 -2.0397  1.0819 -1.7322
  135OSM    C1F14590   1.303   2.462  10.245  0.8055  0.6888 -0.0099
  135OSM     OF14591   1.320   2.542  10.162 -0.4670  0.6072  0.1687
  135OSM    C2F14592   1.181   2.389  10.271  0.8081  0.2177  0.1071
  135OSM    H2F14593   1.136   2.440  10.359  2.4583 -1.3724  1.9510
  135OSM    H2G14594   1.209   2.287  10.303  0.4807  0.1781  0.2675
  135OSM    C3F14595   1.070   2.381  10.153  0.5257  0.0460  0.5811
  135OSM    H3F14596   0.987   2.315  10.185  0.4953 -0.9454 -1.3840
  135OSM    H3G14597   1.119   2.330  10.067  0.9491  0.3865  0.6135
  135OSM    C4F14598   1.023   2.513  10.110  0.3084 -1.0485 -0.5123
  135OSM    H4F14599   1.108   2.579  10.080  0.6800  0.0544  2.5409
  135OSM    H4G14600   0.973   2.568  10.193  3.4849  2.2703 -0.5290
  135OSM    C5F14601   0.930   2.515   9.987  0.3593 -0.6564 -0.3207
  135OSM    H5F14602   0.829   2.480  10.019  1.0830 -2.4453  0.1193
  135OSM    H5G14603   0.962   2.450   9.903  2.6176 -0.1964  0.1337
  135OSM    C6F14604   0.914   2.651   9.916 -0.0915 -0.6045 -0.2437
  135OSM    H6F14605   0.836   2.655   9.837 -0.9509  2.4366  0.6328
  135OSM    H6G14606   1.009   2.676   9.863  1.5711  0.6542  3.0518
  135OSM    C7F14607   0.865   2.754  10.011  0.0490 -0.0748 -0.1884
  135OSM    H7F14608   0.930   2.774  10.099 -0.3932 -0.1909  0.1715
  135OSM    H7G14609   0.766   2.715  10.043 -0.2612 -0.0938 -1.1408
  135OSM    C8F14610   0.845   2.891   9.952  0.1974  1.1071 -0.7177
  135OSM    H8F14611   0.765   2.937  10.014 -2.3873 -0.8249 -2.4119
  135OSM    H8G14612   0.787   2.880   9.858  1.1685 -1.5995 -1.0723
  135OSM    C9F14613   0.974   2.970   9.928  0.8255 -0.6048 -0.0877
  135OSM    H9F14614   1.058   2.947   9.994 -0.8275 -0.8265  2.0438
  135OSM   C10F14615   0.979   3.066   9.831 -0.3159 -0.3546  0.1590
  135OSM   H10F14616   1.081   3.109   9.824  0.2234 -1.7011 -0.4334
  135OSM   C11F14617   0.883   3.101   9.719  0.1205 -0.5282 -0.2018
  135OSM   H11F14618   0.784   3.056   9.742  0.0558  0.1021  0.7982
  135OSM   H11G14619   0.926   3.050   9.631 -1.1209 -1.9520 -0.0278
  135OSM   C12F14620   0.856   3.254   9.697  0.8534  0.7483 -0.0700
  135OSM   H12F14621   0.951   3.302   9.663  1.1419  0.4049  0.2453
  135OSM   H12G14622   0.840   3.298   9.797 -0.4637 -0.3494  0.2242
  135OSM   C13F14623   0.739   3.283   9.595  0.7944  0.0510 -0.5372
  135OSM   H13F14624   0.767   3.234   9.499  0.5015 -1.5085  0.1405
  135OSM   H13G14625   0.726   3.393   9.588  1.9562  0.3333  1.1255
  135OSM   C14F14626   0.598   3.232   9.631 -0.2318  0.3529 -0.0806
  135OSM   H14F14627   0.565   3.262   9.733  0.6937 -1.0081  0.6543
  135OSM   H14G14628   0.605   3.122   9.629  0.6752  0.4051 -0.3335
  135OSM   C15F14629   0.501   3.261   9.515  0.0205 -0.4433  0.7918
  135OSM   H15F14630   0.559   3.222   9.428 -0.1606  1.2667 -0.1310
  135OSM   H15G14631   0.487   3.371   9.511 -1.0814 -0.5961 -0.7738
  135OSM   C16F14632   0.369   3.181   9.511  0.0497 -0.6044  0.4619
  135OSM   H16F14633   0.313   3.229   9.594 -0.0167 -0.4081  0.3031
  135OSM   H16G14634   0.388   3.072   9.522  1.1900 -0.4319  0.3963
  135OSM   C17F14635   0.286   3.190   9.383 -0.5763 -0.1378  0.2288
  135OSM   H17F14636   0.344   3.149   9.297 -0.4845  2.0163 -0.8137
  135OSM   H17G14637   0.277   3.299   9.362  1.2226  0.3644  1.8105
  135OSM   C18F14638   0.149   3.132   9.385  0.5195  0.5494  0.3899
  135OSM   H18F14639   0.101   3.172   9.293  1.4340  1.0176  0.0923
  135OSM   H18G14640   0.100   3.168   9.478  3.3184 -0.3798  2.3824
  135OSM   H18H14641   0.150   3.021   9.385  0.4174  0.5498  0.9501
  136OSM      N14642   1.443   3.512  14.564 -0.1737  0.1849 -0.0916
  136OSM    C1514643   1.484   3.535  14.421 -0.1026 -0.0863 -0.0869
  136OSM   H15A14644   1.562   3.609  14.427  1.2294 -1.1832 -2.4152
  136OSM   H15B14645   1.396   3.550  14.360  0.2099  1.6195 -0.1682
  136OSM   H15C14646   1.540   3.453  14.379 -0.0552  1.0472 -2.4101
  136OSM    C1414647   1.351   3.396  14.576  0.1661 -0.1862 -0.0940
  136OSM   H14A14648   1.404   3.310  14.538  0.6682  0.1056 -0.0698
  136OSM   H14B14649   1.268   3.402  14.507  0.6409 -1.6216 -0.8375
  136OSM   H14C14650   1.319   3.382  14.678 -0.9872 -1.6778 -0.6284
  136OSM    C1314651   1.570   3.482  14.641  0.2153  0.2721  0.6672
  136OSM   H13A14652   1.657   3.533  14.601 -0.7438  1.7880  0.4364
  136OSM   H13B14653   1.592   3.377  14.630 -0.2930  0.3708 -1.8590
  136OSM   H13C14654   1.560   3.510  14.745 -2.0721  0.3128  0.4784
  136OSM    C1214655   1.374   3.640  14.608 -0.5702 -0.0531 -0.0782
  136OSM   H12A14656   1.290   3.661  14.543 -0.6901  0.1156  0.1278
  136OSM   H12B14657   1.441   3.719  14.578  1.0478 -0.6757  1.6763
  136OSM    C1114658   1.341   3.643  14.760 -0.0164  0.3615 -0.2740
  136OSM   H11A14659   1.286   3.555  14.800  0.6004  0.9376  1.9625
  136OSM   H11B14660   1.271   3.725  14.788 -1.6534 -1.6267  1.8680
  136OSM      P14661   1.530   3.797  14.858 -0.0909 -0.1593 -0.0497
  136OSM    O1314662   1.662   3.773  14.920 -0.2352  0.1687  0.1763
  136OSM    O1414663   1.538   3.855  14.722  0.1406 -0.3174  0.1415
  136OSM    O1114664   1.432   3.880  14.957 -0.2556 -0.4326  0.6845
  136OSM    O1214665   1.458   3.656  14.848  0.4113  0.6361 -0.5621
  136OSM    C1S14666   1.365   3.813  15.067  0.5895 -0.0835 -0.3891
  136OSM    H1S14667   1.430   3.741  15.122  2.4708  1.1615 -0.8887
  136OSM    H1T14668   1.280   3.753  15.027  0.9219  0.4461 -1.9567
  136OSM     NF14669   1.264   3.849  15.285 -0.1895 -0.1400  0.7629
  136OSM    HNF14670   1.167   3.830  15.286 -0.2669  0.1107  3.4263
  136OSM    C2S14671   1.304   3.915  15.160 -0.0525 -0.2804  0.0438
  136OSM    H2S14672   1.377   3.997  15.179  0.3556 -0.3358 -1.1696
  136OSM    C3S14673   1.186   3.996  15.094  0.0096 -0.5182 -0.9925
  136OSM    H3S14674   1.106   3.919  15.084 -0.3436 -0.2297 -0.4193
  136OSM     O314675   1.214   4.040  14.962  0.8258  0.1623 -0.1823
  136OSM    HO314676   1.295   3.995  14.939  0.3416 -0.5799 -0.4601
  136OSM    C4S14677   1.121   4.103  15.173 -0.2402 -0.3779 -0.1615
  136OSM    H4S14678   1.028   4.077  15.225  0.3872 -1.8915  0.2572
  136OSM    C5S14679   1.169   4.231  15.180 -0.4368  0.2579 -0.0509
  136OSM    H5S14680   1.263   4.256  15.130 -0.1985  1.1651  0.8132
  136OSM    C6S14681   1.108   4.347  15.262 -0.0723 -0.0597 -0.0206
  136OSM    H6S14682   1.060   4.415  15.188 -1.8357 -0.1747  0.9624
  136OSM    H6T14683   1.187   4.402  15.318  1.0678 -1.8458  0.2034
  136OSM    C7S14684   1.011   4.317  15.380  0.1071  0.7247  0.1036
  136OSM    H7S14685   1.076   4.262  15.452 -2.9387 -1.5754  1.3016
  136OSM    H7T14686   0.940   4.237  15.349  1.1347 -0.2660  0.1925
  136OSM    C8S14687   0.957   4.452  15.437  0.3889  0.1475  0.5000
  136OSM    H8S14688   0.885   4.502  15.370  0.3305 -0.6780 -0.0624
  136OSM    H8T14689   1.045   4.518  15.451 -0.6182  1.3809  1.2235
  136OSM    C9S14690   0.882   4.439  15.567 -0.0301 -0.5333  0.1397
  136OSM    H9S14691   0.841   4.539  15.592  0.0552 -0.7448  1.1860
  136OSM    H9T14692   0.959   4.418  15.644 -0.9033 -1.5280  0.7649
  136OSM   C10S14693   0.769   4.336  15.568  0.0478 -0.1722  0.5953
  136OSM   H10S14694   0.800   4.244  15.514  1.7069  0.9218 -0.4086
  136OSM   H10T14695   0.692   4.396  15.515  2.3409  1.2260 -1.3487
  136OSM   C11S14696   0.727   4.302  15.713 -0.4739 -0.3126  0.6709
  136OSM   H11S14697   0.650   4.222  15.702 -1.3655  0.8189 -2.1429
  136OSM   H11T14698   0.669   4.390  15.747 -0.5914  0.1094 -0.5739
  136OSM   C12S14699   0.834   4.251  15.819 -0.4902  0.1308  0.4986
  136OSM   H12S14700   0.900   4.331  15.857 -0.3120 -0.3355  1.1890
  136OSM   H12T14701   0.903   4.194  15.753  1.8347  1.0250  2.0584
  136OSM   C13S14702   0.766   4.165  15.921 -0.0153  0.0115  0.4448
  136OSM   H13S14703   0.768   4.067  15.868  1.5290  0.0927  0.3151
  136OSM   H13T14704   0.661   4.192  15.947  0.4770  2.4910  0.0692
  136OSM   C14S14705   0.842   4.154  16.054 -0.7920 -0.1824 -0.0632
  136OSM   H14S14706   0.787   4.084  16.120 -1.7181 -0.7960 -1.4439
  136OSM   H14T14707   0.846   4.258  16.093 -1.8909  0.5770 -1.8366
  136OSM   C15S14708   0.994   4.124  16.050  0.0163 -0.4894  0.4065
  136OSM   H15S14709   1.049   4.197  15.987 -1.2113 -1.4695 -1.9106
  136OSM   H15T14710   1.008   4.025  16.002 -0.5743 -1.2798  1.8017
  136OSM   C16S14711   1.058   4.126  16.190 -0.0817  0.1822 -0.0442
  136OSM   H16S14712   1.023   4.205  16.259  0.4903 -1.1245  1.8211
  136OSM   H16T14713   1.166   4.150  16.183  0.4519 -1.7565  0.7904
  136OSM   C17S14714   1.043   3.987  16.259  0.4194 -0.1167 -0.1216
  136OSM   H17S14715   1.079   3.900  16.199  0.7264 -0.1692  0.1390
  136OSM   H17T14716   0.935   3.967  16.277  0.6643 -0.6334  0.8642
  136OSM   C18S14717   1.105   3.974  16.401  0.3134  0.0080 -0.8213
  136OSM   H18S14718   1.209   4.010  16.417  0.4301 -0.9046  0.7052
  136OSM   H18T14719   1.099   3.870  16.439  1.8720 -0.1168 -0.8474
  136OSM   H18U14720   1.047   4.030  16.478  0.1266 -0.3564 -0.6956
  136OSM    C1F14721   1.352   3.804  15.374 -0.3540  0.3083 -0.6860
  136OSM     OF14722   1.473   3.823  15.361 -0.1713  0.0050 -0.6429
  136OSM    C2F14723   1.295   3.722  15.485  0.1445 -0.2392  0.1927
  136OSM    H2F14724   1.317   3.616  15.457  0.3678 -0.3162  0.6564
  136OSM    H2G14725   1.186   3.739  15.483  0.2906  0.6713 -1.0286
  136OSM    C3F14726   1.357   3.760  15.621 -0.0436 -0.6671  0.1915
  136OSM    H3F14727   1.378   3.869  15.621 -1.4538 -0.3591 -0.7546
  136OSM    H3G14728   1.445   3.695  15.639  0.9459  1.0323  1.9156
  136OSM    C4F14729   1.252   3.737  15.738 -0.3289 -0.3206  0.2033
  136OSM    H4F14730   1.244   3.628  15.761  3.2534 -0.2124  2.9423
  136OSM    H4G14731   1.152   3.773  15.708 -0.3656 -1.1709 -0.7703
  136OSM    C5F14732   1.285   3.823  15.865 -1.2741 -0.1875 -0.2489
  136OSM    H5F14733   1.203   3.805  15.938  0.1209 -1.3162  1.1077
  136OSM    H5G14734   1.279   3.931  15.840  0.3375  0.3816  1.5647
  136OSM    C6F14735   1.410   3.788  15.945  0.3522  0.0235 -0.1534
  136OSM    H6F14736   1.494   3.808  15.874  2.4051 -0.1516  2.1046
  136OSM    H6G14737   1.413   3.682  15.979  0.8820 -1.0692 -3.2150
  136OSM    C7F14738   1.423   3.875  16.069  0.0784  0.6303  0.5595
  136OSM    H7F14739   1.334   3.855  16.132  0.0252 -1.1825 -0.0093
  136OSM    H7G14740   1.432   3.980  16.036  0.3673  0.4075 -0.1021
  136OSM    C8F14741   1.568   3.857  16.136 -0.5228 -0.4554 -0.0277
  136OSM    H8F14742   1.616   3.954  16.113 -0.4423 -0.6840 -0.8764
  136OSM    H8G14743   1.617   3.770  16.087  0.0249  0.2125 -0.6836
  136OSM    C9F14744   1.562   3.837  16.283  0.7216  0.9914 -0.4773
  136OSM    H9F14745   1.552   3.926  16.347 -1.5319 -0.0297  0.6992
  136OSM   C10F14746   1.594   3.713  16.343  0.3458  0.1180  0.2157
  136OSM   H10F14747   1.596   3.703  16.453 -3.8844  0.0183  0.4210
  136OSM   C11F14748   1.638   3.586  16.269 -0.0386 -0.0367  0.2148
  136OSM   H11F14749   1.706   3.529  16.336 -1.4334 -1.3745  0.5706
  136OSM   H11G14750   1.684   3.599  16.169 -0.9952  1.1579 -0.0982
  136OSM   C12F14751   1.513   3.495  16.257 -0.5057  0.0675  0.4224
  136OSM   H12F14752   1.448   3.549  16.185 -0.6692  0.0564  0.5626
  136OSM   H12G14753   1.462   3.476  16.354 -0.1797  1.2228  0.8278
  136OSM   C13F14754   1.530   3.351  16.201  0.4129  0.0877 -0.3423
  136OSM   H13F14755   1.586   3.365  16.106  0.4733 -1.0712 -0.4932
  136OSM   H13G14756   1.430   3.308  16.181 -0.8335  1.9505  1.5287
  136OSM   C14F14757   1.606   3.246  16.278 -0.0669  0.9597 -0.7082
  136OSM   H14F14758   1.699   3.296  16.312  0.4057 -0.1152 -0.3539
  136OSM   H14G14759   1.637   3.167  16.206  1.7639  1.3502 -0.3841
  136OSM   C15F14760   1.532   3.175  16.389  0.9863 -0.8674 -0.0807
  136OSM   H15F14761   1.425   3.166  16.358 -0.2455  1.6367  2.9189
  136OSM   H15G14762   1.520   3.251  16.469  0.2056  0.1741 -1.1488
  136OSM   C16F14763   1.597   3.055  16.456 -0.7019 -0.2757 -0.0319
  136OSM   H16F14764   1.629   2.988  16.373  2.2530 -2.4670  2.6414
  136OSM   H16G14765   1.515   2.996  16.503  0.7902 -0.7829  2.0581
  136OSM   C17F14766   1.712   3.072  16.561 -0.0038  0.1501  0.9604
  136OSM   H17F14767   1.726   2.973  16.609 -3.6527 -1.5981 -1.1333
  136OSM   H17G14768   1.687   3.144  16.642 -2.4347 -0.4115  0.7778
  136OSM   C18F14769   1.845   3.127  16.500  0.9748 -0.1754 -0.5372
  136OSM   H18F14770   1.834   3.235  16.478  0.0517 -0.4814 -1.6883
  136OSM   H18G14771   1.875   3.082  16.403 -0.0596 -1.4366 -0.3171
  136OSM   H18H14772   1.933   3.103  16.564  0.7994  0.5474 -0.0075
  137OSM      N14773   3.307   1.533   7.079  0.3963  0.3693  0.0869
  137OSM    C1514774   3.451   1.559   7.107 -0.2754  0.0544  0.5364
  137OSM   H15A14775   3.503   1.620   7.035 -1.0386  1.5478  1.1930
  137OSM   H15B14776   3.506   1.472   7.140  1.2994  0.6157 -0.5233
  137OSM   H15C14777   3.462   1.619   7.196  2.6782 -0.5684  0.6977
  137OSM    C1414778   3.240   1.514   7.213  0.3275 -0.0814  0.3145
  137OSM   H14A14779   3.284   1.425   7.255  1.8245 -0.4572 -1.8770
  137OSM   H14B14780   3.133   1.500   7.205  0.3021 -0.3824  1.0777
  137OSM   H14C14781   3.263   1.593   7.282 -2.1585 -0.1269  1.3153
  137OSM    C1314782   3.251   1.662   7.018 -0.6735 -0.6921 -0.0801
  137OSM   H13A14783   3.143   1.661   7.017 -0.7224  1.2544 -0.1055
  137OSM   H13B14784   3.295   1.676   6.920  0.9528 -0.0226  0.7052
  137OSM   H13C14785   3.274   1.751   7.074  1.1040 -0.5224 -1.0116
  137OSM    C1214786   3.268   1.416   6.993  0.0624 -0.5118  0.4188
  137OSM   H12A14787   3.280   1.444   6.889  2.8984  1.1104  1.0844
  137OSM   H12B14788   3.167   1.412   7.033  0.2683  3.0855  1.6408
  137OSM    C1114789   3.333   1.277   7.009 -0.3568 -0.5294  0.4103
  137OSM   H11A14790   3.439   1.266   6.978  0.6896  2.6497  2.3594
  137OSM   H11B14791   3.284   1.209   6.936 -0.7431 -0.0302  0.2010
  137OSM      P14792   3.169   1.172   7.196 -0.2640  0.1148 -0.6472
  137OSM    O1314793   3.061   1.255   7.136 -0.0326  0.4095 -0.2429
  137OSM    O1414794   3.178   1.025   7.190  0.0811 -0.2127 -0.2439
  137OSM    O1114795   3.174   1.221   7.343  0.1952 -0.3049 -0.1661
  137OSM    O1214796   3.305   1.229   7.146 -0.4056  0.2404  0.4089
  137OSM    C1S14797   3.067   1.188   7.434  0.0388  0.4119 -0.1409
  137OSM    H1S14798   3.016   1.092   7.413  0.3102  0.5153 -1.3247
  137OSM    H1T14799   2.999   1.276   7.433  0.2720  0.6774  2.0659
  137OSM     NF14800   2.992   1.189   7.679  0.0075 -0.0695  0.3207
  137OSM    HNF14801   2.959   1.277   7.714  0.1389  2.2257 -4.4987
  137OSM    C2S14802   3.109   1.197   7.591  0.0389 -0.1435 -0.4800
  137OSM    H2S14803   3.169   1.106   7.611  0.1862 -0.3256 -1.6620
  137OSM    C3S14804   3.193   1.330   7.612  0.3274  0.0102 -0.1334
  137OSM    H3S14805   3.128   1.420   7.617  0.4579  0.1115 -0.2439
  137OSM     O314806   3.284   1.370   7.517 -0.3436  0.0236 -0.1507
  137OSM    HO314807   3.247   1.348   7.432 -1.6802  2.1146 -0.1901
  137OSM    C4S14808   3.258   1.324   7.748 -1.0180 -0.4621  1.0131
  137OSM    H4S14809   3.199   1.373   7.827 -2.9417 -1.6339  0.3676
  137OSM    C5S14810   3.377   1.267   7.785 -0.3960 -0.2116 -0.1216
  137OSM    H5S14811   3.452   1.222   7.719  0.2124 -0.2099  0.5491
  137OSM    C6S14812   3.435   1.280   7.922 -0.0078  0.0398  0.2992
  137OSM    H6S14813   3.519   1.352   7.915 -2.2009  2.5809 -2.0512
  137OSM    H6T14814   3.473   1.182   7.958 -1.8223 -0.9424 -0.2746
  137OSM    C7S14815   3.338   1.354   8.017  0.2800 -0.5327 -0.1119
  137OSM    H7S14816   3.236   1.309   8.016  1.0836 -2.4481 -0.0004
  137OSM    H7T14817   3.345   1.464   8.000  3.1186 -0.4329  1.1212
  137OSM    C8S14818   3.383   1.352   8.173  1.3005 -0.5919  0.1082
  137OSM    H8S14819   3.485   1.390   8.191  1.5383 -1.8415  1.6233
  137OSM    H8T14820   3.385   1.245   8.205 -2.5912 -0.6167  0.8625
  137OSM    C9S14821   3.271   1.418   8.250 -0.1404  0.0300  0.4091
  137OSM    H9S14822   3.174   1.400   8.200  0.8119 -1.2903 -1.0596
  137OSM    H9T14823   3.286   1.528   8.237  0.3878 -0.2045 -1.1972
  137OSM   C10S14824   3.273   1.383   8.401  0.0481  0.4342 -0.1753
  137OSM   H10S14825   3.309   1.279   8.408  1.4013  0.8182 -1.1766
  137OSM   H10T14826   3.171   1.373   8.446  0.5165 -0.1142  0.7886
  137OSM   C11S14827   3.364   1.473   8.484 -0.0997 -0.3287 -0.3820
  137OSM   H11S14828   3.336   1.579   8.465 -2.9820 -1.1326 -1.2125
  137OSM   H11T14829   3.471   1.459   8.456 -0.1018 -1.2079  0.0361
  137OSM   C12S14830   3.361   1.454   8.636  0.0259 -0.5805  0.4421
  137OSM   H12S14831   3.257   1.437   8.670  0.3103 -1.6458  0.8121
  137OSM   H12T14832   3.384   1.550   8.687 -0.3705 -0.4266  0.3355
  137OSM   C13S14833   3.465   1.354   8.696  0.3254  0.0367  0.6935
  137OSM   H13S14834   3.554   1.345   8.630 -0.0952 -1.6330  0.2857
  137OSM   H13T14835   3.426   1.250   8.683  0.6971 -0.1374  0.9368
  137OSM   C14S14836   3.497   1.357   8.843 -0.2880 -0.5246 -0.4398
  137OSM   H14S14837   3.536   1.459   8.864  1.8168 -1.2455 -0.6372
  137OSM   H14T14838   3.582   1.293   8.875 -2.3568 -1.9403  2.7012
  137OSM   C15S14839   3.376   1.314   8.931  0.1280  0.2025 -0.7616
  137OSM   H15S14840   3.341   1.219   8.884 -1.5179  0.3517  0.0988
  137OSM   H15T14841   3.288   1.381   8.922 -0.2437  0.4550  3.1783
  137OSM   C16S14842   3.403   1.286   9.079 -0.2174  0.0581  0.2647
  137OSM   H16S14843   3.417   1.381   9.135 -1.3932  0.7527 -0.5646
  137OSM   H16T14844   3.491   1.220   9.094  1.1321  1.7903  0.2670
  137OSM   C17S14845   3.281   1.213   9.134  0.7778  0.0705 -0.7038
  137OSM   H17S14846   3.259   1.132   9.061 -0.8948 -0.0419 -0.1081
  137OSM   H17T14847   3.191   1.277   9.130  0.7275  0.0161 -0.4688
  137OSM   C18S14848   3.296   1.167   9.275 -0.3533  0.5605 -0.0050
  137OSM   H18S14849   3.285   1.247   9.351  0.5442 -0.0143  0.7458
  137OSM   H18T14850   3.399   1.127   9.291 -1.1314 -1.2390  0.6932
  137OSM   H18U14851   3.225   1.084   9.293  0.1633  0.0117 -0.4395
  137OSM    C1F14852   2.917   1.080   7.698 -0.3634 -0.6142 -0.7438
  137OSM     OF14853   2.953   0.967   7.644  0.3094  0.1512  0.1907
  137OSM    C2F14854   2.790   1.108   7.763 -0.6503 -0.1378  0.0341
  137OSM    H2F14855   2.722   1.082   7.678  0.0989  0.0905 -0.6471
  137OSM    H2G14856   2.777   1.211   7.804  0.3717  0.1345 -0.3144
  137OSM    C3F14857   2.764   1.008   7.885  0.1297 -0.2268 -0.7333
  137OSM    H3F14858   2.828   1.030   7.973 -2.2871 -0.4349  1.1959
  137OSM    H3G14859   2.776   0.903   7.850 -0.3893 -1.6109  2.8447
  137OSM    C4F14860   2.614   1.008   7.925 -0.3891 -0.0278 -0.3323
  137OSM    H4F14861   2.581   0.915   7.975 -0.5332 -0.0281 -0.4282
  137OSM    H4G14862   2.553   1.012   7.832 -0.0246  0.4760 -0.5596
  137OSM    C5F14863   2.580   1.125   8.027 -0.2604  0.2973 -0.2683
  137OSM    H5F14864   2.634   1.221   8.009 -0.1042  0.5961  1.6631
  137OSM    H5G14865   2.605   1.076   8.124  0.8269  0.0570 -0.6491
  137OSM    C6F14866   2.430   1.152   8.032 -0.3894 -0.0680  0.5132
  137OSM    H6F14867   2.388   1.172   7.931 -0.4386  0.7123  0.6811
  137OSM    H6G14868   2.428   1.245   8.093  2.5074  0.1174  0.4638
  137OSM    C7F14869   2.345   1.047   8.104 -0.2841 -0.6673 -0.3429
  137OSM    H7F14870   2.352   0.952   8.047  0.4838 -0.7618 -0.1110
  137OSM    H7G14871   2.239   1.081   8.104 -0.9239 -2.3280  2.4538
  137OSM    C8F14872   2.390   1.010   8.248  0.1035 -0.0497 -0.4250
  137OSM    H8F14873   2.476   0.942   8.232 -0.1354 -0.3137 -0.5900
  137OSM    H8G14874   2.305   0.953   8.291  2.6968 -2.5590  1.8028
  137OSM    C9F14875   2.417   1.133   8.338  0.6670 -0.3223  0.0936
  137OSM    H9F14876   2.366   1.226   8.307 -1.1444 -0.5978  2.0859
  137OSM   C10F14877   2.481   1.144   8.460  0.3907  0.0377  0.7525
  137OSM   H10F14878   2.490   1.241   8.511  3.7602  0.6380 -0.7312
  137OSM   C11F14879   2.566   1.038   8.535 -0.0620  0.2123 -0.0980
  137OSM   H11F14880   2.672   1.065   8.553  0.7801 -2.6731 -0.1828
  137OSM   H11G14881   2.563   0.937   8.488 -1.0617  0.7384 -1.2310
  137OSM   C12F14882   2.510   1.012   8.680 -1.1639  0.4324  0.1600
  137OSM   H12F14883   2.410   0.967   8.662  0.4479 -2.6852 -1.9349
  137OSM   H12G14884   2.490   1.106   8.736  0.9199  0.5525  0.7900
  137OSM   C13F14885   2.591   0.914   8.765 -0.0111  0.2541  0.1668
  137OSM   H13F14886   2.687   0.962   8.796  0.2344 -0.8414  1.2077
  137OSM   H13G14887   2.616   0.824   8.704 -0.6542 -0.8370  1.4653
  137OSM   C14F14888   2.507   0.859   8.890  0.3747  0.3494 -0.1244
  137OSM   H14F14889   2.421   0.799   8.854  1.4065 -1.4738  0.3481
  137OSM   H14G14890   2.475   0.950   8.945  1.9949 -0.5280  2.4451
  137OSM   C15F14891   2.593   0.787   8.994  0.1580  0.4163 -0.5255
  137OSM   H15F14892   2.687   0.844   9.005 -0.0963  0.5841  0.8722
  137OSM   H15G14893   2.617   0.687   8.952 -1.4702 -0.9161  1.5663
  137OSM   C16F14894   2.513   0.779   9.125 -0.4983 -0.3427 -0.3313
  137OSM   H16F14895   2.413   0.741   9.096 -1.0821  1.0223 -0.1901
  137OSM   H16G14896   2.512   0.880   9.173  0.3480  0.1669 -1.3483
  137OSM   C17F14897   2.591   0.678   9.224 -0.0272 -0.4533 -0.1228
  137OSM   H17F14898   2.689   0.728   9.242  1.5350 -2.7015 -1.9084
  137OSM   H17G14899   2.615   0.586   9.167 -0.2980  0.3908 -1.6853
  137OSM   C18F14900   2.526   0.638   9.353  0.0757  0.5544 -0.1904
  137OSM   H18F14901   2.472   0.726   9.395  0.0844  0.1143  0.7677
  137OSM   H18G14902   2.603   0.602   9.425  0.1628  0.2047 -0.4571
  137OSM   H18H14903   2.446   0.561   9.345 -0.9422  1.5129  0.3760
  138OSM      N14904   2.944   2.973  14.453  0.6005 -0.0628  0.3155
  138OSM    C1514905   2.830   3.072  14.438 -0.0788 -0.4341  0.2810
  138OSM   H15A14906   2.869   3.167  14.405  2.4202 -0.7430  2.0835
  138OSM   H15B14907   2.774   3.093  14.528 -0.3939 -0.5648  0.1200
  138OSM   H15C14908   2.750   3.035  14.375  0.0117 -0.9525  0.4697
  138OSM    C1414909   2.881   2.836  14.482  1.1546  0.1654  0.3407
  138OSM   H14A14910   2.953   2.759  14.509 -0.2663 -0.4598  2.6419
  138OSM   H14B14911   2.820   2.795  14.403 -1.1770  0.0218  2.1189
  138OSM   H14C14912   2.811   2.846  14.564  1.8324  4.9744  0.6401
  138OSM    C1314913   3.024   2.968  14.325  0.8219 -0.1216  0.1983
  138OSM   H13A14914   3.059   3.069  14.306  0.8097 -0.0270  0.6576
  138OSM   H13B14915   2.960   2.955  14.239 -2.1803 -1.9393  2.4815
  138OSM   H13C14916   3.103   2.896  14.327  0.9957 -0.1081 -2.7822
  138OSM    C1214917   3.029   3.012  14.571  0.0091 -0.7309  0.2231
  138OSM   H12A14918   3.074   2.929  14.625 -0.6048  0.4183  2.6710
  138OSM   H12B14919   2.956   3.055  14.638 -0.5039  1.7599 -1.7796
  138OSM    C1114920   3.134   3.128  14.556  0.5606 -0.5673 -0.6116
  138OSM   H11A14921   3.205   3.108  14.473  0.2857 -1.1633 -0.7098
  138OSM   H11B14922   3.201   3.138  14.643 -1.6317  4.5426  0.8269
  138OSM      P14923   3.001   3.319  14.657  0.1356  0.1467  0.1046
  138OSM    O1314924   2.991   3.468  14.640  0.2555  0.5464 -0.0825
  138OSM    O1414925   2.874   3.250  14.687  0.5928  0.1596  0.3601
  138OSM    O1114926   3.098   3.285  14.776  0.0505 -0.2376 -0.2989
  138OSM    O1214927   3.068   3.255  14.535 -0.6660  0.2135 -0.4901
  138OSM    C1S14928   3.061   3.199  14.885  0.3236  0.1130  0.4148
  138OSM    H1S14929   3.077   3.092  14.859 -1.6097  0.0312 -0.6021
  138OSM    H1T14930   2.953   3.202  14.909 -0.0970 -1.9001 -0.9758
  138OSM     NF14931   3.125   3.126  15.119  0.1295 -0.3264 -0.1069
  138OSM    HNF14932   3.071   3.155  15.198  1.7700 -0.0691  0.9681
  138OSM    C2S14933   3.143   3.226  15.017 -0.1207 -0.0840 -0.6409
  138OSM    H2S14934   3.250   3.216  14.990  0.0800  0.7355 -0.1981
  138OSM    C3S14935   3.122   3.371  15.079  0.3324 -0.7987  0.1332
  138OSM    H3S14936   3.018   3.372  15.118  1.2097  0.7277  2.6501
  138OSM     O314937   3.124   3.478  14.981  0.4761 -0.3232 -0.0524
  138OSM    HO314938   3.110   3.417  14.908  1.1254 -0.1986 -0.2891
  138OSM    C4S14939   3.206   3.408  15.201 -0.0589  0.1662 -0.0076
  138OSM    H4S14940   3.168   3.361  15.293 -1.2711  0.0075 -0.5717
  138OSM    C5S14941   3.315   3.482  15.214 -0.0658  0.1123  0.8367
  138OSM    H5S14942   3.349   3.530  15.120 -0.6363 -3.8249 -1.6226
  138OSM    C6S14943   3.389   3.509  15.340 -0.0188 -0.1621  0.0180
  138OSM    H6S14944   3.487   3.457  15.332  1.6695  2.3594  2.5373
  138OSM    H6T14945   3.340   3.448  15.419 -1.3116 -5.0608 -4.0238
  138OSM    C7S14946   3.416   3.657  15.375 -0.2386  0.4390  0.2912
  138OSM    H7S14947   3.471   3.658  15.472  0.2553 -0.3812  0.0244
  138OSM    H7T14948   3.324   3.712  15.405 -0.7281 -0.2662  0.0712
  138OSM    C8S14949   3.502   3.734  15.273 -0.3376 -0.0429  0.6221
  138OSM    H8S14950   3.459   3.741  15.171 -0.3439  1.1484  0.6890
  138OSM    H8T14951   3.603   3.687  15.277 -0.0074  0.7248  2.2461
  138OSM    C9S14952   3.500   3.884  15.297 -0.5160 -0.8760 -0.2001
  138OSM    H9S14953   3.406   3.940  15.280  0.4740  0.9072 -0.1040
  138OSM    H9T14954   3.573   3.926  15.223 -0.5065 -0.3689  0.0954
  138OSM   C10S14955   3.554   3.925  15.436  0.1629 -0.1164  0.1164
  138OSM   H10S14956   3.592   4.029  15.427  1.5682 -0.6336 -0.1956
  138OSM   H10T14957   3.640   3.862  15.468  1.1715  1.5350  0.8040
  138OSM   C11S14958   3.439   3.927  15.558 -0.8123  0.4301  0.6246
  138OSM   H11S14959   3.416   3.823  15.590  0.7123  0.3757  1.7089
  138OSM   H11T14960   3.351   3.969  15.507 -1.0791  0.1837  0.8769
  138OSM   C12S14961   3.497   4.014  15.667  0.6513 -0.3743  0.0259
  138OSM   H12S14962   3.506   4.121  15.638  0.4796 -0.4562 -0.3298
  138OSM   H12T14963   3.597   3.986  15.707  0.6111  0.6138  0.8621
  138OSM   C13S14964   3.397   4.007  15.787 -0.1372 -0.4649 -0.1133
  138OSM   H13S14965   3.398   3.905  15.830 -3.2881 -0.9881 -1.0502
  138OSM   H13T14966   3.300   4.007  15.732 -0.7888 -0.5315  1.0075
  138OSM   C14S14967   3.404   4.109  15.898  0.3527  0.1559 -0.7699
  138OSM   H14S14968   3.379   4.211  15.861  2.1381  0.4869 -1.1625
  138OSM   H14T14969   3.505   4.110  15.944  0.5354 -0.3847 -1.1454
  138OSM   C15S14970   3.303   4.069  16.007  0.1497 -0.0160 -0.4227
  138OSM   H15S14971   3.328   3.979  16.066  1.6602  1.4717  1.3140
  138OSM   H15T14972   3.203   4.055  15.959 -1.6290  1.8349  2.4121
  138OSM   C16S14973   3.276   4.194  16.097  0.1697  0.5997 -0.2998
  138OSM   H16S14974   3.253   4.288  16.043 -1.1831 -0.1603 -1.0887
  138OSM   H16T14975   3.368   4.200  16.159  0.4580 -4.1237  0.0726
  138OSM   C17S14976   3.172   4.180  16.209 -0.2209 -0.0022  0.6419
  138OSM   H17S14977   3.186   4.255  16.290  1.6317 -0.4831  0.8170
  138OSM   H17T14978   3.193   4.092  16.274  0.1025 -1.1571 -0.9464
  138OSM   C18S14979   3.030   4.161  16.158 -0.0492  0.3526 -0.4878
  138OSM   H18S14980   2.964   4.144  16.246  1.7065 -0.3659  0.7398
  138OSM   H18T14981   3.024   4.077  16.086  3.1050 -0.7240  0.3530
  138OSM   H18U14982   3.004   4.261  16.117 -3.0109 -0.4291 -0.7111
  138OSM    C1F14983   3.140   2.993  15.115 -0.4798 -0.0702  0.2564
  138OSM     OF14984   3.200   2.940  15.017  0.5563  0.0438 -0.5480
  138OSM    C2F14985   3.093   2.905  15.228 -0.0545  0.5508 -0.0947
  138OSM    H2F14986   2.987   2.912  15.261 -0.1928 -0.6621 -0.2452
  138OSM    H2G14987   3.135   2.936  15.326  0.1694 -0.0124 -0.0103
  138OSM    C3F14988   3.106   2.754  15.212 -0.5304 -0.1833  0.2004
  138OSM    H3F14989   3.201   2.727  15.160 -0.0872  0.8380  0.4453
  138OSM    H3G14990   3.024   2.726  15.142  0.9754 -1.1569 -1.2538
  138OSM    C4F14991   3.085   2.689  15.348  0.3727 -0.2753 -0.2251
  138OSM    H4F14992   3.070   2.583  15.319  2.2936 -0.3433 -1.1419
  138OSM    H4G14993   2.997   2.724  15.406  2.3549  2.7643  1.1931
  138OSM    C5F14994   3.209   2.689  15.446 -0.2403 -0.1999 -0.5051
  138OSM    H5F14995   3.209   2.791  15.491  0.1051 -0.3527 -0.1510
  138OSM    H5G14996   3.299   2.672  15.383 -0.3023 -4.0853  0.2327
  138OSM    C6F14997   3.193   2.575  15.549 -0.0536  0.0342  0.4822
  138OSM    H6F14998   3.243   2.488  15.502  0.1719  0.7075 -0.5633
  138OSM    H6G14999   3.086   2.555  15.569 -0.1348  0.8198  0.9039
  138OSM    C7F15000   3.272   2.599  15.684  0.2430  0.8733  0.1934
  138OSM    H7F15001   3.218   2.558  15.772 -0.4786  0.7656 -0.2863
  138OSM    H7G15002   3.283   2.710  15.684  2.4858  0.7014 -0.6947
  138OSM    C8F15003   3.414   2.539  15.675  0.2021 -0.3424  0.4376
  138OSM    H8F15004   3.450   2.609  15.596 -1.2149  0.0570  0.1183
  138OSM    H8G15005   3.412   2.440  15.626 -1.6002  0.3451 -0.9802
  138OSM    C9F15006   3.493   2.535  15.803  0.4666 -0.4059  0.3889
  138OSM    H9F15007   3.506   2.435  15.846 -1.4825  0.0425  2.1550
  138OSM   C10F15008   3.528   2.640  15.867 -0.1277 -0.3575 -1.1796
  138OSM   H10F15009   3.580   2.623  15.963  1.6552  1.8493 -1.6659
  138OSM   C11F15010   3.503   2.789  15.841  0.2240 -0.4143  0.9631
  138OSM   H11F15011   3.409   2.816  15.894 -0.3583  1.0906 -0.7595
  138OSM   H11G15012   3.489   2.820  15.735 -0.8602  0.0840  1.2374
  138OSM   C12F15013   3.622   2.861  15.902  0.0757 -0.0949 -0.3381
  138OSM   H12F15014   3.714   2.850  15.841 -0.1212  1.0816 -0.8637
  138OSM   H12G15015   3.625   2.840  16.011 -0.6738 -0.1573 -0.3253
  138OSM   C13F15016   3.582   3.011  15.906  0.1700 -0.2658  0.2719
  138OSM   H13F15017   3.486   3.025  15.960  0.8717 -2.8213  2.4163
  138OSM   H13G15018   3.560   3.037  15.800  0.6758  2.8997  0.8386
  138OSM   C14F15019   3.691   3.107  15.952  0.3920  0.7288  0.9870
  138OSM   H14F15020   3.658   3.213  15.959  0.0298  0.7794 -0.9517
  138OSM   H14G15021   3.769   3.104  15.872  1.0738  0.2708  1.6495
  138OSM   C15F15022   3.750   3.060  16.088 -0.9627  0.0803  0.1828
  138OSM   H15F15023   3.826   3.140  16.104 -0.3985  0.1214 -2.2227
  138OSM   H15G15024   3.805   2.963  16.084  1.6628  1.4979 -0.9777
  138OSM   C16F15025   3.644   3.046  16.194 -0.0087  0.0854 -0.1919
  138OSM   H16F15026   3.579   2.960  16.170  2.7575 -1.9957 -0.6188
  138OSM   H16G15027   3.568   3.128  16.194 -2.5755 -2.1156  1.1570
  138OSM   C17F15028   3.695   3.047  16.336 -0.4892  0.0307 -0.1057
  138OSM   H17F15029   3.629   3.112  16.396 -1.4458  0.9308 -2.0605
  138OSM   H17G15030   3.797   3.091  16.337  0.1978 -1.2139 -2.9103
  138OSM   C18F15031   3.714   2.912  16.402 -1.0261 -0.1965  0.7655
  138OSM   H18F15032   3.769   2.922  16.498  2.1492  0.6971 -1.0066
  138OSM   H18G15033   3.765   2.841  16.333 -1.0946  0.2958  0.1994
  138OSM   H18H15034   3.608   2.880  16.411 -0.9711 -0.7866 -0.4355
  139OSM      N15035   3.012   2.751   7.026 -0.1063 -0.5957 -0.2941
  139OSM    C1515036   3.122   2.648   7.037 -0.7640 -0.2508 -0.3616
  139OSM   H15A15037   3.194   2.687   7.108 -0.7991  1.8705 -1.3916
  139OSM   H15B15038   3.166   2.621   6.942  0.3797  2.4084 -0.6814
  139OSM   H15C15039   3.095   2.564   7.099 -1.8827  0.7225  0.5147
  139OSM    C1415040   3.064   2.874   6.959  0.3347  0.3556  0.3371
  139OSM   H14A15041   3.124   2.843   6.875 -0.2347  0.4886 -0.1272
  139OSM   H14B15042   3.133   2.921   7.027  1.1512 -2.4116  1.5638
  139OSM   H14C15043   2.980   2.929   6.920 -0.5844 -2.7402 -2.5748
  139OSM    C1315044   2.916   2.691   6.924  0.9111 -0.0030 -0.4468
  139OSM   H13A15045   2.848   2.763   6.881 -0.7090 -1.9919 -1.3329
  139OSM   H13B15046   2.854   2.608   6.953  0.1130  1.0127  0.8559
  139OSM   H13C15047   2.987   2.664   6.847 -0.4732 -1.1214 -1.3615
  139OSM    C1215048   2.943   2.778   7.157 -1.2853  0.0670 -0.4622
  139OSM   H12A15049   2.930   2.686   7.213  0.7510  0.4571  0.7488
  139OSM   H12B15050   2.844   2.817   7.139 -0.7871  0.8958 -1.5026
  139OSM    C1115051   3.017   2.875   7.262 -0.3198  0.4449 -0.3112
  139OSM   H11A15052   2.955   2.863   7.354 -0.8691  0.0610 -0.7262
  139OSM   H11B15053   3.026   2.983   7.239  2.1606  0.4023  0.1881
  139OSM      P15054   3.286   2.901   7.262  0.0347 -0.5771  0.0368
  139OSM    O1315055   3.401   2.804   7.249 -0.1621  0.3362  0.3804
  139OSM    O1415056   3.272   3.005   7.162  0.1607  0.2004 -0.6744
  139OSM    O1115057   3.299   2.984   7.395  0.0935  0.0563 -0.0663
  139OSM    O1215058   3.152   2.823   7.284 -0.1301 -0.1380 -0.0264
  139OSM    C1S15059   3.353   2.925   7.514  0.1483  0.1734  0.0124
  139OSM    H1S15060   3.462   2.947   7.515  0.3821 -0.8129 -1.2167
  139OSM    H1T15061   3.340   2.815   7.511 -1.4160  0.2491 -5.0043
  139OSM     NF15062   3.334   2.941   7.759 -0.0906  0.2919 -0.2484
  139OSM    HNF15063   3.274   2.892   7.822 -0.2988 -1.0108 -1.4351
  139OSM    C2S15064   3.281   2.994   7.639 -0.4194 -0.5311 -0.3936
  139OSM    H2S15065   3.319   3.099   7.633  0.1204 -0.6810  0.2209
  139OSM    C3S15066   3.131   2.990   7.632  0.2159  0.4459 -0.0065
  139OSM    H3S15067   3.097   2.886   7.612  0.6515  0.1974  0.5341
  139OSM     O315068   3.083   3.063   7.516 -0.2205  0.1160 -0.5419
  139OSM    HO315069   3.155   3.049   7.455 -1.2496 -0.1859 -1.7496
  139OSM    C4S15070   3.078   3.052   7.758  0.3382  0.3292  0.0699
  139OSM    H4S15071   3.070   2.977   7.838 -0.3076 -1.2861 -1.4284
  139OSM    C5S15072   3.046   3.183   7.787 -0.1297  0.3371 -0.4660
  139OSM    H5S15073   3.051   3.257   7.705  3.5163 -0.7752 -1.4389
  139OSM    C6S15074   3.000   3.228   7.928  0.5784  0.4904 -0.2945
  139OSM    H6S15075   2.895   3.263   7.923 -0.8059 -2.3939  3.2340
  139OSM    H6T15076   3.053   3.316   7.970 -1.1298  1.5291 -0.2265
  139OSM    C7S15077   3.001   3.123   8.039 -0.8417  0.1161 -0.0581
  139OSM    H7S15078   3.093   3.062   8.050 -1.2411 -0.4521  0.2391
  139OSM    H7T15079   2.926   3.052   7.998 -0.0352 -0.5484 -0.3930
  139OSM    C8S15080   2.956   3.179   8.171 -0.9641  0.0835 -0.4591
  139OSM    H8S15081   2.859   3.232   8.169 -0.7673  0.8169  2.8101
  139OSM    H8T15082   3.022   3.258   8.214 -2.9625  0.8189  1.4210
  139OSM    C9S15083   2.942   3.067   8.274 -0.6239 -0.4379 -0.4098
  139OSM    H9S15084   3.037   3.010   8.274  0.0611  0.6678 -0.4801
  139OSM    H9T15085   2.863   2.995   8.245 -1.9015  0.4261  0.7903
  139OSM   C10S15086   2.918   3.110   8.419 -0.1303  0.2765 -0.0173
  139OSM   H10S15087   2.819   3.161   8.424 -0.4704 -0.4233  0.6718
  139OSM   H10T15088   2.986   3.195   8.440  0.4669 -0.0377 -0.6744
  139OSM   C11S15089   2.918   2.993   8.524  0.1946  0.1225  0.4921
  139OSM   H11S15090   3.025   2.963   8.529  0.6086  1.6273  1.4524
  139OSM   H11T15091   2.857   2.915   8.473  2.0417  0.5785 -2.6668
  139OSM   C12S15092   2.882   3.042   8.661  0.3485 -0.1641  0.2867
  139OSM   H12S15093   2.771   3.055   8.668 -0.0825 -3.0779  0.1500
  139OSM   H12T15094   2.942   3.133   8.682  1.6540 -1.4997  2.7594
  139OSM   C13S15095   2.924   2.950   8.772 -0.1717  0.4567  0.0937
  139OSM   H13S15096   2.893   3.003   8.864 -3.0329  0.3313 -0.7119
  139OSM   H13T15097   3.035   2.937   8.768 -0.1489  0.9820 -1.3201
  139OSM   C14S15098   2.847   2.815   8.772  0.4975 -0.2539  0.0812
  139OSM   H14S15099   2.858   2.754   8.679  0.9350 -0.2774  0.1465
  139OSM   H14T15100   2.739   2.842   8.778  0.8671  1.0407  1.1274
  139OSM   C15S15101   2.879   2.719   8.893 -0.9786 -0.3330 -0.8753
  139OSM   H15S15102   2.886   2.784   8.983 -1.3059  0.7941 -1.6361
  139OSM   H15T15103   2.979   2.674   8.875 -1.9212 -1.7850 -2.8796
  139OSM   C16S15104   2.773   2.611   8.904 -0.4692  0.2789 -0.6256
  139OSM   H16S15105   2.768   2.554   8.809  3.5555 -1.1704 -0.1382
  139OSM   H16T15106   2.671   2.644   8.935 -0.6835 -1.9081  1.3068
  139OSM   C17S15107   2.807   2.500   9.009 -0.1486  0.2384  0.5012
  139OSM   H17S15108   2.805   2.541   9.113 -1.5451  1.8908 -0.1198
  139OSM   H17T15109   2.912   2.466   8.994 -0.2611 -0.3093  0.9495
  139OSM   C18S15110   2.715   2.374   9.006 -0.2467  0.3896  0.0482
  139OSM   H18S15111   2.725   2.318   8.911  0.3953 -0.8035  0.7951
  139OSM   H18T15112   2.613   2.418   9.009  0.0619  1.2210  4.1022
  139OSM   H18U15113   2.738   2.304   9.090  1.2706 -1.0475 -1.4815
  139OSM    C1F15114   3.465   2.962   7.795 -0.0234  0.7292 -0.2705
  139OSM     OF15115   3.542   3.028   7.731  0.3927 -0.9131  0.1687
  139OSM    C2F15116   3.500   2.891   7.924 -0.1922  0.4422  0.6259
  139OSM    H2F15117   3.609   2.889   7.949 -0.0557 -0.2273 -0.0130
  139OSM    H2G15118   3.483   2.783   7.903  0.7084  0.2990  0.5907
  139OSM    C3F15119   3.425   2.930   8.053 -0.2329 -0.2190 -0.4699
  139OSM    H3F15120   3.316   2.906   8.057 -0.4097  0.5920 -0.1516
  139OSM    H3G15121   3.430   3.041   8.055 -2.9436  0.0353 -2.3102
  139OSM    C4F15122   3.482   2.866   8.182  0.2844 -0.0626 -0.8148
  139OSM    H4F15123   3.585   2.903   8.201  0.2382 -0.7775  1.0513
  139OSM    H4G15124   3.496   2.757   8.169  4.5813 -0.0991  2.0042
  139OSM    C5F15125   3.393   2.892   8.311  0.0922  0.3138  0.5135
  139OSM    H5F15126   3.295   2.841   8.315  0.5069 -0.5901 -0.3117
  139OSM    H5G15127   3.382   3.003   8.312  0.6272  0.4265 -1.2664
  139OSM    C6F15128   3.472   2.864   8.440 -0.3084  0.4640 -0.0268
  139OSM    H6F15129   3.570   2.917   8.432  0.5683 -0.6804  2.4364
  139OSM    H6G15130   3.494   2.756   8.453 -0.1477  0.5204  0.1732
  139OSM    C7F15131   3.391   2.913   8.565 -0.3161  0.2895  0.4125
  139OSM    H7F15132   3.359   3.016   8.536  3.6180  1.5636 -0.0161
  139OSM    H7G15133   3.457   2.921   8.653 -0.0414 -3.1669  0.6255
  139OSM    C8F15134   3.267   2.825   8.608  0.8097  0.3271  0.3418
  139OSM    H8F15135   3.198   2.806   8.523  0.9375  1.1538  0.0416
  139OSM    H8G15136   3.217   2.895   8.678  0.8001  0.1540  0.5073
  139OSM    C9F15137   3.307   2.692   8.669 -0.6430  0.4444  0.1041
  139OSM    H9F15138   3.304   2.604   8.604  0.9321 -0.5378  1.2674
  139OSM   C10F15139   3.357   2.671   8.790 -0.1820  0.4456  0.1260
  139OSM   H10F15140   3.383   2.568   8.817 -0.8488 -0.7080 -3.0741
  139OSM   C11F15141   3.385   2.772   8.896 -0.0645 -0.3811  0.2985
  139OSM   H11F15142   3.410   2.871   8.852  1.5567  0.0677  2.0927
  139OSM   H11G15143   3.486   2.742   8.931  0.5272 -0.2744 -1.2360
  139OSM   C12F15144   3.272   2.787   8.994  0.2958 -0.2278 -0.1153
  139OSM   H12F15145   3.180   2.811   8.937 -0.2375 -1.4527  0.1856
  139OSM   H12G15146   3.302   2.853   9.078  0.7055 -0.1440 -0.3270
  139OSM   C13F15147   3.246   2.646   9.060 -0.0145 -0.6210  0.3556
  139OSM   H13F15148   3.347   2.624   9.100  0.1502 -1.6691 -0.5795
  139OSM   H13G15149   3.210   2.574   8.983 -1.3250  2.0873 -1.7526
  139OSM   C14F15150   3.162   2.649   9.183  0.5656 -0.4370 -0.2363
  139OSM   H14F15151   3.097   2.559   9.179 -0.3910  0.2640 -1.5298
  139OSM   H14G15152   3.095   2.738   9.176 -1.4755 -1.5380  2.8561
  139OSM   C15F15153   3.241   2.663   9.314 -0.2221 -0.2735  0.3509
  139OSM   H15F15154   3.301   2.571   9.329 -0.6264 -1.1912 -2.9259
  139OSM   H15G15155   3.164   2.670   9.394 -1.4142  0.9210 -0.8489
  139OSM   C16F15156   3.339   2.785   9.329  0.3886  0.3677 -0.9946
  139OSM   H16F15157   3.293   2.881   9.295 -3.5072 -1.8563 -2.6408
  139OSM   H16G15158   3.428   2.768   9.264  1.3032  1.0230  0.0454
  139OSM   C17F15159   3.394   2.804   9.471  0.5078  0.5555 -0.1883
  139OSM   H17F15160   3.312   2.830   9.541  0.3895 -0.0503 -0.0947
  139OSM   H17G15161   3.458   2.895   9.474  1.5656 -0.1972  0.6029
  139OSM   C18F15162   3.480   2.692   9.518 -0.2333 -0.1472 -0.0900
  139OSM   H18F15163   3.430   2.592   9.516 -0.5185 -0.0056 -0.0157
  139OSM   H18G15164   3.523   2.714   9.618  0.0377  0.3587 -0.3167
  139OSM   H18H15165   3.565   2.676   9.449  0.5488  0.0332  0.8211
  140OSM      N15166   2.507   0.175  15.039 -0.6285  0.0432 -0.0831
  140OSM    C1515167   2.519   0.142  14.896 -0.1825 -1.1893 -0.5260
  140OSM   H15A15168   2.506   0.232  14.839  1.4424 -0.8050 -0.3448
  140OSM   H15B15169   2.444   0.071  14.864 -1.8403  0.4575 -0.4445
  140OSM   H15C15170   2.616   0.103  14.868  1.1564  2.6112 -1.8444
  140OSM    C1415171   2.621   0.264  15.062  0.1125  0.2013 -0.2755
  140OSM   H14A15172   2.631   0.279  15.168  0.0896  1.3364 -0.4221
  140OSM   H14B15173   2.601   0.359  15.013 -0.8574  0.0884 -0.1197
  140OSM   H14C15174   2.714   0.215  15.035  0.1024 -1.6730  2.6157
  140OSM    C1315175   2.382   0.251  15.058 -0.7027  0.3699 -0.4481
  140OSM   H13A15176   2.293   0.197  15.030 -0.2311 -0.4773 -0.3265
  140OSM   H13B15177   2.390   0.353  15.024 -0.5182 -0.1334 -1.9504
  140OSM   H13C15178   2.364   0.277  15.162  1.0824 -1.1735  0.2867
  140OSM    C1215179   2.514   0.051  15.131 -0.1756 -0.8248  0.0638
  140OSM   H12A15180   2.607  -0.001  15.111  1.3372  1.7630 -0.0751
  140OSM   H12B15181   2.426  -0.009  15.112 -0.5078 -0.1458 -0.5857
  140OSM    C1115182   2.528   0.081  15.280  0.3958  0.0450 -0.0724
  140OSM   H11A15183   2.627   0.122  15.309  0.5446  1.2303 -2.0313
  140OSM   H11B15184   2.522  -0.014  15.336  0.1829  0.4958  0.6824
  140OSM      P15185   2.275   0.090  15.363  0.1539  0.5710  0.1826
  140OSM    O1315186   2.164   0.191  15.360 -0.1167  0.5292  0.5034
  140OSM    O1415187   2.255  -0.033  15.276  0.2063 -0.2653 -0.5609
  140OSM    O1115188   2.296   0.041  15.503  0.1201  0.1374 -0.2685
  140OSM    O1215189   2.418   0.165  15.325 -0.4119 -0.0210 -0.8593
  140OSM    C1S15190   2.385   0.099  15.601 -0.5483 -0.6753  0.0213
  140OSM    H1S15191   2.333   0.193  15.631  0.8386  0.2728 -0.4775
  140OSM    H1T15192   2.483   0.112  15.551 -2.4537  1.3955 -3.6112
  140OSM     NF15193   2.524   0.091  15.797 -0.2654  0.1409 -0.6333
  140OSM    HNF15194   2.620   0.090  15.769 -0.2955  0.3162 -0.7489
  140OSM    C2S15195   2.422   0.012  15.728  0.0710 -0.4444 -0.0218
  140OSM    H2S15196   2.335  -0.005  15.796 -0.2170  0.7088 -0.0886
  140OSM    C3S15197   2.459  -0.132  15.683  0.4105 -0.9188  0.3982
  140OSM    H3S15198   2.533  -0.123  15.601  1.0511 -1.4540  0.9007
  140OSM     O315199   2.345  -0.209  15.643 -0.0319  0.3917 -0.2488
  140OSM    HO315200   2.284  -0.136  15.631 -0.0846  0.5187  0.7196
  140OSM    C4S15201   2.520  -0.204  15.802  0.0386  0.4614  0.3168
  140OSM    H4S15202   2.464  -0.192  15.896  1.9274  1.3131  1.3984
  140OSM    C5S15203   2.622  -0.284  15.782 -0.2744 -0.0478 -0.6812
  140OSM    H5S15204   2.654  -0.294  15.678  1.6149  0.0733 -0.1372
  140OSM    C6S15205   2.694  -0.353  15.894  0.2972 -0.7460  0.8166
  140OSM    H6S15206   2.799  -0.363  15.858  0.2298 -0.7650  0.6247
  140OSM    H6T15207   2.657  -0.455  15.919 -0.5574 -0.7378 -0.3286
  140OSM    C7S15208   2.716  -0.295  16.032  0.3820  0.1671 -0.6650
  140OSM    H7S15209   2.622  -0.279  16.089 -0.8328 -1.0602 -2.2364
  140OSM    H7T15210   2.782  -0.206  16.031  0.3366  0.2594  1.1178
  140OSM    C8S15211   2.791  -0.386  16.127 -0.4034 -0.5656  0.4413
  140OSM    H8S15212   2.842  -0.326  16.206 -1.0831  0.1476  0.3534
  140OSM    H8T15213   2.877  -0.428  16.070 -0.7351 -1.5436  0.6394
  140OSM    C9S15214   2.712  -0.506  16.185 -0.1701 -0.8054  0.5161
  140OSM    H9S15215   2.707  -0.581  16.103 -1.4216 -1.1608  0.9034
  140OSM    H9T15216   2.606  -0.478  16.203  0.1339 -0.5767  2.0582
  140OSM   C10S15217   2.793  -0.580  16.294  0.3059  0.1290 -1.0084
  140OSM   H10S15218   2.888  -0.619  16.251 -0.4512 -0.0352 -2.5799
  140OSM   H10T15219   2.749  -0.675  16.330 -0.5422  1.4257  1.6248
  140OSM   C11S15220   2.818  -0.496  16.425 -0.5469  0.4338  0.3834
  140OSM   H11S15221   2.883  -0.410  16.397 -0.1244  0.6212  1.8547
  140OSM   H11T15222   2.888  -0.556  16.487  0.6110  1.8779  0.5349
  140OSM   C12S15223   2.692  -0.445  16.494  0.0030  0.3174 -0.3183
  140OSM   H12S15224   2.621  -0.527  16.516 -1.4161  1.1455 -1.6011
  140OSM   H12T15225   2.637  -0.378  16.425 -0.9570 -0.3458 -0.2236
  140OSM   C13S15226   2.724  -0.373  16.630  0.0491  0.7673  0.2472
  140OSM   H13S15227   2.772  -0.280  16.591 -2.5363  1.1664 -2.3482
  140OSM   H13T15228   2.798  -0.436  16.683 -0.0866  1.2521  1.0249
  140OSM   C14S15229   2.594  -0.342  16.709 -0.2137  0.6389  0.4953
  140OSM   H14S15230   2.619  -0.319  16.815 -3.7225 -1.2532  1.8993
  140OSM   H14T15231   2.535  -0.436  16.702 -1.1892  1.1185  1.8065
  140OSM   C15S15232   2.488  -0.237  16.662 -0.1407  0.4982 -0.0130
  140OSM   H15S15233   2.468  -0.254  16.554 -1.4640 -0.9382  0.4229
  140OSM   H15T15234   2.537  -0.137  16.667 -0.7437  0.8399 -0.8225
  140OSM   C16S15235   2.352  -0.245  16.735  0.2738  0.1963 -0.3272
  140OSM   H16S15236   2.374  -0.215  16.840  0.7197  3.8033 -1.3121
  140OSM   H16T15237   2.322  -0.351  16.722 -1.3805  0.8909 -2.9740
  140OSM   C17S15238   2.239  -0.158  16.674 -1.0351 -0.0168  0.4467
  140OSM   H17S15239   2.245  -0.164  16.564  2.0687  2.5766  0.3329
  140OSM   H17T15240   2.269  -0.054  16.701 -1.3894  0.0937  0.4236
  140OSM   C18S15241   2.106  -0.181  16.745 -0.6983  0.1296  0.3805
  140OSM   H18S15242   2.129  -0.191  16.853  0.3215 -0.2931  0.1329
  140OSM   H18T15243   2.043  -0.267  16.713 -0.0127 -0.5807  0.9123
  140OSM   H18U15244   2.040  -0.094  16.723  0.2510  1.2334  1.7427
  140OSM    C1F15245   2.490   0.191  15.879 -0.2387 -0.2197 -0.1366
  140OSM     OF15246   2.375   0.205  15.921 -0.2375 -0.3544 -0.3108
  140OSM    C2F15247   2.596   0.300  15.916 -0.2588  0.2071 -0.0818
  140OSM    H2F15248   2.592   0.380  15.839  0.3814  0.6803  0.3700
  140OSM    H2G15249   2.696   0.254  15.932  0.6371  0.6824 -3.4728
  140OSM    C3F15250   2.556   0.385  16.045 -0.3534 -0.1830  0.3865
  140OSM    H3F15251   2.534   0.310  16.124 -0.2287 -1.4779 -0.7608
  140OSM    H3G15252   2.465   0.445  16.024  0.4354  0.1516 -2.5146
  140OSM    C4F15253   2.672   0.482  16.062 -0.6793  0.0482 -0.3649
  140OSM    H4F15254   2.680   0.561  15.985  0.0199  0.8948  0.5526
  140OSM    H4G15255   2.770   0.432  16.081 -0.6409  0.6274  1.0754
  140OSM    C5F15256   2.666   0.551  16.204  0.0087  0.3647  0.1430
  140OSM    H5F15257   2.758   0.614  16.203  0.9084 -0.9223 -1.0297
  140OSM    H5G15258   2.673   0.467  16.277 -1.4168 -0.6568 -0.8549
  140OSM    C6F15259   2.540   0.632  16.242  0.0025  0.2770  0.0257
  140OSM    H6F15260   2.453   0.564  16.251  0.5615 -0.2342  2.4550
  140OSM    H6G15261   2.514   0.702  16.161  0.4873 -0.7069 -1.0101
  140OSM    C7F15262   2.557   0.696  16.384 -0.0274  0.0065 -0.1858
  140OSM    H7F15263   2.616   0.790  16.379  1.3180 -0.4997  3.3040
  140OSM    H7G15264   2.618   0.633  16.452  0.1170 -0.6506 -0.9170
  140OSM    C8F15265   2.423   0.722  16.452 -0.3987 -0.5063 -0.4021
  140OSM    H8F15266   2.378   0.621  16.454  1.1777 -1.2163  1.5506
  140OSM    H8G15267   2.364   0.794  16.390  0.5325  1.4318  0.8570
  140OSM    C9F15268   2.444   0.767  16.591 -0.4762 -0.4992  0.0250
  140OSM    H9F15269   2.497   0.863  16.603 -2.7812  0.7253  1.0630
  140OSM   C10F15270   2.397   0.708  16.708  0.2844  0.5232  0.6793
  140OSM   H10F15271   2.419   0.760  16.802  0.5370 -1.0058  1.4837
  140OSM   C11F15272   2.303   0.592  16.719 -0.5354  0.0796  0.6295
  140OSM   H11F15273   2.245   0.589  16.625  0.9928 -0.6175 -0.3356
  140OSM   H11G15274   2.234   0.599  16.806  1.4447 -1.5909  2.4540
  140OSM   C12F15275   2.375   0.455  16.733  0.2704 -0.3964  1.0704
  140OSM   H12F15276   2.398   0.457  16.842 -2.0935 -3.7790  1.7977
  140OSM   H12G15277   2.462   0.459  16.664 -0.5635  2.0608  0.0662
  140OSM   C13F15278   2.291   0.337  16.688  0.5231 -0.3287 -0.5114
  140OSM   H13F15279   2.185   0.370  16.701  0.8767  0.6390 -0.0104
  140OSM   H13G15280   2.308   0.246  16.750  0.7621  1.7207  2.6625
  140OSM   C14F15281   2.314   0.295  16.539 -0.3703 -0.2066 -0.1510
  140OSM   H14F15282   2.340   0.381  16.475  0.0531 -1.3400 -1.5404
  140OSM   H14G15283   2.226   0.243  16.496  0.1573  0.1099 -1.6807
  140OSM   C15F15284   2.432   0.203  16.530 -1.3238 -0.4337 -0.1976
  140OSM   H15F15285   2.413   0.108  16.585 -0.5944 -1.7303 -2.0662
  140OSM   H15G15286   2.520   0.244  16.584 -2.8049  0.1197  1.8892
  140OSM   C16F15287   2.467   0.181  16.383 -0.4594  0.4770 -0.0298
  140OSM   H16F15288   2.546   0.245  16.339 -0.4098  0.0700 -0.5449
  140OSM   H16G15289   2.383   0.219  16.321 -0.8847  2.0661  1.4305
  140OSM   C17F15290   2.488   0.034  16.345  0.4787  0.3464  0.1888
  140OSM   H17F15291   2.399  -0.031  16.363  1.2720 -0.8115  0.0079
  140OSM   H17G15292   2.578  -0.005  16.397  3.0516  2.4045 -2.4405
  140OSM   C18F15293   2.519   0.017  16.198 -0.2993 -0.2025  0.0614
  140OSM   H18F15294   2.535  -0.085  16.158  2.6065  0.2449 -0.1900
  140OSM   H18G15295   2.613   0.073  16.177  0.3345 -0.4186  2.1315
  140OSM   H18H15296   2.441   0.062  16.133 -1.0211  0.8436  1.5935
  141OSM      N15297   1.705   2.794  10.849  0.2236  0.2463 -0.0656
  141OSM    C1515298   1.827   2.727  10.899  0.1999 -0.1166 -0.0912
  141OSM   H15A15299   1.862   2.646  10.838  3.1403  1.6203 -0.8971
  141OSM   H15B15300   1.812   2.699  11.002 -0.5975 -2.2223 -0.7360
  141OSM   H15C15301   1.914   2.791  10.905  0.8131 -0.8804 -0.7038
  141OSM    C1415302   1.741   2.839  10.708 -0.3971  0.0635  0.2433
  141OSM   H14A15303   1.774   2.756  10.647  2.3465  0.7201  0.6988
  141OSM   H14B15304   1.821   2.912  10.716 -0.2273 -0.1975  1.0980
  141OSM   H14C15305   1.663   2.888  10.651  0.2881 -0.3217 -1.0775
  141OSM    C1315306   1.601   2.683  10.844  0.2622 -0.0512 -0.2386
  141OSM   H13A15307   1.637   2.604  10.780  0.6187 -0.7358  0.7782
  141OSM   H13B15308   1.504   2.714  10.809  0.0519  0.0849  0.4460
  141OSM   H13C15309   1.596   2.637  10.941  0.2008  0.4016 -0.0277
  141OSM    C1215310   1.655   2.913  10.931  0.2946 -0.0267  0.1346
  141OSM   H12A15311   1.580   2.970  10.878  1.6122  1.4740 -0.1733
  141OSM   H12B15312   1.743   2.975  10.942 -0.1215  0.0730  4.3939
  141OSM    C1115313   1.607   2.872  11.071 -0.6361 -0.3952  0.4265
  141OSM   H11A15314   1.522   2.801  11.063 -0.7033 -0.4606  1.6403
  141OSM   H11B15315   1.562   2.961  11.119 -2.7436 -1.4799  0.5837
  141OSM      P15316   1.807   2.923  11.233  0.1097  0.0171 -0.3919
  141OSM    O1315317   1.799   3.052  11.157  0.8669  0.8340  0.0008
  141OSM    O1415318   1.772   2.920  11.379 -0.1243 -0.6190 -0.0693
  141OSM    O1115319   1.941   2.840  11.203  0.0410 -0.1808 -0.0970
  141OSM    O1215320   1.710   2.825  11.155  0.3369 -0.0497  0.5997
  141OSM    C1S15321   1.995   2.733  11.284 -0.2469  0.2581 -0.5465
  141OSM    H1S15322   1.941   2.706  11.377 -0.9405 -0.2436 -1.0887
  141OSM    H1T15323   2.089   2.776  11.324 -1.3478  0.3571  2.1440
  141OSM     NF15324   2.042   2.481  11.276 -0.6405 -0.1851  0.2569
  141OSM    HNF15325   2.136   2.451  11.293 -0.8803 -1.0954  0.0740
  141OSM    C2S15326   2.027   2.603  11.200  0.5656  0.7242 -0.0892
  141OSM    H2S15327   1.935   2.598  11.138 -0.7083 -0.1415  1.7596
  141OSM    C3S15328   2.143   2.632  11.103 -0.2429  0.7083  0.5402
  141OSM    H3S15329   2.234   2.655  11.163  1.6117 -0.7281 -1.5745
  141OSM     O315330   2.134   2.749  11.023 -0.0064  0.2870 -0.3408
  141OSM    HO315331   2.063   2.798  11.066 -1.9615 -2.6980  0.1027
  141OSM    C4S15332   2.178   2.515  11.017 -0.1393  0.4465  0.6305
  141OSM    H4S15333   2.092   2.458  10.977 -0.2250  1.8266 -1.2808
  141OSM    C5S15334   2.299   2.481  10.976 -0.9636 -0.3277  0.4493
  141OSM    H5S15335   2.388   2.533  11.013 -0.2615 -1.9237  1.0983
  141OSM    C6S15336   2.330   2.362  10.898 -0.0755  0.2548  0.3696
  141OSM    H6S15337   2.241   2.304  10.865  0.2881  0.6551 -1.4090
  141OSM    H6T15338   2.408   2.298  10.945  0.9574  1.4109  0.2806
  141OSM    C7S15339   2.386   2.398  10.755  0.6216 -0.4282  0.1595
  141OSM    H7S15340   2.485   2.444  10.774 -0.1798  0.8113  1.5717
  141OSM    H7T15341   2.330   2.480  10.704 -1.7258 -1.0149  1.6655
  141OSM    C8S15342   2.407   2.284  10.657 -0.3220  0.4837 -0.0497
  141OSM    H8S15343   2.311   2.229  10.654  0.6111 -1.1916 -0.3488
  141OSM    H8T15344   2.479   2.211  10.699  0.1341 -0.0106 -1.6107
  141OSM    C9S15345   2.443   2.332  10.515 -0.2503 -0.3837  0.6357
  141OSM    H9S15346   2.537   2.391  10.528 -0.2657 -0.5726  1.6718
  141OSM    H9T15347   2.369   2.406  10.478  0.5310 -0.0583 -0.3409
  141OSM   C10S15348   2.458   2.221  10.410  0.0812  0.5914 -0.6776
  141OSM   H10S15349   2.531   2.146  10.447 -1.5658 -1.6684 -1.7667
  141OSM   H10T15350   2.499   2.272  10.321 -0.1569  1.7994 -0.1209
  141OSM   C11S15351   2.329   2.143  10.378  0.3939  0.3191  0.5143
  141OSM   H11S15352   2.241   2.209  10.360  0.3746  0.5027  1.2684
  141OSM   H11T15353   2.318   2.070  10.461 -0.1424  1.2702  1.2888
  141OSM   C12S15354   2.342   2.055  10.252 -0.1152  0.0968 -0.0381
  141OSM   H12S15355   2.411   1.968  10.259 -1.3666 -1.0444 -1.1622
  141OSM   H12T15356   2.387   2.117  10.171 -0.4180 -0.0709 -0.3387
  141OSM   C13S15357   2.209   1.989  10.206 -0.1760 -0.0523 -0.5277
  141OSM   H13S15358   2.150   2.083  10.196 -2.7175 -1.4502  0.4100
  141OSM   H13T15359   2.183   1.921  10.290  0.3140 -0.2891 -0.5606
  141OSM   C14S15360   2.215   1.916  10.072 -0.5481 -0.0081 -0.3093
  141OSM   H14S15361   2.155   1.824  10.053 -0.3279  0.3970 -3.4625
  141OSM   H14T15362   2.322   1.888  10.058  0.0319  1.5798  0.7471
  141OSM   C15S15363   2.177   2.018   9.955 -0.3681  0.3448 -0.4015
  141OSM   H15S15364   2.233   2.113   9.959 -1.4645  1.0567 -1.3602
  141OSM   H15T15365   2.071   2.046   9.969  0.1025  1.5645  0.9635
  141OSM   C16S15366   2.193   1.960   9.808  0.0825 -0.2258 -0.0003
  141OSM   H16S15367   2.146   2.028   9.735  1.1519 -0.2994 -0.7870
  141OSM   H16T15368   2.140   1.863   9.798  0.8122 -0.4754 -1.9197
  141OSM   C17S15369   2.334   1.930   9.759 -0.2142  0.3258  0.2711
  141OSM   H17S15370   2.334   1.884   9.658 -2.2283 -1.3344  0.9439
  141OSM   H17T15371   2.382   1.846   9.813 -0.9314  0.9931  2.0213
  141OSM   C18S15372   2.440   2.047   9.741  0.1161 -0.7043 -0.4205
  141OSM   H18S15373   2.477   2.082   9.839  0.3157 -0.9435 -0.4081
  141OSM   H18T15374   2.382   2.127   9.689 -1.6571 -0.7507  1.3812
  141OSM   H18U15375   2.523   2.012   9.675 -0.2761 -0.2768 -1.1619
  141OSM    C1F15376   1.930   2.438  11.344 -0.2835 -0.0266 -0.8995
  141OSM     OF15377   1.816   2.478  11.312  0.2047  0.3973  0.0658
  141OSM    C2F15378   1.960   2.350  11.457 -0.1796  0.0521 -0.9685
  141OSM    H2F15379   2.030   2.397  11.529  3.4406 -3.1353 -2.0490
  141OSM    H2G15380   2.008   2.261  11.410 -1.6284 -1.9373  1.0829
  141OSM    C3F15381   1.836   2.319  11.545 -0.1758 -0.5639 -0.5933
  141OSM    H3F15382   1.771   2.260  11.476  0.7467 -1.8236 -0.4189
  141OSM    H3G15383   1.780   2.410  11.577 -1.9273 -2.5325  2.3404
  141OSM    C4F15384   1.890   2.246  11.664 -1.3090  0.1728 -0.3195
  141OSM    H4F15385   1.970   2.302  11.717 -0.1652 -1.2206 -0.4953
  141OSM    H4G15386   1.939   2.156  11.619 -0.6818 -0.5542  1.7017
  141OSM    C5F15387   1.791   2.197  11.770 -0.1001 -0.1290  0.2096
  141OSM    H5F15388   1.689   2.196  11.726  0.6831  0.1073 -1.7143
  141OSM    H5G15389   1.793   2.276  11.847 -2.7723  2.8362 -2.4662
  141OSM    C6F15390   1.826   2.057  11.836  0.8439  0.0108  1.1721
  141OSM    H6F15391   1.920   2.068  11.894  1.9209 -0.2213 -0.4644
  141OSM    H6G15392   1.834   1.986  11.751 -1.8295  0.7428  0.1918
  141OSM    C7F15393   1.705   2.016  11.926 -0.3467 -0.2623  0.2188
  141OSM    H7F15394   1.715   1.906  11.940  0.2130 -0.1017  1.1849
  141OSM    H7G15395   1.611   2.035  11.869  1.4028 -0.0236 -2.8409
  141OSM    C8F15396   1.681   2.091  12.055  0.3901 -0.4046  0.3178
  141OSM    H8F15397   1.582   2.071  12.103  1.3931 -2.9043  1.5642
  141OSM    H8G15398   1.666   2.196  12.023 -2.1067 -0.6915  0.3486
  141OSM    C9F15399   1.802   2.088  12.149 -0.4403 -0.0455 -0.4387
  141OSM    H9F15400   1.888   2.145  12.110  0.5650 -1.1608  0.0816
  141OSM   C10F15401   1.810   2.014  12.266  0.2849 -0.3449  0.3795
  141OSM   H10F15402   1.905   2.017  12.322 -0.1623  0.5579  1.1075
  141OSM   C11F15403   1.703   1.930  12.325  0.8851  0.1396 -0.7341
  141OSM   H11F15404   1.609   1.944  12.267  1.4246  2.6651 -1.1246
  141OSM   H11G15405   1.669   1.971  12.423 -0.6141 -1.7788 -0.3760
  141OSM   C12F15406   1.737   1.786  12.367 -0.3394  0.3307  0.5527
  141OSM   H12F15407   1.836   1.783  12.417 -0.0267 -1.3466 -0.1110
  141OSM   H12G15408   1.746   1.731  12.271  0.2583  2.8715 -0.9287
  141OSM   C13F15409   1.640   1.715  12.460 -0.1660  1.2962 -0.1967
  141OSM   H13F15410   1.548   1.700  12.398 -0.8685  2.1279  0.6153
  141OSM   H13G15411   1.621   1.776  12.551  1.9411  0.2560  1.0124
  141OSM   C14F15412   1.698   1.566  12.499  0.4467  0.0675 -0.1734
  141OSM   H14F15413   1.793   1.588  12.554  0.3210 -1.1051  0.5376
  141OSM   H14G15414   1.713   1.500  12.411 -0.1075  0.8557 -0.8752
  141OSM   C15F15415   1.598   1.492  12.596 -0.3182 -0.6076 -0.0201
  141OSM   H15F15416   1.498   1.485  12.550 -0.7475  2.0404  0.3711
  141OSM   H15G15417   1.586   1.553  12.688  0.1575  0.6093 -0.7432
  141OSM   C16F15418   1.661   1.355  12.630  0.5531 -0.2450 -0.0754
  141OSM   H16F15419   1.627   1.343  12.735 -0.8347  2.8703 -0.0649
  141OSM   H16G15420   1.771   1.369  12.622  0.9339 -2.1744  1.0026
  141OSM   C17F15421   1.600   1.241  12.549 -0.6852 -0.6831 -0.0699
  141OSM   H17F15422   1.625   1.266  12.444 -0.5157 -0.3093  0.0593
  141OSM   H17G15423   1.491   1.248  12.566 -0.9169 -2.0534 -0.8363
  141OSM   C18F15424   1.653   1.099  12.578  0.6802  0.5511 -0.0973
  141OSM   H18F15425   1.763   1.089  12.569  0.7661  1.5780 -0.3554
  141OSM   H18G15426   1.608   1.031  12.503  0.9904  1.1114 -0.8058
  141OSM   H18H15427   1.606   1.054  12.668 -0.7946  2.1912  0.0051
  142OSM      N15428   1.820   3.144  12.973  0.8863  0.7529 -0.5701
  142OSM    C1515429   1.878   3.230  13.085  0.7267  0.1944 -0.4747
  142OSM   H15A15430   1.976   3.190  13.106  0.4426 -1.1544 -1.5889
  142OSM   H15B15431   1.814   3.238  13.172 -0.0958  3.4121 -1.2598
  142OSM   H15C15432   1.889   3.331  13.052  0.5358  0.8761  1.3911
  142OSM    C1415433   1.785   3.002  13.017 -0.4006  0.1722  0.8932
  142OSM   H14A15434   1.759   2.948  12.927 -1.8850  0.8059  0.9286
  142OSM   H14B15435   1.714   3.000  13.098 -0.1892 -0.8307  1.0695
  142OSM   H14C15436   1.881   2.960  13.045 -0.1847 -1.6366 -2.1013
  142OSM    C1315437   1.690   3.215  12.937  0.4971  1.0947 -0.2471
  142OSM   H13A15438   1.615   3.201  13.014 -1.9680 -2.2566 -2.9596
  142OSM   H13B15439   1.653   3.170  12.846  1.0179  1.2877 -0.5581
  142OSM   H13C15440   1.706   3.321  12.921  1.4106  0.9705 -0.1769
  142OSM    C1215441   1.913   3.156  12.853 -0.0236  0.0731  0.5775
  142OSM   H12A15442   1.934   3.258  12.824  0.2327  0.0015  0.5075
  142OSM   H12B15443   1.860   3.121  12.766  1.8696 -0.2363 -0.5155
  142OSM    C1115444   2.048   3.077  12.849  0.0834 -0.3040 -0.4464
  142OSM   H11A15445   2.019   2.970  12.842 -1.0183 -0.0730  0.3666
  142OSM   H11B15446   2.100   3.084  12.947 -2.1447 -2.8650  1.0661
  142OSM      P15447   2.186   3.262  12.721 -0.0564  0.4377  0.0109
  142OSM    O1315448   2.283   3.260  12.603  0.1814  0.2602  0.1508
  142OSM    O1415449   2.079   3.363  12.718 -0.7208 -0.5394  0.3859
  142OSM    O1115450   2.278   3.278  12.853  0.7251  0.4786  0.0229
  142OSM    O1215451   2.123   3.114  12.734  0.5405 -0.3979 -0.0236
  142OSM    C1S15452   2.413   3.228  12.863  0.1328 -0.0902 -0.4516
  142OSM    H1S15453   2.432   3.147  12.790  1.6248 -1.5463  1.4691
  142OSM    H1T15454   2.430   3.184  12.963  0.8470 -1.0438 -0.9822
  142OSM     NF15455   2.652   3.261  12.876 -0.4894 -1.0105  0.5736
  142OSM    HNF15456   2.699   3.285  12.960 -0.2808  2.5416 -0.4142
  142OSM    C2S15457   2.527   3.327  12.837 -0.0084  0.1672 -0.6790
  142OSM    H2S15458   2.529   3.343  12.727  1.7873 -0.4679 -0.7672
  142OSM    C3S15459   2.502   3.470  12.900  0.5692 -0.2878  1.3523
  142OSM    H3S15460   2.488   3.455  13.009 -2.1553 -0.1346  1.1057
  142OSM     O315461   2.382   3.539  12.863  0.7069  0.2403 -0.0689
  142OSM    HO315462   2.342   3.468  12.812  0.1781 -1.5975  2.7336
  142OSM    C4S15463   2.621   3.565  12.891 -0.0687 -0.2483 -0.5500
  142OSM    H4S15464   2.687   3.546  12.977 -1.2409  2.7592  1.1778
  142OSM    C5S15465   2.648   3.657  12.794  0.2915  0.0479  0.7380
  142OSM    H5S15466   2.579   3.667  12.709  1.3517 -1.2276 -0.3216
  142OSM    C6S15467   2.772   3.747  12.789 -0.4332  0.1274  0.3402
  142OSM    H6S15468   2.742   3.845  12.745 -2.0557  0.8545  2.8777
  142OSM    H6T15469   2.843   3.701  12.718 -1.7411 -3.1827  1.0064
  142OSM    C7S15470   2.842   3.772  12.919  0.0170 -0.0636 -0.8025
  142OSM    H7S15471   2.891   3.679  12.953 -0.6456 -0.1298  0.0023
  142OSM    H7T15472   2.769   3.801  12.998  2.3675  1.3712  0.9666
  142OSM    C8S15473   2.959   3.878  12.923 -0.0340 -0.2634  0.6735
  142OSM    H8S15474   2.924   3.959  12.856 -1.6722 -1.1750  0.3951
  142OSM    H8T15475   3.046   3.842  12.863 -0.9380  0.6331 -1.2483
  142OSM    C9S15476   2.996   3.922  13.061  0.5785 -0.3962 -0.3624
  142OSM    H9S15477   3.052   3.842  13.113 -1.8212  0.0447  3.2942
  142OSM    H9T15478   2.903   3.947  13.118  1.8733 -0.0622  1.7283
  142OSM   C10S15479   3.079   4.054  13.067 -0.7118 -0.1869  0.2548
  142OSM   H10S15480   3.015   4.130  13.018  1.5106  0.1405 -2.4036
  142OSM   H10T15481   3.165   4.032  13.000 -1.7206 -0.0268 -1.1466
  142OSM   C11S15482   3.134   4.089  13.213  0.5206  0.1501  0.8710
  142OSM   H11S15483   3.209   4.011  13.239  0.4465 -0.8398 -1.5745
  142OSM   H11T15484   3.043   4.084  13.276  0.5023  0.7051  0.8914
  142OSM   C12S15485   3.181   4.232  13.221 -0.2737 -0.6826  0.5257
  142OSM   H12S15486   3.098   4.297  13.186  0.4497 -0.5438 -0.9867
  142OSM   H12T15487   3.262   4.231  13.145 -2.2639 -1.2468 -1.6833
  142OSM   C13S15488   3.232   4.270  13.359 -0.6973 -0.0391 -0.8089
  142OSM   H13S15489   3.314   4.203  13.394 -1.2516  0.3989  1.4613
  142OSM   H13T15490   3.149   4.252  13.431 -2.2584 -0.8589 -2.7104
  142OSM   C14S15491   3.277   4.414  13.382 -0.7849  0.6432 -0.5727
  142OSM   H14S15492   3.189   4.477  13.407 -0.0470  2.6866 -2.7164
  142OSM   H14T15493   3.326   4.469  13.299 -2.2015  2.3030 -0.3715
  142OSM   C15S15494   3.369   4.408  13.508 -0.3075 -0.8477 -0.5149
  142OSM   H15S15495   3.458   4.358  13.464  0.2489 -0.0279 -0.3462
  142OSM   H15T15496   3.323   4.352  13.592  1.9823 -1.3301  0.5075
  142OSM   C16S15497   3.408   4.550  13.546  0.2458  0.0905  0.0358
  142OSM   H16S15498   3.359   4.610  13.467  0.9240 -1.8282 -1.9542
  142OSM   H16T15499   3.516   4.569  13.523  0.3660 -0.4622  0.1385
  142OSM   C17S15500   3.364   4.580  13.686  0.0100 -0.8169  0.1540
  142OSM   H17S15501   3.270   4.529  13.716 -2.1731  2.6678 -0.2140
  142OSM   H17T15502   3.325   4.682  13.707 -3.4614 -2.3478  2.0744
  142OSM   C18S15503   3.485   4.558  13.776  0.8044  0.0331  0.7799
  142OSM   H18S15504   3.482   4.611  13.873  0.2084  0.1496  0.7028
  142OSM   H18T15505   3.585   4.575  13.731  0.9223 -1.7686  0.2810
  142OSM   H18U15506   3.492   4.449  13.797  3.2719  0.3713  2.0823
  142OSM    C1F15507   2.709   3.165  12.809 -0.6485 -0.2116  0.6046
  142OSM     OF15508   2.662   3.114  12.708 -0.1669 -0.6148 -0.4608
  142OSM    C2F15509   2.842   3.115  12.856 -0.1608 -0.4912  0.4167
  142OSM    H2F15510   2.834   3.031  12.929 -1.7184  2.0732  3.3902
  142OSM    H2G15511   2.896   3.200  12.903  0.4007 -1.4408  1.5364
  142OSM    C3F15512   2.921   3.064  12.727  0.9210  0.0408 -0.7876
  142OSM    H3F15513   3.025   3.048  12.762  0.8937  2.5547  0.6689
  142OSM    H3G15514   2.937   3.148  12.655  0.2928  0.3331 -0.5901
  142OSM    C4F15515   2.870   2.936  12.653 -0.4361  0.2298 -0.1616
  142OSM    H4F15516   2.785   2.952  12.584 -0.3274 -1.4246 -0.7432
  142OSM    H4G15517   2.834   2.870  12.735  0.3985  1.5565  1.3332
  142OSM    C5F15518   2.988   2.854  12.591  0.7945  1.3992  0.1531
  142OSM    H5F15519   3.070   2.845  12.665  2.5081  2.5981 -1.5087
  142OSM    H5G15520   3.020   2.901  12.496 -0.0401 -1.7584 -1.8522
  142OSM    C6F15521   2.938   2.709  12.549 -0.6597 -0.0653  0.1289
  142OSM    H6F15522   2.848   2.735  12.490 -0.4254  2.6142  0.8249
  142OSM    H6G15523   2.897   2.644  12.629 -0.7725 -0.8136 -0.5237
  142OSM    C7F15524   3.023   2.639  12.444  0.1371  0.5911  0.2382
  142OSM    H7F15525   3.056   2.713  12.369 -0.0218  0.0621 -0.3586
  142OSM    H7G15526   2.951   2.570  12.395 -0.8612 -0.9535  3.5748
  142OSM    C8F15527   3.144   2.569  12.505 -0.7408 -0.0882  0.6002
  142OSM    H8F15528   3.207   2.649  12.550 -1.1765  0.5552  0.0803
  142OSM    H8G15529   3.203   2.533  12.418 -1.6552  0.3960 -0.2367
  142OSM    C9F15530   3.109   2.462  12.605  0.1846 -0.1069  0.4913
  142OSM    H9F15531   3.062   2.501  12.697 -1.6525 -0.4007 -0.2695
  142OSM   C10F15532   3.111   2.330  12.584 -0.5107 -0.1418  0.5145
  142OSM   H10F15533   3.065   2.268  12.663 -0.6214 -3.8370 -2.1859
  142OSM   C11F15534   3.158   2.271  12.456 -0.9530  0.4502  0.3727
  142OSM   H11F15535   3.172   2.339  12.370 -0.0710 -1.4623 -1.0505
  142OSM   H11G15536   3.087   2.192  12.423 -1.2472  1.5919 -1.9402
  142OSM   C12F15537   3.294   2.193  12.468  0.7206  0.0117 -0.1819
  142OSM   H12F15538   3.377   2.265  12.486  1.4209 -0.5888 -0.9337
  142OSM   H12G15539   3.314   2.156  12.366 -1.7763  1.1721 -1.1734
  142OSM   C13F15540   3.292   2.074  12.564  0.1564  0.2148 -0.1118
  142OSM   H13F15541   3.223   1.995  12.529 -2.6606  1.8445  1.3933
  142OSM   H13G15542   3.254   2.118  12.659 -1.0749 -0.4749 -0.2625
  142OSM   C14F15543   3.431   2.016  12.591  0.2886  0.0688 -0.5865
  142OSM   H14F15544   3.416   1.954  12.682 -3.0190  1.2414 -0.1793
  142OSM   H14G15545   3.504   2.090  12.631  0.2286 -0.3687  0.3784
  142OSM   C15F15546   3.499   1.943  12.474  0.5509 -0.0611  0.3893
  142OSM   H15F15547   3.538   2.014  12.399 -0.3401 -0.2213 -0.2329
  142OSM   H15G15548   3.420   1.896  12.411 -1.4958 -0.6731  3.2066
  142OSM   C16F15549   3.613   1.838  12.503 -0.3650  0.7465  0.0407
  142OSM   H16F15550   3.588   1.772  12.590  0.5532 -1.9451 -1.6106
  142OSM   H16G15551   3.708   1.893  12.521 -0.0588  0.7467 -1.4574
  142OSM   C17F15552   3.630   1.735  12.383  1.0862  0.2493  0.1839
  142OSM   H17F15553   3.702   1.780  12.312  0.6494 -0.6783 -0.8787
  142OSM   H17G15554   3.542   1.702  12.323  0.3325  1.0500  0.8219
  142OSM   C18F15555   3.706   1.612  12.446  0.3452 -0.4368  0.7765
  142OSM   H18F15556   3.792   1.646  12.507 -1.3564  0.8204  2.6194
  142OSM   H18G15557   3.744   1.557  12.358  0.0524  0.4002  0.1040
  142OSM   H18H15558   3.644   1.546  12.510 -0.2651  0.3680  1.0321
  143OSM      N15559   2.359   3.008  11.143  0.4377  0.2834 -0.1008
  143OSM    C1515560   2.397   3.109  11.033 -0.2943  0.4300  0.6330
  143OSM   H15A15561   2.495   3.084  10.995 -0.4201 -2.5420  1.9239
  143OSM   H15B15562   2.398   3.209  11.073 -0.0688  0.9360 -0.6066
  143OSM   H15C15563   2.321   3.093  10.958 -0.3130 -3.3911  1.2702
  143OSM    C1415564   2.211   3.037  11.172 -0.1470  0.3144 -0.0891
  143OSM   H14A15565   2.182   2.986  11.263  1.0657  3.0142  1.9646
  143OSM   H14B15566   2.151   2.985  11.099  0.9942  1.3444 -1.8287
  143OSM   H14C15567   2.181   3.141  11.180  2.0542  0.9039  1.4952
  143OSM    C1315568   2.383   2.867  11.098  0.6567 -0.3308 -0.3356
  143OSM   H13A15569   2.300   2.839  11.034  1.7810 -1.0086 -1.5444
  143OSM   H13B15570   2.380   2.802  11.184  2.8711  2.0103  1.6693
  143OSM   H13C15571   2.473   2.868  11.038 -1.6046  0.5297 -4.0892
  143OSM    C1215572   2.448   3.051  11.269  0.5568  0.0909  0.2653
  143OSM   H12A15573   2.419   2.984  11.349  0.8053 -1.6129 -1.0291
  143OSM   H12B15574   2.425   3.150  11.307 -0.6302 -0.8263  2.1051
  143OSM    C1115575   2.599   3.035  11.253  0.7689 -0.2436  0.1149
  143OSM   H11A15576   2.623   3.119  11.185  0.2548  0.2795  0.5753
  143OSM   H11B15577   2.628   2.941  11.201 -1.1748 -0.6883 -0.2192
  143OSM      P15578   2.676   2.928  11.470  0.2323  0.3042 -0.1957
  143OSM    O1315579   2.716   2.962  11.605  0.0590 -0.0494  0.1096
  143OSM    O1415580   2.567   2.831  11.448 -0.4217  0.0465  0.0670
  143OSM    O1115581   2.811   2.865  11.406  0.1027  0.3911 -0.2631
  143OSM    O1215582   2.659   3.045  11.378  0.0937 -0.3093  0.1612
  143OSM    C1S15583   2.856   2.737  11.458 -0.0313 -1.1737 -0.7699
  143OSM    H1S15584   2.771   2.666  11.458 -2.6259  1.6694  1.3878
  143OSM    H1T15585   2.900   2.750  11.560  1.8299  0.2328 -1.6992
  143OSM     NF15586   3.036   2.570  11.419  0.1960 -0.4593 -0.0877
  143OSM    HNF15587   3.132   2.575  11.445  0.2675 -0.0481 -0.4291
  143OSM    C2S15588   2.972   2.687  11.364 -0.0455 -0.0172 -0.1160
  143OSM    H2S15589   2.913   2.656  11.275  0.2454 -0.1090 -0.2788
  143OSM    C3S15590   3.081   2.786  11.307  0.6732 -0.0717 -0.0126
  143OSM    H3S15591   3.136   2.831  11.392  0.4911 -0.1540  0.1468
  143OSM     O315592   3.035   2.907  11.244 -0.5023 -0.2535  0.2589
  143OSM    HO315593   2.941   2.922  11.262 -0.4629  1.4570 -0.7798
  143OSM    C4S15594   3.180   2.717  11.224 -0.3130 -0.2295  0.1764
  143OSM    H4S15595   3.274   2.689  11.273  0.1118  2.1243  0.8197
  143OSM    C5S15596   3.153   2.660  11.110  0.0493 -0.3426 -0.2364
  143OSM    H5S15597   3.055   2.665  11.060 -0.2359 -0.7924  0.2779
  143OSM    C6S15598   3.253   2.581  11.032  0.2960 -0.0706 -0.7912
  143OSM    H6S15599   3.356   2.602  11.068  0.4184  0.4925 -1.4568
  143OSM    H6T15600   3.253   2.630  10.932  0.0775  0.1821 -0.6677
  143OSM    C7S15601   3.232   2.429  11.022  0.0112  0.1236  0.0683
  143OSM    H7S15602   3.146   2.407  10.956  0.6879 -1.0501 -0.4658
  143OSM    H7T15603   3.217   2.397  11.128  0.8905 -1.8836 -0.3529
  143OSM    C8S15604   3.354   2.352  10.967 -0.4219  0.7905 -0.5321
  143OSM    H8S15605   3.397   2.396  10.875  1.5694  0.5558  0.2307
  143OSM    H8T15606   3.313   2.258  10.924 -0.9812  0.7709  0.0323
  143OSM    C9S15607   3.478   2.320  11.063  0.3472  0.2252 -0.0926
  143OSM    H9S15608   3.447   2.249  11.143 -1.0108 -0.4831 -1.2043
  143OSM    H9T15609   3.501   2.416  11.115 -0.6075  0.1392  0.5167
  143OSM   C10S15610   3.608   2.266  10.999  0.5750  0.3892  0.0595
  143OSM   H10S15611   3.653   2.327  10.918  1.1570 -0.0464  0.0460
  143OSM   H10T15612   3.577   2.171  10.949  0.7131 -0.3200  1.2725
  143OSM   C11S15613   3.735   2.231  11.084 -0.3691 -0.4865 -0.5185
  143OSM   H11S15614   3.723   2.134  11.137  0.8320 -0.0867  0.5465
  143OSM   H11T15615   3.761   2.304  11.164 -1.9534  1.1767 -1.4449
  143OSM   C12S15616   3.858   2.213  10.996  0.1129  0.2445  0.4771
  143OSM   H12S15617   3.887   2.318  10.972 -0.5568  0.3575  0.1335
  143OSM   H12T15618   3.836   2.165  10.898 -1.8748  0.5545  0.7413
  143OSM   C13S15619   3.968   2.140  11.071 -1.7749 -0.2892  0.5012
  143OSM   H13S15620   3.968   2.165  11.180 -0.0399  2.2861 -0.0097
  143OSM   H13T15621   4.067   2.180  11.038 -0.8958 -2.2013  0.6855
  143OSM   C14S15622   3.961   1.986  11.060 -0.5665 -0.4940 -0.1426
  143OSM   H14S15623   3.993   1.961  10.956 -0.4658  2.2882 -0.8465
  143OSM   H14T15624   3.861   1.938  11.073  0.0662 -1.3399  2.0958
  143OSM   C15S15625   4.062   1.921  11.152 -0.6519 -0.3770 -0.2537
  143OSM   H15S15626   4.024   1.956  11.250 -3.0303  0.4560 -1.3760
  143OSM   H15T15627   4.163   1.968  11.149  0.1407 -2.0159 -0.1801
  143OSM   C16S15628   4.065   1.770  11.152 -0.8025 -0.1645  0.1750
  143OSM   H16S15629   3.963   1.725  11.156  0.5237 -3.9501 -2.6596
  143OSM   H16T15630   4.111   1.735  11.247  0.9529 -2.8327 -1.5060
  143OSM   C17S15631   4.154   1.695  11.046 -0.5611 -0.1052  0.1716
  143OSM   H17S15632   4.218   1.623  11.102 -0.5933  0.8682  1.5156
  143OSM   H17T15633   4.211   1.772  10.990 -1.0031  0.7504  0.8798
  143OSM   C18S15634   4.074   1.615  10.939  0.2727  0.8728 -0.6626
  143OSM   H18S15635   4.014   1.687  10.881 -2.0512  0.7907  1.4769
  143OSM   H18T15636   4.004   1.540  10.982  1.4586 -1.0604 -1.9472
  143OSM   H18U15637   4.145   1.564  10.871 -0.5075  1.4765 -1.9537
  143OSM    C1F15638   2.969   2.453  11.436  0.6815 -0.3243  0.3503
  143OSM     OF15639   2.854   2.447  11.396 -0.2663  0.6920 -0.1757
  143OSM    C2F15640   3.036   2.345  11.516  0.0624 -0.0276 -0.0013
  143OSM    H2F15641   2.974   2.330  11.608 -2.5431  3.8499 -0.8780
  143OSM    H2G15642   3.135   2.380  11.552 -0.4189  1.4807 -0.0994
  143OSM    C3F15643   3.041   2.206  11.443  0.0817 -0.1511  0.4911
  143OSM    H3F15644   3.083   2.224  11.342 -1.4839  0.4110 -0.0996
  143OSM    H3G15645   2.936   2.169  11.441 -1.3721  3.4296  2.6061
  143OSM    C4F15646   3.117   2.105  11.526  0.3564  0.3450 -0.4249
  143OSM    H4F15647   3.083   2.105  11.632  2.4943  0.1990  0.2997
  143OSM    H4G15648   3.224   2.134  11.525  0.2185  1.3304  2.4248
  143OSM    C5F15649   3.090   1.962  11.475  0.5795 -0.2514 -0.2249
  143OSM    H5F15650   3.139   1.956  11.376 -0.3975  0.2314 -0.7485
  143OSM    H5G15651   2.984   1.929  11.468  0.3914  0.2780  0.0432
  143OSM    C6F15652   3.162   1.868  11.578  0.0885  0.6220 -0.0434
  143OSM    H6F15653   3.125   1.873  11.683 -0.3773 -2.2529  0.0333
  143OSM    H6G15654   3.266   1.903  11.565 -0.2567  1.3330 -0.9432
  143OSM    C7F15655   3.143   1.722  11.533  0.4032  0.9474 -0.0565
  143OSM    H7F15656   3.190   1.708  11.433 -2.0754  1.2332 -1.3416
  143OSM    H7G15657   3.034   1.701  11.521  0.0277  3.1822 -1.2148
  143OSM    C8F15658   3.212   1.627  11.628  0.1965 -0.3932 -0.7837
  143OSM    H8F15659   3.164   1.646  11.726 -0.8701  2.0483 -1.6833
  143OSM    H8G15660   3.322   1.642  11.637 -0.0468  2.2968 -1.3727
  143OSM    C9F15661   3.179   1.491  11.578  0.1719  0.1018  0.0075
  143OSM    H9F15662   3.087   1.453  11.625  0.7030  1.1873  2.0623
  143OSM   C10F15663   3.245   1.418  11.492  0.1989 -0.4031  0.2288
  143OSM   H10F15664   3.215   1.318  11.458 -1.3529  0.5768 -1.4676
  143OSM   C11F15665   3.370   1.463  11.428 -0.2439 -0.4418  1.1125
  143OSM   H11F15666   3.368   1.574  11.423  1.2986 -0.3895  1.1216
  143OSM   H11G15667   3.380   1.413  11.329  3.4346 -0.2839  1.2636
  143OSM   C12F15668   3.502   1.429  11.494  0.0765 -0.3490 -0.5794
  143OSM   H12F15669   3.517   1.491  11.584 -2.1772  0.3444 -0.6197
  143OSM   H12G15670   3.583   1.450  11.421  0.9245  0.2347  0.4977
  143OSM   C13F15671   3.498   1.285  11.537 -0.2353  0.2241 -0.0555
  143OSM   H13F15672   3.461   1.217  11.457 -1.5762 -0.3011  0.9746
  143OSM   H13G15673   3.424   1.268  11.618  0.6432  0.2120  0.7491
  143OSM   C14F15674   3.627   1.233  11.597  0.1805  0.5809  0.2294
  143OSM   H14F15675   3.671   1.300  11.673 -1.5164  0.6835  1.1835
  143OSM   H14G15676   3.704   1.232  11.517  0.3321  2.6206  0.3056
  143OSM   C15F15677   3.620   1.091  11.660  0.1696  0.3646  0.2093
  143OSM   H15F15678   3.556   1.093  11.751 -2.5573 -0.0616 -1.5739
  143OSM   H15G15679   3.723   1.057  11.684  0.0611 -0.5785 -0.5916
  143OSM   C16F15680   3.556   0.986  11.561 -0.0945 -0.3248  0.0693
  143OSM   H16F15681   3.612   0.985  11.465 -1.3832  0.4596 -0.7199
  143OSM   H16G15682   3.452   1.015  11.537  0.7280  1.6481 -1.3435
  143OSM   C17F15683   3.551   0.849  11.619 -0.3486  0.7720  0.4616
  143OSM   H17F15684   3.660   0.829  11.618 -0.5585 -0.6952  1.8975
  143OSM   H17G15685   3.494   0.782  11.551 -0.3901  0.2460  1.0043
  143OSM   C18F15686   3.485   0.827  11.754 -0.5038  0.1704  0.4717
  143OSM   H18F15687   3.539   0.876  11.838 -2.5455  1.1366  1.2936
  143OSM   H18G15688   3.487   0.718  11.774  0.2704 -0.2256 -1.5440
  143OSM   H18H15689   3.380   0.864  11.757 -1.4930 -2.4486  1.0728
  144OSM      N15690   1.959   2.738  13.668 -0.0587 -0.4880  0.0562
  144OSM    C1515691   1.852   2.678  13.757  0.1184  0.0727 -0.4048
  144OSM   H15A15692   1.756   2.694  13.712  0.2307  0.1498 -0.6163
  144OSM   H15B15693   1.861   2.720  13.856 -0.1118  0.0425 -0.3708
  144OSM   H15C15694   1.869   2.571  13.763 -2.0568 -0.2602  2.9751
  144OSM    C1415695   1.923   2.874  13.627  0.1562 -0.3110  0.5395
  144OSM   H14A15696   1.919   2.942  13.711  1.4045  1.0055 -0.4130
  144OSM   H14B15697   1.826   2.869  13.578  1.2209 -0.9742 -1.6141
  144OSM   H14C15698   1.982   2.912  13.545 -0.3611 -2.2342 -0.8016
  144OSM    C1315699   2.087   2.756  13.747  0.3493  0.3435 -0.2025
  144OSM   H13A15700   2.159   2.799  13.678  0.5349  0.8039  0.2720
  144OSM   H13B15701   2.126   2.659  13.772 -2.0745 -0.9454 -1.0536
  144OSM   H13C15702   2.069   2.816  13.835  0.4676 -0.0257  0.0755
  144OSM    C1215703   1.981   2.657  13.538 -0.3616  0.5947  0.5628
  144OSM   H12A15704   1.906   2.673  13.462  1.7841 -0.0586 -1.8565
  144OSM   H12B15705   1.985   2.557  13.576  1.0056  0.8951  1.2727
  144OSM    C1115706   2.117   2.677  13.455  0.5810  1.0258 -0.2728
  144OSM   H11A15707   2.127   2.593  13.383 -2.0178 -1.7021  2.2573
  144OSM   H11B15708   2.195   2.657  13.530 -0.6526  0.3549  0.8694
  144OSM      P15709   2.052   2.862  13.281  0.2178 -0.1271  0.1112
  144OSM    O1315710   1.908   2.858  13.312 -0.3719  0.0889  0.1892
  144OSM    O1415711   2.104   2.997  13.256 -0.3638  0.1078 -0.8217
  144OSM    O1115712   2.092   2.766  13.157  0.0392  0.5185  0.5761
  144OSM    O1215713   2.136   2.808  13.403 -0.0524 -0.0302 -0.3569
  144OSM    C1S15714   2.214   2.800  13.083  0.1646 -0.8231 -0.2636
  144OSM    H1S15715   2.299   2.795  13.155 -0.8641 -1.5432  0.9343
  144OSM    H1T15716   2.207   2.896  13.028  1.5814 -1.2296 -1.2088
  144OSM     NF15717   2.378   2.719  12.917  0.2833  0.0752 -0.4848
  144OSM    HNF15718   2.380   2.742  12.820  2.9612  0.8899 -0.3234
  144OSM    C2S15719   2.246   2.698  12.971  1.1230  0.7587 -0.2618
  144OSM    H2S15720   2.243   2.604  13.030  1.1647  2.0693  1.9067
  144OSM    C3S15721   2.132   2.692  12.866  0.1313 -0.3164 -0.0405
  144OSM    H3S15722   2.141   2.779  12.797 -2.0309 -0.1059 -0.1123
  144OSM     O315723   1.995   2.699  12.905  0.7577  0.4473  0.2930
  144OSM    HO315724   1.989   2.708  13.000 -1.6359  0.9173  0.1603
  144OSM    C4S15725   2.161   2.577  12.776  0.6756  0.3065  0.8754
  144OSM    H4S15726   2.202   2.601  12.676  0.2053  1.2048  0.8900
  144OSM    C5S15727   2.124   2.441  12.771 -0.0267  0.4296 -0.1252
  144OSM    H5S15728   2.059   2.407  12.853  1.2547 -0.1374  0.6929
  144OSM    C6S15729   2.150   2.350  12.655 -0.0952  0.8523  0.5433
  144OSM    H6S15730   2.252   2.363  12.612  0.4002 -0.7760  1.1498
  144OSM    H6T15731   2.074   2.357  12.574  0.4061  5.3584  0.2391
  144OSM    C7S15732   2.154   2.199  12.709 -0.2283 -0.2267  0.0094
  144OSM    H7S15733   2.054   2.178  12.753  0.2345 -2.9965 -0.0941
  144OSM    H7T15734   2.232   2.187  12.787 -1.0272  1.4216  1.1409
  144OSM    C8S15735   2.178   2.105  12.593 -0.5513 -0.1958 -0.2588
  144OSM    H8S15736   2.281   2.127  12.556 -1.7424  1.5399 -2.8723
  144OSM    H8T15737   2.098   2.137  12.523 -1.5224 -0.9583  0.4838
  144OSM    C9S15738   2.166   1.959  12.635 -0.1694  0.3462  0.3299
  144OSM    H9S15739   2.057   1.941  12.635 -0.5112  2.0141 -1.1897
  144OSM    H9T15740   2.198   1.945  12.740 -0.8808  0.4098  0.5550
  144OSM   C10S15741   2.238   1.872  12.533  0.0770 -0.3448  0.2722
  144OSM   H10S15742   2.344   1.900  12.550 -0.1073  1.5078 -1.3685
  144OSM   H10T15743   2.215   1.898  12.428 -1.6946  0.0492  0.7213
  144OSM   C11S15744   2.233   1.718  12.568  0.5328 -0.5114 -1.0128
  144OSM   H11S15745   2.236   1.725  12.679 -1.0245  2.4453 -1.0513
  144OSM   H11T15746   2.325   1.673  12.524  0.8740 -0.2441 -0.5838
  144OSM   C12S15747   2.112   1.645  12.514  0.4275  0.1378  0.2507
  144OSM   H12S15748   2.083   1.701  12.423  2.0818  1.7276  0.6356
  144OSM   H12T15749   2.024   1.643  12.582 -1.2286  2.3762 -1.6445
  144OSM   C13S15750   2.141   1.505  12.465 -0.1252  0.4969  0.0774
  144OSM   H13S15751   2.178   1.442  12.548  0.5009  0.0031 -0.5582
  144OSM   H13T15752   2.215   1.514  12.383  0.4534 -0.2116  0.5155
  144OSM   C14S15753   2.032   1.422  12.405  0.1502 -0.4417  1.3829
  144OSM   H14S15754   1.977   1.477  12.325 -0.4480 -1.8875  0.7700
  144OSM   H14T15755   1.954   1.390  12.477  0.2866 -1.5803  1.0408
  144OSM   C15S15756   2.081   1.295  12.333 -0.6655  0.4228 -0.0296
  144OSM   H15S15757   2.109   1.228  12.417 -0.0846 -0.5266 -0.9673
  144OSM   H15T15758   2.174   1.310  12.275  0.0390  3.1940  1.6485
  144OSM   C16S15759   1.971   1.230  12.247  0.3415  0.7062  0.2272
  144OSM   H16S15760   1.929   1.295  12.167 -3.3241  0.1736  1.4959
  144OSM   H16T15761   1.883   1.232  12.316  1.1335  2.9688  1.2775
  144OSM   C17S15762   1.998   1.089  12.199 -0.4672 -0.6995  0.5050
  144OSM   H17S15763   1.901   1.041  12.174 -0.5762  1.7991 -5.7185
  144OSM   H17T15764   2.056   1.035  12.276  1.9143  1.3847  0.3002
  144OSM   C18S15765   2.068   1.087  12.059  0.0187  0.1342  0.0801
  144OSM   H18S15766   2.175   1.104  12.085 -0.0204  1.0665 -0.3062
  144OSM   H18T15767   2.022   1.166  11.996 -1.3531 -0.8789 -0.2212
  144OSM   H18U15768   2.057   0.992  12.003  0.9465  0.5518 -0.8516
  144OSM    C1F15769   2.489   2.719  12.992  0.1444 -0.0311 -0.3132
  144OSM     OF15770   2.491   2.681  13.109  0.3944  0.4034 -0.4044
  144OSM    C2F15771   2.613   2.752  12.915 -0.5308 -0.2131  1.1065
  144OSM    H2F15772   2.625   2.862  12.922  0.9957 -0.3893  1.8432
  144OSM    H2G15773   2.596   2.720  12.811 -2.9070  0.6228  1.1914
  144OSM    C3F15774   2.747   2.687  12.964 -0.2293 -0.1579 -0.2930
  144OSM    H3F15775   2.747   2.702  13.075 -1.2768  3.2933 -0.6411
  144OSM    H3G15776   2.839   2.737  12.929  0.4072 -0.1113  1.3471
  144OSM    C4F15777   2.756   2.539  12.935  0.7892  0.1954  0.0656
  144OSM    H4F15778   2.757   2.520  12.825 -1.7704 -1.1799  0.1862
  144OSM    H4G15779   2.670   2.489  12.985  1.3867  0.7942  1.7574
  144OSM    C5F15780   2.885   2.470  12.984  0.5692  0.7693 -0.5597
  144OSM    H5F15781   2.896   2.486  13.094 -1.2396  1.0376 -0.3974
  144OSM    H5G15782   2.977   2.517  12.944  0.4271  2.7123  1.2406
  144OSM    C6F15783   2.895   2.326  12.948  0.1424  0.2276 -0.0338
  144OSM    H6F15784   2.892   2.311  12.838  0.7720  0.0059 -0.0239
  144OSM    H6G15785   2.806   2.271  12.987 -0.4298  1.3297  0.2525
  144OSM    C7F15786   3.029   2.262  12.987 -0.0996 -0.4952  0.0829
  144OSM    H7F15787   3.043   2.301  13.090 -1.4891 -0.9131  0.4463
  144OSM    H7G15788   3.108   2.301  12.919 -1.2622  0.9082 -0.5130
  144OSM    C8F15789   3.051   2.107  12.979  0.6191 -0.0672  0.0123
  144OSM    H8F15790   3.017   2.075  12.879  1.1554 -1.5564  0.2834
  144OSM    H8G15791   2.975   2.069  13.050 -2.0994  2.2286 -1.4644
  144OSM    C9F15792   3.189   2.052  13.000 -1.1052  0.3239  0.2562
  144OSM    H9F15793   3.258   2.064  12.915 -0.0680 -1.4913  0.7760
  144OSM   C10F15794   3.237   1.984  13.109 -0.0881 -0.4367  0.1480
  144OSM   H10F15795   3.338   1.941  13.106 -0.2001 -0.6766 -1.3596
  144OSM   C11F15796   3.151   1.942  13.222 -0.4112  0.2659 -0.8493
  144OSM   H11F15797   3.041   1.954  13.206 -0.3859  0.5645 -0.8176
  144OSM   H11G15798   3.157   2.008  13.311  0.6038 -0.3236 -0.4740
  144OSM   C12F15799   3.179   1.793  13.267 -0.1020 -0.4553 -0.1094
  144OSM   H12F15800   3.289   1.783  13.279  0.1512 -0.2122 -2.0213
  144OSM   H12G15801   3.134   1.726  13.190  0.5015 -0.6658 -0.2786
  144OSM   C13F15802   3.115   1.758  13.402  0.7531  0.8786  0.4406
  144OSM   H13F15803   3.010   1.728  13.384  0.7368  2.1612 -2.2135
  144OSM   H13G15804   3.118   1.856  13.455  0.0436  1.1233  0.0405
  144OSM   C14F15805   3.202   1.649  13.475 -0.3346 -0.2975  0.1142
  144OSM   H14F15806   3.305   1.686  13.490 -0.0580 -0.7197 -0.6900
  144OSM   H14G15807   3.202   1.561  13.408 -0.1627  1.0819 -1.7559
  144OSM   C15F15808   3.140   1.593  13.604  0.3726  0.2898 -0.2602
  144OSM   H15F15809   3.212   1.531  13.661 -1.0999  0.9269  2.4726
  144OSM   H15G15810   3.049   1.538  13.571  0.2490  0.1705  0.2606
  144OSM   C16F15811   3.109   1.702  13.711 -0.4347  0.1578  0.5929
  144OSM   H16F15812   3.040   1.766  13.652  0.6649  0.9428  0.1221
  144OSM   H16G15813   3.198   1.763  13.738  0.7268 -0.4424 -1.5777
  144OSM   C17F15814   3.036   1.647  13.836  0.2027  0.3437 -0.2842
  144OSM   H17F15815   3.106   1.584  13.896 -0.8006 -0.4883  0.0488
  144OSM   H17G15816   2.964   1.566  13.811  0.9589 -0.3170 -0.3611
  144OSM   C18F15817   2.981   1.756  13.927  0.2055  0.3980  0.4283
  144OSM   H18F15818   2.912   1.827  13.876 -0.0015  0.2439  0.4894
  144OSM   H18G15819   3.062   1.824  13.960  2.0236 -1.1400 -0.7138
  144OSM   H18H15820   2.930   1.718  14.018 -1.8834  2.1228  0.0707
  145SAPE     N15821   0.178   1.670  21.627 -1.2149  0.4745 -0.1573
  145SAPE   HN115822   0.112   1.635  21.555  0.1701 -2.1289 -0.2609
  145SAPE   HN215823   0.130   1.692  21.717 -0.6853  1.0286  0.0014
  145SAPE   HN315824   0.211   1.763  21.593 -1.0674  0.2517 -0.6271
  145SAPE   C1215825   0.293   1.576  21.650  0.6808 -0.2169 -0.0382
  145SAPE  H12A15826   0.375   1.643  21.685 -2.4846  2.3510  3.2652
  145SAPE  H12B15827   0.312   1.525  21.553  1.4901  0.3058 -0.1573
  145SAPE   C1115828   0.264   1.472  21.751  0.7953  0.3966  0.4840
  145SAPE  H11A15829   0.351   1.405  21.766  0.5310  0.1796  1.1035
  145SAPE  H11B15830   0.191   1.396  21.716  0.9810 -1.0276  2.9115
  145SAPE     P15831   0.313   1.556  21.999 -0.0052 -0.0372  0.0007
  145SAPE   O1315832   0.441   1.615  21.967 -0.1660 -0.1952  0.4943
  145SAPE   O1415833   0.233   1.630  22.094 -0.2468 -0.4302  0.2317
  145SAPE   O1215834   0.222   1.539  21.872  0.0382  0.3890  0.2633
  145SAPE   O1115835   0.328   1.410  22.057  0.4765  0.0285  0.0977
  145SAPE    C115836   0.213   1.318  22.060  0.1712 -0.4635  0.3042
  145SAPE    HA15837   0.134   1.356  21.992  1.1691  2.8955  0.8790
  145SAPE    HB15838   0.252   1.222  22.018 -1.5223 -0.2601 -1.9506
  145SAPE    C215839   0.165   1.296  22.205  0.5042  0.3192  0.4417
  145SAPE    HS15840   0.145   1.400  22.238 -3.3902 -0.4228  0.8916
  145SAPE   O2115841   0.263   1.222  22.288 -0.2784 -0.4974 -0.0607
  145SAPE   C2115842   0.341   1.300  22.367 -0.5680 -0.3295  0.3419
  145SAPE   O2215843   0.323   1.420  22.378  0.3251  0.8101 -0.3231
  145SAPE   C2215844   0.454   1.223  22.431 -0.3714  0.3283  0.4246
  145SAPE   H2R15845   0.465   1.145  22.352 -2.2492  1.0641 -0.6400
  145SAPE   H2S15846   0.549   1.279  22.440  0.7564 -0.4450 -4.0832
  145SAPE    C315847   0.033   1.221  22.220 -0.2937  0.7315 -1.1303
  145SAPE    HX15848   0.012   1.229  22.329  1.0411 -1.9204 -0.6126
  145SAPE    HY15849   0.053   1.117  22.186  0.7960  0.3954  0.4340
  145SAPE   O3115850  -0.063   1.278  22.134 -0.2592  0.6125 -0.1954
  145SAPE   C3115851  -0.155   1.353  22.194 -0.1852 -0.8812  0.1671
  145SAPE   O3215852  -0.158   1.377  22.312  0.0968  0.1167  0.4416
  145SAPE   C3215853  -0.255   1.412  22.091  0.1139  0.6459 -0.2930
  145SAPE   H2X15854  -0.216   1.408  21.988  1.3276 -0.7012  0.1837
  145SAPE   H2Y15855  -0.260   1.520  22.117  1.0998  0.2994  1.4885
  145SAPE   C2315856   0.403   1.161  22.561 -0.7029  0.2917  0.6120
  145SAPE   H3R15857   0.472   1.082  22.596  0.5468  0.3418 -1.5501
  145SAPE   H3S15858   0.303   1.119  22.538 -0.0043 -0.5081 -1.1443
  145SAPE   C2415859   0.391   1.272  22.669  0.2009  0.5298  0.3611
  145SAPE   H4R15860   0.330   1.350  22.618  0.5094 -0.4526 -1.5946
  145SAPE   H4S15861   0.495   1.306  22.686 -0.3414  2.0266  0.8878
  145SAPE   C2515862   0.317   1.224  22.796 -0.8690  0.1082  0.2000
  145SAPE   H5R15863   0.211   1.198  22.782 -0.5723 -0.9574 -0.1781
  145SAPE   C2615864   0.369   1.225  22.922 -0.0534  0.5616  0.2778
  145SAPE   H6R15865   0.306   1.182  23.001  1.9845 -0.7197  1.2745
  145SAPE   C2715866   0.509   1.265  22.956  0.1070 -0.0194  0.4271
  145SAPE   H7R15867   0.522   1.374  22.973  0.1031 -0.0026  0.3243
  145SAPE   H7S15868   0.560   1.236  22.862 -1.4896 -1.1156 -0.1542
  145SAPE   C2815869   0.575   1.215  23.080  0.1572  0.5243  0.0171
  145SAPE   H8R15870   0.538   1.255  23.176  1.2083  0.1527  0.5920
  145SAPE   C2915871   0.676   1.135  23.098 -0.5413 -0.1578  0.5589
  145SAPE   H9R15872   0.710   1.112  23.200  0.9531  0.2707  0.1912
  145SAPE  C21015873   0.752   1.059  22.994  0.0154 -0.2831 -0.4185
  145SAPE  H10R15874   0.859   1.087  22.989  0.2472 -1.1759 -0.7315
  145SAPE  H10S15875   0.708   1.064  22.892 -2.6293 -0.8706  0.6296
  145SAPE  C21115876   0.739   0.909  23.027 -0.8733  0.2943  0.1250
  145SAPE  H11R15877   0.820   0.856  23.079  0.1465  1.7568  0.0799
  145SAPE  C21215878   0.646   0.822  22.993  0.5844  0.2126 -0.3726
  145SAPE  H12R15879   0.653   0.714  23.008 -0.3185  0.2782  0.6058
  145SAPE  C21315880   0.518   0.861  22.941  0.2962 -0.2931 -0.0394
  145SAPE  H13R15881   0.486   0.799  22.855  0.0454 -0.6156  0.2873
  145SAPE  H13S15882   0.521   0.966  22.903 -0.6686 -0.1217  0.3220
  145SAPE  C21415883   0.403   0.840  23.042 -0.2982  0.4648  0.5229
  145SAPE  H14R15884   0.411   0.921  23.116 -0.1807  0.5438  0.4247
  145SAPE  C21515885   0.302   0.755  23.037 -0.0332  0.4201  0.0351
  145SAPE  H15R15886   0.218   0.750  23.107  0.1249  0.3700  0.2217
  145SAPE  C21615887   0.288   0.647  22.933 -0.1934  0.6840 -0.0214
  145SAPE  H16R15888   0.317   0.674  22.829 -2.3111  1.8160 -0.3687
  145SAPE  H16S15889   0.178   0.630  22.930  0.2573 -3.4915  0.6600
  145SAPE  C21715890   0.337   0.506  22.982  0.7336 -0.4084 -0.4147
  145SAPE  H17R15891   0.290   0.485  23.081  1.7051  0.2414  0.1979
  145SAPE  H17S15892   0.447   0.509  22.994  0.9171 -3.2392 -0.8838
  145SAPE  C21815893   0.307   0.405  22.864  1.4818  0.6661 -0.3973
  145SAPE  H18R15894   0.197   0.406  22.849  1.2010 -0.0382  1.3802
  145SAPE  H18S15895   0.332   0.311  22.916  1.5748  1.0853  0.3288
  145SAPE  C21915896   0.386   0.403  22.741  0.3806 -0.1937 -0.1095
  145SAPE  H19R15897   0.345   0.480  22.672  0.3705 -1.4461 -1.5581
  145SAPE  H19S15898   0.362   0.313  22.680 -1.6022  1.6353 -2.2129
  145SAPE  C22015899   0.536   0.420  22.759 -0.1335 -0.4224  0.1531
  145SAPE  H20R15900   0.581   0.335  22.815  1.8913  0.8555  0.5446
  145SAPE  H20S15901   0.561   0.513  22.814 -1.9804 -1.6297  3.2738
  145SAPE  H20T15902   0.582   0.419  22.658  0.3466 -2.5928  0.3301
  145SAPE   C3315903  -0.395   1.344  22.110  0.5711  0.4766  0.2399
  145SAPE   H3X15904  -0.429   1.375  22.211  0.8344 -1.1066  0.8427
  145SAPE   H3Y15905  -0.365   1.238  22.123 -2.7391 -0.6202 -0.0926
  145SAPE   C3415906  -0.497   1.367  22.002 -0.7294 -1.0357  0.3322
  145SAPE   H4X15907  -0.499   1.473  21.968  3.5497 -1.3801 -1.5878
  145SAPE   H4Y15908  -0.597   1.343  22.044 -0.5761 -2.4747 -0.0877
  145SAPE   C3515909  -0.470   1.285  21.876  0.0913 -0.5957  0.3545
  145SAPE   H5X15910  -0.453   1.176  21.892 -1.5406 -0.9261  0.0477
  145SAPE   H5Y15911  -0.376   1.326  21.834 -0.7455  0.3739 -0.6181
  145SAPE   C3615912  -0.578   1.312  21.770  0.1248 -0.2393  0.2669
  145SAPE   H6X15913  -0.587   1.422  21.754  1.3205 -0.0492  0.7848
  145SAPE   H6Y15914  -0.680   1.286  21.806 -0.6861  1.3898 -0.7380
  145SAPE   C3715915  -0.543   1.246  21.636  0.5068  0.2237 -0.5156
  145SAPE   H7X15916  -0.461   1.304  21.590  1.3779 -0.0461  0.6243
  145SAPE   H7Y15917  -0.625   1.258  21.563  0.4140  0.9681 -0.2919
  145SAPE   C3815918  -0.498   1.097  21.636  0.7219 -0.2298 -0.3311
  145SAPE   H8X15919  -0.396   1.086  21.679  1.2151 -0.3662 -1.5072
  145SAPE   H8Y15920  -0.493   1.045  21.538 -0.2263 -1.9299  0.4748
  145SAPE   C3915921  -0.601   1.011  21.705  0.3024  0.1018 -0.6018
  145SAPE   H9X15922  -0.684   1.010  21.632  0.4428 -1.2044 -0.7645
  145SAPE   H9Y15923  -0.637   1.063  21.797  1.1730  0.4734 -0.4592
  145SAPE  C31015924  -0.556   0.875  21.746  1.4226  0.1759 -0.2244
  145SAPE  H10X15925  -0.633   0.826  21.809  0.9220  1.9691  0.6008
  145SAPE  H10Y15926  -0.472   0.891  21.817 -0.1719  0.4195  1.6848
  145SAPE  C31115927  -0.504   0.783  21.637  0.0921  0.5593  0.2432
  145SAPE  H11X15928  -0.406   0.826  21.608  0.1087  0.2455 -0.1756
  145SAPE  H11Y15929  -0.579   0.779  21.555 -0.9134 -0.4669  1.1657
  145SAPE  C31215930  -0.477   0.633  21.682 -0.5817  0.3835  0.7605
  145SAPE  H12X15931  -0.462   0.579  21.586 -1.8397 -0.0638  0.7997
  145SAPE  H12Y15932  -0.568   0.584  21.722 -2.4709 -0.4511 -3.9114
  145SAPE  C31315933  -0.344   0.629  21.761  0.4396  0.0689 -0.0030
  145SAPE  H13X15934  -0.357   0.658  21.867  2.7615  1.5547 -0.0598
  145SAPE  H13Y15935  -0.279   0.705  21.713  2.4011 -0.8306  1.0987
  145SAPE  C31415936  -0.270   0.491  21.761 -0.0763  0.0669  0.7711
  145SAPE  H14X15937  -0.178   0.505  21.822  0.3423  1.9237 -0.2280
  145SAPE  H14Y15938  -0.247   0.459  21.658 -0.0932  2.5199 -0.0413
  145SAPE  C31515939  -0.348   0.382  21.845 -0.0007 -0.1783  0.5441
  145SAPE  H15X15940  -0.422   0.425  21.916  1.2347 -0.1156  1.8546
  145SAPE  H15Y15941  -0.270   0.328  21.903  0.5328  0.6407  0.5945
  145SAPE  C31615942  -0.426   0.276  21.760  0.2394  0.4872 -0.3566
  145SAPE  H16X15943  -0.354   0.231  21.689 -0.0420 -0.4761 -0.0372
  145SAPE  H16Y15944  -0.483   0.333  21.684  0.3182  0.3805 -0.4945
  145SAPE  C31715945  -0.508   0.171  21.843 -0.8163  0.1892  0.5534
  145SAPE  H17X15946  -0.570   0.223  21.918 -2.0220 -2.0937  1.2145
  145SAPE  H17Y15947  -0.447   0.093  21.895  0.3017 -0.5386 -1.7033
  145SAPE  C31815948  -0.598   0.083  21.753 -0.6500  0.6891  0.2460
  145SAPE  H18X15949  -0.542  -0.008  21.723  0.5437  1.4865 -0.0541
  145SAPE  H18Y15950  -0.612   0.151  21.666 -2.0675 -2.2028 -1.9182
  145SAPE  H18Z15951  -0.685   0.059  21.818  0.3227 -0.7807  1.0469
  146SAPE     N15952   1.871   1.793  22.858 -0.0308 -0.9405  0.1786
  146SAPE   HN115953   1.947   1.812  22.790 -0.6356 -0.9201 -0.5208
  146SAPE   HN215954   1.819   1.704  22.839 -2.9233  0.8787 -1.2273
  146SAPE   HN315955   1.808   1.876  22.855 -0.1440 -0.9541  1.6135
  146SAPE   C1215956   1.923   1.780  22.996  0.7632 -0.5260 -0.1980
  146SAPE  H12A15957   1.997   1.861  23.008 -0.0578  0.4176 -1.3041
  146SAPE  H12B15958   1.977   1.684  23.003  0.0721 -0.8531  1.0167
  146SAPE   C1115959   1.812   1.786  23.100  0.3747  0.1375 -0.0295
  146SAPE  H11A15960   1.739   1.870  23.102  1.6178  1.2609 -0.7522
  146SAPE  H11B15961   1.862   1.782  23.199 -0.0626  3.5728  0.4506
  146SAPE     P15962   1.692   1.580  23.199 -0.0770 -0.2469  0.3356
  146SAPE   O1315963   1.589   1.656  23.270 -0.6906 -0.1023 -0.0836
  146SAPE   O1415964   1.665   1.447  23.143 -0.3449 -0.2186  0.8288
  146SAPE   O1215965   1.735   1.668  23.087  0.8080 -0.1989  0.5729
  146SAPE   O1115966   1.811   1.569  23.292  0.2445 -0.1234 -0.3122
  146SAPE    C115967   1.936   1.509  23.261  0.1155  0.5655 -0.6162
  146SAPE    HA15968   1.942   1.457  23.162  1.2380 -1.1397  0.2868
  146SAPE    HB15969   2.020   1.581  23.269  1.2928 -0.8276 -0.0078
  146SAPE    C215970   1.977   1.400  23.369 -0.4198 -0.1262  0.0492
  146SAPE    HS15971   2.053   1.341  23.315 -1.8289 -3.8888  1.8335
  146SAPE   O2115972   1.871   1.312  23.404 -0.4663 -0.2560  0.2985
  146SAPE   C2115973   1.837   1.216  23.320 -0.0868 -0.6194  0.3581
  146SAPE   O2215974   1.902   1.189  23.220  0.3665 -0.2180 -0.3181
  146SAPE   C2215975   1.709   1.151  23.368 -0.4113 -0.0011  1.1716
  146SAPE   H2R15976   1.714   1.147  23.479 -1.4124  1.2517  1.2886
  146SAPE   H2S15977   1.627   1.222  23.345  0.3739  0.4769 -0.2934
  146SAPE    C315978   2.034   1.466  23.500 -0.8371 -0.2779 -0.6206
  146SAPE    HX15979   1.942   1.514  23.541 -1.2073 -1.0469 -0.5421
  146SAPE    HY15980   2.107   1.547  23.477 -1.7752  0.6952 -0.2835
  146SAPE   O3115981   2.085   1.378  23.600 -0.3062  0.2978  0.1666
  146SAPE   C3115982   2.201   1.321  23.582  0.2766  1.0727  0.5965
  146SAPE   O3215983   2.280   1.337  23.490  0.0099  0.0996 -0.0966
  146SAPE   C3215984   2.229   1.218  23.692  0.3990 -0.5687  0.1234
  146SAPE   H2X15985   2.143   1.149  23.701  0.1904 -0.1158  2.3171
  146SAPE   H2Y15986   2.230   1.280  23.785 -3.1015  1.6574 -1.1375
  146SAPE   C2315987   1.688   1.008  23.322 -0.3200 -0.2919  1.0530
  146SAPE   H3R15988   1.771   0.933  23.325 -1.9624 -2.1743  2.4392
  146SAPE   H3S15989   1.661   1.011  23.214  0.7478 -0.0324  0.7797
  146SAPE   C2415990   1.587   0.931  23.406  0.2851  0.4879 -0.3840
  146SAPE   H4R15991   1.636   0.919  23.505 -0.1329 -0.6279 -0.2898
  146SAPE   H4S15992   1.565   0.829  23.368 -3.0887  1.2596 -0.8667
  146SAPE   C2515993   1.455   0.993  23.408  0.2159 -0.2379  0.0377
  146SAPE   H5R15994   1.411   1.023  23.312 -0.3681  1.2004  0.7332
  146SAPE   C2615995   1.380   0.998  23.522 -1.0118  0.0083  0.4985
  146SAPE   H6R15996   1.283   1.047  23.507 -0.1155  1.5413 -0.5136
  146SAPE   C2715997   1.411   0.964  23.664  0.0870  0.5973  0.6005
  146SAPE   H7R15998   1.377   1.053  23.721  3.1697  3.3355 -1.4584
  146SAPE   H7S15999   1.519   0.952  23.688  0.2534  0.0451 -0.3848
  146SAPE   C2816000   1.332   0.843  23.722 -0.0569  0.3189 -0.6434
  146SAPE   H8R16001   1.289   0.772  23.651 -0.5163 -0.3389  0.2750
  146SAPE   C2916002   1.319   0.813  23.854  0.5125  0.4460 -0.2676
  146SAPE   H9R16003   1.255   0.729  23.887  1.3174  0.3912  1.2779
  146SAPE  C21016004   1.388   0.884  23.968 -0.2254 -0.0584 -1.1482
  146SAPE  H10R16005   1.347   0.985  23.989  0.3355 -0.0623  0.0718
  146SAPE  H10S16006   1.497   0.893  23.946 -0.2437  0.1374 -1.1619
  146SAPE  C21116007   1.385   0.804  24.102  0.0242 -0.5500  0.9644
  146SAPE  H11R16008   1.485   0.772  24.134  0.5326 -0.2612 -0.2559
  146SAPE  C21216009   1.282   0.762  24.170  0.2344 -0.4799  0.5255
  146SAPE  H12R16010   1.290   0.705  24.264  0.6634 -0.5711  0.4349
  146SAPE  C21316011   1.134   0.788  24.124 -0.2049 -0.6410 -0.2146
  146SAPE  H13R16012   1.117   0.706  24.051  2.9583  0.6750 -2.7241
  146SAPE  H13S16013   1.130   0.881  24.063 -2.7984 -0.6246 -0.1083
  146SAPE  C21416014   1.016   0.786  24.216 -0.3879 -0.4637  0.2628
  146SAPE  H14R16015   0.986   0.683  24.241  3.4394 -2.0275 -0.8596
  146SAPE  C21516016   0.943   0.890  24.255  0.4083  0.0857 -0.6835
  146SAPE  H15R16017   0.855   0.881  24.322  0.4023  0.2346 -0.6722
  146SAPE  C21616018   0.955   1.031  24.212 -0.2471 -0.8871 -0.5465
  146SAPE  H16R16019   0.970   1.038  24.102  1.2183 -1.2903 -0.3826
  146SAPE  H16S16020   1.040   1.080  24.263 -0.2873 -1.1356 -0.2433
  146SAPE  C21716021   0.835   1.110  24.259  0.5940  0.3057 -0.3207
  146SAPE  H17R16022   0.744   1.056  24.226 -0.1313  2.0477 -1.3367
  146SAPE  H17S16023   0.829   1.201  24.195 -2.3257  0.0140 -0.5840
  146SAPE  C21816024   0.837   1.147  24.411 -0.5746  0.1956 -0.1602
  146SAPE  H18R16025   0.908   1.233  24.415  1.6999 -1.5961 -0.0098
  146SAPE  H18S16026   0.891   1.078  24.479  1.0909  2.7274  1.2459
  146SAPE  C21916027   0.699   1.166  24.486  0.7017 -0.2830 -0.0691
  146SAPE  H19R16028   0.650   1.258  24.447  1.6925  0.7069  0.9342
  146SAPE  H19S16029   0.721   1.181  24.594 -1.2540 -1.6261  0.5701
  146SAPE  C22016030   0.613   1.038  24.474 -0.4856  0.3317 -0.0178
  146SAPE  H20R16031   0.686   0.954  24.485 -0.6793  0.5064  3.9892
  146SAPE  H20S16032   0.556   1.022  24.380 -1.3121 -0.9804  0.6727
  146SAPE  H20T16033   0.543   1.053  24.559 -1.7277 -1.2817 -0.7114
  146SAPE   C3316034   2.369   1.151  23.668 -0.8066 -0.3483  0.6399
  146SAPE   H3X16035   2.454   1.220  23.651 -0.6555 -0.5922  0.3982
  146SAPE   H3Y16036   2.347   1.092  23.576  0.2509 -1.0748  0.8355
  146SAPE   C3416037   2.410   1.060  23.780 -0.0716  0.1199 -0.3601
  146SAPE   H4X16038   2.418   1.122  23.872  1.5891 -0.9820  0.2903
  146SAPE   H4Y16039   2.508   1.016  23.752  1.0355  0.6422  2.3615
  146SAPE   C3516040   2.311   0.943  23.803  0.2676  0.2853 -0.1106
  146SAPE   H5X16041   2.289   0.908  23.700  0.2286 -0.7098  0.2229
  146SAPE   H5Y16042   2.217   0.972  23.855 -0.1685  2.4555 -1.9510
  146SAPE   C3616043   2.377   0.825  23.874 -0.1614 -0.1999 -0.0347
  146SAPE   H6X16044   2.434   0.874  23.956  0.0308 -1.3158  0.5196
  146SAPE   H6Y16045   2.452   0.764  23.820  1.4560  2.2563 -0.7123
  146SAPE   C3716046   2.269   0.731  23.926 -0.0043  0.3684 -0.2142
  146SAPE   H7X16047   2.219   0.668  23.850  1.3004  2.8845 -3.3538
  146SAPE   H7Y16048   2.183   0.793  23.961 -1.2474 -0.8071 -1.0853
  146SAPE   C3816049   2.307   0.642  24.043  0.1842  0.5229 -0.6980
  146SAPE   H8X16050   2.334   0.701  24.133  2.1799 -1.2722 -0.0335
  146SAPE   H8Y16051   2.401   0.591  24.012  0.1460  1.0664 -1.7721
  146SAPE   C3916052   2.200   0.550  24.098  0.2266  0.1015  0.2671
  146SAPE   H9X16053   2.173   0.490  24.009  2.8866  0.0840 -0.6012
  146SAPE   H9Y16054   2.108   0.601  24.135 -0.2814  0.6771 -1.6651
  146SAPE  C31016055   2.256   0.447  24.202  0.4757  0.3831 -0.2994
  146SAPE  H10X16056   2.304   0.493  24.291  1.1176 -0.3658 -0.2579
  146SAPE  H10Y16057   2.334   0.384  24.155  0.2386  0.3888 -0.7080
  146SAPE  C31116058   2.145   0.358  24.257 -0.2620 -0.0221  0.6350
  146SAPE  H11X16059   2.063   0.420  24.299 -0.0980  1.1299 -0.7105
  146SAPE  H11Y16060   2.175   0.292  24.342 -1.8628 -0.0451  1.2229
  146SAPE  C31216061   2.072   0.251  24.161 -0.1945 -0.5412  0.4467
  146SAPE  H12X16062   2.151   0.185  24.120 -0.5341 -0.0472 -1.0552
  146SAPE  H12Y16063   2.026   0.291  24.068  0.7142 -2.1121 -0.7165
  146SAPE  C31316064   1.965   0.161  24.231  0.3748 -0.0454  0.2871
  146SAPE  H13X16065   1.874   0.223  24.245  1.2068  1.0784  0.8930
  146SAPE  H13Y16066   2.004   0.142  24.334 -2.4804 -0.0375  1.4756
  146SAPE  C31416067   1.928   0.037  24.155  0.6718  0.9301 -0.1731
  146SAPE  H14X16068   1.937   0.067  24.048  1.8259 -0.0825 -0.3807
  146SAPE  H14Y16069   1.824   0.004  24.171  0.6225 -0.6086 -3.0419
  146SAPE  C31516070   2.024  -0.073  24.182 -0.5109 -0.5458 -0.5993
  146SAPE  H15X16071   2.029  -0.119  24.283  1.6915  1.4096  0.2778
  146SAPE  H15Y16072   2.124  -0.026  24.169  0.0902 -1.9398 -1.1917
  146SAPE  C31616073   2.033  -0.174  24.075  0.0870  0.4548  0.6841
  146SAPE  H16X16074   1.989  -0.128  23.984 -1.5345  0.6436  1.5293
  146SAPE  H16Y16075   1.964  -0.261  24.083 -3.1004  2.8745  1.5345
  146SAPE  C31716076   2.167  -0.231  24.041  0.4082  0.7187 -0.4092
  146SAPE  H17X16077   2.244  -0.160  24.005  1.3642  0.8703  1.7985
  146SAPE  H17Y16078   2.133  -0.286  23.951 -2.3958  1.9732 -0.2206
  146SAPE  C31816079   2.225  -0.328  24.138  0.3492 -0.3579  0.2569
  146SAPE  H18X16080   2.143  -0.400  24.158  0.7750 -0.4404  1.8620
  146SAPE  H18Y16081   2.261  -0.276  24.229  1.4000 -0.0999 -0.2865
  146SAPE  H18Z16082   2.301  -0.390  24.085  0.4036  0.9215 -1.2218
  147SAPE     N16083   2.158   2.008  21.423 -0.1872  0.0700  0.2759
  147SAPE   HN116084   2.083   2.056  21.476  1.1386  0.6715  1.6706
  147SAPE   HN216085   2.130   1.915  21.383 -2.6181  0.5429  0.6779
  147SAPE   HN316086   2.236   1.981  21.486 -0.4717  0.4511  0.8048
  147SAPE   C1216087   2.214   2.088  21.305  1.0377  0.3177  0.9225
  147SAPE  H12A16088   2.147   2.072  21.219 -0.1716  1.3255  1.6486
  147SAPE  H12B16089   2.316   2.047  21.286  0.4741 -0.9312  0.4767
  147SAPE   C1116090   2.208   2.241  21.333  0.7512 -0.1451 -0.4691
  147SAPE  H11A16091   2.103   2.274  21.318  0.6158  0.2688  1.2042
  147SAPE  H11B16092   2.278   2.290  21.261  1.4756 -1.4774 -0.6970
  147SAPE     P16093   2.346   2.355  21.520 -0.2308 -0.0642  0.1062
  147SAPE   O1316094   2.355   2.341  21.665  0.1957 -0.6882 -0.0627
  147SAPE   O1416095   2.471   2.332  21.442 -0.2776  0.0808  0.2312
  147SAPE   O1216096   2.235   2.258  21.472 -0.4826 -0.1708  0.9065
  147SAPE   O1116097   2.277   2.489  21.493  0.0849  0.0284 -0.1775
  147SAPE    C116098   2.207   2.574  21.587 -0.1609  0.1471  0.5478
  147SAPE    HA16099   2.248   2.553  21.688  1.5784  1.3143  0.1281
  147SAPE    HB16100   2.241   2.677  21.562  1.3523 -0.4651 -0.0386
  147SAPE    C216101   2.054   2.546  21.572 -0.1152  1.1563 -0.7215
  147SAPE    HS16102   2.034   2.441  21.600 -0.0990  1.6458  1.2599
  147SAPE   O2116103   2.016   2.571  21.436  0.2751  0.5948  0.2658
  147SAPE   C2116104   1.903   2.523  21.403 -0.3842  0.1887 -0.0421
  147SAPE   O2216105   1.830   2.441  21.459  0.1423 -0.6482  0.6504
  147SAPE   C2216106   1.871   2.570  21.265  0.1326  0.0739 -1.0763
  147SAPE   H2R16107   1.785   2.641  21.272  0.2689  0.1043  0.7083
  147SAPE   H2S16108   1.963   2.620  21.229  2.3855 -2.0054  1.3936
  147SAPE    C316109   1.979   2.632  21.677 -1.2598  0.3315 -0.1024
  147SAPE    HX16110   1.986   2.580  21.775  0.9085  0.2382 -0.2468
  147SAPE    HY16111   1.872   2.638  21.649 -1.6852  1.2531  1.5782
  147SAPE   O3116112   2.025   2.766  21.686 -0.3211  0.2644 -0.3756
  147SAPE   C3116113   2.105   2.797  21.788 -0.2749 -0.2656 -0.2302
  147SAPE   O3216114   2.139   2.734  21.884 -0.1453 -0.2524 -0.4217
  147SAPE   C3216115   2.135   2.945  21.768 -0.1532  0.0361 -0.5055
  147SAPE   H2X16116   2.110   2.990  21.866 -1.0202 -1.7969  0.1524
  147SAPE   H2Y16117   2.061   2.979  21.692  0.0837 -0.3129 -0.8983
  147SAPE   C2316118   1.828   2.461  21.158 -0.2450 -0.4093 -0.0093
  147SAPE   H3R16119   1.736   2.411  21.195 -0.4246 -1.3575 -1.6550
  147SAPE   H3S16120   1.908   2.385  21.144  1.8966  1.7291 -0.0206
  147SAPE   C2416121   1.787   2.532  21.023  0.0272  0.3283 -0.2615
  147SAPE   H4R16122   1.706   2.601  21.053 -0.5870 -1.1079  1.5890
  147SAPE   H4S16123   1.740   2.461  20.952 -0.5717  2.9398 -2.6435
  147SAPE   C2516124   1.896   2.595  20.944 -0.5067  0.0387  0.5636
  147SAPE   H5R16125   1.993   2.544  20.931 -0.9059 -0.8641  0.9746
  147SAPE   C2616126   1.880   2.710  20.881 -0.5292 -0.1187 -0.3587
  147SAPE   H6R16127   1.958   2.751  20.816 -0.6780 -0.6174 -0.8531
  147SAPE   C2716128   1.750   2.794  20.877  0.7422  0.2368 -0.1830
  147SAPE   H7R16129   1.740   2.844  20.976 -0.5240 -1.5444  0.6332
  147SAPE   H7S16130   1.662   2.729  20.857  0.2260  0.0874  2.2335
  147SAPE   C2816131   1.752   2.900  20.777 -0.3454  0.4609 -0.0436
  147SAPE   H8R16132   1.713   2.867  20.679 -0.8333  0.1928  0.2380
  147SAPE   C2916133   1.789   3.030  20.789 -0.4564  0.0409 -0.3385
  147SAPE   H9R16134   1.783   3.086  20.694 -0.9288 -0.6064 -0.6991
  147SAPE  C21016135   1.841   3.095  20.917 -0.4467 -0.2156  0.1163
  147SAPE  H10R16136   1.906   3.183  20.894  1.2649 -0.9870  1.7479
  147SAPE  H10S16137   1.909   3.029  20.974  0.1440 -0.0284 -0.3587
  147SAPE  C21116138   1.732   3.131  21.018  0.9630 -0.3680  0.7722
  147SAPE  H11R16139   1.685   3.040  21.056  0.5294 -1.1316 -1.4173
  147SAPE  C21216140   1.671   3.248  21.048 -0.7775 -0.0737 -0.3861
  147SAPE  H12R16141   1.591   3.248  21.124 -1.8787 -1.0238 -1.4889
  147SAPE  C21316142   1.697   3.389  20.990 -0.4046  0.3635  0.6764
  147SAPE  H13R16143   1.624   3.412  20.909  0.9722  0.7171 -0.4951
  147SAPE  H13S16144   1.800   3.390  20.950 -0.4015 -1.0458  0.5973
  147SAPE  C21416145   1.682   3.490  21.102 -0.3458  0.8129  0.1826
  147SAPE  H14R16146   1.644   3.459  21.200 -0.5292  0.6253  0.0521
  147SAPE  C21516147   1.704   3.620  21.094  0.4336  0.2955 -0.2270
  147SAPE  H15R16148   1.703   3.676  21.188  2.0900 -2.4308  1.5615
  147SAPE  C21616149   1.766   3.709  20.987  0.0763 -0.6728  0.1856
  147SAPE  H16R16150   1.796   3.639  20.906 -0.5128 -0.6975 -0.0131
  147SAPE  H16S16151   1.853   3.772  21.015  0.7616 -1.5457  0.0907
  147SAPE  C21716152   1.664   3.815  20.935  0.3828  0.3962  0.1944
  147SAPE  H17R16153   1.585   3.753  20.888  1.7087 -0.3786 -1.0720
  147SAPE  H17S16154   1.721   3.870  20.857  0.6720 -2.1163 -1.4673
  147SAPE  C21816155   1.594   3.915  21.038  0.1328  0.0044 -0.0574
  147SAPE  H18R16156   1.539   3.861  21.119 -1.2184 -2.5797 -2.4997
  147SAPE  H18S16157   1.529   3.979  20.974  0.1898  1.7472  1.5412
  147SAPE  C21916158   1.707   4.006  21.098  0.4777  0.3051 -0.1067
  147SAPE  H19R16159   1.760   4.053  21.012 -0.6303  2.4488  0.3074
  147SAPE  H19S16160   1.783   3.944  21.151  0.6896  0.1925 -0.5388
  147SAPE  C22016161   1.648   4.110  21.190 -0.5976 -0.5938  0.4588
  147SAPE  H20R16162   1.556   4.149  21.143  1.0372  2.8052 -0.2153
  147SAPE  H20S16163   1.713   4.200  21.198 -1.4036 -0.0897  1.4975
  147SAPE  H20T16164   1.626   4.057  21.284 -4.0375 -1.2407 -0.5794
  147SAPE   C3316165   2.276   2.969  21.723  0.6477  0.3287 -0.8738
  147SAPE   H3X16166   2.276   3.069  21.673 -1.5141 -0.0290 -1.7057
  147SAPE   H3Y16167   2.306   2.910  21.634 -2.0960 -1.1056 -0.9430
  147SAPE   C3416168   2.375   2.997  21.832 -0.3719  0.4135  0.5277
  147SAPE   H4X16169   2.356   2.911  21.901 -0.0331 -0.9903 -1.0719
  147SAPE   H4Y16170   2.355   3.094  21.882  0.7944  0.8570  0.1697
  147SAPE   C3516171   2.519   2.998  21.779  0.2411 -0.1471 -0.2051
  147SAPE   H5X16172   2.516   3.056  21.684  0.6335 -0.1663 -0.2294
  147SAPE   H5Y16173   2.548   2.895  21.751  3.0826  0.4664  0.2312
  147SAPE   C3616174   2.625   3.044  21.879  0.7299 -0.2949  0.2982
  147SAPE   H6X16175   2.639   2.969  21.960  1.2047 -0.0834  0.4136
  147SAPE   H6Y16176   2.586   3.139  21.922 -0.3012  0.3050 -1.8262
  147SAPE   C3716177   2.761   3.074  21.809 -0.1521  0.6724 -0.2353
  147SAPE   H7X16178   2.748   3.143  21.723 -0.5319 -3.1276 -3.5311
  147SAPE   H7Y16179   2.791   2.975  21.769 -0.4035  0.5178 -0.0427
  147SAPE   C3816180   2.880   3.132  21.892  0.0341  0.3440  0.0763
  147SAPE   H8X16181   2.970   3.118  21.829 -0.3685  2.0978 -0.9480
  147SAPE   H8Y16182   2.898   3.068  21.982 -0.0663 -0.6225 -0.5769
  147SAPE   C3916183   2.864   3.282  21.927 -0.6615 -0.6361 -0.4846
  147SAPE   H9X16184   2.769   3.292  21.985 -0.6216  1.5286 -0.7349
  147SAPE   H9Y16185   2.841   3.323  21.826 -0.8867  0.6024  0.0500
  147SAPE  C31016186   2.990   3.359  21.972 -0.2676  0.8213 -0.8727
  147SAPE  H10X16187   2.979   3.461  22.015  1.9266  1.2198 -1.1096
  147SAPE  H10Y16188   3.061   3.379  21.888  0.7248  1.4810  0.0860
  147SAPE  C31116189   3.067   3.269  22.077  0.1235 -0.4878  0.7132
  147SAPE  H11X16190   3.105   3.176  22.030  0.5402  1.4115 -3.1769
  147SAPE  H11Y16191   2.998   3.233  22.156 -0.7450  0.3962  0.3723
  147SAPE  C31216192   3.183   3.341  22.136  0.4068  0.1734  0.3316
  147SAPE  H12X16193   3.143   3.436  22.177 -2.0687 -0.6012 -0.1217
  147SAPE  H12Y16194   3.250   3.372  22.053  0.7765  0.3549  0.6978
  147SAPE  C31316195   3.259   3.249  22.238 -0.0809  0.5695 -0.1522
  147SAPE  H13X16196   3.264   3.144  22.204  1.6106  0.0442  1.6013
  147SAPE  H13Y16197   3.205   3.263  22.334  0.7717 -0.1490  0.4340
  147SAPE  C31416198   3.391   3.313  22.272  0.5480  1.0305 -0.3086
  147SAPE  H14X16199   3.415   3.282  22.376  1.4017  4.7210  0.7304
  147SAPE  H14Y16200   3.402   3.423  22.281  0.7811  0.8547  3.3467
  147SAPE  C31516201   3.493   3.241  22.172  0.5729  0.0838  0.3223
  147SAPE  H15X16202   3.474   3.291  22.074  1.2364  0.7895  0.5368
  147SAPE  H15Y16203   3.468   3.134  22.161 -0.8741  0.3274  1.0039
  147SAPE  C31616204   3.642   3.265  22.220  0.5232 -0.3307  0.3433
  147SAPE  H16X16205   3.641   3.285  22.330  0.1456 -0.9225  0.4519
  147SAPE  H16Y16206   3.685   3.354  22.171  0.6336 -0.4311  0.2566
  147SAPE  C31716207   3.733   3.144  22.203 -0.1269 -0.9461  0.4642
  147SAPE  H17X16208   3.722   3.118  22.096 -0.3911  0.6434  0.0742
  147SAPE  H17Y16209   3.699   3.059  22.266  2.2730 -3.1808 -1.0586
  147SAPE  C31816210   3.877   3.186  22.239 -0.2255 -0.4832 -0.2691
  147SAPE  H18X16211   3.875   3.229  22.341 -0.2016  0.4398 -0.6487
  147SAPE  H18Y16212   3.915   3.263  22.169  1.1435 -2.2283 -1.5361
  147SAPE  H18Z16213   3.948   3.101  22.244  0.7185  0.2475 -0.7747
  148SAPE     N16214   3.412   2.005  19.183 -0.7638 -0.0169  0.3306
  148SAPE   HN116215   3.432   1.970  19.087 -1.3497 -0.3447  0.3201
  148SAPE   HN216216   3.502   2.025  19.232 -0.2442 -3.2635  0.9342
  148SAPE   HN316217   3.370   1.930  19.241  1.5977 -0.8217  1.1329
  148SAPE   C1216218   3.323   2.126  19.182  0.2719  0.6372  0.3347
  148SAPE  H12A16219   3.306   2.141  19.291 -1.3280 -3.1280  0.7382
  148SAPE  H12B16220   3.225   2.096  19.139 -0.9309  3.0184  1.2452
  148SAPE   C1116221   3.385   2.251  19.113  0.1585  0.2594  0.2681
  148SAPE  H11A16222   3.476   2.288  19.165  0.3887  0.1668 -0.0643
  148SAPE  H11B16223   3.308   2.331  19.113  1.0587  1.2184  2.5705
  148SAPE     P16224   3.551   2.183  18.915  0.2058  0.0212  0.0930
  148SAPE   O1316225   3.604   2.077  19.004 -0.4569  0.6926 -0.3258
  148SAPE   O1416226   3.531   2.154  18.772  0.6208  0.7043 -0.2426
  148SAPE   O1216227   3.413   2.242  18.972  0.1053  0.6884 -0.3751
  148SAPE   O1116228   3.640   2.310  18.927  0.3583 -0.2269  0.1218
  148SAPE    C116229   3.781   2.303  18.948 -0.0399 -0.5782 -0.2334
  148SAPE    HA16230   3.800   2.233  19.031 -0.5997  0.3453  0.7079
  148SAPE    HB16231   3.839   2.265  18.862  1.3929  1.4663 -0.2478
  148SAPE    C216232   3.844   2.445  18.989 -0.0744 -0.4602 -0.6147
  148SAPE    HS16233   3.950   2.421  19.013 -0.6999 -0.0515  3.1862
  148SAPE   O2116234   3.782   2.503  19.101 -0.4412  0.4897 -1.1931
  148SAPE   C2116235   3.800   2.437  19.214 -0.4346  0.9417 -0.1657
  148SAPE   O2216236   3.873   2.337  19.234  0.2693 -0.2378  0.4703
  148SAPE   C2216237   3.712   2.510  19.312  0.6427 -0.3237  0.3105
  148SAPE   H2R16238   3.708   2.618  19.289 -0.5531 -0.2947  0.5406
  148SAPE   H2S16239   3.608   2.470  19.314  1.1262 -1.6271  0.6916
  148SAPE    C316240   3.841   2.557  18.879  0.7017  0.4171  0.2919
  148SAPE    HX16241   3.843   2.656  18.930 -0.1295  1.5745 -1.8071
  148SAPE    HY16242   3.744   2.548  18.827  1.2012 -0.1229 -0.5739
  148SAPE   O3116243   3.948   2.529  18.789  0.4279 -0.0772  0.2379
  148SAPE   C3116244   3.936   2.597  18.673  0.1957  0.4473 -0.4479
  148SAPE   O3216245   3.836   2.660  18.639 -0.1363 -0.4210 -0.0278
  148SAPE   C3216246   4.061   2.565  18.584  0.4199 -0.4144  0.1592
  148SAPE   H2X16247   4.048   2.468  18.530  0.0046 -1.3558  1.8842
  148SAPE   H2Y16248   4.148   2.572  18.653  0.6826  1.6097 -0.3214
  148SAPE   C2316249   3.760   2.475  19.458 -0.5337  0.2952  0.0408
  148SAPE   H3R16250   3.871   2.480  19.454 -0.4787 -0.9679 -1.3953
  148SAPE   H3S16251   3.747   2.365  19.474  1.2190  0.0152 -0.2449
  148SAPE   C2416252   3.682   2.557  19.566  0.2568  0.0515  0.7506
  148SAPE   H4R16253   3.664   2.662  19.535  4.1804  1.3152  2.1376
  148SAPE   H4S16254   3.756   2.562  19.649  0.4847 -2.5626  0.7973
  148SAPE   C2516255   3.553   2.484  19.607 -0.1489 -0.0802 -0.0869
  148SAPE   H5R16256   3.559   2.387  19.659  0.2112 -0.2435 -0.4198
  148SAPE   C2616257   3.431   2.519  19.574 -0.0837  0.5453  0.4909
  148SAPE   H6R16258   3.342   2.462  19.604  0.5115  0.2036  1.6829
  148SAPE   C2716259   3.396   2.648  19.511 -0.8218 -1.3206 -0.3528
  148SAPE   H7R16260   3.454   2.658  19.417 -2.9715  0.7727 -1.5749
  148SAPE   H7S16261   3.430   2.733  19.574  1.7241 -1.5609 -1.2975
  148SAPE   C2816262   3.250   2.661  19.475 -1.2916 -0.1176  0.2301
  148SAPE   H8R16263   3.189   2.676  19.565 -1.6459 -0.2639  0.0157
  148SAPE   C2916264   3.202   2.673  19.348  0.6541 -0.0706 -0.2786
  148SAPE   H9R16265   3.096   2.702  19.351  0.4025 -0.9737  2.5898
  148SAPE  C21016266   3.266   2.650  19.214 -0.3634 -0.0821 -0.1649
  148SAPE  H10R16267   3.208   2.571  19.161 -0.4524 -0.0616 -0.0983
  148SAPE  H10S16268   3.371   2.616  19.226 -0.2675 -0.1951 -1.2425
  148SAPE  C21116269   3.285   2.763  19.120 -0.0333 -0.2426  0.1936
  148SAPE  H11R16270   3.217   2.767  19.033  0.9148  2.8269 -0.5137
  148SAPE  C21216271   3.374   2.862  19.127  0.0671 -0.1820 -0.7349
  148SAPE  H12R16272   3.362   2.937  19.048 -0.8840  0.3933 -0.0662
  148SAPE  C21316273   3.468   2.879  19.246  0.1418 -0.3646  0.9449
  148SAPE  H13R16274   3.532   2.793  19.276 -0.2245 -0.1823  2.2850
  148SAPE  H13S16275   3.413   2.908  19.338 -0.6565  1.2331  0.0144
  148SAPE  C21416276   3.561   2.995  19.207  0.1270  1.2823 -0.7696
  148SAPE  H14R16277   3.544   3.034  19.105  1.1454 -1.4503 -2.0758
  148SAPE  C21516278   3.638   3.061  19.287 -0.5602 -0.1281  0.4764
  148SAPE  H15R16279   3.705   3.138  19.245 -0.2728  0.5011  2.0142
  148SAPE  C21616280   3.666   3.011  19.426 -0.1481 -0.2337  0.2115
  148SAPE  H16R16281   3.775   2.988  19.422 -0.3714 -1.1720 -2.3238
  148SAPE  H16S16282   3.625   2.910  19.446 -0.9621 -0.0618 -0.5480
  148SAPE  C21716283   3.619   3.107  19.534  0.1504 -1.2489  0.0458
  148SAPE  H17R16284   3.508   3.110  19.540  0.1885  0.8865  0.2912
  148SAPE  H17S16285   3.648   3.209  19.501 -1.0088 -0.7215  0.6041
  148SAPE  C21816286   3.687   3.094  19.668 -0.2089  0.6486 -0.5169
  148SAPE  H18R16287   3.640   3.159  19.745  1.8388 -0.2012  1.5876
  148SAPE  H18S16288   3.794   3.124  19.670  0.1538 -0.1410  3.9047
  148SAPE  C21916289   3.675   2.957  19.724 -0.0408 -0.0534  0.4517
  148SAPE  H19R16290   3.738   2.887  19.665  0.3057 -0.1686  0.9495
  148SAPE  H19S16291   3.568   2.929  19.730 -0.5039  1.3570 -0.6324
  148SAPE  C22016292   3.710   2.947  19.870  0.1329 -0.3592 -0.1432
  148SAPE  H20R16293   3.686   2.849  19.915 -0.6017  0.9660  2.6389
  148SAPE  H20S16294   3.657   3.024  19.931  0.4281 -1.3807  1.4758
  148SAPE  H20T16295   3.820   2.955  19.882  0.0951 -2.2430  2.2601
  148SAPE   C3316296   4.091   2.675  18.473  0.1427  0.1320 -0.0200
  148SAPE   H3X16297   4.188   2.651  18.426  1.2402  1.3126  1.5064
  148SAPE   H3Y16298   4.092   2.773  18.527  0.7822 -0.8471  1.8398
  148SAPE   C3416299   3.984   2.654  18.365 -0.1960 -0.0620 -0.4858
  148SAPE   H4X16300   3.882   2.676  18.402  0.0841 -3.2128  2.7104
  148SAPE   H4Y16301   3.986   2.549  18.328  1.8118  0.1972 -1.2337
  148SAPE   C3516302   4.019   2.745  18.240 -0.3265 -0.2604 -0.5169
  148SAPE   H5X16303   3.949   2.720  18.158  2.8778 -3.3490 -2.5817
  148SAPE   H5Y16304   4.118   2.715  18.199 -0.4698 -0.3651 -0.7844
  148SAPE   C3616305   4.038   2.894  18.264  0.0246  0.4079 -0.1234
  148SAPE   H6X16306   4.110   2.931  18.340 -2.2881  4.3108  0.4620
  148SAPE   H6Y16307   3.947   2.929  18.318  1.9192  1.4754  2.5822
  148SAPE   C3716308   4.051   2.968  18.129  0.3637  0.8108  0.4458
  148SAPE   H7X16309   4.004   3.066  18.151  1.3224  1.8156 -1.7526
  148SAPE   H7Y16310   3.988   2.926  18.048 -0.1255 -0.6833  1.5679
  148SAPE   C3816311   4.193   2.991  18.081 -0.2179  0.2987  0.1281
  148SAPE   H8X16312   4.231   2.888  18.062  0.7462  0.3967  1.3909
  148SAPE   H8Y16313   4.241   3.038  18.170  0.2625 -0.1161  0.0934
  148SAPE   C3916314   4.207   3.069  17.952  0.0126 -0.2689 -0.6415
  148SAPE   H9X16315   4.160   3.169  17.967 -1.1398 -1.2534  3.4116
  148SAPE   H9Y16316   4.158   3.013  17.869  0.9483 -1.4935 -0.3846
  148SAPE  C31016317   4.357   3.103  17.919 -0.1757  0.7817  0.6125
  148SAPE  H10X16318   4.413   3.007  17.917 -3.3071 -1.3428  3.6269
  148SAPE  H10Y16319   4.407   3.164  17.998 -0.4769  2.4060 -0.4084
  148SAPE  C31116320   4.378   3.186  17.790 -0.2405  0.0357  1.0081
  148SAPE  H11X16321   4.341   3.290  17.797  1.3200  0.8439 -1.5417
  148SAPE  H11Y16322   4.317   3.143  17.707  1.7545 -0.8540 -0.0680
  148SAPE  C31216323   4.527   3.191  17.741  0.5743  0.7760 -0.5687
  148SAPE  H12X16324   4.570   3.088  17.746 -0.9937  0.0764 -0.6747
  148SAPE  H12Y16325   4.591   3.264  17.794  2.7277  0.7262 -2.9123
  148SAPE  C31316326   4.541   3.210  17.592  0.0403  0.5384  0.5357
  148SAPE  H13X16327   4.505   3.310  17.561 -0.1448  0.0200 -1.0263
  148SAPE  H13Y16328   4.496   3.127  17.534  2.0163 -0.0548 -0.2462
  148SAPE  C31416329   4.682   3.206  17.544 -0.8046  0.1865  0.2623
  148SAPE  H14X16330   4.724   3.105  17.560 -0.0888  0.4532  0.1006
  148SAPE  H14Y16331   4.735   3.284  17.604 -0.3734  0.5111 -0.5224
  148SAPE  C31516332   4.684   3.235  17.390  0.2110 -0.5568  0.8595
  148SAPE  H15X16333   4.638   3.330  17.357  0.1697 -0.4408  1.2364
  148SAPE  H15Y16334   4.625   3.156  17.339 -1.9933  1.1186  0.6996
  148SAPE  C31616335   4.823   3.223  17.335 -0.0785  0.1992  0.4652
  148SAPE  H16X16336   4.885   3.294  17.394 -1.5195  1.2204  0.8186
  148SAPE  H16Y16337   4.830   3.279  17.239 -1.0732  2.5686  1.6879
  148SAPE  C31716338   4.875   3.080  17.328  0.1605  0.1897 -0.0839
  148SAPE  H17X16339   4.797   3.030  17.266  1.6228 -0.0929 -1.7639
  148SAPE  H17Y16340   4.877   3.036  17.431 -1.3081  0.6460  0.1592
  148SAPE  C31816341   5.014   3.071  17.265 -0.2961  0.5230  1.1111
  148SAPE  H18X16342   5.060   2.970  17.274 -0.7458  0.0315 -1.2553
  148SAPE  H18Y16343   5.078   3.139  17.325  0.5633  0.2758  0.5082
  148SAPE  H18Z16344   5.014   3.097  17.157 -0.9675  0.3526  1.0651
  149SAPE     N16345   3.173   1.309  18.258  0.3003  0.1627  0.4449
  149SAPE   HN116346   3.211   1.358  18.341 -2.6433  1.8166  0.9800
  149SAPE   HN216347   3.123   1.379  18.199  0.1861  0.7633  1.2257
  149SAPE   HN316348   3.100   1.242  18.291  0.9104 -1.2474 -0.9305
  149SAPE   C1216349   3.275   1.238  18.179 -0.3692  0.9987  0.4364
  149SAPE  H12A16350   3.351   1.316  18.159  0.5987  0.5503  2.1473
  149SAPE  H12B16351   3.228   1.201  18.085  0.0429 -0.0645  0.6395
  149SAPE   C1116352   3.334   1.128  18.271  0.3029 -0.2698 -0.4664
  149SAPE  H11A16353   3.421   1.081  18.221  0.7628  1.5170 -1.4442
  149SAPE  H11B16354   3.252   1.057  18.294 -2.1125  1.2438 -3.5309
  149SAPE     P16355   3.371   1.119  18.539 -0.0604  0.3566  0.2608
  149SAPE   O1316356   3.486   1.165  18.618  0.0380 -0.2111  0.1023
  149SAPE   O1416357   3.234   1.148  18.583 -0.4977  0.1362 -0.3406
  149SAPE   O1216358   3.379   1.181  18.393  0.7519 -0.0130  0.0225
  149SAPE   O1116359   3.379   0.969  18.519 -0.4450 -0.4163  0.3248
  149SAPE    C116360   3.495   0.905  18.462  0.8746 -0.5769  0.7831
  149SAPE    HA16361   3.496   0.908  18.351  1.1190 -2.2218  0.7252
  149SAPE    HB16362   3.596   0.941  18.493  1.5883 -3.0634  1.5326
  149SAPE    C216363   3.487   0.756  18.490  0.2762  0.2524 -0.6294
  149SAPE    HS16364   3.384   0.719  18.470 -1.1098  3.5085 -0.2984
  149SAPE   O2116365   3.537   0.722  18.621 -0.9189 -0.2862 -0.7556
  149SAPE   C2116366   3.448   0.739  18.721  0.0419  0.5462  0.7607
  149SAPE   O2216367   3.330   0.763  18.707  0.3438  0.2118 -0.5282
  149SAPE   C2216368   3.527   0.736  18.846  0.3573  0.3109 -0.8712
  149SAPE   H2R16369   3.637   0.746  18.839  0.6530  0.0712  2.0915
  149SAPE   H2S16370   3.483   0.823  18.900  1.0882  0.8397 -1.1164
  149SAPE    C316371   3.584   0.685  18.393  0.2861 -0.4081  0.6683
  149SAPE    HX16372   3.690   0.704  18.421  0.2987  1.4013 -0.4133
  149SAPE    HY16373   3.575   0.729  18.291  1.7193  1.2496  1.2004
  149SAPE   O3116374   3.558   0.546  18.386 -0.5556 -0.2797 -0.1597
  149SAPE   C3116375   3.456   0.504  18.310  0.0285 -0.0795  0.1094
  149SAPE   O3216376   3.377   0.577  18.252 -0.2035  0.5433  0.2250
  149SAPE   C3216377   3.465   0.354  18.297 -0.4790 -0.8776  0.0368
  149SAPE   H2X16378   3.399   0.315  18.377 -0.8235  1.1231  0.8068
  149SAPE   H2Y16379   3.572   0.329  18.316  0.2232  1.6391 -0.1512
  149SAPE   C2316380   3.494   0.611  18.934  0.3628  0.4957 -0.7984
  149SAPE   H3R16381   3.385   0.594  18.934  0.6222 -1.2877 -0.8086
  149SAPE   H3S16382   3.525   0.625  19.039 -0.7209  0.2522 -0.4395
  149SAPE   C2416383   3.558   0.481  18.870 -0.2274 -0.8098  0.1847
  149SAPE   H4R16384   3.542   0.485  18.760  3.0669 -1.3258 -0.4377
  149SAPE   H4S16385   3.492   0.401  18.910 -0.9849 -0.3325 -0.0894
  149SAPE   C2516386   3.703   0.470  18.903  0.2349  0.2641  0.8398
  149SAPE   H5R16387   3.726   0.504  19.005  2.4564  0.3811  0.3348
  149SAPE   C2616388   3.791   0.403  18.824  0.1197  0.8114  0.7857
  149SAPE   H6R16389   3.897   0.398  18.852  0.7451  2.7013 -1.0058
  149SAPE   C2716390   3.753   0.348  18.688  0.4062 -0.0479  0.3360
  149SAPE   H7R16391   3.644   0.327  18.694  0.0214  2.0518  2.0490
  149SAPE   H7S16392   3.811   0.255  18.668 -0.8763 -0.6223 -0.9378
  149SAPE   C2816393   3.779   0.434  18.565 -0.4820 -0.1038  0.1329
  149SAPE   H8R16394   3.761   0.542  18.579  0.9267 -0.0018  1.4486
  149SAPE   C2916395   3.819   0.389  18.445  0.1383 -0.3263 -0.0609
  149SAPE   H9R16396   3.852   0.468  18.376 -1.0965  0.6838  0.4513
  149SAPE  C21016397   3.826   0.242  18.410 -0.3354 -0.2818 -0.4754
  149SAPE  H10R16398   3.750   0.178  18.461 -0.9813 -1.3744 -2.6985
  149SAPE  H10S16399   3.920   0.196  18.448 -1.2324 -0.8625  1.1374
  149SAPE  C21116400   3.823   0.230  18.260  0.5086  0.2202 -0.0183
  149SAPE  H11R16401   3.882   0.308  18.210  0.2320  0.5437  0.1573
  149SAPE  C21216402   3.767   0.135  18.184 -0.1484 -0.5521 -0.6815
  149SAPE  H12R16403   3.766   0.153  18.075 -1.0860  0.8858 -0.4697
  149SAPE  C21316404   3.699   0.011  18.239  0.3171  0.5621 -0.1801
  149SAPE  H13R16405   3.637   0.039  18.327  0.6304  0.9919 -0.0915
  149SAPE  H13S16406   3.779  -0.054  18.280 -0.0809 -1.0447 -1.8667
  149SAPE  C21416407   3.620  -0.064  18.142 -0.2502 -0.1386  0.0241
  149SAPE  H14R16408   3.624  -0.035  18.036  1.2306  2.0708  0.6269
  149SAPE  C21516409   3.542  -0.166  18.182  1.0780 -0.2849 -0.2295
  149SAPE  H15R16410   3.476  -0.221  18.113 -0.5608  1.4357 -0.1159
  149SAPE  C21616411   3.505  -0.196  18.330  0.3617 -0.3065  0.4737
  149SAPE  H16R16412   3.550  -0.135  18.411  0.4214  0.6972 -0.2926
  149SAPE  H16S16413   3.540  -0.299  18.351  0.5611 -0.0587  1.4009
  149SAPE  C21716414   3.352  -0.197  18.342  0.6005 -0.5672 -0.6367
  149SAPE  H17R16415   3.318  -0.225  18.444 -1.7331  0.1445 -1.1632
  149SAPE  H17S16416   3.320  -0.276  18.272 -1.1786  0.0288 -0.5416
  149SAPE  C21816417   3.275  -0.062  18.315 -0.5526 -0.0294 -0.5440
  149SAPE  H18R16418   3.239  -0.056  18.211  0.8120 -2.7674 -1.2697
  149SAPE  H18S16419   3.339   0.025  18.340  1.1206 -1.4973  0.5369
  149SAPE  C21916420   3.141  -0.051  18.395  0.1729 -0.1101  0.1731
  149SAPE  H19R16421   3.082   0.038  18.365 -0.7670 -0.9708 -0.6359
  149SAPE  H19S16422   3.175  -0.026  18.498 -0.2260  4.4321 -0.5710
  149SAPE  C22016423   3.044  -0.165  18.389  0.1811 -0.0910  0.2221
  149SAPE  H20R16424   2.964  -0.158  18.465  0.4470  2.7726  0.3363
  149SAPE  H20S16425   3.109  -0.252  18.415  3.2449  1.7283 -0.8428
  149SAPE  H20T16426   2.996  -0.181  18.290 -0.0284 -1.0028  0.4566
  149SAPE   C3316427   3.428   0.309  18.159  0.0989  0.1469  0.0160
  149SAPE   H3X16428   3.474   0.209  18.146 -0.1633 -0.1321  1.1697
  149SAPE   H3Y16429   3.476   0.370  18.079 -2.4708  1.7823 -0.4008
  149SAPE   C3416430   3.277   0.307  18.136 -0.5186 -1.2140 -0.0575
  149SAPE   H4X16431   3.252   0.404  18.088 -0.0167 -0.5329  1.0259
  149SAPE   H4Y16432   3.227   0.287  18.233  2.6287  0.9855  2.1994
  149SAPE   C3516433   3.238   0.192  18.030  0.2496  0.0423  0.7202
  149SAPE   H5X16434   3.302   0.108  18.065 -1.7027 -1.5579  0.6236
  149SAPE   H5Y16435   3.290   0.220  17.936  0.0574 -1.8234  0.0352
  149SAPE   C3616436   3.086   0.164  18.021  0.0243  0.2653  0.2681
  149SAPE   H6X16437   3.033   0.251  17.977  0.0301 -0.9216 -2.2513
  149SAPE   H6Y16438   3.048   0.153  18.125 -2.3088  0.3391 -0.5103
  149SAPE   C3716439   3.056   0.034  17.950  0.6290 -0.3274  0.2690
  149SAPE   H7X16440   2.953   0.004  17.981  0.2970  0.1189 -0.3783
  149SAPE   H7Y16441   3.127  -0.046  17.980 -0.4912 -1.7980 -0.8154
  149SAPE   C3816442   3.050   0.042  17.795  0.2230  0.4907 -0.4292
  149SAPE   H8X16443   3.005  -0.050  17.751 -0.2735 -0.9045  2.6964
  149SAPE   H8Y16444   3.151   0.057  17.751 -0.1377 -0.2121 -1.5505
  149SAPE   C3916445   2.953   0.153  17.744  0.8616 -0.3412 -0.2355
  149SAPE   H9X16446   2.996   0.251  17.773 -2.0940  1.7959 -2.5552
  149SAPE   H9Y16447   2.861   0.140  17.805  1.8590 -0.5071  1.3051
  149SAPE  C31016448   2.919   0.161  17.597 -0.1321 -0.0313  0.4779
  149SAPE  H10X16449   2.855   0.247  17.569  0.0417  0.3137  1.1455
  149SAPE  H10Y16450   2.850   0.075  17.582  1.3536 -1.4004  1.1098
  149SAPE  C31116451   3.035   0.152  17.494 -0.4991  0.3786 -0.3048
  149SAPE  H11X16452   3.100   0.062  17.505 -1.1885 -0.0521  0.3580
  149SAPE  H11Y16453   3.095   0.243  17.516  1.2185 -0.2541 -2.1358
  149SAPE  C31216454   2.981   0.157  17.348 -0.2892  0.5234  0.1372
  149SAPE  H12X16455   2.930   0.255  17.340  2.4403  1.8912 -2.1312
  149SAPE  H12Y16456   2.901   0.081  17.334 -1.0396  1.4893 -0.9540
  149SAPE  C31316457   3.088   0.159  17.238  0.3930 -0.2530  0.5806
  149SAPE  H13X16458   3.150   0.067  17.242 -0.9673 -1.2377 -0.0589
  149SAPE  H13Y16459   3.149   0.250  17.257 -0.4537 -0.0117  2.4340
  149SAPE  C31416460   3.028   0.175  17.103 -0.4129 -0.0071 -0.0984
  149SAPE  H14X16461   2.950   0.253  17.095 -1.6952 -1.2392 -0.1421
  149SAPE  H14Y16462   2.990   0.078  17.063 -1.5776  1.1458 -1.9523
  149SAPE  C31516463   3.137   0.220  17.003 -0.6434  0.0302  0.0082
  149SAPE  H15X16464   3.202   0.304  17.034  0.5709 -0.1505 -1.9003
  149SAPE  H15Y16465   3.086   0.239  16.906  0.5919 -2.3682 -1.2124
  149SAPE  C31616466   3.224   0.101  16.968  0.2960 -0.0585  0.1213
  149SAPE  H16X16467   3.154   0.019  16.941  2.4564 -1.7300 -0.6588
  149SAPE  H16Y16468   3.283   0.061  17.053 -1.2893 -2.3020  0.2690
  149SAPE  C31716469   3.306   0.126  16.841 -0.2177  0.0503 -0.2155
  149SAPE  H17X16470   3.269   0.213  16.783  1.0333  0.2715 -0.7013
  149SAPE  H17Y16471   3.303   0.032  16.781 -2.5258  0.3764 -0.7213
  149SAPE  C31816472   3.444   0.175  16.883  0.3089  0.2463  0.1570
  149SAPE  H18X16473   3.433   0.279  16.921  2.8949  0.4899  0.4038
  149SAPE  H18Y16474   3.509   0.174  16.793 -1.7239  1.5378 -1.4276
  149SAPE  H18Z16475   3.477   0.118  16.972  0.8119  2.3326  1.3855
  150SAPE     N16476   0.874   1.855  23.261  0.0784 -0.1117  0.5722
  150SAPE   HN116477   0.785   1.878  23.309 -0.6419  2.1396 -1.6405
  150SAPE   HN216478   0.955   1.899  23.308 -0.4116  0.4710  0.8797
  150SAPE   HN316479   0.867   1.891  23.164  2.9905  1.6995  0.9124
  150SAPE   C1216480   0.891   1.707  23.237 -0.3024  0.4266  0.1533
  150SAPE  H12A16481   0.998   1.685  23.216  0.1938  0.3074  2.4499
  150SAPE  H12B16482   0.838   1.669  23.148  1.5874 -0.3333 -0.7078
  150SAPE   C1116483   0.850   1.635  23.365 -0.0193  0.8932 -0.3956
  150SAPE  H11A16484   0.890   1.674  23.461 -1.6984 -1.7761  1.5382
  150SAPE  H11B16485   0.888   1.531  23.354 -3.3886 -0.5887  0.6679
  150SAPE     P16486   0.610   1.717  23.420  0.1595 -0.0256 -0.1559
  150SAPE   O1316487   0.621   1.851  23.357 -0.0714  0.4188  0.3672
  150SAPE   O1416488   0.477   1.651  23.419  0.4880 -0.1440  0.0202
  150SAPE   O1216489   0.714   1.618  23.361 -0.1454 -0.2322  0.6466
  150SAPE   O1116490   0.660   1.732  23.567 -0.7164 -0.2870 -0.1209
  150SAPE    C116491   0.699   1.628  23.660  0.5393  0.1261  0.2145
  150SAPE    HA16492   0.607   1.594  23.712  2.1334 -2.0991  1.7373
  150SAPE    HB16493   0.763   1.547  23.620  3.1845  0.4688  3.3509
  150SAPE    C216494   0.799   1.684  23.769  0.5261  0.4441  0.6338
  150SAPE    HS16495   0.761   1.786  23.792 -1.7183 -0.1047 -0.3240
  150SAPE   O2116496   0.934   1.675  23.713 -0.0497  0.3885 -0.2460
  150SAPE   C2116497   1.030   1.722  23.790  0.6779 -0.1763 -0.9319
  150SAPE   O2216498   1.014   1.767  23.901  0.3105 -0.0484  0.1928
  150SAPE   C2216499   1.162   1.720  23.708  0.1022  0.0053 -0.4661
  150SAPE   H2R16500   1.159   1.619  23.663  3.3724  0.1780 -1.3625
  150SAPE   H2S16501   1.159   1.794  23.626  0.4296  0.8897  0.3048
  150SAPE    C316502   0.791   1.586  23.899  0.4715  0.0167  0.0433
  150SAPE    HX16503   0.857   1.621  23.982  1.2158  0.0643 -0.5529
  150SAPE    HY16504   0.828   1.485  23.872 -2.7141 -0.1762 -4.8325
  150SAPE   O3116505   0.654   1.582  23.950  0.5707  0.4775 -0.3302
  150SAPE   C3116506   0.636   1.500  24.053  0.0289 -0.3372 -0.2822
  150SAPE   O3216507   0.728   1.441  24.116 -0.8216 -0.2694  0.3380
  150SAPE   C3216508   0.491   1.501  24.081  0.5573  0.3055 -0.2363
  150SAPE   H2X16509   0.438   1.503  23.983  0.2609  0.7429 -0.0693
  150SAPE   H2Y16510   0.457   1.593  24.133 -3.1065 -1.3223  0.5991
  150SAPE   C2316511   1.293   1.727  23.785 -0.5079 -0.0555 -0.0148
  150SAPE   H3R16512   1.274   1.639  23.851 -2.0661 -1.2095 -1.8841
  150SAPE   H3S16513   1.303   1.807  23.861 -0.8667 -0.7461  0.7831
  150SAPE   C2416514   1.415   1.709  23.693  0.3598  0.3176  0.5787
  150SAPE   H4R16515   1.412   1.776  23.604  2.8704  0.6214  0.6483
  150SAPE   H4S16516   1.389   1.613  23.644  4.1296  0.2653 -1.7658
  150SAPE   C2516517   1.553   1.715  23.752 -0.5712  0.3761 -0.7506
  150SAPE   H5R16518   1.585   1.810  23.797 -2.3242  0.2993  0.8065
  150SAPE   C2616519   1.633   1.612  23.763 -0.1667 -0.1898 -0.2226
  150SAPE   H6R16520   1.734   1.643  23.793 -0.2403 -1.8702  1.9804
  150SAPE   C2716521   1.612   1.473  23.717  0.7770 -0.4248 -0.2561
  150SAPE   H7R16522   1.708   1.433  23.680  1.5636 -0.1441  1.4207
  150SAPE   H7S16523   1.542   1.447  23.635 -1.7560  0.7331  1.3901
  150SAPE   C2816524   1.571   1.388  23.832  0.7126  0.1951  0.3589
  150SAPE   H8R16525   1.509   1.437  23.909  1.3018  0.3069  0.7716
  150SAPE   C2916526   1.624   1.267  23.865 -0.5657 -0.0618  0.2199
  150SAPE   H9R16527   1.584   1.222  23.957 -2.1592  4.4838  2.0137
  150SAPE  C21016528   1.725   1.180  23.790  0.3406  0.1499 -0.4863
  150SAPE  H10R16529   1.731   1.215  23.685 -0.3073  1.8087 -0.0102
  150SAPE  H10S16530   1.670   1.083  23.796 -3.5180  2.1941  1.6212
  150SAPE  C21116531   1.858   1.187  23.863  0.1273  0.4179  0.1564
  150SAPE  H11R16532   1.921   1.274  23.841 -0.2010  0.5618 -0.2301
  150SAPE  C21216533   1.913   1.110  23.959 -0.3953  0.1539  0.1070
  150SAPE  H12R16534   2.000   1.144  24.017 -1.5477 -1.9277  3.3035
  150SAPE  C21316535   1.849   0.984  24.015 -0.6490  0.5334 -0.3025
  150SAPE  H13R16536   1.834   0.923  23.923  1.1554 -0.2321 -0.1287
  150SAPE  H13S16537   1.754   1.009  24.067 -0.4975 -3.2340  2.2062
  150SAPE  C21416538   1.939   0.910  24.108 -0.0002 -0.4062 -0.0010
  150SAPE  H14R16539   2.046   0.932  24.091 -0.4743  1.5311 -0.8405
  150SAPE  C21516540   1.909   0.829  24.208 -0.5003  0.6791  0.0369
  150SAPE  H15R16541   2.000   0.785  24.251  0.0920  2.6466  0.8751
  150SAPE  C21616542   1.774   0.770  24.244  0.5297  0.0879 -0.2019
  150SAPE  H16R16543   1.748   0.705  24.157 -0.8385 -0.8951  0.9013
  150SAPE  H16S16544   1.694   0.845  24.256  2.2386  1.9604  0.0184
  150SAPE  C21716545   1.776   0.691  24.371 -0.9279 -1.0378 -0.7419
  150SAPE  H17R16546   1.821   0.756  24.450  2.8469 -2.0137 -1.9133
  150SAPE  H17S16547   1.853   0.611  24.366 -1.5739 -1.7222  0.0199
  150SAPE  C21816548   1.636   0.646  24.404  0.2409  0.3005  0.2865
  150SAPE  H18R16549   1.602   0.594  24.312  0.0925 -0.9088  0.9881
  150SAPE  H18S16550   1.576   0.736  24.425 -0.7984 -0.3706  0.2460
  150SAPE  C21916551   1.628   0.537  24.514 -0.1928 -0.1131  0.2396
  150SAPE  H19R16552   1.719   0.553  24.576 -0.8581  0.7338  1.0266
  150SAPE  H19S16553   1.637   0.434  24.473 -0.5913  0.6616 -1.9419
  150SAPE  C22016554   1.494   0.546  24.593 -0.0442 -0.8735  0.5933
  150SAPE  H20R16555   1.457   0.640  24.639 -2.4712 -1.1929 -0.5423
  150SAPE  H20S16556   1.490   0.464  24.667 -0.0219 -0.8742  0.5934
  150SAPE  H20T16557   1.420   0.514  24.517  0.2858 -2.4754  0.9089
  150SAPE   C3316558   0.439   1.381  24.162 -0.1853 -0.6249  0.0617
  150SAPE   H3X16559   0.346   1.408  24.216  1.5104  1.3493  2.1788
  150SAPE   H3Y16560   0.508   1.356  24.245 -0.1637 -0.8154 -0.0122
  150SAPE   C3416561   0.425   1.245  24.096  0.6038  0.0749  0.6460
  150SAPE   H4X16562   0.350   1.253  24.014  0.8607 -1.8990  0.1804
  150SAPE   H4Y16563   0.393   1.175  24.177 -0.4057  1.6594  1.6810
  150SAPE   C3516564   0.544   1.192  24.005 -0.2321  1.0746  0.0210
  150SAPE   H5X16565   0.638   1.227  24.053 -0.8625  0.0734  2.1094
  150SAPE   H5Y16566   0.524   1.239  23.906 -2.2149 -1.3541 -0.8430
  150SAPE   C3616567   0.552   1.043  23.998  0.2011 -0.2958 -0.9704
  150SAPE   H6X16568   0.593   0.991  24.088  0.7875 -0.0832 -1.1120
  150SAPE   H6Y16569   0.632   1.012  23.927  3.1100  1.9264  1.1207
  150SAPE   C3716570   0.419   0.980  23.946  0.1738 -0.4919  0.3759
  150SAPE   H7X16571   0.393   1.029  23.849 -0.8194 -1.0457  0.3468
  150SAPE   H7Y16572   0.336   1.002  24.016  1.2145 -1.7225  2.0568
  150SAPE   C3816573   0.417   0.831  23.925 -0.2492  0.1711 -0.6501
  150SAPE   H8X16574   0.487   0.802  23.843  0.8507 -1.8876  0.9104
  150SAPE   H8Y16575   0.313   0.810  23.892 -0.6055  0.5587  0.1962
  150SAPE   C3916576   0.450   0.742  24.044  0.0230 -0.2296 -0.3373
  150SAPE   H9X16577   0.425   0.788  24.142  0.3132  0.5354 -0.6124
  150SAPE   H9Y16578   0.561   0.734  24.041 -0.0083 -1.3236  0.8269
  150SAPE  C31016579   0.410   0.595  24.016  0.0494 -0.3728  0.3694
  150SAPE  H10X16580   0.420   0.584  23.906  0.5242  2.9377 -0.0200
  150SAPE  H10Y16581   0.300   0.595  24.031  0.0817  2.9788  1.4472
  150SAPE  C31116582   0.481   0.492  24.100  0.4114 -0.3175 -0.1107
  150SAPE  H11X16583   0.472   0.514  24.209  0.6561 -2.1222  0.3170
  150SAPE  H11Y16584   0.589   0.497  24.076  0.6695  0.6322  1.1441
  150SAPE  C31216585   0.428   0.352  24.071 -0.1341 -0.0973  0.4304
  150SAPE  H12X16586   0.453   0.322  23.967 -1.1024  2.4615 -0.6098
  150SAPE  H12Y16587   0.318   0.363  24.079 -0.1186  0.1507  0.3128
  150SAPE  C31316588   0.487   0.238  24.156  0.2057 -0.0827  0.3102
  150SAPE  H13X16589   0.457   0.253  24.262 -1.2327  1.8546 -0.3026
  150SAPE  H13Y16590   0.597   0.239  24.143  0.4634  1.7665  2.0555
  150SAPE  C31416591   0.420   0.107  24.119  0.3330  0.1251  0.0981
  150SAPE  H14X16592   0.445   0.063  24.020 -1.8678 -2.5617  0.6051
  150SAPE  H14Y16593   0.311   0.128  24.123 -0.1208 -1.9999  0.0219
  150SAPE  C31516594   0.439   0.003  24.225  0.3833  0.2663 -0.0428
  150SAPE  H15X16595   0.386  -0.090  24.196  0.6575 -0.8654  2.8498
  150SAPE  H15Y16596   0.395   0.037  24.320  0.2910  1.8118 -0.6054
  150SAPE  C31616597   0.586  -0.025  24.263  0.2528 -0.8337 -0.1067
  150SAPE  H16X16598   0.590  -0.091  24.353 -1.2700  0.4901  0.9946
  150SAPE  H16Y16599   0.635   0.071  24.288  0.8313 -1.1045 -0.1800
  150SAPE  C31716600   0.656  -0.090  24.149 -0.0857 -0.3575 -0.3478
  150SAPE  H17X16601   0.643  -0.035  24.054 -0.9117 -0.2214 -0.1628
  150SAPE  H17Y16602   0.604  -0.188  24.137 -1.2031 -0.0978  1.8878
  150SAPE  C31816603   0.804  -0.102  24.176 -0.0119  0.2890  0.2152
  150SAPE  H18X16604   0.830  -0.001  24.214 -1.8528  0.7011  0.4719
  150SAPE  H18Y16605   0.864  -0.119  24.084 -1.8885  1.2131 -1.2521
  150SAPE  H18Z16606   0.839  -0.173  24.255 -0.2557  1.4645  1.4161
  151SAPE     N16607   2.931   3.345  26.509 -0.2061  0.4808  0.2676
  151SAPE   HN116608   2.924   3.449  26.507  1.2816  0.6302  1.0816
  151SAPE   HN216609   2.835   3.308  26.496 -1.1876  2.1684  2.0727
  151SAPE   HN316610   2.956   3.315  26.606  0.1641  0.2259  0.0952
  151SAPE   C1216611   3.036   3.294  26.423 -0.2803 -0.3560 -0.1170
  151SAPE  H12A16612   3.136   3.311  26.468 -0.5891 -0.8842  0.7899
  151SAPE  H12B16613   3.039   3.352  26.328  2.8378  0.4191  0.3324
  151SAPE   C1116614   3.019   3.142  26.406  0.3640 -0.5745 -0.5111
  151SAPE  H11A16615   3.068   3.099  26.316 -0.0471 -2.5253  0.1580
  151SAPE  H11B16616   2.915   3.113  26.379 -0.2795  0.2021  0.9872
  151SAPE     P16617   3.202   3.004  26.552 -0.1615 -0.1060 -0.3073
  151SAPE   O1316618   3.283   3.102  26.626 -0.5206  0.4920 -0.2307
  151SAPE   O1416619   3.170   2.875  26.622 -0.6370 -0.2493  0.8005
  151SAPE   O1216620   3.064   3.075  26.521  0.2606  0.0732  0.2125
  151SAPE   O1116621   3.263   2.970  26.409 -0.0564  0.3200 -0.9415
  151SAPE    C116622   3.191   2.881  26.325  0.2324  0.1766  0.1600
  151SAPE    HA16623   3.206   2.772  26.342  0.7571 -0.1304 -1.9957
  151SAPE    HB16624   3.081   2.894  26.318  0.2102 -0.0431  0.0802
  151SAPE    C216625   3.228   2.910  26.173  0.1169 -0.1792  0.0105
  151SAPE    HS16626   3.335   2.883  26.164  0.2186 -0.5783  1.9281
  151SAPE   O2116627   3.189   3.046  26.149 -0.0987 -0.3058  0.5125
  151SAPE   C2116628   3.274   3.114  26.080 -0.1144 -0.4785  0.4124
  151SAPE   O2216629   3.378   3.075  26.022 -0.2826  0.3965 -0.2138
  151SAPE   C2216630   3.230   3.259  26.071  0.0545  0.6888  0.0332
  151SAPE   H2R16631   3.120   3.251  26.057  0.1679 -0.5169 -0.2741
  151SAPE   H2S16632   3.256   3.307  26.168  0.8104  1.4584 -0.5284
  151SAPE    C316633   3.144   2.824  26.077 -0.0228 -0.0173  0.8447
  151SAPE    HX16634   3.037   2.836  26.105 -0.0834  1.0549  0.1976
  151SAPE    HY16635   3.177   2.721  26.101 -1.2051  0.2613  4.2519
  151SAPE   O3116636   3.157   2.868  25.941  0.3316  0.2205 -0.3311
  151SAPE   C3116637   3.272   2.844  25.879 -0.1080  0.1438 -0.1803
  151SAPE   O3216638   3.368   2.785  25.914 -0.1165  0.2271  0.0335
  151SAPE   C3216639   3.251   2.892  25.737 -0.5666  0.3076  0.1945
  151SAPE   H2X16640   3.236   3.002  25.737 -1.3780  0.2161  0.8851
  151SAPE   H2Y16641   3.155   2.854  25.695 -1.0589 -1.5814  2.7473
  151SAPE   C2316642   3.297   3.340  25.952 -1.0492  0.2220  0.1921
  151SAPE   H3R16643   3.406   3.344  25.972 -1.0579 -2.8359  1.4723
  151SAPE   H3S16644   3.258   3.444  25.952 -0.1935  0.5509  0.5436
  151SAPE   C2416645   3.270   3.285  25.808 -0.0158 -0.5428  0.2221
  151SAPE   H4R16646   3.325   3.190  25.792 -0.5407 -0.7224 -0.5940
  151SAPE   H4S16647   3.312   3.367  25.745 -1.8813  0.0180 -0.3395
  151SAPE   C2516648   3.129   3.274  25.776  0.5654  0.3416  0.3606
  151SAPE   H5R16649   3.054   3.295  25.854  0.0284 -2.5244  0.7216
  151SAPE   C2616650   3.080   3.246  25.652 -0.4090  0.5702  0.6004
  151SAPE   H6R16651   2.973   3.244  25.629 -0.3874 -0.2620  0.5607
  151SAPE   C2716652   3.181   3.227  25.538  0.3967  0.7167 -0.4346
  151SAPE   H7R16653   3.175   3.122  25.503  2.3667 -0.3785  2.1108
  151SAPE   H7S16654   3.287   3.250  25.564  0.9379 -3.6675  2.3174
  151SAPE   C2816655   3.148   3.325  25.430 -0.3878  0.0146 -0.0419
  151SAPE   H8R16656   3.153   3.428  25.467 -0.5119 -0.3252  0.9365
  151SAPE   C2916657   3.102   3.296  25.301  0.4765 -0.5701 -0.8965
  151SAPE   H9R16658   3.065   3.372  25.231 -1.9907 -2.0504 -1.3138
  151SAPE  C21016659   3.074   3.151  25.251  0.3963 -0.0197  0.1017
  151SAPE  H10R16660   2.986   3.113  25.307  0.2694 -0.3959 -0.3585
  151SAPE  H10S16661   3.152   3.078  25.281 -1.0896 -2.1211 -0.9669
  151SAPE  C21116662   3.048   3.152  25.105 -0.3274 -0.5451 -0.3898
  151SAPE  H11R16663   3.141   3.133  25.048 -0.2573  2.3839 -1.4306
  151SAPE  C21216664   2.935   3.151  25.041 -0.0222 -0.4703  0.5253
  151SAPE  H12R16665   2.937   3.169  24.933  1.5114 -2.4434  0.1741
  151SAPE  C21316666   2.796   3.169  25.088  0.4514 -0.3693  0.0777
  151SAPE  H13R16667   2.754   3.256  25.033  0.1998 -1.5611 -1.6793
  151SAPE  H13S16668   2.800   3.203  25.194  0.1194 -1.6152  0.5181
  151SAPE  C21416669   2.724   3.030  25.077 -0.3369 -0.3663  0.0425
  151SAPE  H14R16670   2.761   2.956  25.149 -2.6560  0.4030  2.1720
  151SAPE  C21516671   2.620   2.997  24.997 -0.1412  0.3624  0.4120
  151SAPE  H15R16672   2.564   2.904  25.019 -0.1299  0.5250  1.1429
  151SAPE  C21616673   2.549   3.085  24.890  0.1277 -0.0531  0.2970
  151SAPE  H16R16674   2.542   3.183  24.942  2.7932 -0.4079  1.4905
  151SAPE  H16S16675   2.454   3.042  24.854 -0.7364 -1.1044  3.5462
  151SAPE  C21716676   2.632   3.109  24.759  0.0564 -0.2993  0.0145
  151SAPE  H17R16677   2.603   3.023  24.694 -0.9148  1.0905 -1.4612
  151SAPE  H17S16678   2.741   3.100  24.782 -0.1184 -1.6858  0.3715
  151SAPE  C21816679   2.595   3.241  24.692 -0.4598 -0.3147 -0.8517
  151SAPE  H18R16680   2.643   3.324  24.748  1.9506 -1.9408 -0.3726
  151SAPE  H18S16681   2.484   3.244  24.699 -0.5142 -1.4649 -1.1212
  151SAPE  C21916682   2.629   3.252  24.541  0.4631 -0.0439  0.0075
  151SAPE  H19R16683   2.592   3.152  24.510  1.7668 -0.6147  0.2131
  151SAPE  H19S16684   2.740   3.263  24.536  0.7134 -2.2105  0.0289
  151SAPE  C22016685   2.567   3.364  24.466  0.2660 -0.0605 -0.2058
  151SAPE  H20R16686   2.456   3.361  24.456  0.0355  2.4775  0.8812
  151SAPE  H20S16687   2.612   3.373  24.364  1.6761  0.4883  0.4427
  151SAPE  H20T16688   2.594   3.463  24.508 -1.1830  0.3102 -0.0844
  151SAPE   C3316689   3.361   2.840  25.638 -0.3296 -0.7982 -0.4809
  151SAPE   H3X16690   3.391   2.739  25.674  1.3734  0.3210  1.4667
  151SAPE   H3Y16691   3.454   2.902  25.648  0.1395 -1.7420  1.6904
  151SAPE   C3416692   3.312   2.834  25.493  0.3599  0.8526  0.4880
  151SAPE   H4X16693   3.262   2.931  25.477  0.4687  0.5893 -1.8793
  151SAPE   H4Y16694   3.235   2.754  25.483  1.4984 -0.0552 -1.6784
  151SAPE   C3516695   3.415   2.800  25.386 -0.3683 -0.4339 -0.3886
  151SAPE   H5X16696   3.495   2.874  25.407 -2.8251  2.5856 -1.0254
  151SAPE   H5Y16697   3.382   2.820  25.282 -0.2095 -1.2766 -0.6107
  151SAPE   C3616698   3.445   2.648  25.397  0.6773 -0.1586 -0.3019
  151SAPE   H6X16699   3.351   2.589  25.384 -0.0643  0.4937  1.6563
  151SAPE   H6Y16700   3.476   2.620  25.499 -2.0089 -2.7061 -0.0491
  151SAPE   C3716701   3.557   2.601  25.301 -0.0833 -0.1926 -0.3861
  151SAPE   H7X16702   3.649   2.661  25.315  0.2863 -0.9194  0.3359
  151SAPE   H7Y16703   3.525   2.621  25.196 -0.2356 -0.4802 -0.3953
  151SAPE   C3816704   3.567   2.451  25.328 -0.1797 -0.1145  0.5743
  151SAPE   H8X16705   3.473   2.406  25.289 -0.4075  2.3799 -2.1162
  151SAPE   H8Y16706   3.578   2.438  25.438  0.1369  0.3049  0.5938
  151SAPE   C3916707   3.696   2.388  25.268 -0.8041 -0.2232 -0.2015
  151SAPE   H9X16708   3.714   2.282  25.298 -0.8454  0.5749  3.0579
  151SAPE   H9Y16709   3.785   2.446  25.301 -1.2249  0.3698 -0.1049
  151SAPE  C31016710   3.705   2.410  25.116 -0.7340  0.9782  0.0491
  151SAPE  H10X16711   3.698   2.519  25.096  2.5239  1.0600 -1.1202
  151SAPE  H10Y16712   3.625   2.348  25.069  0.5452  0.0753 -1.0492
  151SAPE  C31116713   3.840   2.353  25.063 -0.3364  0.5002 -0.9637
  151SAPE  H11X16714   3.817   2.245  25.048 -2.7682  0.8898 -0.4984
  151SAPE  H11Y16715   3.924   2.377  25.131 -0.3989  0.0611 -0.7266
  151SAPE  C31216716   3.879   2.415  24.928 -0.0035  0.2611 -0.3407
  151SAPE  H12X16717   3.927   2.514  24.937 -1.4336  1.0112 -0.6622
  151SAPE  H12Y16718   3.787   2.437  24.869  0.9735  1.7746 -1.3712
  151SAPE  C31316719   3.961   2.321  24.837  0.5341  0.6976 -0.6134
  151SAPE  H13X16720   3.934   2.214  24.838  1.0865  0.5323 -1.6463
  151SAPE  H13Y16721   4.066   2.301  24.868 -0.2078  0.9610  2.3673
  151SAPE  C31416722   3.957   2.369  24.689 -0.4457  0.3856  0.6182
  151SAPE  H14X16723   3.855   2.398  24.655 -0.2530  1.0475  0.5873
  151SAPE  H14Y16724   3.987   2.286  24.621 -1.1922  1.0990 -0.6231
  151SAPE  C31516725   4.059   2.481  24.679  0.5531 -0.2651  0.1607
  151SAPE  H15X16726   4.154   2.435  24.712  0.7360  0.4125  0.6021
  151SAPE  H15Y16727   4.030   2.562  24.750 -2.0859 -0.1812 -0.8954
  151SAPE  C31616728   4.087   2.527  24.526  0.8447  1.1516  0.2492
  151SAPE  H16X16729   4.064   2.443  24.458 -1.2967  0.6794  1.4712
  151SAPE  H16Y16730   4.190   2.569  24.528  1.2736  0.1138  0.6696
  151SAPE  C31716731   4.010   2.644  24.477 -0.4824 -0.5615 -0.6475
  151SAPE  H17X16732   4.050   2.686  24.382  1.3994  1.5145  0.9399
  151SAPE  H17Y16733   4.021   2.732  24.544 -1.8701 -1.5935  1.0013
  151SAPE  C31816734   3.866   2.613  24.452  0.6479 -0.4121 -0.4093
  151SAPE  H18X16735   3.809   2.684  24.388  1.2404  0.6873  0.2619
  151SAPE  H18Y16736   3.824   2.626  24.554 -2.0019  1.1778 -1.5840
  151SAPE  H18Z16737   3.852   2.512  24.409  0.2223 -0.1578 -0.8892
  152SAPE     N16738   0.896   2.072  20.387 -0.4343  0.1418  0.2027
  152SAPE   HN116739   0.981   2.124  20.357  0.4403 -0.0989  2.1049
  152SAPE   HN216740   0.822   2.086  20.315  0.2787  1.0121 -0.3747
  152SAPE   HN316741   0.871   2.117  20.477  1.6468 -1.6747  1.8212
  152SAPE   C1216742   0.923   1.930  20.404  0.5310  0.1369 -0.0943
  152SAPE  H12A16743   1.032   1.912  20.394  0.7038  0.0628  1.5545
  152SAPE  H12B16744   0.863   1.870  20.333 -0.3667 -2.1767  2.4360
  152SAPE   C1116745   0.885   1.882  20.538  0.0005 -0.1422 -1.1648
  152SAPE  H11A16746   0.944   1.930  20.620  1.2947 -1.2452 -1.4228
  152SAPE  H11B16747   0.912   1.774  20.538  2.3336  0.3460  0.7071
  152SAPE     P16748   0.638   1.837  20.632  0.0524  0.2226 -0.3030
  152SAPE   O1316749   0.691   1.823  20.769 -0.3863 -0.0929 -0.0553
  152SAPE   O1416750   0.517   1.919  20.616 -0.2929  0.3963  0.1170
  152SAPE   O1216751   0.740   1.905  20.550 -0.8747  0.0297  0.3074
  152SAPE   O1116752   0.626   1.698  20.560  0.6839 -0.8036  0.6528
  152SAPE    C116753   0.590   1.686  20.425 -0.4402 -0.7129  0.5408
  152SAPE    HA16754   0.532   1.773  20.389  1.1347  0.4931  0.8387
  152SAPE    HB16755   0.684   1.687  20.366  0.2976  1.3098  1.6741
  152SAPE    C216756   0.519   1.550  20.395  0.0647 -0.1707  0.3148
  152SAPE    HS16757   0.421   1.556  20.446  1.4766  0.7419  3.2097
  152SAPE   O2116758   0.587   1.443  20.466  0.2501 -0.0213 -0.5971
  152SAPE   C2116759   0.701   1.407  20.413  0.3370  0.4967  0.2639
  152SAPE   O2216760   0.772   1.461  20.336  0.2561 -0.1681 -0.5886
  152SAPE   C2216761   0.753   1.283  20.495 -0.7409  0.2337 -0.5389
  152SAPE   H2R16762   0.758   1.313  20.602 -2.2452 -1.1576 -0.0339
  152SAPE   H2S16763   0.680   1.199  20.484  0.6919 -0.8137 -2.8812
  152SAPE    C316764   0.504   1.523  20.246  0.3103  0.7600 -0.0174
  152SAPE    HX16765   0.601   1.517  20.192  1.2750 -0.6935  1.7716
  152SAPE    HY16766   0.438   1.599  20.197 -0.7884 -0.5835 -0.7179
  152SAPE   O3116767   0.442   1.393  20.217  0.0779  0.1644  0.0705
  152SAPE   C3116768   0.312   1.382  20.239 -0.2228 -0.6971  0.5839
  152SAPE   O3216769   0.244   1.474  20.290 -0.3061  0.1930 -0.4631
  152SAPE   C3216770   0.255   1.258  20.167 -0.1818 -0.4216  0.4813
  152SAPE   H2X16771   0.308   1.165  20.196  0.8644 -0.1338 -0.4533
  152SAPE   H2Y16772   0.264   1.280  20.059  0.0558 -1.0028  0.3784
  152SAPE   C2316773   0.898   1.247  20.439 -0.5158 -0.3355 -0.2202
  152SAPE   H3R16774   0.970   1.331  20.441 -0.5034 -0.3513  1.3967
  152SAPE   H3S16775   0.884   1.219  20.333 -3.0014 -1.9812  0.4402
  152SAPE   C2416776   0.940   1.112  20.511  0.0685  0.1904  0.5631
  152SAPE   H4R16777   0.969   1.031  20.441  0.3609  0.8409 -0.0852
  152SAPE   H4S16778   0.847   1.065  20.551  0.4779  0.2032  1.5790
  152SAPE   C2516779   1.046   1.120  20.620  0.5532 -0.3306 -0.5797
  152SAPE   H5R16780   1.141   1.135  20.566  0.1133  2.4856 -0.7563
  152SAPE   C2616781   1.029   1.126  20.751 -0.0326  0.1260 -0.1839
  152SAPE   H6R16782   1.123   1.130  20.808  0.4571  3.4086 -0.9661
  152SAPE   C2716783   0.907   1.111  20.831  0.1623 -0.2670 -1.0649
  152SAPE   H7R16784   0.910   1.039  20.915  2.3789  0.1074 -0.7791
  152SAPE   H7S16785   0.820   1.070  20.774 -2.9006  0.4437  2.6825
  152SAPE   C2816786   0.866   1.247  20.888 -0.5452 -0.0036 -0.1424
  152SAPE   H8R16787   0.821   1.305  20.806 -1.2826 -1.6863 -0.9748
  152SAPE   C2916788   0.858   1.288  21.022  0.0585  0.4518 -0.3273
  152SAPE   H9R16789   0.840   1.395  21.040 -0.2747  0.0762  1.7288
  152SAPE  C21016790   0.886   1.209  21.149  0.0793  0.2670  0.2544
  152SAPE  H10R16791   0.903   1.102  21.123  0.8875  0.2497  0.8179
  152SAPE  H10S16792   0.787   1.199  21.199 -1.1178  2.6427 -1.4677
  152SAPE  C21116793   0.985   1.254  21.258  0.1573  0.2206  0.3208
  152SAPE  H11R16794   1.036   1.348  21.230 -3.6397  2.6788  0.8110
  152SAPE  C21216795   1.002   1.186  21.374 -0.3430 -0.1360  0.1043
  152SAPE  H12R16796   1.081   1.224  21.441  0.1543 -0.3305 -0.3618
  152SAPE  C21316797   0.938   1.061  21.424 -0.4812  0.2714  0.2142
  152SAPE  H13R16798   0.840   1.043  21.375 -1.1876  0.3327  1.5451
  152SAPE  H13S16799   0.911   1.083  21.530  0.3873  1.7511  0.1566
  152SAPE  C21416800   1.027   0.939  21.419  0.0663 -0.1305 -0.2858
  152SAPE  H14R16801   1.136   0.949  21.428  0.6966 -1.9433 -3.9705
  152SAPE  C21516802   0.988   0.812  21.410 -0.4274  0.0887  0.5189
  152SAPE  H15R16803   1.062   0.730  21.410 -1.6391 -1.0883 -1.4142
  152SAPE  C21616804   0.851   0.757  21.395  0.1234  0.4187 -0.9403
  152SAPE  H16R16805   0.770   0.831  21.415 -1.7376 -1.3839 -1.4372
  152SAPE  H16S16806   0.833   0.675  21.467 -1.1347 -1.6736 -3.4705
  152SAPE  C21716807   0.820   0.702  21.256  0.3009 -0.5280 -0.1600
  152SAPE  H17R16808   0.896   0.623  21.235  2.5188  1.5487 -0.3511
  152SAPE  H17S16809   0.830   0.787  21.185  2.2520  1.8345  2.7343
  152SAPE  C21816810   0.679   0.629  21.237  0.0056  0.0539  0.4724
  152SAPE  H18R16811   0.670   0.610  21.128  0.8662 -0.6934  0.5226
  152SAPE  H18S16812   0.600   0.701  21.266 -0.8582 -1.2176  1.4206
  152SAPE  C21916813   0.672   0.499  21.311  0.4407  0.1732  0.1522
  152SAPE  H19R16814   0.776   0.485  21.350  1.2656  0.5409 -1.7883
  152SAPE  H19S16815   0.638   0.410  21.254 -1.6536  0.1625  1.3290
  152SAPE  C22016816   0.570   0.507  21.422  0.5355  0.2257 -0.0580
  152SAPE  H20R16817   0.598   0.585  21.496  0.3738 -0.5059  0.7920
  152SAPE  H20S16818   0.564   0.415  21.484  2.5549  0.6571  0.8709
  152SAPE  H20T16819   0.470   0.518  21.377  0.6347  0.1693 -0.2930
  152SAPE   C3316820   0.101   1.240  20.193  0.3193  0.0297 -0.0147
  152SAPE   H3X16821   0.043   1.333  20.176 -1.3003 -1.3967 -3.1478
  152SAPE   H3Y16822   0.091   1.228  20.303 -1.6340  2.6415  0.1944
  152SAPE   C3416823   0.037   1.137  20.101 -0.0745 -0.2714 -0.0361
  152SAPE   H4X16824   0.084   1.038  20.120 -0.2908 -0.4430 -0.3846
  152SAPE   H4Y16825   0.041   1.167  19.994 -0.6785  0.6816  0.1980
  152SAPE   C3516826  -0.107   1.101  20.143  0.1421  0.2151  0.0487
  152SAPE   H5X16827  -0.155   1.028  20.075 -0.0860 -1.4731  1.9110
  152SAPE   H5Y16828  -0.171   1.192  20.144  0.2546  0.3073 -0.7249
  152SAPE   C3616829  -0.121   1.055  20.291  0.1764 -0.6178  1.2852
  152SAPE   H6X16830  -0.229   1.034  20.307  0.0071 -1.6963 -0.8934
  152SAPE   H6Y16831  -0.093   1.137  20.360 -1.0091  0.4675  0.5421
  152SAPE   C3716832  -0.040   0.938  20.329  0.2997  0.2861 -0.0673
  152SAPE   H7X16833  -0.056   0.898  20.432  0.6907 -1.9994 -0.8362
  152SAPE   H7Y16834   0.064   0.976  20.324  0.4920 -0.3976 -2.7184
  152SAPE   C3816835  -0.071   0.818  20.241 -0.1026  0.7257  0.0553
  152SAPE   H8X16836  -0.031   0.840  20.140 -0.4870  1.7107  0.1089
  152SAPE   H8Y16837  -0.181   0.805  20.232  0.2328 -2.8099 -0.2935
  152SAPE   C3916838  -0.022   0.689  20.297  0.6494  0.1805 -0.4619
  152SAPE   H9X16839  -0.035   0.690  20.407 -1.5086 -0.1637 -0.6748
  152SAPE   H9Y16840   0.089   0.693  20.290  0.8431 -0.5621  1.5831
  152SAPE  C31016841  -0.087   0.565  20.238 -0.2352  0.4754  0.0868
  152SAPE  H10X16842  -0.020   0.476  20.242 -2.6698 -1.4886 -0.5226
  152SAPE  H10Y16843  -0.105   0.580  20.129  1.8523 -1.1492 -0.5617
  152SAPE  C31116844  -0.215   0.507  20.300 -0.0290 -0.1102  0.9147
  152SAPE  H11X16845  -0.295   0.583  20.289  0.1202 -0.1820 -0.9022
  152SAPE  H11Y16846  -0.193   0.488  20.408 -4.0316 -1.3746  1.6657
  152SAPE  C31216847  -0.262   0.375  20.234  0.3619 -0.3572 -0.2575
  152SAPE  H12X16848  -0.176   0.307  20.213  1.7851  1.1726  0.3499
  152SAPE  H12Y16849  -0.301   0.404  20.135  0.7979  2.6804  0.3787
  152SAPE  C31316850  -0.366   0.303  20.318 -0.0225 -0.2152 -0.3561
  152SAPE  H13X16851  -0.464   0.355  20.312 -0.1794 -0.6172 -1.7559
  152SAPE  H13Y16852  -0.322   0.307  20.420  0.8793  0.2974 -0.7508
  152SAPE  C31416853  -0.388   0.162  20.277  1.0266  0.8234  0.4180
  152SAPE  H14X16854  -0.292   0.108  20.260  0.7714  1.2188 -3.0127
  152SAPE  H14Y16855  -0.443   0.167  20.181  1.5407  0.6884  0.1132
  152SAPE  C31516856  -0.470   0.075  20.378  0.1218  0.5179 -0.2390
  152SAPE  H15X16857  -0.547   0.148  20.409 -2.0364 -1.3551 -0.9360
  152SAPE  H15Y16858  -0.410   0.032  20.462 -0.0150 -1.8622 -1.2739
  152SAPE  C31616859  -0.555  -0.042  20.312  0.2580  0.4725  0.1944
  152SAPE  H16X16860  -0.617   0.004  20.233  1.5932  2.3960  0.1931
  152SAPE  H16Y16861  -0.616  -0.075  20.399  2.3524 -0.6778  1.3085
  152SAPE  C31716862  -0.465  -0.155  20.250 -0.0744  0.2580 -0.6112
  152SAPE  H17X16863  -0.383  -0.186  20.319 -1.7182 -1.1042  0.8371
  152SAPE  H17Y16864  -0.413  -0.100  20.169  0.3381  1.3572  0.3676
  152SAPE  C31816865  -0.540  -0.274  20.207  0.0280 -0.3337 -0.4621
  152SAPE  H18X16866  -0.628  -0.256  20.141  0.5866  1.7603 -0.6960
  152SAPE  H18Y16867  -0.575  -0.301  20.309  1.8678  0.9476  0.5761
  152SAPE  H18Z16868  -0.463  -0.347  20.172  1.2794 -0.5477  2.4954
  153SAPE     N16869   0.967   2.113  22.613  0.7806  0.1652 -0.5498
  153SAPE   HN116870   0.953   2.080  22.515  1.1672  1.0025 -0.8988
  153SAPE   HN216871   0.979   2.216  22.623 -1.6853  0.2728  3.3090
  153SAPE   HN316872   1.037   2.060  22.668  2.0130  0.8655 -1.3992
  153SAPE   C1216873   0.842   2.081  22.695 -0.1812 -0.3195  0.2686
  153SAPE  H12A16874   0.759   2.137  22.648  0.9363  0.7236 -0.5071
  153SAPE  H12B16875   0.850   2.111  22.802  1.1087 -2.6939  0.9043
  153SAPE   C1116876   0.814   1.932  22.694 -0.5644 -0.6255  0.6358
  153SAPE  H11A16877   0.802   1.893  22.591 -0.6702 -0.9826  0.7836
  153SAPE  H11B16878   0.715   1.924  22.745  0.2618 -0.2866  2.3573
  153SAPE     P16879   0.913   1.804  22.895  0.0522 -0.2404 -0.5892
  153SAPE   O1316880   1.045   1.747  22.922  0.8314  0.7280 -0.1281
  153SAPE   O1416881   0.850   1.895  22.993 -0.0796 -0.6274 -0.1688
  153SAPE   O1216882   0.920   1.871  22.760 -0.1107  0.3206  0.5489
  153SAPE   O1116883   0.812   1.686  22.880 -0.6685 -0.6007 -0.2025
  153SAPE    C116884   0.789   1.619  22.753 -0.1476 -0.6828 -0.3740
  153SAPE    HA16885   0.695   1.657  22.707  0.5241 -0.1598 -1.3644
  153SAPE    HB16886   0.872   1.631  22.680 -0.8347  1.6111 -0.8725
  153SAPE    C216887   0.774   1.467  22.762  0.3300  0.5992  0.1226
  153SAPE    HS16888   0.680   1.443  22.816  1.1618 -2.2405  0.4681
  153SAPE   O2116889   0.894   1.412  22.816  0.0792 -0.0483 -0.2462
  153SAPE   C2116890   0.893   1.423  22.945 -0.4721 -0.5691 -1.1436
  153SAPE   O2216891   0.796   1.453  23.013 -0.2996  0.1667  0.1426
  153SAPE   C2216892   1.033   1.372  22.998  0.7395 -0.2843  0.1095
  153SAPE   H2R16893   1.058   1.302  22.916 -1.6584 -1.4354  0.2763
  153SAPE   H2S16894   1.094   1.464  23.013 -1.8766  1.3815  1.2819
  153SAPE    C316895   0.743   1.425  22.621 -0.0396  0.8173 -0.7825
  153SAPE    HX16896   0.816   1.477  22.555  2.8695 -1.1523  0.6717
  153SAPE    HY16897   0.642   1.463  22.597 -1.7457 -1.7710  1.7123
  153SAPE   O3116898   0.743   1.283  22.600  0.0086 -0.3185  0.6541
  153SAPE   C3116899   0.858   1.228  22.570 -0.5386 -0.1331 -0.0591
  153SAPE   O3216900   0.971   1.278  22.558  0.7514  0.2297  0.3517
  153SAPE   C3216901   0.821   1.084  22.558 -0.6115 -0.1944 -0.6298
  153SAPE   H2X16902   0.756   1.063  22.471  0.1704 -1.9917 -0.8335
  153SAPE   H2Y16903   0.772   1.050  22.652  0.0152 -0.8668 -0.5369
  153SAPE   C2316904   1.047   1.300  23.135 -0.3381  0.1385 -0.7433
  153SAPE   H3R16905   1.001   1.199  23.132  0.4802 -0.2274 -1.4064
  153SAPE   H3S16906   1.000   1.366  23.211  0.4144  1.4244 -1.3741
  153SAPE   C2416907   1.202   1.290  23.172 -0.4153 -0.0441  0.2799
  153SAPE   H4R16908   1.261   1.246  23.089  0.3492  0.2337  0.6669
  153SAPE   H4S16909   1.214   1.221  23.259 -1.3703  0.0020  0.4591
  153SAPE   C2516910   1.255   1.427  23.209 -0.2862 -0.1136 -0.2916
  153SAPE   H5R16911   1.316   1.474  23.130 -0.4953 -0.1805 -0.4917
  153SAPE   C2616912   1.261   1.485  23.333 -0.0793  0.2728  0.7804
  153SAPE   H6R16913   1.301   1.586  23.349  0.7921  0.1235 -0.3842
  153SAPE   C2716914   1.186   1.429  23.443  0.4287 -1.1554 -0.6709
  153SAPE   H7R16915   1.101   1.361  23.419  0.4626 -2.1681  1.7971
  153SAPE   H7S16916   1.132   1.509  23.498 -1.3238 -1.7912 -1.3861
  153SAPE   C2816917   1.273   1.362  23.540 -0.5264 -0.3916 -0.3075
  153SAPE   H8R16918   1.374   1.352  23.499 -0.8339  2.5601 -2.0429
  153SAPE   C2916919   1.247   1.311  23.659 -0.1917 -0.5705 -0.4999
  153SAPE   H9R16920   1.332   1.272  23.717 -1.6542 -1.3446  1.2449
  153SAPE  C21016921   1.103   1.312  23.719  0.0770 -0.2178  0.0731
  153SAPE  H10R16922   1.032   1.280  23.639  1.0397  0.1854 -0.9656
  153SAPE  H10S16923   1.078   1.412  23.760  0.2838 -0.1267 -0.0242
  153SAPE  C21116924   1.098   1.212  23.840 -0.4393  0.2736 -0.2706
  153SAPE  H11R16925   1.066   1.111  23.810  1.2507 -0.8540  1.5227
  153SAPE  C21216926   1.159   1.229  23.960  0.1864  0.8960 -0.2349
  153SAPE  H12R16927   1.159   1.138  24.022  1.5960 -0.5355 -2.1806
  153SAPE  C21316928   1.244   1.345  24.013  0.3315  0.5132  0.1029
  153SAPE  H13R16929   1.275   1.416  23.933 -0.7175  0.0140 -0.7723
  153SAPE  H13S16930   1.325   1.303  24.075 -0.2832 -1.2313 -0.2097
  153SAPE  C21416931   1.159   1.416  24.116 -0.0149  0.6540  0.4823
  153SAPE  H14R16932   1.070   1.371  24.162  0.4363 -0.3184  0.4284
  153SAPE  C21516933   1.198   1.530  24.178  0.5688  0.3045 -1.0003
  153SAPE  H15R16934   1.119   1.580  24.236  1.1156  0.4654 -0.3894
  153SAPE  C21616935   1.319   1.621  24.153 -0.9953  0.5823  0.1758
  153SAPE  H16R16936   1.279   1.724  24.146 -2.3830  0.0955  0.5671
  153SAPE  H16S16937   1.371   1.585  24.062  1.8786  0.7590  1.6329
  153SAPE  C21716938   1.417   1.623  24.272  0.4733  0.8918  0.1132
  153SAPE  H17R16939   1.446   1.516  24.280  0.4892  0.9487  0.8951
  153SAPE  H17S16940   1.356   1.649  24.360  1.2211 -1.2735  1.3560
  153SAPE  C21816941   1.534   1.721  24.251 -0.4935  0.7778 -0.1239
  153SAPE  H18R16942   1.594   1.713  24.344 -1.2655  0.7306  0.3807
  153SAPE  H18S16943   1.485   1.817  24.223 -2.7172 -0.3993 -0.5169
  153SAPE  C21916944   1.608   1.705  24.120  0.0533  0.2534 -0.3439
  153SAPE  H19R16945   1.528   1.710  24.043 -1.5474  0.2859  1.2589
  153SAPE  H19S16946   1.656   1.606  24.111 -0.7945 -0.2017  0.0955
  153SAPE  C22016947   1.708   1.816  24.088  0.1606 -0.2240 -0.1027
  153SAPE  H20R16948   1.670   1.921  24.088 -0.5715 -0.4628 -1.5612
  153SAPE  H20S16949   1.755   1.797  23.989 -2.7368 -0.6360 -1.5004
  153SAPE  H20T16950   1.777   1.812  24.175  0.2475  0.2786 -0.1435
  153SAPE   C3316951   0.951   1.003  22.548 -0.1223  0.2511  0.0245
  153SAPE   H3X16952   1.021   1.012  22.634  0.6347  1.3921 -0.6860
  153SAPE   H3Y16953   1.018   1.045  22.470  0.5798  0.7515  0.8827
  153SAPE   C3416954   0.921   0.854  22.510 -0.5159 -0.4554 -0.4503
  153SAPE   H4X16955   0.872   0.813  22.601  0.6837  0.1477  0.4981
  153SAPE   H4Y16956   1.020   0.805  22.510  0.3921  1.2648  0.2897
  153SAPE   C3516957   0.851   0.827  22.377  0.1390 -0.2558  0.3870
  153SAPE   H5X16958   0.918   0.866  22.297 -0.1239  2.4850  1.3898
  153SAPE   H5Y16959   0.756   0.886  22.377  1.3004  1.7231 -0.2522
  153SAPE   C3616960   0.817   0.683  22.348  0.1804  0.7225 -0.1122
  153SAPE   H6X16961   0.898   0.619  22.390 -1.6994 -0.0440  2.5789
  153SAPE   H6Y16962   0.809   0.661  22.239 -1.1852  0.7378 -0.0300
  153SAPE   C3716963   0.685   0.640  22.415  0.3998  0.1861  0.0500
  153SAPE   H7X16964   0.589   0.688  22.384  0.4993  0.3745  0.0325
  153SAPE   H7Y16965   0.706   0.676  22.518 -0.0425  0.2799  0.1095
  153SAPE   C3816966   0.664   0.487  22.400  0.3775  0.3028 -0.5200
  153SAPE   H8X16967   0.570   0.462  22.454  0.8652  0.2245  0.3099
  153SAPE   H8Y16968   0.749   0.431  22.445  0.6654 -0.3251 -1.7815
  153SAPE   C3916969   0.656   0.453  22.251 -0.3336 -0.5586 -0.4742
  153SAPE   H9X16970   0.641   0.346  22.228  0.9794 -0.8031 -0.2907
  153SAPE   H9Y16971   0.753   0.476  22.201 -0.2592 -0.9915 -0.5315
  153SAPE  C31016972   0.543   0.518  22.173  0.9179  0.3106  0.4219
  153SAPE  H10X16973   0.544   0.627  22.191 -3.8934  0.3109  2.0718
  153SAPE  H10Y16974   0.443   0.488  22.212  0.6334  0.8553  0.1256
  153SAPE  C31116975   0.544   0.484  22.019  0.6644 -1.6525  0.2606
  153SAPE  H11X16976   0.445   0.521  21.984  1.1262  2.4557  2.6695
  153SAPE  H11Y16977   0.548   0.374  22.006  0.0234 -1.5795 -0.7586
  153SAPE  C31216978   0.663   0.543  21.941  0.3512  0.9132  0.2691
  153SAPE  H12X16979   0.757   0.523  21.996  0.2234 -2.7073 -0.5810
  153SAPE  H12Y16980   0.638   0.651  21.945 -2.2962  0.3642  0.5957
  153SAPE  C31316981   0.664   0.491  21.796 -0.0901  0.3536  0.1083
  153SAPE  H13X16982   0.751   0.542  21.748  0.4063 -0.1264  0.4738
  153SAPE  H13Y16983   0.570   0.513  21.742 -1.5572 -0.5623  2.1587
  153SAPE  C31416984   0.700   0.342  21.785  0.6559  0.3090  0.3890
  153SAPE  H14X16985   0.688   0.328  21.675  0.9849  1.2823  0.2197
  153SAPE  H14Y16986   0.625   0.273  21.830  2.6047 -0.8573  2.0027
  153SAPE  C31516987   0.836   0.303  21.838  0.4225 -0.0971  0.2494
  153SAPE  H15X16988   0.865   0.361  21.928  0.0708  0.5835 -0.0689
  153SAPE  H15Y16989   0.910   0.328  21.759  1.3655 -1.5326  0.6469
  153SAPE  C31616990   0.857   0.153  21.876 -0.4914  0.7136  0.4386
  153SAPE  H16X16991   0.960   0.138  21.914  0.4907 -0.0939 -2.3300
  153SAPE  H16Y16992   0.843   0.088  21.788  1.8129 -0.1259  0.6254
  153SAPE  C31716993   0.748   0.092  21.967  0.3230 -0.6515 -0.1595
  153SAPE  H17X16994   0.653   0.080  21.910 -0.0070 -2.2793  0.6749
  153SAPE  H17Y16995   0.741   0.157  22.056 -2.7424  0.0249 -0.7956
  153SAPE  C31816996   0.793  -0.048  22.015  0.8541  0.5357  0.2484
  153SAPE  H18X16997   0.836  -0.103  21.929  0.7348  1.7235 -0.6030
  153SAPE  H18Y16998   0.709  -0.114  22.045 -0.8883  1.1114 -2.8638
  153SAPE  H18Z16999   0.865  -0.040  22.099  2.6600 -2.2651 -0.8957
  154SAPE     N17000   2.575   1.859  23.138  0.5947  0.1914  0.1694
  154SAPE   HN117001   2.492   1.892  23.084 -0.4224 -1.6781  0.5182
  154SAPE   HN217002   2.660   1.907  23.101  2.1942 -1.8265  1.0880
  154SAPE   HN317003   2.596   1.758  23.142  1.3560  0.1679 -2.5579
  154SAPE   C1217004   2.543   1.901  23.282 -0.3473  0.4328  0.2111
  154SAPE  H12A17005   2.611   1.846  23.350 -2.4818 -3.7248 -0.7208
  154SAPE  H12B17006   2.441   1.865  23.308 -0.4172 -0.0780 -0.7084
  154SAPE   C1117007   2.551   2.053  23.294  0.0081 -0.8542 -0.7582
  154SAPE  H11A17008   2.527   2.082  23.398  1.6109 -1.7483 -0.1103
  154SAPE  H11B17009   2.466   2.092  23.233 -0.1732  0.9816  0.5812
  154SAPE     P17010   2.798   2.100  23.351  0.2927 -0.1723  0.2780
  154SAPE   O1317011   2.846   1.966  23.384  0.0809 -0.0185  0.3778
  154SAPE   O1417012   2.899   2.187  23.284  0.1140  0.3848  0.3096
  154SAPE   O1217013   2.676   2.101  23.254  0.1319 -0.7114  0.1562
  154SAPE   O1117014   2.746   2.170  23.492  0.4094 -0.4968  0.2759
  154SAPE    C117015   2.696   2.304  23.488  0.1139  0.0710 -0.5399
  154SAPE    HA17016   2.740   2.372  23.412 -1.5651  3.0944  0.9773
  154SAPE    HB17017   2.590   2.286  23.458  0.0736 -0.3965 -0.1319
  154SAPE    C217018   2.709   2.380  23.621  0.1341  0.1166  0.6596
  154SAPE    HS17019   2.811   2.421  23.636  0.2446  0.0366  0.1491
  154SAPE   O2117020   2.649   2.298  23.725 -0.5003  0.1803  0.4015
  154SAPE   C2117021   2.737   2.235  23.793 -0.0376 -0.3149 -0.6298
  154SAPE   O2217022   2.854   2.255  23.794  0.6866 -0.5470  0.1915
  154SAPE   C2217023   2.662   2.120  23.871 -0.1194  0.4366 -0.0896
  154SAPE   H2R17024   2.552   2.113  23.857  0.0755 -4.8903 -1.1692
  154SAPE   H2S17025   2.694   2.027  23.818 -1.1834  0.6801 -1.1975
  154SAPE    C317026   2.619   2.510  23.614 -0.3584  0.1343  0.2592
  154SAPE    HX17027   2.621   2.570  23.708 -1.8521  0.8916 -0.1616
  154SAPE    HY17028   2.519   2.463  23.612 -0.6272  0.7042  0.1312
  154SAPE   O3117029   2.660   2.580  23.493  0.2464 -0.6983 -0.4577
  154SAPE   C3117030   2.561   2.646  23.435 -0.7039  0.1135 -0.2876
  154SAPE   O3217031   2.447   2.635  23.459  0.1501  0.6420  0.4169
  154SAPE   C3217032   2.625   2.713  23.316  1.1037 -0.2007 -0.0825
  154SAPE   H2X17033   2.682   2.632  23.266  0.6917 -1.9253  2.1339
  154SAPE   H2Y17034   2.706   2.778  23.355  2.8024 -2.0669 -0.3535
  154SAPE   C2317035   2.692   2.114  24.016  0.4347  0.0392 -0.1619
  154SAPE   H3R17036   2.697   2.221  24.047 -1.7378  0.1000  0.1514
  154SAPE   H3S17037   2.794   2.073  24.032 -0.2532 -1.2617  1.0939
  154SAPE   C2417038   2.581   2.034  24.086 -0.2370 -0.3199 -0.2221
  154SAPE   H4R17039   2.486   2.084  24.059 -0.7655 -1.0658  0.2229
  154SAPE   H4S17040   2.590   2.052  24.195 -1.4628  1.5628 -0.3766
  154SAPE   C2517041   2.570   1.886  24.045  0.2656 -0.6251  0.3810
  154SAPE   H5R17042   2.566   1.873  23.936 -2.5336  1.2328  0.1445
  154SAPE   C2617043   2.561   1.771  24.120 -0.3814  0.1463  0.7469
  154SAPE   H6R17044   2.547   1.677  24.065 -0.8495  0.9476 -0.5639
  154SAPE   C2717045   2.570   1.760  24.277  0.2921 -0.7995  0.4224
  154SAPE   H7R17046   2.532   1.851  24.329  1.1735  1.0603 -2.0152
  154SAPE   H7S17047   2.679   1.762  24.302  0.3223 -1.7002  0.3733
  154SAPE   C2817048   2.490   1.650  24.326  0.0612  0.1409 -0.5333
  154SAPE   H8R17049   2.384   1.652  24.299 -0.5129  0.5672  1.5496
  154SAPE   C2917050   2.522   1.552  24.414  0.8005  0.1318 -0.1826
  154SAPE   H9R17051   2.450   1.475  24.447  1.0419 -0.5079 -1.1147
  154SAPE  C21017052   2.657   1.541  24.484 -0.0269  0.5218  0.2606
  154SAPE  H10R17053   2.652   1.589  24.584 -0.6948  0.9505  0.0288
  154SAPE  H10S17054   2.734   1.585  24.417 -1.2948 -0.4850 -2.0155
  154SAPE  C21117055   2.700   1.394  24.500 -0.1913  0.3782 -0.3766
  154SAPE  H11R17056   2.687   1.346  24.599 -1.0701  1.8631  0.2566
  154SAPE  C21217057   2.754   1.316  24.403  0.0884 -0.0927  0.0085
  154SAPE  H12R17058   2.743   1.208  24.417 -0.0926 -0.2998 -1.5592
  154SAPE  C21317059   2.795   1.344  24.264 -0.1934  0.1553  0.4062
  154SAPE  H13R17060   2.872   1.271  24.233 -0.1029  0.0219  0.9299
  154SAPE  H13S17061   2.824   1.451  24.265 -2.9262  0.9964 -0.0386
  154SAPE  C21417062   2.682   1.331  24.160 -0.5357 -0.1440 -0.3802
  154SAPE  H14R17063   2.595   1.277  24.202  1.1630 -3.8856 -1.2853
  154SAPE  C21517064   2.672   1.390  24.040  0.5767 -0.0600  0.1980
  154SAPE  H15R17065   2.582   1.376  23.978 -1.9477  0.9268  3.3504
  154SAPE  C21617066   2.778   1.480  23.986 -0.2019 -0.4456  0.1021
  154SAPE  H16R17067   2.879   1.474  24.033 -0.6427  1.2426  1.3472
  154SAPE  H16S17068   2.757   1.588  24.000  2.7707  0.9455 -4.1872
  154SAPE  C21717069   2.816   1.460  23.838  0.3016  0.0301 -0.3383
  154SAPE  H17R17070   2.830   1.351  23.826  0.4490  0.0123 -0.0159
  154SAPE  H17S17071   2.911   1.511  23.813  1.8001 -2.4583 -0.0006
  154SAPE  C21817072   2.715   1.508  23.725 -0.3141  0.0486 -0.3632
  154SAPE  H18R17073   2.620   1.453  23.738 -0.4212 -0.1454 -1.8097
  154SAPE  H18S17074   2.765   1.482  23.629 -0.8040 -1.3507 -0.2529
  154SAPE  C21917075   2.689   1.660  23.729  0.0426  0.2814 -0.1270
  154SAPE  H19R17076   2.783   1.718  23.740 -0.0515  0.8464 -1.9502
  154SAPE  H19S17077   2.629   1.680  23.820  0.8069 -1.8391  0.9189
  154SAPE  C22017078   2.618   1.706  23.599 -0.6472 -0.0117  0.3225
  154SAPE  H20R17079   2.574   1.807  23.609 -1.2430 -0.3632  1.4087
  154SAPE  H20S17080   2.539   1.632  23.571 -1.0960  0.8456 -0.7840
  154SAPE  H20T17081   2.686   1.709  23.511 -1.3541  1.7122 -0.2121
  154SAPE   C3317082   2.527   2.778  23.223  1.2566  0.2567 -0.2916
  154SAPE   H3X17083   2.444   2.707  23.203  3.0234 -2.2506  0.6734
  154SAPE   H3Y17084   2.576   2.798  23.125 -0.2790  3.5020 -0.5158
  154SAPE   C3417085   2.479   2.922  23.266  0.3931  0.2278  0.2866
  154SAPE   H4X17086   2.571   2.980  23.283  1.3707 -0.5391 -1.9726
  154SAPE   H4Y17087   2.405   2.912  23.349  0.2700 -1.2658  0.0383
  154SAPE   C3517088   2.404   2.996  23.154 -0.0270  0.4619 -0.2227
  154SAPE   H5X17089   2.296   2.974  23.167  0.1671 -0.7026 -0.4427
  154SAPE   H5Y17090   2.438   2.955  23.056  0.0521 -0.6577  0.2688
  154SAPE   C3617091   2.433   3.143  23.152 -0.1951 -0.6415 -0.0766
  154SAPE   H6X17092   2.406   3.182  23.052 -3.4810 -0.0021  0.9653
  154SAPE   H6Y17093   2.543   3.153  23.169 -0.2888 -0.3425  0.3481
  154SAPE   C3717094   2.355   3.223  23.261  0.0343 -0.0995  0.5908
  154SAPE   H7X17095   2.359   3.168  23.357  0.1362  0.0485  0.6708
  154SAPE   H7Y17096   2.247   3.232  23.236  0.4703 -0.2600 -1.6275
  154SAPE   C3817097   2.414   3.363  23.288 -0.8581  0.1685  0.6690
  154SAPE   H8X17098   2.519   3.370  23.253 -0.2599 -1.4725  1.9960
  154SAPE   H8Y17099   2.409   3.390  23.395 -1.6403  0.4230  0.5693
  154SAPE   C3917100   2.335   3.481  23.228 -0.1038 -0.0622  0.4949
  154SAPE   H9X17101   2.230   3.492  23.263  0.0170  2.7873  0.2669
  154SAPE   H9Y17102   2.326   3.468  23.118  1.2824  0.7464  0.2685
  154SAPE  C31017103   2.392   3.614  23.270 -0.0153 -0.0814 -0.2483
  154SAPE  H10X17104   2.489   3.627  23.217  0.3692  0.1820  0.4937
  154SAPE  H10Y17105   2.396   3.630  23.380 -0.7721  2.0284 -0.4812
  154SAPE  C31117106   2.312   3.735  23.226  0.5176  0.7198 -0.1559
  154SAPE  H11X17107   2.209   3.725  23.264 -0.4021 -0.6908 -2.7845
  154SAPE  H11Y17108   2.299   3.742  23.116 -0.3028 -0.9838 -0.1853
  154SAPE  C31217109   2.373   3.871  23.263  0.5748 -0.0196 -0.2985
  154SAPE  H12X17110   2.432   3.861  23.357  2.7146  0.3707 -1.5283
  154SAPE  H12Y17111   2.289   3.939  23.289  1.1782  0.7131 -0.2448
  154SAPE  C31317112   2.446   3.930  23.143  0.1903  0.1788 -0.1952
  154SAPE  H13X17113   2.377   3.927  23.057 -0.0385 -4.0198 -0.0751
  154SAPE  H13Y17114   2.543   3.882  23.117 -0.3096 -0.8562 -0.1858
  154SAPE  C31417115   2.493   4.080  23.161 -0.3480  0.5182 -0.3283
  154SAPE  H14X17116   2.410   4.153  23.162 -0.9128 -0.1106 -0.3442
  154SAPE  H14Y17117   2.567   4.099  23.080  1.1805 -0.4607  0.7833
  154SAPE  C31517118   2.580   4.106  23.277 -0.1115  0.3405  0.7470
  154SAPE  H15X17119   2.665   4.033  23.281 -1.0751 -1.0350 -1.6807
  154SAPE  H15Y17120   2.527   4.073  23.369 -2.5268 -2.0073 -1.3022
  154SAPE  C31617121   2.626   4.245  23.309  0.1552  0.4554 -0.3114
  154SAPE  H16X17122   2.561   4.326  23.271 -2.0695 -0.0916  2.0200
  154SAPE  H16Y17123   2.729   4.269  23.273  0.2744  0.4821  0.0324
  154SAPE  C31717124   2.644   4.270  23.451  0.1493  0.6200 -0.7376
  154SAPE  H17X17125   2.721   4.345  23.480  0.0184  0.3545  0.3494
  154SAPE  H17Y17126   2.684   4.178  23.499  0.6035  2.0787  1.8592
  154SAPE  C31817127   2.514   4.307  23.523 -0.2981  0.9729  0.2782
  154SAPE  H18X17128   2.514   4.264  23.626 -1.1613 -2.3659 -0.9798
  154SAPE  H18Y17129   2.421   4.267  23.478 -1.3705  1.7446  1.7253
  154SAPE  H18Z17130   2.503   4.417  23.520 -0.7516  0.9108 -1.4834
  155SAPE     N17131   0.494   2.408  26.170 -0.1298 -0.5666  0.2284
  155SAPE   HN117132   0.452   2.415  26.075  0.3908  1.0417  0.0760
  155SAPE   HN217133   0.419   2.427  26.239  0.2539  0.3565  0.4145
  155SAPE   HN317134   0.555   2.492  26.181 -0.7395 -0.0610 -0.1862
  155SAPE   C1217135   0.567   2.278  26.199 -0.7801 -0.1716 -0.3205
  155SAPE  H12A17136   0.490   2.202  26.172 -2.1026  1.8489 -2.6717
  155SAPE  H12B17137   0.593   2.286  26.306  0.4205  2.4517 -0.7294
  155SAPE   C1117138   0.690   2.252  26.112 -0.6057 -0.3576 -0.2046
  155SAPE  H11A17139   0.732   2.159  26.157 -1.5717  0.1173  1.8187
  155SAPE  H11B17140   0.767   2.331  26.123 -2.1177  0.8608  2.8010
  155SAPE     P17141   0.672   2.115  25.894 -0.2838  0.2499  0.3040
  155SAPE   O1317142   0.813   2.087  25.858  0.3811 -0.2396  0.4547
  155SAPE   O1417143   0.601   2.005  25.960  0.6220  1.1542 -0.4274
  155SAPE   O1217144   0.665   2.249  25.978 -0.1117  0.9298 -0.4677
  155SAPE   O1117145   0.596   2.147  25.764  0.2124 -0.7968  0.1304
  155SAPE    C117146   0.463   2.199  25.764 -0.7115  0.3222 -0.2842
  155SAPE    HA17147   0.436   2.260  25.853  1.2003  2.1824 -0.8658
  155SAPE    HB17148   0.454   2.277  25.684 -0.6933  2.6308  1.8372
  155SAPE    C217149   0.362   2.090  25.734  0.3403  0.1289  0.7372
  155SAPE    HS17150   0.409   1.992  25.756 -2.9814 -1.7480  0.1059
  155SAPE   O2117151   0.334   2.092  25.595  0.4574  0.0122 -0.2741
  155SAPE   C2117152   0.282   1.980  25.545  0.3601 -0.7733  0.5367
  155SAPE   O2217153   0.247   1.883  25.608  0.4032 -0.0472 -0.0416
  155SAPE   C2217154   0.269   1.996  25.390 -0.7307 -0.0407 -0.4782
  155SAPE   H2R17155   0.199   2.078  25.363 -0.3288  0.7366  0.7603
  155SAPE   H2S17156   0.367   2.043  25.366 -0.0031 -0.7362  1.0219
  155SAPE    C317157   0.238   2.099  25.833  0.3344 -0.0663  0.0310
  155SAPE    HX17158   0.282   2.080  25.933  2.5566  1.3483 -0.5944
  155SAPE    HY17159   0.161   2.024  25.807 -0.5690  0.9215 -0.1971
  155SAPE   O3117160   0.179   2.234  25.835  0.1527 -0.1118 -0.1690
  155SAPE   C3117161   0.099   2.259  25.735  0.5044 -0.4002  0.0586
  155SAPE   O3217162   0.041   2.179  25.663 -0.3437 -0.1398  0.2741
  155SAPE   C3217163   0.090   2.417  25.722  0.3480  0.5909 -0.0371
  155SAPE   H2X17164   0.053   2.450  25.822  2.7735  0.0367  1.1523
  155SAPE   H2Y17165   0.021   2.439  25.639  1.7929  0.0582 -1.4340
  155SAPE   C2317166   0.240   1.867  25.317 -0.4886  0.2855 -0.1778
  155SAPE   H3R17167   0.132   1.844  25.304 -0.9057  2.4880 -1.0964
  155SAPE   H3S17168   0.288   1.779  25.365  1.5794  0.8055 -1.1638
  155SAPE   C2417169   0.325   1.855  25.189  0.8642 -0.3346 -0.0211
  155SAPE   H4R17170   0.328   1.747  25.161 -0.1593 -0.2900 -0.3709
  155SAPE   H4S17171   0.427   1.881  25.222  1.0696 -0.2302 -0.7146
  155SAPE   C2517172   0.278   1.942  25.075  0.1758 -0.2043  0.2700
  155SAPE   H5R17173   0.322   2.042  25.084 -0.6692  0.3520 -1.3224
  155SAPE   C2617174   0.199   1.914  24.970 -0.0313 -0.1664  0.0688
  155SAPE   H6R17175   0.171   1.999  24.907  2.7235  1.4203  0.8093
  155SAPE   C2717176   0.131   1.782  24.953  0.1665  0.2324  0.7178
  155SAPE   H7R17177   0.023   1.803  24.936  0.6106  1.3204 -1.0551
  155SAPE   H7S17178   0.148   1.714  25.039  2.8432 -1.4661 -1.0242
  155SAPE   C2817179   0.193   1.718  24.839 -0.1910 -0.6038 -0.1268
  155SAPE   H8R17180   0.302   1.714  24.851 -0.1630  1.4202  0.7096
  155SAPE   C2917181   0.129   1.667  24.732  0.3860 -0.6233 -0.1086
  155SAPE   H9R17182   0.196   1.628  24.653  2.5741 -0.5890  1.6410
  155SAPE  C21017183  -0.020   1.667  24.694 -0.2676  0.2946  0.3313
  155SAPE  H10R17184  -0.027   1.668  24.583 -0.8810  0.0285  0.3630
  155SAPE  H10S17185  -0.074   1.756  24.733  1.1094  1.7133 -0.9217
  155SAPE  C21117186  -0.077   1.542  24.748 -0.0803  0.0237 -0.1945
  155SAPE  H11R17187  -0.059   1.453  24.686 -0.3754  0.6049 -1.1465
  155SAPE  C21217188  -0.161   1.522  24.853  0.1223  0.5151  0.4569
  155SAPE  H12R17189  -0.188   1.419  24.880 -1.9995  0.5253 -1.3392
  155SAPE  C21317190  -0.236   1.622  24.947  0.8775 -0.1961  0.7815
  155SAPE  H13R17191  -0.347   1.618  24.935  0.7406  2.3267  0.7148
  155SAPE  H13S17192  -0.215   1.730  24.935 -1.5365  0.3321  0.8206
  155SAPE  C21417193  -0.194   1.584  25.086  0.4959  0.0330 -0.3142
  155SAPE  H14R17194  -0.085   1.593  25.099  0.7280 -0.4301 -1.7580
  155SAPE  C21517195  -0.277   1.572  25.194  0.6926  1.2716  0.3159
  155SAPE  H15R17196  -0.243   1.540  25.294  0.7360  2.4602  0.6984
  155SAPE  C21617197  -0.427   1.576  25.193  1.0211  0.2946  0.1442
  155SAPE  H16R17198  -0.468   1.473  25.203 -0.4481  0.7700 -0.6242
  155SAPE  H16S17199  -0.465   1.605  25.093  0.4794  0.3952  0.3716
  155SAPE  C21717200  -0.490   1.644  25.310 -1.1806 -0.6488  0.1266
  155SAPE  H17R17201  -0.476   1.753  25.292 -0.5791 -0.9536 -1.4004
  155SAPE  H17S17202  -0.431   1.619  25.401 -0.9411  2.2102  0.8835
  155SAPE  C21817203  -0.635   1.600  25.305  0.6840 -0.5511 -0.3532
  155SAPE  H18R17204  -0.653   1.490  25.301  0.7621 -0.5641 -0.3464
  155SAPE  H18S17205  -0.689   1.637  25.216 -0.4320 -1.5269 -0.1135
  155SAPE  C21917206  -0.711   1.651  25.425 -0.9080  0.3665 -0.2226
  155SAPE  H19R17207  -0.820   1.632  25.416 -0.7648 -1.1331  0.8186
  155SAPE  H19S17208  -0.701   1.762  25.433 -0.2575  0.2211  1.5895
  155SAPE  C22017209  -0.676   1.577  25.554 -1.2099  0.7259  0.3483
  155SAPE  H20R17210  -0.730   1.480  25.551  0.4403 -0.2258  0.5804
  155SAPE  H20S17211  -0.704   1.631  25.647 -0.0850  2.3838 -0.2366
  155SAPE  H20T17212  -0.568   1.555  25.567 -1.5978 -1.5615  0.1681
  155SAPE   C3317213   0.220   2.493  25.691  0.0889  0.9253 -0.1475
  155SAPE   H3X17214   0.258   2.460  25.592 -1.3148  2.5278 -1.2794
  155SAPE   H3Y17215   0.294   2.456  25.765 -0.1657 -0.6704 -0.6378
  155SAPE   C3417216   0.202   2.645  25.687 -0.3699  0.0434 -1.1258
  155SAPE   H4X17217   0.175   2.680  25.789 -1.1739  1.6726 -1.8382
  155SAPE   H4Y17218   0.114   2.674  25.624 -0.3657 -0.0979 -1.1963
  155SAPE   C3517219   0.329   2.716  25.623 -0.5783 -0.8111 -0.3173
  155SAPE   H5X17220   0.334   2.699  25.513 -0.5612  2.1763 -0.8429
  155SAPE   H5Y17221   0.417   2.665  25.669  0.9566  0.9585 -1.1339
  155SAPE   C3617222   0.320   2.869  25.657  0.1373  0.1597 -0.5676
  155SAPE   H6X17223   0.307   2.878  25.767  0.2859  0.8103 -0.6046
  155SAPE   H6Y17224   0.229   2.918  25.616  0.2298  1.8616  1.1307
  155SAPE   C3717225   0.438   2.935  25.602  0.2863  0.5274  0.0547
  155SAPE   H7X17226   0.424   3.044  25.611  1.4483  0.7420 -0.4974
  155SAPE   H7Y17227   0.444   2.910  25.494 -2.0876 -3.4688  0.6356
  155SAPE   C3817228   0.573   2.874  25.652  0.9922  0.8966  0.4764
  155SAPE   H8X17229   0.599   2.781  25.596  1.1427  1.2737 -0.0855
  155SAPE   H8Y17230   0.565   2.847  25.759 -2.0825  0.8901  0.3517
  155SAPE   C3917231   0.689   2.961  25.613  0.1309  0.5571  0.2604
  155SAPE   H9X17232   0.777   2.910  25.659  0.5605  0.1849 -0.9398
  155SAPE   H9Y17233   0.670   3.057  25.666 -3.1991 -1.3155  2.8228
  155SAPE  C31017234   0.699   2.987  25.467 -0.4947 -0.2613  0.6349
  155SAPE  H10X17235   0.602   3.029  25.433 -1.1668 -1.0820  1.4632
  155SAPE  H10Y17236   0.718   2.890  25.416  0.6664  1.0284 -1.5264
  155SAPE  C31117237   0.816   3.079  25.430  0.2357  0.0073 -0.3202
  155SAPE  H11X17238   0.903   3.046  25.491 -0.6856  0.2867  1.1819
  155SAPE  H11Y17239   0.794   3.185  25.453 -1.4851 -0.6926  1.5688
  155SAPE  C31217240   0.849   3.073  25.283 -0.3116 -0.4049 -0.5619
  155SAPE  H12X17241   0.761   3.110  25.225 -0.1440 -1.5416 -1.5979
  155SAPE  H12Y17242   0.868   2.969  25.250 -0.1603 -0.0681 -1.5871
  155SAPE  C31317243   0.963   3.167  25.229 -0.1700 -0.9739 -0.2225
  155SAPE  H13X17244   1.056   3.114  25.200  1.6745  1.5000  0.8135
  155SAPE  H13Y17245   0.991   3.232  25.314  0.3695 -1.4723 -0.0173
  155SAPE  C31417246   0.919   3.254  25.103  0.2812 -0.1363  0.1425
  155SAPE  H14X17247   0.840   3.329  25.127  1.1421  1.2336 -1.1506
  155SAPE  H14Y17248   0.891   3.187  25.019 -1.6033 -1.0286  1.4340
  155SAPE  C31517249   1.043   3.334  25.049  0.5036 -0.4653  0.5873
  155SAPE  H15X17250   0.998   3.384  24.961 -2.4071 -2.1867  0.9766
  155SAPE  H15Y17251   1.124   3.260  25.030 -0.2164 -1.1084 -0.0535
  155SAPE  C31617252   1.091   3.460  25.129  0.6071  0.8977 -1.2128
  155SAPE  H16X17253   1.192   3.483  25.090  2.1531  0.4025  2.1405
  155SAPE  H16Y17254   1.113   3.435  25.235  0.2007  0.5004 -1.2180
  155SAPE  C31717255   1.006   3.580  25.103  0.4846 -0.0290  0.0278
  155SAPE  H17X17256   0.901   3.546  25.117  0.3237 -0.0020 -1.0190
  155SAPE  H17Y17257   1.000   3.608  24.996 -0.9950 -0.8844 -0.1415
  155SAPE  C31817258   1.048   3.706  25.181  0.1517  0.1015  0.5480
  155SAPE  H18X17259   1.105   3.678  25.272  0.7613  1.0925  0.4855
  155SAPE  H18Y17260   0.957   3.767  25.199 -0.4182 -1.3236  3.0173
  155SAPE  H18Z17261   1.117   3.760  25.113  0.4709 -1.9097 -0.8182
  156SAPE     N17262   1.968   1.446  19.387  0.1410 -0.1122 -0.2474
  156SAPE   HN117263   1.866   1.438  19.405  0.3148 -0.9050  0.4409
  156SAPE   HN217264   2.009   1.470  19.479 -0.0193  0.1435 -0.2425
  156SAPE   HN317265   1.986   1.529  19.327 -0.1484  0.6855  0.7436
  156SAPE   C1217266   2.044   1.327  19.336 -0.2779  0.6245  0.3950
  156SAPE  H12A17267   2.021   1.320  19.227  1.5598  0.1134  0.0026
  156SAPE  H12B17268   2.012   1.233  19.386  2.6945 -0.5700  0.2582
  156SAPE   C1117269   2.201   1.349  19.338  0.0896  0.1144 -0.3737
  156SAPE  H11A17270   2.215   1.448  19.289  1.9701 -0.3521 -0.8728
  156SAPE  H11B17271   2.253   1.266  19.286 -0.2979 -1.7471  2.0374
  156SAPE     P17272   2.284   1.235  19.556 -0.3447 -0.0527 -0.1110
  156SAPE   O1317273   2.419   1.204  19.508 -0.0691 -0.4703  0.4518
  156SAPE   O1417274   2.269   1.266  19.700 -0.2966 -0.4291  0.1164
  156SAPE   O1217275   2.243   1.366  19.477 -0.5735 -0.0624  0.4649
  156SAPE   O1117276   2.180   1.133  19.492 -0.0775 -0.6799 -0.1247
  156SAPE    C117277   2.226   1.019  19.425  0.4915 -0.0166  1.4460
  156SAPE    HA17278   2.144   0.996  19.354 -0.4248  0.4365  2.3350
  156SAPE    HB17279   2.315   1.035  19.360  1.1014  0.2771  2.3286
  156SAPE    C217280   2.246   0.885  19.500  0.3063  0.3685 -0.0966
  156SAPE    HS17281   2.349   0.870  19.538 -0.2549 -0.1963  1.2649
  156SAPE   O2117282   2.197   0.768  19.419 -0.3570 -0.0351 -0.6616
  156SAPE   C2117283   2.280   0.738  19.320  0.2304  0.7119 -0.8073
  156SAPE   O2217284   2.391   0.783  19.301 -0.1353 -0.1265 -0.2051
  156SAPE   C2217285   2.212   0.625  19.241  0.3234  0.4182  0.2390
  156SAPE   H2R17286   2.298   0.575  19.193 -0.7190 -0.9845 -0.2216
  156SAPE   H2S17287   2.164   0.546  19.303 -0.0159 -0.6930 -1.3771
  156SAPE    C317288   2.163   0.874  19.628  1.1073  0.0233  0.1007
  156SAPE    HX17289   2.055   0.875  19.601  0.5440  0.8983  2.2257
  156SAPE    HY17290   2.182   0.971  19.679  0.1373  1.2021 -1.6782
  156SAPE   O3117291   2.201   0.766  19.710  0.4512 -0.2522 -0.3138
  156SAPE   C3117292   2.109   0.721  19.791 -0.3274 -0.2651 -0.7982
  156SAPE   O3217293   2.009   0.781  19.827 -0.5848 -0.4204  0.0955
  156SAPE   C3217294   2.142   0.576  19.828  0.2197  0.3279  0.0290
  156SAPE   H2X17295   2.186   0.531  19.737 -1.2352 -1.8485  0.3143
  156SAPE   H2Y17296   2.040   0.536  19.845 -0.2647  0.7003 -1.7899
  156SAPE   C2317297   2.125   0.675  19.120 -0.3667 -0.6966 -0.6858
  156SAPE   H3R17298   2.184   0.743  19.054  1.7266 -1.2299  0.5179
  156SAPE   H3S17299   2.035   0.729  19.157 -0.3752 -1.8029  1.0278
  156SAPE   C2417300   2.062   0.569  19.025  0.9682 -0.0313  0.0030
  156SAPE   H4R17301   2.004   0.612  18.941 -0.0259  2.0019  1.6529
  156SAPE   H4S17302   1.980   0.521  19.083 -0.8489  0.1412 -2.2823
  156SAPE   C2517303   2.160   0.457  18.997 -0.3742 -1.3511 -0.2549
  156SAPE   H5R17304   2.262   0.485  18.969  0.5511 -2.3066  1.9035
  156SAPE   C2617305   2.128   0.326  19.006 -0.5922  0.1895 -0.0350
  156SAPE   H6R17306   2.206   0.252  18.984  0.1432  0.7737  0.5592
  156SAPE   C2717307   1.989   0.276  19.022 -0.4311 -0.1266  0.2897
  156SAPE   H7R17308   1.909   0.353  19.012 -0.4272  0.2911  2.7908
  156SAPE   H7S17309   1.976   0.237  19.125  0.3316 -2.7990 -0.5642
  156SAPE   C2817310   1.981   0.178  18.907 -0.9189  0.1138  0.1878
  156SAPE   H8R17311   2.004   0.219  18.808 -0.2376 -1.1827 -0.2029
  156SAPE   C2917312   1.944   0.048  18.916  0.8144 -0.5254  0.2515
  156SAPE   H9R17313   1.921  -0.005  18.823 -0.3798  2.8141 -1.5571
  156SAPE  C21017314   1.900  -0.024  19.040  0.2595  0.4287  1.0758
  156SAPE  H10R17315   1.894   0.047  19.126 -0.2406  0.7251  0.8015
  156SAPE  H10S17316   1.973  -0.102  19.070 -0.4146 -0.3976  0.5913
  156SAPE  C21117317   1.765  -0.087  19.020  0.1121  0.1832 -0.1901
  156SAPE  H11R17318   1.683  -0.015  19.031 -1.2990 -1.0929 -1.8074
  156SAPE  C21217319   1.738  -0.214  18.983  1.3446 -0.6867 -0.1385
  156SAPE  H12R17320   1.635  -0.239  18.957  0.2770  2.7007  0.3443
  156SAPE  C21317321   1.824  -0.335  18.950 -0.4461  0.9453  0.2209
  156SAPE  H13R17322   1.799  -0.427  19.008  3.5608 -0.2257  0.4281
  156SAPE  H13S17323   1.929  -0.315  18.982 -0.1865  0.8379 -0.5522
  156SAPE  C21417324   1.815  -0.368  18.804 -0.0702  0.1846  0.1463
  156SAPE  H14R17325   1.803  -0.289  18.729 -1.4756 -1.9165 -1.9847
  156SAPE  C21517326   1.812  -0.494  18.749  0.1576  0.6022 -0.5560
  156SAPE  H15R17327   1.803  -0.506  18.640  0.1532  1.0262 -0.6054
  156SAPE  C21617328   1.837  -0.621  18.824 -0.4867  0.3310  0.1030
  156SAPE  H16R17329   1.768  -0.633  18.910 -2.3448  0.3695 -1.3167
  156SAPE  H16S17330   1.946  -0.623  18.847 -0.3463 -1.1524 -0.5761
  156SAPE  C21717331   1.793  -0.741  18.728  0.1068 -0.4654  0.1204
  156SAPE  H17R17332   1.832  -0.711  18.629 -1.5212  1.0379 -0.1195
  156SAPE  H17S17333   1.683  -0.746  18.718 -0.0988  1.7557  0.8536
  156SAPE  C21817334   1.848  -0.879  18.762  0.8189  0.0143 -0.2519
  156SAPE  H18R17335   1.807  -0.895  18.864  2.1788 -1.9341  0.0530
  156SAPE  H18S17336   1.958  -0.891  18.765  0.7439 -0.7333 -0.2575
  156SAPE  C21917337   1.786  -0.984  18.669 -0.3706  1.5678  0.2056
  156SAPE  H19R17338   1.844  -0.968  18.575  1.2955 -1.8206  0.5195
  156SAPE  H19S17339   1.676  -0.981  18.657 -0.2865  1.2711 -0.6627
  156SAPE  C22017340   1.822  -1.128  18.712  0.9011 -0.1123 -0.2468
  156SAPE  H20R17341   1.799  -1.141  18.820  2.4894  0.2664  0.1660
  156SAPE  H20S17342   1.927  -1.149  18.684  1.3730  1.7194 -0.0133
  156SAPE  H20T17343   1.755  -1.201  18.663  2.0818 -0.8675 -0.7825
  156SAPE   C3317344   2.239   0.555  19.954  0.6535  0.1176  0.2412
  156SAPE   H3X17345   2.171   0.563  20.041  0.7144 -1.5400  0.4751
  156SAPE   H3Y17346   2.309   0.640  19.969  0.1017  0.3159  1.8997
  156SAPE   C3417347   2.314   0.434  19.943  0.2770  0.4290  0.0931
  156SAPE   H4X17348   2.362   0.427  19.843  2.2060 -0.0305  1.0157
  156SAPE   H4Y17349   2.250   0.343  19.941  0.8474  0.0208 -1.9329
  156SAPE   C3517350   2.398   0.410  20.061 -0.6537 -0.3185 -0.7754
  156SAPE   H5X17351   2.347   0.418  20.160 -0.2505  1.1206 -0.6625
  156SAPE   H5Y17352   2.479   0.485  20.064 -0.1303 -0.7489  3.7351
  156SAPE   C3617353   2.467   0.275  20.059  0.2729 -0.4390  0.5548
  156SAPE   H6X17354   2.490   0.250  19.953 -1.7219  2.6766 -0.7493
  156SAPE   H6Y17355   2.394   0.194  20.082 -0.1573  0.2586  1.7343
  156SAPE   C3717356   2.591   0.256  20.142 -0.0370  0.0360 -0.5630
  156SAPE   H7X17357   2.568   0.295  20.243  0.4659 -1.1491  0.0260
  156SAPE   H7Y17358   2.666   0.327  20.101 -0.4438  0.9420  0.2132
  156SAPE   C3817359   2.645   0.114  20.140 -0.3402  0.2764 -0.1873
  156SAPE   H8X17360   2.724   0.121  20.217 -0.4152 -2.5381  0.2486
  156SAPE   H8Y17361   2.703   0.092  20.048  0.1350 -1.2737  0.4506
  156SAPE   C3917362   2.557  -0.006  20.183  0.1914  0.3071 -0.5911
  156SAPE   H9X17363   2.506  -0.038  20.089 -0.9062 -0.2795  0.1821
  156SAPE   H9Y17364   2.486   0.033  20.258 -0.3362  1.6860 -1.7617
  156SAPE  C31017365   2.645  -0.121  20.247  0.8500 -0.4290  0.9688
  156SAPE  H10X17366   2.703  -0.084  20.334 -2.5416  1.0457  2.7997
  156SAPE  H10Y17367   2.711  -0.158  20.165 -1.7337 -0.2100 -1.3702
  156SAPE  C31117368   2.552  -0.230  20.295 -1.1488 -0.5204  0.3936
  156SAPE  H11X17369   2.482  -0.254  20.212  0.9056 -2.1033 -0.9712
  156SAPE  H11Y17370   2.500  -0.195  20.387 -0.7626 -1.2786  0.9093
  156SAPE  C31217371   2.630  -0.353  20.324 -0.6597 -0.4651 -0.7988
  156SAPE  H12X17372   2.708  -0.327  20.399 -0.5857  0.2790 -1.1259
  156SAPE  H12Y17373   2.677  -0.380  20.227  0.4397  1.1294 -0.7384
  156SAPE  C31317374   2.560  -0.481  20.370 -1.0330  0.0997  0.1297
  156SAPE  H13X17375   2.526  -0.465  20.475 -1.8298  1.4583 -0.3056
  156SAPE  H13Y17376   2.627  -0.570  20.372  0.0550  0.8852 -0.1915
  156SAPE  C31417377   2.434  -0.520  20.291  0.0736 -0.6235  0.1606
  156SAPE  H14X17378   2.438  -0.506  20.181 -0.2648  0.1214  0.2402
  156SAPE  H14Y17379   2.359  -0.445  20.323  1.3059  0.5504  0.3729
  156SAPE  C31517380   2.384  -0.654  20.326  0.2184 -0.1313  0.2617
  156SAPE  H15X17381   2.351  -0.676  20.430  0.5157 -1.5037  0.0709
  156SAPE  H15Y17382   2.467  -0.723  20.299  0.9286 -0.0577  2.1573
  156SAPE  C31617383   2.268  -0.703  20.241 -0.5103 -0.2959 -0.4092
  156SAPE  H16X17384   2.265  -0.663  20.137  1.3941  0.3041 -0.2843
  156SAPE  H16Y17385   2.180  -0.662  20.294  0.5214  2.4004 -0.6047
  156SAPE  C31717386   2.266  -0.858  20.228  0.0532 -0.6897  0.5551
  156SAPE  H17X17387   2.266  -0.889  20.335  2.5305 -0.2375  0.7488
  156SAPE  H17Y17388   2.362  -0.891  20.183  0.3181  1.5360 -0.6668
  156SAPE  C31817389   2.145  -0.894  20.151  0.7074  0.1798 -0.0510
  156SAPE  H18X17390   2.057  -0.879  20.217 -0.6847 -0.1292 -1.7750
  156SAPE  H18Y17391   2.157  -0.993  20.103  2.1948  0.7144 -0.8862
  156SAPE  H18Z17392   2.139  -0.819  20.069  0.4711 -0.5273 -0.6839
  157SAPE     N17393   1.509   3.218  25.855  0.5352  0.6686  0.4704
  157SAPE   HN117394   1.528   3.237  25.955  1.5510  0.2786  0.3636
  157SAPE   HN217395   1.592   3.181  25.804  1.0853  1.3973  0.8121
  157SAPE   HN317396   1.496   3.306  25.802  2.9209  0.7275 -0.1422
  157SAPE   C1217397   1.401   3.121  25.865 -0.0878 -0.3830  0.3200
  157SAPE  H12A17398   1.370   3.107  25.759 -1.1668  0.8906  0.4400
  157SAPE  H12B17399   1.305   3.156  25.910 -2.5214 -1.4768 -3.4757
  157SAPE   C1117400   1.451   2.996  25.923  0.1217 -0.1236 -1.2615
  157SAPE  H11A17401   1.373   2.925  25.958  2.3230 -1.6386  0.8663
  157SAPE  H11B17402   1.508   3.001  26.018 -0.3810 -2.0070 -0.8157
  157SAPE     P17403   1.549   2.761  25.837  0.1010 -0.1476  0.2479
  157SAPE   O1317404   1.517   2.712  25.976  0.2575 -0.2105  0.4091
  157SAPE   O1417405   1.478   2.699  25.721  0.1061 -0.5337  0.0124
  157SAPE   O1217406   1.525   2.921  25.826 -0.1305  0.4025  0.2178
  157SAPE   O1117407   1.708   2.756  25.808  0.6459  0.5264  0.3099
  157SAPE    C117408   1.768   2.824  25.699  0.6218  0.3594  0.3400
  157SAPE    HA17409   1.707   2.831  25.606 -0.3340 -3.5381  0.5015
  157SAPE    HB17410   1.797   2.926  25.733 -2.4402  0.7316  2.2236
  157SAPE    C217411   1.895   2.750  25.664 -0.3766 -1.0125  0.6547
  157SAPE    HS17412   1.958   2.763  25.754  0.7377 -0.8072 -0.1419
  157SAPE   O2117413   1.949   2.809  25.541 -0.5714  0.2049 -0.6239
  157SAPE   C2117414   2.077   2.804  25.537 -0.3181  0.0867 -0.0853
  157SAPE   O2217415   2.150   2.751  25.623 -0.1948  0.1167 -0.3673
  157SAPE   C2217416   2.119   2.870  25.396 -0.7386  0.2848  0.4194
  157SAPE   H2R17417   2.078   2.798  25.322 -0.8428  1.1148 -0.3450
  157SAPE   H2S17418   2.051   2.957  25.382 -1.1587  0.0745  1.0664
  157SAPE    C317419   1.850   2.603  25.631 -1.0334  0.3551 -0.5977
  157SAPE    HX17420   1.763   2.614  25.563 -1.4857  0.2914 -0.0322
  157SAPE    HY17421   1.813   2.548  25.719  0.6546 -2.3089 -1.4241
  157SAPE   O3117422   1.957   2.529  25.563 -0.4137 -0.4427  0.0933
  157SAPE   C3117423   2.019   2.437  25.631 -0.3146  0.0442 -0.7467
  157SAPE   O3217424   1.995   2.404  25.749  0.1339  0.1410  0.5821
  157SAPE   C3217425   2.137   2.375  25.554  0.1532  0.2200  0.5194
  157SAPE   H2X17426   2.220   2.449  25.554  0.7040 -0.3943  0.4039
  157SAPE   H2Y17427   2.101   2.341  25.455  0.9064  0.1592  0.2615
  157SAPE   C2317428   2.272   2.880  25.391 -0.0630  0.1633  1.0056
  157SAPE   H3R17429   2.326   2.788  25.422  0.7831  0.9243  1.8687
  157SAPE   H3S17430   2.303   2.964  25.458 -0.4670 -0.3852  1.8951
  157SAPE   C2417431   2.316   2.930  25.248  0.2576  0.7468 -0.0785
  157SAPE   H4R17432   2.422   2.956  25.265  0.3334  0.7294 -0.5242
  157SAPE   H4S17433   2.255   3.023  25.238  0.1343  0.6982  0.2023
  157SAPE   C2517434   2.306   2.831  25.133  0.2904  0.4350  0.1043
  157SAPE   H5R17435   2.362   2.736  25.139 -0.4871 -0.0113  0.4355
  157SAPE   C2617436   2.241   2.857  25.024 -0.4995 -0.1499 -0.0148
  157SAPE   H6R17437   2.260   2.780  24.947  0.4832  1.5939 -1.5989
  157SAPE   C2717438   2.149   2.972  24.986 -0.3915 -0.3806 -0.1194
  157SAPE   H7R17439   2.216   3.056  24.958 -1.6466  1.0416  0.9903
  157SAPE   H7S17440   2.074   3.001  25.062  0.2209 -0.7026  0.6268
  157SAPE   C2817441   2.077   2.922  24.863  0.2808 -0.3552  0.4629
  157SAPE   H8R17442   1.994   2.851  24.882 -1.9824  2.0757  0.2584
  157SAPE   C2917443   2.084   2.969  24.735  0.0918  0.1598 -0.1498
  157SAPE   H9R17444   2.037   2.900  24.663 -0.6679  0.7110 -0.1868
  157SAPE  C21017445   2.181   3.070  24.688  0.1504  0.3430  0.0365
  157SAPE  H10R17446   2.282   3.040  24.722  0.4920  0.5640 -0.7522
  157SAPE  H10S17447   2.153   3.158  24.749  1.8692  2.0085 -1.4452
  157SAPE  C21117448   2.180   3.122  24.545 -0.3783  0.3072 -0.7002
  157SAPE  H11R17449   2.264   3.089  24.483 -0.9166  0.0028 -1.2862
  157SAPE  C21217450   2.095   3.207  24.489  0.1020 -0.4696  0.5122
  157SAPE  H12R17451   2.086   3.219  24.380 -1.9270 -2.0953  0.4307
  157SAPE  C21317452   1.968   3.262  24.555 -0.0441 -0.6292 -0.6288
  157SAPE  H13R17453   1.976   3.372  24.557  1.1968 -0.6913 -0.9844
  157SAPE  H13S17454   1.967   3.233  24.662 -4.5132 -0.7633 -0.5569
  157SAPE  C21417455   1.842   3.212  24.492  0.8257  0.6418  0.3143
  157SAPE  H14R17456   1.830   3.103  24.480  1.8359  0.6460 -0.9595
  157SAPE  C21517457   1.747   3.283  24.431 -0.2689 -0.6389 -0.5318
  157SAPE  H15R17458   1.660   3.237  24.383 -2.1064  1.8927  0.2271
  157SAPE  C21617459   1.733   3.433  24.423  0.0291  0.2649 -0.4526
  157SAPE  H16R17460   1.698   3.465  24.322 -0.6035  0.4333 -0.1861
  157SAPE  H16S17461   1.824   3.490  24.450  1.2955 -2.7801  2.4793
  157SAPE  C21717462   1.622   3.481  24.520  0.1879  0.8282  0.2165
  157SAPE  H17R17463   1.630   3.429  24.617  0.2127 -1.9947 -1.2118
  157SAPE  H17S17464   1.523   3.456  24.475  0.1639  0.2603  0.5860
  157SAPE  C21817465   1.615   3.634  24.541 -0.1481  0.4419 -0.7395
  157SAPE  H18R17466   1.600   3.690  24.446 -1.9081  0.1056 -0.6817
  157SAPE  H18S17467   1.714   3.660  24.584 -0.2551  0.2396 -0.3649
  157SAPE  C21917468   1.505   3.675  24.638 -0.4333  0.0971 -0.2439
  157SAPE  H19R17469   1.413   3.615  24.627  0.7920 -2.0635  0.6109
  157SAPE  H19S17470   1.481   3.783  24.626 -0.1402  0.2226  0.2542
  157SAPE  C22017471   1.544   3.652  24.785 -0.7908 -0.5416  0.0198
  157SAPE  H20R17472   1.481   3.704  24.860  1.6389  2.9607 -0.1230
  157SAPE  H20S17473   1.640   3.709  24.790 -0.8338 -0.2627 -1.7383
  157SAPE  H20T17474   1.564   3.545  24.808  1.9519  0.1741  1.4462
  157SAPE   C3317475   2.198   2.255  25.633 -0.4651 -0.7404 -0.5971
  157SAPE   H3X17476   2.203   2.278  25.742  2.6526  1.7765 -1.1136
  157SAPE   H3Y17477   2.307   2.245  25.611 -0.2696  0.6427 -0.3200
  157SAPE   C3417478   2.132   2.114  25.608  0.3103 -0.4203  0.6991
  157SAPE   H4X17479   2.025   2.116  25.635 -0.2366  2.0542 -1.2388
  157SAPE   H4Y17480   2.178   2.047  25.683  3.2996  0.2521 -0.3666
  157SAPE   C3517481   2.165   2.062  25.471  0.1597  0.1772  0.3164
  157SAPE   H5X17482   2.272   2.074  25.443  0.3087 -0.0030  0.8013
  157SAPE   H5Y17483   2.109   2.127  25.400  0.7894 -0.0683 -0.4122
  157SAPE   C3617484   2.130   1.912  25.457  0.0695 -0.2710 -0.1278
  157SAPE   H6X17485   2.020   1.896  25.455 -0.0894  0.2014  2.2998
  157SAPE   H6Y17486   2.166   1.845  25.538 -2.1356 -1.6016 -0.1783
  157SAPE   C3717487   2.171   1.854  25.324  0.0892 -0.1501 -0.5442
  157SAPE   H7X17488   2.123   1.754  25.316  0.2691 -0.5863  2.4817
  157SAPE   H7Y17489   2.280   1.834  25.319 -0.0593 -0.7843 -1.3967
  157SAPE   C3817490   2.111   1.934  25.205  0.8964  0.3329  0.1572
  157SAPE   H8X17491   2.158   2.034  25.193 -0.1772  0.7007 -1.2132
  157SAPE   H8Y17492   2.004   1.953  25.227  0.2690 -1.6864 -0.9107
  157SAPE   C3917493   2.117   1.857  25.073  0.6865 -0.8193  0.5588
  157SAPE   H9X17494   2.152   1.752  25.086  2.2143 -0.3982  0.0238
  157SAPE   H9Y17495   2.187   1.904  25.001 -1.1451  2.4292  0.7217
  157SAPE  C31017496   1.985   1.841  25.001  0.0764  0.1726  0.7741
  157SAPE  H10X17497   2.000   1.797  24.900 -2.0499 -0.3826  0.6554
  157SAPE  H10Y17498   1.941   1.943  25.000 -0.5057 -0.0710 -0.4204
  157SAPE  C31117499   1.881   1.755  25.069  1.0936  0.7532  0.8964
  157SAPE  H11X17500   1.860   1.789  25.172  1.8173 -0.8658  1.6208
  157SAPE  H11Y17501   1.917   1.650  25.073  1.3687  0.6653 -1.8749
  157SAPE  C31217502   1.748   1.736  24.987 -0.8715 -0.7288 -0.6112
  157SAPE  H12X17503   1.709   1.831  24.945 -0.7021 -0.3964 -0.0343
  157SAPE  H12Y17504   1.667   1.695  25.052 -0.0220 -0.2722  0.7803
  157SAPE  C31317505   1.767   1.651  24.867  0.9766  0.1167 -0.2320
  157SAPE  H13X17506   1.814   1.552  24.880  0.1648 -0.2091  0.3044
  157SAPE  H13Y17507   1.835   1.712  24.804 -0.3038  3.1913  1.1418
  157SAPE  C31417508   1.629   1.623  24.793  0.1888 -0.3453  0.1391
  157SAPE  H14X17509   1.598   1.727  24.772 -0.0573 -0.5408 -0.4655
  157SAPE  H14Y17510   1.558   1.572  24.863 -0.5009  0.9210  0.3861
  157SAPE  C31517511   1.625   1.534  24.662 -0.3497 -0.2751  0.9506
  157SAPE  H15X17512   1.530   1.556  24.610 -1.0169  2.3856  3.0688
  157SAPE  H15Y17513   1.629   1.429  24.696 -3.8570 -0.5327  0.8532
  157SAPE  C31617514   1.744   1.566  24.575  0.2353  0.0321  0.3550
  157SAPE  H16X17515   1.839   1.536  24.623  0.1631 -0.5463  0.1437
  157SAPE  H16Y17516   1.737   1.675  24.557  1.3894 -0.1099 -1.1357
  157SAPE  C31717517   1.740   1.493  24.437 -0.4462 -0.0031 -0.5605
  157SAPE  H17X17518   1.641   1.518  24.392 -0.8055 -0.0895  0.1613
  157SAPE  H17Y17519   1.745   1.383  24.445 -0.4598  0.0858  1.3055
  157SAPE  C31817520   1.853   1.549  24.348  0.2113  0.0184 -0.3710
  157SAPE  H18X17521   1.847   1.660  24.340 -1.1618 -0.0107 -0.0476
  157SAPE  H18Y17522   1.821   1.504  24.251 -0.7750 -0.5129  0.1798
  157SAPE  H18Z17523   1.955   1.514  24.373  1.1262  0.7075 -2.8274
  158SAPE     N17524   3.125   1.786  18.159 -0.1584  0.7940  0.4756
  158SAPE   HN117525   3.142   1.801  18.057  0.6248  2.6037  0.8352
  158SAPE   HN217526   3.215   1.778  18.210  1.4288  0.0618 -2.2270
  158SAPE   HN317527   3.083   1.690  18.156  0.7279  0.3627 -2.9771
  158SAPE   C1217528   3.045   1.900  18.208 -0.1994 -0.0948 -0.2858
  158SAPE  H12A17529   3.017   1.893  18.315  3.8473  0.1048  0.9673
  158SAPE  H12B17530   2.956   1.896  18.142  0.7891  1.0653 -1.7814
  158SAPE   C1117531   3.133   2.023  18.182 -0.0815  0.5353 -0.5141
  158SAPE  H11A17532   3.075   2.114  18.207 -1.8827 -0.4562 -0.8944
  158SAPE  H11B17533   3.163   2.037  18.076  1.2411  0.1636 -0.2058
  158SAPE     P17534   3.282   2.107  18.383 -0.2526  0.1322 -0.0045
  158SAPE   O1317535   3.224   2.047  18.504  0.6389 -1.1791 -0.0968
  158SAPE   O1417536   3.434   2.123  18.400 -0.0719 -0.0561  0.0538
  158SAPE   O1217537   3.259   2.016  18.252 -1.0347  0.5700 -0.2300
  158SAPE   O1117538   3.211   2.243  18.351  0.7875 -0.1411 -0.5003
  158SAPE    C117539   3.264   2.334  18.260  0.3051 -0.0857  0.5677
  158SAPE    HA17540   3.367   2.324  18.220 -0.0941  1.6347 -1.0191
  158SAPE    HB17541   3.200   2.345  18.170 -1.4208  0.8389  1.8360
  158SAPE    C217542   3.276   2.477  18.324 -0.4530 -0.4916 -0.1006
  158SAPE    HS17543   3.346   2.460  18.408 -2.5516 -0.4078  1.7390
  158SAPE   O2117544   3.150   2.532  18.370  0.2788  0.8504  0.6660
  158SAPE   C2117545   3.163   2.604  18.476 -0.3716 -0.1305 -0.7896
  158SAPE   O2217546   3.260   2.626  18.543 -0.5856  0.1486 -0.0172
  158SAPE   C2217547   3.027   2.659  18.524  0.3006 -0.6715  0.2051
  158SAPE   H2R17548   2.960   2.684  18.439  0.6033  0.2896  0.2307
  158SAPE   H2S17549   2.983   2.573  18.579  1.0337 -1.6797 -0.7479
  158SAPE    C317550   3.339   2.577  18.222 -0.3041 -0.2304  0.0747
  158SAPE    HX17551   3.255   2.616  18.160 -0.3840 -2.0594 -1.0467
  158SAPE    HY17552   3.408   2.523  18.154 -0.3407 -0.2535  0.0567
  158SAPE   O3117553   3.400   2.692  18.285  0.3041  0.1845 -0.2529
  158SAPE   C3117554   3.522   2.672  18.330  0.3328 -0.0363  0.0864
  158SAPE   O3217555   3.589   2.574  18.304 -0.1156  0.0407  0.4141
  158SAPE   C3217556   3.563   2.788  18.421  0.3709  0.2519 -0.0180
  158SAPE   H2X17557   3.673   2.789  18.436  0.0746  1.1519  2.8632
  158SAPE   H2Y17558   3.505   2.782  18.516 -2.6251 -0.5769 -1.7714
  158SAPE   C2317559   3.042   2.776  18.623  0.2942 -0.4502 -0.4974
  158SAPE   H3R17560   3.109   2.749  18.707  0.4083 -2.4521 -1.1932
  158SAPE   H3S17561   2.937   2.785  18.661 -0.1141  3.5851 -2.0141
  158SAPE   C2417562   3.088   2.909  18.553 -0.2150  0.0247 -0.4845
  158SAPE   H4R17563   3.038   2.935  18.457 -0.3582 -0.3628 -0.5171
  158SAPE   H4S17564   3.195   2.887  18.536 -0.5177 -0.5233 -1.8580
  158SAPE   C2517565   3.077   3.029  18.641 -0.6141 -0.2959  0.1085
  158SAPE   H5R17566   2.975   3.058  18.669 -1.0649 -1.5399 -0.1993
  158SAPE   C2617567   3.181   3.110  18.677  0.5986 -0.0995 -0.3752
  158SAPE   H6R17568   3.148   3.194  18.741  1.2471 -1.9210  2.5745
  158SAPE   C2717569   3.332   3.109  18.644 -0.1140 -0.0068 -1.1000
  158SAPE   H7R17570   3.376   3.202  18.685  4.0244 -1.3048 -2.1460
  158SAPE   H7S17571   3.354   3.110  18.535 -0.4206 -0.1199 -1.1645
  158SAPE   C2817572   3.407   2.994  18.708 -0.4152  0.0897 -0.2380
  158SAPE   H8R17573   3.365   2.893  18.696 -3.2328  1.2200 -0.7994
  158SAPE   C2917574   3.520   2.995  18.783  0.1759  0.0048 -0.0458
  158SAPE   H9R17575   3.555   2.897  18.819  0.4609 -0.0927 -0.5794
  158SAPE  C21017576   3.589   3.122  18.820 -0.5322  0.5058 -0.9646
  158SAPE  H10R17577   3.553   3.173  18.912  1.0883  2.5001 -1.3618
  158SAPE  H10S17578   3.581   3.202  18.744  0.4188 -0.3815 -2.0346
  158SAPE  C21117579   3.734   3.089  18.856  0.4198  0.2306  0.1862
  158SAPE  H11R17580   3.745   3.033  18.951  0.2844  0.7080  0.4892
  158SAPE  C21217581   3.855   3.110  18.795  0.2248 -0.3039 -0.2776
  158SAPE  H12R17582   3.947   3.088  18.852  1.0849 -1.5793 -2.0833
  158SAPE  C21317583   3.886   3.193  18.676  0.4296 -0.4258  0.8441
  158SAPE  H13R17584   3.994   3.218  18.679 -0.0175  1.8774  0.1110
  158SAPE  H13S17585   3.818   3.281  18.672  0.2271 -0.5550 -3.0415
  158SAPE  C21417586   3.851   3.124  18.539  0.1878 -0.3927  0.9254
  158SAPE  H14R17587   3.778   3.042  18.546  0.5420 -0.8731 -0.6682
  158SAPE  C21517588   3.892   3.177  18.425  0.0824 -0.4504 -0.0069
  158SAPE  H15R17589   3.866   3.131  18.329 -0.0318 -0.0378 -0.1765
  158SAPE  C21617590   3.983   3.298  18.410 -0.2104 -0.0000  0.3221
  158SAPE  H16R17591   4.078   3.288  18.466 -0.5719 -1.4263  0.7140
  158SAPE  H16S17592   3.926   3.381  18.457 -1.7190  0.3832 -2.0351
  158SAPE  C21717593   4.026   3.316  18.265  0.4035  0.1222  0.4170
  158SAPE  H17R17594   3.954   3.273  18.192 -0.8487 -0.5143  1.9723
  158SAPE  H17S17595   4.124   3.267  18.248  0.6729  0.1129  1.9072
  158SAPE  C21817596   4.064   3.456  18.237 -1.1068 -0.8799  0.6834
  158SAPE  H18R17597   4.147   3.472  18.310 -0.6670 -1.8811  0.4227
  158SAPE  H18S17598   3.981   3.524  18.265 -0.8011 -0.0710 -0.2850
  158SAPE  C21917599   4.083   3.487  18.084  0.0009  0.5754 -0.3821
  158SAPE  H19R17600   3.986   3.452  18.044  0.1837 -1.5925  0.9249
  158SAPE  H19S17601   4.163   3.420  18.045  0.9532  1.7822 -0.5523
  158SAPE  C22017602   4.138   3.625  18.065 -0.0772 -0.0635 -0.3277
  158SAPE  H20R17603   4.160   3.647  17.958  2.9186 -2.4172 -0.3325
  158SAPE  H20S17604   4.231   3.650  18.120 -0.7525  0.7129  0.5024
  158SAPE  H20T17605   4.069   3.705  18.099  0.7682  0.2283  0.7488
  158SAPE   C3317606   3.527   2.923  18.367 -0.8235  0.4012 -0.3807
  158SAPE   H3X17607   3.537   2.993  18.453 -0.7899 -1.1234  0.8864
  158SAPE   H3Y17608   3.421   2.909  18.337 -0.7938 -0.9943  0.1245
  158SAPE   C3417609   3.613   2.974  18.243 -0.3234 -0.3228 -0.1350
  158SAPE   H4X17610   3.723   2.975  18.256 -0.1470  1.4084 -1.4599
  158SAPE   H4Y17611   3.594   3.083  18.240 -2.4263 -0.6584 -0.7698
  158SAPE   C3517612   3.558   2.918  18.108 -0.1012 -0.4356 -0.0346
  158SAPE   H5X17613   3.454   2.894  18.136 -0.1445 -1.4662 -0.9846
  158SAPE   H5Y17614   3.613   2.826  18.078  0.0251 -1.6100  3.3994
  158SAPE   C3617615   3.566   3.018  17.995 -0.0140  0.3881  0.4544
  158SAPE   H6X17616   3.514   3.110  18.027  2.3493  1.0135  2.8338
  158SAPE   H6Y17617   3.508   2.982  17.907 -0.0860  0.0797  0.6274
  158SAPE   C3717618   3.712   3.045  17.948 -0.7206  0.4585 -0.1983
  158SAPE   H7X17619   3.763   2.953  17.911  2.0771  0.7071  2.6068
  158SAPE   H7Y17620   3.764   3.094  18.033 -2.1814  2.6330 -0.4603
  158SAPE   C3817621   3.718   3.156  17.845  0.3905  0.1325  0.4557
  158SAPE   H8X17622   3.675   3.248  17.891  2.1295 -0.4894  3.5838
  158SAPE   H8Y17623   3.676   3.124  17.747 -1.4577  2.6462  0.3155
  158SAPE   C3917624   3.858   3.194  17.812 -0.2717  0.2165  0.8305
  158SAPE   H9X17625   3.926   3.106  17.811  0.3811  0.7092  0.8370
  158SAPE   H9Y17626   3.898   3.259  17.893  0.5144 -0.5498  1.0699
  158SAPE  C31017627   3.864   3.272  17.671  0.9285  0.3937 -0.2278
  158SAPE  H10X17628   3.794   3.359  17.668  3.0352  2.2065  0.5534
  158SAPE  H10Y17629   3.848   3.194  17.593  0.0058 -2.1343  2.3234
  158SAPE  C31117630   4.000   3.335  17.647  0.4986  0.0712 -0.0346
  158SAPE  H11X17631   4.080   3.262  17.675  1.8998  1.6327  0.1851
  158SAPE  H11Y17632   4.018   3.421  17.715 -1.9356  0.5984  0.0100
  158SAPE  C31217633   4.028   3.358  17.499  0.3702  0.2875  1.0783
  158SAPE  H12X17634   3.954   3.430  17.459 -0.1875  1.1986  3.6176
  158SAPE  H12Y17635   4.017   3.264  17.439 -2.2816  0.7221  0.7934
  158SAPE  C31317636   4.169   3.415  17.475 -0.0941 -0.5544  0.0093
  158SAPE  H13X17637   4.226   3.339  17.533 -1.2921 -1.0836  0.5324
  158SAPE  H13Y17638   4.175   3.516  17.520 -0.1080  0.4985 -2.2026
  158SAPE  C31417639   4.208   3.416  17.323 -0.1323 -0.3752 -0.0940
  158SAPE  H14X17640   4.152   3.494  17.269  2.2325 -0.0416 -2.2403
  158SAPE  H14Y17641   4.168   3.319  17.287 -0.8411  0.5139 -1.8157
  158SAPE  C31517642   4.360   3.423  17.297  0.0698  0.5907  0.0685
  158SAPE  H15X17643   4.410   3.336  17.344 -0.0591  0.1120 -0.6602
  158SAPE  H15Y17644   4.386   3.517  17.349  1.3511  0.4819 -0.3562
  158SAPE  C31617645   4.402   3.450  17.154 -0.3180 -0.4314  0.1131
  158SAPE  H16X17646   4.509   3.483  17.148 -0.5724  0.3380 -0.4347
  158SAPE  H16Y17647   4.352   3.540  17.111 -1.2678 -0.5015  1.0394
  158SAPE  C31717648   4.380   3.330  17.058 -0.1529  0.2092  0.0999
  158SAPE  H17X17649   4.405   3.352  16.952 -3.1780  0.6230 -0.6013
  158SAPE  H17Y17650   4.274   3.300  17.045  0.6374 -3.2768  0.4918
  158SAPE  C31817651   4.439   3.197  17.105 -0.0753  0.0882 -0.4112
  158SAPE  H18X17652   4.392   3.175  17.203 -2.0355 -0.2102 -1.3731
  158SAPE  H18Y17653   4.550   3.199  17.117 -0.1420 -0.9250  0.4555
  158SAPE  H18Z17654   4.417   3.114  17.034  1.2694 -0.8199  0.1865
  159SAPE     N17655   0.032   3.358  11.481  0.4218 -0.4003  0.6914
  159SAPE   HN117656   0.090   3.327  11.562  1.2154  0.2756  0.3917
  159SAPE   HN217657   0.089   3.343  11.396 -0.4872 -2.5490  0.3868
  159SAPE   HN317658  -0.003   3.456  11.479 -0.4857 -0.7207 -0.3519
  159SAPE   C1217659  -0.089   3.267  11.474 -0.2696  0.2682  0.8417
  159SAPE  H12A17660  -0.156   3.313  11.398 -0.3073 -0.3837  0.4726
  159SAPE  H12B17661  -0.141   3.271  11.572 -2.0979  1.1261 -0.1230
  159SAPE   C1117662  -0.052   3.122  11.433  0.1721  0.5083  0.1896
  159SAPE  H11A17663  -0.023   3.111  11.326  1.3480 -1.8274  0.6676
  159SAPE  H11B17664  -0.142   3.061  11.455 -0.8142  1.2340 -1.6422
  159SAPE     P17665   0.042   2.990  11.640  0.4288 -0.0408  0.3338
  159SAPE   O1317666   0.174   2.919  11.668 -0.7350 -1.2224 -0.3440
  159SAPE   O1417667  -0.014   3.086  11.739  0.5715  0.0307 -0.1963
  159SAPE   O1217668   0.067   3.076  11.508  0.3571  0.2274  0.1664
  159SAPE   O1117669  -0.053   2.885  11.595  0.0533 -0.0689 -0.0270
  159SAPE    C117670  -0.171   2.842  11.663  0.2142  0.8988  0.5858
  159SAPE    HA17671  -0.222   2.918  11.726 -2.1390 -0.1498  0.0597
  159SAPE    HB17672  -0.251   2.821  11.589  0.3040  0.2654  0.6569
  159SAPE    C217673  -0.147   2.710  11.756 -0.1749  0.5202  0.1626
  159SAPE    HS17674  -0.076   2.741  11.835 -0.7707 -1.1873  1.4374
  159SAPE   O2117675  -0.079   2.599  11.680 -0.1024 -0.3047 -0.2584
  159SAPE   C2117676  -0.140   2.540  11.578 -0.1281  0.2880 -0.0211
  159SAPE   O2217677  -0.258   2.552  11.546 -0.3754 -0.2360  0.1793
  159SAPE   C2217678  -0.042   2.457  11.500 -0.1381 -0.6709  0.5086
  159SAPE   H2R17679  -0.036   2.502  11.398  0.0442 -0.8098  0.4551
  159SAPE   H2S17680   0.058   2.459  11.549  0.2566 -0.3177 -0.2931
  159SAPE    C317681  -0.277   2.663  11.832 -0.6110 -0.3968 -0.4265
  159SAPE    HX17682  -0.350   2.638  11.752  0.7133 -3.3091 -0.8384
  159SAPE    HY17683  -0.322   2.743  11.895 -1.9030  1.0791 -3.0545
  159SAPE   O3117684  -0.252   2.543  11.903  0.0289 -0.6044  0.1836
  159SAPE   C3117685  -0.199   2.561  12.022 -0.2996 -0.1432 -0.1837
  159SAPE   O3217686  -0.156   2.672  12.063  0.4251  0.0211  0.2205
  159SAPE   C3217687  -0.183   2.429  12.102 -0.6432 -0.1878 -0.4177
  159SAPE   H2X17688  -0.266   2.414  12.174  1.4075 -2.0012  1.7180
  159SAPE   H2Y17689  -0.094   2.454  12.163 -0.4714  0.9083 -1.0770
  159SAPE   C2317690  -0.099   2.319  11.469  0.1001 -0.1085 -0.1318
  159SAPE   H3R17691  -0.069   2.273  11.372 -2.0577  1.0568 -1.4313
  159SAPE   H3S17692  -0.208   2.334  11.454  0.7024  2.1174 -3.3960
  159SAPE   C2417693  -0.068   2.221  11.583 -0.0566 -0.1468 -0.0446
  159SAPE   H4R17694  -0.130   2.132  11.559 -1.0941  0.5236  0.0872
  159SAPE   H4S17695  -0.104   2.258  11.681 -0.3692 -0.2086 -0.1359
  159SAPE   C2517696   0.077   2.186  11.586  0.0912  0.0029 -0.5149
  159SAPE   H5R17697   0.104   2.153  11.485  1.2148 -2.0121  0.3684
  159SAPE   C2617698   0.173   2.234  11.666 -0.2516 -0.8446 -0.0359
  159SAPE   H6R17699   0.273   2.192  11.652  0.3060  0.0191  1.2082
  159SAPE   C2717700   0.155   2.312  11.796 -0.0546 -0.1058  0.1856
  159SAPE   H7R17701   0.143   2.237  11.877 -0.1032  0.2889  0.5479
  159SAPE   H7S17702   0.064   2.376  11.797 -0.3160 -0.4179 -1.6080
  159SAPE   C2817703   0.274   2.401  11.830 -0.1183 -0.1717  0.5841
  159SAPE   H8R17704   0.371   2.356  11.803  0.1072  0.9766 -0.6386
  159SAPE   C2917705   0.273   2.521  11.894 -0.3803  0.1301 -0.0363
  159SAPE   H9R17706   0.375   2.560  11.909  1.3896 -4.1785  0.5909
  159SAPE  C21017707   0.159   2.610  11.938 -0.7184  0.6158  0.2523
  159SAPE  H10R17708   0.125   2.553  12.028  1.3255 -0.6699  0.2585
  159SAPE  H10S17709   0.073   2.605  11.867  0.0233 -3.3481 -0.5939
  159SAPE  C21117710   0.206   2.751  11.968  0.4362 -0.4431 -0.1586
  159SAPE  H11R17711   0.224   2.815  11.881 -1.5482  1.4705  0.7600
  159SAPE  C21217712   0.228   2.804  12.088  0.1887 -0.0687 -0.0146
  159SAPE  H12R17713   0.270   2.906  12.087  1.6529 -0.6456  0.6191
  159SAPE  C21317714   0.217   2.735  12.223  0.6698 -0.0087 -0.9329
  159SAPE  H13R17715   0.296   2.776  12.288  1.1345  0.7127 -1.9193
  159SAPE  H13S17716   0.240   2.628  12.204 -2.1145 -0.6177 -1.4101
  159SAPE  C21417717   0.079   2.740  12.293 -0.2126  0.5000  0.5209
  159SAPE  H14R17718   0.000   2.784  12.229 -0.1956 -0.3902 -0.1322
  159SAPE  C21517719   0.047   2.689  12.412 -0.4725  0.1756 -0.2159
  159SAPE  H15R17720  -0.053   2.690  12.458  0.2542 -0.0261  1.4544
  159SAPE  C21617721   0.141   2.605  12.503 -0.2165 -0.5646 -0.6440
  159SAPE  H16R17722   0.130   2.649  12.604  0.7544 -0.5195 -0.5479
  159SAPE  H16S17723   0.248   2.607  12.473 -0.3912  2.0824 -1.3875
  159SAPE  C21717724   0.095   2.462  12.528 -0.3864 -0.3993  0.8558
  159SAPE  H17R17725  -0.013   2.468  12.554 -1.1030 -0.2698 -1.8834
  159SAPE  H17S17726   0.148   2.428  12.620 -2.6416  3.1590  3.7486
  159SAPE  C21817727   0.121   2.363  12.404  0.0240  0.7956 -0.0479
  159SAPE  H18R17728   0.080   2.416  12.316 -2.3897  0.3311  0.7446
  159SAPE  H18S17729   0.079   2.263  12.424  2.9951 -0.7025 -0.6671
  159SAPE  C21917730   0.278   2.349  12.378  0.5187  0.4776 -0.5358
  159SAPE  H19R17731   0.322   2.318  12.476  1.4735  0.2379 -1.0292
  159SAPE  H19S17732   0.322   2.444  12.342  0.3414 -0.0687 -2.2912
  159SAPE  C22017733   0.294   2.239  12.272  0.1682 -0.8297  0.0286
  159SAPE  H20R17734   0.248   2.145  12.310 -0.9504  0.2009  1.3390
  159SAPE  H20S17735   0.401   2.234  12.243 -0.0353 -0.8026 -0.7427
  159SAPE  H20T17736   0.227   2.262  12.186 -2.6144  1.5802  2.5976
  159SAPE   C3317737  -0.151   2.313  12.011  0.0706  0.0876  0.6668
  159SAPE   H3X17738  -0.110   2.339  11.911  2.2108 -2.8209  0.6531
  159SAPE   H3Y17739  -0.246   2.260  11.990  1.9244 -1.8865 -4.4206
  159SAPE   C3417740  -0.061   2.206  12.065 -0.4563 -0.5395 -0.5128
  159SAPE   H4X17741  -0.102   2.175  12.163 -3.5598 -0.5379 -1.7076
  159SAPE   H4Y17742   0.044   2.241  12.072 -0.5191 -0.5159  0.4212
  159SAPE   C3517743  -0.068   2.077  11.982 -0.4507  0.0298 -0.2472
  159SAPE   H5X17744  -0.038   2.105  11.879  0.0647  1.4053  0.2547
  159SAPE   H5Y17745  -0.172   2.038  11.987 -0.6980  0.5277 -1.3210
  159SAPE   C3617746   0.025   1.966  12.032 -0.2103 -0.4846 -0.1615
  159SAPE   H6X17747  -0.000   1.939  12.136 -0.5941 -0.1023 -0.1533
  159SAPE   H6Y17748   0.132   1.998  12.038  0.1562 -1.8823  1.8239
  159SAPE   C3717749   0.029   1.832  11.964 -0.0726 -0.1151  0.0346
  159SAPE   H7X17750  -0.068   1.780  11.971  0.5737 -1.3895 -0.2737
  159SAPE   H7Y17751   0.099   1.768  12.021  0.1592  1.1858  1.2817
  159SAPE   C3817752   0.072   1.846  11.819 -0.2353  0.1681 -0.3772
  159SAPE   H8X17753   0.164   1.907  11.810 -2.4865  3.6429 -2.4091
  159SAPE   H8Y17754  -0.001   1.908  11.763 -1.7658 -1.1029  0.1524
  159SAPE   C3917755   0.091   1.705  11.761 -0.4139  0.4964  0.1741
  159SAPE   H9X17756   0.003   1.637  11.759 -0.9286  1.1190  1.1940
  159SAPE   H9Y17757   0.157   1.655  11.835  1.4485 -0.1421 -1.8202
  159SAPE  C31017758   0.158   1.711  11.626  0.0908 -0.7671 -0.6201
  159SAPE  H10X17759   0.189   1.612  11.588  0.1870 -0.2667 -1.9069
  159SAPE  H10Y17760   0.252   1.769  11.630 -1.7733  2.4304  0.8197
  159SAPE  C31117761   0.065   1.762  11.513  0.8911 -0.5750  0.4842
  159SAPE  H11X17762   0.050   1.872  11.525  1.1162 -0.2859 -1.4369
  159SAPE  H11Y17763  -0.030   1.706  11.526  0.8426 -0.3803  0.9682
  159SAPE  C31217764   0.115   1.731  11.366  0.4242 -0.3548  0.4948
  159SAPE  H12X17765   0.085   1.630  11.331 -2.2942  1.1290 -1.8949
  159SAPE  H12Y17766   0.225   1.741  11.376  0.8328 -3.1685 -0.2857
  159SAPE  C31317767   0.077   1.838  11.259  0.8619  0.6041 -0.2933
  159SAPE  H13X17768   0.106   1.800  11.159  1.0615  0.9179 -0.3549
  159SAPE  H13Y17769   0.123   1.938  11.274 -0.5134  1.4549 -1.4168
  159SAPE  C31417770  -0.080   1.846  11.243  0.0886 -0.0863  0.3258
  159SAPE  H14X17771  -0.123   1.906  11.326 -1.4425 -0.2664 -0.3027
  159SAPE  H14Y17772  -0.125   1.745  11.236  0.3070 -0.0942 -1.3886
  159SAPE  C31517773  -0.124   1.916  11.108 -0.2522 -0.2104  0.0921
  159SAPE  H15X17774  -0.057   1.886  11.024 -0.7413 -1.9159  0.2776
  159SAPE  H15Y17775  -0.129   2.027  11.121 -0.1439 -0.3842  1.8503
  159SAPE  C31617776  -0.269   1.883  11.068 -0.1100  1.4256 -0.5683
  159SAPE  H16X17777  -0.335   1.885  11.158 -1.0640  1.2511 -1.2568
  159SAPE  H16Y17778  -0.278   1.783  11.020 -1.4596  1.6395 -0.8061
  159SAPE  C31717779  -0.318   1.984  10.968 -0.1167  0.2796  0.1774
  159SAPE  H17X17780  -0.288   2.087  10.995  1.3098  0.1274 -0.6779
  159SAPE  H17Y17781  -0.429   1.986  10.968 -0.1497 -0.9781  0.7827
  159SAPE  C31817782  -0.266   1.963  10.821 -0.3894  0.0395 -0.0025
  159SAPE  H18X17783  -0.290   1.861  10.785  2.7463 -1.2188  1.0793
  159SAPE  H18Y17784  -0.156   1.979  10.828 -0.3085 -0.9173  1.3575
  159SAPE  H18Z17785  -0.317   2.042  10.763 -1.6177  0.5180  1.6429
  160SAPE     N17786   1.627   0.153  11.850  0.7783  0.3565 -0.1789
  160SAPE   HN117787   1.642   0.053  11.829  0.7266  0.6302 -1.6312
  160SAPE   HN217788   1.574   0.192  11.769 -0.7083  2.2284  1.5779
  160SAPE   HN317789   1.721   0.197  11.857  0.4172  1.3205 -1.0649
  160SAPE   C1217790   1.555   0.180  11.980  0.2307  0.7148  0.7739
  160SAPE  H12A17791   1.525   0.286  11.993 -1.2120  0.1710  2.1497
  160SAPE  H12B17792   1.612   0.151  12.070 -2.0916  1.7712  2.7098
  160SAPE   C1117793   1.426   0.097  11.973  0.1849 -0.2964  0.3144
  160SAPE  H11A17794   1.373   0.119  12.068  0.2657  3.7146 -0.3806
  160SAPE  H11B17795   1.458  -0.009  11.965  0.5478 -0.2664  1.2308
  160SAPE     P17796   1.238   0.247  11.847  0.7138  0.0388 -0.3068
  160SAPE   O1317797   1.200   0.253  11.707 -0.2700  0.9081  1.1401
  160SAPE   O1417798   1.117   0.214  11.937  0.4360  0.2557 -0.2082
  160SAPE   O1217799   1.348   0.134  11.863 -0.0354 -0.1842  0.0981
  160SAPE   O1117800   1.320   0.373  11.895  0.6945 -0.0736  0.7814
  160SAPE    C117801   1.302   0.436  12.017 -0.3404  0.3313  0.1633
  160SAPE    HA17802   1.262   0.364  12.092 -4.8326 -0.6916 -2.8009
  160SAPE    HB17803   1.401   0.471  12.054 -0.5096  0.3173  0.6400
  160SAPE    C217804   1.213   0.556  11.999  1.0959 -0.9064  0.0495
  160SAPE    HS17805   1.142   0.538  11.915 -0.0233 -1.2717  1.0550
  160SAPE   O2117806   1.293   0.673  11.976  0.2053 -0.1429  0.3298
  160SAPE   C2117807   1.252   0.752  11.870  0.3010  0.4048  0.0660
  160SAPE   O2217808   1.163   0.723  11.792 -0.2720  0.4800 -0.1574
  160SAPE   C2217809   1.338   0.873  11.878 -0.0454 -0.9806  0.0986
  160SAPE   H2R17810   1.425   0.855  11.811 -1.4924 -0.2811 -2.0801
  160SAPE   H2S17811   1.289   0.963  11.835  2.1869  1.3029  2.0148
  160SAPE    C317812   1.128   0.564  12.124  0.6469 -0.2291 -1.2334
  160SAPE    HX17813   1.198   0.558  12.211 -1.8782  0.1879  0.9533
  160SAPE    HY17814   1.052   0.483  12.120 -2.2513  2.1853  1.0356
  160SAPE   O3117815   1.057   0.686  12.131  0.2401  0.8549  0.2728
  160SAPE   C3117816   0.943   0.696  12.066  0.8891 -0.4311  0.0182
  160SAPE   O3217817   0.886   0.612  11.996  0.0756  0.2030 -0.1698
  160SAPE   C3217818   0.897   0.841  12.067 -0.3926 -0.7171  0.0126
  160SAPE   H2X17819   0.922   0.874  11.964  1.5394 -0.6092  0.4935
  160SAPE   H2Y17820   0.967   0.905  12.123 -0.4923  0.3777 -1.0515
  160SAPE   C2317821   1.374   0.924  12.022 -0.1910 -0.3239  0.1467
  160SAPE   H3R17822   1.296   0.899  12.097 -0.5811 -0.6593 -0.3648
  160SAPE   H3S17823   1.362   1.034  12.025  0.3647 -0.2811  1.6476
  160SAPE   C2417824   1.514   0.884  12.067  0.1433 -0.6138 -0.3375
  160SAPE   H4R17825   1.575   0.899  11.976  1.6214  0.7243  0.8145
  160SAPE   H4S17826   1.506   0.774  12.077 -0.5066 -0.4960  0.6131
  160SAPE   C2517827   1.562   0.956  12.186  0.0436  0.4819 -0.0894
  160SAPE   H5R17828   1.546   0.906  12.282  0.4230  0.5088 -0.0094
  160SAPE   C2617829   1.629   1.074  12.190  0.1556 -0.2801 -0.3957
  160SAPE   H6R17830   1.666   1.124  12.280 -0.6735  0.7265 -0.5965
  160SAPE   C2717831   1.680   1.145  12.064  0.7767  0.3383 -0.5546
  160SAPE   H7R17832   1.762   1.084  12.021  1.6598  1.9744 -1.2800
  160SAPE   H7S17833   1.718   1.245  12.094 -0.8266  0.8192  0.0008
  160SAPE   C2817834   1.574   1.166  11.957 -0.1121  0.4541 -0.0898
  160SAPE   H8R17835   1.595   1.109  11.865  1.1543  0.0582  0.4201
  160SAPE   C2917836   1.485   1.264  11.937  0.0686 -0.4415  0.2472
  160SAPE   H9R17837   1.418   1.258  11.849 -1.0128 -3.6840  1.1693
  160SAPE  C21017838   1.446   1.383  12.028  0.7937 -0.3550 -0.1105
  160SAPE  H10R17839   1.447   1.340  12.130 -0.5693 -1.7762 -0.6591
  160SAPE  H10S17840   1.339   1.404  12.006  0.4037 -0.3605  1.6398
  160SAPE  C21117841   1.537   1.506  12.028  0.9152 -0.2393  0.4861
  160SAPE  H11R17842   1.645   1.485  12.031  1.5099  2.2552 -0.6327
  160SAPE  C21217843   1.494   1.639  12.025  0.1912  0.8811 -0.1778
  160SAPE  H12R17844   1.561   1.720  12.056  0.5312  0.3844  0.4051
  160SAPE  C21317845   1.355   1.688  12.018 -0.3823  0.2128 -0.2010
  160SAPE  H13R17846   1.297   1.643  12.102 -0.5255 -0.2449 -0.5458
  160SAPE  H13S17847   1.303   1.651  11.927 -0.5371 -0.5610  0.1964
  160SAPE  C21417848   1.349   1.838  12.009 -0.0421 -0.2120  0.1137
  160SAPE  H14R17849   1.352   1.878  11.907 -1.4431  4.3695  1.6430
  160SAPE  C21517850   1.325   1.924  12.108  0.7660  0.1410 -0.5458
  160SAPE  H15R17851   1.319   2.033  12.095 -1.7486  0.2764  1.0639
  160SAPE  C21617852   1.330   1.878  12.252 -0.9469  0.2649  0.4192
  160SAPE  H16R17853   1.395   1.940  12.317  0.2557 -2.5053  2.0805
  160SAPE  H16S17854   1.360   1.773  12.271  1.1233  0.8866  0.7945
  160SAPE  C21717855   1.190   1.883  12.308  0.4586  0.2707  0.0268
  160SAPE  H17R17856   1.135   1.814  12.241  1.0277 -2.2151  1.9492
  160SAPE  H17S17857   1.148   1.982  12.282 -0.5155 -0.6157 -2.0328
  160SAPE  C21817858   1.166   1.853  12.461  0.7501  0.2123  0.5934
  160SAPE  H18R17859   1.059   1.829  12.479  0.8065 -1.3484 -0.8886
  160SAPE  H18S17860   1.207   1.935  12.523  1.5112 -0.6026  1.1931
  160SAPE  C21917861   1.240   1.722  12.497  0.9501 -0.0959 -0.1431
  160SAPE  H19R17862   1.350   1.740  12.495  0.6524  1.9289 -1.2067
  160SAPE  H19S17863   1.232   1.643  12.419 -0.0010 -1.1399  0.9799
  160SAPE  C22017864   1.191   1.656  12.634  0.8083  0.2778  0.3043
  160SAPE  H20R17865   1.272   1.604  12.688 -0.0249 -1.0556  0.3129
  160SAPE  H20S17866   1.107   1.586  12.612  1.2865  0.6381 -3.3242
  160SAPE  H20T17867   1.155   1.732  12.706 -2.7583 -1.1580  0.2604
  160SAPE   C3317868   0.752   0.869  12.098 -0.3392  0.3067 -0.3819
  160SAPE   H3X17869   0.694   0.810  12.024  0.4439 -1.8139  0.6014
  160SAPE   H3Y17870   0.738   0.979  12.087  0.3165  0.3667 -0.6734
  160SAPE   C3417871   0.702   0.794  12.224 -0.1418  0.0654 -0.3901
  160SAPE   H4X17872   0.713   0.684  12.223  2.0477  0.2370 -1.3993
  160SAPE   H4Y17873   0.593   0.816  12.221 -0.0823  2.5006  4.7631
  160SAPE   C3517874   0.745   0.846  12.358 -0.8725  0.1371 -0.0626
  160SAPE   H5X17875   0.853   0.823  12.369 -0.2404  0.7605 -3.6854
  160SAPE   H5Y17876   0.685   0.789  12.432  0.6628 -1.7311 -0.1853
  160SAPE   C3617877   0.737   1.002  12.382  0.3766  0.3072  1.2141
  160SAPE   H6X17878   0.784   1.058  12.299  0.2779 -1.8589 -0.3854
  160SAPE   H6Y17879   0.794   1.020  12.476  0.1116 -2.5869  2.0562
  160SAPE   C3717880   0.595   1.046  12.410 -0.6371 -0.7295  0.4843
  160SAPE   H7X17881   0.555   0.975  12.485 -0.7860  1.8622  3.0160
  160SAPE   H7Y17882   0.541   1.048  12.313 -0.1524 -0.1845  0.2205
  160SAPE   C3817883   0.585   1.180  12.479 -0.2047 -0.4254  0.0448
  160SAPE   H8X17884   0.643   1.257  12.424  0.8916 -0.3922  1.1863
  160SAPE   H8Y17885   0.652   1.175  12.568 -0.8053  1.3660  0.6494
  160SAPE   C3917886   0.448   1.221  12.528  0.3225  0.0995  0.6168
  160SAPE   H9X17887   0.397   1.141  12.585 -1.5500 -0.1496 -1.2933
  160SAPE   H9Y17888   0.384   1.253  12.443 -0.4574 -0.2888  1.0490
  160SAPE  C31017889   0.454   1.339  12.622 -0.1932 -0.5738 -0.6380
  160SAPE  H10X17890   0.475   1.427  12.558  1.0329 -0.4347 -0.0649
  160SAPE  H10Y17891   0.535   1.324  12.696  0.8958  1.3691 -1.3599
  160SAPE  C31117892   0.327   1.371  12.697  0.4178  0.0526 -0.2612
  160SAPE  H11X17893   0.293   1.287  12.762  0.8284  0.7860  0.9309
  160SAPE  H11Y17894   0.236   1.391  12.636 -0.8330 -0.7498  1.2345
  160SAPE  C31217895   0.351   1.480  12.802  0.3862  0.0345 -0.1179
  160SAPE  H12X17896   0.390   1.565  12.742 -0.8650 -0.3941 -1.5780
  160SAPE  H12Y17897   0.429   1.446  12.874 -1.4206 -0.5852  1.6526
  160SAPE  C31317898   0.225   1.519  12.887 -0.2519 -0.0897 -0.7738
  160SAPE  H13X17899   0.179   1.429  12.932 -2.6454  0.1160 -2.6155
  160SAPE  H13Y17900   0.141   1.563  12.828  0.5547  1.6957 -0.6686
  160SAPE  C31417901   0.261   1.615  13.003 -0.3205  0.4934  0.4948
  160SAPE  H14X17902   0.296   1.707  12.952 -0.0214 -0.0263 -0.2423
  160SAPE  H14Y17903   0.340   1.565  13.063 -1.8510 -1.2510  1.1524
  160SAPE  C31517904   0.142   1.636  13.094 -1.0598  1.1706 -0.5252
  160SAPE  H15X17905   0.088   1.539  13.096  1.3051 -0.2213  0.2260
  160SAPE  H15Y17906   0.070   1.708  13.049 -0.5363  0.9269 -1.8035
  160SAPE  C31617907   0.173   1.688  13.234 -0.3035  0.1684  0.3720
  160SAPE  H16X17908   0.233   1.607  13.282  0.0398  0.2622  0.1013
  160SAPE  H16Y17909   0.080   1.690  13.296  0.9391 -0.9844  2.3825
  160SAPE  C31717910   0.251   1.815  13.246  0.0063 -0.4477 -0.0168
  160SAPE  H17X17911   0.354   1.802  13.206 -0.3795 -1.6778 -0.6476
  160SAPE  H17Y17912   0.248   1.846  13.352 -0.7435 -0.4936 -0.0207
  160SAPE  C31817913   0.182   1.934  13.170 -0.1367 -0.1422 -1.2091
  160SAPE  H18X17914   0.109   1.975  13.243 -0.2589 -2.8046  0.2852
  160SAPE  H18Y17915   0.142   1.916  13.068  2.0796  1.5011 -2.4543
  160SAPE  H18Z17916   0.246   2.020  13.140 -0.6516  0.4075 -0.7463
  161SAPE     N17917   1.498   3.047  13.525 -0.1851 -0.5958 -0.2647
  161SAPE   HN117918   1.571   3.003  13.466  0.7610  1.2165 -0.5039
  161SAPE   HN217919   1.505   3.149  13.507 -3.5715 -0.2286 -0.1230
  161SAPE   HN317920   1.511   3.028  13.627 -0.5662 -1.1944 -0.3237
  161SAPE   C1217921   1.364   2.992  13.492 -0.3486 -0.2675  0.4413
  161SAPE  H12A17922   1.376   2.882  13.489  0.1173 -0.2149  0.3815
  161SAPE  H12B17923   1.349   3.018  13.385  0.2914 -0.3197  0.3360
  161SAPE   C1117924   1.249   3.024  13.584 -0.1720  0.1706  0.1697
  161SAPE  H11A17925   1.157   2.962  13.573  0.5023 -1.0602  1.2851
  161SAPE  H11B17926   1.198   3.121  13.562 -0.4423  0.5403  2.2132
  161SAPE     P17927   1.183   3.022  13.843  0.6388  0.1066  0.2612
  161SAPE   O1317928   1.253   3.050  13.969  0.4604  0.3634  0.2628
  161SAPE   O1417929   1.068   3.104  13.804  0.3026 -0.5510  0.0977
  161SAPE   O1217930   1.290   3.025  13.725  0.0345 -0.0160  0.2259
  161SAPE   O1117931   1.128   2.875  13.846  0.2174 -0.2037 -0.2538
  161SAPE    C117932   1.201   2.755  13.825 -0.1761  0.2181  0.1329
  161SAPE    HA17933   1.247   2.743  13.725 -1.1808 -0.9135 -0.2080
  161SAPE    HB17934   1.289   2.739  13.891  1.7120 -3.2528 -2.8335
  161SAPE    C217935   1.110   2.634  13.840  0.5084 -0.7073  0.1126
  161SAPE    HS17936   1.162   2.547  13.794 -2.2179 -2.2749 -0.2213
  161SAPE   O2117937   0.984   2.652  13.776 -0.3035 -0.5205 -0.2682
  161SAPE   C2117938   0.989   2.653  13.646  0.1919 -0.6770 -0.3199
  161SAPE   O2217939   1.095   2.642  13.579  0.0825  0.1949  0.5995
  161SAPE   C2217940   0.849   2.672  13.590 -0.7721 -0.1813  0.1777
  161SAPE   H2R17941   0.788   2.621  13.668  0.4513  0.6531  1.7528
  161SAPE   H2S17942   0.832   2.782  13.591 -2.6047 -0.4317 -0.4724
  161SAPE    C317943   1.071   2.595  13.984 -0.0213 -0.5203 -0.2873
  161SAPE    HX17944   0.990   2.651  14.036 -0.6109 -0.0639 -1.6400
  161SAPE    HY17945   1.161   2.600  14.049  0.4264  0.6004 -0.9513
  161SAPE   O3117946   1.041   2.455  13.985 -0.2487  0.5208  0.2787
  161SAPE   C3117947   0.916   2.428  13.956  0.6480  0.3923 -0.1475
  161SAPE   O3217948   0.824   2.510  13.947 -0.1700 -0.2797  0.1482
  161SAPE   C3217949   0.894   2.278  13.948  0.2393  0.0984  0.4329
  161SAPE   H2X17950   0.809   2.245  14.011 -0.0289  0.8154  0.4459
  161SAPE   H2Y17951   0.988   2.224  13.975 -0.2198 -0.4911  0.8706
  161SAPE   C2317952   0.844   2.630  13.438 -0.0669 -0.4359 -0.1053
  161SAPE   H3R17953   0.938   2.644  13.381 -1.1048 -0.5599 -1.9235
  161SAPE   H3S17954   0.771   2.701  13.395 -0.9540 -0.7320  0.8766
  161SAPE   C2417955   0.793   2.489  13.413  0.8564 -0.2588 -0.4329
  161SAPE   H4R17956   0.775   2.478  13.304  0.6042 -1.5164 -0.2744
  161SAPE   H4S17957   0.699   2.487  13.473  0.9248  1.2414 -0.2203
  161SAPE   C2517958   0.900   2.395  13.466  0.0274 -0.8413 -0.3767
  161SAPE   H5R17959   0.913   2.381  13.574  3.0992  0.7164 -0.4500
  161SAPE   C2617960   0.960   2.303  13.392  0.6149  0.6454 -0.5692
  161SAPE   H6R17961   1.022   2.234  13.451 -2.1791 -0.7540  0.9643
  161SAPE   C2717962   0.951   2.283  13.243 -0.7822 -0.4140 -0.3998
  161SAPE   H7R17963   0.855   2.327  13.209  0.0363  0.8486 -1.1524
  161SAPE   H7S17964   0.949   2.176  13.211  0.1659 -0.5212 -0.1261
  161SAPE   C2817965   1.070   2.346  13.170 -0.4830 -0.2101 -0.0122
  161SAPE   H8R17966   1.098   2.447  13.203  1.9520 -0.2557 -1.7352
  161SAPE   C2917967   1.137   2.299  13.067  0.2998 -0.7167 -0.3118
  161SAPE   H9R17968   1.225   2.354  13.029 -0.5277  1.6457  0.9564
  161SAPE  C21017969   1.116   2.160  13.013 -1.0571 -0.3021  0.2976
  161SAPE  H10R17970   1.008   2.139  12.999 -0.7273 -0.5317 -2.4050
  161SAPE  H10S17971   1.142   2.079  13.085  0.8083 -1.3641 -1.4632
  161SAPE  C21117972   1.190   2.135  12.881 -0.0019  0.1745 -0.0186
  161SAPE  H11R17973   1.288   2.086  12.887 -1.0100 -1.7336  2.8025
  161SAPE  C21217974   1.148   2.178  12.758  0.0917 -0.1053 -0.5972
  161SAPE  H12R17975   1.212   2.169  12.669 -0.5718  2.0635 -1.3684
  161SAPE  C21317976   1.020   2.255  12.739 -0.6136 -0.4504 -0.0435
  161SAPE  H13R17977   1.009   2.330  12.657 -2.4995 -0.8243 -0.1842
  161SAPE  H13S17978   0.997   2.320  12.826  0.0635  1.3481 -1.1535
  161SAPE  C21417979   0.894   2.172  12.717 -0.1371 -0.4707  0.6838
  161SAPE  H14R17980   0.844   2.144  12.810  1.7371  0.4724  2.0641
  161SAPE  C21517981   0.861   2.113  12.602 -0.3850  0.2026 -0.3727
  161SAPE  H15R17982   0.770   2.052  12.608 -0.2904  0.2052  1.7548
  161SAPE  C21617983   0.944   2.111  12.472  0.8635  0.1793 -0.8253
  161SAPE  H16R17984   0.921   2.015  12.420 -2.1062  1.1844 -1.5472
  161SAPE  H16S17985   1.052   2.128  12.494  0.6133  1.5281 -0.5916
  161SAPE  C21717986   0.888   2.221  12.370 -0.2695  0.1335 -0.8925
  161SAPE  H17R17987   0.914   2.321  12.409  0.1784 -0.9597  1.8453
  161SAPE  H17S17988   0.778   2.203  12.374 -0.3764  0.9628  0.6835
  161SAPE  C21817989   0.957   2.211  12.231  0.5784 -0.3118 -0.1624
  161SAPE  H18R17990   1.062   2.182  12.249  0.0459 -2.5693 -0.4563
  161SAPE  H18S17991   0.966   2.315  12.191  2.3427 -0.5914 -0.5401
  161SAPE  C21917992   0.893   2.117  12.127  0.2009 -0.1757 -0.7716
  161SAPE  H19R17993   0.789   2.149  12.107  0.7389  1.3145 -1.4009
  161SAPE  H19S17994   0.894   2.017  12.174  1.1508  0.2270  0.1337
  161SAPE  C22017995   0.965   2.112  11.996 -0.2068  0.2300 -0.2041
  161SAPE  H20R17996   0.928   2.022  11.943 -2.3250  0.2201  1.1938
  161SAPE  H20S17997   1.074   2.094  12.008 -0.2346 -0.3211 -0.7507
  161SAPE  H20T17998   0.951   2.207  11.939 -0.2316 -0.1733 -0.8828
  161SAPE   C3317999   0.870   2.253  13.796  0.0801  0.5897  0.0091
  161SAPE   H3X18000   0.960   2.287  13.741 -1.5792 -0.1072 -3.3951
  161SAPE   H3Y18001   0.785   2.313  13.756 -2.8221 -1.8394  2.0380
  161SAPE   C3418002   0.857   2.101  13.770 -0.0823 -0.4033  0.2914
  161SAPE   H4X18003   0.776   2.053  13.828  0.3769 -2.0792 -0.3787
  161SAPE   H4Y18004   0.947   2.050  13.812  0.3505 -0.0685 -0.2063
  161SAPE   C3518005   0.850   2.062  13.615 -0.3728 -0.1095  0.3270
  161SAPE   H5X18006   0.940   2.096  13.559 -0.1889 -2.0472 -0.6555
  161SAPE   H5Y18007   0.757   2.112  13.582 -1.1899 -2.2344 -0.8090
  161SAPE   C3618008   0.837   1.913  13.588 -0.1553 -0.3597 -0.6799
  161SAPE   H6X18009   0.743   1.877  13.635 -0.3577  1.0804  0.0578
  161SAPE   H6Y18010   0.920   1.869  13.647 -0.4437  0.7111  0.5476
  161SAPE   C3718011   0.829   1.877  13.437  0.1115  1.1036 -0.1980
  161SAPE   H7X18012   0.824   1.767  13.427 -2.0774  0.7267  3.2831
  161SAPE   H7Y18013   0.910   1.929  13.382  2.1799  1.8301  3.2136
  161SAPE   C3818014   0.705   1.933  13.365 -0.7582 -0.8854 -0.7212
  161SAPE   H8X18015   0.729   2.041  13.360  1.4760 -1.2641  0.5216
  161SAPE   H8Y18016   0.621   1.930  13.438  0.3265  3.1147  0.9501
  161SAPE   C3918017   0.672   1.862  13.234 -0.7637  1.3987  0.3231
  161SAPE   H9X18018   0.596   1.918  13.176 -0.9015  1.7987  0.8731
  161SAPE   H9Y18019   0.631   1.761  13.257  2.5394  0.3730  2.3971
  161SAPE  C31018020   0.778   1.823  13.134  0.1302 -0.6975 -0.2492
  161SAPE  H10X18021   0.844   1.756  13.193 -0.3384 -1.4966 -0.6257
  161SAPE  H10Y18022   0.842   1.911  13.110 -2.1826  1.1253 -0.0829
  161SAPE  C31118023   0.726   1.747  13.008 -0.1924 -0.2745 -0.0442
  161SAPE  H11X18024   0.660   1.819  12.954  0.2061  1.0754  1.1893
  161SAPE  H11Y18025   0.644   1.680  13.041 -0.1371 -1.1137 -1.5451
  161SAPE  C31218026   0.827   1.667  12.935 -0.5050 -0.2047  0.2139
  161SAPE  H12X18027   0.918   1.644  12.994  0.3983 -0.9435 -1.4193
  161SAPE  H12Y18028   0.870   1.725  12.851  0.3367 -1.3093 -0.1318
  161SAPE  C31318029   0.776   1.535  12.877  0.0453  0.2201 -0.7308
  161SAPE  H13X18030   0.725   1.534  12.778  1.1113 -2.0869 -1.3373
  161SAPE  H13Y18031   0.708   1.486  12.949  0.2781 -1.7829 -1.7857
  161SAPE  C31418032   0.897   1.429  12.860  0.6123 -0.4847 -0.1046
  161SAPE  H14X18033   0.939   1.410  12.961  0.0687  0.0230  0.2294
  161SAPE  H14Y18034   0.970   1.465  12.785  0.9161 -0.1813  0.3311
  161SAPE  C31518035   0.829   1.297  12.813  0.9168  0.4772 -0.7222
  161SAPE  H15X18036   0.804   1.307  12.705 -0.0433  0.7053 -0.4893
  161SAPE  H15Y18037   0.728   1.278  12.855  1.9079 -1.8884  0.7967
  161SAPE  C31618038   0.907   1.172  12.844 -0.2079  0.3465 -0.2684
  161SAPE  H16X18039   0.868   1.087  12.785 -3.1942  2.0941 -0.9819
  161SAPE  H16Y18040   0.905   1.147  12.953 -1.0886  0.1260 -0.3322
  161SAPE  C31718041   1.056   1.185  12.803  0.2939 -0.6189 -1.0579
  161SAPE  H17X18042   1.114   1.243  12.878  0.2075 -0.3545 -1.1941
  161SAPE  H17Y18043   1.060   1.234  12.703  2.7995 -1.2537 -1.3406
  161SAPE  C31818044   1.130   1.057  12.798 -0.1424 -0.0102 -0.4384
  161SAPE  H18X18045   1.234   1.072  12.764 -0.3473  0.2983 -0.9300
  161SAPE  H18Y18046   1.099   0.985  12.719 -0.4687  0.6061 -0.8842
  161SAPE  H18Z18047   1.133   1.006  12.897  1.5593 -1.2856 -1.0928
  162SAPE     N18048   0.926   0.230  13.441  0.5737  0.6133 -0.2983
  162SAPE   HN118049   0.968   0.152  13.387  1.2161  1.0448 -0.4405
  162SAPE   HN218050   0.973   0.222  13.534 -1.5368 -0.6342  0.7353
  162SAPE   HN318051   0.826   0.212  13.462  1.1213 -0.9156  1.2856
  162SAPE   C1218052   0.942   0.361  13.367 -0.7136 -0.0972  0.3107
  162SAPE  H12A18053   1.046   0.369  13.329 -0.7345  0.0094  0.2769
  162SAPE  H12B18054   0.903   0.438  13.437 -0.2546  1.6829 -1.3036
  162SAPE   C1118055   0.853   0.364  13.241  0.9213 -0.0850  0.7547
  162SAPE  H11A18056   0.903   0.431  13.168  1.0857 -0.5182  0.4629
  162SAPE  H11B18057   0.751   0.401  13.264  0.7244 -1.2442  1.8968
  162SAPE     P18058   0.856   0.190  13.033 -0.1771  0.1883 -0.1292
  162SAPE   O1318059   0.967   0.260  12.972 -0.0960  0.6689 -0.4543
  162SAPE   O1418060   0.862   0.040  13.029 -0.2165  0.4958 -0.1638
  162SAPE   O1218061   0.845   0.235  13.186 -0.2767  0.3772  0.0978
  162SAPE   O1118062   0.721   0.237  12.954  0.1686  0.0295 -0.1769
  162SAPE    C118063   0.597   0.278  13.008 -0.1270 -0.0622 -0.3955
  162SAPE    HA18064   0.605   0.383  13.042  4.1889  0.3271 -1.9600
  162SAPE    HB18065   0.542   0.309  12.917  0.8290  0.7040 -0.7238
  162SAPE    C218066   0.532   0.183  13.107 -0.1365 -0.2152  0.3698
  162SAPE    HS18067   0.611   0.136  13.170 -0.7880 -0.5211  0.9669
  162SAPE   O2118068   0.468   0.086  13.026  0.4775 -0.2334 -0.7274
  162SAPE   C2118069   0.432  -0.024  13.092 -0.3870  0.3094 -0.0457
  162SAPE   O2218070   0.484  -0.059  13.199  0.6433  0.2878  0.1928
  162SAPE   C2218071   0.338  -0.107  13.004 -0.0067  0.0330  0.5501
  162SAPE   H2R18072   0.240  -0.055  13.007  0.7992  1.9086 -1.8166
  162SAPE   H2S18073   0.367  -0.105  12.896 -1.0178 -0.2992  0.2637
  162SAPE    C318074   0.438   0.265  13.188  0.8786 -0.0363  0.0273
  162SAPE    HX18075   0.499   0.320  13.263  0.7926 -0.9860  0.8121
  162SAPE    HY18076   0.371   0.203  13.251 -1.3721 -0.4238 -2.5732
  162SAPE   O3118077   0.357   0.370  13.116  0.1929 -0.0288  0.5726
  162SAPE   C3118078   0.249   0.313  13.068 -0.3790  0.9215 -0.6633
  162SAPE   O3218079   0.217   0.193  13.093  0.2981 -0.5822  0.2424
  162SAPE   C3218080   0.168   0.417  12.983  0.2802 -0.2761 -0.6954
  162SAPE   H2X18081   0.225   0.434  12.889  0.1421  0.3746 -0.6636
  162SAPE   H2Y18082   0.146   0.511  13.037  0.0812 -0.2501 -0.8200
  162SAPE   C2318083   0.342  -0.254  13.043  0.1379  0.4339 -0.2253
  162SAPE   H3R18084   0.307  -0.252  13.149 -1.7515 -0.2405 -0.7976
  162SAPE   H3S18085   0.449  -0.285  13.045  0.5800  1.7127  2.9963
  162SAPE   C2418086   0.256  -0.342  12.953 -0.2191  0.2140  0.3522
  162SAPE   H4R18087   0.277  -0.331  12.845  1.3830 -1.0987  0.4903
  162SAPE   H4S18088   0.148  -0.317  12.966  0.0666  1.2812  0.7852
  162SAPE   C2518089   0.292  -0.489  12.968 -0.2202 -0.3901 -0.4043
  162SAPE   H5R18090   0.384  -0.524  12.917  0.2529 -1.0355  0.8473
  162SAPE   C2618091   0.211  -0.577  13.027 -0.0963  0.6987 -0.0820
  162SAPE   H6R18092   0.233  -0.685  13.025  0.5110  0.6259  3.6522
  162SAPE   C2718093   0.083  -0.559  13.100  0.5855  0.5902 -0.1100
  162SAPE   H7R18094   0.020  -0.649  13.086  0.5385  0.6901 -0.5733
  162SAPE   H7S18095   0.018  -0.481  13.055  0.0370  0.3160  0.2033
  162SAPE   C2818096   0.106  -0.548  13.246 -0.4015 -0.8573 -0.4051
  162SAPE   H8R18097   0.179  -0.467  13.258 -0.8114 -0.6408  0.6532
  162SAPE   C2918098   0.054  -0.607  13.355 -0.2458 -0.2486 -0.6736
  162SAPE   H9R18099   0.078  -0.569  13.456 -4.5794 -4.3876  2.3372
  162SAPE  C21018100  -0.052  -0.710  13.348 -0.6055 -0.6617  0.2810
  162SAPE  H10R18101   0.003  -0.797  13.307  1.4554  0.9890 -0.6446
  162SAPE  H10S18102  -0.120  -0.685  13.264 -1.8166  0.5526  1.5763
  162SAPE  C21118103  -0.131  -0.732  13.473  0.4973  0.2561  0.3244
  162SAPE  H11R18104  -0.225  -0.677  13.459 -1.3082 -2.8249 -0.6452
  162SAPE  C21218105  -0.111  -0.804  13.582 -0.5801  0.4041 -0.4248
  162SAPE  H12R18106  -0.184  -0.798  13.664 -0.2489 -0.6453 -0.0438
  162SAPE  C21318107   0.010  -0.885  13.613 -0.6180  0.3131 -0.2515
  162SAPE  H13R18108   0.049  -0.863  13.715 -0.3329 -2.8453  0.4272
  162SAPE  H13S18109   0.100  -0.875  13.548  0.2885 -0.8145  0.7624
  162SAPE  C21418110  -0.015  -1.036  13.625 -0.2706 -0.2807  0.4598
  162SAPE  H14R18111  -0.041  -1.077  13.526 -1.4258 -0.6559  0.9135
  162SAPE  C21518112  -0.001  -1.106  13.733 -0.0032 -0.1753 -0.1521
  162SAPE  H15R18113  -0.001  -1.216  13.732  0.0542 -0.1932 -1.5822
  162SAPE  C21618114   0.013  -1.056  13.876 -0.1598  0.3148 -0.2279
  162SAPE  H16R18115  -0.032  -0.955  13.883 -2.6490 -0.6671 -0.9602
  162SAPE  H16S18116   0.120  -1.051  13.907 -0.7611  1.4803  1.8494
  162SAPE  C21718117  -0.071  -1.139  13.976 -0.0553 -0.4884 -0.3695
  162SAPE  H17R18118  -0.019  -1.237  13.971  2.2731  0.7176 -1.2334
  162SAPE  H17S18119  -0.177  -1.147  13.941 -1.1275  0.2025  2.4390
  162SAPE  C21818120  -0.077  -1.074  14.118 -0.2488  0.4313 -0.2234
  162SAPE  H18R18121  -0.162  -1.003  14.110 -0.5328 -0.0327 -1.8254
  162SAPE  H18S18122   0.020  -1.029  14.148 -0.1134 -0.6257  0.9926
  162SAPE  C21918123  -0.114  -1.184  14.217 -0.3758  0.3007 -0.1966
  162SAPE  H19R18124  -0.036  -1.263  14.225 -0.4476  0.2621  0.1326
  162SAPE  H19S18125  -0.200  -1.241  14.175  0.6794 -2.8654  1.6273
  162SAPE  C22018126  -0.148  -1.143  14.357  0.2811 -0.3472  0.3098
  162SAPE  H20R18127  -0.222  -1.060  14.368  1.3602  0.8082 -0.8119
  162SAPE  H20S18128  -0.065  -1.089  14.407  0.9006  1.8734 -2.7937
  162SAPE  H20T18129  -0.188  -1.230  14.413 -0.4022  0.0148  0.3894
  162SAPE   C3318130   0.040   0.344  12.934 -0.2164  0.3585  0.6994
  162SAPE   H3X18131  -0.029   0.322  13.018 -1.5837 -3.3490 -1.1689
  162SAPE   H3Y18132   0.069   0.243  12.899 -0.5878  0.5998 -0.3542
  162SAPE   C3418133  -0.042   0.403  12.814 -0.2725  0.4670  0.2320
  162SAPE   H4X18134  -0.119   0.329  12.784 -0.5179  0.2389  1.3849
  162SAPE   H4Y18135   0.032   0.411  12.731 -0.5438  2.3501  0.1303
  162SAPE   C3518136  -0.104   0.540  12.836  0.7391  0.0227 -0.6985
  162SAPE   H5X18137  -0.033   0.626  12.841 -0.4154  0.9621  1.0468
  162SAPE   H5Y18138  -0.159   0.547  12.933 -0.7190  0.9119 -1.5393
  162SAPE   C3618139  -0.210   0.585  12.731  0.2864  0.5312  0.1047
  162SAPE   H6X18140  -0.270   0.493  12.718  1.6315 -0.2959 -0.4364
  162SAPE   H6Y18141  -0.166   0.609  12.632  1.1292 -0.7035  0.1605
  162SAPE   C3718142  -0.288   0.712  12.778  0.1401 -0.6368  0.0857
  162SAPE   H7X18143  -0.233   0.803  12.748  1.8145 -1.9177 -0.8958
  162SAPE   H7Y18144  -0.299   0.698  12.888 -1.9863  1.0717  0.1633
  162SAPE   C3818145  -0.430   0.718  12.725 -0.3136 -0.6031 -0.0662
  162SAPE   H8X18146  -0.485   0.622  12.740  0.6468 -0.9210  1.6620
  162SAPE   H8Y18147  -0.429   0.729  12.614  0.8021  1.5866  0.1284
  162SAPE   C3918148  -0.514   0.837  12.779  0.0218 -0.6965 -0.4789
  162SAPE   H9X18149  -0.458   0.930  12.756 -0.1881 -0.2920  0.6224
  162SAPE   H9Y18150  -0.514   0.833  12.890  0.4055 -0.4051 -0.4648
  162SAPE  C31018151  -0.657   0.855  12.728  0.1031  0.4276 -0.3652
  162SAPE  H10X18152  -0.715   0.771  12.773 -0.6923 -1.1418 -3.9415
  162SAPE  H10Y18153  -0.646   0.835  12.619  0.0460 -2.5749  0.0968
  162SAPE  C31118154  -0.699   0.995  12.755  0.3145 -0.0528 -0.0580
  162SAPE  H11X18155  -0.622   1.056  12.704  0.0899  1.0378  0.8660
  162SAPE  H11Y18156  -0.690   1.017  12.863  1.0735 -0.1448 -0.1030
  162SAPE  C31218157  -0.841   1.041  12.710  1.2328  0.1345 -0.4360
  162SAPE  H12X18158  -0.840   1.152  12.717 -1.7662  0.2149 -0.0261
  162SAPE  H12Y18159  -0.905   1.001  12.792  0.8116  0.0616 -0.7977
  162SAPE  C31318160  -0.885   0.995  12.569 -0.1554 -0.2738  0.5362
  162SAPE  H13X18161  -0.883   0.884  12.554 -1.5544  0.0754 -3.4322
  162SAPE  H13Y18162  -0.827   1.037  12.484 -1.7418 -2.0815 -1.5800
  162SAPE  C31418163  -1.024   1.055  12.552 -0.0667  0.2091  0.2951
  162SAPE  H14X18164  -1.027   1.163  12.577 -1.5230  0.2890 -0.1710
  162SAPE  H14Y18165  -1.081   0.997  12.628  1.4378  0.1343  1.4214
  162SAPE  C31518166  -1.087   1.044  12.415  0.0530  0.2005  0.1514
  162SAPE  H15X18167  -1.019   1.091  12.341 -0.7223 -0.6764 -1.1690
  162SAPE  H15Y18168  -1.177   1.109  12.411 -0.6224 -0.7654 -2.0656
  162SAPE  C31618169  -1.134   0.906  12.378  0.8342  0.4946  0.4915
  162SAPE  H16X18170  -1.208   0.867  12.450 -0.3417 -0.6374 -1.2758
  162SAPE  H16Y18171  -1.049   0.835  12.391 -0.2723 -1.1959 -1.0515
  162SAPE  C31718172  -1.170   0.880  12.228 -0.9531 -0.5112 -0.2197
  162SAPE  H17X18173  -1.084   0.927  12.175  1.0791 -2.3113  1.3003
  162SAPE  H17Y18174  -1.266   0.933  12.209 -0.2884  0.8665  0.1429
  162SAPE  C31818175  -1.188   0.742  12.189  0.2421  0.2897  0.3960
  162SAPE  H18X18176  -1.238   0.694  12.276  2.7506 -1.3710  1.0377
  162SAPE  H18Y18177  -1.090   0.690  12.181  0.7595  1.4938 -1.6099
  162SAPE  H18Z18178  -1.264   0.736  12.108 -0.3880  3.2715  0.6844
  163SAPE     N18179   0.920   3.391  13.183  0.6289  0.6201  0.1355
  163SAPE   HN118180   0.906   3.395  13.286 -2.9220  1.0816 -0.2316
  163SAPE   HN218181   0.911   3.476  13.124 -0.1084 -0.8576 -2.0561
  163SAPE   HN318182   0.840   3.331  13.153 -0.6381  2.7145 -0.9233
  163SAPE   C1218183   1.043   3.318  13.156 -0.1023  0.1433 -0.2568
  163SAPE  H12A18184   1.124   3.377  13.206  1.0685 -2.4956  1.2001
  163SAPE  H12B18185   1.063   3.315  13.047  1.8226 -1.4868  0.0865
  163SAPE   C1118186   1.040   3.172  13.185 -0.4857  0.2254 -0.0193
  163SAPE  H11A18187   1.140   3.126  13.172 -0.2870  0.1342  1.6938
  163SAPE  H11B18188   0.969   3.126  13.112 -1.5399  1.7580 -0.0075
  163SAPE     P18189   0.912   3.015  13.349 -0.2337  0.1443 -0.1754
  163SAPE   O1318190   0.983   2.907  13.276 -0.3488 -0.2710  0.1822
  163SAPE   O1418191   0.886   3.016  13.494  0.2239  0.4929 -0.7337
  163SAPE   O1218192   0.993   3.149  13.317  1.0211 -1.1525 -0.5318
  163SAPE   O1118193   0.772   3.039  13.274 -0.7446  0.0644  0.2489
  163SAPE    C118194   0.667   3.103  13.355  0.0061  0.0196 -0.2902
  163SAPE    HA18195   0.710   3.168  13.434 -0.8261  1.9224 -1.3359
  163SAPE    HB18196   0.605   3.167  13.289 -0.2611 -0.3164 -0.3691
  163SAPE    C218197   0.579   2.989  13.417  0.8707  0.0799 -0.0701
  163SAPE    HS18198   0.645   2.926  13.480 -0.3432  1.4331  2.7262
  163SAPE   O2118199   0.517   2.913  13.307  0.1290 -0.4081 -0.0860
  163SAPE   C2118200   0.474   2.793  13.336  0.3794 -0.3748  0.0643
  163SAPE   O2218201   0.493   2.732  13.439 -0.5673  0.7376 -0.5040
  163SAPE   C2218202   0.409   2.732  13.209 -0.3003 -0.7999 -1.2567
  163SAPE   H2R18203   0.393   2.806  13.128  2.4607  1.1053 -0.2097
  163SAPE   H2S18204   0.485   2.659  13.174  1.1423 -0.3156  0.6995
  163SAPE    C318205   0.473   3.051  13.506  0.1895 -0.5291 -0.4125
  163SAPE    HX18206   0.401   3.119  13.456  0.6744 -1.2134 -2.1213
  163SAPE    HY18207   0.521   3.115  13.583  1.2541 -1.4878 -0.2536
  163SAPE   O3118208   0.398   2.952  13.566  0.1970  0.3062  0.3175
  163SAPE   C3118209   0.440   2.887  13.669 -0.5833  0.2984 -0.3292
  163SAPE   O3218210   0.550   2.891  13.714  0.0676 -0.0893 -0.9057
  163SAPE   C3218211   0.327   2.810  13.728  0.1211  0.3241  0.4224
  163SAPE   H2X18212   0.281   2.746  13.649 -1.2325  0.8483  0.7678
  163SAPE   H2Y18213   0.236   2.871  13.748 -0.8066 -1.1319  0.8071
  163SAPE   C2318214   0.282   2.660  13.257  0.0874  0.3368  0.8306
  163SAPE   H3R18215   0.212   2.735  13.300  0.3839  0.1352  1.6686
  163SAPE   H3S18216   0.305   2.591  13.340 -0.8531 -0.7095  0.2544
  163SAPE   C2418217   0.204   2.574  13.152  0.4588  0.3807  0.5645
  163SAPE   H4R18218   0.267   2.492  13.113 -1.0442 -0.0334 -1.0877
  163SAPE   H4S18219   0.185   2.649  13.073  1.5902 -0.6281 -0.7104
  163SAPE   C2518220   0.076   2.511  13.207 -0.3371  0.1184  0.4079
  163SAPE   H5R18221   0.079   2.490  13.315  1.7647  2.2854  0.8542
  163SAPE   C2618222  -0.029   2.479  13.130 -0.3377  0.3094 -0.1757
  163SAPE   H6R18223  -0.110   2.439  13.192  1.1864 -2.9120 -0.0435
  163SAPE   C2718224  -0.051   2.503  12.979  0.4070 -0.0161  0.0275
  163SAPE   H7R18225   0.039   2.544  12.929  0.8305 -0.4792  0.3951
  163SAPE   H7S18226  -0.130   2.581  12.975  0.0095 -0.4492 -0.8875
  163SAPE   C2818227  -0.110   2.384  12.907  0.4090  0.4140 -0.1282
  163SAPE   H8R18228  -0.218   2.384  12.886  0.1270 -0.9754  1.1153
  163SAPE   C2918229  -0.042   2.277  12.858  0.0570  0.3348  0.5560
  163SAPE   H9R18230  -0.107   2.203  12.808 -1.6611  1.8416  0.4454
  163SAPE  C21018231   0.103   2.241  12.875 -0.4110 -0.4944 -0.0827
  163SAPE  H10R18232   0.125   2.275  12.978  0.4107  0.3734 -0.5368
  163SAPE  H10S18233   0.155   2.311  12.806 -1.7078  1.0165  0.4190
  163SAPE  C21118234   0.127   2.093  12.852  0.3587  0.3291  0.6400
  163SAPE  H11R18235   0.047   2.023  12.883  0.0332  0.9828  1.2992
  163SAPE  C21218236   0.236   2.037  12.806 -0.5725  0.2020  0.2810
  163SAPE  H12R18237   0.245   1.928  12.797 -0.7141  0.2587 -0.6321
  163SAPE  C21318238   0.360   2.110  12.754 -0.3969 -0.7508  0.6302
  163SAPE  H13R18239   0.365   2.211  12.800 -1.3545 -0.3274 -0.1512
  163SAPE  H13S18240   0.348   2.123  12.645  1.6097 -1.7995  0.2431
  163SAPE  C21418241   0.483   2.028  12.786  0.2404  0.2597  0.1072
  163SAPE  H14R18242   0.527   2.058  12.882 -0.0229 -1.5419  0.8259
  163SAPE  C21518243   0.540   1.923  12.725  0.6163 -0.5040  0.3131
  163SAPE  H15R18244   0.625   1.868  12.767  1.6050 -0.4261 -1.4896
  163SAPE  C21618245   0.492   1.853  12.598 -0.0190 -0.5628 -0.3876
  163SAPE  H16R18246   0.423   1.926  12.550  0.7733  1.7352  1.7290
  163SAPE  H16S18247   0.426   1.778  12.647  1.0797  0.1307  2.3603
  163SAPE  C21718248   0.599   1.793  12.503  0.0298  0.2695 -0.1850
  163SAPE  H17R18249   0.663   1.726  12.565  0.2750  2.2563  1.8477
  163SAPE  H17S18250   0.667   1.869  12.458  0.4541  0.3373  0.5486
  163SAPE  C21818251   0.541   1.715  12.380  0.0945 -0.2956 -0.3633
  163SAPE  H18R18252   0.472   1.638  12.420 -0.2565  0.6660  0.9379
  163SAPE  H18S18253   0.631   1.663  12.343  0.4550 -0.2294  0.4061
  163SAPE  C21918254   0.471   1.791  12.269  0.0418  0.2641  0.8176
  163SAPE  H19R18255   0.385   1.850  12.309 -1.8817 -0.4439 -1.9747
  163SAPE  H19S18256   0.424   1.715  12.203  1.4497  0.8933 -0.9880
  163SAPE  C22018257   0.554   1.891  12.192  0.0148  1.0143 -0.5873
  163SAPE  H20R18258   0.496   1.962  12.129  0.3769 -0.5284 -2.7671
  163SAPE  H20S18259   0.619   1.842  12.117  1.0105  2.0499 -0.4294
  163SAPE  H20T18260   0.613   1.957  12.259 -0.2114  0.2791  0.3595
  163SAPE   C3318261   0.363   2.717  13.845  0.0735 -0.7609 -0.3883
  163SAPE   H3X18262   0.275   2.707  13.911 -0.3004 -1.0138 -0.9177
  163SAPE   H3Y18263   0.436   2.765  13.914  0.1908  0.2601 -1.1929
  163SAPE   C3418264   0.426   2.587  13.800  0.4777 -0.2157  0.3654
  163SAPE   H4X18265   0.515   2.623  13.744 -2.0666  3.0972 -1.9871
  163SAPE   H4Y18266   0.362   2.533  13.728 -0.6268  0.0297  1.1332
  163SAPE   C3518267   0.489   2.500  13.899  0.8265  0.3449 -0.4833
  163SAPE   H5X18268   0.544   2.560  13.975  0.6308 -0.3090  0.1860
  163SAPE   H5Y18269   0.573   2.443  13.855  0.7755  0.3094 -0.5340
  163SAPE   C3618270   0.395   2.402  13.969 -0.0324 -0.4962  0.2573
  163SAPE   H6X18271   0.393   2.299  13.927 -0.7420 -0.3967  0.0377
  163SAPE   H6Y18272   0.297   2.454  13.966  0.2118  0.1321  2.0231
  163SAPE   C3718273   0.425   2.395  14.126 -0.3327 -0.3907  0.3660
  163SAPE   H7X18274   0.387   2.490  14.169  1.2064 -1.1653  3.7881
  163SAPE   H7Y18275   0.534   2.380  14.139 -0.2578  0.5103  0.8430
  163SAPE   C3818276   0.363   2.283  14.190  0.1387  0.1171  0.0264
  163SAPE   H8X18277   0.418   2.193  14.156 -0.5291 -0.6608  0.9345
  163SAPE   H8Y18278   0.255   2.272  14.163 -0.1696  1.9928  0.3019
  163SAPE   C3918279   0.375   2.299  14.346 -0.3156 -0.1632  0.1055
  163SAPE   H9X18280   0.339   2.402  14.365  1.2363  0.5010 -0.4106
  163SAPE   H9Y18281   0.482   2.289  14.371 -0.5717  2.5725  2.8492
  163SAPE  C31018282   0.294   2.195  14.415 -0.6233  0.4467 -0.5018
  163SAPE  H10X18283   0.334   2.106  14.362  2.1251  0.7566  0.9013
  163SAPE  H10Y18284   0.188   2.197  14.380 -0.2668 -0.2321 -1.6756
  163SAPE  C31118285   0.297   2.202  14.573  0.4633  0.3864 -0.0321
  163SAPE  H11X18286   0.268   2.303  14.608  0.0942 -0.2420  1.5590
  163SAPE  H11Y18287   0.406   2.192  14.595  0.6899  2.1365 -0.2740
  163SAPE  C31218288   0.217   2.090  14.640 -0.4074  0.6682 -0.4863
  163SAPE  H12X18289   0.113   2.094  14.599  0.3626  1.5322 -2.4827
  163SAPE  H12Y18290   0.210   2.108  14.749  1.2142 -0.5575 -0.1528
  163SAPE  C31318291   0.285   1.953  14.633 -0.2545 -0.1118  0.7880
  163SAPE  H13X18292   0.391   1.966  14.664  0.4097  1.6508 -1.8919
  163SAPE  H13Y18293   0.295   1.921  14.527 -2.0232 -0.2932  0.6409
  163SAPE  C31418294   0.220   1.837  14.709 -0.6295  0.7146 -0.3012
  163SAPE  H14X18295   0.186   1.875  14.807 -0.7416  0.6242 -0.3045
  163SAPE  H14Y18296   0.294   1.757  14.732  0.9969  1.3838 -2.8381
  163SAPE  C31518297   0.096   1.769  14.643 -0.7593  0.2300  0.2723
  163SAPE  H15X18298   0.127   1.689  14.572 -0.4180 -0.3744  1.0757
  163SAPE  H15Y18299   0.028   1.839  14.592  1.0991  1.5812 -0.4310
  163SAPE  C31618300   0.004   1.705  14.743 -0.2614  0.2947 -0.5643
  163SAPE  H16X18301  -0.050   1.786  14.795 -1.4511  0.4411 -1.9616
  163SAPE  H16Y18302   0.057   1.644  14.819  1.1584  0.6467 -1.2381
  163SAPE  C31718303  -0.100   1.619  14.675 -0.4211  0.4040  0.2575
  163SAPE  H17X18304  -0.060   1.516  14.671 -1.1680  0.1310 -0.2669
  163SAPE  H17Y18305  -0.135   1.650  14.575  2.4472  3.2959 -0.0117
  163SAPE  C31818306  -0.223   1.597  14.764 -0.0767 -0.5722  0.0214
  163SAPE  H18X18307  -0.290   1.686  14.762 -0.0795 -0.5544 -2.7795
  163SAPE  H18Y18308  -0.192   1.559  14.864 -1.3557  0.9319  1.0398
  163SAPE  H18Z18309  -0.281   1.524  14.704 -0.2329 -0.4358  0.0057
  164SAPE     N18310   1.077   2.883  12.007 -0.3931 -0.0767 -0.0598
  164SAPE   HN118311   1.063   2.897  11.905 -2.2048 -0.6185  0.0781
  164SAPE   HN218312   1.015   2.958  12.044 -0.5353 -0.5086  0.5941
  164SAPE   HN318313   1.176   2.908  12.029  0.0476 -2.5531  1.0951
  164SAPE   C1218314   1.039   2.747  12.060  0.2605  0.1117  0.1342
  164SAPE  H12A18315   1.124   2.678  12.041 -0.1041 -0.0904 -0.8006
  164SAPE  H12B18316   0.948   2.715  12.005 -1.4135  1.0307  2.1911
  164SAPE   C1118317   1.009   2.741  12.214 -0.5579 -0.1220 -0.0026
  164SAPE  H11A18318   0.996   2.632  12.229 -0.0043 -0.0630  0.9592
  164SAPE  H11B18319   0.912   2.779  12.254 -1.6870 -0.1371 -2.4939
  164SAPE     P18320   1.238   2.704  12.335 -0.0803 -0.2899  0.1393
  164SAPE   O1318321   1.326   2.704  12.219 -0.0542 -0.3773  0.2698
  164SAPE   O1418322   1.295   2.760  12.461 -0.1833  0.2871  0.6143
  164SAPE   O1218323   1.114   2.797  12.292  0.4586  0.0609 -0.2579
  164SAPE   O1118324   1.173   2.561  12.364  0.3125  0.6072  0.1510
  164SAPE    C118325   1.252   2.457  12.422  0.7946 -0.5142  1.0627
  164SAPE    HA18326   1.298   2.494  12.516 -0.5943 -0.9957  1.9595
  164SAPE    HB18327   1.180   2.377  12.451 -0.0750 -0.6035 -1.1768
  164SAPE    C218328   1.355   2.396  12.328 -0.0913  0.1578 -0.1876
  164SAPE    HS18329   1.432   2.475  12.309  3.5568 -3.0064  0.1547
  164SAPE   O2118330   1.284   2.362  12.204 -0.0400  0.4495 -0.1311
  164SAPE   C2118331   1.359   2.359  12.103  0.3245  0.1776 -0.0917
  164SAPE   O2218332   1.475   2.367  12.092 -0.2727  0.2097  0.4327
  164SAPE   C2218333   1.267   2.309  11.986  0.2727  0.1646  0.4149
  164SAPE   H2R18334   1.229   2.207  12.008 -0.3527  0.9456  3.4572
  164SAPE   H2S18335   1.172   2.367  11.987  1.0520  1.4968 -0.1633
  164SAPE    C318336   1.421   2.267  12.384  0.3179  0.0434 -0.3027
  164SAPE    HX18337   1.493   2.229  12.308 -2.0503 -2.8410 -1.3014
  164SAPE    HY18338   1.347   2.184  12.388  2.0241 -1.4825  1.6508
  164SAPE   O3118339   1.484   2.296  12.508  0.0501 -0.2061  0.0645
  164SAPE   C3118340   1.613   2.332  12.508  0.9149 -0.5163 -0.2815
  164SAPE   O3218341   1.678   2.347  12.409  0.2222  0.0901  0.1085
  164SAPE   C3218342   1.653   2.354  12.654 -0.1210  0.0846  0.5556
  164SAPE   H2X18343   1.570   2.336  12.726 -0.1688 -0.1169  0.4513
  164SAPE   H2Y18344   1.678   2.462  12.656 -1.8497  0.5518 -0.7271
  164SAPE   C2318345   1.331   2.305  11.840  1.0214  0.1961 -0.5016
  164SAPE   H3R18346   1.421   2.242  11.858  2.0683  2.4314  3.1862
  164SAPE   H3S18347   1.370   2.402  11.804 -0.3323  1.5017  1.3445
  164SAPE   C2418348   1.239   2.228  11.734 -0.0076 -0.8039  1.0061
  164SAPE   H4R18349   1.143   2.284  11.734  1.8987  2.9141  2.9958
  164SAPE   H4S18350   1.205   2.136  11.787 -1.1250 -0.3391  1.1225
  164SAPE   C2518351   1.302   2.200  11.593  0.8014 -0.2802 -0.8193
  164SAPE   H5R18352   1.271   2.285  11.530  0.5937  1.6469  1.7137
  164SAPE   C2618353   1.378   2.096  11.569  0.4479  0.2148 -0.4400
  164SAPE   H6R18354   1.399   2.086  11.462  1.8181 -0.4682 -0.1303
  164SAPE   C2718355   1.417   1.977  11.655 -0.5186 -0.4349  0.2513
  164SAPE   H7R18356   1.341   1.897  11.647 -2.1925  1.1368 -0.0973
  164SAPE   H7S18357   1.406   2.007  11.762  2.4472 -1.0060  0.8217
  164SAPE   C2818358   1.550   1.925  11.621  0.0575 -0.3574 -0.2599
  164SAPE   H8R18359   1.622   2.001  11.587  0.8578 -1.4164 -0.9561
  164SAPE   C2918360   1.586   1.797  11.616 -0.3442  0.1120 -0.1340
  164SAPE   H9R18361   1.686   1.776  11.575 -0.8357  0.5519 -1.6557
  164SAPE  C21018362   1.494   1.682  11.656  0.1783  0.2855 -0.3323
  164SAPE  H10R18363   1.405   1.693  11.590 -0.2242  0.4092  0.2321
  164SAPE  H10S18364   1.465   1.696  11.762  1.4681 -1.3335  0.2815
  164SAPE  C21118365   1.555   1.546  11.643  0.0210 -0.3668  0.0787
  164SAPE  H11R18366   1.597   1.506  11.737  1.2777  0.7317  0.0033
  164SAPE  C21218367   1.558   1.474  11.530  0.5593 -0.4129  0.4823
  164SAPE  H12R18368   1.597   1.372  11.541 -0.4781 -0.8444  0.2739
  164SAPE  C21318369   1.497   1.523  11.393  0.3408 -0.1522  0.4101
  164SAPE  H13R18370   1.511   1.632  11.373 -1.2523 -0.1203 -0.6469
  164SAPE  H13S18371   1.387   1.526  11.406 -0.0492 -3.2408 -1.3468
  164SAPE  C21418372   1.526   1.452  11.264  0.1843  0.4524 -0.2495
  164SAPE  H14R18373   1.574   1.514  11.188  2.6531  2.3279  2.6327
  164SAPE  C21518374   1.506   1.322  11.236 -0.4964 -0.1300 -0.1980
  164SAPE  H15R18375   1.535   1.289  11.135  0.3736  0.1079 -0.0396
  164SAPE  C21618376   1.440   1.214  11.316  0.2461 -0.4871  0.4331
  164SAPE  H16R18377   1.345   1.186  11.265  0.2245  0.4783 -0.0971
  164SAPE  H16S18378   1.421   1.252  11.418  0.2269 -0.0402  0.2672
  164SAPE  C21718379   1.523   1.086  11.324  0.1058 -0.3158 -0.0595
  164SAPE  H17R18380   1.617   1.103  11.381 -0.7384 -0.2961  1.3738
  164SAPE  H17S18381   1.559   1.058  11.223  1.1554  0.2611  0.1366
  164SAPE  C21818382   1.438   0.971  11.376 -0.2084 -0.1387 -0.3624
  164SAPE  H18R18383   1.364   0.942  11.298 -1.3399  0.3517  0.5051
  164SAPE  H18S18384   1.383   1.003  11.466 -1.9233 -0.9645 -1.0594
  164SAPE  C21918385   1.521   0.850  11.421 -0.1199  0.0281  0.0248
  164SAPE  H19R18386   1.602   0.886  11.488  0.7503 -0.5462 -0.6867
  164SAPE  H19S18387   1.583   0.822  11.333 -1.0825  0.6182 -0.8758
  164SAPE  C22018388   1.435   0.740  11.468  0.5781  0.1337 -0.5470
  164SAPE  H20R18389   1.354   0.718  11.396 -0.2666  1.0485  0.0931
  164SAPE  H20S18390   1.399   0.779  11.566 -0.7041 -0.7400 -0.6485
  164SAPE  H20T18391   1.501   0.651  11.477  3.0808  1.9458  0.4517
  164SAPE   C3318392   1.763   2.266  12.697 -0.2834 -0.3964 -0.7114
  164SAPE   H3X18393   1.785   2.276  12.806 -0.4709 -2.5822 -0.4175
  164SAPE   H3Y18394   1.864   2.288  12.656  0.2555 -0.2995  0.6093
  164SAPE   C3418395   1.740   2.113  12.676 -0.0671  0.3475  0.3803
  164SAPE   H4X18396   1.823   2.061  12.729 -0.7544 -2.5197 -1.1533
  164SAPE   H4Y18397   1.763   2.089  12.570 -0.2748  1.0452  0.1686
  164SAPE   C3518398   1.598   2.054  12.706  0.0309 -0.3381  0.3724
  164SAPE   H5X18399   1.577   1.962  12.647 -1.6503  0.4440 -0.2960
  164SAPE   H5Y18400   1.520   2.122  12.667  1.1369  0.1223 -1.1167
  164SAPE   C3618401   1.570   2.029  12.855 -0.3460  0.2774  0.2670
  164SAPE   H6X18402   1.524   2.120  12.900 -0.9797 -0.6555  1.5898
  164SAPE   H6Y18403   1.668   2.009  12.903  0.2301 -1.8048 -1.6513
  164SAPE   C3718404   1.491   1.905  12.883 -0.3499  0.3370 -0.6600
  164SAPE   H7X18405   1.554   1.822  12.843  1.6501  1.9188 -0.9325
  164SAPE   H7Y18406   1.391   1.916  12.835 -1.0556  0.7949  0.8682
  164SAPE   C3818407   1.468   1.884  13.037 -1.4274  0.3940  0.7245
  164SAPE   H8X18408   1.407   1.972  13.067  0.1749  1.7486  0.1399
  164SAPE   H8Y18409   1.561   1.876  13.098 -0.5810 -0.4375 -0.6163
  164SAPE   C3918410   1.396   1.751  13.070 -0.3768 -0.2451  0.7109
  164SAPE   H9X18411   1.462   1.666  13.041  0.0961 -1.1302  3.9357
  164SAPE   H9Y18412   1.308   1.749  13.003 -1.3745  0.5889  1.9412
  164SAPE  C31018413   1.366   1.761  13.216  0.0688  0.5415  0.1240
  164SAPE  H10X18414   1.342   1.867  13.240  0.2191  0.4870  0.5286
  164SAPE  H10Y18415   1.460   1.744  13.272  0.7514 -0.2740 -1.2257
  164SAPE  C31118416   1.246   1.676  13.273  1.0672  0.5758  0.1746
  164SAPE  H11X18417   1.159   1.723  13.223  0.1131  1.9817  2.9388
  164SAPE  H11Y18418   1.245   1.688  13.383 -0.2982  0.0743  0.2310
  164SAPE  C31218419   1.259   1.525  13.254 -0.1440  0.0636 -0.9085
  164SAPE  H12X18420   1.294   1.503  13.151  0.3233 -2.2788 -0.3179
  164SAPE  H12Y18421   1.163   1.473  13.277  0.1107 -1.0112 -2.1294
  164SAPE  C31318422   1.381   1.462  13.335  0.2638 -0.2622  0.4046
  164SAPE  H13X18423   1.347   1.435  13.437 -3.8439 -1.5703 -1.0879
  164SAPE  H13Y18424   1.470   1.529  13.330  1.6637 -2.0351  0.7033
  164SAPE  C31418425   1.416   1.324  13.265 -0.0301  0.8306 -0.2438
  164SAPE  H14X18426   1.507   1.283  13.314 -0.1034  1.1155  0.1347
  164SAPE  H14Y18427   1.430   1.329  13.155 -2.8834 -0.8230 -0.7879
  164SAPE  C31518428   1.301   1.226  13.270  0.8683 -0.1989 -0.1662
  164SAPE  H15X18429   1.219   1.275  13.214 -0.6978 -2.9603 -0.4734
  164SAPE  H15Y18430   1.273   1.202  13.375 -0.6718 -0.3565 -0.5913
  164SAPE  C31618431   1.324   1.098  13.189  0.2054 -0.5029 -0.0977
  164SAPE  H16X18432   1.422   1.061  13.223  1.2721  2.4966  0.4064
  164SAPE  H16Y18433   1.325   1.099  13.078 -5.6142 -1.6414 -0.4900
  164SAPE  C31718434   1.225   0.986  13.227 -0.5541 -0.4054  0.2316
  164SAPE  H17X18435   1.241   0.973  13.336  0.8027 -2.0388 -0.1191
  164SAPE  H17Y18436   1.254   0.901  13.162  1.1873  0.1925  0.1717
  164SAPE  C31818437   1.089   1.034  13.187 -0.0419 -0.0195  0.2756
  164SAPE  H18X18438   1.023   0.949  13.159  1.4591 -0.9706 -0.5153
  164SAPE  H18Y18439   1.107   1.102  13.101 -0.1843  1.5196  1.4222
  164SAPE  H18Z18440   1.044   1.095  13.269  0.4903 -1.7068  1.8916
  165SAPE     N18441   2.065   2.926  15.320 -0.2227 -0.0430 -0.1984
  165SAPE   HN118442   2.128   2.970  15.390  0.6981 -0.3316 -0.8181
  165SAPE   HN218443   2.066   2.996  15.244 -1.2932 -0.6079 -0.7579
  165SAPE   HN318444   1.967   2.922  15.354  0.1076 -1.3783  0.6927
  165SAPE   C1218445   2.121   2.791  15.292  0.2740  0.9156  0.6178
  165SAPE  H12A18446   2.049   2.745  15.222  1.2800  1.8822 -1.1188
  165SAPE  H12B18447   2.121   2.734  15.387  0.8301  1.8835  1.2157
  165SAPE   C1118448   2.269   2.792  15.245 -0.1521 -0.2520  0.1322
  165SAPE  H11A18449   2.283   2.687  15.212  0.2969 -0.0237 -0.4163
  165SAPE  H11B18450   2.341   2.806  15.328  0.7587  1.7477 -0.9320
  165SAPE     P18451   2.287   2.835  14.988  0.0455 -0.3238 -0.0466
  165SAPE   O1318452   2.162   2.764  14.970 -0.2651 -0.2652 -0.0661
  165SAPE   O1418453   2.327   2.939  14.889 -0.0630 -0.1909 -0.3726
  165SAPE   O1218454   2.290   2.893  15.141  0.3158 -0.3473 -0.2853
  165SAPE   O1118455   2.390   2.721  14.993 -0.5015  0.5766  0.3567
  165SAPE    C118456   2.522   2.757  15.033 -0.1842 -0.0899  0.1262
  165SAPE    HA18457   2.558   2.809  14.941 -1.7140  1.2453  0.2373
  165SAPE    HB18458   2.533   2.827  15.119  0.7712  1.9953 -1.5822
  165SAPE    C218459   2.623   2.640  15.055  0.5984  0.1752 -0.1855
  165SAPE    HS18460   2.602   2.564  14.977  0.8768 -1.9678  1.7171
  165SAPE   O2118461   2.597   2.590  15.191  0.2051 -0.4787  0.1712
  165SAPE   C2118462   2.531   2.473  15.200 -0.1465  0.0942 -0.0625
  165SAPE   O2218463   2.505   2.405  15.106 -0.1671 -0.6229 -0.0948
  165SAPE   C2218464   2.512   2.431  15.348  0.2672 -0.5129 -0.2005
  165SAPE   H2R18465   2.608   2.457  15.399 -0.2390  2.4345 -0.5661
  165SAPE   H2S18466   2.420   2.481  15.386  1.1351 -0.4086  1.9264
  165SAPE    C318467   2.766   2.695  15.039  0.1615 -0.3141 -0.3604
  165SAPE    HX18468   2.779   2.762  15.126  0.2274  0.3698 -0.8941
  165SAPE    HY18469   2.768   2.756  14.946 -2.5966 -2.9240 -2.3406
  165SAPE   O3118470   2.865   2.590  15.034  0.2819  0.4143 -0.3919
  165SAPE   C3118471   2.879   2.532  14.919  0.1664 -0.3043  0.5294
  165SAPE   O3218472   2.802   2.549  14.825  0.7014  0.2307  0.5418
  165SAPE   C3218473   3.000   2.434  14.922 -0.7073  0.4613  0.0915
  165SAPE   H2X18474   3.091   2.487  14.887 -0.6683 -0.3969 -1.1682
  165SAPE   H2Y18475   2.977   2.355  14.848  3.2991  0.8285 -1.7845
  165SAPE   C2318476   2.482   2.273  15.357  0.0858  0.0180 -0.5915
  165SAPE   H3R18477   2.531   2.230  15.267  0.4923  0.8437 -0.7753
  165SAPE   H3S18478   2.371   2.265  15.349  0.0491 -0.4858  0.3343
  165SAPE   C2418479   2.534   2.213  15.493 -0.7657  0.3431 -0.1739
  165SAPE   H4R18480   2.467   2.242  15.576  1.5591 -0.1641  1.9906
  165SAPE   H4S18481   2.635   2.252  15.518 -0.1951 -0.6825 -0.7644
  165SAPE   C2518482   2.520   2.070  15.488  0.2610  0.7385 -0.7103
  165SAPE   H5R18483   2.485   2.029  15.393 -0.8214 -1.1756  0.4556
  165SAPE   C2618484   2.535   1.988  15.600  0.0882 -0.4068 -0.5443
  165SAPE   H6R18485   2.519   1.879  15.598 -0.0138 -0.6201  3.3230
  165SAPE   C2718486   2.564   2.038  15.742  0.5359 -0.4665 -0.7971
  165SAPE   H7R18487   2.499   2.125  15.767 -1.9600 -2.3466 -0.3477
  165SAPE   H7S18488   2.668   2.076  15.737  0.1655  0.6774 -0.1111
  165SAPE   C2818489   2.540   1.931  15.851 -0.0755  0.8529  0.5673
  165SAPE   H8R18490   2.464   1.854  15.834  0.3653 -0.0660  2.4660
  165SAPE   C2918491   2.626   1.904  15.950 -0.0215  0.0741 -0.5572
  165SAPE   H9R18492   2.603   1.821  16.018  1.1579 -0.1681 -0.4463
  165SAPE  C21018493   2.739   1.990  15.988 -0.4066 -0.3003  0.1918
  165SAPE  H10R18494   2.797   2.015  15.897  0.1949 -0.4132  0.5356
  165SAPE  H10S18495   2.813   1.937  16.052  0.6108  1.9008  0.9735
  165SAPE  C21118496   2.705   2.111  16.071 -0.2428  0.1040  0.6126
  165SAPE  H11R18497   2.708   2.206  16.015 -1.6256 -1.1338 -1.6658
  165SAPE  C21218498   2.671   2.127  16.201  0.2470 -0.9091 -0.0497
  165SAPE  H12R18499   2.643   2.229  16.233  0.1727 -0.2679 -2.0311
  165SAPE  C21318500   2.667   2.029  16.314  0.7728  0.4152  0.2939
  165SAPE  H13R18501   2.716   2.074  16.404 -2.7664  0.2442  2.5231
  165SAPE  H13S18502   2.731   1.942  16.289  2.2107  1.4770  0.1540
  165SAPE  C21418503   2.536   1.975  16.360  0.6609 -0.5292 -0.2816
  165SAPE  H14R18504   2.495   1.885  16.311  0.2046  0.0117 -0.9168
  165SAPE  C21518505   2.444   2.049  16.432 -1.5283 -0.1399 -0.1043
  165SAPE  H15R18506   2.354   1.996  16.467 -1.6372 -0.2295 -0.5050
  165SAPE  C21618507   2.460   2.188  16.488 -0.4836 -0.3382  1.4728
  165SAPE  H16R18508   2.379   2.254  16.452 -0.3537 -0.8001  0.2964
  165SAPE  H16S18509   2.549   2.237  16.442 -1.3528  0.9853  1.1604
  165SAPE  C21718510   2.471   2.199  16.640 -0.0143 -0.2195  0.1548
  165SAPE  H17R18511   2.468   2.305  16.672  1.7461 -0.2231  0.3824
  165SAPE  H17S18512   2.563   2.144  16.669 -2.0882 -3.4201  1.1816
  165SAPE  C21818513   2.345   2.137  16.718 -0.5541  0.3203 -1.2795
  165SAPE  H18R18514   2.356   2.030  16.690 -0.2475 -0.2103  0.6960
  165SAPE  H18S18515   2.248   2.182  16.687 -1.4846 -1.7405 -1.4722
  165SAPE  C21918516   2.357   2.153  16.869  0.0731  0.1086 -0.6370
  165SAPE  H19R18517   2.349   2.261  16.897 -0.6686  0.0857 -0.7422
  165SAPE  H19S18518   2.449   2.121  16.923 -0.2215 -0.0674 -0.2369
  165SAPE  C22018519   2.232   2.081  16.928 -0.2398 -0.1932  0.0991
  165SAPE  H20R18520   2.151   2.150  16.894  1.6940  1.0131 -2.3258
  165SAPE  H20S18521   2.233   2.055  17.036 -2.1215 -0.6507  0.0483
  165SAPE  H20T18522   2.222   1.990  16.865  4.1869 -0.9395  0.1977
  165SAPE   C3318523   3.015   2.363  15.066 -0.1525  0.1897 -0.1169
  165SAPE   H3X18524   2.914   2.324  15.088  1.0427 -3.0603  0.1480
  165SAPE   H3Y18525   3.034   2.429  15.153 -1.1526  2.0767 -1.2638
  165SAPE   C3418526   3.103   2.234  15.069  0.0499 -0.0183  0.7149
  165SAPE   H4X18527   3.201   2.269  15.033 -0.0115 -0.7118 -0.1677
  165SAPE   H4Y18528   3.062   2.168  14.989  0.4388  0.7510 -0.1325
  165SAPE   C3518529   3.105   2.161  15.200  0.2095  0.9209  0.0710
  165SAPE   H5X18530   3.160   2.227  15.270 -0.0589 -0.1574  1.3430
  165SAPE   H5Y18531   3.172   2.073  15.191 -2.7565 -1.6942  1.5490
  165SAPE   C3618532   2.969   2.132  15.271 -0.5122 -0.6265  0.4849
  165SAPE   H6X18533   2.916   2.054  15.213  0.4897 -1.3575  0.5363
  165SAPE   H6Y18534   2.909   2.224  15.283 -0.6166 -0.1675 -2.7109
  165SAPE   C3718535   3.004   2.066  15.411 -0.0127  0.8737  0.0112
  165SAPE   H7X18536   3.095   2.005  15.395 -1.8018 -1.7016 -1.2864
  165SAPE   H7Y18537   2.916   2.002  15.435 -0.8482  1.8851 -0.2551
  165SAPE   C3818538   3.011   2.171  15.520 -0.0590  0.2494  0.6374
  165SAPE   H8X18539   2.915   2.226  15.528  1.1154  2.2389  1.8389
  165SAPE   H8Y18540   3.093   2.243  15.498 -0.5448  0.9356  1.0346
  165SAPE   C3918541   3.047   2.117  15.658 -0.2350 -0.1142  0.4359
  165SAPE   H9X18542   3.134   2.048  15.649 -0.3244 -0.3411  1.2508
  165SAPE   H9Y18543   2.956   2.056  15.674 -0.4620 -1.1365 -3.6312
  165SAPE  C31018544   3.079   2.221  15.766 -0.4573 -0.2283 -0.0181
  165SAPE  H10X18545   3.140   2.304  15.725 -1.9871  0.3117 -1.3447
  165SAPE  H10Y18546   3.137   2.174  15.848  0.5782  0.6941 -0.2116
  165SAPE  C31118547   2.950   2.278  15.817 -0.2336  0.6732  0.0108
  165SAPE  H11X18548   2.888   2.199  15.864  1.4187 -0.2325  0.7912
  165SAPE  H11Y18549   2.909   2.324  15.725  0.6631  1.5887  0.0480
  165SAPE  C31218550   2.969   2.385  15.927 -0.8484 -0.5722  0.7344
  165SAPE  H12X18551   3.049   2.454  15.893 -1.3778  0.4517  1.4867
  165SAPE  H12Y18552   3.004   2.347  16.026 -1.0992 -0.5511  0.8315
  165SAPE  C31318553   2.852   2.485  15.926  0.1776 -0.2430  0.2146
  165SAPE  H13X18554   2.761   2.423  15.941  1.3392 -2.1237 -0.0987
  165SAPE  H13Y18555   2.843   2.517  15.820  0.8465 -1.2495 -0.1740
  165SAPE  C31418556   2.866   2.608  16.016  0.5821  0.9514  0.6324
  165SAPE  H14X18557   2.791   2.689  15.999  1.7535  1.9173 -0.0955
  165SAPE  H14Y18558   2.965   2.649  15.989  1.8553 -2.4459 -0.3246
  165SAPE  C31518559   2.873   2.571  16.168 -0.2008  0.1284 -0.2426
  165SAPE  H15X18560   2.925   2.660  16.208  1.5022  0.1286 -2.2625
  165SAPE  H15Y18561   2.952   2.494  16.182 -0.2964 -0.2187 -1.4814
  165SAPE  C31618562   2.737   2.535  16.224  1.1516  0.2730 -0.5811
  165SAPE  H16X18563   2.692   2.460  16.155 -0.6796  1.3027 -0.5572
  165SAPE  H16Y18564   2.673   2.625  16.215 -0.6429 -0.9365 -0.5008
  165SAPE  C31718565   2.728   2.484  16.372 -0.0401 -0.1216 -0.5446
  165SAPE  H17X18566   2.797   2.397  16.375 -0.5660 -0.5865 -1.6035
  165SAPE  H17Y18567   2.626   2.454  16.403 -0.8864 -0.4218 -3.2957
  165SAPE  C31818568   2.795   2.566  16.480 -0.0822  0.1218 -0.0912
  165SAPE  H18X18569   2.798   2.520  16.581  0.8842 -1.6663 -0.8988
  165SAPE  H18Y18570   2.742   2.664  16.485  0.1705  0.2807 -0.5174
  165SAPE  H18Z18571   2.900   2.588  16.452 -0.2751  0.6874 -0.3861
  166SAPE     N18572   2.268   3.290  15.157 -0.0671  0.2705 -0.2963
  166SAPE   HN118573   2.173   3.254  15.135 -1.1308  1.7144  1.6585
  166SAPE   HN218574   2.263   3.374  15.217 -2.1753 -0.1965  0.2464
  166SAPE   HN318575   2.298   3.320  15.062 -3.2000  0.4072 -1.3484
  166SAPE   C1218576   2.348   3.180  15.202 -1.4547  0.8783 -0.3197
  166SAPE  H12A18577   2.378   3.117  15.115 -2.5390  1.2358 -0.9755
  166SAPE  H12B18578   2.293   3.116  15.274  1.4073 -0.6390  0.6812
  166SAPE   C1118579   2.485   3.223  15.259  0.0852 -0.1222 -0.5669
  166SAPE  H11A18580   2.548   3.134  15.279  0.3269  0.3689  1.0795
  166SAPE  H11B18581   2.464   3.271  15.358  0.6546  1.0720 -1.0064
  166SAPE     P18582   2.687   3.282  15.113  0.1573  0.2607  0.4736
  166SAPE   O1318583   2.689   3.144  15.057  0.3938  0.2063 -0.1800
  166SAPE   O1418584   2.694   3.397  15.016  0.4995  0.5432  0.4275
  166SAPE   O1218585   2.545   3.313  15.168 -0.1782  0.4937  0.2463
  166SAPE   O1118586   2.792   3.298  15.227 -0.3223  0.4826  0.2991
  166SAPE    C118587   2.789   3.404  15.321 -0.1068  0.3136  0.1081
  166SAPE    HA18588   2.825   3.492  15.264 -1.7811  0.7944 -0.2609
  166SAPE    HB18589   2.686   3.412  15.362 -0.2036  1.7219 -0.3672
  166SAPE    C218590   2.888   3.392  15.449  0.1917 -0.3365  0.8805
  166SAPE    HS18591   2.993   3.415  15.420 -0.3480  1.2141  0.0568
  166SAPE   O2118592   2.871   3.266  15.516 -0.0391 -0.3374 -0.6899
  166SAPE   C2118593   2.935   3.170  15.457 -1.2943 -0.0421 -0.5693
  166SAPE   O2218594   3.018   3.185  15.368 -0.2163  0.0755 -0.5977
  166SAPE   C2218595   2.891   3.041  15.530  0.9256  0.1808  0.6759
  166SAPE   H2R18596   2.964   2.962  15.502  1.9254  0.4884  2.2766
  166SAPE   H2S18597   2.886   3.065  15.639 -1.8662  2.1990  0.1992
  166SAPE    C318598   2.856   3.505  15.553  0.7540 -0.2917 -0.3949
  166SAPE    HX18599   2.939   3.504  15.627 -1.0318 -1.4290  1.7249
  166SAPE    HY18600   2.767   3.473  15.612 -1.9574 -1.3176 -4.6671
  166SAPE   O3118601   2.843   3.633  15.486  0.2094  0.1577 -0.1030
  166SAPE   C3118602   2.803   3.730  15.569 -0.0025 -0.0348  0.2283
  166SAPE   O3218603   2.767   3.710  15.684 -0.2516  0.2805  0.7822
  166SAPE   C3218604   2.780   3.857  15.496 -0.2276  1.1435  0.0406
  166SAPE   H2X18605   2.676   3.845  15.461 -0.1472  1.9027 -0.4884
  166SAPE   H2Y18606   2.840   3.860  15.402 -1.2847 -0.9794 -0.7554
  166SAPE   C2318607   2.744   3.003  15.493  0.3899  0.2053 -0.3694
  166SAPE   H3R18608   2.729   3.041  15.389  0.7446 -0.3951 -0.6423
  166SAPE   H3S18609   2.669   3.056  15.556  0.7863 -0.0123  0.2960
  166SAPE   C2418610   2.725   2.854  15.512  0.5467  0.7779 -0.5501
  166SAPE   H4R18611   2.769   2.812  15.606  1.3591 -0.2127 -1.3459
  166SAPE   H4S18612   2.781   2.790  15.441 -0.1580 -0.0909 -0.3440
  166SAPE   C2518613   2.577   2.827  15.505  0.4490  0.3136  0.5094
  166SAPE   H5R18614   2.522   2.894  15.437 -1.4761 -2.8643 -1.3396
  166SAPE   C2618615   2.508   2.737  15.569  0.1696 -0.7804 -0.0544
  166SAPE   H6R18616   2.401   2.737  15.542 -0.3568  1.1089  1.8127
  166SAPE   C2718617   2.544   2.628  15.661 -0.2674  1.0041  0.5739
  166SAPE   H7R18618   2.642   2.581  15.635 -1.3252 -0.3102 -1.2492
  166SAPE   H7S18619   2.467   2.551  15.642 -0.0495  1.3084 -1.8438
  166SAPE   C2818620   2.560   2.671  15.807  0.5229  0.6495  0.3396
  166SAPE   H8R18621   2.651   2.727  15.835 -1.0338  2.4123  2.2099
  166SAPE   C2918622   2.487   2.625  15.906  0.8267 -0.3131 -0.1856
  166SAPE   H9R18623   2.517   2.650  16.008  0.2572 -0.3646 -0.0022
  166SAPE  C21018624   2.374   2.520  15.903  0.2955 -0.0344  0.0202
  166SAPE  H10R18625   2.350   2.486  15.800 -2.1757  2.2450 -0.2757
  166SAPE  H10S18626   2.284   2.576  15.933 -1.4741 -1.7548 -1.7685
  166SAPE  C21118627   2.396   2.393  15.988 -0.2606  0.3806  0.0818
  166SAPE  H11R18628   2.452   2.318  15.930  0.5699  1.1550 -0.1299
  166SAPE  C21218629   2.354   2.359  16.113 -0.1473 -0.5609  0.2336
  166SAPE  H12R18630   2.382   2.261  16.154  1.6631  0.7289  2.3575
  166SAPE  C21318631   2.289   2.456  16.203  1.1404 -0.5083 -0.1345
  166SAPE  H13R18632   2.291   2.560  16.163 -2.7577  0.4925  1.7511
  166SAPE  H13S18633   2.338   2.467  16.302  0.4693  1.1794  0.0512
  166SAPE  C21418634   2.143   2.417  16.216  0.3003 -0.4083  0.4225
  166SAPE  H14R18635   2.125   2.325  16.158 -0.5533 -0.0266  0.0772
  166SAPE  C21518636   2.045   2.476  16.273  0.3184  0.6741  0.2338
  166SAPE  H15R18637   1.946   2.428  16.274 -0.1007  1.4815  1.9514
  166SAPE  C21618638   2.061   2.607  16.341 -0.2334  0.2230 -1.2409
  166SAPE  H16R18639   2.002   2.683  16.285 -1.2621  0.8073  0.5458
  166SAPE  H16S18640   2.163   2.650  16.344 -1.4543  3.5328 -2.6770
  166SAPE  C21718641   2.010   2.602  16.487  0.1196  0.1843  0.0030
  166SAPE  H17R18642   1.905   2.564  16.482  0.4468 -0.6166 -1.5009
  166SAPE  H17S18643   2.008   2.703  16.532  2.4183  0.8538 -1.2987
  166SAPE  C21818644   2.074   2.496  16.577  0.0545 -0.1565  0.3474
  166SAPE  H18R18645   2.184   2.500  16.564  0.2285  1.6043  1.9772
  166SAPE  H18S18646   2.043   2.390  16.568 -0.3290 -0.2081  1.9341
  166SAPE  C21918647   2.039   2.527  16.727  0.0932 -0.0710 -0.6939
  166SAPE  H19R18648   2.077   2.630  16.739 -1.8616  0.6555 -0.4114
  166SAPE  H19S18649   2.099   2.469  16.800 -0.4452  0.6965  0.3847
  166SAPE  C22018650   1.891   2.523  16.763 -0.3162  0.6782 -0.5514
  166SAPE  H20R18651   1.824   2.597  16.714 -0.6259  0.1560 -0.9171
  166SAPE  H20S18652   1.876   2.534  16.873 -0.1392 -0.1206 -0.4416
  166SAPE  H20T18653   1.852   2.421  16.746  0.3544  0.5263 -1.2393
  166SAPE   C3318654   2.790   3.986  15.576 -0.1596 -0.7751 -0.3423
  166SAPE   H3X18655   2.790   3.965  15.685 -0.4745 -0.1133 -0.2128
  166SAPE   H3Y18656   2.708   4.057  15.552 -1.0698 -0.7997  2.4135
  166SAPE   C3418657   2.925   4.052  15.542 -0.1579 -0.0704 -0.7845
  166SAPE   H4X18658   2.925   4.060  15.431  3.7121  0.8570 -0.8838
  166SAPE   H4Y18659   3.011   3.988  15.571 -0.0990  0.0017 -0.7961
  166SAPE   C3518660   2.965   4.190  15.608  0.0033 -0.1290 -0.1599
  166SAPE   H5X18661   2.965   4.182  15.719 -1.7281 -0.2474 -0.1391
  166SAPE   H5Y18662   2.891   4.267  15.577 -2.3927 -1.6234  1.4529
  166SAPE   C3618663   3.112   4.231  15.577 -0.0088 -0.3049 -0.3130
  166SAPE   H6X18664   3.198   4.173  15.618 -0.0252  0.6416  1.1577
  166SAPE   H6Y18665   3.143   4.331  15.615  0.6359 -1.0093  1.1139
  166SAPE   C3718666   3.139   4.243  15.428  0.6214 -0.0643  0.0659
  166SAPE   H7X18667   3.086   4.337  15.401  0.1393 -0.4087 -0.2121
  166SAPE   H7Y18668   3.101   4.154  15.373  0.3268  0.2084 -0.1759
  166SAPE   C3818669   3.288   4.266  15.388  0.0710 -0.0470  0.8292
  166SAPE   H8X18670   3.347   4.178  15.420  0.0378 -0.5135 -0.3425
  166SAPE   H8Y18671   3.327   4.358  15.437  1.9513  1.4137 -2.9515
  166SAPE   C3918672   3.291   4.273  15.236  0.4415 -0.1235  0.6933
  166SAPE   H9X18673   3.201   4.335  15.220 -0.7893 -2.3233 -1.5621
  166SAPE   H9Y18674   3.269   4.177  15.184  1.3541 -0.0555  0.1401
  166SAPE  C31018675   3.423   4.320  15.172 -0.0064  0.1107  0.5464
  166SAPE  H10X18676   3.451   4.412  15.228 -0.0527  0.4443  0.0308
  166SAPE  H10Y18677   3.431   4.340  15.063 -0.7234 -3.5674 -0.3284
  166SAPE  C31118678   3.532   4.216  15.196 -0.6953 -0.0696 -0.0060
  166SAPE  H11X18679   3.495   4.130  15.137 -0.6833 -0.6969  0.8874
  166SAPE  H11Y18680   3.541   4.176  15.300  1.2705 -0.8003 -0.4092
  166SAPE  C31218681   3.672   4.259  15.156 -0.2096 -0.1989  0.0239
  166SAPE  H12X18682   3.711   4.325  15.237  1.8622 -0.5279 -0.6505
  166SAPE  H12Y18683   3.666   4.330  15.071  3.0803 -0.9359 -0.9506
  166SAPE  C31318684   3.766   4.145  15.122 -0.9785  0.2940 -0.7559
  166SAPE  H13X18685   3.723   4.099  15.031 -0.8395  3.4619 -2.5754
  166SAPE  H13Y18686   3.750   4.068  15.201 -0.7077 -1.1625 -2.0857
  166SAPE  C31418687   3.919   4.174  15.092  0.6078 -0.7671 -0.8531
  166SAPE  H14X18688   3.919   4.240  15.003  0.5078 -0.1384 -0.3946
  166SAPE  H14Y18689   3.968   4.075  15.079 -0.5764 -1.6763  1.0577
  166SAPE  C31518690   4.003   4.235  15.208  0.1804 -0.2097 -0.3648
  166SAPE  H15X18691   3.956   4.334  15.225 -0.4486 -0.6034  0.2038
  166SAPE  H15Y18692   4.111   4.249  15.185  0.0000 -0.5965 -1.5628
  166SAPE  C31618693   3.999   4.158  15.339 -0.1945 -0.2037  0.0394
  166SAPE  H16X18694   3.893   4.128  15.353 -0.5686  1.5205  1.1912
  166SAPE  H16Y18695   4.026   4.225  15.424 -0.5654 -1.3347  1.0981
  166SAPE  C31718696   4.100   4.038  15.329  0.4411  0.2050 -0.4953
  166SAPE  H17X18697   4.197   4.075  15.291  0.9518 -2.9366 -2.5617
  166SAPE  H17Y18698   4.066   3.968  15.251  0.9612  1.5065 -1.9438
  166SAPE  C31818699   4.119   3.964  15.469  0.2063 -0.7278  0.6598
  166SAPE  H18X18700   4.130   4.045  15.544  0.7749  1.4598 -1.6546
  166SAPE  H18Y18701   4.215   3.909  15.470  1.6821  1.7397  1.6329
  166SAPE  H18Z18702   4.033   3.899  15.496  0.9173 -3.1998 -2.4630
  167SAPE     N18703   1.220   2.848  10.592  0.4102 -0.1357  0.2798
  167SAPE   HN118704   1.233   2.792  10.679 -0.9034 -0.6764  0.1539
  167SAPE   HN218705   1.312   2.884  10.562  0.7758 -1.0887  0.2242
  167SAPE   HN318706   1.169   2.934  10.621 -0.2425 -0.2462 -0.4876
  167SAPE   C1218707   1.141   2.785  10.479 -0.1804  0.2561 -0.1913
  167SAPE  H12A18708   1.053   2.730  10.520 -0.4107 -1.4094 -2.7436
  167SAPE  H12B18709   1.199   2.703  10.432 -0.6304  0.5789 -1.3496
  167SAPE   C1118710   1.103   2.888  10.377 -0.0559  0.0715  0.3912
  167SAPE  H11A18711   1.046   2.837  10.297  2.7307  0.1354 -1.7864
  167SAPE  H11B18712   1.191   2.940  10.333  0.0523 -0.4704 -0.0456
  167SAPE     P18713   1.037   3.123  10.467 -0.2367 -0.1914 -0.2447
  167SAPE   O1318714   0.915   3.195  10.518 -0.6549  0.2822  0.1100
  167SAPE   O1418715   1.161   3.120  10.552  0.7837  0.0661 -0.2659
  167SAPE   O1218716   1.004   2.974  10.431 -0.0942  0.5547  0.7952
  167SAPE   O1118717   1.074   3.181  10.330  0.6576 -0.1774  0.2802
  167SAPE    C118718   0.998   3.141  10.210  0.1669  0.3352  0.3066
  167SAPE    HA18719   1.075   3.115  10.135  2.1368  1.2162  1.9033
  167SAPE    HB18720   0.940   3.046  10.213  1.4913 -0.6737 -2.5480
  167SAPE    C218721   0.909   3.259  10.160  0.3734  0.0290 -0.4370
  167SAPE    HS18722   0.873   3.251  10.055 -0.5535  0.0669 -0.1246
  167SAPE   O2118723   0.976   3.387  10.188  0.0713  0.5891  0.5253
  167SAPE   C2118724   1.055   3.410  10.083 -0.4729 -0.0826  0.3087
  167SAPE   O2218725   1.080   3.338   9.985  0.1850 -0.5947 -0.7451
  167SAPE   C2218726   1.074   3.564  10.095  0.5598 -0.0883  0.3378
  167SAPE   H2R18727   0.977   3.605  10.129  0.7745 -0.4727  1.4415
  167SAPE   H2S18728   1.160   3.581  10.163  0.6011 -0.8840  0.4966
  167SAPE    C318729   0.770   3.261  10.231  0.3539 -0.3731  0.2130
  167SAPE    HX18730   0.778   3.335  10.313 -1.4148 -0.6141  0.6226
  167SAPE    HY18731   0.756   3.162  10.278 -1.9024 -0.2680 -0.1298
  167SAPE   O3118732   0.660   3.303  10.146  0.4838  0.0838 -0.4519
  167SAPE   C3118733   0.645   3.435  10.142  0.0910 -0.4940  0.0456
  167SAPE   O3218734   0.713   3.525  10.192  0.0459  0.2930 -0.3671
  167SAPE   C3218735   0.513   3.472  10.075 -0.1339  0.1200 -0.3624
  167SAPE   H2X18736   0.428   3.472  10.145 -0.1598 -0.7025 -0.3802
  167SAPE   H2Y18737   0.488   3.385  10.010 -1.4332 -0.1842  0.5148
  167SAPE   C2318738   1.115   3.634   9.964  0.0482 -0.0375 -0.1649
  167SAPE   H3R18739   1.039   3.613   9.886 -1.3061 -0.5664  1.2504
  167SAPE   H3S18740   1.208   3.584   9.928  0.1877  0.5098 -0.5780
  167SAPE   C2418741   1.146   3.787   9.976  0.2120 -1.2782  0.0687
  167SAPE   H4R18742   1.221   3.812  10.054 -0.4532  1.4272 -0.0790
  167SAPE   H4S18743   1.050   3.839   9.996  0.6293 -0.8621  1.0465
  167SAPE   C2518744   1.195   3.838   9.842  0.2248  0.4898 -0.1143
  167SAPE   H5R18745   1.272   3.773   9.796 -0.0998 -0.6396  0.8807
  167SAPE   C2618746   1.150   3.952   9.776  0.3844 -0.2494  0.4872
  167SAPE   H6R18747   1.207   3.969   9.684 -0.0970  0.2647  0.2743
  167SAPE   C2718748   1.053   4.063   9.822  0.1017 -0.2298  0.2269
  167SAPE   H7R18749   1.077   4.099   9.924 -1.9603  0.6460  0.4396
  167SAPE   H7S18750   0.952   4.018   9.816  0.3207 -0.5506 -1.8852
  167SAPE   C2818751   1.063   4.193   9.746  0.3153  0.6484 -0.7163
  167SAPE   H8R18752   0.967   4.230   9.708 -0.5218 -3.0981 -2.7740
  167SAPE   C2918753   1.178   4.265   9.722 -0.1102 -0.1012  0.2623
  167SAPE   H9R18754   1.174   4.354   9.657  2.3097 -0.8151 -0.9848
  167SAPE  C21018755   1.321   4.233   9.765  0.5023  0.1919  0.3821
  167SAPE  H10R18756   1.400   4.220   9.688  1.5099  0.1582  1.4006
  167SAPE  H10S18757   1.332   4.131   9.809  4.1483  0.0949 -0.4298
  167SAPE  C21118758   1.364   4.330   9.869 -0.4537 -0.5425 -0.1293
  167SAPE  H11R18759   1.299   4.405   9.918  0.9194 -0.2611  1.3281
  167SAPE  C21218760   1.496   4.342   9.901 -0.6868 -0.1201 -0.1808
  167SAPE  H12R18761   1.525   4.400   9.990 -0.0202  1.2277 -1.2348
  167SAPE  C21318762   1.606   4.252   9.853  0.7624 -0.0214  0.0615
  167SAPE  H13R18763   1.601   4.246   9.742 -0.1671  2.7730 -0.1366
  167SAPE  H13S18764   1.590   4.150   9.895 -0.4944 -0.6698 -1.8764
  167SAPE  C21418765   1.741   4.314   9.898  0.4498 -0.0330 -0.2284
  167SAPE  H14R18766   1.754   4.354  10.000  1.7186 -0.2213 -0.3018
  167SAPE  C21518767   1.851   4.323   9.816 -0.5895 -0.4679 -0.5573
  167SAPE  H15R18768   1.944   4.360   9.863 -0.3218 -1.4388 -0.2958
  167SAPE  C21618769   1.868   4.287   9.671  0.2597  0.8699 -0.5974
  167SAPE  H16R18770   1.830   4.375   9.615 -1.9846  0.6297  0.4460
  167SAPE  H16S18771   1.803   4.201   9.643 -0.0145  1.1891 -0.9598
  167SAPE  C21718772   2.016   4.264   9.631  0.2662 -0.1966 -0.2780
  167SAPE  H17R18773   2.008   4.219   9.530  0.8986 -0.4516 -0.2163
  167SAPE  H17S18774   2.070   4.189   9.693  0.6830  0.1081 -0.2698
  167SAPE  C21818775   2.102   4.389   9.619 -0.1988  0.1482 -0.0010
  167SAPE  H18R18776   2.124   4.434   9.718  2.2924 -0.2508 -0.3000
  167SAPE  H18S18777   2.041   4.458   9.556 -1.7915 -0.3570  0.9588
  167SAPE  C21918778   2.237   4.371   9.540 -0.1860 -0.7632 -0.1744
  167SAPE  H19R18779   2.225   4.300   9.455 -2.2468  0.6349 -1.1260
  167SAPE  H19S18780   2.313   4.327   9.608 -2.6097 -1.6636  2.0907
  167SAPE  C22018781   2.287   4.505   9.474  0.2043  0.8588 -0.1820
  167SAPE  H20R18782   2.221   4.519   9.386 -3.0939 -2.9532  1.3966
  167SAPE  H20S18783   2.396   4.507   9.453  0.2587 -0.5460 -0.1109
  167SAPE  H20T18784   2.256   4.589   9.540 -1.3536  0.1000  0.0968
  167SAPE   C3318785   0.527   3.601   9.980  0.0642  1.0302  0.0003
  167SAPE   H3X18786   0.621   3.585   9.925  0.0450 -0.0087  0.2353
  167SAPE   H3Y18787   0.533   3.691  10.045 -0.9886  0.3867  1.0545
  167SAPE   C3418788   0.420   3.608   9.876  0.0160  0.2664  0.6826
  167SAPE   H4X18789   0.434   3.520   9.809 -1.2119  0.4063  0.2174
  167SAPE   H4Y18790   0.431   3.701   9.816  0.6296 -0.2332 -0.0022
  167SAPE   C3518791   0.279   3.591   9.936 -0.3047 -0.1692  0.6887
  167SAPE   H5X18792   0.261   3.672  10.010  1.1698 -0.5964  1.5509
  167SAPE   H5Y18793   0.276   3.499   9.998 -0.2644 -0.1946  0.6531
  167SAPE   C3618794   0.168   3.593   9.828 -1.0580  0.2953  0.4578
  167SAPE   H6X18795   0.176   3.507   9.758 -1.2538  0.7937 -0.1875
  167SAPE   H6Y18796   0.190   3.677   9.759  3.0874 -0.9437 -0.0246
  167SAPE   C3718797   0.025   3.612   9.872  0.3609  0.4233 -0.3534
  167SAPE   H7X18798  -0.004   3.541   9.953 -0.9713  0.4626 -0.7786
  167SAPE   H7Y18799  -0.043   3.578   9.792  0.4300 -1.4871  0.3534
  167SAPE   C3818800  -0.031   3.748   9.906 -0.6163 -0.3744 -0.5788
  167SAPE   H8X18801   0.003   3.787  10.004 -0.1457 -0.7483 -0.5879
  167SAPE   H8Y18802  -0.141   3.737   9.912 -0.8618  0.8515 -2.2147
  167SAPE   C3918803  -0.000   3.857   9.798 -0.0341  0.2167 -0.2123
  167SAPE   H9X18804  -0.020   3.804   9.702  1.5809  1.0304 -1.0360
  167SAPE   H9Y18805   0.110   3.872   9.793  0.0665 -0.5803 -0.5309
  167SAPE  C31018806  -0.074   3.986   9.820  0.1788  0.9073 -0.0935
  167SAPE  H10X18807  -0.068   4.008   9.928 -0.4330 -0.0231  0.1438
  167SAPE  H10Y18808  -0.178   3.961   9.789  0.3109 -0.9119  0.8096
  167SAPE  C31118809  -0.039   4.115   9.746  0.1168  0.1287 -0.6200
  167SAPE  H11X18810  -0.057   4.108   9.637  1.0607  2.0520 -0.9418
  167SAPE  H11Y18811   0.070   4.129   9.762  0.2589 -0.1990 -1.2539
  167SAPE  C31218812  -0.117   4.244   9.793 -0.2531  1.0272  0.2542
  167SAPE  H12X18813  -0.138   4.235   9.902 -0.9107  1.3725  0.1596
  167SAPE  H12Y18814  -0.220   4.239   9.750 -0.3318 -1.6243  0.5597
  167SAPE  C31318815  -0.049   4.371   9.764 -0.0455  0.1215  0.2887
  167SAPE  H13X18816   0.043   4.377   9.826  0.3146 -1.5250 -0.0279
  167SAPE  H13Y18817  -0.119   4.441   9.813 -0.8686 -0.4702 -0.0069
  167SAPE  C31418818  -0.027   4.401   9.619 -0.1848 -0.0085 -0.2261
  167SAPE  H14X18819  -0.117   4.401   9.554 -0.9943 -2.1336  0.8042
  167SAPE  H14Y18820   0.032   4.317   9.574  2.3311  1.1457  0.7266
  167SAPE  C31518821   0.057   4.528   9.602  0.1672  1.0456 -0.3283
  167SAPE  H15X18822   0.137   4.528   9.678 -0.3338  0.5371  0.2000
  167SAPE  H15Y18823  -0.005   4.620   9.615 -1.4660 -0.2516  1.7488
  167SAPE  C31618824   0.111   4.532   9.456 -0.5181 -1.1249 -0.2675
  167SAPE  H16X18825   0.033   4.569   9.386 -2.2333  0.1498  2.1744
  167SAPE  H16Y18826   0.147   4.436   9.416  0.2180 -0.3755 -1.4543
  167SAPE  C31718827   0.232   4.629   9.437  1.1106 -0.0862 -0.2509
  167SAPE  H17X18828   0.241   4.643   9.327 -1.1507  1.4966 -0.2941
  167SAPE  H17Y18829   0.318   4.573   9.481 -0.3693 -0.8015  1.9110
  167SAPE  C31818830   0.208   4.762   9.496  0.2556 -0.6563 -0.3211
  167SAPE  H18X18831   0.211   4.771   9.606  0.5973 -0.8573 -0.3111
  167SAPE  H18Y18832   0.110   4.797   9.457  2.1200  3.0352 -2.3279
  167SAPE  H18Z18833   0.284   4.835   9.458 -0.2373 -0.0256 -0.1010
  168SAPE     N18834   0.659   0.109  12.724  0.2427 -0.1714 -0.2508
  168SAPE   HN118835   0.733   0.140  12.657  0.4833  1.9509  0.8677
  168SAPE   HN218836   0.659   0.182  12.799  1.7776  0.5590 -0.9073
  168SAPE   HN318837   0.678   0.019  12.772  0.1518  0.5827  1.2834
  168SAPE   C1218838   0.519   0.097  12.661  0.1156 -0.7128 -0.6285
  168SAPE  H12A18839   0.488   0.197  12.626 -1.9865 -0.2414  2.2517
  168SAPE  H12B18840   0.450   0.064  12.741  1.6121  1.1958  1.5568
  168SAPE   C1118841   0.511  -0.000  12.547 -0.1122  0.2594  1.2568
  168SAPE  H11A18842   0.578   0.045  12.471 -0.5937  1.0964  1.3188
  168SAPE  H11B18843   0.409  -0.001  12.504  0.4902  3.9228 -0.6494
  168SAPE     P18844   0.489  -0.267  12.538  0.5640 -0.1269  0.2879
  168SAPE   O1318845   0.499  -0.282  12.390 -0.5176  0.7244 -0.1982
  168SAPE   O1418846   0.545  -0.375  12.623  0.1224  0.0353  0.2181
  168SAPE   O1218847   0.551  -0.132  12.581 -1.0970 -0.3407  0.1423
  168SAPE   O1118848   0.345  -0.239  12.580  0.6771 -0.7348  0.1994
  168SAPE    C118849   0.226  -0.319  12.543 -0.6004 -0.0173 -0.3083
  168SAPE    HA18850   0.254  -0.426  12.537 -0.9813 -0.1898  0.7412
  168SAPE    HB18851   0.155  -0.319  12.629 -0.0915 -0.3707  0.1269
  168SAPE    C218852   0.156  -0.258  12.425  0.4269 -0.9973  1.0643
  168SAPE    HS18853   0.235  -0.227  12.353  1.3508 -0.5484  2.2387
  168SAPE   O2118854   0.078  -0.146  12.470  0.2551  0.1455  0.1013
  168SAPE   C2118855   0.042  -0.056  12.380  0.0105 -0.4910 -0.0548
  168SAPE   O2218856   0.079  -0.054  12.262 -0.5709 -0.6634  0.3521
  168SAPE   C2218857  -0.052   0.038  12.454 -0.2039 -0.3359 -0.9345
  168SAPE   H2R18858  -0.124  -0.026  12.510  0.6370 -1.8065 -1.4794
  168SAPE   H2S18859   0.022   0.080  12.525  1.3094 -2.9320 -0.8449
  168SAPE    C318860   0.064  -0.362  12.353 -0.4625  0.0563  0.1755
  168SAPE    HX18861   0.134  -0.440  12.317 -0.7455  0.0488 -0.3589
  168SAPE    HY18862   0.021  -0.330  12.256 -3.1949 -1.1988  0.8699
  168SAPE   O3118863  -0.025  -0.434  12.435  0.8739 -0.1639  0.3424
  168SAPE   C3118864  -0.153  -0.400  12.418 -0.2102  0.1270 -0.0683
  168SAPE   O3218865  -0.197  -0.305  12.358 -0.1890 -0.1296  0.4099
  168SAPE   C3218866  -0.237  -0.504  12.491 -0.0617  0.4102  0.3437
  168SAPE   H2X18867  -0.238  -0.596  12.428  1.0996  1.5406 -1.4142
  168SAPE   H2Y18868  -0.339  -0.460  12.480 -0.0874  0.1708 -0.4657
  168SAPE   C2318869  -0.114   0.156  12.369  0.0203 -0.6458  0.2674
  168SAPE   H3R18870  -0.207   0.120  12.320 -1.4433 -0.1156  2.5160
  168SAPE   H3S18871  -0.039   0.186  12.292 -2.1043  3.2261 -0.5614
  168SAPE   C2418872  -0.153   0.267  12.468  0.3533  0.6005 -1.4974
  168SAPE   H4R18873  -0.178   0.354  12.404  4.0041  2.3900 -0.7837
  168SAPE   H4S18874  -0.073   0.295  12.541  0.7911 -1.2702 -1.2083
  168SAPE   C2518875  -0.274   0.224  12.546 -0.1673  0.2026 -0.2630
  168SAPE   H5R18876  -0.253   0.135  12.607 -0.4551 -0.4558 -1.0937
  168SAPE   C2618877  -0.399   0.261  12.533  0.2057 -0.1338  0.1495
  168SAPE   H6R18878  -0.476   0.205  12.589 -1.7869  0.7909 -1.5252
  168SAPE   C2718879  -0.455   0.372  12.441 -0.2133  1.2740 -1.0152
  168SAPE   H7R18880  -0.478   0.326  12.342  1.8510 -1.8525 -0.2202
  168SAPE   H7S18881  -0.372   0.445  12.432  0.7599  0.1101 -1.8607
  168SAPE   C2818882  -0.581   0.437  12.493 -0.2817 -0.3487 -0.2939
  168SAPE   H8R18883  -0.573   0.494  12.587 -0.1578  0.7079 -0.9336
  168SAPE   C2918884  -0.703   0.447  12.432 -0.0914  0.3286 -0.1811
  168SAPE   H9R18885  -0.784   0.479  12.500  0.0982 -0.7939  0.6091
  168SAPE  C21018886  -0.746   0.380  12.303  0.2505 -0.0175  0.4214
  168SAPE  H10R18887  -0.666   0.403  12.229  0.5459 -0.4245  0.6118
  168SAPE  H10S18888  -0.836   0.432  12.262 -1.5093 -2.8178  0.5101
  168SAPE  C21118889  -0.754   0.234  12.328 -0.7194  0.2341  0.2187
  168SAPE  H11R18890  -0.813   0.201  12.415 -1.5732 -1.7894 -1.0456
  168SAPE  C21218891  -0.693   0.136  12.253  0.8164  0.0715 -0.1548
  168SAPE  H12R18892  -0.686   0.033  12.291 -0.2852  0.1372  0.2518
  168SAPE  C21318893  -0.612   0.165  12.129  0.2041  0.4961  0.0981
  168SAPE  H13R18894  -0.625   0.259  12.071 -2.0809  0.5592  0.6433
  168SAPE  H13S18895  -0.647   0.087  12.058  0.4898  0.8643 -0.4486
  168SAPE  C21418896  -0.465   0.134  12.154 -0.2847 -0.0668 -0.1147
  168SAPE  H14R18897  -0.446   0.056  12.230 -2.3205  1.0498  1.6653
  168SAPE  C21518898  -0.366   0.198  12.091 -0.2247  0.0646 -0.3607
  168SAPE  H15R18899  -0.261   0.179  12.117 -0.1791  0.3953 -0.2955
  168SAPE  C21618900  -0.380   0.313  11.991  0.0764 -0.6212  0.5444
  168SAPE  H16R18901  -0.481   0.318  11.945  1.1121  1.7872 -1.7414
  168SAPE  H16S18902  -0.317   0.284  11.904  0.2158  0.8922  0.1231
  168SAPE  C21718903  -0.358   0.452  12.041 -0.3124  0.1419  0.3843
  168SAPE  H17R18904  -0.429   0.470  12.124  0.1437 -0.5727  0.9305
  168SAPE  H17S18905  -0.369   0.526  11.958 -1.8253  0.1005  0.5194
  168SAPE  C21818906  -0.216   0.484  12.109  0.1280 -0.1196 -0.3630
  168SAPE  H18R18907  -0.133   0.471  12.036 -1.9267  1.7589 -3.2201
  168SAPE  H18S18908  -0.198   0.411  12.191  1.0798  1.1369  0.5854
  168SAPE  C21918909  -0.208   0.628  12.167 -0.3885 -0.0070  0.4428
  168SAPE  H19R18910  -0.302   0.646  12.225 -1.5528  2.8171 -2.0674
  168SAPE  H19S18911  -0.209   0.701  12.084  1.6753  0.3919  0.7053
  168SAPE  C22018912  -0.080   0.642  12.255  0.5099  0.0059  0.9080
  168SAPE  H20R18913   0.009   0.656  12.190  0.4114  1.4395  1.0554
  168SAPE  H20S18914  -0.068   0.550  12.316  2.3148 -0.9340 -0.7418
  168SAPE  H20T18915  -0.082   0.733  12.318 -0.2805  1.0570 -0.5743
  168SAPE   C3318916  -0.199  -0.505  12.643  0.4373 -0.1323  0.0716
  168SAPE   H3X18917  -0.291  -0.535  12.698 -0.6659 -0.0152 -1.6393
  168SAPE   H3Y18918  -0.146  -0.416  12.682  1.7914 -1.1087  0.5193
  168SAPE   C3418919  -0.108  -0.624  12.672  0.4626 -0.4583 -0.0073
  168SAPE   H4X18920  -0.010  -0.588  12.634 -0.0434 -1.4812 -2.5277
  168SAPE   H4Y18921  -0.138  -0.717  12.619  0.7205 -0.3120 -0.4211
  168SAPE   C3518922  -0.092  -0.667  12.818 -0.1416  0.1946 -0.0611
  168SAPE   H5X18923  -0.031  -0.590  12.870  1.0648  0.2743 -1.5482
  168SAPE   H5Y18924  -0.034  -0.762  12.812 -2.0960 -0.9558 -2.0114
  168SAPE   C3618925  -0.228  -0.688  12.884  0.3159 -0.6284  0.8632
  168SAPE   H6X18926  -0.228  -0.766  12.964  3.2755  0.1115  1.6911
  168SAPE   H6Y18927  -0.308  -0.723  12.815 -0.7791  4.4262 -0.8906
  168SAPE   C3718928  -0.286  -0.571  12.962  0.2008  0.5368  0.0224
  168SAPE   H7X18929  -0.292  -0.484  12.894  2.2056 -1.2375 -2.6180
  168SAPE   H7Y18930  -0.217  -0.545  13.046 -0.4031  0.6614  0.4915
  168SAPE   C3818931  -0.424  -0.610  13.013 -0.5976  0.2923  0.0396
  168SAPE   H8X18932  -0.493  -0.659  12.940 -0.2785  1.7134 -1.2716
  168SAPE   H8Y18933  -0.472  -0.513  13.036  0.9414  0.8933  0.8724
  168SAPE   C3918934  -0.422  -0.692  13.150  0.3977  0.3574  0.5968
  168SAPE   H9X18935  -0.503  -0.644  13.209  0.7077  0.1556  1.1960
  168SAPE   H9Y18936  -0.322  -0.663  13.191  1.1327 -0.2492 -0.6955
  168SAPE  C31018937  -0.442  -0.842  13.137 -1.2110 -0.0261  0.1931
  168SAPE  H10X18938  -0.387  -0.883  13.050 -1.5773 -1.7796  0.7523
  168SAPE  H10Y18939  -0.550  -0.868  13.132 -0.9699 -0.7773 -2.1975
  168SAPE  C31118940  -0.377  -0.911  13.257  0.0776  0.2421 -0.2656
  168SAPE  H11X18941  -0.408  -0.859  13.350 -1.3028  0.5917 -0.8913
  168SAPE  H11Y18942  -0.266  -0.907  13.261  0.4830 -4.7094  0.2203
  168SAPE  C31218943  -0.395  -1.064  13.266  0.7535 -0.2850  1.0019
  168SAPE  H12X18944  -0.344  -1.111  13.179 -1.6134 -0.6197 -0.2899
  168SAPE  H12Y18945  -0.503  -1.069  13.242  1.2398 -0.2534 -1.4515
  168SAPE  C31318946  -0.357  -1.133  13.394  0.1814 -0.2622 -0.5296
  168SAPE  H13X18947  -0.258  -1.103  13.434  0.8817 -1.8662 -0.9781
  168SAPE  H13Y18948  -0.359  -1.244  13.388  0.4241 -0.2044 -2.3466
  168SAPE  C31418949  -0.448  -1.093  13.510 -0.3569 -0.9462  0.9766
  168SAPE  H14X18950  -0.556  -1.118  13.502 -1.1058  2.0576  0.6075
  168SAPE  H14Y18951  -0.440  -0.983  13.524 -2.4831 -0.1296 -2.8604
  168SAPE  C31518952  -0.393  -1.158  13.634  0.0409  0.6325  0.7290
  168SAPE  H15X18953  -0.305  -1.098  13.665  0.9831  0.0961 -0.7855
  168SAPE  H15Y18954  -0.349  -1.259  13.626  0.9495  0.9562  1.5516
  168SAPE  C31618955  -0.484  -1.195  13.751  0.0063  0.7924  0.4167
  168SAPE  H16X18956  -0.547  -1.107  13.773  0.4884  0.8147  1.8391
  168SAPE  H16Y18957  -0.429  -1.221  13.844 -3.2708 -4.5032  1.3203
  168SAPE  C31718958  -0.567  -1.321  13.727  0.5560  0.2273 -0.2312
  168SAPE  H17X18959  -0.517  -1.396  13.662 -3.3524 -1.0670 -2.0313
  168SAPE  H17Y18960  -0.667  -1.306  13.680  1.1906 -0.4200 -1.8682
  168SAPE  C31818961  -0.585  -1.406  13.858 -0.9754  0.1723 -0.5470
  168SAPE  H18X18962  -0.652  -1.359  13.934 -2.1452 -0.2883 -1.2721
  168SAPE  H18Y18963  -0.486  -1.423  13.906 -2.1308  0.2692  2.0592
  168SAPE  H18Z18964  -0.636  -1.502  13.836 -1.2126 -0.6878  3.0967
  169SAPE     N18965   1.500   3.327   7.177  0.0191 -0.0575 -0.5206
  169SAPE   HN118966   1.597   3.362   7.189 -0.3007  1.2074 -1.3366
  169SAPE   HN218967   1.495   3.262   7.096 -2.7672 -0.1190 -0.3933
  169SAPE   HN318968   1.445   3.407   7.139  3.1188  1.5143 -2.0562
  169SAPE   C1218969   1.451   3.253   7.292  0.5707 -0.2889 -0.4407
  169SAPE  H12A18970   1.527   3.191   7.344  0.8536 -0.5228 -1.1305
  169SAPE  H12B18971   1.363   3.190   7.266 -1.4004  2.0543  0.1877
  169SAPE   C1118972   1.407   3.353   7.405  0.4539 -0.5102  0.4621
  169SAPE  H11A18973   1.495   3.415   7.435  1.0766 -1.7787  1.3714
  169SAPE  H11B18974   1.363   3.299   7.491  2.3114 -4.1560 -0.6816
  169SAPE     P18975   1.160   3.432   7.327 -0.0821 -0.2537  0.0267
  169SAPE   O1318976   1.102   3.566   7.300  0.6068  0.6384  0.8279
  169SAPE   O1418977   1.135   3.325   7.232  0.6354 -0.6146  0.3053
  169SAPE   O1218978   1.314   3.452   7.355  0.1518  0.1070  0.8361
  169SAPE   O1118979   1.111   3.381   7.464 -0.1528  0.1739  0.1471
  169SAPE    C118980   1.108   3.478   7.574 -0.1129  0.2919 -0.3530
  169SAPE    HA18981   1.208   3.475   7.624  0.9473 -3.1360 -2.2974
  169SAPE    HB18982   1.082   3.580   7.539  2.5171  1.6103  1.2326
  169SAPE    C218983   0.997   3.432   7.680 -0.4370  1.0404  0.3855
  169SAPE    HS18984   1.016   3.482   7.777  0.0474  1.2234  0.1983
  169SAPE   O2118985   0.997   3.292   7.694 -0.0553  1.1680 -0.0029
  169SAPE   C2118986   1.108   3.244   7.755 -0.8420 -0.8654 -0.4685
  169SAPE   O2218987   1.197   3.316   7.807  0.1169 -0.0011  0.1059
  169SAPE   C2218988   1.120   3.090   7.742  0.2769  0.4689 -0.1247
  169SAPE   H2R18989   1.027   3.039   7.777  1.2132 -0.9557  0.3922
  169SAPE   H2S18990   1.128   3.065   7.634 -4.4520 -0.5454 -0.4403
  169SAPE    C318991   0.864   3.479   7.616 -0.2734 -0.1218  0.2166
  169SAPE    HX18992   0.843   3.418   7.526 -1.6672 -1.0433  1.1360
  169SAPE    HY18993   0.884   3.584   7.587 -2.5965  0.9070  2.0751
  169SAPE   O3118994   0.761   3.462   7.706  0.4626  0.3664 -0.0915
  169SAPE   C3118995   0.762   3.545   7.815 -0.7698  0.4866 -0.7319
  169SAPE   O3218996   0.842   3.631   7.840 -0.0199 -0.0751  0.5497
  169SAPE   C3218997   0.638   3.506   7.898 -0.1266 -0.4323 -0.1875
  169SAPE   H2X18998   0.667   3.429   7.973  2.7765  1.3216  0.6419
  169SAPE   H2Y18999   0.558   3.464   7.833  1.0458 -1.2952 -1.1212
  169SAPE   C2319000   1.249   3.032   7.806  0.3127  0.3661  0.7241
  169SAPE   H3R19001   1.334   3.099   7.782 -0.1751  1.1371  1.0917
  169SAPE   H3S19002   1.275   2.931   7.768  3.3377  1.6622 -0.9766
  169SAPE   C2419003   1.239   3.031   7.958  0.0476 -0.5918 -0.4056
  169SAPE   H4R19004   1.190   2.932   7.970 -0.9989 -0.1565 -0.9609
  169SAPE   H4S19005   1.174   3.115   7.991 -1.6232 -1.9447 -0.1705
  169SAPE   C2519006   1.364   3.036   8.036 -0.2481  0.0833 -0.2325
  169SAPE   H5R19007   1.440   3.111   8.009  1.0803 -0.7316  1.0423
  169SAPE   C2619008   1.410   2.951   8.125  0.4275 -0.1903 -0.0866
  169SAPE   H6R19009   1.503   2.982   8.174 -0.2219  2.7044 -0.5166
  169SAPE   C2719010   1.334   2.831   8.175 -0.1280 -0.5232 -0.2589
  169SAPE   H7R19011   1.315   2.761   8.091 -0.3827 -2.1174  1.0688
  169SAPE   H7S19012   1.229   2.854   8.204  0.4520 -0.2577  1.7617
  169SAPE   C2819013   1.404   2.769   8.299 -0.3267 -0.0641  0.2544
  169SAPE   H8R19014   1.490   2.708   8.267  1.7782  3.2284 -0.8432
  169SAPE   C2919015   1.401   2.811   8.428 -0.1320  0.4645  0.6227
  169SAPE   H9R19016   1.453   2.750   8.503 -1.1464 -1.3115 -0.0648
  169SAPE  C21019017   1.297   2.904   8.483 -0.9826  0.0041 -0.6191
  169SAPE  H10R19018   1.240   2.844   8.557 -2.4940  1.6274 -0.4027
  169SAPE  H10S19019   1.219   2.933   8.409 -1.8615 -1.5336 -0.3347
  169SAPE  C21119020   1.348   3.036   8.544  0.4582 -0.6430  0.1140
  169SAPE  H11R19021   1.392   3.110   8.476  1.2012 -1.7702 -0.6816
  169SAPE  C21219022   1.337   3.070   8.676 -0.6102 -0.2552 -0.4588
  169SAPE  H12R19023   1.371   3.167   8.716  0.3392 -2.0899  3.8245
  169SAPE  C21319024   1.273   2.988   8.790 -0.0210 -0.0657  0.4226
  169SAPE  H13R19025   1.283   2.879   8.772 -0.1953 -0.1656  0.9377
  169SAPE  H13S19026   1.167   3.017   8.798  0.7390  2.9813  0.8329
  169SAPE  C21419027   1.349   3.012   8.918  0.1600  0.0476  0.3535
  169SAPE  H14R19028   1.458   3.018   8.907  0.1955 -0.4720  0.3846
  169SAPE  C21519029   1.288   3.018   9.037 -0.1115 -0.5961  0.1249
  169SAPE  H15R19030   1.343   3.062   9.121 -0.8317  1.1226 -0.2507
  169SAPE  C21619031   1.137   3.004   9.062  0.6739 -0.7593  0.0767
  169SAPE  H16R19032   1.115   2.921   9.132 -0.7412 -0.2216  0.3043
  169SAPE  H16S19033   1.078   2.981   8.971  0.4291 -0.1309  0.0716
  169SAPE  C21719034   1.074   3.137   9.127  0.1814  0.1523 -0.0704
  169SAPE  H17R19035   0.969   3.115   9.155  0.6826 -0.0786  1.7066
  169SAPE  H17S19036   1.088   3.214   9.048  1.8074  0.1881  0.1993
  169SAPE  C21819037   1.153   3.198   9.241  0.2452  0.0029 -0.4502
  169SAPE  H18R19038   1.105   3.294   9.269  1.5386  0.4509  0.2909
  169SAPE  H18S19039   1.262   3.207   9.225  1.1690 -0.0410  4.2711
  169SAPE  C21919040   1.130   3.108   9.355 -1.2226  0.2600 -0.1915
  169SAPE  H19R19041   1.159   3.002   9.337 -2.4105 -0.1715  0.3551
  169SAPE  H19S19042   1.020   3.107   9.372 -1.2916 -3.1316 -0.0834
  169SAPE  C22019043   1.203   3.147   9.486 -0.2298  0.0009 -0.1822
  169SAPE  H20R19044   1.172   3.248   9.522 -0.2207 -1.0870  3.3226
  169SAPE  H20S19045   1.312   3.153   9.466 -0.3007 -0.6739 -0.8309
  169SAPE  H20T19046   1.193   3.069   9.565  1.6053 -2.4490 -2.2230
  169SAPE   C3319047   0.582   3.630   7.970  0.4282  0.5406 -0.0053
  169SAPE   H3X19048   0.474   3.612   7.989  0.3195 -0.7444 -1.6044
  169SAPE   H3Y19049   0.596   3.725   7.915 -1.8692 -0.0799 -1.8472
  169SAPE   C3419050   0.631   3.652   8.118  0.4681  0.2849  0.3397
  169SAPE   H4X19051   0.596   3.753   8.148 -0.1979  0.1887 -0.1035
  169SAPE   H4Y19052   0.742   3.650   8.114  0.4627  1.0168 -1.3080
  169SAPE   C3519053   0.582   3.548   8.219  0.1856 -0.2322  0.2153
  169SAPE   H5X19054   0.626   3.448   8.202  1.7474  0.7585 -1.9801
  169SAPE   H5Y19055   0.472   3.539   8.209  0.0785 -0.5008  1.4602
  169SAPE   C3619056   0.620   3.591   8.365 -0.3765  0.5658 -0.1507
  169SAPE   H6X19057   0.651   3.697   8.376  3.7165 -0.4247 -0.3539
  169SAPE   H6Y19058   0.717   3.544   8.395  0.7205  2.8581  0.1615
  169SAPE   C3719059   0.518   3.528   8.465  0.0617 -0.1639 -0.2131
  169SAPE   H7X19060   0.512   3.417   8.465 -0.6410 -0.1386  0.6007
  169SAPE   H7Y19061   0.418   3.576   8.453  0.5971  0.8869 -0.5767
  169SAPE   C3819062   0.572   3.562   8.605  0.0669  0.7399 -0.1233
  169SAPE   H8X19063   0.571   3.673   8.604  2.8549  0.8384  0.4324
  169SAPE   H8Y19064   0.681   3.537   8.610 -0.1806 -0.4547  4.6959
  169SAPE   C3919065   0.487   3.508   8.720 -0.0747  0.2663 -0.0444
  169SAPE   H9X19066   0.517   3.402   8.738 -1.1045 -0.0404 -0.0282
  169SAPE   H9Y19067   0.384   3.494   8.680  0.1213  1.7438 -1.1188
  169SAPE  C31019068   0.484   3.591   8.848  0.1359 -0.1525  0.5468
  169SAPE  H10X19069   0.455   3.693   8.816 -1.3021 -0.3360  1.1573
  169SAPE  H10Y19070   0.582   3.594   8.900  0.3717 -1.2810  0.1786
  169SAPE  C31119071   0.372   3.558   8.947 -0.3539  0.6074 -0.0970
  169SAPE  H11X19072   0.371   3.449   8.972  0.1806  0.3890 -0.9736
  169SAPE  H11Y19073   0.275   3.575   8.895 -0.7461  1.2038  0.8130
  169SAPE  C31219074   0.371   3.639   9.072 -0.2111  0.3647 -0.3247
  169SAPE  H12X19075   0.353   3.746   9.048 -1.5617 -0.4101 -3.2519
  169SAPE  H12Y19076   0.469   3.629   9.123 -0.1802  1.8866 -0.0575
  169SAPE  C31319077   0.261   3.588   9.164  0.7436  0.1966  0.1616
  169SAPE  H13X19078   0.251   3.477   9.166  0.7034  0.2042  1.5766
  169SAPE  H13Y19079   0.162   3.628   9.136  0.9234 -0.3235 -1.2874
  169SAPE  C31419080   0.289   3.621   9.306  0.0493  0.0468 -0.5479
  169SAPE  H14X19081   0.382   3.572   9.340  0.0134 -1.5426 -2.5705
  169SAPE  H14Y19082   0.201   3.593   9.368  1.4360 -1.3785  0.8404
  169SAPE  C31519083   0.307   3.774   9.336  1.0634  0.2237  0.0404
  169SAPE  H15X19084   0.207   3.816   9.313  0.3741 -1.4849 -0.1657
  169SAPE  H15Y19085   0.379   3.828   9.270 -0.8665  0.7305 -1.7573
  169SAPE  C31619086   0.330   3.801   9.486 -0.4883 -1.0797  0.7899
  169SAPE  H16X19087   0.431   3.759   9.505 -0.8438 -2.2645  0.1436
  169SAPE  H16Y19088   0.245   3.745   9.529 -0.1306 -1.5723  0.8684
  169SAPE  C31719089   0.323   3.948   9.532  0.6764 -0.2786  0.5926
  169SAPE  H17X19090   0.411   4.002   9.490 -1.2420  3.2206  0.6719
  169SAPE  H17Y19091   0.334   3.965   9.641  0.5495 -0.5550  0.6488
  169SAPE  C31819092   0.198   4.029   9.484  0.4023  0.2533 -0.0575
  169SAPE  H18X19093   0.185   4.022   9.374 -1.2678 -1.0236  0.1871
  169SAPE  H18Y19094   0.213   4.132   9.522 -0.9162  0.0784  0.9839
  169SAPE  H18Z19095   0.110   3.976   9.525  0.0329  0.5603 -0.4504
  170SAPE     N19096   2.047   2.316  14.494  0.3368 -0.2950  0.2889
  170SAPE   HN119097   1.993   2.316  14.583  2.3185  0.1724  1.5329
  170SAPE   HN219098   2.145   2.302  14.526  0.5131  1.7263  0.7638
  170SAPE   HN319099   2.043   2.414  14.460  1.5064  0.2647  1.6946
  170SAPE   C1219100   1.997   2.218  14.389 -0.3176 -0.8734 -0.5088
  170SAPE  H12A19101   2.008   2.116  14.432 -1.4381 -0.2569  1.3177
  170SAPE  H12B19102   2.057   2.230  14.296 -0.8416 -2.1923 -1.0482
  170SAPE   C1119103   1.848   2.250  14.371  0.7657  0.9970  0.3449
  170SAPE  H11A19104   1.794   2.250  14.468  0.3844 -1.4384  0.2009
  170SAPE  H11B19105   1.802   2.158  14.328  0.1895  1.9639 -1.1944
  170SAPE     P19106   1.695   2.450  14.291  0.3848 -0.6130 -0.3383
  170SAPE   O1319107   1.714   2.547  14.407 -0.2956  0.2713  0.4353
  170SAPE   O1419108   1.684   2.502  14.148  0.4026 -0.2484  0.1071
  170SAPE   O1219109   1.824   2.362  14.283  0.1823 -0.2770  0.1672
  170SAPE   O1119110   1.585   2.353  14.332  0.5675  0.6554  0.5486
  170SAPE    C119111   1.540   2.243  14.247 -0.6178 -0.4575  0.0836
  170SAPE    HA19112   1.470   2.286  14.172 -1.1531 -0.8677  0.3399
  170SAPE    HB19113   1.622   2.190  14.193 -1.3698 -0.3996 -1.1591
  170SAPE    C219114   1.472   2.135  14.335  0.5791 -1.0781  0.3663
  170SAPE    HS19115   1.400   2.189  14.401  0.4478 -0.0074 -0.6215
  170SAPE   O2119116   1.567   2.065  14.412 -0.0716  0.4495  0.2003
  170SAPE   C2119117   1.529   2.035  14.532 -0.1044  0.2670  0.6364
  170SAPE   O2219118   1.425   2.064  14.584  0.6409  0.0722  0.3359
  170SAPE   C2219119   1.653   1.971  14.606  0.3554  0.4424 -0.3535
  170SAPE   H2R19120   1.679   1.881  14.546  1.4745 -1.8370  3.2186
  170SAPE   H2S19121   1.736   2.044  14.612 -1.5197  2.5873  1.1091
  170SAPE    C319122   1.390   2.043  14.248  0.9627  0.8985  0.3195
  170SAPE    HX19123   1.447   1.950  14.227 -1.5405 -0.6053 -0.2374
  170SAPE    HY19124   1.374   2.086  14.147 -0.0897  0.1937  0.1772
  170SAPE   O3119125   1.268   1.995  14.313 -0.2843 -0.3036  1.2448
  170SAPE   C3119126   1.180   2.080  14.315  0.5829 -0.1313 -0.5014
  170SAPE   O3219127   1.181   2.190  14.266  0.6427 -0.8453 -0.3241
  170SAPE   C3219128   1.053   2.014  14.372  1.2089 -0.3122  0.7133
  170SAPE   H2X19129   1.082   1.995  14.478 -0.9729  2.2460  1.9043
  170SAPE   H2Y19130   1.044   1.911  14.332 -0.7203  0.9314 -2.4296
  170SAPE   C2319131   1.627   1.919  14.749  0.3821 -0.0644 -0.0195
  170SAPE   H3R19132   1.556   1.834  14.738  0.3666  0.0987 -1.2417
  170SAPE   H3S19133   1.585   1.998  14.815  0.7706  1.7917 -1.9224
  170SAPE   C2419134   1.747   1.846  14.805  0.0254 -0.5320 -0.4443
  170SAPE   H4R19135   1.758   1.754  14.743  0.5087 -2.2728  2.0759
  170SAPE   H4S19136   1.710   1.811  14.904 -0.5269  0.8603 -0.1430
  170SAPE   C2519137   1.871   1.928  14.816  0.0409  0.3799 -0.5086
  170SAPE   H5R19138   1.855   2.037  14.813  4.0142  1.1476  0.4656
  170SAPE   C2619139   2.000   1.881  14.809  0.4042 -0.4165  0.1713
  170SAPE   H6R19140   2.082   1.953  14.823 -0.5069  0.3858  1.6133
  170SAPE   C2719141   2.032   1.731  14.797  0.0279  0.3838 -0.1940
  170SAPE   H7R19142   1.977   1.696  14.707 -0.0325 -1.6092  0.5697
  170SAPE   H7S19143   1.988   1.674  14.882  0.8984 -0.3850 -0.2534
  170SAPE   C2819144   2.182   1.712  14.780 -0.3312  0.3808  0.3576
  170SAPE   H8R19145   2.236   1.773  14.707  0.7523  1.7592  2.2058
  170SAPE   C2919146   2.251   1.607  14.829 -0.0635 -0.2544 -0.2317
  170SAPE   H9R19147   2.360   1.615  14.821  0.1496  1.0756  2.6838
  170SAPE  C21019148   2.205   1.495  14.925  0.5160  0.6263  0.5504
  170SAPE  H10R19149   2.250   1.399  14.891 -0.6880  0.3872 -0.4455
  170SAPE  H10S19150   2.095   1.486  14.927  0.4342  1.3735  0.0534
  170SAPE  C21119151   2.245   1.538  15.066  0.8510  0.3443  0.1447
  170SAPE  H11R19152   2.198   1.634  15.091 -0.1156 -0.0807  0.0223
  170SAPE  C21219153   2.329   1.474  15.148 -0.0597  0.7513  0.4629
  170SAPE  H12R19154   2.325   1.514  15.251 -3.8506  1.3917  0.2011
  170SAPE  C21319155   2.422   1.359  15.119  0.2902  0.1261  0.3038
  170SAPE  H13R19156   2.428   1.356  15.008 -1.7823  2.7254  0.0070
  170SAPE  H13S19157   2.366   1.267  15.148 -3.3241  2.0372 -0.0836
  170SAPE  C21419158   2.551   1.355  15.191  1.2523 -0.2029 -0.4375
  170SAPE  H14R19159   2.564   1.432  15.268 -0.9412  0.5029 -0.6904
  170SAPE  C21519160   2.646   1.266  15.178  0.0066 -0.6583  0.4686
  170SAPE  H15R19161   2.736   1.280  15.239 -0.5913 -2.7986  1.9686
  170SAPE  C21619162   2.655   1.165  15.062  0.8112  0.9559  0.2505
  170SAPE  H16R19163   2.760   1.160  15.026  0.0837 -2.3638 -1.8941
  170SAPE  H16S19164   2.606   1.207  14.971  1.2867  1.1846  0.0980
  170SAPE  C21719165   2.594   1.027  15.088 -0.1881 -0.0692 -0.3283
  170SAPE  H17R19166   2.577   0.974  14.992 -1.0244  0.2838 -0.3891
  170SAPE  H17S19167   2.502   1.049  15.147 -0.5863  1.9043 -1.5869
  170SAPE  C21819168   2.687   0.938  15.175 -0.4293  0.3858  0.6112
  170SAPE  H18R19169   2.694   0.987  15.274 -1.3278  1.4224  0.1802
  170SAPE  H18S19170   2.787   0.935  15.126 -0.2769  1.8276  0.7755
  170SAPE  C21919171   2.636   0.796  15.184 -0.3206 -0.4809  0.1176
  170SAPE  H19R19172   2.649   0.733  15.094  0.6121  1.7966 -1.4509
  170SAPE  H19S19173   2.526   0.805  15.196 -0.2432  2.0046 -0.5368
  170SAPE  C22019174   2.673   0.716  15.320  0.2870  0.2466 -0.7285
  170SAPE  H20R19175   2.652   0.776  15.410  0.3027 -0.8317  0.0103
  170SAPE  H20S19176   2.782   0.692  15.330 -0.4718 -2.9313  1.4734
  170SAPE  H20T19177   2.607   0.628  15.333  0.2972  0.5829  2.1128
  170SAPE   C3319178   0.921   2.104  14.357 -0.0637  0.4191 -0.5173
  170SAPE   H3X19179   0.920   2.121  14.247  3.4749  0.0303 -0.7255
  170SAPE   H3Y19180   0.930   2.207  14.397 -0.5576  0.9521 -1.7037
  170SAPE   C3419181   0.804   2.022  14.414 -0.2541 -0.2024 -0.2404
  170SAPE   H4X19182   0.798   1.924  14.362  2.2249  0.0466 -1.1385
  170SAPE   H4Y19183   0.706   2.066  14.385 -1.7135 -1.0545  2.9675
  170SAPE   C3519184   0.803   2.018  14.564  0.5252 -0.2431 -0.3224
  170SAPE   H5X19185   0.806   2.118  14.611 -1.2422 -0.2722 -0.0729
  170SAPE   H5Y19186   0.894   1.965  14.601 -0.8226 -1.2718  1.6539
  170SAPE   C3619187   0.678   1.956  14.632 -0.0341  0.9046  0.4118
  170SAPE   H6X19188   0.652   1.869  14.568 -0.7143  1.2864  0.1593
  170SAPE   H6Y19189   0.592   2.025  14.620 -0.0610  0.8661  0.3854
  170SAPE   C3719190   0.707   1.904  14.776  0.2964  0.3497 -0.2946
  170SAPE   H7X19191   0.726   1.990  14.845  2.3907  1.1792 -1.7712
  170SAPE   H7Y19192   0.801   1.846  14.760  2.2577  2.5897  2.0837
  170SAPE   C3819193   0.595   1.815  14.838  0.5884 -0.5167 -0.2931
  170SAPE   H8X19194   0.550   1.760  14.754 -1.6924  0.2560  0.3506
  170SAPE   H8Y19195   0.515   1.885  14.870  0.7326  0.4570 -1.9655
  170SAPE   C3919196   0.625   1.725  14.961  0.1735 -0.0551 -0.1084
  170SAPE   H9X19197   0.678   1.788  15.036 -1.5760 -0.2716  1.3809
  170SAPE   H9Y19198   0.711   1.661  14.933 -0.2417 -1.6158  1.9081
  170SAPE  C31019199   0.506   1.633  15.007 -0.0365  0.8213  0.4152
  170SAPE  H10X19200   0.544   1.563  15.085  0.0366  2.1864  1.6531
  170SAPE  H10Y19201   0.470   1.566  14.926  1.6175  0.1589  0.1879
  170SAPE  C31119202   0.394   1.708  15.072  0.3890 -0.5964  0.3081
  170SAPE  H11X19203   0.325   1.762  15.004  1.9788 -0.2848 -1.1494
  170SAPE  H11Y19204   0.432   1.788  15.140 -0.6230  2.4132 -2.4238
  170SAPE  C31219205   0.304   1.615  15.150 -0.3367 -0.0818 -0.1333
  170SAPE  H12X19206   0.354   1.554  15.228 -2.8480 -1.7139  0.3264
  170SAPE  H12Y19207   0.255   1.547  15.076 -0.3147  1.6477 -1.8051
  170SAPE  C31319208   0.208   1.706  15.232  1.0988 -0.0235  0.2133
  170SAPE  H13X19209   0.255   1.792  15.284  1.1434 -0.5226  1.0214
  170SAPE  H13Y19210   0.175   1.642  15.317  2.9980 -0.3843  0.7191
  170SAPE  C31419211   0.084   1.737  15.138 -0.2024  0.8553  0.1286
  170SAPE  H14X19212   0.057   1.645  15.082  2.3954  0.1551 -0.1111
  170SAPE  H14Y19213   0.114   1.807  15.057  1.2693 -0.9944 -1.0202
  170SAPE  C31519214  -0.036   1.799  15.206 -0.0194  0.5139 -0.4286
  170SAPE  H15X19215  -0.004   1.894  15.253  3.8719 -0.7053 -0.2467
  170SAPE  H15Y19216  -0.062   1.725  15.285  1.6038  0.1146 -0.2297
  170SAPE  C31619217  -0.157   1.821  15.118  0.3849 -0.4526  0.2939
  170SAPE  H16X19218  -0.246   1.827  15.184  0.2044 -3.6559  0.4939
  170SAPE  H16Y19219  -0.168   1.731  15.052  2.3984 -1.5651  1.3911
  170SAPE  C31719220  -0.131   1.933  15.015  0.7636  0.2205 -0.9746
  170SAPE  H17X19221  -0.035   1.915  14.962 -0.7354 -1.8372 -3.2135
  170SAPE  H17Y19222  -0.115   2.018  15.084  1.0634 -0.7308  0.1622
  170SAPE  C31819223  -0.239   1.961  14.909  0.1963  1.5169  0.7778
  170SAPE  H18X19224  -0.336   1.989  14.955  0.4726  1.7115  1.2523
  170SAPE  H18Y19225  -0.262   1.873  14.845 -0.2165  1.7523  0.5979
  170SAPE  H18Z19226  -0.205   2.039  14.839  0.6517 -0.3175 -1.1371
  171SAPE     N19227   1.477   0.099  10.831 -0.1333  0.0875  0.3509
  171SAPE   HN119228   1.400   0.091  10.899 -0.9921 -1.4826 -0.7241
  171SAPE   HN219229   1.565   0.133  10.874  0.9380 -4.0306  1.9139
  171SAPE   HN319230   1.443   0.167  10.760 -1.2710  0.5327  1.2938
  171SAPE   C1219231   1.501  -0.032  10.761  0.4119 -0.1034 -0.3466
  171SAPE  H12A19232   1.434  -0.044  10.674  0.0456  0.7983 -0.2046
  171SAPE  H12B19233   1.468  -0.110  10.832 -2.2499  0.6791 -0.6447
  171SAPE   C1119234   1.644  -0.022  10.703 -0.0147 -0.3017 -0.4075
  171SAPE  H11A19235   1.645   0.055  10.623 -0.9402  1.1912  0.9777
  171SAPE  H11B19236   1.670  -0.115  10.648  0.5016 -0.5622  0.2631
  171SAPE     P19237   1.807  -0.099  10.889  0.0907  0.0693 -0.3471
  171SAPE   O1319238   1.756  -0.108  11.029  0.4957  0.0143 -0.1582
  171SAPE   O1419239   1.805  -0.226  10.812  0.1469 -0.2469 -0.4406
  171SAPE   O1219240   1.735   0.009  10.812  0.1219  0.6141  0.6223
  171SAPE   O1119241   1.960  -0.043  10.887 -0.0369  0.3281  0.1731
  171SAPE    C119242   1.990   0.075  10.963 -0.0274 -0.0649  0.1743
  171SAPE    HA19243   1.928   0.078  11.055  1.4561  1.4644  1.1777
  171SAPE    HB19244   2.095   0.075  10.997 -0.2024  2.3754  0.8545
  171SAPE    C219245   1.975   0.204  10.881 -1.0914 -0.5711 -0.1712
  171SAPE    HS19246   1.871   0.206  10.844 -0.8609  0.1662 -0.8127
  171SAPE   O2119247   2.063   0.191  10.764 -0.3386  0.1927 -0.1295
  171SAPE   C2119248   2.007   0.229  10.647 -0.1292  0.7113 -0.6849
  171SAPE   O2219249   1.890   0.254  10.625 -0.6322 -0.1839  0.0552
  171SAPE   C2219250   2.114   0.229  10.541  0.0923 -0.4151 -0.1494
  171SAPE   H2R19251   2.161   0.129  10.544  1.0955  0.0497 -0.1525
  171SAPE   H2S19252   2.055   0.213  10.448 -1.7627 -1.7334  1.1701
  171SAPE    C319253   1.997   0.336  10.962 -0.6129  0.1548 -0.0814
  171SAPE    HX19254   2.093   0.320  11.016  1.0651 -1.7563 -3.2680
  171SAPE    HY19255   1.915   0.347  11.035  1.8645  0.1355  2.8881
  171SAPE   O3119256   2.011   0.441  10.861 -0.3644  0.3425 -0.3251
  171SAPE   C3119257   1.905   0.518  10.842 -0.6369  0.0798  0.6331
  171SAPE   O3219258   1.805   0.519  10.906 -0.3806  0.0250  0.2610
  171SAPE   C3219259   1.927   0.617  10.728 -0.2737 -0.6027  0.0020
  171SAPE   H2X19260   1.888   0.566  10.638  1.5530 -0.0795 -1.1604
  171SAPE   H2Y19261   2.035   0.620  10.699 -0.7564  0.0752 -1.8395
  171SAPE   C2319262   2.201   0.349  10.547 -0.5601 -0.5923  0.2933
  171SAPE   H3R19263   2.277   0.330  10.626  1.3548  0.4130 -1.2060
  171SAPE   H3S19264   2.144   0.438  10.583 -0.2856 -1.0737  2.0069
  171SAPE   C2419265   2.268   0.369  10.410 -0.9932  0.1462  0.1787
  171SAPE   H4R19266   2.265   0.474  10.374 -0.6691 -0.0562 -0.4424
  171SAPE   H4S19267   2.217   0.303  10.337  2.4094 -3.2381  0.5524
  171SAPE   C2519268   2.403   0.305  10.423  0.0966  0.5082  0.0471
  171SAPE   H5R19269   2.398   0.199  10.452  1.5758  0.4043 -0.0063
  171SAPE   C2619270   2.520   0.344  10.373  0.2271 -0.4362 -0.7092
  171SAPE   H6R19271   2.604   0.278  10.397  0.5399  0.1140 -0.2748
  171SAPE   C2719272   2.549   0.474  10.302  0.5132 -0.5455  0.1005
  171SAPE   H7R19273   2.623   0.523  10.368  1.5718 -1.1743 -0.5842
  171SAPE   H7S19274   2.461   0.541  10.300  1.7712  1.1970  0.9051
  171SAPE   C2819275   2.603   0.470  10.164  0.4075  0.5623 -0.6179
  171SAPE   H8R19276   2.602   0.369  10.120  0.6717  0.3785 -0.2130
  171SAPE   C2919277   2.652   0.572  10.106 -0.3033  0.2108  0.2348
  171SAPE   H9R19278   2.678   0.568   9.999  0.0915  3.2371  0.1373
  171SAPE  C21019279   2.646   0.700  10.165  0.4446 -0.4563  0.4476
  171SAPE  H10R19280   2.700   0.701  10.262  1.0227  2.9747  0.2476
  171SAPE  H10S19281   2.538   0.717  10.186 -0.8290  0.7904 -5.3558
  171SAPE  C21119282   2.699   0.820  10.088 -0.4295 -0.0196  0.5366
  171SAPE  H11R19283   2.808   0.813  10.076 -0.4248 -0.3343  0.7502
  171SAPE  C21219284   2.619   0.915  10.025 -0.0233 -0.2099 -0.4363
  171SAPE  H12R19285   2.669   0.985   9.956 -0.8192  1.4828  0.6267
  171SAPE  C21319286   2.468   0.920  10.037  1.1575  0.0289  0.6767
  171SAPE  H13R19287   2.429   0.994  10.111 -1.8744 -0.0141 -0.7127
  171SAPE  H13S19288   2.418   0.825  10.065  0.1988  0.0562 -0.7982
  171SAPE  C21419289   2.389   0.959   9.910  0.0462  0.0682  0.2411
  171SAPE  H14R19290   2.336   0.876   9.861  0.0510  0.2658 -0.1010
  171SAPE  C21519291   2.391   1.085   9.862 -0.7363  0.3161 -0.3743
  171SAPE  H15R19292   2.343   1.107   9.766 -0.3283 -0.6859 -0.8197
  171SAPE  C21619293   2.472   1.201   9.918 -0.0106 -0.2308 -0.9377
  171SAPE  H16R19294   2.563   1.204   9.854  3.0485 -0.8395  2.9088
  171SAPE  H16S19295   2.523   1.181  10.015 -2.1267 -0.7643  0.1162
  171SAPE  C21719296   2.410   1.341   9.942 -0.2657 -0.4792  0.2624
  171SAPE  H17R19297   2.482   1.416   9.981 -0.9482 -0.0638  0.7492
  171SAPE  H17S19298   2.328   1.327  10.016 -2.0270 -4.4382 -2.1535
  171SAPE  C21819299   2.354   1.402   9.815 -0.5674  1.3275  0.0348
  171SAPE  H18R19300   2.283   1.331   9.768 -0.2448  1.3982 -0.5647
  171SAPE  H18S19301   2.438   1.422   9.746  1.3630  1.9760  2.4245
  171SAPE  C21919302   2.276   1.535   9.830  0.4727 -0.1683 -0.2622
  171SAPE  H19R19303   2.241   1.552   9.726 -0.8773  0.0904  0.2023
  171SAPE  H19S19304   2.349   1.613   9.860  0.7921 -0.5618 -0.0129
  171SAPE  C22019305   2.167   1.532   9.928  0.4329 -0.4338 -0.2204
  171SAPE  H20R19306   2.127   1.631   9.959 -0.3033 -0.4561 -1.0294
  171SAPE  H20S19307   2.206   1.496  10.025  0.0957 -0.2766 -0.0232
  171SAPE  H20T19308   2.080   1.471   9.894 -1.8270  2.0546  0.6561
  171SAPE   C3319309   1.848   0.745  10.741 -0.1900  0.2438  0.2574
  171SAPE   H3X19310   1.853   0.793  10.841  0.1328  0.6511  0.0432
  171SAPE   H3Y19311   1.743   0.716  10.719 -0.0548 -0.1221  0.0810
  171SAPE   C3419312   1.895   0.842  10.642 -0.2082 -0.6609 -0.1671
  171SAPE   H4X19313   1.870   0.808  10.539  1.1528 -2.4317  0.0462
  171SAPE   H4Y19314   2.005   0.840  10.651 -0.3102  0.1483  1.6438
  171SAPE   C3519315   1.841   0.983  10.663  0.0623 -0.0224  0.0080
  171SAPE   H5X19316   1.863   1.041  10.755 -1.2802  2.7502 -1.2765
  171SAPE   H5Y19317   1.732   0.965  10.656  0.2992 -1.7379  0.2613
  171SAPE   C3619318   1.884   1.076  10.545  0.1261  0.1906  0.5173
  171SAPE   H6X19319   1.880   1.024  10.447 -0.5463  0.2651  0.5006
  171SAPE   H6Y19320   1.983   1.118  10.574  1.3769 -0.8545 -1.9748
  171SAPE   C3719321   1.793   1.196  10.536  0.0767 -0.8145  0.8123
  171SAPE   H7X19322   1.768   1.241  10.634  1.9856 -2.3582  2.0989
  171SAPE   H7Y19323   1.700   1.159  10.488 -0.2143  1.4340 -0.4942
  171SAPE   C3819324   1.860   1.303  10.447  0.6641  0.7794  0.1709
  171SAPE   H8X19325   1.872   1.271  10.342 -2.0365 -0.3277  0.1174
  171SAPE   H8Y19326   1.963   1.307  10.489  1.4696 -1.8140 -1.3708
  171SAPE   C3919327   1.798   1.448  10.434 -0.2409  0.5292 -0.1855
  171SAPE   H9X19328   1.775   1.493  10.533 -1.8149  2.5234 -1.3889
  171SAPE   H9Y19329   1.702   1.440  10.380  0.4458  0.8448 -1.4915
  171SAPE  C31019330   1.879   1.561  10.373  0.1313  0.3977  0.2602
  171SAPE  H10X19331   1.897   1.529  10.268  0.1797  2.1825 -0.3021
  171SAPE  H10Y19332   1.976   1.576  10.426 -0.1646 -0.5565  1.1120
  171SAPE  C31119333   1.801   1.691  10.352 -1.1561  0.0259 -0.3999
  171SAPE  H11X19334   1.794   1.739  10.453  0.0811 -1.9546  0.6964
  171SAPE  H11Y19335   1.700   1.669  10.313 -0.7496 -1.1780 -0.7911
  171SAPE  C31219336   1.870   1.787  10.258  0.8781 -0.6387  0.4437
  171SAPE  H12X19337   1.972   1.808  10.297 -0.5019  0.6260  3.7827
  171SAPE  H12Y19338   1.814   1.883  10.261 -0.8079 -1.4510 -2.1082
  171SAPE  C31319339   1.877   1.754  10.103  1.0059  0.0820  0.3838
  171SAPE  H13X19340   1.960   1.682  10.090 -1.6447 -2.6934 -2.5526
  171SAPE  H13Y19341   1.904   1.837  10.034 -0.0923 -1.1679 -1.6314
  171SAPE  C31419342   1.748   1.691  10.041 -0.0518 -0.5791 -0.7704
  171SAPE  H14X19343   1.665   1.762  10.059  1.6478  0.8514  2.1620
  171SAPE  H14Y19344   1.715   1.598  10.093  0.2378 -1.5698 -2.3021
  171SAPE  C31519345   1.762   1.653   9.898  0.2305  0.1467 -0.2761
  171SAPE  H15X19346   1.667   1.604   9.868  0.7060 -0.8718 -0.1531
  171SAPE  H15Y19347   1.837   1.571   9.900 -1.4898 -1.4850  0.0972
  171SAPE  C31619348   1.782   1.775   9.800 -0.0350  0.0530 -0.1423
  171SAPE  H16X19349   1.889   1.797   9.819 -0.0334  1.1628 -1.2547
  171SAPE  H16Y19350   1.725   1.869   9.815  0.6539  0.1948  1.7870
  171SAPE  C31719351   1.771   1.745   9.652  0.6127  0.3472 -0.1011
  171SAPE  H17X19352   1.779   1.847   9.609 -0.7162  1.3476  1.8641
  171SAPE  H17Y19353   1.669   1.703   9.638  0.4673  0.3049  1.0283
  171SAPE  C31819354   1.858   1.629   9.598 -0.4001  0.4629  0.0247
  171SAPE  H18X19355   1.871   1.545   9.669 -1.9351 -1.6671 -2.0301
  171SAPE  H18Y19356   1.961   1.670   9.586  0.4735 -1.5732  0.0862
  171SAPE  H18Z19357   1.816   1.587   9.504  0.0035 -0.9056  0.4354
  172SAPE     N19358   1.156   2.787  12.758 -0.3883  0.2768 -0.6137
  172SAPE   HN119359   1.203   2.814  12.846  0.8926 -0.4335 -1.0472
  172SAPE   HN219360   1.200   2.819  12.669  0.4520 -1.6926 -0.9793
  172SAPE   HN319361   1.059   2.824  12.759 -0.3510  0.5619 -2.8164
  172SAPE   C1219362   1.139   2.637  12.741 -0.4351  0.4371  0.2898
  172SAPE  H12A19363   1.142   2.623  12.631  1.8084 -2.1507  0.5692
  172SAPE  H12B19364   1.042   2.610  12.788  0.1327 -1.1897  0.6044
  172SAPE   C1119365   1.252   2.564  12.819 -0.0921  0.5760  0.9432
  172SAPE  H11A19366   1.247   2.457  12.790  0.2379  1.1810 -1.5083
  172SAPE  H11B19367   1.237   2.565  12.929  1.7718  0.9590  1.2291
  172SAPE     P19368   1.463   2.690  12.902 -0.2355 -0.1235 -0.1419
  172SAPE   O1319369   1.597   2.709  12.841 -0.1687 -0.3962 -0.7986
  172SAPE   O1419370   1.388   2.809  12.951  0.1565  0.1942 -0.6988
  172SAPE   O1219371   1.379   2.621  12.786 -0.0046  0.0479 -0.3885
  172SAPE   O1119372   1.475   2.580  13.010 -0.1551 -0.4445 -0.3451
  172SAPE    C119373   1.538   2.461  12.982  0.2788 -0.0190  0.1163
  172SAPE    HA19374   1.464   2.388  12.942  0.9075 -1.0881  0.8482
  172SAPE    HB19375   1.618   2.456  12.906  1.0809 -0.4092  0.9689
  172SAPE    C219376   1.590   2.400  13.117 -0.8334 -0.3348 -0.2707
  172SAPE    HS19377   1.628   2.301  13.083  0.9032  1.0463 -2.6852
  172SAPE   O2119378   1.483   2.389  13.216 -0.0377 -0.5294  0.2503
  172SAPE   C2119379   1.489   2.273  13.284 -0.3986 -0.3504  0.1242
  172SAPE   O2219380   1.569   2.183  13.262 -0.1376 -0.1352  0.3505
  172SAPE   C2219381   1.388   2.274  13.400 -0.1026  0.3499  0.3880
  172SAPE   H2R19382   1.411   2.360  13.465 -0.4706  1.1815 -0.5575
  172SAPE   H2S19383   1.284   2.280  13.359 -0.8034 -1.7098  1.7042
  172SAPE    C319384   1.709   2.489  13.170  0.5612 -0.6041 -0.0113
  172SAPE    HX19385   1.659   2.580  13.208 -0.4586 -0.9125 -0.5875
  172SAPE    HY19386   1.762   2.521  13.078 -0.7662 -0.2686 -0.6673
  172SAPE   O3119387   1.790   2.413  13.264 -0.6232 -0.3730 -0.2428
  172SAPE   C3119388   1.779   2.451  13.387  0.4300 -0.5815  0.0083
  172SAPE   O3219389   1.736   2.564  13.419 -0.1706 -0.1653  0.0880
  172SAPE   C3219390   1.803   2.336  13.486  0.2493 -0.0014  0.5053
  172SAPE   H2X19391   1.715   2.271  13.466  0.5538 -1.0671  2.3445
  172SAPE   H2Y19392   1.776   2.375  13.587 -2.1512 -1.0976  0.3538
  172SAPE   C2319393   1.399   2.148  13.483 -0.6714 -0.4627  0.2996
  172SAPE   H3R19394   1.494   2.145  13.541  0.3327 -0.8572 -1.2933
  172SAPE   H3S19395   1.403   2.059  13.417  2.6498 -0.6375  0.5283
  172SAPE   C2419396   1.278   2.128  13.571 -0.7144 -0.1395 -0.4639
  172SAPE   H4R19397   1.285   2.024  13.608  2.0834  0.3842  0.7227
  172SAPE   H4S19398   1.180   2.142  13.520 -0.6688 -0.1725 -0.5626
  172SAPE   C2519399   1.287   2.208  13.697  0.2421 -0.7232 -0.5215
  172SAPE   H5R19400   1.279   2.317  13.684  2.5546 -0.1006  2.2911
  172SAPE   C2619401   1.340   2.169  13.817  0.7119  0.2445 -0.5257
  172SAPE   H6R19402   1.344   2.247  13.895 -0.0003  1.1486 -1.3628
  172SAPE   C2719403   1.376   2.025  13.863 -0.1409 -0.5611  1.1248
  172SAPE   H7R19404   1.455   2.028  13.941  1.1923  1.5599 -0.1984
  172SAPE   H7S19405   1.422   1.964  13.782 -1.9017 -1.0410  0.4441
  172SAPE   C2819406   1.266   1.929  13.909  0.6732  0.3534  0.4512
  172SAPE   H8R19407   1.168   1.974  13.933  0.6179 -0.2941  1.4668
  172SAPE   C2919408   1.280   1.798  13.945  0.0249 -0.1159 -0.0458
  172SAPE   H9R19409   1.195   1.742  13.987  2.4509 -2.0100  2.7633
  172SAPE  C21019410   1.414   1.726  13.936  0.3555  0.5051 -0.4788
  172SAPE  H10R19411   1.502   1.794  13.933  0.8013 -0.0919 -2.3525
  172SAPE  H10S19412   1.421   1.681  13.834  1.2657 -0.3996 -0.0253
  172SAPE  C21119413   1.443   1.620  14.034 -0.1332  0.0797  0.6485
  172SAPE  H11R19414   1.357   1.563  14.070 -0.9343  0.9192  0.0888
  172SAPE  C21219415   1.566   1.594  14.091  0.7280  0.3572 -0.6314
  172SAPE  H12R19416   1.580   1.502  14.151  0.3162 -0.2816 -1.4903
  172SAPE  C21319417   1.697   1.667  14.067 -0.0907 -0.3862  0.2065
  172SAPE  H13R19418   1.723   1.686  13.960  3.0648  0.2051  0.9838
  172SAPE  H13S19419   1.786   1.608  14.100  1.0733  0.6328 -0.9794
  172SAPE  C21419420   1.691   1.796  14.137  0.3046  0.1040 -0.1984
  172SAPE  H14R19421   1.632   1.873  14.085  2.1364  0.8377 -1.2821
  172SAPE  C21519422   1.754   1.832  14.248  0.3416 -0.5756 -0.7076
  172SAPE  H15R19423   1.735   1.935  14.280  0.8116 -1.4033  2.6702
  172SAPE  C21619424   1.849   1.758  14.336  0.0873 -0.5017  0.0661
  172SAPE  H16R19425   1.813   1.654  14.352 -1.2792  0.0215  0.5010
  172SAPE  H16S19426   1.848   1.794  14.441 -1.3481  0.8092 -0.3560
  172SAPE  C21719427   1.995   1.747  14.289  0.6476 -0.0536 -0.4793
  172SAPE  H17R19428   2.038   1.847  14.268  1.5709  0.2360  2.3286
  172SAPE  H17S19429   1.995   1.685  14.197 -2.3457 -0.3477 -0.3955
  172SAPE  C21819430   2.077   1.681  14.393 -0.1563 -0.6037 -0.0916
  172SAPE  H18R19431   2.033   1.583  14.417 -0.5129 -0.5130 -0.3752
  172SAPE  H18S19432   2.071   1.734  14.491 -0.7884 -1.9534  0.6184
  172SAPE  C21919433   2.219   1.647  14.352 -0.2984 -0.4179 -0.1852
  172SAPE  H19R19434   2.262   1.746  14.325 -1.3352  0.4235  1.1266
  172SAPE  H19S19435   2.204   1.605  14.250 -0.0401  3.5524 -2.0572
  172SAPE  C22019436   2.313   1.582  14.454 -0.1285 -0.3989 -0.3756
  172SAPE  H20R19437   2.260   1.500  14.507  0.5157 -1.0445 -0.7086
  172SAPE  H20S19438   2.342   1.656  14.532  2.1696 -1.5225 -0.0778
  172SAPE  H20T19439   2.407   1.544  14.408 -1.1125 -2.0613 -1.0940
  172SAPE   C3319440   1.935   2.257  13.471 -0.4466  0.1951 -0.4034
  172SAPE   H3X19441   2.022   2.322  13.492  1.7503 -2.6901 -0.0337
  172SAPE   H3Y19442   1.942   2.225  13.365 -0.8746  1.5672 -0.8705
  172SAPE   C3419443   1.951   2.148  13.577 -0.1651 -0.0812 -0.4423
  172SAPE   H4X19444   1.953   2.188  13.680 -1.6011  2.3518 -1.2848
  172SAPE   H4Y19445   2.043   2.093  13.549 -0.4282 -0.2813 -0.9250
  172SAPE   C3519446   1.827   2.054  13.572  0.2060  0.1935  0.4052
  172SAPE   H5X19447   1.815   2.000  13.476  3.2236 -0.7178  0.4132
  172SAPE   H5Y19448   1.732   2.099  13.606  0.9057  0.5227  2.0526
  172SAPE   C3619449   1.868   1.937  13.663 -0.7998  0.2327  0.3747
  172SAPE   H6X19450   1.909   1.966  13.762 -0.0944 -0.8431  0.4136
  172SAPE   H6Y19451   1.944   1.879  13.607 -1.2360 -0.2337  0.2613
  172SAPE   C3719452   1.742   1.851  13.688 -0.1696 -0.1602 -0.4685
  172SAPE   H7X19453   1.665   1.898  13.754 -0.1628 -0.6767 -0.0898
  172SAPE   H7Y19454   1.772   1.768  13.756  0.0840 -2.0841 -2.7909
  172SAPE   C3819455   1.675   1.807  13.565 -0.6717 -0.0840  0.1890
  172SAPE   H8X19456   1.754   1.763  13.500 -0.1246  2.0316 -0.6921
  172SAPE   H8Y19457   1.627   1.886  13.503  0.0543 -0.8379 -1.4018
  172SAPE   C3919458   1.559   1.713  13.587  0.2195  0.4724 -0.1941
  172SAPE   H9X19459   1.505   1.697  13.490  0.2141  0.8429 -0.2537
  172SAPE   H9Y19460   1.487   1.754  13.660 -2.8591 -2.9085 -0.9961
  172SAPE  C31019461   1.589   1.570  13.644 -0.4116 -0.5748  0.1739
  172SAPE  H10X19462   1.493   1.515  13.650 -1.1414  0.6424 -0.0708
  172SAPE  H10Y19463   1.622   1.582  13.749 -0.5660 -2.5767  0.4902
  172SAPE  C31119464   1.701   1.500  13.566  0.0654 -0.3844 -0.3399
  172SAPE  H11X19465   1.799   1.551  13.581 -0.4782  0.3206  0.9587
  172SAPE  H11Y19466   1.687   1.505  13.456 -2.3020 -0.3554 -0.0780
  172SAPE  C31219467   1.717   1.351  13.600  0.4370  0.7402 -0.1433
  172SAPE  H12X19468   1.798   1.301  13.542  0.6604 -0.3889  1.0690
  172SAPE  H12Y19469   1.621   1.298  13.589  1.5964 -1.8415  1.2296
  172SAPE  C31319470   1.766   1.344  13.752  0.1734  0.5104  0.2078
  172SAPE  H13X19471   1.673   1.367  13.808 -0.2533 -0.2129 -0.1821
  172SAPE  H13Y19472   1.836   1.430  13.759 -0.1027  0.8157 -0.5796
  172SAPE  C31419473   1.832   1.210  13.802 -0.6719 -0.4655 -0.6699
  172SAPE  H14X19474   1.932   1.205  13.756 -0.0837  0.5666  0.4242
  172SAPE  H14Y19475   1.758   1.128  13.794 -0.7647 -0.6522  1.4409
  172SAPE  C31519476   1.850   1.222  13.959 -0.1043 -0.3265  0.8187
  172SAPE  H15X19477   1.894   1.128  14.000  1.3276 -0.2613 -0.4797
  172SAPE  H15Y19478   1.754   1.233  14.014  0.6334 -1.6289  2.4739
  172SAPE  C31619479   1.943   1.347  13.993 -0.6827  0.8768  0.7221
  172SAPE  H16X19480   1.908   1.444  13.953 -0.0038  1.3776  1.3139
  172SAPE  H16Y19481   2.046   1.331  13.954 -1.5107  2.1829 -2.2832
  172SAPE  C31719482   1.950   1.375  14.142 -0.0374  0.2277  0.3210
  172SAPE  H17X19483   1.850   1.412  14.173  0.9951  1.5776  2.2609
  172SAPE  H17Y19484   2.016   1.461  14.167  0.7553 -0.8190  2.0299
  172SAPE  C31819485   2.000   1.254  14.222  0.4139  0.1692  0.6657
  172SAPE  H18X19486   2.081   1.195  14.175 -0.9621 -0.9318 -0.3897
  172SAPE  H18Y19487   1.918   1.181  14.239 -1.2768  1.7106 -0.4438
  172SAPE  H18Z19488   2.037   1.290  14.320 -2.2366 -0.6868  2.0795
  173SLPC     N19489   3.217   0.635  26.520  0.6778 -0.1634 -0.5113
  173SLPC   C1319490   3.175   0.708  26.643  0.1150  0.1807 -0.0156
  173SLPC  H13A19491   3.243   0.791  26.650  2.6282 -1.8436  1.8419
  173SLPC  H13B19492   3.073   0.742  26.653 -1.2101 -3.7632  1.8734
  173SLPC  H13C19493   3.188   0.653  26.735  2.0778  1.1763  0.3652
  173SLPC   C1419494   3.363   0.632  26.510 -0.3852 -0.2955  0.0480
  173SLPC  H14A19495   3.406   0.584  26.423  0.5936 -0.2382  0.4874
  173SLPC  H14B19496   3.399   0.733  26.496  1.0771 -1.0987 -2.7528
  173SLPC  H14C19497   3.406   0.587  26.597  0.4295 -1.4465 -0.9162
  173SLPC   C1519498   3.168   0.721  26.407 -0.0825  0.0102 -0.0130
  173SLPC  H15A19499   3.064   0.693  26.399 -0.6813  0.9843  2.8792
  173SLPC  H15B19500   3.177   0.828  26.419 -1.1998  0.2337 -0.9504
  173SLPC  H15C19501   3.214   0.705  26.311 -1.8664  1.3297 -1.1480
  173SLPC   C1219502   3.167   0.491  26.510  0.2658  0.1845  0.1137
  173SLPC  H12A19503   3.208   0.424  26.583 -0.7202 -1.9953 -1.2193
  173SLPC  H12B19504   3.201   0.455  26.414  0.4281  0.2340  0.1538
  173SLPC   C1119505   3.012   0.482  26.509  0.3402  0.5510  0.0596
  173SLPC  H11A19506   2.972   0.541  26.594  2.0093  1.7994  0.0311
  173SLPC  H11B19507   2.985   0.375  26.525  2.8322 -0.2354 -0.5187
  173SLPC     P19508   2.947   0.418  26.261  0.0552 -0.1518  0.7130
  173SLPC   O1319509   3.089   0.385  26.221  0.0489  0.1775 -0.0924
  173SLPC   O1419510   2.859   0.309  26.302  0.7295  0.2951  0.2973
  173SLPC   O1219511   2.953   0.522  26.380  0.0053  0.6770 -0.3818
  173SLPC   O1119512   2.877   0.501  26.149  0.0580  0.0016 -0.1645
  173SLPC    C119513   2.947   0.617  26.101 -0.3913 -0.8860  0.3752
  173SLPC    HA19514   2.899   0.705  26.149 -0.7562  0.2304 -1.8984
  173SLPC    HB19515   3.055   0.628  26.125 -0.4211  1.6926 -0.3611
  173SLPC    C219516   2.931   0.627  25.949  0.5079 -0.5560 -0.5981
  173SLPC    HS19517   3.016   0.590  25.887  0.6100 -1.0180 -0.1856
  173SLPC   O2119518   2.906   0.765  25.925  0.3414  0.7606 -0.5483
  173SLPC   C2119519   2.988   0.820  25.835 -0.1790 -0.0242  0.4134
  173SLPC   O2219520   3.090   0.772  25.793  0.8950 -0.3819  0.3833
  173SLPC   C2219521   2.937   0.955  25.786  0.1973 -0.8240  0.0327
  173SLPC   H2R19522   2.839   0.966  25.836 -1.5706  0.4039 -3.3913
  173SLPC   H2S19523   3.005   1.040  25.810  0.0550 -0.2192 -1.5789
  173SLPC    C319524   2.807   0.554  25.898  0.1127  0.1763  0.1139
  173SLPC    HX19525   2.720   0.580  25.963  1.6488  1.1380  1.8838
  173SLPC    HY19526   2.813   0.444  25.908  0.3173  0.3318  2.4743
  173SLPC   O3119527   2.784   0.587  25.757  0.2981  0.4399  0.0929
  173SLPC   C3119528   2.661   0.574  25.708 -0.7844 -1.0512 -0.5593
  173SLPC   O3219529   2.560   0.536  25.771 -0.5664  0.1316 -0.2049
  173SLPC   C3219530   2.676   0.600  25.559 -0.3515  0.4331 -0.3068
  173SLPC   H2X19531   2.750   0.529  25.518  0.1227  0.8874 -0.2590
  173SLPC   H2Y19532   2.727   0.698  25.548  1.6685 -0.4849  0.4249
  173SLPC   C2319533   2.927   0.951  25.636  0.2501 -0.8242  0.1406
  173SLPC   H3R19534   2.863   0.867  25.600 -0.8418  1.5143 -4.0074
  173SLPC   H3S19535   3.023   0.943  25.581  0.1207  0.5543 -0.3258
  173SLPC   C2419536   2.863   1.088  25.584 -1.3750 -0.3609  0.2968
  173SLPC   H4R19537   2.934   1.165  25.621 -0.1387 -1.3448  0.0236
  173SLPC   H4S19538   2.773   1.116  25.645 -0.5395  2.0359  0.5380
  173SLPC   C2519539   2.846   1.112  25.435  0.3822 -0.5661  0.3929
  173SLPC   H5R19540   2.797   1.212  25.429  3.7965  1.2316 -0.3770
  173SLPC   H5S19541   2.789   1.029  25.389  0.6601 -0.1697 -0.6978
  173SLPC   C2619542   2.973   1.139  25.364  0.0435  0.4671  0.2942
  173SLPC   H6R19543   3.055   1.114  25.435 -1.9023  0.0219  2.5209
  173SLPC   H6S19544   2.974   1.248  25.347  2.8776  0.9392  2.6813
  173SLPC   C2719545   2.980   1.059  25.232 -0.5631 -0.1720  0.9676
  173SLPC   H7R19546   2.967   0.949  25.239 -0.1871 -0.4136 -1.2795
  173SLPC   H7S19547   3.075   1.088  25.181 -1.2094 -2.3412 -1.7058
  173SLPC   C2819548   2.867   1.109  25.137 -1.1150  0.4208  0.1232
  173SLPC   H8R19549   2.866   1.220  25.142 -2.6244  0.4619 -0.5025
  173SLPC   H8S19550   2.764   1.079  25.166 -0.5779 -1.3365  0.3427
  173SLPC   C2919551   2.903   1.055  24.998 -0.6663  0.1783  0.1402
  173SLPC   H9R19552   2.874   0.954  24.965  0.6416  0.0923 -0.8427
  173SLPC  C21019553   2.966   1.126  24.896 -0.0441  0.1876 -0.7929
  173SLPC  H10R19554   2.980   1.077  24.798 -0.5088 -0.5142 -0.5079
  173SLPC  C21119555   3.011   1.273  24.884 -0.3702  0.1366  0.1227
  173SLPC  H11R19556   3.118   1.280  24.911  0.5544 -2.7576 -2.2223
  173SLPC  H11S19557   2.953   1.331  24.959 -0.8990 -0.1822 -0.0352
  173SLPC  C21219558   2.996   1.340  24.747  0.8051  0.6192 -0.2094
  173SLPC  H12R19559   2.943   1.436  24.736  1.5834  0.9686 -1.0614
  173SLPC  C21319560   3.066   1.316  24.635  0.3035  0.1474 -0.8760
  173SLPC  H13R19561   3.056   1.374  24.543  0.8412  2.5119  0.4726
  173SLPC  C21419562   3.154   1.197  24.621  0.0069 -1.0101 -0.3738
  173SLPC  H14R19563   3.177   1.150  24.719 -1.7218  0.4010  0.7761
  173SLPC  H14S19564   3.252   1.222  24.574  0.1272 -2.9151 -1.2326
  173SLPC  C21519565   3.105   1.089  24.518 -0.2624  0.3393 -0.8655
  173SLPC  H15R19566   2.996   1.078  24.535  0.3094  0.3791  4.3103
  173SLPC  H15S19567   3.155   0.994  24.547  0.7036  0.2652 -2.6066
  173SLPC  C21619568   3.149   1.106  24.371 -0.3447 -0.6796  0.4098
  173SLPC  H16R19569   3.258   1.122  24.359 -0.4065 -1.5217 -1.7829
  173SLPC  H16S19570   3.104   1.202  24.337  2.2563  0.6233  0.4079
  173SLPC  C21719571   3.107   0.997  24.276 -0.2242  0.3054 -0.5304
  173SLPC  H17R19572   3.158   0.905  24.312  0.4766  0.4124 -1.2383
  173SLPC  H17S19573   3.136   1.017  24.171  0.0244 -0.9249 -0.7154
  173SLPC  C21819574   2.955   0.973  24.273  0.5144  0.1946 -0.1958
  173SLPC  H18R19575   2.935   0.880  24.216 -0.5966  0.4782 -0.2886
  173SLPC  H18S19576   2.906   1.057  24.219  3.9034  1.4339 -1.6599
  173SLPC  H18T19577   2.919   0.959  24.377  3.1338  0.0443  0.7767
  173SLPC   C3319578   2.552   0.608  25.470  0.0867  0.5067 -0.1687
  173SLPC   H3X19579   2.471   0.676  25.506 -2.1457 -0.5637 -2.8144
  173SLPC   H3Y19580   2.502   0.510  25.456 -0.6753  1.2450 -3.3553
  173SLPC   C3419581   2.590   0.644  25.327 -0.7094  0.1534  0.0811
  173SLPC   H4X19582   2.667   0.723  25.313 -0.6429 -0.0827 -1.0250
  173SLPC   H4Y19583   2.498   0.674  25.272 -0.7095 -0.8524 -0.4879
  173SLPC   C3519584   2.633   0.522  25.246  0.4687  0.3949  1.0831
  173SLPC   H5X19585   2.553   0.446  25.259 -0.6232  1.2304 -0.4025
  173SLPC   H5Y19586   2.728   0.490  25.294  0.6884  1.5308  1.4358
  173SLPC   C3619587   2.656   0.543  25.093  0.2402  0.1198  0.3169
  173SLPC   H6X19588   2.740   0.475  25.069  1.3224  0.7167  2.2314
  173SLPC   H6Y19589   2.696   0.645  25.079 -0.3807  0.5768  1.6459
  173SLPC   C3719590   2.530   0.537  25.013 -0.0462 -0.8947  0.9497
  173SLPC   H7X19591   2.547   0.564  24.907 -1.7441  0.0448  0.8808
  173SLPC   H7Y19592   2.462   0.612  25.059  2.0598 -0.0809  2.9166
  173SLPC   C3819593   2.476   0.394  25.001 -0.0686 -0.6885  0.2361
  173SLPC   H8X19594   2.402   0.385  24.918 -0.0873  1.6659 -0.0539
  173SLPC   H8Y19595   2.413   0.360  25.086  1.1353 -1.6352  0.7851
  173SLPC   C3919596   2.579   0.292  24.966 -0.2711  0.6907  0.1435
  173SLPC   H9X19597   2.518   0.202  24.942  0.9241  0.1065 -0.8787
  173SLPC   H9Y19598   2.645   0.264  25.051  1.6886  1.4346 -1.0697
  173SLPC  C31019599   2.675   0.321  24.847  0.2180  0.6100  0.0732
  173SLPC  H10X19600   2.703   0.428  24.862 -0.4289  0.7442  0.3524
  173SLPC  H10Y19601   2.616   0.330  24.753  0.9579  1.9373 -0.2950
  173SLPC  C31119602   2.798   0.222  24.837 -0.1215  0.0343  0.1056
  173SLPC  H11X19603   2.832   0.221  24.943 -2.7705  0.8062  1.0410
  173SLPC  H11Y19604   2.867   0.272  24.765 -0.9217  0.1432 -0.6085
  173SLPC  C31219605   2.754   0.078  24.813  0.4139  0.0617 -0.0201
  173SLPC  H12X19606   2.687   0.060  24.726 -1.3590 -0.6309  1.4209
  173SLPC  H12Y19607   2.698   0.043  24.902  1.0227  0.4336  0.5231
  173SLPC  C31319608   2.865  -0.017  24.803 -0.4078  0.2206 -0.0415
  173SLPC  H13X19609   2.817  -0.110  24.839  0.0549  0.7282  2.0588
  173SLPC  H13Y19610   2.948   0.001  24.875 -0.2699 -1.3738  0.2249
  173SLPC  C31419611   2.928  -0.042  24.666  0.2286  0.2353 -0.0548
  173SLPC  H14X19612   2.992   0.042  24.629  0.1135  0.5061  0.3573
  173SLPC  H14Y19613   2.837  -0.039  24.603 -0.0658 -5.1687 -0.3538
  173SLPC  C31519614   2.994  -0.180  24.648 -0.2930  0.5072 -1.0530
  173SLPC  H15X19615   2.922  -0.251  24.694  1.4425 -0.0917  0.9247
  173SLPC  H15Y19616   3.090  -0.187  24.705  0.0936 -2.0149 -1.8851
  173SLPC  C31619617   3.028  -0.223  24.504 -0.4520 -0.2904  0.0748
  173SLPC  H16X19618   2.966  -0.160  24.436 -2.1138 -3.3507 -1.4592
  173SLPC  H16Y19619   2.985  -0.324  24.491  0.2029 -1.0741  3.1989
  173SLPC  C31719620   3.175  -0.196  24.468  0.3362  0.6319  0.5713
  173SLPC  H17X19621   3.236  -0.255  24.541  2.0030  1.4121 -0.1506
  173SLPC  H17Y19622   3.202  -0.089  24.475  1.1161  0.3505  2.6886
  173SLPC  C31819623   3.207  -0.246  24.337 -0.1501 -0.9949  0.6472
  173SLPC  H18X19624   3.161  -0.345  24.317 -0.7923 -0.1874 -2.4078
  173SLPC  H18Y19625   3.313  -0.267  24.313 -0.4239  0.4291 -2.2805
  173SLPC  H18Z19626   3.184  -0.167  24.263  2.1346 -1.1930 -0.3590
  174SLPC     N19627   3.284   1.866  22.671  0.8202 -0.2358 -0.3550
  174SLPC   C1319628   3.242   1.950  22.787 -0.5281 -0.3075  0.0878
  174SLPC  H13A19629   3.150   1.922  22.835 -1.0259 -0.0847 -0.7200
  174SLPC  H13B19630   3.318   1.960  22.863  0.0809  0.9492 -0.6477
  174SLPC  H13C19631   3.239   2.051  22.749  0.4789 -0.8547 -1.5858
  174SLPC   C1419632   3.424   1.893  22.626 -0.2000 -0.1659  0.1360
  174SLPC  H14A19633   3.493   1.855  22.700  1.2608  0.2014 -0.9913
  174SLPC  H14B19634   3.441   1.832  22.539 -2.8899  0.1371 -0.6923
  174SLPC  H14C19635   3.437   1.999  22.614 -1.1726 -0.2181 -1.5967
  174SLPC   C1519636   3.190   1.899  22.554 -0.2507  0.2019 -0.8633
  174SLPC  H15A19637   3.198   2.005  22.534 -2.1279  0.8624  1.4699
  174SLPC  H15B19638   3.214   1.834  22.471 -1.9241  0.2174 -1.3825
  174SLPC  H15C19639   3.088   1.883  22.585 -0.0538 -1.6074 -1.0363
  174SLPC   C1219640   3.261   1.715  22.705  0.1382  0.1100 -0.2417
  174SLPC  H12A19641   3.323   1.691  22.790  0.9674 -0.2159 -0.9246
  174SLPC  H12B19642   3.306   1.657  22.626  0.0438 -0.2290 -0.0477
  174SLPC   C1119643   3.121   1.657  22.726 -0.0836 -0.5830  0.2888
  174SLPC  H11A19644   3.136   1.547  22.740 -0.7011 -1.2183 -3.2463
  174SLPC  H11B19645   3.070   1.658  22.628 -0.4933  0.4449  0.5054
  174SLPC     P19646   3.053   1.682  22.976 -0.1610 -0.2551  0.3376
  174SLPC   O1319647   3.195   1.687  23.022 -0.1104 -0.3638  0.7658
  174SLPC   O1419648   2.947   1.752  23.052  0.2350  0.3414 -0.1521
  174SLPC   O1219649   3.043   1.724  22.822  0.6719  0.0784 -0.3359
  174SLPC   O1119650   3.015   1.534  22.970  0.1847 -0.0588 -0.1519
  174SLPC    C119651   2.889   1.493  22.904  0.3773  0.2294  0.3311
  174SLPC    HA19652   2.877   1.542  22.805 -3.4489  0.2075  0.6285
  174SLPC    HB19653   2.892   1.384  22.881  0.6212  0.1413  0.7646
  174SLPC    C219654   2.763   1.516  22.984  0.3170 -0.6078 -0.3256
  174SLPC    HS19655   2.762   1.625  23.006 -1.1129 -0.6421 -0.1598
  174SLPC   O2119656   2.756   1.435  23.103 -0.4107  0.1650  0.3830
  174SLPC   C2119657   2.674   1.479  23.196 -0.0391  0.3048  0.0330
  174SLPC   O2219658   2.608   1.582  23.186  0.3774  0.2760 -0.1663
  174SLPC   C2219659   2.674   1.399  23.328 -0.4473 -0.1425 -0.0239
  174SLPC   H2R19660   2.770   1.425  23.378 -0.6731  0.7393 -0.0355
  174SLPC   H2S19661   2.592   1.436  23.392  1.3235  0.5276  1.9801
  174SLPC    C319662   2.630   1.491  22.904  0.1700  0.3452  0.1287
  174SLPC    HX19663   2.638   1.581  22.839 -1.4829 -0.1292 -0.7970
  174SLPC    HY19664   2.532   1.510  22.952 -0.2332  0.5531 -0.7534
  174SLPC   O3119665   2.624   1.369  22.828  0.1048 -0.2700  0.2030
  174SLPC   C3119666   2.538   1.367  22.728 -0.8190 -0.6844  0.2705
  174SLPC   O3219667   2.481   1.455  22.669  0.1747  0.7792  0.0710
  174SLPC   C3219668   2.509   1.217  22.688  0.3341  0.0598 -0.0488
  174SLPC   H2X19669   2.428   1.184  22.758  0.3037 -1.1217 -0.6045
  174SLPC   H2Y19670   2.598   1.153  22.702  2.3591  2.4761 -1.2482
  174SLPC   C2319671   2.680   1.244  23.310  0.5441  0.2592  0.1935
  174SLPC   H3R19672   2.762   1.224  23.237 -1.4441 -0.7554 -1.8681
  174SLPC   H3S19673   2.587   1.216  23.256  0.7002 -0.6511  0.3922
  174SLPC   C2419674   2.683   1.155  23.435  0.6252  0.6800 -0.2536
  174SLPC   H4R19675   2.635   1.056  23.420  0.6614  0.3004  1.8440
  174SLPC   H4S19676   2.618   1.217  23.500 -0.1342 -2.2616  2.0127
  174SLPC   C2519677   2.820   1.128  23.494 -0.3157 -0.5021  0.9942
  174SLPC   H5R19678   2.864   1.229  23.510  1.1554 -0.9915  0.2094
  174SLPC   H5S19679   2.878   1.082  23.411 -0.3277  0.6447  0.3220
  174SLPC   C2619680   2.812   1.045  23.626 -0.9139 -0.1080 -0.0375
  174SLPC   H6R19681   2.765   0.946  23.608  1.4421 -1.7172  1.9076
  174SLPC   H6S19682   2.752   1.113  23.691 -0.7221  2.9251 -2.7700
  174SLPC   C2719683   2.947   1.020  23.693  0.2044 -0.2984  0.2782
  174SLPC   H7R19684   2.988   1.112  23.738 -0.1570 -0.3017  0.6203
  174SLPC   H7S19685   3.013   0.982  23.613 -0.4097  2.2791 -1.5641
  174SLPC   C2819686   2.929   0.917  23.806  0.4062 -0.2773 -0.0885
  174SLPC   H8R19687   3.033   0.891  23.835  1.2521  1.6024 -1.2492
  174SLPC   H8S19688   2.882   0.830  23.756  1.3518  0.2741 -2.0574
  174SLPC   C2919689   2.840   0.974  23.915  0.3036  0.4315 -0.1528
  174SLPC   H9R19690   2.865   1.077  23.945 -0.4379  0.6294 -0.2065
  174SLPC  C21019691   2.747   0.905  23.984 -0.6691 -0.4563 -0.1514
  174SLPC  H10R19692   2.689   0.959  24.060  0.1196 -3.0130  2.4357
  174SLPC  C21119693   2.716   0.765  23.958  0.3257 -0.4581  0.2188
  174SLPC  H11R19694   2.717   0.743  23.849 -0.1692  0.3056  0.0530
  174SLPC  H11S19695   2.613   0.744  23.993  1.2769 -4.0706  1.3240
  174SLPC  C21219696   2.817   0.688  24.043 -0.2793 -0.4306 -0.3125
  174SLPC  H12R19697   2.910   0.656  23.993 -0.0998 -2.3243  1.1088
  174SLPC  C21319698   2.807   0.651  24.168 -1.0132  0.5851  0.5769
  174SLPC  H13R19699   2.892   0.596  24.211  1.4151  4.0871  0.6273
  174SLPC  C21419700   2.689   0.669  24.253 -0.8054  0.3375 -0.2734
  174SLPC  H14R19701   2.614   0.722  24.191 -2.3527 -2.9644 -1.4926
  174SLPC  H14S19702   2.694   0.714  24.354 -0.6604  1.1229 -0.6227
  174SLPC  C21519703   2.615   0.529  24.262 -0.2633  0.2639 -0.8423
  174SLPC  H15R19704   2.611   0.486  24.159  1.6239 -1.0462 -0.3989
  174SLPC  H15S19705   2.513   0.536  24.305 -0.2917  0.6862 -0.9752
  174SLPC  C21619706   2.707   0.439  24.352 -0.1714 -1.1905 -0.0794
  174SLPC  H16R19707   2.683   0.460  24.459 -2.1804  0.7999 -0.8556
  174SLPC  H16S19708   2.810   0.463  24.320 -1.2025 -0.4118 -3.0944
  174SLPC  C21719709   2.674   0.294  24.322  0.1002  0.0998  0.4307
  174SLPC  H17R19710   2.712   0.278  24.219  0.7695  2.1696  0.2989
  174SLPC  H17S19711   2.565   0.291  24.301  0.1936 -0.0266 -0.0464
  174SLPC  C21819712   2.728   0.192  24.427 -0.1148  0.0826  0.5970
  174SLPC  H18R19713   2.713   0.087  24.394  3.8913 -1.4287  2.8610
  174SLPC  H18S19714   2.687   0.218  24.526 -1.7936 -3.2356  0.8875
  174SLPC  H18T19715   2.837   0.213  24.434 -0.3646  2.0788 -0.6415
  174SLPC   C3319716   2.454   1.207  22.547 -0.8539 -0.7421 -0.2151
  174SLPC   H3X19717   2.530   1.256  22.481 -0.6865  0.4721  0.8487
  174SLPC   H3Y19718   2.365   1.270  22.530  1.3034  1.8740 -3.0059
  174SLPC   C3419719   2.419   1.065  22.507  0.0356  0.4446  0.1223
  174SLPC   H4X19720   2.504   0.993  22.498 -1.4503 -1.1046 -2.7249
  174SLPC   H4Y19721   2.372   1.059  22.407  0.4093 -2.2926  0.0373
  174SLPC   C3519722   2.310   1.008  22.604  0.4336 -0.1263  0.1265
  174SLPC   H5X19723   2.221   1.076  22.606 -0.0829 -0.8166  1.2314
  174SLPC   H5Y19724   2.339   1.010  22.711 -3.6124 -2.8896  1.5024
  174SLPC   C3619725   2.254   0.871  22.571 -0.0002  0.0353  0.3338
  174SLPC   H6X19726   2.338   0.803  22.545  0.6498  0.9424  0.0281
  174SLPC   H6Y19727   2.190   0.877  22.481  0.4705 -0.1902 -0.0200
  174SLPC   C3719728   2.164   0.816  22.677  0.3422 -0.6059  0.0764
  174SLPC   H7X19729   2.108   0.902  22.720 -0.4527 -0.4855 -1.1452
  174SLPC   H7Y19730   2.219   0.777  22.765  1.8234 -1.1884 -1.0720
  174SLPC   C3819731   2.058   0.722  22.618  1.1142  0.3625 -0.1184
  174SLPC   H8X19732   2.104   0.647  22.550 -2.1216 -2.1150  0.1981
  174SLPC   H8Y19733   1.986   0.785  22.560  0.3283 -0.3096  0.1081
  174SLPC   C3919734   1.986   0.635  22.720  0.7254  0.0566 -0.6286
  174SLPC   H9X19735   1.898   0.589  22.670  1.6913 -2.2695 -0.3543
  174SLPC   H9Y19736   1.952   0.691  22.810  0.4125 -3.3806  1.6033
  174SLPC  C31019737   2.084   0.527  22.773 -0.1473  0.4964 -0.3189
  174SLPC  H10X19738   2.184   0.563  22.806 -0.3022  2.7261 -2.0469
  174SLPC  H10Y19739   2.092   0.448  22.696 -0.3221  0.4682 -0.3064
  174SLPC  C31119740   2.025   0.460  22.895  0.1634  0.6407  0.6365
  174SLPC  H11X19741   1.915   0.450  22.883  0.2302 -2.4201  1.6664
  174SLPC  H11Y19742   2.029   0.530  22.981  2.5493 -0.0875  1.2032
  174SLPC  C31219743   2.066   0.312  22.932  0.4614 -0.5860  0.4940
  174SLPC  H12X19744   2.021   0.291  23.031 -1.1312 -2.3670 -0.5343
  174SLPC  H12Y19745   2.176   0.319  22.941  0.4611 -1.0945  0.9532
  174SLPC  C31319746   2.023   0.197  22.840  0.2649  0.2543 -0.4260
  174SLPC  H13X19747   2.072   0.203  22.740  0.7496  0.7007 -0.1629
  174SLPC  H13Y19748   1.914   0.213  22.832  0.4202  0.8670 -1.4721
  174SLPC  C31419749   2.045   0.060  22.907  0.6341  0.3930 -0.6826
  174SLPC  H14X19750   2.147   0.048  22.951 -0.2705 -3.4320  0.8059
  174SLPC  H14Y19751   2.050  -0.025  22.836  1.8975  0.0083 -0.1671
  174SLPC  C31519752   1.935   0.033  23.010 -0.0955  0.0859 -0.2413
  174SLPC  H15X19753   1.842   0.003  22.958 -0.5189  0.9543  0.0047
  174SLPC  H15Y19754   1.923   0.125  23.070  1.1780  3.0337 -4.0625
  174SLPC  C31619755   1.974  -0.091  23.091  0.2048 -0.3255  0.0130
  174SLPC  H16X19756   2.069  -0.060  23.138  0.1121  0.5949 -0.4046
  174SLPC  H16Y19757   1.993  -0.182  23.030  0.5274 -0.0444 -0.3070
  174SLPC  C31719758   1.880  -0.124  23.214 -0.1319  0.3603 -0.0621
  174SLPC  H17X19759   1.788  -0.153  23.161 -0.2592 -1.7775  1.2161
  174SLPC  H17Y19760   1.865  -0.034  23.277  3.4558  0.2896  1.1111
  174SLPC  C31819761   1.919  -0.247  23.301  0.2219  0.2636  0.3473
  174SLPC  H18X19762   1.920  -0.340  23.240  1.5158 -0.7653  1.8659
  174SLPC  H18Y19763   1.841  -0.272  23.376  0.0355 -0.3941 -0.0564
  174SLPC  H18Z19764   2.013  -0.242  23.359 -0.1698 -0.8573  1.1073
  175SLPC     N19765   1.329   1.778  19.762  0.2964  0.1050  0.1766
  175SLPC   C1319766   1.226   1.879  19.811  0.2718  0.1946  0.1905
  175SLPC  H13A19767   1.270   1.957  19.872  0.2814 -0.4243  0.9784
  175SLPC  H13B19768   1.185   1.920  19.719 -1.3657 -1.4321  0.1489
  175SLPC  H13C19769   1.140   1.830  19.854 -1.2477 -0.3973 -3.1941
  175SLPC   C1419770   1.414   1.725  19.872 -0.0000 -0.3977 -0.7921
  175SLPC  H14A19771   1.434   1.804  19.943 -0.9499  1.3552 -2.3650
  175SLPC  H14B19772   1.354   1.648  19.918  0.7065 -0.9738 -0.8233
  175SLPC  H14C19773   1.504   1.677  19.837  0.7418  0.2257  0.2236
  175SLPC   C1519774   1.412   1.849  19.661  0.4260  0.0697 -0.4943
  175SLPC  H15A19775   1.364   1.870  19.567 -1.4731 -0.6728  0.2675
  175SLPC  H15B19776   1.453   1.943  19.694  2.9812 -0.3725 -2.1456
  175SLPC  H15C19777   1.498   1.786  19.640 -1.3270 -3.4777  1.8194
  175SLPC   C1219778   1.257   1.670  19.680 -0.1698  1.1157  1.2120
  175SLPC  H12A19779   1.334   1.606  19.640 -0.8234  1.5993 -0.9884
  175SLPC  H12B19780   1.221   1.728  19.596  3.6183 -1.7303 -2.8504
  175SLPC   C1119781   1.144   1.583  19.745 -0.0718 -0.1404 -0.1405
  175SLPC  H11A19782   1.165   1.528  19.839 -0.1815 -5.1064 -2.6759
  175SLPC  H11B19783   1.123   1.500  19.673  1.1906 -2.4564  2.0120
  175SLPC     P19784   0.945   1.714  19.648 -0.1471 -0.0060 -0.0193
  175SLPC   O1319785   0.822   1.768  19.714 -0.3677 -0.0416 -0.0869
  175SLPC   O1419786   1.020   1.805  19.559  0.1274  0.0486 -0.1918
  175SLPC   O1219787   1.032   1.667  19.768 -0.1852 -0.3787 -0.0929
  175SLPC   O1119788   0.908   1.583  19.577 -0.3087 -0.5441 -0.0121
  175SLPC    C119789   0.780   1.526  19.578 -1.0800 -0.2598 -0.2057
  175SLPC    HA19790   0.702   1.589  19.627  2.0907  0.9026  3.9632
  175SLPC    HB19791   0.744   1.513  19.474 -2.2318 -0.3387  0.1808
  175SLPC    C219792   0.792   1.390  19.658 -0.0312 -0.4868  0.0524
  175SLPC    HS19793   0.687   1.354  19.662  0.6534 -2.8323 -0.9452
  175SLPC   O2119794   0.864   1.399  19.779  0.2775 -0.0125 -0.1371
  175SLPC   C2119795   0.798   1.437  19.883 -0.4857 -0.0615 -0.0854
  175SLPC   O2219796   0.678   1.472  19.889  0.3639  0.2640  0.1743
  175SLPC   C2219797   0.888   1.446  20.004 -0.5496  0.8093 -0.9030
  175SLPC   H2R19798   0.978   1.504  19.975 -0.2542  0.6917 -0.2331
  175SLPC   H2S19799   0.832   1.493  20.087 -2.4981 -1.3289 -0.8940
  175SLPC    C319800   0.859   1.280  19.573  0.7608 -0.0581  0.4824
  175SLPC    HX19801   0.963   1.320  19.567 -0.2731  2.7300 -0.3583
  175SLPC    HY19802   0.818   1.268  19.470  1.1198  1.3782  0.1573
  175SLPC   O3119803   0.859   1.147  19.634  0.2896 -0.1691 -0.7953
  175SLPC   C3119804   0.973   1.075  19.617  0.3352  0.5719  0.3250
  175SLPC   O3219805   1.072   1.126  19.557  0.1234  0.8272  0.2222
  175SLPC   C3219806   0.949   0.938  19.672 -0.4737  0.5050 -0.2832
  175SLPC   H2X19807   0.887   0.953  19.763 -2.0839 -2.0035 -0.8652
  175SLPC   H2Y19808   1.051   0.899  19.691 -0.4849 -0.1069 -1.3816
  175SLPC   C2319809   0.939   1.296  20.055  0.1793 -0.2972  0.1858
  175SLPC   H3R19810   0.924   1.231  19.966 -0.6717  3.1167 -2.3743
  175SLPC   H3S19811   0.877   1.255  20.137  1.4728  1.0722  1.9205
  175SLPC   C2419812   1.086   1.292  20.082 -0.2721  0.0753 -0.5300
  175SLPC   H4R19813   1.108   1.367  20.161  1.7047 -0.2987 -0.6620
  175SLPC   H4S19814   1.142   1.314  19.989  0.4513  0.6625  0.0316
  175SLPC   C2519815   1.130   1.150  20.136  0.8640  0.5227 -0.0661
  175SLPC   H5R19816   1.103   1.079  20.055  2.4312  0.4045 -0.5237
  175SLPC   H5S19817   1.064   1.120  20.220 -0.5297  0.8099 -1.0253
  175SLPC   C2619818   1.277   1.139  20.183  0.0985 -0.0046 -0.5047
  175SLPC   H6R19819   1.350   1.155  20.100  0.3477 -0.8633 -0.4631
  175SLPC   H6S19820   1.297   1.032  20.206  0.0403  0.2181  0.6242
  175SLPC   C2719821   1.315   1.217  20.310  0.6117  0.3671 -0.8026
  175SLPC   H7R19822   1.231   1.230  20.381  0.3498 -1.1534 -0.7918
  175SLPC   H7S19823   1.344   1.318  20.274 -1.5058  0.5354 -2.2335
  175SLPC   C2819824   1.420   1.145  20.393  0.0866  0.1948 -0.1767
  175SLPC   H8R19825   1.485   1.089  20.323 -0.1465 -0.8503  0.4158
  175SLPC   H8S19826   1.361   1.069  20.449 -1.1368 -0.5249 -2.3523
  175SLPC   C2919827   1.502   1.231  20.491  0.0589 -0.0727 -0.5447
  175SLPC   H9R19828   1.548   1.323  20.452  1.2366 -0.2174  0.4356
  175SLPC  C21019829   1.505   1.204  20.623  0.5247 -0.0479 -0.4106
  175SLPC  H10R19830   1.556   1.273  20.693 -1.2982 -0.3533  1.3019
  175SLPC  C21119831   1.449   1.080  20.702  0.1995 -0.0205  0.5837
  175SLPC  H11R19832   1.439   0.994  20.632  3.8156  0.1591 -0.3880
  175SLPC  H11S19833   1.347   1.105  20.736 -0.3183 -0.7450 -0.3897
  175SLPC  C21219834   1.541   1.041  20.820 -0.1498  0.6261 -0.6595
  175SLPC  H12R19835   1.569   1.127  20.884  0.1981  1.4771 -1.9223
  175SLPC  C21319836   1.593   0.913  20.843 -0.0819 -0.4787 -1.0074
  175SLPC  H13R19837   1.654   0.902  20.934 -0.0111  0.8029 -0.8884
  175SLPC  C21419838   1.564   0.785  20.774 -0.0765 -0.4885 -0.7887
  175SLPC  H14R19839   1.499   0.804  20.686  0.6328  1.1496 -0.9976
  175SLPC  H14S19840   1.519   0.710  20.843  3.1827 -1.1019  0.8831
  175SLPC  C21519841   1.696   0.722  20.725  0.2227 -0.4093 -0.1178
  175SLPC  H15R19842   1.776   0.716  20.802  1.3725 -0.5552 -1.2934
  175SLPC  H15S19843   1.728   0.794  20.647  0.9464 -2.0751 -1.4184
  175SLPC  C21619844   1.663   0.591  20.657 -0.1118  0.0438  0.3442
  175SLPC  H16R19845   1.591   0.610  20.575  0.2333  0.8714  0.2196
  175SLPC  H16S19846   1.625   0.513  20.727 -1.2190 -1.8711 -2.2326
  175SLPC  C21719847   1.787   0.529  20.579 -0.0232  0.1982 -0.2881
  175SLPC  H17R19848   1.835   0.614  20.525  1.4111 -0.6983 -0.4695
  175SLPC  H17S19849   1.752   0.458  20.501  1.1723  0.6230 -1.2401
  175SLPC  C21819850   1.877   0.455  20.684 -0.5024 -0.5430  0.7045
  175SLPC  H18R19851   1.903   0.513  20.775 -0.2823 -1.0217  0.9505
  175SLPC  H18S19852   1.973   0.443  20.630 -1.0953  1.1340 -0.8249
  175SLPC  H18T19853   1.839   0.355  20.714 -0.8188 -2.2543 -4.4505
  175SLPC   C3319854   0.880   0.839  19.567 -0.0098  0.5718 -0.4135
  175SLPC   H3X19855   0.957   0.808  19.493 -1.2002 -0.6335 -1.1938
  175SLPC   H3Y19856   0.797   0.885  19.510 -1.9305 -0.8560  1.0832
  175SLPC   C3419857   0.845   0.700  19.628 -0.3714 -0.7965 -0.9465
  175SLPC   H4X19858   0.937   0.646  19.657  0.5706  1.9205  1.6810
  175SLPC   H4Y19859   0.801   0.643  19.544 -1.5746  0.6251 -1.3315
  175SLPC   C3519860   0.737   0.702  19.734  0.0061  0.0760 -1.1369
  175SLPC   H5X19861   0.676   0.791  19.706  0.4806  0.3864 -1.1919
  175SLPC   H5Y19862   0.793   0.715  19.829  2.2737 -0.2718 -2.3389
  175SLPC   C3619863   0.653   0.575  19.748 -0.1403 -0.0060 -0.2620
  175SLPC   H6X19864   0.590   0.582  19.657  1.6675 -0.5377 -1.6305
  175SLPC   H6Y19865   0.592   0.597  19.837  0.7562  1.0094  0.1226
  175SLPC   C3719866   0.714   0.439  19.758  0.3357 -0.8759  1.2403
  175SLPC   H7X19867   0.764   0.430  19.857 -1.6097 -0.1593  2.3467
  175SLPC   H7Y19868   0.778   0.415  19.670 -0.9506  3.4479 -1.1683
  175SLPC   C3819869   0.608   0.333  19.741  0.0962 -0.1251 -0.4154
  175SLPC   H8X19870   0.541   0.365  19.658  1.4160  0.6096 -1.2220
  175SLPC   H8Y19871   0.542   0.328  19.831  0.9197 -0.4831  0.1754
  175SLPC   C3919872   0.668   0.193  19.722  0.0019 -0.4550  0.2308
  175SLPC   H9X19873   0.723   0.167  19.815 -0.4223 -0.4404  0.4885
  175SLPC   H9Y19874   0.741   0.193  19.638  0.3784 -2.0027  0.5379
  175SLPC  C31019875   0.565   0.083  19.682  0.7728  0.0195 -0.1568
  175SLPC  H10X19876   0.513   0.117  19.590  0.3577  1.6004  0.6301
  175SLPC  H10Y19877   0.485   0.082  19.759  1.4939 -0.2267  0.6099
  175SLPC  C31119878   0.634  -0.059  19.665  0.3492  0.0304  1.0511
  175SLPC  H11X19879   0.660  -0.091  19.767  1.0850 -1.2645  0.4802
  175SLPC  H11Y19880   0.718  -0.030  19.599  0.4191 -1.4966  0.4391
  175SLPC  C31219881   0.547  -0.165  19.590 -0.0436  0.3191 -0.3989
  175SLPC  H12X19882   0.505  -0.122  19.496 -2.4717 -2.3475 -0.6987
  175SLPC  H12Y19883   0.455  -0.190  19.646  0.9902 -2.1322  0.3068
  175SLPC  C31319884   0.617  -0.297  19.581 -0.2880 -0.3853 -0.0330
  175SLPC  H13X19885   0.655  -0.329  19.680  2.4467  4.0807  0.6698
  175SLPC  H13Y19886   0.704  -0.276  19.515 -0.9391  1.4136 -0.3894
  175SLPC  C31419887   0.521  -0.402  19.520 -0.0180 -0.0457  1.0059
  175SLPC  H14X19888   0.462  -0.420  19.612  1.7629  2.4443  2.7464
  175SLPC  H14Y19889   0.573  -0.498  19.500  0.0977  0.4747 -1.5598
  175SLPC  C31519890   0.450  -0.353  19.392 -0.4804 -0.1257 -0.3883
  175SLPC  H15X19891   0.391  -0.262  19.419 -0.6420 -0.6058  0.9644
  175SLPC  H15Y19892   0.375  -0.424  19.350  1.0321 -1.6510 -0.6160
  175SLPC  C31619893   0.559  -0.315  19.281  0.2463 -0.1973  0.3454
  175SLPC  H16X19894   0.631  -0.395  19.251  1.0310  0.6992 -0.2036
  175SLPC  H16Y19895   0.616  -0.222  19.301 -1.3923  1.6516 -2.8307
  175SLPC  C31719896   0.493  -0.280  19.150  0.6205  0.2622 -0.4842
  175SLPC  H17X19897   0.426  -0.194  19.169 -0.5709 -1.0490  1.7168
  175SLPC  H17Y19898   0.412  -0.353  19.127 -2.4354  3.5557 -1.2349
  175SLPC  C31819899   0.586  -0.261  19.030  0.2790 -0.0817 -0.0329
  175SLPC  H18X19900   0.527  -0.260  18.936  0.9236 -0.7613 -0.4553
  175SLPC  H18Y19901   0.668  -0.335  19.024  1.3623  1.1235 -0.7827
  175SLPC  H18Z19902   0.638  -0.163  19.041 -0.3209  0.2919 -0.4295
  176SLPC     N19903   0.292   1.291  26.185  0.0187  0.4649  0.2838
  176SLPC   C1319904   0.311   1.429  26.228 -0.1627  0.2854  0.1362
  176SLPC  H13A19905   0.221   1.466  26.275  1.0632  1.7140  1.4490
  176SLPC  H13B19906   0.386   1.446  26.303 -0.5253 -1.6836  1.0079
  176SLPC  H13C19907   0.344   1.490  26.145  0.7810 -1.1999 -0.6358
  176SLPC   C1419908   0.396   1.247  26.081  0.2280  0.5689 -0.1944
  176SLPC  H14A19909   0.372   1.147  26.048  1.1568  0.2212  0.1398
  176SLPC  H14B19910   0.401   1.313  25.996  0.2615  0.1219 -0.5490
  176SLPC  H14C19911   0.492   1.252  26.132 -0.2129 -1.1416  0.9056
  176SLPC   C1519912   0.159   1.266  26.125 -0.9105 -0.4467 -0.8899
  176SLPC  H15A19913   0.158   1.297  26.022 -0.9241 -0.9334 -1.0408
  176SLPC  H15B19914   0.141   1.162  26.147  3.5123 -0.9681  1.5413
  176SLPC  H15C19915   0.081   1.316  26.179  1.4705  0.6735  1.7861
  176SLPC   C1219916   0.308   1.197  26.306  0.4781  0.6395 -0.5047
  176SLPC  H12A19917   0.253   1.245  26.385 -1.3437 -1.4910 -0.3613
  176SLPC  H12B19918   0.405   1.191  26.353 -0.1814 -0.1175  0.8110
  176SLPC   C1119919   0.273   1.049  26.293 -0.0657 -0.1174  0.3909
  176SLPC  H11A19920   0.319   0.990  26.375  1.9881  0.0348 -0.5699
  176SLPC  H11B19921   0.317   1.025  26.193 -0.7417  0.2222  0.0033
  176SLPC     P19922   0.065   0.922  26.204  0.3396 -0.2282  0.1255
  176SLPC   O1319923   0.143   0.799  26.204  0.6614  0.5349  0.0553
  176SLPC   O1419924  -0.078   0.913  26.231 -0.0681 -0.6855  0.3058
  176SLPC   O1219925   0.135   1.032  26.299  0.0718 -0.6709 -0.0390
  176SLPC   O1119926   0.083   0.986  26.066  0.4804 -0.3046 -0.1990
  176SLPC    C119927  -0.028   1.037  25.993 -1.3545 -0.2863  0.5321
  176SLPC    HA19928  -0.124   1.059  26.046 -1.6792 -0.4789  0.0281
  176SLPC    HB19929   0.003   1.132  25.946 -0.0921 -0.9123  0.0497
  176SLPC    C219930  -0.053   0.932  25.883  0.6557 -0.2735 -0.2983
  176SLPC    HS19931  -0.074   0.833  25.930 -2.7628  0.2630 -0.4342
  176SLPC   O2119932   0.069   0.921  25.806  0.3171  0.1548 -0.0983
  176SLPC   C2119933   0.080   0.805  25.733 -0.4784 -0.6575  0.4179
  176SLPC   O2219934   0.006   0.706  25.735 -0.1584 -0.5311 -0.0069
  176SLPC   C2219935   0.197   0.832  25.637  0.1114  0.3849 -0.4038
  176SLPC   H2R19936   0.195   0.935  25.594 -0.8132  1.0449  1.1518
  176SLPC   H2S19937   0.287   0.825  25.701  0.1280  2.3673 -0.1627
  176SLPC    C319938  -0.169   0.974  25.784 -0.5155  0.6756  0.1499
  176SLPC    HX19939  -0.270   0.964  25.831  0.2316 -0.9104  1.5376
  176SLPC    HY19940  -0.170   0.891  25.710  2.4879 -0.0613  0.8175
  176SLPC   O3119941  -0.153   1.108  25.727  0.5314 -0.2761 -0.2962
  176SLPC   C3119942  -0.089   1.109  25.611 -0.0468  0.2995 -0.0285
  176SLPC   O3219943  -0.041   1.006  25.562 -0.5934 -0.4941 -0.4452
  176SLPC   C3219944  -0.105   1.251  25.540 -0.4555  0.0924  0.5895
  176SLPC   H2X19945  -0.022   1.306  25.589  1.5443 -3.0246  1.0536
  176SLPC   H2Y19946  -0.201   1.300  25.566 -0.2895 -0.1352  1.6930
  176SLPC   C2319947   0.207   0.722  25.530  0.1811 -0.7686  0.5193
  176SLPC   H3R19948   0.116   0.702  25.469  0.4617  0.5246 -0.3671
  176SLPC   H3S19949   0.220   0.626  25.583 -0.4579 -0.9598  0.3365
  176SLPC   C2419950   0.335   0.738  25.441  0.6813 -0.4297 -0.1125
  176SLPC   H4R19951   0.359   0.644  25.386 -1.0143 -0.3079 -1.1302
  176SLPC   H4S19952   0.423   0.757  25.506  1.7706 -0.5365 -1.4900
  176SLPC   C2519953   0.334   0.840  25.323  0.2407 -0.3592  0.0040
  176SLPC   H5R19954   0.439   0.869  25.299  1.0054 -2.1203  1.0388
  176SLPC   H5S19955   0.283   0.929  25.367 -0.7460 -0.6868 -0.4471
  176SLPC   C2619956   0.237   0.793  25.204 -0.3755  0.2998 -0.6660
  176SLPC   H6R19957   0.136   0.759  25.236 -0.0098 -0.6072 -0.4336
  176SLPC   H6S19958   0.272   0.690  25.180 -1.0006 -0.5511  1.8487
  176SLPC   C2719959   0.225   0.878  25.076 -0.0968  0.9874  0.4213
  176SLPC   H7R19960   0.186   0.978  25.103  0.8382  1.2376  0.8730
  176SLPC   H7S19961   0.164   0.813  25.010  2.3910 -0.1200 -0.9608
  176SLPC   C2819962   0.367   0.895  25.018  0.8963  0.2945 -0.7962
  176SLPC   H8R19963   0.422   0.802  25.044  0.2506  0.4577  1.3734
  176SLPC   H8S19964   0.414   0.977  25.075 -1.7237  0.4931  1.2586
  176SLPC   C2919965   0.357   0.911  24.868  0.5732 -0.0473  0.8699
  176SLPC   H9R19966   0.307   1.001  24.830 -0.0564 -0.4797  0.6710
  176SLPC  C21019967   0.393   0.814  24.776 -0.1734 -0.3246  0.1815
  176SLPC  H10R19968   0.389   0.840  24.669  2.6494  0.7837  0.2586
  176SLPC  C21119969   0.458   0.681  24.804  0.0857 -0.2622 -0.0857
  176SLPC  H11R19970   0.425   0.646  24.904 -1.3191 -2.4804 -1.2608
  176SLPC  H11S19971   0.568   0.677  24.820 -0.2876 -2.5768  2.6101
  176SLPC  C21219972   0.421   0.594  24.687 -0.5147  0.7295  0.9615
  176SLPC  H12R19973   0.485   0.585  24.598 -3.8107  0.3234 -1.5426
  176SLPC  C21319974   0.320   0.504  24.692  0.3535  0.6879  0.5412
  176SLPC  H13R19975   0.295   0.438  24.607 -2.5400  1.4163  0.7244
  176SLPC  C21419976   0.227   0.484  24.809 -0.4013 -0.4758  0.4077
  176SLPC  H14R19977   0.125   0.471  24.769 -0.7245  0.7073  0.7991
  176SLPC  H14S19978   0.227   0.580  24.865 -3.2445 -0.6483  0.8341
  176SLPC  C21519979   0.278   0.370  24.897  0.0463 -0.5395 -0.1424
  176SLPC  H15R19980   0.384   0.389  24.924 -0.5337  2.8820  0.1660
  176SLPC  H15S19981   0.271   0.276  24.839  2.6883 -0.9535  0.0700
  176SLPC  C21619982   0.196   0.359  25.027  0.8530  0.4251  0.2188
  176SLPC  H16R19983   0.129   0.446  25.041  0.1155 -0.2124  0.7323
  176SLPC  H16S19984   0.266   0.367  25.113 -0.2583  3.1540  0.9625
  176SLPC  C21719985   0.120   0.229  25.045 -0.4002  0.0601  0.3720
  176SLPC  H17R19986   0.193   0.145  25.041 -0.5420 -0.1842  2.2768
  176SLPC  H17S19987   0.038   0.228  24.970 -2.3976 -1.8599  2.4065
  176SLPC  C21819988   0.068   0.182  25.183  0.4482  0.5228 -0.0313
  176SLPC  H18R19989   0.013   0.086  25.173  0.7000  0.4857 -1.2431
  176SLPC  H18S19990   0.002   0.265  25.216  2.0668  1.4145  1.0670
  176SLPC  H18T19991   0.152   0.173  25.255  2.0280  1.3646 -1.6782
  176SLPC   C3319992  -0.082   1.249  25.387  0.3015  0.2286  0.4344
  176SLPC   H3X19993   0.004   1.181  25.367  0.2449  0.5587 -1.0434
  176SLPC   H3Y19994  -0.058   1.349  25.346  1.2579 -0.5911 -1.1118
  176SLPC   C3419995  -0.210   1.210  25.318  0.5017 -0.5667  0.4616
  176SLPC   H4X19996  -0.283   1.284  25.358  0.7593 -0.3814  0.5868
  176SLPC   H4Y19997  -0.242   1.107  25.343  1.2400 -0.7538  0.6642
  176SLPC   C3519998  -0.203   1.223  25.167 -0.3227 -0.2948 -0.6875
  176SLPC   H5X19999  -0.148   1.314  25.134 -2.0209  0.9628 -0.1675
  176SLPC   H5Y20000  -0.299   1.228  25.112  0.3989  2.5150 -1.8566
  176SLPC   C3620001  -0.120   1.103  25.102 -0.2121  0.2596 -1.0505
  176SLPC   H6X20002  -0.140   1.012  25.163  1.0022  0.5576 -0.1544
  176SLPC   H6Y20003  -0.009   1.113  25.099 -0.1478 -0.5701 -1.7072
  176SLPC   C3720004  -0.159   1.078  24.960  0.0237 -0.2598 -0.5268
  176SLPC   H7X20005  -0.155   1.171  24.899 -3.3965  0.5023  0.1932
  176SLPC   H7Y20006  -0.267   1.051  24.954  0.0187 -0.2464 -0.4961
  176SLPC   C3820007  -0.071   0.977  24.892 -0.9134  0.4444 -0.3986
  176SLPC   H8X20008  -0.071   0.875  24.936 -0.7420 -0.1045 -1.6147
  176SLPC   H8Y20009   0.032   1.012  24.911 -0.4679  0.0456 -1.9326
  176SLPC   C3920010  -0.097   0.966  24.743  0.1769  0.5284  0.2040
  176SLPC   H9X20011  -0.078   1.062  24.691 -0.1168  0.5417  0.1164
  176SLPC   H9Y20012  -0.205   0.944  24.726 -0.4729  3.0140  0.7003
  176SLPC  C31020013   0.001   0.866  24.680  0.1448 -0.0356  0.2985
  176SLPC  H10X20014  -0.002   0.769  24.736  2.6846 -0.0637  0.5296
  176SLPC  H10Y20015   0.103   0.908  24.694 -0.3034  0.9709  0.6299
  176SLPC  C31120016  -0.028   0.843  24.532  0.1225 -0.2880  0.0624
  176SLPC  H11X20017  -0.046   0.930  24.466  1.3452 -1.1210 -1.4570
  176SLPC  H11Y20018  -0.119   0.781  24.543 -0.4730  0.8416  1.9125
  176SLPC  C31220019   0.077   0.751  24.466  0.0232  0.4426 -0.4670
  176SLPC  H12X20020   0.084   0.658  24.526  1.0731  0.7496 -0.0824
  176SLPC  H12Y20021   0.174   0.803  24.484  0.2444  0.0339 -0.4468
  176SLPC  C31320022   0.071   0.725  24.310  0.1539 -0.0002  0.2526
  176SLPC  H13X20023   0.158   0.662  24.280  0.2609  0.0449  0.4634
  176SLPC  H13Y20024   0.073   0.817  24.249 -2.3401  0.9409  1.4549
  176SLPC  C31420025  -0.070   0.660  24.273 -0.8573 -0.2309 -0.5367
  176SLPC  H14X20026  -0.148   0.737  24.289 -0.0183  0.7607 -1.1225
  176SLPC  H14Y20027  -0.079   0.570  24.338  0.6163  0.0407  0.0905
  176SLPC  C31520028  -0.088   0.612  24.128  0.9823 -0.1868  0.2151
  176SLPC  H15X20029  -0.056   0.702  24.071  0.1521  1.1237  1.7444
  176SLPC  H15Y20030  -0.198   0.598  24.127  0.9777 -0.1443 -0.3783
  176SLPC  C31620031  -0.008   0.487  24.088 -0.1072  0.4424  0.3534
  176SLPC  H16X20032  -0.069   0.400  24.120 -0.5379  1.5601  2.7902
  176SLPC  H16Y20033   0.091   0.481  24.139 -0.4314 -1.9213  0.7766
  176SLPC  C31720034   0.026   0.481  23.936 -0.6580 -0.6898 -0.0541
  176SLPC  H17X20035   0.113   0.547  23.918 -0.6411 -0.5241  0.6165
  176SLPC  H17Y20036  -0.065   0.509  23.879  0.4600  0.3543 -1.3802
  176SLPC  C31820037   0.067   0.337  23.898 -0.5669 -0.2734 -0.0455
  176SLPC  H18X20038   0.156   0.320  23.963 -1.4582  1.5096  1.7363
  176SLPC  H18Y20039   0.087   0.332  23.789 -1.3682  2.1240 -0.3560
  176SLPC  H18Z20040  -0.014   0.266  23.925 -0.8807  0.4233  0.9007
  177SLPC     N20041   3.302   1.878  23.360  0.0939 -0.7839  0.2039
  177SLPC   C1320042   3.393   1.881  23.249 -0.0966 -0.0383  0.3846
  177SLPC  H13A20043   3.444   1.787  23.238  0.2629  0.1310  0.5910
  177SLPC  H13B20044   3.332   1.873  23.160 -0.0245  2.0327  0.1007
  177SLPC  H13C20045   3.467   1.960  23.245  0.6322 -0.5837  2.3680
  177SLPC   C1420046   3.183   1.788  23.323  0.4573 -0.0966  0.0895
  177SLPC  H14A20047   3.164   1.806  23.218  0.8842 -0.2598 -0.0190
  177SLPC  H14B20048   3.209   1.687  23.352 -0.1907 -0.5528 -0.8580
  177SLPC  H14C20049   3.092   1.818  23.372  1.1322  0.4199  1.0672
  177SLPC   C1520050   3.247   2.014  23.389  0.3273  0.8340  0.5769
  177SLPC  H15A20051   3.211   2.049  23.293  1.2224 -0.3456 -0.2221
  177SLPC  H15B20052   3.167   2.007  23.461 -1.5937 -0.5629 -1.5390
  177SLPC  H15C20053   3.323   2.079  23.431 -0.8675  2.5975  0.1190
  177SLPC   C1220054   3.380   1.829  23.475  0.9595  0.5670 -0.5900
  177SLPC  H12A20055   3.349   1.887  23.561  0.0713 -0.3630 -0.2586
  177SLPC  H12B20056   3.483   1.860  23.460  1.2628  0.6291  1.3189
  177SLPC   C1120057   3.384   1.669  23.503 -0.3564 -0.5843  0.2978
  177SLPC  H11A20058   3.282   1.630  23.524 -0.7467  0.8034  1.0788
  177SLPC  H11B20059   3.450   1.659  23.592  1.5588  0.4025 -0.9649
  177SLPC     P20060   3.600   1.618  23.368 -0.0928 -0.0517  0.1409
  177SLPC   O1320061   3.613   1.582  23.220  0.1415  0.3587  0.4425
  177SLPC   O1420062   3.641   1.757  23.406 -0.1940 -0.3404  0.1985
  177SLPC   O1220063   3.444   1.601  23.397 -0.1349  0.6791 -0.1163
  177SLPC   O1120064   3.685   1.515  23.453  0.5474  0.0572  0.0832
  177SLPC    C120065   3.639   1.389  23.493  0.3627 -1.1698  0.5101
  177SLPC    HA20066   3.632   1.390  23.604  0.7723 -1.0094  0.5361
  177SLPC    HB20067   3.537   1.368  23.455 -0.1157  0.9117  0.4881
  177SLPC    C220068   3.738   1.281  23.454  0.0079 -0.6164  0.2207
  177SLPC    HS20069   3.701   1.190  23.506 -1.4812 -1.9057 -2.8049
  177SLPC   O2120070   3.873   1.311  23.493 -0.1563  0.2409  0.5493
  177SLPC   C2120071   3.904   1.326  23.619 -0.7168  0.8983 -0.6995
  177SLPC   O2220072   3.834   1.291  23.714  0.6154 -0.1050 -0.2838
  177SLPC   C2220073   4.060   1.342  23.628  0.4844  0.7645  0.2940
  177SLPC   H2R20074   4.086   1.419  23.553  1.8968 -0.8575 -0.9646
  177SLPC   H2S20075   4.076   1.378  23.732 -1.8325 -0.3881  1.1285
  177SLPC    C320076   3.732   1.244  23.307 -0.1490  0.1890 -0.8684
  177SLPC    HX20077   3.810   1.170  23.281  0.9149  1.2919 -0.9439
  177SLPC    HY20078   3.758   1.345  23.269  0.9054 -0.0359 -0.7738
  177SLPC   O3120079   3.605   1.186  23.284  0.6991 -0.4036  0.1129
  177SLPC   C3120080   3.544   1.226  23.173 -0.8130  0.5065  0.6379
  177SLPC   O3220081   3.588   1.325  23.105 -0.7043  0.3068  0.1419
  177SLPC   C3220082   3.431   1.128  23.134  0.1617  0.0502 -0.4392
  177SLPC   H2X20083   3.336   1.177  23.165  1.2662  1.6786  0.5761
  177SLPC   H2Y20084   3.432   1.029  23.184 -0.2472  0.1678 -0.1870
  177SLPC   C2320085   4.144   1.221  23.572  0.1600  0.3105 -0.2193
  177SLPC   H3R20086   4.125   1.210  23.463  2.0851  1.7389 -0.7551
  177SLPC   H3S20087   4.114   1.126  23.622  0.6390  0.2707  0.0018
  177SLPC   C2420088   4.300   1.239  23.605  0.1785  0.1794  0.0880
  177SLPC   H4R20089   4.319   1.244  23.714  1.1514 -0.9718 -0.0117
  177SLPC   H4S20090   4.340   1.334  23.564 -1.6226  0.4545 -1.1457
  177SLPC   C2520091   4.377   1.124  23.540  0.3143 -0.9040 -0.4149
  177SLPC   H5R20092   4.484   1.139  23.566 -0.4749  0.6269  2.3916
  177SLPC   H5S20093   4.352   1.114  23.432 -1.0374 -3.3405  0.0423
  177SLPC   C2620094   4.351   0.989  23.613  0.3588 -0.5271  0.9072
  177SLPC   H6R20095   4.250   0.957  23.580 -1.9153  4.3746  2.1208
  177SLPC   H6S20096   4.352   1.021  23.720  1.0208  1.7585  0.2814
  177SLPC   C2720097   4.462   0.888  23.588  0.4508  0.6447  0.1261
  177SLPC   H7R20098   4.562   0.909  23.630  0.2783  0.5822  0.5784
  177SLPC   H7S20099   4.479   0.876  23.479  0.4719 -0.8418  0.2691
  177SLPC   C2820100   4.424   0.745  23.644  0.2496  0.3971  0.2077
  177SLPC   H8R20101   4.502   0.671  23.615 -0.6287 -0.2113 -0.6557
  177SLPC   H8S20102   4.342   0.711  23.577  3.0505 -1.5378 -2.4829
  177SLPC   C2920103   4.388   0.730  23.793 -0.2233 -1.1518  0.0823
  177SLPC   H9R20104   4.320   0.807  23.830  2.3067  1.1667  0.2485
  177SLPC  C21020105   4.430   0.632  23.870 -0.5116 -0.1353  0.2578
  177SLPC  H10R20106   4.423   0.639  23.980  1.0614 -1.3612  0.4782
  177SLPC  C21120107   4.524   0.515  23.834 -0.3383  0.2772 -0.4458
  177SLPC  H11R20108   4.624   0.526  23.881  2.1190 -0.4880 -4.9597
  177SLPC  H11S20109   4.557   0.507  23.728  2.2091 -0.6991  0.3437
  177SLPC  C21220110   4.457   0.384  23.873 -0.0662 -0.1364 -0.0538
  177SLPC  H12R20111   4.418   0.320  23.793  0.3880 -2.1946  1.2756
  177SLPC  C21320112   4.469   0.329  23.992  0.0432 -0.5144  0.0495
  177SLPC  H13R20113   4.409   0.238  24.010 -0.6641 -0.2123 -0.7161
  177SLPC  C21420114   4.524   0.385  24.115  0.4685  0.4028  0.0969
  177SLPC  H14R20115   4.573   0.484  24.104  3.5156 -0.8099  1.4079
  177SLPC  H14S20116   4.605   0.311  24.134 -2.1066 -2.7831 -0.5124
  177SLPC  C21520117   4.406   0.399  24.221 -0.2221 -0.0649  0.6337
  177SLPC  H15R20118   4.333   0.324  24.185  1.1842 -0.6650 -1.1783
  177SLPC  H15S20119   4.375   0.505  24.206 -2.5309 -0.6655  0.8738
  177SLPC  C21620120   4.456   0.366  24.359  0.4373 -0.4686  0.0137
  177SLPC  H16R20121   4.492   0.457  24.412 -0.2130  0.2390 -0.7252
  177SLPC  H16S20122   4.537   0.291  24.356  0.9135  0.0372  0.0441
  177SLPC  C21720123   4.336   0.295  24.442  0.2277 -0.3370  0.1213
  177SLPC  H17R20124   4.375   0.269  24.543 -0.2455 -2.4892 -0.2067
  177SLPC  H17S20125   4.320   0.205  24.380 -0.7979  2.1236 -3.4978
  177SLPC  C21820126   4.204   0.373  24.446 -0.1833  0.0218  0.4887
  177SLPC  H18R20127   4.123   0.308  24.485 -0.2931 -0.5482 -0.6341
  177SLPC  H18S20128   4.180   0.427  24.353  2.9315 -0.8493 -0.9701
  177SLPC  H18T20129   4.226   0.451  24.522  1.0252  0.1887 -0.0057
  177SLPC   C3320130   3.418   1.109  22.982 -0.3421  0.9133  0.7907
  177SLPC   H3X20131   3.412   1.207  22.931  1.1567  0.4692 -0.3123
  177SLPC   H3Y20132   3.321   1.058  22.961 -1.4587  3.4876 -0.8052
  177SLPC   C3420133   3.531   1.016  22.922  0.2671 -0.0694  0.0672
  177SLPC   H4X20134   3.528   0.912  22.961  3.1226 -0.9964 -1.8689
  177SLPC   H4Y20135   3.629   1.051  22.960 -0.0120  0.3292  0.4249
  177SLPC   C3520136   3.524   1.012  22.770  0.7123  0.2713  0.6003
  177SLPC   H5X20137   3.555   1.114  22.737  1.0551  0.0753  0.3139
  177SLPC   H5Y20138   3.422   0.996  22.730  1.3910  0.2496 -1.2042
  177SLPC   C3620139   3.622   0.904  22.711 -0.7342 -0.7463 -0.9273
  177SLPC   H6X20140   3.594   0.800  22.738  1.0712 -1.3197 -1.1378
  177SLPC   H6Y20141   3.724   0.934  22.743 -0.6649 -0.8604 -1.0419
  177SLPC   C3720142   3.623   0.911  22.559 -0.3878 -0.0198  0.1049
  177SLPC   H7X20143   3.650   1.013  22.524  1.3511  0.2325  2.0165
  177SLPC   H7Y20144   3.529   0.875  22.512  0.3632  1.7433 -3.0683
  177SLPC   C3820145   3.722   0.820  22.487  0.8972  0.1449 -0.5334
  177SLPC   H8X20146   3.689   0.714  22.487 -1.7338  0.8672  0.9113
  177SLPC   H8Y20147   3.814   0.824  22.550  0.3171 -0.1659  0.3531
  177SLPC   C3920148   3.757   0.870  22.348 -0.6103  0.5257  0.0985
  177SLPC   H9X20149   3.806   0.969  22.348 -0.6993  0.5874  1.2427
  177SLPC   H9Y20150   3.664   0.861  22.287  0.1206 -0.8268 -0.8680
  177SLPC  C31020151   3.843   0.775  22.277 -0.8355 -0.0148 -0.7880
  177SLPC  H10X20152   3.790   0.678  22.265 -0.9938  0.3412 -3.9103
  177SLPC  H10Y20153   3.936   0.767  22.337 -2.4530  1.8572  2.2223
  177SLPC  C31120154   3.865   0.818  22.125 -0.0143 -0.1231  0.4478
  177SLPC  H11X20155   3.765   0.844  22.082 -0.6169  0.2077  1.9811
  177SLPC  H11Y20156   3.896   0.730  22.065 -2.0776 -1.5495  1.3515
  177SLPC  C31220157   3.955   0.938  22.102  0.2939 -0.0379 -0.1000
  177SLPC  H12X20158   4.057   0.914  22.138  1.0243  3.5969  0.5568
  177SLPC  H12Y20159   3.918   1.026  22.157 -1.0862  1.1120 -2.7053
  177SLPC  C31320160   3.952   0.986  21.957  0.3197  0.0858 -0.4392
  177SLPC  H13X20161   3.993   1.090  21.951  0.9910 -0.2555 -2.4988
  177SLPC  H13Y20162   3.846   0.991  21.925 -0.2946  0.1017  1.4743
  177SLPC  C31420163   4.030   0.901  21.853 -0.1065  0.8438 -0.4668
  177SLPC  H14X20164   4.014   0.793  21.872  2.0167  0.4847 -0.4248
  177SLPC  H14Y20165   4.136   0.923  21.880 -0.4658  0.4369  1.4134
  177SLPC  C31520166   4.010   0.958  21.716 -0.6756 -0.1918 -0.7304
  177SLPC  H15X20167   4.030   1.067  21.718  0.2827 -0.3583 -0.1714
  177SLPC  H15Y20168   3.903   0.950  21.691 -0.6131 -1.1375 -0.7462
  177SLPC  C31620169   4.088   0.899  21.601  0.0291  0.4902  0.2133
  177SLPC  H16X20170   4.077   0.789  21.611 -1.5092  0.3658 -2.0968
  177SLPC  H16Y20171   4.194   0.925  21.622  0.2640 -0.7104  0.6035
  177SLPC  C31720172   4.045   0.950  21.469  0.0532 -0.6842  0.8037
  177SLPC  H17X20173   3.938   0.943  21.441  0.1904 -0.0059  0.0950
  177SLPC  H17Y20174   4.092   0.890  21.389 -1.8022  2.6322 -3.1026
  177SLPC  C31820175   4.095   1.095  21.431  0.4398  1.2522  0.7764
  177SLPC  H18X20176   4.202   1.102  21.459 -0.1610  2.3715  2.9713
  177SLPC  H18Y20177   4.041   1.163  21.500 -1.3576 -0.5412  1.2503
  177SLPC  H18Z20178   4.095   1.110  21.321  1.3078  1.2883  0.7724
  178SLPC     N20179   2.187   2.965  26.305 -0.0659 -0.4812 -0.6255
  178SLPC   C1320180   2.204   2.964  26.454  0.5976  0.1958 -0.6260
  178SLPC  H13A20181   2.254   2.877  26.493  0.3983 -0.4644 -1.8179
  178SLPC  H13B20182   2.270   3.045  26.479  0.1545  1.3748 -2.9728
  178SLPC  H13C20183   2.112   2.986  26.507  0.3874 -1.4600 -0.2593
  178SLPC   C1420184   2.097   3.072  26.274 -0.0179  0.1782  0.3037
  178SLPC  H14A20185   2.147   3.167  26.281  0.5538 -0.0886 -0.0792
  178SLPC  H14B20186   2.088   3.068  26.166  2.5209 -3.5106  0.0333
  178SLPC  H14C20187   2.003   3.080  26.326  0.6056 -0.5097  1.5941
  178SLPC   C1520188   2.146   2.827  26.271  1.1213  0.0289  0.5291
  178SLPC  H15A20189   2.227   2.759  26.292 -1.1307 -2.8791  0.5271
  178SLPC  H15B20190   2.069   2.794  26.339  1.5074  1.6849  1.8164
  178SLPC  H15C20191   2.117   2.823  26.167 -0.2654 -0.5135  0.9108
  178SLPC   C1220192   2.325   2.995  26.244  0.5497  0.2109 -0.6863
  178SLPC  H12A20193   2.354   3.098  26.260  0.5877  0.3424 -1.5220
  178SLPC  H12B20194   2.314   2.993  26.136 -0.8198  2.8366 -0.7001
  178SLPC   C1120195   2.442   2.899  26.282  0.9804 -0.4039 -0.0054
  178SLPC  H11A20196   2.460   2.906  26.392 -1.7902  0.0496  0.4927
  178SLPC  H11B20197   2.521   2.952  26.224 -0.0922 -0.9007 -1.9739
  178SLPC     P20198   2.520   2.662  26.232 -0.0463 -0.0348  0.2173
  178SLPC   O1320199   2.595   2.692  26.356 -0.3706 -0.1008  0.7532
  178SLPC   O1420200   2.451   2.529  26.221 -0.2831 -0.2503 -0.6102
  178SLPC   O1220201   2.408   2.773  26.222  0.5821  0.4085  0.0151
  178SLPC   O1120202   2.612   2.673  26.104 -0.4923  0.4511  0.1580
  178SLPC    C120203   2.579   2.768  26.007 -0.1753 -0.6944  0.3809
  178SLPC    HA20204   2.476   2.765  25.965  0.0006 -0.1858 -0.1047
  178SLPC    HB20205   2.576   2.869  26.054 -0.0141 -1.3378  1.8356
  178SLPC    C220206   2.676   2.782  25.878 -1.1794  0.4532 -0.3777
  178SLPC    HS20207   2.632   2.853  25.804 -0.4018  2.4941  1.0287
  178SLPC   O2120208   2.711   2.657  25.820  0.1862 -0.6506  0.3281
  178SLPC   C2120209   2.607   2.602  25.757 -0.2945 -0.6220  0.4751
  178SLPC   O2220210   2.502   2.656  25.721 -0.5604  0.3172 -0.0055
  178SLPC   C2220211   2.644   2.457  25.724 -0.6705  0.1254  0.3147
  178SLPC   H2R20212   2.751   2.455  25.696 -0.3531 -0.2180  1.4834
  178SLPC   H2S20213   2.620   2.396  25.814 -2.1185  0.5846  0.2590
  178SLPC    C320214   2.806   2.854  25.932  0.1144 -0.1514  0.1826
  178SLPC    HX20215   2.878   2.842  25.848 -0.4007 -0.6037 -0.1965
  178SLPC    HY20216   2.856   2.788  26.006 -0.0496 -0.4983 -0.0163
  178SLPC   O3120217   2.789   2.997  25.957 -0.2116  0.0439  0.1358
  178SLPC   C3120218   2.804   3.028  26.083  0.2203 -0.5732 -0.8504
  178SLPC   O3220219   2.856   2.958  26.170  0.4473  0.2931 -0.4571
  178SLPC   C3220220   2.769   3.176  26.109  0.4821  0.0763 -0.3806
  178SLPC   H2X20221   2.864   3.220  26.145  1.0395 -0.8353 -0.7189
  178SLPC   H2Y20222   2.691   3.181  26.188  1.4485 -1.4790  0.7397
  178SLPC   C2320223   2.569   2.392  25.604  0.1712 -0.4889  0.0589
  178SLPC   H3R20224   2.471   2.436  25.631  1.9716  1.9750  3.1782
  178SLPC   H3S20225   2.584   2.283  25.623 -1.3085 -0.8259 -0.5251
  178SLPC   C2420226   2.612   2.436  25.458  0.1138 -0.0268 -0.0598
  178SLPC   H4R20227   2.715   2.405  25.430  0.0002 -1.5419  1.0431
  178SLPC   H4S20228   2.619   2.546  25.456  1.7257 -0.0737  0.9434
  178SLPC   C2520229   2.518   2.379  25.346  0.8622 -0.6591 -0.5408
  178SLPC   H5R20230   2.439   2.457  25.353  2.6396  1.0516  2.8933
  178SLPC   H5S20231   2.497   2.277  25.386  1.2673 -0.6677 -0.3471
  178SLPC   C2620232   2.580   2.370  25.212 -0.7593 -0.3645  0.7950
  178SLPC   H6R20233   2.520   2.296  25.157  1.4744 -1.5016 -0.2571
  178SLPC   H6S20234   2.683   2.328  25.223  0.1512  1.4239 -0.3828
  178SLPC   C2720235   2.576   2.508  25.142 -0.3440  0.4613 -0.4282
  178SLPC   H7R20236   2.668   2.564  25.171 -0.5775  0.5666  0.1404
  178SLPC   H7S20237   2.480   2.563  25.152 -0.2435  0.8127 -1.3036
  178SLPC   C2820238   2.580   2.493  24.990  0.1859  0.0406 -0.3576
  178SLPC   H8R20239   2.477   2.473  24.952 -0.6662  0.2831  1.6970
  178SLPC   H8S20240   2.663   2.426  24.959  1.0075  1.4328 -1.2975
  178SLPC   C2920241   2.610   2.629  24.933 -0.3792 -0.0586 -0.1186
  178SLPC   H9R20242   2.682   2.681  24.998 -1.5869 -0.4747  1.6168
  178SLPC  C21020243   2.560   2.697  24.823 -0.1840 -0.0814 -0.2984
  178SLPC  H10R20244   2.611   2.791  24.798  0.0688  0.6732  2.7338
  178SLPC  C21120245   2.454   2.642  24.730  0.0962 -1.0467 -0.3683
  178SLPC  H11R20246   2.396   2.554  24.767 -0.0076 -0.9291 -0.2528
  178SLPC  H11S20247   2.508   2.597  24.644  1.9681 -2.7521  1.5741
  178SLPC  C21220248   2.343   2.736  24.676 -0.2648  0.3667 -0.6491
  178SLPC  H12R20249   2.245   2.724  24.724 -0.7235  2.7759 -0.8592
  178SLPC  C21320250   2.348   2.818  24.572 -0.2080 -0.5159 -0.1380
  178SLPC  H13R20251   2.263   2.871  24.527  1.2722  0.4667 -1.9437
  178SLPC  C21420252   2.474   2.847  24.500  0.3548 -0.5070  0.2412
  178SLPC  H14R20253   2.551   2.768  24.515  1.0978 -0.2388 -1.8756
  178SLPC  H14S20254   2.521   2.947  24.515  2.1843 -1.5689  2.2341
  178SLPC  C21520255   2.438   2.831  24.347  0.5763 -0.3687  0.5723
  178SLPC  H15R20256   2.374   2.919  24.325  2.3515  1.1504  1.1739
  178SLPC  H15S20257   2.382   2.736  24.333  1.1274 -0.4442 -1.4934
  178SLPC  C21620258   2.556   2.830  24.255  0.2021  0.4099 -0.3022
  178SLPC  H16R20259   2.601   2.732  24.283  0.3300  0.1604 -1.3323
  178SLPC  H16S20260   2.630   2.910  24.276 -1.6406  1.4518  3.0472
  178SLPC  C21720261   2.509   2.825  24.114 -0.3356 -0.0083 -0.1411
  178SLPC  H17R20262   2.507   2.931  24.080  2.7365  1.1118  2.6019
  178SLPC  H17S20263   2.411   2.774  24.105  0.2520 -1.6470  1.8614
  178SLPC  C21820264   2.599   2.749  24.014  0.3000  0.1705 -0.1299
  178SLPC  H18R20265   2.610   2.642  24.041 -0.9787 -0.0651 -0.4638
  178SLPC  H18S20266   2.703   2.785  24.002  0.6722 -1.3168 -1.6964
  178SLPC  H18T20267   2.551   2.750  23.914  0.7512  1.0609 -0.3448
  178SLPC   C3320268   2.733   3.254  25.977  0.5612 -0.8232  0.2652
  178SLPC   H3X20269   2.638   3.207  25.942 -0.5859 -0.6036  2.8790
  178SLPC   H3Y20270   2.813   3.243  25.900 -0.8037 -1.8795 -1.0738
  178SLPC   C3420271   2.706   3.410  26.006 -0.2618 -0.4008 -1.1135
  178SLPC   H4X20272   2.763   3.449  26.093 -2.6218  1.1408 -0.1704
  178SLPC   H4Y20273   2.601   3.418  26.041 -0.3644  2.0388 -1.7648
  178SLPC   C3520274   2.696   3.502  25.886  0.3981  1.5803 -0.4613
  178SLPC   H5X20275   2.596   3.477  25.844  0.0558 -0.7027  1.5204
  178SLPC   H5Y20276   2.761   3.469  25.802  0.9887  1.7768 -0.0816
  178SLPC   C3620277   2.724   3.653  25.910  0.3692  0.8252  0.1556
  178SLPC   H6X20278   2.660   3.709  25.982  0.5444  2.6839 -1.0733
  178SLPC   H6Y20279   2.708   3.711  25.817 -1.1894  2.6761  1.4904
  178SLPC   C3720280   2.864   3.679  25.961  0.4711  0.4320 -0.2103
  178SLPC   H7X20281   2.865   3.626  26.059 -1.6205 -0.2761 -0.5213
  178SLPC   H7Y20282   2.873   3.787  25.987 -0.0185  1.1385 -2.6941
  178SLPC   C3820283   2.983   3.635  25.873 -0.3522 -0.8178 -0.6797
  178SLPC   H8X20284   2.956   3.535  25.833 -1.2074 -1.0674  0.4484
  178SLPC   H8Y20285   3.071   3.619  25.940 -1.0381 -2.7135 -0.1769
  178SLPC   C3920286   3.018   3.738  25.764 -0.2098 -0.0399  0.1406
  178SLPC   H9X20287   3.048   3.842  25.787 -3.8726  1.2541 -0.2839
  178SLPC   H9Y20288   2.915   3.750  25.723 -0.8320 -0.8834  1.3680
  178SLPC  C31020289   3.108   3.682  25.649  0.3538 -0.1490 -0.1738
  178SLPC  H10X20290   3.088   3.735  25.554 -1.5728 -0.9091 -0.2317
  178SLPC  H10Y20291   3.074   3.579  25.628 -1.0539  0.3746 -0.5704
  178SLPC  C31120292   3.255   3.676  25.684  0.0292 -0.0575 -0.0697
  178SLPC  H11X20293   3.280   3.600  25.761 -0.0559  0.5154  0.5367
  178SLPC  H11Y20294   3.279   3.778  25.722  1.2641  0.8036 -2.9107
  178SLPC  C31220295   3.354   3.661  25.568 -0.9030  0.1171 -0.4371
  178SLPC  H12X20296   3.335   3.731  25.484  0.5778  1.3921  0.2391
  178SLPC  H12Y20297   3.360   3.558  25.526 -1.8643 -0.0417 -0.2082
  178SLPC  C31320298   3.506   3.691  25.605  0.7295  0.0438 -0.4353
  178SLPC  H13X20299   3.562   3.663  25.513 -2.4175 -3.3755 -1.5489
  178SLPC  H13Y20300   3.531   3.619  25.685 -1.1347  0.4351  0.5554
  178SLPC  C31420301   3.523   3.834  25.643 -0.6796  0.0087 -0.4009
  178SLPC  H14X20302   3.454   3.871  25.722 -4.1145 -2.5970 -1.9171
  178SLPC  H14Y20303   3.515   3.891  25.547  0.4727  0.3555 -0.3099
  178SLPC  C31520304   3.663   3.864  25.693 -0.0066  0.1859 -0.9475
  178SLPC  H15X20305   3.709   3.812  25.780 -0.2104  2.2346  0.4654
  178SLPC  H15Y20306   3.650   3.968  25.730  1.3344 -0.0330  0.2406
  178SLPC  C31620307   3.772   3.852  25.586 -0.1079 -0.2788 -0.1703
  178SLPC  H16X20308   3.738   3.886  25.486  1.1336  0.5240 -0.3459
  178SLPC  H16Y20309   3.784   3.742  25.574 -0.5614 -0.2384 -1.0493
  178SLPC  C31720310   3.904   3.923  25.635 -0.2694  0.2043  0.7057
  178SLPC  H17X20311   3.932   3.866  25.727 -1.2293 -0.2660  0.7169
  178SLPC  H17Y20312   3.884   4.025  25.674 -0.2512  0.5547 -0.1911
  178SLPC  C31820313   4.028   3.925  25.548 -0.4454  0.7375 -0.6023
  178SLPC  H18X20314   4.029   4.000  25.466  1.7038 -0.8900 -2.1752
  178SLPC  H18Y20315   4.048   3.825  25.502 -0.3466  0.2844  0.4003
  178SLPC  H18Z20316   4.120   3.956  25.602  0.6459 -1.8003 -0.8274
  179SLPC     N20317   0.071   0.319  11.589  0.9355 -0.3018 -0.4467
  179SLPC   C1320318   0.212   0.280  11.577 -0.5151  0.5520 -0.2958
  179SLPC  H13A20319   0.218   0.179  11.540  1.4765 -0.1155  1.6304
  179SLPC  H13B20320   0.272   0.330  11.502  0.5023  0.6223  0.5392
  179SLPC  H13C20321   0.267   0.286  11.670 -0.2914 -1.0303 -0.2960
  179SLPC   C1420322   0.049   0.471  11.616  0.7211 -0.7877  0.2721
  179SLPC  H14A20323  -0.056   0.470  11.638  0.5224 -1.9238 -0.6465
  179SLPC  H14B20324   0.106   0.509  11.700  2.2010 -2.4216  0.0883
  179SLPC  H14C20325   0.058   0.534  11.529 -0.7304  0.1088  0.7431
  179SLPC   C1520326   0.005   0.241  11.700  1.4161 -0.0561 -0.0162
  179SLPC  H15A20327  -0.091   0.285  11.723 -0.0922 -3.5092  1.0450
  179SLPC  H15B20328  -0.030   0.144  11.667  1.0971 -0.3517  1.1410
  179SLPC  H15C20329   0.061   0.229  11.791 -0.4472 -2.7807  0.9176
  179SLPC   C1220330   0.001   0.280  11.457  0.4013 -0.0353  0.2204
  179SLPC  H12A20331   0.053   0.334  11.380  1.3988 -0.8511  0.3155
  179SLPC  H12B20332  -0.104   0.309  11.457  0.6011  0.7505  1.0938
  179SLPC   C1120333  -0.006   0.130  11.413 -0.1432 -0.2812 -0.6840
  179SLPC  H11A20334   0.092   0.089  11.446  0.3611  1.1263 -0.3206
  179SLPC  H11B20335  -0.025   0.128  11.304 -0.2446 -0.5845 -0.6604
  179SLPC     P20336  -0.261   0.066  11.473  0.0646  0.0565  0.0377
  179SLPC   O1320337  -0.325  -0.060  11.509  0.4081  0.9395 -0.4735
  179SLPC   O1420338  -0.293   0.179  11.566  0.1309  0.2476  0.3349
  179SLPC   O1220339  -0.104   0.050  11.479  0.0760 -0.1335 -0.1538
  179SLPC   O1120340  -0.287   0.102  11.322  0.2653 -0.4830 -0.1227
  179SLPC    C120341  -0.265  -0.013  11.239 -0.2182  0.2765  0.8286
  179SLPC    HA20342  -0.160  -0.049  11.231 -0.9560 -1.9065  0.2307
  179SLPC    HB20343  -0.326  -0.102  11.266 -0.2504 -0.2060 -0.7761
  179SLPC    C220344  -0.309   0.008  11.087  0.3788  0.2862  0.1154
  179SLPC    HS20345  -0.251  -0.063  11.024 -0.0247 -1.9422  2.1104
  179SLPC   O2120346  -0.294   0.139  11.033  1.0507  0.7978 -0.2679
  179SLPC   C2120347  -0.174   0.183  11.030 -0.3846  0.4529 -0.5253
  179SLPC   O2220348  -0.075   0.123  11.059 -0.2409  0.4723 -0.0473
  179SLPC   C2220349  -0.161   0.331  10.993  0.2967  0.4349 -0.5213
  179SLPC   H2R20350  -0.264   0.374  10.993  0.0174 -0.1579  1.1135
  179SLPC   H2S20351  -0.104   0.372  11.079  2.9295 -0.4665 -1.7552
  179SLPC    C320352  -0.455  -0.033  11.063  0.2376  0.2329 -0.1592
  179SLPC    HX20353  -0.494   0.017  10.971 -2.8830  0.0002  0.9200
  179SLPC    HY20354  -0.502   0.018  11.149 -0.1974  0.1531 -0.3462
  179SLPC   O3120355  -0.507  -0.175  11.066 -0.6312  0.0079  0.3616
  179SLPC   C3120356  -0.479  -0.239  10.947 -0.0242  0.3100 -0.0803
  179SLPC   O3220357  -0.439  -0.187  10.849  0.6623  0.3165 -0.3792
  179SLPC   C3220358  -0.520  -0.391  10.958 -0.3651  0.0888 -0.2380
  179SLPC   H2X20359  -0.587  -0.404  11.046  1.3974 -1.5391  0.9610
  179SLPC   H2Y20360  -0.433  -0.460  10.967  0.3113  0.8850 -0.5332
  179SLPC   C2320361  -0.085   0.356  10.865 -0.1121  0.7409  0.1977
  179SLPC   H3R20362  -0.140   0.316  10.777  1.6477 -1.0881 -0.1467
  179SLPC   H3S20363   0.016   0.309  10.860 -0.9841 -1.1053 -1.0215
  179SLPC   C2420364  -0.063   0.507  10.843  0.1996 -0.0165 -0.1149
  179SLPC   H4R20365  -0.012   0.550  10.932 -1.3171  0.3076  0.6342
  179SLPC   H4S20366  -0.163   0.555  10.833  0.8018  1.0202 -1.4538
  179SLPC   C2520367   0.023   0.530  10.718 -0.0781 -0.2156  0.0270
  179SLPC   H5R20368   0.108   0.458  10.714  0.9408  0.7374  2.3227
  179SLPC   H5S20369   0.068   0.630  10.736 -1.5234  1.0062 -2.5114
  179SLPC   C2620370  -0.039   0.518  10.577 -0.2363 -0.6077 -0.3297
  179SLPC   H6R20371  -0.118   0.597  10.577  0.3363  0.0117 -2.2730
  179SLPC   H6S20372  -0.098   0.425  10.565 -0.6144 -0.6314  1.4082
  179SLPC   C2720373   0.055   0.551  10.466  0.2797  0.1702  0.7078
  179SLPC   H7R20374   0.132   0.471  10.468  0.3833  0.2812  1.6214
  179SLPC   H7S20375   0.112   0.644  10.488  2.0824 -0.9354  0.9316
  179SLPC   C2820376   0.006   0.563  10.319  0.2958  0.0430 -0.5131
  179SLPC   H8R20377  -0.063   0.478  10.300  0.4190  0.1810 -1.6186
  179SLPC   H8S20378   0.083   0.557  10.240  1.2127  0.2066  0.3403
  179SLPC   C2920379  -0.068   0.695  10.318 -0.3002  0.1535  0.1605
  179SLPC   H9R20380  -0.161   0.691  10.376 -0.6729 -0.3448 -0.4475
  179SLPC  C21020381  -0.041   0.800  10.238  0.7623  0.1663  0.7630
  179SLPC  H10R20382  -0.104   0.890  10.248 -0.8373 -1.0932  2.9969
  179SLPC  C21120383   0.073   0.824  10.143  0.8391 -0.2372  0.1411
  179SLPC  H11R20384   0.026   0.889  10.066  0.6152 -0.1573  0.3430
  179SLPC  H11S20385   0.107   0.730  10.094 -0.0722 -0.5558  0.0991
  179SLPC  C21220386   0.195   0.907  10.186  0.2402 -0.2930  0.4042
  179SLPC  H12R20387   0.255   0.866  10.268  0.7444  1.2994  0.8816
  179SLPC  C21320388   0.220   1.035  10.151 -0.7671  0.3593 -0.1334
  179SLPC  H13R20389   0.304   1.080  10.205 -1.4466  0.2555  1.0421
  179SLPC  C21420390   0.155   1.131  10.050  0.6038  0.1542  0.0108
  179SLPC  H14R20391   0.098   1.209  10.105 -0.1643 -1.6956  1.9848
  179SLPC  H14S20392   0.077   1.083   9.988  1.5281 -0.9086 -0.3541
  179SLPC  C21520393   0.254   1.206   9.950  0.8356  0.2258 -0.1799
  179SLPC  H15R20394   0.178   1.240   9.876 -0.5026  0.5655  1.2980
  179SLPC  H15S20395   0.320   1.138   9.893 -1.1250 -0.5342 -1.6859
  179SLPC  C21620396   0.331   1.319  10.015 -0.8283  0.0444 -0.2443
  179SLPC  H16R20397   0.402   1.260  10.076 -0.8948 -1.3603 -1.4663
  179SLPC  H16S20398   0.276   1.383  10.087 -1.5395 -1.7256  0.8401
  179SLPC  C21720399   0.413   1.422   9.932 -0.9433  0.1902  0.0362
  179SLPC  H17R20400   0.469   1.493   9.996 -2.5178  1.8709 -0.3629
  179SLPC  H17S20401   0.340   1.488   9.880  0.6237  1.6366 -0.3985
  179SLPC  C21820402   0.507   1.355   9.825 -0.5467 -0.5647 -0.2154
  179SLPC  H18R20403   0.598   1.327   9.884  0.3424  2.2471 -0.1171
  179SLPC  H18S20404   0.539   1.411   9.735  2.0625 -1.1885  0.2372
  179SLPC  H18T20405   0.451   1.271   9.778 -1.5140  0.8444 -1.6978
  179SLPC   C3320406  -0.580  -0.451  10.823 -0.7037  0.5921  0.3959
  179SLPC   H3X20407  -0.638  -0.369  10.776 -1.4591 -0.3066 -0.2594
  179SLPC   H3Y20408  -0.630  -0.549  10.835 -0.0100 -0.0315 -1.4148
  179SLPC   C3420409  -0.459  -0.487  10.723  0.2799  0.3153  0.7139
  179SLPC   H4X20410  -0.383  -0.408  10.742 -0.1901  0.8097  0.5573
  179SLPC   H4Y20411  -0.496  -0.456  10.623 -0.6165 -0.5250  0.7660
  179SLPC   C3520412  -0.391  -0.621  10.729 -0.0963  0.8246 -0.1205
  179SLPC   H5X20413  -0.356  -0.635  10.834 -2.3677  2.0553  0.8823
  179SLPC   H5Y20414  -0.461  -0.701  10.697 -1.0071  1.1548  0.9627
  179SLPC   C3620415  -0.266  -0.623  10.644  0.0838 -0.3893 -0.1376
  179SLPC   H6X20416  -0.205  -0.538  10.684 -0.1306 -0.6377  0.7320
  179SLPC   H6Y20417  -0.298  -0.606  10.540  1.5451  0.6163 -0.4619
  179SLPC   C3720418  -0.165  -0.740  10.635 -0.0892 -0.6867  0.5983
  179SLPC   H7X20419  -0.135  -0.778  10.735  1.6002 -0.6533  0.1275
  179SLPC   H7Y20420  -0.079  -0.697  10.580 -2.2693  1.9788 -1.0080
  179SLPC   C3820421  -0.213  -0.851  10.557  0.7570  0.9546 -0.0408
  179SLPC   H8X20422  -0.236  -0.827  10.451  0.2625 -1.5455 -0.5761
  179SLPC   H8Y20423  -0.313  -0.877  10.599  0.7208  1.6733  0.3308
  179SLPC   C3920424  -0.126  -0.978  10.571  0.3388 -0.1780 -0.1978
  179SLPC   H9X20425  -0.149  -1.037  10.662  0.3631  0.4380  0.2131
  179SLPC   H9Y20426  -0.018  -0.956  10.581  0.0744  0.7773  0.8127
  179SLPC  C31020427  -0.140  -1.073  10.449 -0.6238  0.1243 -0.4920
  179SLPC  H10X20428  -0.045  -1.092  10.395  0.5201  2.4411  0.5543
  179SLPC  H10Y20429  -0.208  -1.029  10.373 -0.6303  1.7495  0.3938
  179SLPC  C31120430  -0.205  -1.206  10.498 -0.1947  0.4412 -0.3092
  179SLPC  H11X20431  -0.292  -1.182  10.563  0.0413  0.5625 -0.0330
  179SLPC  H11Y20432  -0.129  -1.258  10.561 -0.2190  1.7775  0.8680
  179SLPC  C31220433  -0.241  -1.305  10.388 -0.4084  0.9397 -0.1622
  179SLPC  H12X20434  -0.314  -1.268  10.314 -1.4524 -0.0181  0.3577
  179SLPC  H12Y20435  -0.293  -1.385  10.446  1.3771  1.8058  2.8945
  179SLPC  C31320436  -0.120  -1.371  10.312 -0.0431  0.4443 -0.0611
  179SLPC  H13X20437  -0.056  -1.430  10.381 -0.9714 -1.7572 -0.9908
  179SLPC  H13Y20438  -0.065  -1.297  10.249 -2.3333  0.9330 -1.6206
  179SLPC  C31420439  -0.163  -1.490  10.215 -0.7193 -0.5066 -0.0510
  179SLPC  H14X20440  -0.228  -1.554  10.279 -0.1148 -0.5098  0.5713
  179SLPC  H14Y20441  -0.072  -1.553  10.207 -1.5369 -1.7824  0.2229
  179SLPC  C31520442  -0.221  -1.444  10.081 -0.2487 -1.1994 -0.8533
  179SLPC  H15X20443  -0.152  -1.364  10.047 -0.2770 -0.1287  1.4012
  179SLPC  H15Y20444  -0.325  -1.408  10.092  0.1778 -0.0573 -0.3631
  179SLPC  C31620445  -0.228  -1.573   9.997 -0.0132 -0.3720 -0.5147
  179SLPC  H16X20446  -0.305  -1.634  10.047 -1.8064  2.2812  0.1797
  179SLPC  H16Y20447  -0.130  -1.624   9.986 -1.5391 -3.3747 -1.2864
  179SLPC  C31720448  -0.302  -1.556   9.860 -0.6297 -0.0425 -0.4722
  179SLPC  H17X20449  -0.257  -1.470   9.807 -1.9809  0.2447 -1.2122
  179SLPC  H17Y20450  -0.409  -1.527   9.874 -0.8295 -1.4545  1.3552
  179SLPC  C31820451  -0.285  -1.680   9.774 -0.1830 -0.1515  0.4267
  179SLPC  H18X20452  -0.181  -1.707   9.746 -0.4586  0.4072 -1.2593
  179SLPC  H18Y20453  -0.332  -1.663   9.674 -1.2741 -0.8615  0.7968
  179SLPC  H18Z20454  -0.342  -1.766   9.816  0.7533 -1.8009 -1.5077
  180SLPC     N20455   2.354   2.880  10.040  0.4792 -0.3292  0.4044
  180SLPC   C1320456   2.385   2.934   9.907  0.6581  0.1856  0.2230
  180SLPC  H13A20457   2.363   3.040   9.904  4.1693  1.0317 -0.4014
  180SLPC  H13B20458   2.492   2.931   9.891  1.1426  2.2824  2.4608
  180SLPC  H13C20459   2.329   2.881   9.831  0.0024  0.5302  0.4566
  180SLPC   C1420460   2.375   2.734  10.028  0.8156  0.3585  0.0672
  180SLPC  H14A20461   2.476   2.704  10.005  1.4468  1.3482  1.4620
  180SLPC  H14B20462   2.361   2.681  10.121  0.2647  1.7365  0.7866
  180SLPC  H14C20463   2.301   2.691   9.961  0.5173 -0.2935  0.7979
  180SLPC   C1520464   2.211   2.906  10.077 -0.1991 -0.1185 -0.2097
  180SLPC  H15A20465   2.189   3.011  10.087 -1.0478 -0.4901  2.5434
  180SLPC  H15B20466   2.140   2.865  10.006 -0.5588 -0.8755  0.5740
  180SLPC  H15C20467   2.203   2.864  10.176 -0.7078  1.1823  0.3182
  180SLPC   C1220468   2.438   2.953  10.147  0.4447 -0.0667 -0.0208
  180SLPC  H12A20469   2.422   3.060  10.145  0.4017 -0.0820 -0.4959
  180SLPC  H12B20470   2.543   2.945  10.123  0.9002 -0.0853  1.8472
  180SLPC   C1120471   2.404   2.914  10.288  0.1905 -0.7410 -0.0125
  180SLPC  H11A20472   2.488   2.933  10.357 -0.2351 -0.9389  0.5649
  180SLPC  H11B20473   2.386   2.805  10.295  0.3412 -0.6639  2.5183
  180SLPC     P20474   2.296   3.139  10.386  0.4958  0.1011  0.4968
  180SLPC   O1320475   2.181   3.212  10.318 -0.0682  0.7486 -0.2130
  180SLPC   O1420476   2.298   3.137  10.532 -0.3509 -0.4051  0.0488
  180SLPC   O1220477   2.291   2.989  10.339 -0.8239  0.3134  0.5708
  180SLPC   O1120478   2.429   3.197  10.324 -0.7817  0.1738  0.2253
  180SLPC    C120479   2.516   3.256  10.420 -0.0066  0.7118  0.6940
  180SLPC    HA20480   2.465   3.342  10.469 -0.2974  1.1803 -0.3946
  180SLPC    HB20481   2.547   3.181  10.496 -3.4483  0.7778  2.3209
  180SLPC    C220482   2.648   3.311  10.357  0.3650  0.1827  0.7047
  180SLPC    HS20483   2.708   3.366  10.433  0.8806  1.1790 -0.3900
  180SLPC   O2120484   2.617   3.395  10.238 -0.6301 -0.7995  0.3410
  180SLPC   C2120485   2.588   3.512  10.278  0.1213 -0.3159  0.2472
  180SLPC   O2220486   2.590   3.560  10.390  0.1588  0.2356 -0.8521
  180SLPC   C2220487   2.538   3.594  10.155 -0.2452  0.3388 -0.3626
  180SLPC   H2R20488   2.439   3.580  10.106 -0.4968  1.0320 -0.0591
  180SLPC   H2S20489   2.524   3.697  10.194 -1.5251  0.5322 -1.2385
  180SLPC    C320490   2.730   3.195  10.299  0.0630 -0.0498  0.8088
  180SLPC    HX20491   2.821   3.239  10.252  0.2740 -2.1772 -0.9077
  180SLPC    HY20492   2.678   3.147  10.214 -0.5092 -0.7284  1.5363
  180SLPC   O3120493   2.778   3.102  10.398  0.2309 -0.3470 -0.1451
  180SLPC   C3120494   2.810   2.981  10.342  0.7278  0.0978 -0.2722
  180SLPC   O3220495   2.798   2.956  10.224  0.0890  0.4109 -0.2247
  180SLPC   C3220496   2.853   2.881  10.450  0.1563 -0.2240  0.2777
  180SLPC   H2X20497   2.762   2.835  10.494 -0.0113 -1.4930 -1.3096
  180SLPC   H2Y20498   2.916   2.921  10.532 -0.0878 -0.2850  0.4962
  180SLPC   C2320499   2.641   3.579  10.043  0.6978 -0.5156 -0.1544
  180SLPC   H3R20500   2.604   3.643   9.961  2.8271 -2.3864 -2.7326
  180SLPC   H3S20501   2.641   3.479   9.996 -0.2395 -0.4070 -0.3933
  180SLPC   C2420502   2.781   3.638  10.068 -0.2600  0.4841 -0.4269
  180SLPC   H4R20503   2.827   3.576  10.147 -1.8064 -0.5720 -0.3241
  180SLPC   H4S20504   2.782   3.739  10.115  0.4640 -0.7873  2.5021
  180SLPC   C2520505   2.882   3.649   9.935  0.2467  0.1351  0.3356
  180SLPC   H5R20506   2.976   3.696   9.971  0.3880  0.8526 -0.8842
  180SLPC   H5S20507   2.838   3.718   9.859 -1.7992 -0.6024  0.7918
  180SLPC   C2620508   2.914   3.509   9.866  0.7651 -0.1942 -0.1905
  180SLPC   H6R20509   2.978   3.535   9.779  0.8437  2.2597  0.5074
  180SLPC   H6S20510   2.824   3.465   9.819  1.6042 -0.3807 -1.6860
  180SLPC   C2720511   2.980   3.402   9.952 -0.7467 -0.4107  0.3597
  180SLPC   H7R20512   2.939   3.398  10.055  0.8262  0.4293  1.0574
  180SLPC   H7S20513   3.089   3.421   9.958 -0.7479  0.6972 -1.9081
  180SLPC   C2820514   2.972   3.258   9.885  0.2765  0.0568 -0.6537
  180SLPC   H8R20515   3.023   3.194   9.961 -0.5241  1.6049  1.2814
  180SLPC   H8S20516   3.018   3.259   9.784  0.4126 -0.5163 -0.5995
  180SLPC   C2920517   2.831   3.211   9.890  0.2825  0.1412  0.5319
  180SLPC   H9R20518   2.770   3.251   9.972  0.2718 -0.0394  0.6136
  180SLPC  C21020519   2.777   3.115   9.811  0.3063  0.0677  0.5542
  180SLPC  H10R20520   2.667   3.113   9.822  0.0354  0.9731 -1.4872
  180SLPC  C21120521   2.836   3.029   9.702  0.6107  0.4101  0.3693
  180SLPC  H11R20522   2.838   3.090   9.609 -2.0425 -0.7072 -0.5171
  180SLPC  H11S20523   2.766   2.948   9.671  1.7044 -0.0197 -1.0967
  180SLPC  C21220524   2.969   2.969   9.727  0.5619 -0.0939 -0.0130
  180SLPC  H12R20525   2.991   2.953   9.834  0.2659  1.8801  0.3946
  180SLPC  C21320526   3.057   2.945   9.628  0.0428  0.1886  0.6524
  180SLPC  H13R20527   3.154   2.904   9.660 -0.7114 -1.5723  0.7872
  180SLPC  C21420528   3.036   2.945   9.476  0.2611 -0.1076  0.0066
  180SLPC  H14R20529   2.930   2.970   9.450  0.0903  1.1258  1.7486
  180SLPC  H14S20530   3.063   2.846   9.433 -1.1689 -0.7631  0.5327
  180SLPC  C21520531   3.133   3.057   9.423  0.1643 -0.6346  0.5032
  180SLPC  H15R20532   3.244   3.052   9.434  0.2414 -0.6693 -0.2179
  180SLPC  H15S20533   3.111   3.153   9.476 -0.5360 -1.3516  1.5525
  180SLPC  C21620534   3.093   3.085   9.279  0.0872 -0.0802 -0.3843
  180SLPC  H16R20535   2.983   3.100   9.269 -0.2371 -1.2126  1.1308
  180SLPC  H16S20536   3.116   2.996   9.216 -2.2304  0.7576 -2.5893
  180SLPC  C21720537   3.164   3.205   9.213 -0.2791  0.1166 -0.3949
  180SLPC  H17R20538   3.268   3.218   9.249  0.5601 -3.1904 -1.3230
  180SLPC  H17S20539   3.122   3.306   9.236  0.0703  0.0822  0.4380
  180SLPC  C21820540   3.168   3.179   9.056 -0.2845  0.6701  0.5189
  180SLPC  H18R20541   3.065   3.152   9.026 -0.9681  2.9148  0.6281
  180SLPC  H18S20542   3.242   3.099   9.037  0.8485  1.2687  2.1910
  180SLPC  H18T20543   3.201   3.262   8.990 -0.2512  0.0420 -0.2689
  180SLPC   C3320544   2.931   2.761  10.389  1.0500 -0.0423  0.3080
  180SLPC   H3X20545   3.036   2.788  10.368  0.5669  1.9720  0.3029
  180SLPC   H3Y20546   2.892   2.740  10.287 -1.2944  2.3597  0.5988
  180SLPC   C3420547   2.929   2.626  10.464  0.0766 -0.1963  0.3326
  180SLPC   H4X20548   2.823   2.603  10.490  0.5675 -0.6181  2.0603
  180SLPC   H4Y20549   2.983   2.650  10.558 -2.3861  1.7531  1.3757
  180SLPC   C3520550   2.990   2.505  10.394 -0.6966  0.3928  0.2789
  180SLPC   H5X20551   3.011   2.429  10.472 -0.8580  0.8081  0.7355
  180SLPC   H5Y20552   3.077   2.545  10.338 -1.7912  3.4078  0.5198
  180SLPC   C3620553   2.898   2.445  10.281  0.3086 -0.0157 -1.2387
  180SLPC   H6X20554   2.877   2.520  10.202 -0.3129  0.3187 -0.7710
  180SLPC   H6Y20555   2.806   2.398  10.325  0.8997  0.5788  0.7581
  180SLPC   C3720556   2.975   2.336  10.208  0.4560 -0.2136  0.2974
  180SLPC   H7X20557   3.000   2.252  10.276  1.6437 -0.1525 -0.0457
  180SLPC   H7Y20558   3.069   2.369  10.159  0.5447 -0.0185  0.5980
  180SLPC   C3820559   2.883   2.283  10.096 -0.3796  0.2206 -0.2494
  180SLPC   H8X20560   2.877   2.374  10.032  0.6949  1.6586  1.5825
  180SLPC   H8Y20561   2.782   2.246  10.126 -1.3562  0.3736 -2.9830
  180SLPC   C3920562   2.945   2.161  10.026 -0.1556  0.8362  0.0432
  180SLPC   H9X20563   2.946   2.080  10.101  0.8293  0.6103 -0.2013
  180SLPC   H9Y20564   3.049   2.184   9.995 -0.0907  0.5037  0.0115
  180SLPC  C31020565   2.857   2.128   9.906 -0.1961  0.3510  0.5879
  180SLPC  H10X20566   2.932   2.100   9.828 -0.4360 -0.2772  0.5753
  180SLPC  H10Y20567   2.796   2.217   9.881  1.4192  1.6986  1.2300
  180SLPC  C31120568   2.765   2.010   9.926 -0.8381 -0.8531  0.4824
  180SLPC  H11X20569   2.681   2.016   9.854 -0.4440 -2.7928 -0.2089
  180SLPC  H11Y20570   2.719   2.031  10.025 -2.4473 -3.1270  0.3083
  180SLPC  C31220571   2.807   1.861   9.939 -0.0998  0.8480 -0.1935
  180SLPC  H12X20572   2.908   1.855   9.986 -0.3621  2.8658  0.7833
  180SLPC  H12Y20573   2.824   1.834   9.833 -0.7159  2.3561 -0.7006
  180SLPC  C31320574   2.690   1.774  10.003 -0.5408  0.0025  0.0803
  180SLPC  H13X20575   2.597   1.810   9.954 -0.2998  1.9855  0.9876
  180SLPC  H13Y20576   2.680   1.789  10.112  1.1513  1.6955  0.0706
  180SLPC  C31420577   2.715   1.628   9.979 -0.2617  0.4355  0.5943
  180SLPC  H14X20578   2.750   1.612   9.875 -2.2740  3.7666 -0.7766
  180SLPC  H14Y20579   2.618   1.574   9.969  0.3363 -0.3009 -1.6534
  180SLPC  C31520580   2.801   1.549  10.088 -0.6143 -0.1375  0.2532
  180SLPC  H15X20581   2.749   1.562  10.185 -0.8429 -4.0698  0.8141
  180SLPC  H15Y20582   2.903   1.591  10.098 -1.0065  0.7809  0.5309
  180SLPC  C31620583   2.806   1.389  10.067  0.2862 -0.2058  0.1551
  180SLPC  H16X20584   2.845   1.367   9.965 -1.2643  1.1959 -0.7983
  180SLPC  H16Y20585   2.699   1.360  10.075 -0.2608  0.9324 -2.1692
  180SLPC  C31720586   2.881   1.309  10.170  1.0986 -0.2666  0.9543
  180SLPC  H17X20587   2.989   1.332  10.160  0.6587  2.6864  1.9686
  180SLPC  H17Y20588   2.869   1.203  10.141 -1.1263  0.5331 -1.5495
  180SLPC  C31820589   2.846   1.339  10.319  0.8168 -0.1347 -0.4626
  180SLPC  H18X20590   2.856   1.447  10.345 -2.1957 -0.0165  0.6800
  180SLPC  H18Y20591   2.912   1.278  10.384 -0.3021 -0.2032  0.6472
  180SLPC  H18Z20592   2.742   1.310  10.344  0.0079  2.8805  0.1415
  181SLPC     N20593   2.487   0.067  14.410 -0.3911  0.2869  0.0131
  181SLPC   C1320594   2.419   0.178  14.338  0.6060 -0.6694  0.1195
  181SLPC  H13A20595   2.486   0.255  14.301  2.6353 -3.2849 -2.1233
  181SLPC  H13B20596   2.367   0.145  14.250 -1.8950  0.0007  1.2507
  181SLPC  H13C20597   2.350   0.229  14.404  0.1517 -2.8910  1.4413
  181SLPC   C1420598   2.388  -0.048  14.418 -0.0950 -0.2654  0.3456
  181SLPC  H14A20599   2.432  -0.133  14.469  3.3122  2.3975  2.3069
  181SLPC  H14B20600   2.303  -0.023  14.480  1.5873  0.0798  2.6640
  181SLPC  H14C20601   2.344  -0.075  14.324 -0.1855  0.0907  0.2856
  181SLPC   C1520602   2.521   0.112  14.553 -0.2750  0.0676 -0.3008
  181SLPC  H15A20603   2.576   0.033  14.602  0.4175 -0.3863 -1.7732
  181SLPC  H15B20604   2.588   0.197  14.558 -1.6373  1.1818 -0.0438
  181SLPC  H15C20605   2.429   0.137  14.605 -1.1159 -1.2917 -1.0805
  181SLPC   C1220606   2.611   0.016  14.339  0.2421  0.3977  0.9178
  181SLPC  H12A20607   2.695   0.083  14.354  0.5201  0.1205  0.6239
  181SLPC  H12B20608   2.591   0.020  14.233 -1.7658  0.8193  1.2653
  181SLPC   C1120609   2.661  -0.126  14.374 -0.3437 -0.5221  0.5187
  181SLPC  H11A20610   2.642  -0.146  14.482  2.1152  0.2421  1.1419
  181SLPC  H11B20611   2.771  -0.135  14.367 -0.2817  0.7954 -0.6943
  181SLPC     P20612   2.603  -0.250  14.147 -0.3655  0.1994  0.1526
  181SLPC   O1320613   2.728  -0.326  14.137 -0.8376  0.2524  0.0565
  181SLPC   O1420614   2.479  -0.304  14.096  0.2233  0.1889 -0.4465
  181SLPC   O1220615   2.585  -0.222  14.300 -0.1241  0.5141 -0.2399
  181SLPC   O1120616   2.619  -0.103  14.088  0.1160  0.5348  0.5150
  181SLPC    C120617   2.620  -0.094  13.946  0.2204  0.1076 -0.0921
  181SLPC    HA20618   2.681  -0.168  13.889  0.0540  0.9440 -1.3902
  181SLPC    HB20619   2.515  -0.099  13.910 -0.3779  0.9174  1.4474
  181SLPC    C220620   2.665   0.048  13.907  0.6140  0.0148  0.2915
  181SLPC    HS20621   2.642   0.069  13.800 -0.3051 -2.1462  0.0206
  181SLPC   O2120622   2.810   0.062  13.926 -0.0455  0.3245 -0.0040
  181SLPC   C2120623   2.891   0.021  13.824 -0.3707 -0.5044 -0.3407
  181SLPC   O2220624   2.858  -0.035  13.726  0.2089 -0.4265  0.3441
  181SLPC   C2220625   3.033   0.067  13.869 -0.4111 -0.3086 -0.4866
  181SLPC   H2R20626   3.044   0.042  13.977 -1.3421 -0.6614 -0.4645
  181SLPC   H2S20627   3.103   0.006  13.809 -0.4936  1.0745 -2.0446
  181SLPC    C320628   2.582   0.160  13.984  0.1283 -0.2912 -0.1733
  181SLPC    HX20629   2.624   0.181  14.085  0.0361  1.0700 -0.4072
  181SLPC    HY20630   2.484   0.108  13.987  0.8985 -1.7810  1.6653
  181SLPC   O3120631   2.565   0.278  13.903 -0.3282  1.0518  0.5024
  181SLPC   C3120632   2.656   0.377  13.916 -0.1433  0.5501  0.2916
  181SLPC   O3220633   2.725   0.399  14.017 -0.0273  0.4327 -0.4576
  181SLPC   C3220634   2.645   0.476  13.799 -0.1949  1.0511 -0.4717
  181SLPC   H2X20635   2.557   0.459  13.734  0.7841 -0.0534 -1.5691
  181SLPC   H2Y20636   2.732   0.465  13.731 -0.1168 -0.9867 -0.1150
  181SLPC   C2320637   3.073   0.207  13.820 -0.3868 -0.3952 -0.7627
  181SLPC   H3R20638   3.024   0.285  13.882  0.1704  0.5278 -1.4561
  181SLPC   H3S20639   3.067   0.210  13.709  0.5324 -2.5224 -0.9161
  181SLPC   C2420640   3.224   0.221  13.849  0.0790 -0.1319  0.0817
  181SLPC   H4R20641   3.284   0.155  13.782 -1.2088 -1.2732  0.0055
  181SLPC   H4S20642   3.248   0.179  13.949 -0.5816  2.3803  1.3581
  181SLPC   C2520643   3.274   0.366  13.848  0.2471 -0.3773  0.4874
  181SLPC   H5R20644   3.227   0.414  13.936 -0.1816  0.4104 -0.1556
  181SLPC   H5S20645   3.242   0.422  13.757  0.5202  0.1718  0.7245
  181SLPC   C2620646   3.428   0.379  13.848 -0.2285  0.5553 -0.9008
  181SLPC   H6R20647   3.484   0.290  13.814  0.1047  0.3079  0.2355
  181SLPC   H6S20648   3.452   0.393  13.956 -1.1574  0.3821 -0.6642
  181SLPC   C2720649   3.485   0.502  13.779  0.5245 -1.3863  0.5401
  181SLPC   H7R20650   3.592   0.524  13.799  0.7306 -0.3075 -1.5105
  181SLPC   H7S20651   3.430   0.592  13.814  3.0390 -0.1906  1.6683
  181SLPC   C2820652   3.466   0.502  13.625 -0.3034  0.0365  0.4684
  181SLPC   H8R20653   3.482   0.593  13.563 -1.5549 -0.6729 -0.9834
  181SLPC   H8S20654   3.359   0.487  13.597 -0.8258  1.3824  1.6429
  181SLPC   C2920655   3.552   0.390  13.569  0.4118  0.2441  0.0822
  181SLPC   H9R20656   3.656   0.400  13.603  0.4362  2.9681 -0.5626
  181SLPC  C21020657   3.509   0.297  13.491  0.4089  0.3226  0.1903
  181SLPC  H10R20658   3.581   0.221  13.458 -1.9548 -1.1545 -1.8836
  181SLPC  C21120659   3.366   0.270  13.444  0.2468 -0.2528  1.1308
  181SLPC  H11R20660   3.375   0.280  13.334 -0.8237  2.4076  1.2008
  181SLPC  H11S20661   3.293   0.350  13.471 -0.8124 -0.5622 -0.6855
  181SLPC  C21220662   3.308   0.136  13.485  0.1014  0.3471  1.0942
  181SLPC  H12R20663   3.362   0.081  13.563 -2.7046 -0.2587  2.7033
  181SLPC  C21320664   3.179   0.102  13.470 -0.1894  0.1664 -0.3968
  181SLPC  H13R20665   3.158  -0.003  13.495  2.7507 -0.6013 -0.6796
  181SLPC  C21420666   3.079   0.182  13.391 -0.1573 -0.0015 -0.4854
  181SLPC  H14R20667   3.081   0.159  13.282  2.3913 -2.9661  0.0392
  181SLPC  H14S20668   3.105   0.290  13.384  1.2832 -0.4267 -4.1846
  181SLPC  C21520669   2.936   0.157  13.445 -0.5798  0.3613  0.7175
  181SLPC  H15R20670   2.941   0.145  13.556  2.9368 -0.8322  0.5572
  181SLPC  H15S20671   2.900   0.059  13.407  2.2202  0.1066 -1.6661
  181SLPC  C21620672   2.833   0.268  13.410  0.0659  0.1817 -0.1063
  181SLPC  H16R20673   2.801   0.246  13.306  2.7819 -1.5368 -0.6863
  181SLPC  H16S20674   2.877   0.370  13.411 -3.6639  1.9413  1.1285
  181SLPC  C21720675   2.713   0.245  13.505 -0.0468 -0.0501 -0.4765
  181SLPC  H17R20676   2.732   0.273  13.611  0.2393  0.8429 -0.7574
  181SLPC  H17S20677   2.675   0.141  13.510 -0.4580  0.1376  2.1272
  181SLPC  C21820678   2.597   0.344  13.459 -0.0798 -0.1731 -0.2054
  181SLPC  H18R20679   2.507   0.292  13.499 -0.4213 -1.3219 -2.3394
  181SLPC  H18S20680   2.573   0.335  13.351 -2.6825 -1.8962  0.4209
  181SLPC  H18T20681   2.620   0.446  13.495  0.8377 -0.3200 -0.3396
  181SLPC   C3320682   2.640   0.615  13.859 -0.2317 -0.0816  0.0731
  181SLPC   H3X20683   2.575   0.616  13.949 -0.6933  0.2187 -0.2599
  181SLPC   H3Y20684   2.580   0.680  13.792 -1.0715 -1.0049 -0.0923
  181SLPC   C3420685   2.771   0.687  13.888 -0.3800 -0.1627  0.0475
  181SLPC   H4X20686   2.820   0.706  13.790 -0.6060  1.3679  0.1944
  181SLPC   H4Y20687   2.845   0.626  13.944 -1.0314  0.0146  1.1221
  181SLPC   C3520688   2.748   0.819  13.962 -0.0948  0.1766  0.2718
  181SLPC   H5X20689   2.680   0.884  13.902  0.2161  0.3882  0.1507
  181SLPC   H5Y20690   2.841   0.876  13.943  0.0866 -0.0013  0.6203
  181SLPC   C3620691   2.724   0.800  14.109 -0.1516 -0.5898 -0.3023
  181SLPC   H6X20692   2.799   0.731  14.153 -0.2188  1.2771  3.0626
  181SLPC   H6Y20693   2.622   0.757  14.117  0.2820 -2.3699 -3.1294
  181SLPC   C3720694   2.719   0.934  14.185 -0.1473 -0.4017  0.4041
  181SLPC   H7X20695   2.645   0.994  14.127 -2.1592 -1.0380  2.1398
  181SLPC   H7Y20696   2.812   0.995  14.187 -1.2064  1.2840  2.2876
  181SLPC   C3820697   2.666   0.942  14.322  0.6730  0.3470 -0.0684
  181SLPC   H8X20698   2.577   0.876  14.324 -0.1029  1.2970 -1.6361
  181SLPC   H8Y20699   2.629   1.045  14.344  1.1287  0.7974 -1.2957
  181SLPC   C3920700   2.756   0.901  14.438  0.2659 -0.1217  0.2835
  181SLPC   H9X20701   2.817   0.988  14.471 -0.3553  0.8706 -1.0876
  181SLPC   H9Y20702   2.813   0.815  14.398  0.0919  0.8458 -2.2364
  181SLPC  C31020703   2.669   0.868  14.562  0.5300 -1.1470  0.1782
  181SLPC  H10X20704   2.631   0.765  14.545 -0.1213 -1.0591  0.9866
  181SLPC  H10Y20705   2.593   0.949  14.570  0.1970 -1.5680  1.7575
  181SLPC  C31120706   2.744   0.859  14.699 -0.8469  0.5788 -0.7592
  181SLPC  H11X20707   2.667   0.848  14.778 -1.0096  0.3917 -0.9407
  181SLPC  H11Y20708   2.792   0.959  14.708  2.0383 -0.5763 -2.2368
  181SLPC  C31220709   2.853   0.748  14.708  0.1556  0.1393 -0.1084
  181SLPC  H12X20710   2.941   0.779  14.647  0.3824 -0.2956 -0.0052
  181SLPC  H12Y20711   2.819   0.647  14.675 -0.1552  0.7775 -1.8645
  181SLPC  C31320712   2.890   0.723  14.858  0.1315  0.0257  0.1637
  181SLPC  H13X20713   2.798   0.691  14.910 -0.3728 -1.1186 -1.3324
  181SLPC  H13Y20714   2.928   0.818  14.901  1.1445  0.8029 -2.2343
  181SLPC  C31420715   2.989   0.608  14.883  0.2616 -0.6203 -0.5315
  181SLPC  H14X20716   3.092   0.648  14.877 -0.3172  0.8344 -1.4836
  181SLPC  H14Y20717   2.979   0.534  14.800  1.6771 -0.3336 -0.9752
  181SLPC  C31520718   2.979   0.533  15.020  0.2287  0.0020  0.6376
  181SLPC  H15X20719   2.876   0.495  15.038  0.0253  1.0921  1.9209
  181SLPC  H15Y20720   3.009   0.609  15.096 -2.8053  2.7886 -0.6856
  181SLPC  C31620721   3.065   0.407  15.044  0.1833 -0.6608 -0.1406
  181SLPC  H16X20722   3.173   0.425  15.027  0.5274 -0.6037  1.8502
  181SLPC  H16Y20723   3.035   0.328  14.973 -1.9814  2.3237 -2.8440
  181SLPC  C31720724   3.041   0.355  15.193 -0.4388  0.5328  0.0845
  181SLPC  H17X20725   2.932   0.368  15.210 -0.4209  1.3010 -0.3292
  181SLPC  H17Y20726   3.094   0.429  15.257  1.0258  0.4151 -0.9404
  181SLPC  C31820727   3.097   0.215  15.220  1.0972 -0.7510 -0.1607
  181SLPC  H18X20728   3.057   0.136  15.152  0.2711 -0.6153  0.1623
  181SLPC  H18Y20729   3.069   0.176  15.320  0.4248 -0.0826 -0.0856
  181SLPC  H18Z20730   3.207   0.206  15.209  1.0674 -2.4827  0.5748
  182SLPC     N20731   1.412   3.431  13.875  0.0736  0.1690  1.0598
  182SLPC   C1320732   1.292   3.380  13.799 -0.1593 -0.2963  0.3539
  182SLPC  H13A20733   1.203   3.412  13.851  2.1565  1.9226  3.3130
  182SLPC  H13B20734   1.274   3.425  13.703 -0.7028 -1.2745 -0.0205
  182SLPC  H13C20735   1.304   3.272  13.800 -0.2889 -0.3133  1.5969
  182SLPC   C1420736   1.540   3.403  13.798 -0.1405  0.4642 -1.0579
  182SLPC  H14A20737   1.540   3.448  13.699 -0.7434  1.1027 -0.7762
  182SLPC  H14B20738   1.627   3.440  13.850 -1.8871 -0.3637  2.8174
  182SLPC  H14C20739   1.541   3.296  13.783 -2.5725  0.6201 -3.1075
  182SLPC   C1520740   1.415   3.391  14.017 -0.3953  0.5831 -0.1762
  182SLPC  H15A20741   1.502   3.430  14.068  2.0232 -3.0305 -1.1706
  182SLPC  H15B20742   1.328   3.417  14.074  0.3502  2.2034  0.2923
  182SLPC  H15C20743   1.426   3.284  14.021 -0.6832  0.3193 -3.3783
  182SLPC   C1220744   1.395   3.582  13.875  0.6647  0.0410  0.3465
  182SLPC  H12A20745   1.472   3.628  13.934  2.1091 -0.5408 -1.0354
  182SLPC  H12B20746   1.304   3.595  13.932  0.0340 -2.7751  0.1528
  182SLPC   C1120747   1.393   3.648  13.737 -0.9334  0.9001 -0.1402
  182SLPC  H11A20748   1.435   3.588  13.653 -0.2427  1.2726 -0.0728
  182SLPC  H11B20749   1.458   3.739  13.737  1.1282 -0.3883  3.2440
  182SLPC     P20750   1.185   3.806  13.712  0.1104 -0.0926 -0.3561
  182SLPC   O1320751   1.043   3.803  13.684  0.4729  0.4567  0.4880
  182SLPC   O1420752   1.207   3.845  13.852  0.0773 -0.4451 -0.0864
  182SLPC   O1220753   1.259   3.667  13.695  0.6397 -0.1558  0.2324
  182SLPC   O1120754   1.261   3.907  13.613  0.0135 -0.0022 -0.3986
  182SLPC    C120755   1.342   4.019  13.654 -1.0958 -0.1614 -0.0392
  182SLPC    HA20756   1.375   4.003  13.759 -2.5740  1.9508  0.8180
  182SLPC    HB20757   1.436   4.017  13.595  1.0426  1.2762  3.0384
  182SLPC    C220758   1.271   4.153  13.646  0.0063  0.8931  0.0316
  182SLPC    HS20759   1.329   4.243  13.674 -0.6974  1.8784 -1.5255
  182SLPC   O2120760   1.146   4.131  13.717 -0.1204 -1.0541  0.1362
  182SLPC   C2120761   1.159   4.152  13.848 -0.5453  0.2664 -0.9200
  182SLPC   O2220762   1.258   4.200  13.899  0.4380  0.1662 -0.2773
  182SLPC   C2220763   1.027   4.110  13.906  1.1740 -0.4500  0.0583
  182SLPC   H2R20764   0.984   4.037  13.835  1.9530  1.6200 -2.7434
  182SLPC   H2S20765   1.045   4.061  14.004  1.2054 -0.6265 -0.0360
  182SLPC    C320766   1.241   4.183  13.499  1.0095 -0.5396  0.3113
  182SLPC    HX20767   1.183   4.099  13.457 -0.3530  0.6030 -0.1647
  182SLPC    HY20768   1.337   4.193  13.445  0.4213 -1.3142 -0.9235
  182SLPC   O3120769   1.166   4.310  13.484  0.1058 -0.4685  0.4019
  182SLPC   C3120770   1.049   4.295  13.419  0.4448 -0.2013  0.4269
  182SLPC   O3220771   1.027   4.215  13.328 -0.4989  0.3868 -0.5831
  182SLPC   C3220772   0.955   4.408  13.447  0.4289  0.8995 -0.1399
  182SLPC   H2X20773   0.919   4.455  13.353  0.5001  0.0378 -0.6141
  182SLPC   H2Y20774   1.018   4.490  13.486 -0.0119  2.2934 -2.1992
  182SLPC   C2320775   0.944   4.235  13.918  0.3509 -0.4980 -0.3883
  182SLPC   H3R20776   0.835   4.214  13.929  0.4452  0.1024  2.6057
  182SLPC   H3S20777   0.945   4.294  13.824 -0.6305 -1.8277 -1.2622
  182SLPC   C2420778   0.990   4.332  14.028  0.2590  0.2413 -0.5235
  182SLPC   H4R20779   1.090   4.369  13.997  0.1664  3.6530  2.5630
  182SLPC   H4S20780   0.993   4.271  14.121 -1.7514 -3.2867 -2.5643
  182SLPC   C2520781   0.892   4.455  14.033 -0.2631 -0.1644  0.5482
  182SLPC   H5R20782   0.794   4.413  14.062 -0.3108 -0.4968 -0.0666
  182SLPC   H5S20783   0.887   4.497  13.930  0.9610  0.6081  0.7759
  182SLPC   C2620784   0.919   4.566  14.142 -0.1723  0.7128  0.5029
  182SLPC   H6R20785   1.005   4.627  14.108 -0.5639  2.1481  1.9952
  182SLPC   H6S20786   0.960   4.509  14.229  2.0172 -2.2247 -2.2053
  182SLPC   C2720787   0.797   4.647  14.184  0.3369  0.1898  0.2236
  182SLPC   H7R20788   0.800   4.654  14.295 -0.6648 -1.4645  0.4015
  182SLPC   H7S20789   0.701   4.594  14.169  1.1190 -1.3737  0.5103
  182SLPC   C2820790   0.792   4.779  14.109  0.4896 -0.2811  0.0194
  182SLPC   H8R20791   0.763   4.757  14.005  0.7208 -0.7439  0.0514
  182SLPC   H8S20792   0.895   4.823  14.109  0.6758 -0.7203 -0.3553
  182SLPC   C2920793   0.689   4.881  14.146 -0.3211 -0.4690 -0.1363
  182SLPC   H9R20794   0.592   4.843  14.179 -0.7881  1.5177  0.9443
  182SLPC  C21020795   0.715   5.013  14.163  0.2661  0.3530  0.6550
  182SLPC  H10R20796   0.640   5.084  14.202  0.7334  1.9752 -1.2387
  182SLPC  C21120797   0.850   5.074  14.146 -0.1434  0.4786  0.1332
  182SLPC  H11R20798   0.890   5.052  14.045  2.0947 -1.3610  1.3083
  182SLPC  H11S20799   0.915   5.011  14.211 -0.9880 -0.8778 -0.3023
  182SLPC  C21220800   0.871   5.218  14.192  0.3705  0.7339  0.7140
  182SLPC  H12R20801   0.923   5.233  14.288  1.0778  2.7783  0.0758
  182SLPC  C21320802   0.833   5.332  14.122  0.4792  0.4907  0.4062
  182SLPC  H13R20803   0.844   5.435  14.156  1.2299  0.2973  0.7553
  182SLPC  C21420804   0.764   5.338  13.990 -0.2380  0.1354  0.5579
  182SLPC  H14R20805   0.805   5.261  13.921  1.6978 -0.4283  2.2290
  182SLPC  H14S20806   0.792   5.433  13.942  0.5383 -0.1621  0.4078
  182SLPC  C21520807   0.615   5.328  14.003 -0.4162  0.2659 -0.1622
  182SLPC  H15R20808   0.578   5.236  14.052 -1.8384 -0.2591 -2.0657
  182SLPC  H15S20809   0.567   5.319  13.902  0.8124 -1.0497 -0.6594
  182SLPC  C21620810   0.554   5.446  14.083 -0.2653 -0.2260 -0.3259
  182SLPC  H16R20811   0.569   5.539  14.024  0.4227 -0.8655 -1.1778
  182SLPC  H16S20812   0.608   5.450  14.180 -1.3688 -1.1370  0.3594
  182SLPC  C21720813   0.409   5.426  14.114  0.2579  0.4166 -0.1391
  182SLPC  H17R20814   0.350   5.356  14.052 -0.3124 -0.4115  1.3001
  182SLPC  H17S20815   0.358   5.524  14.121 -2.5552 -0.9348 -0.4678
  182SLPC  C21820816   0.394   5.354  14.255 -0.0295  0.0950 -0.3080
  182SLPC  H18R20817   0.456   5.403  14.333 -2.9853  0.8455  1.7346
  182SLPC  H18S20818   0.433   5.249  14.251  0.6011  0.3307 -0.5547
  182SLPC  H18T20819   0.291   5.348  14.294  0.2725  0.1933  0.5194
  182SLPC   C3320820   0.835   4.364  13.541  0.4528 -0.7732 -0.1350
  182SLPC   H3X20821   0.863   4.268  13.589  0.7602 -0.4278  0.3866
  182SLPC   H3Y20822   0.735   4.350  13.496  1.0936  2.2229 -2.8721
  182SLPC   C3420823   0.783   4.463  13.654  0.1724 -0.3545  0.2404
  182SLPC   H4X20824   0.772   4.569  13.621 -2.0404 -0.8455 -0.7073
  182SLPC   H4Y20825   0.867   4.448  13.726 -0.4227 -0.1467  0.9939
  182SLPC   C3520826   0.653   4.423  13.719  0.4359 -0.2383 -0.4029
  182SLPC   H5X20827   0.681   4.333  13.777  1.2649  0.6177  0.5754
  182SLPC   H5Y20828   0.588   4.396  13.633 -0.8445  4.7449 -1.3111
  182SLPC   C3620829   0.586   4.525  13.807  0.1677  0.3602 -0.7736
  182SLPC   H6X20830   0.660   4.560  13.882  0.5847 -0.7781 -0.6208
  182SLPC   H6Y20831   0.516   4.460  13.865 -0.7683  1.6224 -0.4423
  182SLPC   C3720832   0.521   4.633  13.726  0.1277 -0.8757  0.2857
  182SLPC   H7X20833   0.604   4.675  13.665  1.2251 -1.0944  1.5882
  182SLPC   H7Y20834   0.485   4.715  13.792  1.8103 -0.1491  0.3501
  182SLPC   C3820835   0.409   4.592  13.638  0.5183  0.6291  0.3112
  182SLPC   H8X20836   0.369   4.490  13.661  1.4034  0.3454  0.6590
  182SLPC   H8Y20837   0.449   4.581  13.535 -4.1398  0.9356 -1.7881
  182SLPC   C3920838   0.296   4.695  13.625  0.4709 -0.1039  0.5762
  182SLPC   H9X20839   0.343   4.795  13.622  2.2343 -0.9141 -1.6516
  182SLPC   H9Y20840   0.222   4.679  13.707  0.7893 -3.6001  0.3463
  182SLPC  C31020841   0.232   4.684  13.488  0.6613  0.2764 -0.1384
  182SLPC  H10X20842   0.175   4.589  13.490  3.4921 -1.5782  2.4334
  182SLPC  H10Y20843   0.302   4.650  13.409  0.0050 -0.7658 -0.2885
  182SLPC  C31120844   0.148   4.812  13.453  0.0284 -0.5061 -0.0649
  182SLPC  H11X20845   0.226   4.888  13.431 -0.1422 -0.5446 -0.7932
  182SLPC  H11Y20846   0.083   4.827  13.542 -0.5102 -0.6658 -0.4280
  182SLPC  C31220847   0.072   4.787  13.324  0.9354  0.0097 -0.1420
  182SLPC  H12X20848   0.004   4.699  13.334  1.5149 -0.5269 -0.7941
  182SLPC  H12Y20849   0.137   4.763  13.237  0.8066  2.6602 -1.0604
  182SLPC  C31320850  -0.016   4.906  13.291  0.0128  0.0975 -0.2864
  182SLPC  H13X20851   0.055   4.990  13.275  0.2211 -0.3927 -2.1731
  182SLPC  H13Y20852  -0.073   4.942  13.379 -0.4453 -3.3279  0.9440
  182SLPC  C31420853  -0.107   4.884  13.169 -0.6648 -0.5825 -0.3532
  182SLPC  H14X20854  -0.056   4.843  13.079 -0.1514 -0.0110 -0.3293
  182SLPC  H14Y20855  -0.157   4.977  13.134  0.9621  0.0371 -1.1192
  182SLPC  C31520856  -0.223   4.790  13.196 -0.0966  0.3283  0.2727
  182SLPC  H15X20857  -0.273   4.833  13.285  1.2927  0.8982  0.8116
  182SLPC  H15Y20858  -0.185   4.688  13.215 -0.9102 -0.0061  0.1484
  182SLPC  C31620859  -0.314   4.780  13.074  0.5870 -0.5899 -0.6106
  182SLPC  H16X20860  -0.254   4.760  12.982  1.7404  1.2212 -0.3013
  182SLPC  H16Y20861  -0.356   4.879  13.048  0.0560 -0.8664 -0.8282
  182SLPC  C31720862  -0.427   4.678  13.101  0.7413 -0.4499  0.1158
  182SLPC  H17X20863  -0.376   4.584  13.132  1.5479  0.0089  0.2059
  182SLPC  H17Y20864  -0.478   4.655  13.005 -0.3819 -0.4568  0.6986
  182SLPC  C31820865  -0.531   4.712  13.206  0.7850  0.6359  0.1164
  182SLPC  H18X20866  -0.484   4.744  13.302  1.2419 -0.8356  0.4224
  182SLPC  H18Y20867  -0.605   4.629  13.209  0.1765  1.1867  0.5063
  182SLPC  H18Z20868  -0.586   4.801  13.171  1.1002  1.5057  1.7208
  183SLPC     N20869   2.845   3.319  11.481  0.1704  0.2576  0.0644
  183SLPC   C1320870   2.885   3.227  11.367 -0.3667 -0.2393 -0.0390
  183SLPC  H13A20871   2.869   3.281  11.275 -0.0367 -3.2953 -2.0318
  183SLPC  H13B20872   2.987   3.195  11.380 -0.6676 -0.8714  0.8412
  183SLPC  H13C20873   2.814   3.145  11.365 -0.1428 -0.4650  0.7950
  183SLPC   C1420874   2.862   3.251  11.607 -0.2667 -0.3857 -0.0141
  183SLPC  H14A20875   2.803   3.160  11.614 -0.9627 -0.0127 -0.8832
  183SLPC  H14B20876   2.964   3.221  11.628  0.2739  0.5492 -1.2289
  183SLPC  H14C20877   2.852   3.322  11.688  1.6767 -0.9724  0.7983
  183SLPC   C1520878   2.704   3.356  11.456  0.1083  0.4308 -1.1353
  183SLPC  H15A20879   2.704   3.421  11.370  3.9793 -0.3427 -1.8989
  183SLPC  H15B20880   2.645   3.266  11.443  1.0347 -0.0818 -1.9282
  183SLPC  H15C20881   2.670   3.400  11.549  2.5262  1.0261 -0.4722
  183SLPC   C1220882   2.938   3.437  11.483  0.3772  0.0223 -0.0627
  183SLPC  H12A20883   3.035   3.396  11.460  0.9707  1.8310 -0.9824
  183SLPC  H12B20884   2.944   3.466  11.587  0.7912  0.5588 -0.2345
  183SLPC   C1120885   2.912   3.566  11.402  0.4270 -0.7346  0.7873
  183SLPC  H11A20886   2.921   3.534  11.296  1.4145 -0.7472  0.8715
  183SLPC  H11B20887   2.987   3.647  11.407  0.7127 -0.9289 -0.1127
  183SLPC     P20888   2.737   3.693  11.548 -0.3890  0.4695  0.2996
  183SLPC   O1320889   2.602   3.740  11.515  0.4206 -0.1336  0.3003
  183SLPC   O1420890   2.734   3.599  11.665  0.7643  0.2164  0.5944
  183SLPC   O1220891   2.784   3.617  11.419  0.0569 -0.0661 -0.1248
  183SLPC   O1120892   2.837   3.808  11.560  0.6266 -0.8553 -0.0620
  183SLPC    C120893   2.819   3.945  11.521  0.1262 -0.4322  0.3839
  183SLPC    HA20894   2.718   3.954  11.475 -0.2003 -2.4316  0.6448
  183SLPC    HB20895   2.834   4.019  11.603  0.4902  1.2329 -1.1263
  183SLPC    C220896   2.911   3.993  11.408 -0.8074  0.1985 -0.7225
  183SLPC    HS20897   2.885   4.098  11.383  1.8477  1.7320  2.2957
  183SLPC   O2120898   2.904   3.904  11.299  0.1516 -0.0091  0.0178
  183SLPC   C2120899   2.813   3.938  11.204  0.4390 -0.6119 -0.6167
  183SLPC   O2220900   2.740   4.036  11.210 -0.3720 -0.1415 -0.3706
  183SLPC   C2220901   2.809   3.841  11.090 -0.0389  0.7210  0.5895
  183SLPC   H2R20902   2.827   3.742  11.136 -2.5056  0.4754  1.1201
  183SLPC   H2S20903   2.704   3.829  11.056 -0.1652  1.9407  0.4914
  183SLPC    C320904   3.055   3.989  11.459 -0.6423 -0.0706  0.1445
  183SLPC    HX20905   3.131   3.994  11.377  0.8374  2.1682  1.5528
  183SLPC    HY20906   3.074   3.890  11.506  0.0992  0.0507  0.1231
  183SLPC   O3120907   3.076   4.086  11.559 -1.2164  1.1538  0.1754
  183SLPC   C3120908   3.096   4.206  11.520 -0.0470 -0.2307 -0.3032
  183SLPC   O3220909   3.099   4.245  11.406 -0.3858 -0.8068 -0.4117
  183SLPC   C3220910   3.100   4.296  11.641  0.2998  0.5894 -0.4861
  183SLPC   H2X20911   3.201   4.298  11.686 -0.9033  0.0874  2.4811
  183SLPC   H2Y20912   3.039   4.250  11.722 -0.6033  0.3773 -1.2700
  183SLPC   C2320913   2.893   3.875  10.968 -0.1358 -0.6940 -0.4415
  183SLPC   H3R20914   2.907   3.798  10.889  2.7204 -0.6117 -0.1458
  183SLPC   H3S20915   2.996   3.894  11.006 -0.7706 -0.0273  1.0338
  183SLPC   C2420916   2.848   3.997  10.884 -0.6639  0.0076 -0.3453
  183SLPC   H4R20917   2.839   4.091  10.942  1.5739 -0.7758  1.4090
  183SLPC   H4S20918   2.744   3.972  10.852  0.1083 -1.6852 -1.7251
  183SLPC   C2520919   2.934   4.029  10.752  0.0229  0.5048 -0.8474
  183SLPC   H5R20920   2.960   3.931  10.705 -3.4202 -1.0992  0.2540
  183SLPC   H5S20921   3.029   4.076  10.786  0.8252 -0.8036 -1.1893
  183SLPC   C2620922   2.878   4.122  10.648  0.2409  0.2286  1.3381
  183SLPC   H6R20923   2.826   4.209  10.693 -2.8856 -0.6924 -0.1971
  183SLPC   H6S20924   2.795   4.074  10.592 -1.0222  0.9006  2.5752
  183SLPC   C2720925   2.978   4.159  10.539 -0.9658 -0.0961  0.4482
  183SLPC   H7R20926   2.925   4.156  10.441  2.1916 -2.9126 -1.4221
  183SLPC   H7S20927   3.052   4.076  10.532 -0.4480 -0.0749  4.0788
  183SLPC   C2820928   3.063   4.285  10.576 -0.4198  0.7856 -0.6124
  183SLPC   H8R20929   3.156   4.273  10.516 -1.0773  0.1557 -1.5227
  183SLPC   H8S20930   3.097   4.285  10.682 -0.5004  0.5941 -0.5865
  183SLPC   C2920931   2.986   4.405  10.548  0.1450 -0.1864  0.0344
  183SLPC   H9R20932   2.878   4.387  10.540 -0.2352  1.7284  0.3379
  183SLPC  C21020933   3.010   4.516  10.481 -0.2254 -0.9694 -0.5305
  183SLPC  H10R20934   2.926   4.587  10.469  0.0500 -0.9624 -2.8353
  183SLPC  C21120935   3.152   4.563  10.438 -0.0361  0.4083 -0.1685
  183SLPC  H11R20936   3.163   4.553  10.328 -0.1971  0.3366 -0.1782
  183SLPC  H11S20937   3.224   4.487  10.476 -1.6577 -1.1654 -0.1250
  183SLPC  C21220938   3.189   4.699  10.487 -0.0953 -0.1786  0.4515
  183SLPC  H12R20939   3.140   4.729  10.581 -0.2840  0.1562  0.2465
  183SLPC  C21320940   3.269   4.791  10.424 -0.0768  0.2553  0.6085
  183SLPC  H13R20941   3.273   4.895  10.461 -1.7768 -0.0298  1.6977
  183SLPC  C21420942   3.358   4.760  10.300  0.7325 -0.0261  0.0318
  183SLPC  H14R20943   3.342   4.655  10.270  2.3138 -0.0470 -0.8158
  183SLPC  H14S20944   3.463   4.793  10.313  0.1785  1.7886  0.2828
  183SLPC  C21520945   3.313   4.853  10.180 -0.1978 -0.3084  0.5014
  183SLPC  H15R20946   3.208   4.828  10.152 -0.4876 -0.6426  1.8341
  183SLPC  H15S20947   3.377   4.823  10.094 -0.6647 -0.1975  0.1077
  183SLPC  C21620948   3.332   5.009  10.209 -0.5734  0.0568  0.0121
  183SLPC  H16R20949   3.365   5.058  10.114 -0.7674 -0.4341 -0.3125
  183SLPC  H16S20950   3.409   5.011  10.289 -2.1096 -2.1390  1.6531
  183SLPC  C21720951   3.199   5.079  10.241 -0.2712  0.7200  0.4158
  183SLPC  H17R20952   3.153   5.027  10.328  3.4900 -2.7983  0.6294
  183SLPC  H17S20953   3.129   5.071  10.155 -0.3439 -1.8032  0.6433
  183SLPC  C21820954   3.231   5.226  10.273 -0.1857  0.3297  0.6106
  183SLPC  H18R20955   3.267   5.218  10.378 -0.2069 -1.3262  0.5150
  183SLPC  H18S20956   3.134   5.279  10.263 -0.6291 -0.4391  0.8096
  183SLPC  H18T20957   3.304   5.273  10.203 -1.1944  1.3160  0.1848
  183SLPC   C3320958   3.062   4.443  11.598  0.3782 -0.3974 -0.2833
  183SLPC   H3X20959   2.985   4.444  11.517 -1.2548 -0.3703  1.2092
  183SLPC   H3Y20960   3.153   4.494  11.560  1.4715 -0.0498  2.5903
  183SLPC   C3420961   2.990   4.523  11.706 -0.8939 -0.1705 -0.0163
  183SLPC   H4X20962   3.054   4.509  11.796  0.5282 -1.4369 -1.1718
  183SLPC   H4Y20963   2.902   4.457  11.724 -2.0727  0.9045 -1.6514
  183SLPC   C3520964   2.955   4.664  11.681  0.7833 -0.0415 -0.7473
  183SLPC   H5X20965   3.049   4.724  11.676  0.5101  0.3289 -1.6072
  183SLPC   H5Y20966   2.909   4.712  11.770  0.9111  0.2741 -0.8498
  183SLPC   C3620967   2.885   4.699  11.552  0.2217  0.1790  0.1461
  183SLPC   H6X20968   2.797   4.636  11.525  0.2558  0.4286 -0.5791
  183SLPC   H6Y20969   2.958   4.675  11.472 -0.7489 -0.6979 -0.5039
  183SLPC   C3720970   2.839   4.848  11.540  0.3580 -0.2856  0.3985
  183SLPC   H7X20971   2.890   4.907  11.619  0.7294  1.8832 -1.3731
  183SLPC   H7Y20972   2.732   4.856  11.568  0.7712  1.9875  1.6091
  183SLPC   C3820973   2.880   4.911  11.411  0.2539  0.2201 -0.4541
  183SLPC   H8X20974   2.839   4.858  11.322 -3.2812 -0.1307  1.2221
  183SLPC   H8Y20975   2.991   4.908  11.406  0.4658  1.4327  1.9902
  183SLPC   C3920976   2.834   5.049  11.397  0.2001  0.2071  0.0741
  183SLPC   H9X20977   2.831   5.098  11.496 -1.2713  0.6863 -0.1792
  183SLPC   H9Y20978   2.726   5.030  11.380  0.2558 -1.2842  1.2649
  183SLPC  C31020979   2.877   5.132  11.275 -0.2532 -0.0442 -0.2799
  183SLPC  H10X20980   2.865   5.058  11.194 -2.4589 -1.2242  1.0261
  183SLPC  H10Y20981   2.983   5.162  11.283 -0.4997  0.9256 -0.5340
  183SLPC  C31120982   2.789   5.262  11.252 -0.0415 -0.1171 -0.7162
  183SLPC  H11X20983   2.806   5.326  11.342  2.0031 -3.0910  1.2011
  183SLPC  H11Y20984   2.682   5.236  11.241 -0.2780  1.1355 -1.7321
  183SLPC  C31220985   2.834   5.320  11.113  0.9241  0.1066  0.4345
  183SLPC  H12X20986   2.816   5.248  11.030 -1.8645  1.1925 -0.0020
  183SLPC  H12Y20987   2.942   5.344  11.128  1.4853 -1.4516 -0.8235
  183SLPC  C31320988   2.759   5.448  11.066  0.8354 -0.3148 -0.6135
  183SLPC  H13X20989   2.651   5.437  11.088  0.2723  4.2081 -0.2650
  183SLPC  H13Y20990   2.768   5.450  10.956 -0.7752  0.2608 -0.7592
  183SLPC  C31420991   2.814   5.581  11.124 -0.0912  0.4363 -0.2146
  183SLPC  H14X20992   2.916   5.591  11.080  0.3749 -1.2586  0.3892
  183SLPC  H14Y20993   2.813   5.571  11.235  0.7403 -0.3882 -0.2719
  183SLPC  C31520994   2.733   5.696  11.066 -0.0666 -0.5908 -0.0740
  183SLPC  H15X20995   2.624   5.697  11.087 -0.5144  1.4029 -2.0508
  183SLPC  H15Y20996   2.753   5.693  10.956  0.1949 -2.3818 -0.0049
  183SLPC  C31620997   2.777   5.837  11.121 -0.0721 -0.9109  0.1948
  183SLPC  H16X20998   2.885   5.849  11.144 -0.1994 -1.6352  1.2466
  183SLPC  H16Y20999   2.738   5.843  11.225  0.2611  1.7203  0.2338
  183SLPC  C31721000   2.722   5.960  11.053 -0.2748 -0.5412  0.5260
  183SLPC  H17X21001   2.731   6.050  11.118  2.5399 -0.6708  0.4494
  183SLPC  H17Y21002   2.618   5.938  11.021 -0.8142 -0.2748  2.0077
  183SLPC  C31821003   2.800   5.994  10.927 -0.2686  0.0213  0.3974
  183SLPC  H18X21004   2.755   6.078  10.870  2.0644  1.3207  0.3218
  183SLPC  H18Y21005   2.794   5.904  10.862 -1.1437 -0.1615  0.7221
  183SLPC  H18Z21006   2.907   6.021  10.942 -0.4751  1.0330  0.1605
  184SLPC     N21007   2.542   0.268   6.932  0.3015 -0.6722  0.2531
  184SLPC   C1321008   2.624   0.136   6.937  0.4315  0.0943  0.3118
  184SLPC  H13A21009   2.672   0.129   6.840 -0.4017 -0.5633 -0.0698
  184SLPC  H13B21010   2.706   0.145   7.006  1.0143 -0.5884 -0.2710
  184SLPC  H13C21011   2.571   0.048   6.972  3.8126 -1.9388  0.7938
  184SLPC   C1421012   2.432   0.244   6.835 -0.1357 -0.0841 -0.2181
  184SLPC  H14A21013   2.369   0.160   6.858 -2.0949  1.6849  1.1723
  184SLPC  H14B21014   2.378   0.337   6.828  1.1372  0.9290  2.1010
  184SLPC  H14C21015   2.468   0.223   6.735 -3.3908 -0.2528 -1.4836
  184SLPC   C1521016   2.636   0.381   6.892  0.8036 -0.5555 -0.7359
  184SLPC  H15A21017   2.587   0.477   6.881  0.4720 -0.7880 -1.3484
  184SLPC  H15B21018   2.716   0.396   6.963 -2.1985  3.9031  2.1931
  184SLPC  H15C21019   2.677   0.350   6.797  1.4775  1.8385 -1.2992
  184SLPC   C1221020   2.477   0.289   7.067 -0.3535 -0.4044  0.6839
  184SLPC  H12A21021   2.419   0.200   7.084 -1.8939  0.5414  0.6140
  184SLPC  H12B21022   2.398   0.363   7.067  0.2920  0.3132  1.8376
  184SLPC   C1121023   2.558   0.337   7.194 -0.0487 -0.0713  0.4765
  184SLPC  H11A21024   2.638   0.265   7.221  0.0605 -0.3216 -0.5061
  184SLPC  H11B21025   2.495   0.343   7.286 -0.4542 -1.8909  0.3506
  184SLPC     P21026   2.538   0.591   7.178  0.2279  0.2637  0.0526
  184SLPC   O1321027   2.625   0.702   7.129  0.1342  0.0908  0.7150
  184SLPC   O1421028   2.414   0.558   7.107 -0.2334 -0.0836  0.2118
  184SLPC   O1221029   2.628   0.463   7.182  0.0268 -0.1427  0.2477
  184SLPC   O1121030   2.507   0.605   7.330 -0.2620 -0.7272  0.6325
  184SLPC    C121031   2.607   0.663   7.423  0.3568  0.0603  0.5194
  184SLPC    HA21032   2.716   0.648   7.407 -0.0133 -2.4758 -0.1065
  184SLPC    HB21033   2.585   0.772   7.433 -0.0328  0.1303 -0.7937
  184SLPC    C221034   2.579   0.603   7.568  0.1365 -0.4928 -0.1441
  184SLPC    HS21035   2.631   0.505   7.573  1.5098  0.2674  2.0797
  184SLPC   O2121036   2.434   0.586   7.596  0.6858 -0.2220  0.0860
  184SLPC   C2121037   2.395   0.461   7.587  0.7297  0.1831 -0.1962
  184SLPC   O2221038   2.463   0.364   7.558 -0.2738  0.0887 -0.3380
  184SLPC   C2221039   2.244   0.457   7.636  0.0454  0.5470 -0.4445
  184SLPC   H2R21040   2.218   0.564   7.647 -0.2938  0.5495 -1.1871
  184SLPC   H2S21041   2.184   0.401   7.561  0.4824 -0.6431  0.0678
  184SLPC    C321042   2.629   0.702   7.673 -0.7098 -0.1092 -0.5686
  184SLPC    HX21043   2.573   0.797   7.662  0.3157  0.6581  0.5136
  184SLPC    HY21044   2.733   0.733   7.650 -0.9088  1.7998  0.8393
  184SLPC   O3121045   2.613   0.655   7.809 -0.4644  0.5984  0.0671
  184SLPC   C3121046   2.681   0.558   7.858 -0.1013  0.4114  0.0687
  184SLPC   O3221047   2.781   0.503   7.810  0.6673 -0.5429 -0.4296
  184SLPC   C3221048   2.621   0.511   7.982  0.3860 -0.1419  0.2227
  184SLPC   H2X21049   2.543   0.435   7.959  1.1366 -1.3372  1.4504
  184SLPC   H2Y21050   2.566   0.596   8.029  0.3028 -0.5695  0.9193
  184SLPC   C2321051   2.228   0.394   7.777 -0.7787  0.1540 -0.0480
  184SLPC   H3R21052   2.319   0.415   7.837 -0.8778 -2.6617  1.2261
  184SLPC   H3S21053   2.233   0.284   7.770 -1.8383 -0.0290  1.4467
  184SLPC   C2421054   2.104   0.441   7.847 -0.0546  0.0520 -0.2636
  184SLPC   H4R21055   2.009   0.414   7.796  1.4872 -1.5672 -2.4788
  184SLPC   H4S21056   2.110   0.552   7.847  1.4379  0.0240 -1.8694
  184SLPC   C2521057   2.104   0.389   7.996  0.2392 -0.5206  0.4628
  184SLPC   H5R21058   2.191   0.441   8.041 -0.5643  1.6614 -0.3557
  184SLPC   H5S21059   2.126   0.280   8.006  0.6454 -0.5487 -0.5610
  184SLPC   C2621060   1.973   0.425   8.064 -0.2659 -0.7031 -0.6574
  184SLPC   H6R21061   1.891   0.386   7.999  0.5551 -1.1354 -1.4533
  184SLPC   H6S21062   1.960   0.534   8.079 -1.0101 -0.9631  0.8491
  184SLPC   C2721063   1.953   0.363   8.202  0.0083  0.1184  0.6997
  184SLPC   H7R21064   2.053   0.344   8.247 -1.2815 -2.0998  2.9166
  184SLPC   H7S21065   1.901   0.269   8.176 -2.8236  1.3908  1.4038
  184SLPC   C2821066   1.874   0.445   8.306 -0.6374  0.3158  0.0536
  184SLPC   H8R21067   1.787   0.484   8.248  0.6104  0.6363 -1.6908
  184SLPC   H8S21068   1.938   0.532   8.333 -1.9033  0.6516  2.1546
  184SLPC   C2921069   1.840   0.366   8.432 -0.7565  0.0358 -0.4804
  184SLPC   H9R21070   1.926   0.364   8.500 -1.8823 -0.7844  0.9585
  184SLPC  C21021071   1.720   0.326   8.464 -0.2709  0.0448 -0.0906
  184SLPC  H10R21072   1.706   0.270   8.558  1.6616 -0.1447  0.1248
  184SLPC  C21121073   1.607   0.316   8.367  0.1195  0.3052 -0.5114
  184SLPC  H11R21074   1.554   0.218   8.374 -1.2600  1.0858  0.3141
  184SLPC  H11S21075   1.643   0.313   8.262 -2.1011  0.6091 -1.3221
  184SLPC  C21221076   1.513   0.434   8.377  0.1300 -0.1501 -0.1813
  184SLPC  H12R21077   1.545   0.531   8.336 -3.5537  1.3073  0.0217
  184SLPC  C21321078   1.380   0.431   8.390 -0.8504  0.7354  0.7809
  184SLPC  H13R21079   1.316   0.520   8.388 -3.1251 -0.8428  0.3017
  184SLPC  C21421080   1.294   0.311   8.425 -0.3213  0.1111  0.2718
  184SLPC  H14R21081   1.352   0.220   8.452 -3.2092 -1.9357  0.0907
  184SLPC  H14S21082   1.231   0.271   8.342 -0.7336 -1.4028  1.2750
  184SLPC  C21521083   1.209   0.350   8.543  0.1040 -0.7404 -0.7445
  184SLPC  H15R21084   1.144   0.266   8.576 -1.3501  1.0649  1.2257
  184SLPC  H15S21085   1.149   0.438   8.513 -2.1677 -1.0717  2.3462
  184SLPC  C21621086   1.291   0.374   8.672  0.6560  0.1236 -0.2593
  184SLPC  H16R21087   1.361   0.460   8.674  1.0560 -0.1989 -0.1833
  184SLPC  H16S21088   1.351   0.283   8.695 -2.7234 -1.8021  1.8775
  184SLPC  C21721089   1.196   0.382   8.786 -0.1257  0.7021 -0.9496
  184SLPC  H17R21090   1.130   0.292   8.787 -1.0627  1.3783 -0.2432
  184SLPC  H17S21091   1.119   0.462   8.773  0.1926  1.6583  2.2015
  184SLPC  C21821092   1.264   0.386   8.922 -0.4131  0.0041  0.1470
  184SLPC  H18R21093   1.315   0.292   8.952 -1.6335 -0.4916  0.7167
  184SLPC  H18S21094   1.186   0.418   8.994 -0.1668  0.2834  0.2931
  184SLPC  H18T21095   1.342   0.466   8.923 -1.3973  0.9888 -0.1181
  184SLPC   C3321096   2.715   0.463   8.093 -0.4145 -0.2681  0.3569
  184SLPC   H3X21097   2.813   0.517   8.098 -1.0024  0.7393  1.4978
  184SLPC   H3Y21098   2.744   0.357   8.076 -0.4098 -0.1136 -0.7163
  184SLPC   C3421099   2.653   0.468   8.234  0.3896  0.3042 -0.5358
  184SLPC   H4X21100   2.626   0.574   8.254 -0.4884  0.2336 -1.3176
  184SLPC   H4Y21101   2.730   0.438   8.309  0.4369 -1.3503 -1.2211
  184SLPC   C3521102   2.531   0.375   8.263  0.3585 -0.3795 -0.5069
  184SLPC   H5X21103   2.571   0.271   8.263  1.5314  0.0002  1.9071
  184SLPC   H5Y21104   2.461   0.393   8.179 -0.4082 -3.6126 -0.7151
  184SLPC   C3621105   2.460   0.402   8.400  0.2104 -0.1179  0.4237
  184SLPC   H6X21106   2.537   0.372   8.474  0.6787 -1.7996 -0.6921
  184SLPC   H6Y21107   2.378   0.333   8.427 -0.2301  1.2402  2.8991
  184SLPC   C3721108   2.399   0.544   8.423 -0.5625 -0.2989 -0.4277
  184SLPC   H7X21109   2.339   0.569   8.333 -0.7039  2.4594  0.3459
  184SLPC   H7Y21110   2.482   0.617   8.437  1.3135 -2.8990  4.6761
  184SLPC   C3821111   2.309   0.545   8.549 -0.2817 -0.4433  0.7546
  184SLPC   H8X21112   2.373   0.500   8.627  1.4635 -1.3817 -1.1309
  184SLPC   H8Y21113   2.222   0.479   8.529  0.9419 -2.2225  1.0998
  184SLPC   C3921114   2.261   0.685   8.583  0.1299  0.2764 -0.3406
  184SLPC   H9X21115   2.200   0.721   8.498 -0.1394 -0.3742 -0.4330
  184SLPC   H9Y21116   2.350   0.748   8.603 -0.5635  1.6996 -1.5880
  184SLPC  C31021117   2.170   0.682   8.703  0.4061  0.1345  0.4118
  184SLPC  H10X21118   2.225   0.635   8.786  0.3645 -0.8724 -0.1202
  184SLPC  H10Y21119   2.077   0.623   8.693  0.6095 -0.3006  1.0319
  184SLPC  C31121120   2.131   0.824   8.758 -0.0443  0.5798  0.3975
  184SLPC  H11X21121   2.223   0.873   8.797  0.8676  1.3956 -2.4641
  184SLPC  H11Y21122   2.051   0.825   8.834 -1.7974  2.6153 -1.3384
  184SLPC  C31221123   2.091   0.924   8.647 -0.0599  0.1626  0.3268
  184SLPC  H12X21124   2.019   0.872   8.581 -0.2911  0.2089  0.5428
  184SLPC  H12Y21125   2.179   0.951   8.584 -1.0293  0.4274 -0.9544
  184SLPC  C31321126   2.030   1.064   8.703 -0.0996 -0.0670 -0.2413
  184SLPC  H13X21127   2.082   1.096   8.796 -0.5764 -0.2206  0.0797
  184SLPC  H13Y21128   1.923   1.063   8.733  0.1094  0.3236  0.5377
  184SLPC  C31421129   2.054   1.181   8.603 -0.5318  0.4866 -0.2827
  184SLPC  H14X21130   2.155   1.192   8.557 -0.5863  0.4370 -0.4156
  184SLPC  H14Y21131   2.031   1.276   8.656  0.7677  0.7847 -0.2091
  184SLPC  C31521132   1.960   1.161   8.485 -0.0978 -0.4797 -0.1840
  184SLPC  H15X21133   1.856   1.146   8.522  0.4352  0.4882  1.8349
  184SLPC  H15Y21134   1.988   1.070   8.427 -0.0724 -0.0210 -0.9130
  184SLPC  C31621135   1.958   1.283   8.396  0.3991  0.1670 -0.2316
  184SLPC  H16X21136   1.939   1.373   8.458  0.3387 -1.0722  1.6188
  184SLPC  H16Y21137   1.876   1.267   8.322 -0.4256  0.6204  0.5577
  184SLPC  C31721138   2.093   1.313   8.329  0.4077 -0.5141  0.0508
  184SLPC  H17X21139   2.136   1.217   8.295  1.6281  0.2897 -0.7616
  184SLPC  H17Y21140   2.160   1.370   8.398 -0.9992 -0.2844  1.2745
  184SLPC  C31821141   2.069   1.406   8.210  0.4379  0.2104  0.2671
  184SLPC  H18X21142   2.020   1.502   8.239  1.7039  0.4925  1.6082
  184SLPC  H18Y21143   2.021   1.364   8.120 -1.1088  1.1037  0.6517
  184SLPC  H18Z21144   2.173   1.436   8.184  1.0711 -1.1116  1.1873
  185POPC     N21145   0.833   1.846  24.774  0.2519 -0.0507  0.0910
  185POPC   C1221146   0.916   1.724  24.830  0.1100 -0.4273  0.5589
  185POPC  H12A21147   1.006   1.714  24.770  1.0647 -0.2471  1.9090
  185POPC  H12B21148   0.855   1.639  24.803  0.7985 -1.1372  1.1782
  185POPC   C1321149   0.792   1.823  24.627 -0.3307  0.1317 -0.2044
  185POPC  H13A21150   0.733   1.905  24.589  1.2089  1.9539  1.1403
  185POPC  H13B21151   0.882   1.821  24.567  0.0214  2.3362  0.1787
  185POPC  H13C21152   0.734   1.733  24.615  1.3109 -0.7091 -2.6173
  185POPC   C1421153   0.710   1.858  24.859 -0.3669 -0.1439  0.5000
  185POPC  H14A21154   0.636   1.784  24.833  1.1192 -1.9257  1.1438
  185POPC  H14B21155   0.737   1.859  24.964  1.6096 -0.8875  0.0360
  185POPC  H14C21156   0.667   1.956  24.846 -0.0719 -0.1840 -0.8538
  185POPC   C1521157   0.912   1.971  24.783 -1.1656 -0.1891 -0.0937
  185POPC  H15A21158   0.944   1.994  24.883 -0.8672  0.2172 -0.2782
  185POPC  H15B21159   0.858   2.058  24.747  0.1002  1.1863  1.2190
  185POPC  H15C21160   1.007   1.952  24.736 -1.6601 -0.9706 -0.8241
  185POPC   C1121161   0.954   1.707  24.975  0.0792  0.9226 -0.0078
  185POPC  H11A21162   1.015   1.616  24.993  2.1118  1.9976 -1.0407
  185POPC  H11B21163   0.856   1.693  25.025 -1.0726  1.8407 -1.8996
  185POPC     P21164   1.181   1.822  25.001  0.7947 -0.3360  0.3020
  185POPC   O1321165   1.246   1.694  25.033 -0.0023 -0.5656  0.1850
  185POPC   O1421166   1.237   1.944  25.068 -0.5097  0.1460  0.1822
  185POPC   O1221167   1.024   1.818  25.031 -0.1488  0.5802 -0.3777
  185POPC   O1121168   1.178   1.840  24.841 -0.0081 -0.2401 -0.2786
  185POPC    C121169   1.286   1.783  24.764  0.0346  0.2119  0.1713
  185POPC    HA21170   1.286   1.671  24.761 -0.3727  0.2178 -1.7188
  185POPC    HB21171   1.382   1.816  24.807  0.8934  1.2230 -2.3131
  185POPC    C221172   1.273   1.823  24.612 -0.4509 -0.1014 -0.5578
  185POPC    HS21173   1.377   1.822  24.572  0.4909  2.3091  1.5078
  185POPC   O2121174   1.219   1.956  24.596 -0.3648 -0.3650  0.2520
  185POPC   C2121175   1.235   2.007  24.472 -0.1979 -0.3493 -0.1671
  185POPC   O2221176   1.289   1.945  24.380  0.2830 -0.6826  0.4905
  185POPC   C2221177   1.180   2.146  24.469  0.5071 -0.0938  0.0112
  185POPC   H2R21178   1.107   2.141  24.553 -0.3992  0.3251 -0.7329
  185POPC   H2S21179   1.115   2.153  24.379 -1.9546 -0.2135  1.6680
  185POPC    C321180   1.177   1.720  24.537 -0.0238  0.4239  1.2041
  185POPC    HX21181   1.156   1.759  24.435 -1.6397 -0.8950  0.9890
  185POPC    HY21182   1.077   1.735  24.582  0.4420  3.3225  1.4595
  185POPC   O3121183   1.227   1.585  24.525 -0.4404  0.0214 -0.6129
  185POPC   C3121184   1.155   1.491  24.595 -0.6316 -0.0554  0.6581
  185POPC   O3221185   1.050   1.520  24.650 -0.0786 -0.0844 -0.4640
  185POPC   C3221186   1.236   1.358  24.600 -0.0942  0.0204  0.3240
  185POPC   H2X21187   1.335   1.371  24.648 -0.3294 -1.5597  1.3040
  185POPC   H2Y21188   1.250   1.334  24.492  0.8458 -0.2588  0.5003
  185POPC   C2321189   1.285   2.250  24.490  0.3605 -0.6446  0.7397
  185POPC   H3R21190   1.334   2.241  24.589 -1.4268  1.3516  1.8994
  185POPC   H3S21191   1.230   2.346  24.488 -0.1203 -0.9251 -0.7241
  185POPC   C2421192   1.389   2.271  24.380 -0.2717  0.3832  0.6830
  185POPC   H4R21193   1.337   2.258  24.282 -1.1435  2.3047  0.8497
  185POPC   H4S21194   1.477   2.203  24.388 -0.8273 -0.8385 -2.2165
  185POPC   C2521195   1.453   2.415  24.385  0.4574  0.6657  0.4240
  185POPC   H5R21196   1.499   2.435  24.484 -0.4387  1.9290  0.6157
  185POPC   H5S21197   1.364   2.481  24.374 -0.4204 -0.7824 -2.4342
  185POPC   C2621198   1.552   2.441  24.275  0.2048  0.4303 -0.0337
  185POPC   H6R21199   1.553   2.552  24.282  0.6272  0.3938  0.6217
  185POPC   H6S21200   1.500   2.417  24.180 -1.5740 -0.7622  1.1735
  185POPC   C2721201   1.685   2.369  24.281  0.1052  0.2096 -0.4314
  185POPC   H7R21202   1.681   2.260  24.257  0.7854 -0.0148  0.4247
  185POPC   H7S21203   1.723   2.376  24.385  0.8304  0.4926 -0.7085
  185POPC   C2821204   1.782   2.447  24.187  0.5524 -0.0863 -0.5876
  185POPC   H8R21205   1.780   2.554  24.217  1.5006 -0.0970 -0.4519
  185POPC   H8S21206   1.731   2.442  24.088  0.9657 -0.8735 -0.7668
  185POPC   C2921207   1.916   2.375  24.188 -0.2884  0.6963 -0.0713
  185POPC   H9121208   1.911   2.273  24.146  1.4062 -0.0303  1.3646
  185POPC  C21021209   2.032   2.413  24.247  0.4071 -0.2632 -1.0278
  185POPC  H10121210   2.118   2.345  24.256  1.1502  0.8803  1.2932
  185POPC  C21121211   2.043   2.532  24.335  0.3571  0.1033 -0.1395
  185POPC  H11R21212   1.945   2.579  24.356  0.1555 -0.9947  1.5610
  185POPC  H11S21213   2.120   2.599  24.291  0.8155 -1.5278 -1.9685
  185POPC  C21221214   2.095   2.508  24.479  0.6636 -0.1427 -0.2435
  185POPC  H12R21215   2.118   2.606  24.527 -2.4400  0.0029  1.2198
  185POPC  H12S21216   2.194   2.459  24.477  0.5813 -0.3376  0.3326
  185POPC  C21321217   2.005   2.426  24.574  0.3696 -0.0963 -0.2186
  185POPC  H13R21218   1.989   2.330  24.520  2.5657 -0.9679  0.5514
  185POPC  H13S21219   1.903   2.469  24.582 -0.3921 -1.3725 -2.2924
  185POPC  C21421220   2.070   2.422  24.714 -0.1161 -0.5405  0.0320
  185POPC  H14R21221   1.997   2.456  24.791 -0.5998 -0.2396 -0.5535
  185POPC  H14S21222   2.154   2.494  24.711 -0.2637 -0.3970 -2.0754
  185POPC  C21521223   2.125   2.292  24.762 -0.3387  0.1030 -0.2740
  185POPC  H15R21224   2.041   2.220  24.771 -0.6886  0.5092 -0.2981
  185POPC  H15S21225   2.170   2.309  24.862  1.0526 -1.4388 -0.6058
  185POPC  C21621226   2.228   2.237  24.663  0.0882  0.4150  1.0205
  185POPC  H16R21227   2.298   2.316  24.629 -0.8869  1.1001  0.5483
  185POPC  H16S21228   2.169   2.206  24.574 -1.5575 -0.7584  2.4490
  185POPC  C21721229   2.316   2.127  24.725 -0.4941  0.2829 -0.0780
  185POPC  H17R21230   2.260   2.053  24.787  1.3823  0.5844  2.1141
  185POPC  H17S21231   2.385   2.176  24.797  1.9289 -1.6360 -0.9445
  185POPC  C21821232   2.389   2.046  24.613 -0.5197 -0.0719  0.1659
  185POPC  H18R21233   2.457   2.111  24.553 -1.1735 -1.3870 -2.1540
  185POPC  H18S21234   2.321   2.004  24.535  1.2566  0.5276 -1.8037
  185POPC  H18T21235   2.447   1.961  24.653 -0.4764 -0.3353 -0.4339
  185POPC   C3321236   1.139   1.262  24.669  0.1778  0.3571 -0.0448
  185POPC   H3X21237   1.029   1.271  24.653 -0.2045  0.2701  2.2128
  185POPC   H3Y21238   1.146   1.276  24.779 -0.9335  0.8716 -0.0234
  185POPC   C3421239   1.164   1.114  24.626 -0.3773 -0.0446  0.2523
  185POPC   H4X21240   1.270   1.088  24.647  0.0902  0.8613 -0.8987
  185POPC   H4Y21241   1.142   1.117  24.518  2.3333  0.1915 -0.3608
  185POPC   C3521242   1.081   1.012  24.706  0.3800  0.4563 -0.4097
  185POPC   H5X21243   0.979   1.036  24.668  0.2187  2.8470  1.2614
  185POPC   H5Y21244   1.075   1.036  24.814 -1.0843  0.0434 -0.3705
  185POPC   C3621245   1.111   0.866  24.687  0.8791  0.0495  0.1469
  185POPC   H6X21246   1.219   0.854  24.712  0.4240 -3.0417  1.0256
  185POPC   H6Y21247   1.110   0.847  24.577 -1.4425 -0.1478  0.1559
  185POPC   C3721248   1.033   0.767  24.773 -0.0303 -0.6161 -0.7329
  185POPC   H7X21249   0.925   0.774  24.749 -0.1632 -3.4953 -1.3264
  185POPC   H7Y21250   1.046   0.780  24.883  0.7747  1.3879 -1.0337
  185POPC   C3821251   1.069   0.624  24.733 -0.0047 -0.0962 -0.6512
  185POPC   H8X21252   1.180   0.630  24.742 -0.0322  1.0916 -0.9150
  185POPC   H8Y21253   1.042   0.594  24.630  0.3783  1.0458 -1.0992
  185POPC   C3921254   1.027   0.506  24.824 -1.1912 -0.9313  0.3882
  185POPC   H9X21255   1.045   0.542  24.928 -0.8778  0.9527 -0.2714
  185POPC   H9Y21256   1.079   0.411  24.801 -2.7319 -1.9758  1.0169
  185POPC  C31021257   0.874   0.488  24.818  0.1239  0.6461  0.3422
  185POPC  H10X21258   0.850   0.454  24.715 -1.3067 -1.2278  1.2244
  185POPC  H10Y21259   0.826   0.583  24.846 -3.0083 -1.0332  1.1277
  185POPC  C31121260   0.828   0.384  24.922 -0.0796  0.4171 -0.0779
  185POPC  H11X21261   0.804   0.438  25.016  2.1436  2.5137 -0.6181
  185POPC  H11Y21262   0.909   0.310  24.940 -1.0151 -0.3797  1.0277
  185POPC  C31221263   0.703   0.309  24.866  0.1630  0.5267  0.5717
  185POPC  H12X21264   0.736   0.266  24.769  1.7757  0.3975  1.1446
  185POPC  H12Y21265   0.626   0.386  24.842 -1.6324 -0.8731  1.5869
  185POPC  C31321266   0.649   0.197  24.964  0.4192 -0.3205 -0.4623
  185POPC  H13X21267   0.620   0.250  25.057  0.0795 -0.2805 -0.5914
  185POPC  H13Y21268   0.729   0.128  25.000 -1.0309 -1.3907  0.8116
  185POPC  C31421269   0.547   0.122  24.894 -0.0621  0.4767  0.1370
  185POPC  H14X21270   0.473   0.186  24.842  0.3486 -0.8991 -2.2913
  185POPC  H14Y21271   0.485   0.063  24.964  0.6536 -0.3217  0.1168
  185POPC  C31521272   0.602   0.014  24.794 -0.0231 -0.0689  0.4451
  185POPC  H15X21273   0.671   0.065  24.723  3.5065 -1.1784  2.8627
  185POPC  H15Y21274   0.509  -0.024  24.745 -0.0353  1.1448 -0.5462
  185POPC  C31621275   0.679  -0.097  24.874  0.2934  0.0077 -0.5331
  185POPC  H16X21276   0.633  -0.118  24.972 -1.3431  1.8903 -0.8230
  185POPC  H16Y21277   0.783  -0.064  24.898 -0.9910  3.0186  1.5255
  185POPC  H16Z21278   0.688  -0.190  24.814 -0.9608  0.2360 -1.0925
  186POPC     N21279   2.494   1.700  19.621 -0.2943 -0.4125  0.8143
  186POPC   C1221280   2.611   1.790  19.565  0.7031  0.6618  0.4549
  186POPC  H12A21281   2.566   1.857  19.493 -0.6481  0.2121  0.8515
  186POPC  H12B21282   2.688   1.741  19.507  1.8072  2.1277  0.6354
  186POPC   C1321283   2.400   1.784  19.701 -0.4029  0.0981 -0.5324
  186POPC  H13A21284   2.453   1.818  19.789  0.7905 -0.3266 -1.0697
  186POPC  H13B21285   2.371   1.867  19.638 -2.1259 -0.8811 -1.1164
  186POPC  H13C21286   2.316   1.727  19.740 -1.3112  1.3948 -0.5060
  186POPC   C1421287   2.418   1.633  19.509 -0.9107  0.1650 -0.1007
  186POPC  H14A21288   2.378   1.707  19.442  1.0834  1.0948 -0.3319
  186POPC  H14B21289   2.478   1.569  19.446  2.0463  1.9228  0.7612
  186POPC  H14C21290   2.335   1.577  19.551 -0.5759  1.4009  2.4116
  186POPC   C1521291   2.554   1.595  19.707  0.0032 -0.0254 -0.0417
  186POPC  H15A21292   2.477   1.533  19.752  0.8001 -1.2259 -0.2978
  186POPC  H15B21293   2.607   1.633  19.793 -0.5547 -1.2605  0.8868
  186POPC  H15C21294   2.620   1.528  19.654  0.3067 -1.3023  1.8440
  186POPC   C1121295   2.671   1.889  19.675 -0.1066 -0.3770 -0.0066
  186POPC  H11A21296   2.588   1.960  19.696  2.4211  2.7345  0.1607
  186POPC  H11B21297   2.752   1.952  19.632  0.0818 -0.3317  0.4096
  186POPC     P21298   2.682   1.883  19.933 -0.1922 -0.2132 -0.4377
  186POPC   O1321299   2.774   1.822  20.035  0.2887 -0.2212  0.5618
  186POPC   O1421300   2.538   1.872  19.961  0.2722  0.6222 -0.1780
  186POPC   O1221301   2.722   1.825  19.796  0.2231  0.3376  0.3862
  186POPC   O1121302   2.720   2.040  19.915  0.4893  0.2352 -0.3029
  186POPC    C121303   2.850   2.095  19.945  0.1957 -0.6221  0.0115
  186POPC    HA21304   2.927   2.042  19.886 -0.4698 -0.6780 -0.8193
  186POPC    HB21305   2.882   2.081  20.051 -1.9333  1.3346  1.0000
  186POPC    C221306   2.852   2.249  19.907  0.2393  0.1843 -0.1120
  186POPC    HS21307   2.955   2.290  19.913 -0.2757  1.2494  2.3970
  186POPC   O2121308   2.762   2.332  19.983  0.0597  0.3268  0.2630
  186POPC   C2121309   2.789   2.345  20.109 -0.4971 -0.0040  0.2162
  186POPC   O2221310   2.889   2.306  20.162 -0.8877  0.1635  0.4757
  186POPC   C2221311   2.694   2.443  20.168  0.6202  0.1830 -0.2801
  186POPC   H2R21312   2.594   2.395  20.176 -0.8554  3.2694  2.2872
  186POPC   H2S21313   2.699   2.541  20.116  0.0672  0.6814  0.5837
  186POPC    C321314   2.827   2.272  19.752 -0.7085  0.0456  0.1483
  186POPC    HX21315   2.735   2.219  19.720 -1.6779  1.5908  0.3022
  186POPC    HY21316   2.913   2.232  19.694  0.5466  0.4651  1.6476
  186POPC   O3121317   2.810   2.416  19.725  0.0243  0.1787  0.6347
  186POPC   C3121318   2.919   2.483  19.700  0.2407 -0.0132 -0.3442
  186POPC   O3221319   3.029   2.439  19.691  0.3293  0.0476  0.1913
  186POPC   C3221320   2.884   2.628  19.685  0.1357 -0.6271 -0.8191
  186POPC   H2X21321   2.782   2.627  19.641  1.0747 -1.8567 -3.1001
  186POPC   H2Y21322   2.954   2.664  19.608  0.0213  0.3542 -0.4772
  186POPC   C2321323   2.728   2.482  20.320  0.4544  0.2972  0.6622
  186POPC   H3R21324   2.820   2.545  20.321  0.1965  0.7624 -1.4283
  186POPC   H3S21325   2.748   2.394  20.385  0.1077 -0.5395 -0.3307
  186POPC   C2421326   2.607   2.558  20.385  0.2333  0.7203 -0.4835
  186POPC   H4R21327   2.509   2.521  20.348  0.5904 -1.0213  0.2365
  186POPC   H4S21328   2.609   2.664  20.354  0.3510  0.6591 -0.6884
  186POPC   C2521329   2.608   2.549  20.536 -0.0582 -0.5631 -0.5713
  186POPC   H5R21330   2.713   2.561  20.571 -0.0286 -0.6608 -0.6247
  186POPC   H5S21331   2.586   2.451  20.582  0.4982  0.3251  1.7299
  186POPC   C2621332   2.512   2.648  20.613 -0.3883  0.1844  0.7229
  186POPC   H6R21333   2.415   2.636  20.560  0.7301  0.2305 -1.4375
  186POPC   H6S21334   2.554   2.749  20.594 -1.0768  0.0730 -1.7757
  186POPC   C2721335   2.510   2.626  20.771  0.0280 -0.0159  0.3995
  186POPC   H7R21336   2.611   2.648  20.812  0.0944 -0.8222  0.6933
  186POPC   H7S21337   2.487   2.519  20.791  1.7083 -0.3935  0.5018
  186POPC   C2821338   2.398   2.704  20.835 -0.5905 -0.3204 -0.1250
  186POPC   H8R21339   2.377   2.662  20.936  0.2705  0.2581  0.3041
  186POPC   H8S21340   2.316   2.684  20.762 -0.2516  0.7944 -0.8295
  186POPC   C2921341   2.414   2.854  20.858  0.8417  0.1412 -0.1819
  186POPC   H9121342   2.511   2.876  20.906  0.2368 -1.7950  2.1560
  186POPC  C21021343   2.331   2.950  20.814 -0.1511 -0.2239 -0.3976
  186POPC  H10121344   2.362   3.053  20.837 -0.5041 -0.0897 -0.5025
  186POPC  C21121345   2.210   2.934  20.731 -0.1169  0.1992 -0.0896
  186POPC  H11R21346   2.129   2.877  20.782  0.1235 -0.4519 -0.4331
  186POPC  H11S21347   2.227   2.876  20.638 -1.4878  0.5135 -0.5559
  186POPC  C21221348   2.151   3.064  20.703 -0.8113  0.1918  0.2044
  186POPC  H12R21349   2.136   3.137  20.786 -0.4594 -0.0713  0.5041
  186POPC  H12S21350   2.061   3.049  20.639 -0.6381 -0.8054  0.1757
  186POPC  C21321351   2.236   3.148  20.606  0.0449 -0.5368  0.6208
  186POPC  H13R21352   2.250   3.078  20.521  2.0607  0.5198  0.0143
  186POPC  H13S21353   2.342   3.159  20.638  0.7400 -0.3262 -1.5691
  186POPC  C21421354   2.180   3.293  20.578  0.3193 -0.2975  0.4159
  186POPC  H14R21355   2.238   3.374  20.627  0.3503 -0.2878  0.3620
  186POPC  H14S21356   2.077   3.292  20.619  0.0869 -2.2088 -0.1176
  186POPC  C21521357   2.179   3.325  20.425  0.1129 -0.2063  0.0147
  186POPC  H15R21358   2.110   3.247  20.386  0.1232  0.0153 -0.4523
  186POPC  H15S21359   2.280   3.314  20.380  0.2805  1.3884 -0.0738
  186POPC  C21621360   2.113   3.455  20.382 -0.0702 -0.0842 -0.5181
  186POPC  H16R21361   2.012   3.450  20.426 -0.8651 -0.2313 -2.2884
  186POPC  H16S21362   2.101   3.454  20.272  0.3320 -0.1044 -0.5621
  186POPC  C21721363   2.188   3.585  20.426  0.1979 -0.0130 -0.1813
  186POPC  H17R21364   2.296   3.560  20.417 -0.1324 -1.5048 -0.2332
  186POPC  H17S21365   2.158   3.595  20.533 -1.5995  0.3562 -0.6931
  186POPC  C21821366   2.150   3.712  20.343 -0.2015 -0.0482 -0.0857
  186POPC  H18R21367   2.207   3.800  20.379 -1.1940  1.9655 -3.0867
  186POPC  H18S21368   2.042   3.729  20.363 -0.3750 -0.8490 -0.2860
  186POPC  H18T21369   2.162   3.700  20.233 -3.0942  0.5839 -0.5414
  186POPC   C3321370   2.891   2.709  19.817 -0.7569  0.0834  0.1592
  186POPC   H3X21371   2.820   2.658  19.886  0.1353  1.1085  1.9107
  186POPC   H3Y21372   2.867   2.817  19.802 -1.3022  0.0825  0.9378
  186POPC   C3421373   3.034   2.706  19.877  0.4123  0.2544 -0.7101
  186POPC   H4X21374   3.108   2.732  19.799  2.1329  1.0541  1.1026
  186POPC   H4Y21375   3.062   2.604  19.913 -1.5682 -0.2575 -0.4807
  186POPC   C3521376   3.051   2.805  19.995  0.2562  0.1956  0.5738
  186POPC   H5X21377   3.022   2.901  19.946  0.9826  0.2511  0.2431
  186POPC   H5Y21378   3.159   2.810  20.020  0.1378  0.8059  0.9726
  186POPC   C3621379   2.971   2.777  20.117  0.4457 -0.1452 -0.1398
  186POPC   H6X21380   2.999   2.678  20.161  1.8207  0.5720  0.6552
  186POPC   H6Y21381   2.863   2.770  20.095  0.8957  0.8138 -2.9559
  186POPC   C3721382   2.976   2.890  20.220 -0.6701 -0.2039  0.1130
  186POPC   H7X21383   2.905   2.963  20.175  0.8834 -0.2607 -2.5993
  186POPC   H7Y21384   3.075   2.934  20.241 -0.8896  0.0807  0.5732
  186POPC   C3821385   2.911   2.846  20.358 -0.1668 -0.1077  0.1976
  186POPC   H8X21386   2.964   2.759  20.402  1.1994 -0.4704 -2.0158
  186POPC   H8Y21387   2.802   2.834  20.338 -0.2122 -1.4225  1.0890
  186POPC   C3921388   2.912   2.965  20.458 -0.1980  0.5322 -0.7338
  186POPC   H9X21389   2.848   3.042  20.410  1.8075  0.5166 -3.7121
  186POPC   H9Y21390   3.018   2.995  20.470 -0.0650  0.7285 -2.2499
  186POPC  C31021391   2.877   2.933  20.609  0.1558  0.7710  0.1567
  186POPC  H10X21392   2.929   2.837  20.631 -0.9278 -0.2891 -1.6006
  186POPC  H10Y21393   2.768   2.933  20.625  0.2780  0.9967  1.0138
  186POPC  C31121394   2.936   3.029  20.712  0.1618  0.2272 -0.2111
  186POPC  H11X21395   2.902   3.133  20.695 -0.0747 -0.1928 -2.5412
  186POPC  H11Y21396   3.047   3.029  20.712  0.1636 -0.0240 -0.3937
  186POPC  C31221397   2.889   2.998  20.860 -0.1413 -0.7062 -0.2182
  186POPC  H12X21398   2.925   2.901  20.900 -0.3750  0.0786  2.0313
  186POPC  H12Y21399   2.778   2.996  20.862 -0.2630  1.9133 -1.1097
  186POPC  C31321400   2.946   3.091  20.969  0.3790 -0.2070  0.4359
  186POPC  H13X21401   2.896   3.190  20.969  1.2843  0.2585  0.1578
  186POPC  H13Y21402   3.052   3.107  20.939 -0.0672  1.1544 -0.4942
  186POPC  C31421403   2.933   3.030  21.106 -0.3127 -0.5387  0.0869
  186POPC  H14X21404   3.015   2.955  21.112 -0.2895 -0.8786 -3.1474
  186POPC  H14Y21405   2.834   2.981  21.116 -0.5437  0.1789  1.8639
  186POPC  C31521406   2.965   3.130  21.215  0.0122  0.0134 -0.2150
  186POPC  H15X21407   2.890   3.209  21.191 -0.8145 -0.9509 -0.9287
  186POPC  H15Y21408   3.057   3.188  21.193 -0.8162  0.5312 -2.6804
  186POPC  C31621409   2.962   3.084  21.358  0.0629  0.1083 -0.3383
  186POPC  H16X21410   2.940   3.169  21.426 -1.4467 -0.4802 -0.0480
  186POPC  H16Y21411   3.056   3.042  21.399 -0.1004 -0.1338 -0.2052
  186POPC  H16Z21412   2.885   3.006  21.375 -0.2901  0.2362 -1.2835
  187POPC     N21413   2.229   2.754  14.142  0.2945  0.2032 -0.8205
  187POPC   C1221414   2.346   2.729  14.055 -0.6786  0.2207  0.1873
  187POPC  H12A21415   2.416   2.811  14.058  1.5518 -1.5933 -0.3262
  187POPC  H12B21416   2.319   2.722  13.951 -2.0843 -0.4860  0.5691
  187POPC   C1321417   2.176   2.894  14.118 -0.2003  0.1944  0.7022
  187POPC  H13A21418   2.142   2.907  14.016 -1.4433 -2.1771  0.7297
  187POPC  H13B21419   2.094   2.921  14.183 -1.0369  0.7655 -0.5228
  187POPC  H13C21420   2.251   2.969  14.135  1.0407 -1.0760  1.0036
  187POPC   C1421421   2.122   2.651  14.124  0.4494 -0.4688  0.0639
  187POPC  H14A21422   2.160   2.553  14.100 -0.3361 -1.4822  2.5744
  187POPC  H14B21423   2.053   2.653  14.207 -0.4748 -2.0114 -0.6170
  187POPC  H14C21424   2.052   2.671  14.044  1.4134 -0.0789 -0.7044
  187POPC   C1521425   2.263   2.745  14.292 -0.7821 -0.2744  1.1905
  187POPC  H15A21426   2.342   2.816  14.313 -1.0480  0.7658 -0.9885
  187POPC  H15B21427   2.306   2.648  14.310  1.3864 -0.3613 -3.1023
  187POPC  H15C21428   2.175   2.767  14.350 -2.5280 -1.6745 -0.7525
  187POPC   C1121429   2.436   2.607  14.083 -0.4682  0.2992 -0.1470
  187POPC  H11A21430   2.483   2.608  14.184  1.7575 -2.5684 -1.0011
  187POPC  H11B21431   2.525   2.621  14.018 -1.2635  2.6913 -0.8126
  187POPC     P21432   2.334   2.434  13.914  0.2051 -0.2245  0.1922
  187POPC   O1321433   2.286   2.547  13.833 -0.2984  0.2852  0.2317
  187POPC   O1421434   2.243   2.316  13.909 -0.3063  0.6071 -0.5939
  187POPC   O1221435   2.368   2.487  14.057  0.2864  0.3784 -0.0387
  187POPC   O1121436   2.476   2.382  13.870 -0.0522 -0.3562  0.0414
  187POPC    C121437   2.505   2.245  13.875 -0.0486  0.1334  0.1801
  187POPC    HA21438   2.605   2.234  13.827 -0.0081  1.2380 -0.0094
  187POPC    HB21439   2.432   2.185  13.817 -0.5250  1.8958 -1.1360
  187POPC    C221440   2.515   2.178  14.016  0.0563  0.9753 -0.1695
  187POPC    HS21441   2.412   2.172  14.057  0.2853 -0.1639  0.2818
  187POPC   O2121442   2.595   2.253  14.102  0.7155 -0.3809 -0.8478
  187POPC   C2121443   2.569   2.221  14.235 -0.4664  0.7967 -0.0215
  187POPC   O2221444   2.487   2.146  14.273 -0.1551 -0.3844 -0.2408
  187POPC   C2221445   2.662   2.307  14.328 -0.1450 -0.0861  0.2616
  187POPC   H2R21446   2.662   2.275  14.434  1.5661  2.0639  0.9882
  187POPC   H2S21447   2.621   2.409  14.319 -2.9136 -1.1970 -0.6671
  187POPC    C321448   2.579   2.031  13.998 -0.0498  0.1610 -0.7908
  187POPC    HX21449   2.585   1.977  14.094  1.5817  1.4970 -0.0884
  187POPC    HY21450   2.683   2.036  13.957  0.7103 -1.6630  0.7477
  187POPC   O3121451   2.510   1.952  13.899  0.2259  0.0169  0.1156
  187POPC   C3121452   2.395   1.887  13.944  0.1646  0.5376  0.8170
  187POPC   O3221453   2.353   1.910  14.054  0.9738 -0.0149  0.2209
  187POPC   C3221454   2.333   1.807  13.825  0.7917  0.1713 -0.2694
  187POPC   H2X21455   2.406   1.729  13.793  2.1635  2.4660 -3.2510
  187POPC   H2Y21456   2.315   1.888  13.750 -1.2875  0.8024  0.8457
  187POPC   C2321457   2.814   2.308  14.288  0.6814 -0.5083 -1.0731
  187POPC   H3R21458   2.857   2.396  14.341 -0.8721  0.2710 -1.0254
  187POPC   H3S21459   2.822   2.330  14.179  1.6081  2.9683 -0.4271
  187POPC   C2421460   2.881   2.169  14.313 -0.8967 -0.1867 -0.4008
  187POPC   H4R21461   2.823   2.084  14.269  1.3365 -0.8968 -2.1434
  187POPC   H4S21462   2.862   2.154  14.422  1.3227  1.0229  0.1904
  187POPC   C2521463   3.035   2.178  14.275  0.5905  0.1636  0.1366
  187POPC   H5R21464   3.062   2.267  14.334 -0.0279  0.1081  0.5147
  187POPC   H5S21465   3.041   2.189  14.164  0.4085 -0.7206  0.0270
  187POPC   C2621466   3.117   2.059  14.322  0.2599 -0.4220 -0.2119
  187POPC   H6R21467   3.064   1.967  14.290 -0.9280 -0.1218  0.7886
  187POPC   H6S21468   3.103   2.048  14.432  0.2595  2.9023  0.2109
  187POPC   C2721469   3.260   2.071  14.275  0.0973 -0.2241  0.3474
  187POPC   H7R21470   3.298   2.163  14.325 -3.6036  2.0833 -0.6680
  187POPC   H7S21471   3.272   2.080  14.165  0.9187 -2.6626  0.1865
  187POPC   C2821472   3.336   1.938  14.304 -0.1321  0.1521  0.3938
  187POPC   H8R21473   3.293   1.860  14.237  1.5098 -0.4021 -0.0699
  187POPC   H8S21474   3.313   1.893  14.402 -2.5993  0.5985  0.0899
  187POPC   C2921475   3.485   1.943  14.281  0.3380 -1.2026 -0.2425
  187POPC   H9121476   3.535   2.014  14.348 -2.3023 -0.0691  0.6457
  187POPC  C21021477   3.562   1.888  14.187  0.4637 -0.1259  0.0944
  187POPC  H10121478   3.666   1.925  14.188  0.0805  1.0088  1.8144
  187POPC  C21121479   3.534   1.796  14.075  0.0339 -0.2510  0.9100
  187POPC  H11R21480   3.428   1.762  14.083 -0.6889  1.8808  1.1418
  187POPC  H11S21481   3.607   1.712  14.074 -0.6751 -0.9107 -1.0623
  187POPC  C21221482   3.566   1.871  13.941  0.6981  0.4789 -0.2135
  187POPC  H12R21483   3.582   1.798  13.858 -1.4703 -2.7826  2.0162
  187POPC  H12S21484   3.660   1.924  13.966  0.3945  0.4929  0.9417
  187POPC  C21321485   3.458   1.969  13.911  0.1186 -0.1950 -0.2922
  187POPC  H13R21486   3.459   2.035  14.001  2.2719 -0.4528 -0.0564
  187POPC  H13S21487   3.357   1.927  13.900 -0.0127  0.0888 -0.1937
  187POPC  C21421488   3.497   2.050  13.784 -0.4618  0.1625  0.3960
  187POPC  H14R21489   3.597   2.089  13.813 -0.6460 -0.0948  1.4239
  187POPC  H14S21490   3.436   2.143  13.789  1.0608  1.1654  0.9485
  187POPC  C21521491   3.459   1.970  13.658  0.2179  0.3602 -0.8705
  187POPC  H15R21492   3.371   1.905  13.679  1.4657 -0.8477  0.8549
  187POPC  H15S21493   3.541   1.898  13.640  0.5473  0.4059  0.3210
  187POPC  C21621494   3.432   2.058  13.537 -1.0432 -0.4353  0.4810
  187POPC  H16R21495   3.361   2.142  13.554  1.3681  1.9790 -0.5863
  187POPC  H16S21496   3.404   1.998  13.447  1.9255  0.4294 -1.1797
  187POPC  C21721497   3.564   2.121  13.486 -0.7750 -0.5215  0.0840
  187POPC  H17R21498   3.626   2.033  13.457 -0.0929  0.2595 -0.8923
  187POPC  H17S21499   3.616   2.178  13.566  1.7323  0.6675 -2.2334
  187POPC  C21821500   3.549   2.207  13.352  0.1801 -0.0463 -0.3443
  187POPC  H18R21501   3.479   2.290  13.374 -0.8410 -0.8598 -0.4248
  187POPC  H18S21502   3.505   2.143  13.273  2.4812 -1.2773 -0.7286
  187POPC  H18T21503   3.647   2.252  13.324  0.0436 -0.0351 -0.8086
  187POPC   C3321504   2.187   1.756  13.851  0.8769 -0.0088  0.7475
  187POPC   H3X21505   2.135   1.826  13.920 -0.5321 -1.4346  1.1760
  187POPC   H3Y21506   2.187   1.660  13.908 -1.1122 -0.5372 -0.0672
  187POPC   C3421507   2.123   1.716  13.717 -0.4770 -0.0943  0.3324
  187POPC   H4X21508   2.131   1.789  13.635 -0.9810 -0.8219 -0.3799
  187POPC   H4Y21509   2.014   1.713  13.735 -0.3871 -3.0073  0.9475
  187POPC   C3521510   2.175   1.582  13.658 -0.0823 -0.8913 -0.3315
  187POPC   H5X21511   2.162   1.510  13.743  2.8941 -2.3039 -0.9575
  187POPC   H5Y21512   2.282   1.606  13.646 -0.1105 -0.3698  0.3310
  187POPC   C3621513   2.113   1.545  13.517 -0.3379 -0.0016 -0.9642
  187POPC   H6X21514   2.099   1.643  13.466  2.2453 -0.1078 -2.0241
  187POPC   H6Y21515   2.012   1.504  13.540 -0.8912  0.1792 -2.9245
  187POPC   C3721516   2.198   1.451  13.437  0.4779  0.7568  0.2718
  187POPC   H7X21517   2.294   1.502  13.416  0.7802  0.3752  0.7104
  187POPC   H7Y21518   2.157   1.419  13.338  1.1019 -1.5181  0.6847
  187POPC   C3821519   2.225   1.320  13.509 -0.3745 -0.3635 -0.1341
  187POPC   H8X21520   2.129   1.286  13.554  0.9302  0.0092  3.1961
  187POPC   H8Y21521   2.302   1.342  13.585 -0.1005 -1.5159 -0.0545
  187POPC   C3921522   2.284   1.217  13.415 -0.5730 -0.3800  0.5780
  187POPC   H9X21523   2.372   1.178  13.470  1.3147  2.0497 -0.5301
  187POPC   H9Y21524   2.317   1.266  13.321 -0.9157  0.3117  0.8139
  187POPC  C31021525   2.183   1.116  13.359  0.5918 -0.1670 -0.0831
  187POPC  H10X21526   2.127   1.160  13.274  0.6959 -0.0439 -0.0876
  187POPC  H10Y21527   2.111   1.090  13.439  0.2089 -0.3957 -0.4957
  187POPC  C31121528   2.243   0.985  13.319  0.9320 -0.2952  0.4386
  187POPC  H11X21529   2.299   0.940  13.404  0.7272 -1.0026  0.2082
  187POPC  H11Y21530   2.319   0.992  13.238  1.1271  0.1099  0.6571
  187POPC  C31221531   2.137   0.879  13.276  0.5545 -0.8710  0.3448
  187POPC  H12X21532   2.074   0.912  13.191  0.9038 -0.1047  0.3767
  187POPC  H12Y21533   2.060   0.885  13.356 -0.1606  1.3444 -0.4392
  187POPC  C31321534   2.185   0.742  13.252  0.5436  0.0652 -0.0757
  187POPC  H13X21535   2.206   0.691  13.349  1.7605 -1.5963 -1.1633
  187POPC  H13Y21536   2.280   0.750  13.196 -0.0758  0.0385 -1.1461
  187POPC  C31421537   2.100   0.646  13.162  0.1829 -0.3934 -0.1401
  187POPC  H14X21538   2.004   0.621  13.213 -0.2520  1.6738  0.1511
  187POPC  H14Y21539   2.155   0.550  13.166  0.0619 -0.5067 -1.0650
  187POPC  C31521540   2.090   0.685  13.014  0.1812  0.0791 -0.1333
  187POPC  H15X21541   2.191   0.682  12.967  0.5531  0.6387  0.5912
  187POPC  H15Y21542   2.037   0.782  13.004 -2.8649 -1.2782  1.3683
  187POPC  C31621543   2.001   0.584  12.940 -0.3010  0.0807 -0.4591
  187POPC  H16X21544   1.980   0.611  12.834 -1.5638 -1.7071 -0.7155
  187POPC  H16Y21545   1.904   0.571  12.992  0.5102  1.6791  1.5764
  187POPC  H16Z21546   2.044   0.481  12.942  1.4046  0.7270 -1.2093
  188POPC     N21547   0.772   2.927  13.987  0.3617  0.3428 -0.0065
  188POPC   C1221548   0.892   2.936  14.085 -0.1266 -0.1321 -0.6363
  188POPC  H12A21549   0.962   2.997  14.030 -3.5029  0.3374 -4.9258
  188POPC  H12B21550   0.933   2.836  14.094 -0.7828 -0.6079 -2.5518
  188POPC   C1321551   0.827   2.915  13.852 -0.0614 -0.3135 -0.4553
  188POPC  H13A21552   0.744   2.896  13.786 -0.1888  0.1740 -0.4432
  188POPC  H13B21553   0.864   3.009  13.815 -1.3522 -0.3710 -2.0371
  188POPC  H13C21554   0.898   2.836  13.838  0.7757  0.5160 -0.9893
  188POPC   C1421555   0.696   2.801  14.011 -0.3399 -0.2299  0.7927
  188POPC  H14A21556   0.612   2.797  13.943 -0.8559 -2.6667  1.4864
  188POPC  H14B21557   0.751   2.713  13.983  0.3383 -0.3969  2.5381
  188POPC  H14C21558   0.660   2.804  14.113  0.9844  5.7054  1.4263
  188POPC   C1521559   0.673   3.043  13.993 -0.6982  0.4917 -0.7296
  188POPC  H15A21560   0.590   3.025  13.926 -0.7954 -0.3156 -0.4029
  188POPC  H15B21561   0.733   3.131  13.976  1.3757 -0.1117  2.4720
  188POPC  H15C21562   0.628   3.051  14.091  0.9803 -0.8237  0.1912
  188POPC   C1121563   0.869   2.990  14.229  0.4949 -0.1332  0.2703
  188POPC  H11A21564   0.838   3.097  14.224 -0.8327 -0.5412 -1.1346
  188POPC  H11B21565   0.963   2.983  14.288  0.8585 -1.0841 -0.4076
  188POPC     P21566   0.768   2.800  14.380 -0.1706  0.2216  0.0055
  188POPC   O1321567   0.847   2.829  14.498  0.2417 -0.3048  0.1087
  188POPC   O1421568   0.808   2.686  14.288 -0.0806 -0.0479 -0.4477
  188POPC   O1221569   0.753   2.932  14.293  0.2002  0.5894 -0.1016
  188POPC   O1121570   0.620   2.774  14.421 -0.6078  0.1623  0.2412
  188POPC    C121571   0.579   2.663  14.501 -0.4971  0.2494 -0.2812
  188POPC    HA21572   0.625   2.564  14.478  1.0199  1.1662 -1.3614
  188POPC    HB21573   0.469   2.658  14.506 -0.5743  2.2341  1.3237
  188POPC    C221574   0.617   2.680  14.652 -0.0100  0.0270  0.6146
  188POPC    HS21575   0.727   2.695  14.654 -0.1424  1.0502  0.7378
  188POPC   O2121576   0.593   2.561  14.737  0.7332 -0.1355 -0.5760
  188POPC   C2121577   0.664   2.457  14.731 -0.0939 -0.0702 -0.0949
  188POPC   O2221578   0.771   2.438  14.673  0.2114  0.0452 -0.1711
  188POPC   C2221579   0.602   2.345  14.816 -0.4103 -0.0520 -0.4235
  188POPC   H2R21580   0.581   2.267  14.741  0.0436  0.8565 -1.5326
  188POPC   H2S21581   0.509   2.387  14.860 -1.9101 -1.2360 -2.3372
  188POPC    C321582   0.555   2.807  14.711 -0.1316  0.5032 -0.6002
  188POPC    HX21583   0.451   2.811  14.673  0.1397 -0.5439 -1.5202
  188POPC    HY21584   0.608   2.887  14.656  0.9721  0.2949  0.1275
  188POPC   O3121585   0.583   2.824  14.854 -0.0499 -0.1341 -0.2271
  188POPC   C3121586   0.481   2.788  14.941 -0.3385  0.7150  1.3161
  188POPC   O3221587   0.367   2.759  14.916 -0.5610  0.0755 -0.3349
  188POPC   C3221588   0.543   2.790  15.083 -0.3991  0.4601 -0.2920
  188POPC   H2X21589   0.562   2.894  15.119  1.5016 -0.7425  2.5603
  188POPC   H2Y21590   0.638   2.733  15.072 -0.1967  0.8744 -0.7276
  188POPC   C2321591   0.689   2.291  14.942 -0.2043 -0.2746  0.2014
  188POPC   H3R21592   0.789   2.260  14.903 -0.7932 -2.1256  0.0463
  188POPC   H3S21593   0.627   2.204  14.972 -1.9497  1.7213  2.8440
  188POPC   C2421594   0.700   2.383  15.058  0.6846 -0.4699 -0.1993
  188POPC   H4R21595   0.599   2.420  15.086  1.3356  0.5903  0.8600
  188POPC   H4S21596   0.760   2.472  15.030  0.5293  0.1516  1.3215
  188POPC   C2521597   0.762   2.324  15.182 -0.0254  0.5008  0.5049
  188POPC   H5R21598   0.866   2.288  15.164 -0.6426 -1.6823  1.0506
  188POPC   H5S21599   0.696   2.238  15.203 -0.8677  1.2259  0.8427
  188POPC   C2621600   0.779   2.403  15.314 -0.0109 -0.2580 -0.4020
  188POPC   H6R21601   0.680   2.442  15.345 -0.7467 -1.9908 -0.4680
  188POPC   H6S21602   0.852   2.487  15.312 -0.3001 -0.0096 -2.5885
  188POPC   C2721603   0.822   2.320  15.442 -0.5764  0.1677  0.5681
  188POPC   H7R21604   0.924   2.278  15.432 -0.6276 -0.3665  1.9908
  188POPC   H7S21605   0.754   2.232  15.438  0.1780 -0.3782 -1.3727
  188POPC   C2821606   0.800   2.409  15.573 -0.6191  0.1983  0.0292
  188POPC   H8R21607   0.812   2.329  15.649  3.4652  0.2858 -0.3022
  188POPC   H8S21608   0.698   2.453  15.572 -0.4700  0.5618  0.4976
  188POPC   C2921609   0.907   2.513  15.587  0.1504  0.2145 -0.2746
  188POPC   H9121610   0.977   2.525  15.503  2.2637  2.3680  1.6104
  188POPC  C21021611   0.909   2.605  15.689  0.6249  0.4975  0.3759
  188POPC  H10121612   0.989   2.679  15.703  1.0632 -0.0141  0.6373
  188POPC  C21121613   0.829   2.594  15.815 -0.0894  0.0851  0.1487
  188POPC  H11R21614   0.890   2.550  15.897 -0.0154 -0.2658 -0.0914
  188POPC  H11S21615   0.739   2.530  15.812 -0.3080  0.4078 -0.2954
  188POPC  C21221616   0.795   2.732  15.863  0.2040  0.4815  0.2864
  188POPC  H12R21617   0.721   2.789  15.802 -1.3220 -1.0625  0.6132
  188POPC  H12S21618   0.873   2.810  15.872 -1.6784  2.5213 -0.1870
  188POPC  C21321619   0.737   2.721  16.004 -0.4457 -0.1969  0.0327
  188POPC  H13R21620   0.808   2.658  16.061 -0.2624  0.8491  0.9937
  188POPC  H13S21621   0.640   2.667  16.007 -0.7592  0.3640  0.1546
  188POPC  C21421622   0.728   2.865  16.068 -0.0284 -0.1172 -0.0509
  188POPC  H14R21623   0.693   2.929  15.985  0.6603  1.2283  0.6664
  188POPC  H14S21624   0.832   2.898  16.091  0.7423 -1.3091 -1.6183
  188POPC  C21521625   0.646   2.883  16.198 -0.5788  0.1804 -0.4070
  188POPC  H15R21626   0.678   2.808  16.274 -3.5069  0.6253  1.4271
  188POPC  H15S21627   0.545   2.839  16.185  0.2290 -1.6133 -1.0055
  188POPC  C21621628   0.662   3.026  16.257  0.6540  0.0076  0.2539
  188POPC  H16R21629   0.652   3.098  16.173  0.3488  0.1972  0.4502
  188POPC  H16S21630   0.768   3.044  16.284  1.1819 -1.7627 -0.4666
  188POPC  C21721631   0.577   3.047  16.383  0.3233 -0.5795  0.6770
  188POPC  H17R21632   0.603   2.964  16.453  3.0913  1.4821  2.2854
  188POPC  H17S21633   0.467   3.043  16.368  0.1604 -1.7289  1.9283
  188POPC  C21821634   0.610   3.190  16.444  0.6670 -0.3068  0.3285
  188POPC  H18R21635   0.545   3.235  16.521 -0.1349  0.4913 -0.7761
  188POPC  H18S21636   0.608   3.265  16.362 -1.2774  0.2768  0.8671
  188POPC  H18T21637   0.713   3.194  16.486  1.0604  0.9307 -0.6842
  188POPC   C3321638   0.453   2.714  15.191 -1.0298 -0.2043  0.1401
  188POPC   H3X21639   0.506   2.675  15.280 -0.7676 -0.0883  0.0354
  188POPC   H3Y21640   0.403   2.630  15.139  1.1370 -0.5450 -1.5417
  188POPC   C3421641   0.337   2.810  15.230 -0.0936  0.2290 -0.2944
  188POPC   H4X21642   0.274   2.829  15.140  0.6690 -1.0577 -1.1305
  188POPC   H4Y21643   0.377   2.910  15.259 -1.6519  0.9890 -0.6740
  188POPC   C3521644   0.251   2.765  15.357 -0.3406 -0.8174  0.2046
  188POPC   H5X21645   0.225   2.657  15.348  2.8346 -1.5343 -1.8428
  188POPC   H5Y21646   0.162   2.832  15.363  1.1237  1.3101 -0.8640
  188POPC   C3621647   0.342   2.781  15.483 -0.1836  0.2205  0.6403
  188POPC   H6X21648   0.350   2.889  15.505  0.1737  0.4762 -0.6391
  188POPC   H6Y21649   0.447   2.757  15.455  0.1509  3.4963 -1.5132
  188POPC   C3721650   0.291   2.701  15.606 -0.8392 -0.1590 -0.7289
  188POPC   H7X21651   0.266   2.596  15.583  0.6562 -1.1424  1.7213
  188POPC   H7Y21652   0.202   2.758  15.642 -0.4601  0.1403 -0.2424
  188POPC   C3821653   0.398   2.705  15.722  0.7626  0.4638 -0.1725
  188POPC   H8X21654   0.393   2.810  15.757  1.2764  0.2422  0.5976
  188POPC   H8Y21655   0.498   2.681  15.678  0.2624 -1.2705 -0.4676
  188POPC   C3921656   0.368   2.608  15.837 -0.6439 -0.0156  0.5681
  188POPC   H9X21657   0.259   2.609  15.858 -1.0602  1.3773 -1.3974
  188POPC   H9Y21658   0.423   2.647  15.925 -0.3197  0.8448 -0.0040
  188POPC  C31021659   0.421   2.469  15.806  0.3265  0.8609  0.9139
  188POPC  H10X21660   0.515   2.476  15.748  0.4426 -0.6507  0.8614
  188POPC  H10Y21661   0.353   2.410  15.740  1.7660 -1.7340  1.5917
  188POPC  C31121662   0.454   2.388  15.929  0.0326 -0.1682  0.4408
  188POPC  H11X21663   0.359   2.334  15.950 -0.4093  0.5819  0.4148
  188POPC  H11Y21664   0.480   2.452  16.016  0.5890 -0.4348  0.4698
  188POPC  C31221665   0.557   2.280  15.905 -0.2623 -0.1205 -0.1761
  188POPC  H12X21666   0.659   2.319  15.884 -0.0482 -0.7170 -0.2551
  188POPC  H12Y21667   0.521   2.230  15.813  0.6914  2.2498 -1.9455
  188POPC  C31321668   0.585   2.193  16.026 -0.7780 -0.5428 -0.7639
  188POPC  H13X21669   0.649   2.104  16.006 -3.3000 -2.8318  0.6453
  188POPC  H13Y21670   0.493   2.143  16.064  0.2302 -3.2188 -1.5945
  188POPC  C31421671   0.653   2.264  16.146  0.4482 -0.3639 -0.1200
  188POPC  H14X21672   0.585   2.346  16.176  1.7857  1.4028 -1.6255
  188POPC  H14Y21673   0.748   2.312  16.112 -0.4246  0.7847 -1.0085
  188POPC  C31521674   0.682   2.172  16.263  0.3872 -0.1167  0.6549
  188POPC  H15X21675   0.738   2.092  16.211 -0.8499 -0.2041 -0.6114
  188POPC  H15Y21676   0.584   2.127  16.293  1.1042 -1.3387  1.2729
  188POPC  C31621677   0.753   2.229  16.379  0.1852  0.0857 -1.0323
  188POPC  H16X21678   0.747   2.176  16.476  3.7076  2.5710  0.7775
  188POPC  H16Y21679   0.715   2.331  16.399  0.5610  0.0711 -0.1781
  188POPC  H16Z21680   0.863   2.236  16.360  1.2553 -2.0258  3.0494
  189SAPI   C1221681   2.521   1.839  19.057  0.2472  0.3719  0.0885
  189SAPI    H221682   2.596   1.856  19.137 -0.2165 -1.2574  0.9089
  189SAPI    O221683   2.594   1.797  18.943  0.5251  0.4444 -0.3946
  189SAPI   HO221684   2.584   1.863  18.874 -0.9898  0.1917 -0.4523
  189SAPI   C1321685   2.421   1.733  19.100  0.2022  0.3420 -0.4785
  189SAPI    H321686   2.350   1.773  19.175 -0.8647  0.6535 -1.6105
  189SAPI    O321687   2.495   1.621  19.155  0.8276 -0.0559  0.1035
  189SAPI   HO321688   2.568   1.602  19.095  0.8347 -2.2677  0.7153
  189SAPI   C1421689   2.335   1.688  18.984  0.1683 -0.1576 -0.3141
  189SAPI    H421690   2.396   1.638  18.906 -2.3109  1.3282 -3.4020
  189SAPI    O421691   2.242   1.584  19.019  0.3151 -0.7897  0.1105
  189SAPI   HO421692   2.227   1.527  18.943  0.4733 -1.1868  0.3720
  189SAPI   C1521693   2.274   1.805  18.916 -0.2285 -0.3327  0.2463
  189SAPI    H521694   2.191   1.823  18.987  1.2588 -1.2423  2.3399
  189SAPI    O521695   2.220   1.765  18.784 -0.6338 -0.0245 -0.4851
  189SAPI   HO521696   2.127   1.787  18.790  0.1153  3.3641  0.8751
  189SAPI   C1621697   2.346   1.942  18.914  0.0668 -0.7282  0.2759
  189SAPI    H621698   2.402   1.950  18.818  0.6896  0.8957  0.7319
  189SAPI    O621699   2.249   2.050  18.899 -0.4058  0.6516  0.3256
  189SAPI   HO621700   2.304   2.122  18.869  2.7022 -1.2921  0.9319
  189SAPI   C1121701   2.439   1.968  19.031 -0.3269  0.6931 -0.0602
  189SAPI    H121702   2.377   1.985  19.122 -0.0089 -2.6771  0.9436
  189SAPI     P21703   2.605   2.173  19.101  0.0881  0.2069 -0.1704
  189SAPI   O1321704   2.744   2.192  19.054  0.0958  0.0869  0.1609
  189SAPI   O1421705   2.583   2.101  19.226 -0.2685 -0.6616  0.0169
  189SAPI   O1221706   2.526   2.075  18.989  0.3473 -0.8003 -0.5586
  189SAPI   O1121707   2.522   2.301  19.100 -0.5820  0.1586  0.4436
  189SAPI    C121708   2.383   2.299  19.117  0.5053  0.3933 -0.4499
  189SAPI    HA21709   2.321   2.268  19.031 -1.6619 -2.0275  1.7750
  189SAPI    HB21710   2.360   2.228  19.200 -0.3968 -1.7044 -2.3974
  189SAPI    C221711   2.337   2.442  19.163 -0.0435 -0.3626 -0.1198
  189SAPI    HS21712   2.234   2.434  19.202 -0.2930 -2.3977 -1.0719
  189SAPI   O2121713   2.339   2.550  19.061 -0.9657  0.1583  0.7391
  189SAPI   C2121714   2.264   2.527  18.958  0.8014 -0.7873 -0.5310
  189SAPI   O2221715   2.181   2.438  18.948 -0.2945  0.0945  0.3298
  189SAPI   C2221716   2.284   2.644  18.853 -0.0610 -0.2802 -0.0964
  189SAPI   H2R21717   2.199   2.713  18.871 -1.4372 -2.2942  1.6228
  189SAPI   H2S21718   2.376   2.696  18.888  0.5577 -1.1895 -0.3417
  189SAPI    C321719   2.421   2.494  19.288  0.2897  0.3606  0.3688
  189SAPI    HX21720   2.529   2.501  19.267  0.0756  0.9734 -0.5913
  189SAPI    HY21721   2.418   2.404  19.353  2.2708  0.2898  0.4198
  189SAPI   O3121722   2.377   2.615  19.364 -0.3093  0.2959 -0.3797
  189SAPI   C3121723   2.474   2.690  19.401 -0.1510 -0.2282  0.0632
  189SAPI   O3221724   2.591   2.673  19.387 -0.8016 -0.5434 -0.1665
  189SAPI   C3221725   2.412   2.822  19.472  0.9709  0.2245 -0.2780
  189SAPI   H2X21726   2.460   2.835  19.571  2.2320  2.9982 -1.1393
  189SAPI   H2Y21727   2.310   2.783  19.489  1.2923  0.2469  2.0646
  189SAPI   C2321728   2.307   2.619  18.707 -0.3957  0.6901 -0.6092
  189SAPI   H3R21729   2.212   2.591  18.657 -0.8865 -0.3844  0.8705
  189SAPI   H3S21730   2.376   2.532  18.704 -0.1939  0.7835  0.9027
  189SAPI   C2421731   2.367   2.743  18.646  0.1449  0.6073  0.3726
  189SAPI   H4R21732   2.465   2.760  18.694  0.1237 -1.6127  1.3071
  189SAPI   H4S21733   2.306   2.833  18.668 -1.3053 -0.5921  1.4375
  189SAPI   C2521734   2.387   2.731  18.503 -0.0463 -0.8904  0.1203
  189SAPI   H5R21735   2.294   2.755  18.449 -0.0416  0.4956  0.6802
  189SAPI   C2621736   2.499   2.701  18.438 -0.3315 -0.1926  0.1666
  189SAPI   H6R21737   2.500   2.711  18.328 -1.6468  2.4717  0.2983
  189SAPI   C2721738   2.627   2.668  18.501  0.5117 -0.2004  0.2981
  189SAPI   H7R21739   2.636   2.732  18.591  0.5286  1.1853 -0.6542
  189SAPI   H7S21740   2.713   2.702  18.439 -0.7442  1.3275 -0.6842
  189SAPI   C2821741   2.635   2.520  18.532 -0.4825  0.0793 -0.5109
  189SAPI   H8R21742   2.572   2.445  18.481  0.1729  0.3501 -1.7642
  189SAPI   C2921743   2.690   2.481  18.647  0.2038  0.0402 -0.2590
  189SAPI   H9R21744   2.697   2.371  18.655 -0.2537  0.0072 -0.2884
  189SAPI  C21021745   2.756   2.553  18.759  0.1216 -0.1014 -0.3405
  189SAPI  H10R21746   2.765   2.661  18.734  1.1518 -0.2169 -0.4741
  189SAPI  H10S21747   2.862   2.521  18.760 -0.6111 -2.7571  0.7556
  189SAPI  C21121748   2.710   2.539  18.903 -0.2300  0.2200 -0.3602
  189SAPI  H11R21749   2.638   2.463  18.934 -0.3470 -0.1261 -1.4288
  189SAPI  C21221750   2.750   2.626  19.001 -0.0706 -0.1211 -0.0500
  189SAPI  H12R21751   2.696   2.634  19.097  0.8107  2.0432  0.3392
  189SAPI  C21321752   2.848   2.735  18.982 -0.3729  0.4371  0.1014
  189SAPI  H13R21753   2.799   2.808  18.915  1.6238  0.7735 -1.0928
  189SAPI  H13S21754   2.939   2.714  18.921 -0.6932  2.3137 -1.1104
  189SAPI  C21421755   2.883   2.804  19.107  0.2183 -0.1781 -0.6550
  189SAPI  H14R21756   2.844   2.761  19.201 -1.5080  0.8232 -0.8718
  189SAPI  C21521757   2.958   2.912  19.123 -1.0770 -0.6070 -0.2807
  189SAPI  H15R21758   2.976   2.939  19.228  0.1482 -1.0333 -0.3711
  189SAPI  C21621759   3.013   2.999  19.008  0.3869 -0.0836 -0.5777
  189SAPI  H16R21760   2.947   2.989  18.919  0.0072  0.2216 -0.3326
  189SAPI  H16S21761   3.108   2.952  18.975  0.3197 -0.5783 -0.0742
  189SAPI  C21721762   3.020   3.142  19.036 -0.8034 -0.2444  0.2318
  189SAPI  H17R21763   2.920   3.177  19.067 -1.3582 -0.1627 -1.5595
  189SAPI  H17S21764   3.049   3.192  18.941  1.2962  0.0595  0.9560
  189SAPI  C21821765   3.126   3.174  19.138 -0.2441  0.0653  0.4573
  189SAPI  H18R21766   3.204   3.095  19.135  1.1653  1.3430  1.8419
  189SAPI  H18S21767   3.081   3.160  19.239 -0.4311 -1.9325  0.1326
  189SAPI  C21921768   3.212   3.303  19.112  0.2767 -0.3878  0.2524
  189SAPI  H19R21769   3.140   3.388  19.109  1.0741  0.2732 -0.9515
  189SAPI  H19S21770   3.271   3.291  19.019  2.4764  2.3290  1.1528
  189SAPI  C22021771   3.305   3.337  19.228  0.7519 -0.1096  0.0878
  189SAPI  H20R21772   3.264   3.406  19.305  1.3019 -0.8779  1.1070
  189SAPI  H20S21773   3.409   3.361  19.197  1.4711 -1.1791  1.5337
  189SAPI  H20T21774   3.335   3.242  19.277 -0.6991  0.4968  2.3014
  189SAPI   C3321775   2.431   2.938  19.381  0.2357  0.0894 -0.2859
  189SAPI   H3X21776   2.356   3.014  19.411  1.5353  1.3242 -0.0304
  189SAPI   H3Y21777   2.413   2.898  19.279 -3.9657 -0.5880  0.5616
  189SAPI   C3421778   2.572   3.000  19.389 -0.2761 -0.3029 -0.3927
  189SAPI   H4X21779   2.654   2.932  19.358  0.3083 -1.1896  2.7081
  189SAPI   H4Y21780   2.589   3.021  19.497 -0.6249  3.3280 -0.9168
  189SAPI   C3521781   2.583   3.136  19.317  0.0835  0.1212  0.2984
  189SAPI   H5X21782   2.488   3.186  19.347 -0.5599 -1.7329  1.5616
  189SAPI   H5Y21783   2.573   3.133  19.206 -0.3477 -0.9293  0.3558
  189SAPI   C3621784   2.720   3.209  19.331  0.1348 -0.0500  0.1101
  189SAPI   H6X21785   2.793   3.158  19.264 -3.2973 -2.4731 -2.1620
  189SAPI   H6Y21786   2.756   3.208  19.436  0.1302  1.5716  0.1543
  189SAPI   C3721787   2.703   3.348  19.276  0.1497 -0.9719 -0.6705
  189SAPI   H7X21788   2.618   3.401  19.325  1.0253 -0.3207  0.1992
  189SAPI   H7Y21789   2.680   3.344  19.167 -0.4918 -1.1450 -0.5342
  189SAPI   C3821790   2.826   3.436  19.308  0.0718  0.4945 -0.3149
  189SAPI   H8X21791   2.919   3.409  19.254  0.4184  0.8899  0.0760
  189SAPI   H8Y21792   2.843   3.431  19.418 -2.2097  0.6185  0.0973
  189SAPI   C3921793   2.811   3.583  19.272  0.2142 -0.1155 -0.2641
  189SAPI   H9X21794   2.712   3.608  19.316 -0.1433 -0.0140 -1.1106
  189SAPI   H9Y21795   2.800   3.597  19.162 -0.2051  0.9633 -0.0940
  189SAPI  C31021796   2.918   3.681  19.333 -0.9435  0.4454  0.0838
  189SAPI  H10X21797   2.920   3.661  19.442  0.4860 -1.4793 -0.2289
  189SAPI  H10Y21798   2.878   3.783  19.317 -0.1433  0.7110 -0.2979
  189SAPI  C31121799   3.057   3.660  19.268 -0.3725  0.0286  0.1016
  189SAPI  H11X21800   3.038   3.682  19.161 -0.9136 -1.5487 -0.1705
  189SAPI  H11Y21801   3.087   3.554  19.284 -1.1970 -0.3739 -0.8877
  189SAPI  C31221802   3.170   3.742  19.336  0.1740  0.1392  0.3928
  189SAPI  H12X21803   3.171   3.729  19.447  1.0198  0.7695  0.4670
  189SAPI  H12Y21804   3.150   3.850  19.323 -0.1594 -0.1645 -1.9798
  189SAPI  C31321805   3.304   3.728  19.269  0.0925 -0.3197 -0.6340
  189SAPI  H13X21806   3.289   3.754  19.163  2.4640 -0.6705 -1.1122
  189SAPI  H13Y21807   3.331   3.621  19.269 -0.4443 -0.4631 -1.3806
  189SAPI  C31421808   3.405   3.829  19.337 -0.2117 -0.0951  0.0314
  189SAPI  H14X21809   3.382   3.848  19.444  0.5970 -0.6519  0.3119
  189SAPI  H14Y21810   3.405   3.932  19.295  1.0092  0.8289  2.1763
  189SAPI  C31521811   3.547   3.775  19.343  0.2020  0.4721 -0.2123
  189SAPI  H15X21812   3.603   3.792  19.248 -0.9535 -2.4083 -1.5203
  189SAPI  H15Y21813   3.530   3.668  19.364 -0.0697  0.7876  1.2577
  189SAPI  C31621814   3.625   3.828  19.463 -0.1082  0.4246  0.1497
  189SAPI  H16X21815   3.567   3.819  19.558  1.1726  0.8032  0.9883
  189SAPI  H16Y21816   3.638   3.938  19.451  1.3964  0.1667 -0.7582
  189SAPI  C31721817   3.749   3.746  19.497  0.7641  0.4577  0.2512
  189SAPI  H17X21818   3.822   3.823  19.528 -0.0651 -0.2096  4.3985
  189SAPI  H17Y21819   3.788   3.687  19.411  0.0729  0.6426 -0.2045
  189SAPI  C31821820   3.727   3.652  19.617  0.1176 -0.4258 -0.1192
  189SAPI  H18X21821   3.751   3.702  19.713  2.7194 -1.4713 -0.1466
  189SAPI  H18Y21822   3.792   3.563  19.606  0.8316 -0.2095  1.9257
  189SAPI  H18Z21823   3.623   3.612  19.613 -0.3924  0.7457  0.6257
  190SAPI   C1221824   3.151   1.334  19.297  0.4030 -0.2454  0.4848
  190SAPI    H221825   3.082   1.320  19.211  0.8889 -0.3733  0.1077
  190SAPI    O221826   3.285   1.328  19.242  0.0255 -0.7077  0.1943
  190SAPI   HO221827   3.275   1.274  19.163  0.4344  0.8211 -0.9506
  190SAPI   C1321828   3.122   1.463  19.373 -0.1195  0.8459 -0.7658
  190SAPI    H321829   3.018   1.450  19.409  0.7063 -0.9630  1.2457
  190SAPI    O321830   3.142   1.578  19.297 -0.3937 -0.3855  0.0254
  190SAPI   HO321831   3.232   1.586  19.266 -0.7318  1.2655 -0.6058
  190SAPI   C1421832   3.206   1.473  19.501  0.2249  0.0361  0.9439
  190SAPI    H421833   3.308   1.490  19.461  0.5367 -1.7692  0.8999
  190SAPI    O421834   3.157   1.587  19.581 -0.2026  0.5275  0.4240
  190SAPI   HO421835   3.131   1.652  19.515  1.4801 -1.7382 -2.7577
  190SAPI   C1521836   3.224   1.349  19.584  0.2382 -0.3765 -0.6039
  190SAPI    H521837   3.135   1.353  19.650  1.4362  0.8512  1.0359
  190SAPI    O521838   3.334   1.369  19.673  0.0930  0.2282 -0.5554
  190SAPI   HO521839   3.367   1.284  19.705 -0.7016 -0.2962 -1.0897
  190SAPI   C1621840   3.230   1.213  19.506 -1.2676 -0.6973  0.9793
  190SAPI    H621841   3.325   1.204  19.451 -1.0662 -0.0606  1.2133
  190SAPI    O621842   3.218   1.101  19.586 -0.4256  0.1310 -0.3874
  190SAPI   HO621843   3.221   1.019  19.537  1.2383 -1.3046  1.9270
  190SAPI   C1121844   3.126   1.223  19.402  0.1129 -0.0500 -0.2881
  190SAPI    H121845   3.032   1.255  19.451 -1.5911 -1.3001 -2.5510
  190SAPI     P21846   2.968   1.071  19.252  0.0621  0.2734 -0.1877
  190SAPI   O1321847   2.993   0.998  19.125 -0.1077  0.6107  0.0651
  190SAPI   O1421848   2.873   1.187  19.249 -0.3091  0.8428 -0.5804
  190SAPI   O1221849   3.112   1.103  19.320 -0.2612 -0.3070 -0.5131
  190SAPI   O1121850   2.904   0.967  19.351  0.2290 -0.4614 -0.3963
  190SAPI    C121851   2.970   0.871  19.428  0.4795 -0.1114 -0.8719
  190SAPI    HA21852   3.035   0.920  19.504  0.3868 -0.8613 -0.2921
  190SAPI    HB21853   2.890   0.821  19.488  0.2623  0.9714 -0.2310
  190SAPI    C221854   3.027   0.755  19.344 -0.0937  0.3525  0.1011
  190SAPI    HS21855   3.060   0.674  19.412  2.5359  0.8868 -0.4263
  190SAPI   O2121856   3.145   0.790  19.275 -0.8411 -0.2791  0.8477
  190SAPI   C2121857   3.239   0.833  19.349 -1.0198 -0.3639  0.0456
  190SAPI   O2221858   3.244   0.834  19.473  0.2114 -0.3061  0.0360
  190SAPI   C2221859   3.351   0.880  19.257 -0.3308  0.0086 -0.3081
  190SAPI   H2R21860   3.386   0.791  19.200  1.5721  1.0316 -0.8491
  190SAPI   H2S21861   3.317   0.962  19.190 -2.1565  0.0656  0.6398
  190SAPI    C321862   2.924   0.688  19.247 -0.5455  0.2794  0.4954
  190SAPI    HX21863   2.902   0.764  19.169 -1.7383 -1.5330 -1.0217
  190SAPI    HY21864   2.837   0.687  19.316  1.1959 -0.1290  2.8255
  190SAPI   O3121865   2.970   0.563  19.194  0.1811  0.2530 -0.3076
  190SAPI   C3121866   3.019   0.562  19.064 -0.1323 -0.2005 -0.9260
  190SAPI   O3221867   3.032   0.660  18.993  0.1281  0.7794  0.6239
  190SAPI   C3221868   3.061   0.421  19.026 -0.5197  0.5653  0.6573
  190SAPI   H2X21869   2.972   0.356  19.028 -0.3795  0.3535  3.3132
  190SAPI   H2Y21870   3.136   0.374  19.093  1.4423  0.4389 -1.4590
  190SAPI   C2321871   3.469   0.937  19.347 -0.7390 -0.0704  0.0650
  190SAPI   H3R21872   3.510   0.861  19.417 -0.9371 -0.5187 -0.2938
  190SAPI   H3S21873   3.438   1.009  19.426 -0.6156  0.3218 -0.2409
  190SAPI   C2421874   3.579   1.021  19.271  0.5849  1.0885 -0.3745
  190SAPI   H4R21875   3.631   1.081  19.348  1.0819 -0.0595  0.2129
  190SAPI   H4S21876   3.523   1.094  19.209  0.1762 -0.9161 -2.5393
  190SAPI   C2521877   3.679   0.935  19.193  0.9167 -0.7692  0.3243
  190SAPI   H5R21878   3.653   0.934  19.086 -4.2762  3.9973  1.0548
  190SAPI   C2621879   3.773   0.857  19.253  0.4277 -0.2294 -0.4871
  190SAPI   H6R21880   3.853   0.811  19.193  1.9032  2.9284 -1.1321
  190SAPI   C2721881   3.811   0.857  19.397  0.1383 -0.4014 -0.1640
  190SAPI   H7R21882   3.750   0.927  19.458 -1.3395 -1.0871 -0.8033
  190SAPI   H7S21883   3.918   0.887  19.388  0.2062 -0.8704 -1.0627
  190SAPI   C2821884   3.804   0.727  19.456  0.6958  1.1176 -1.0417
  190SAPI   H8R21885   3.748   0.659  19.390  0.6450  1.4655 -1.3603
  190SAPI   C2921886   3.823   0.691  19.585 -0.6968 -0.5426 -0.5272
  190SAPI   H9R21887   3.813   0.587  19.619 -0.2101  0.1058  1.7140
  190SAPI  C21021888   3.889   0.793  19.675 -0.5207  0.0133  0.2194
  190SAPI  H10R21889   3.957   0.853  19.612 -0.7171  0.4574  0.4318
  190SAPI  H10S21890   3.958   0.737  19.742  0.3140 -1.0424 -1.4382
  190SAPI  C21121891   3.795   0.889  19.743 -0.3241  0.4025  0.2356
  190SAPI  H11R21892   3.703   0.842  19.781 -0.4563  1.0348  0.7060
  190SAPI  C21221893   3.825   1.017  19.773 -0.6141 -0.4285 -0.4514
  190SAPI  H12R21894   3.751   1.084  19.819 -0.1142 -1.5672  2.1339
  190SAPI  C21321895   3.958   1.088  19.745 -0.0680  0.9026 -0.1872
  190SAPI  H13R21896   3.948   1.155  19.657  1.9849  0.5770 -0.7333
  190SAPI  H13S21897   4.032   1.015  19.705 -0.9999 -0.2119  0.0510
  190SAPI  C21421898   4.025   1.164  19.853 -0.1179 -0.8375 -0.7070
  190SAPI  H14R21899   4.022   1.271  19.828  0.5078 -0.8945 -1.0630
  190SAPI  C21521900   4.094   1.122  19.959 -0.2185  0.2173 -0.9877
  190SAPI  H15R21901   4.149   1.194  20.021  0.6645 -0.9473 -0.3733
  190SAPI  C21621902   4.125   0.977  19.988  0.0491 -0.0257 -1.2587
  190SAPI  H16R21903   4.229   0.952  19.959  0.7501  1.2807 -0.0023
  190SAPI  H16S21904   4.055   0.906  19.938  0.0651 -0.9877  0.0416
  190SAPI  C21721905   4.095   0.949  20.139  0.2267 -0.3550  0.1009
  190SAPI  H17R21906   3.987   0.967  20.154 -0.5078 -4.0370  0.1430
  190SAPI  H17S21907   4.164   1.005  20.205  2.3245  0.7680 -2.8185
  190SAPI  C21821908   4.104   0.799  20.175 -0.1912 -0.0110 -0.6545
  190SAPI  H18R21909   4.022   0.746  20.123 -0.9286 -3.2110  3.2573
  190SAPI  H18S21910   4.080   0.779  20.282 -0.8987 -0.6865 -0.9275
  190SAPI  C21921911   4.241   0.754  20.134 -0.5314 -0.4980  0.3032
  190SAPI  H19R21912   4.319   0.808  20.192 -1.5198 -0.9221  2.1069
  190SAPI  H19S21913   4.261   0.774  20.026 -0.5154  1.2448  0.5960
  190SAPI  C22021914   4.252   0.603  20.151  0.3051  0.3399  0.3337
  190SAPI  H20R21915   4.227   0.578  20.257  0.9549 -0.8834  0.2163
  190SAPI  H20S21916   4.354   0.565  20.128  0.0230 -1.0407  1.2331
  190SAPI  H20T21917   4.183   0.540  20.090  2.4614 -0.1457 -1.7639
  190SAPI   C3321918   3.132   0.414  18.885 -0.4560 -0.6602  0.3023
  190SAPI   H3X21919   3.205   0.331  18.896  0.2446  0.1996  2.7324
  190SAPI   H3Y21920   3.195   0.504  18.870  2.0961 -2.7622 -3.1585
  190SAPI   C3421921   3.029   0.392  18.771 -0.5976 -0.0283  0.1974
  190SAPI   H4X21922   2.942   0.459  18.789 -0.2682  0.7567 -1.0031
  190SAPI   H4Y21923   2.994   0.287  18.777  1.3462 -0.9385 -2.4670
  190SAPI   C3521924   3.084   0.418  18.630  0.3212 -0.0263 -0.2229
  190SAPI   H5X21925   3.152   0.333  18.604  1.2947  1.3069 -2.3719
  190SAPI   H5Y21926   3.156   0.502  18.622  2.8837 -2.0692 -0.1088
  190SAPI   C3621927   2.961   0.429  18.532 -0.4074  0.0841  0.0703
  190SAPI   H6X21928   2.917   0.530  18.540 -0.0147  0.4620 -2.0213
  190SAPI   H6Y21929   2.893   0.345  18.557  0.2955 -1.0318 -1.6095
  190SAPI   C3721930   2.999   0.414  18.386 -0.2473  0.2253  0.3576
  190SAPI   H7X21931   3.064   0.325  18.371  0.5411  0.7566  0.5970
  190SAPI   H7Y21932   3.048   0.509  18.356  2.4162 -0.6732  1.5393
  190SAPI   C3821933   2.870   0.388  18.302 -0.9150  0.5999 -0.2915
  190SAPI   H8X21934   2.904   0.388  18.196 -1.4855 -1.4662 -0.5210
  190SAPI   H8Y21935   2.799   0.472  18.315  0.9988  2.2604  0.0100
  190SAPI   C3921936   2.801   0.254  18.319  0.1892  0.1681 -0.3845
  190SAPI   H9X21937   2.756   0.268  18.419  1.9711  0.7271  0.3809
  190SAPI   H9Y21938   2.875   0.171  18.329  1.6443  1.6064  1.3995
  190SAPI  C31021939   2.706   0.227  18.203  0.2838 -0.0696  0.1599
  190SAPI  H10X21940   2.769   0.226  18.112  0.3148  0.0929  0.1789
  190SAPI  H10Y21941   2.627   0.305  18.192  1.2666  0.8547 -0.6240
  190SAPI  C31121942   2.636   0.093  18.200 -0.4448 -0.5332 -0.0377
  190SAPI  H11X21943   2.558   0.102  18.121 -0.6822 -0.9103  0.1537
  190SAPI  H11Y21944   2.604   0.070  18.304  0.7694  1.3058  0.7858
  190SAPI  C31221945   2.728  -0.010  18.144 -0.5784 -0.0910 -0.2294
  190SAPI  H12X21946   2.822  -0.012  18.205  1.2032  0.4865 -2.7782
  190SAPI  H12Y21947   2.770   0.021  18.046 -1.0288  2.3050  0.2755
  190SAPI  C31321948   2.672  -0.157  18.130 -0.2769 -0.5650  0.5469
  190SAPI  H13X21949   2.742  -0.221  18.073  0.1537  1.1124 -0.8964
  190SAPI  H13Y21950   2.586  -0.137  18.063  0.8730  0.2436 -0.7400
  190SAPI  C31421951   2.612  -0.226  18.256 -0.4634  0.3293 -0.4667
  190SAPI  H14X21952   2.519  -0.282  18.233 -1.5169  1.6889  0.3096
  190SAPI  H14Y21953   2.582  -0.159  18.339  0.0985 -0.7431  0.6406
  190SAPI  C31521954   2.699  -0.349  18.316  0.1952 -0.0270 -0.7397
  190SAPI  H15X21955   2.805  -0.323  18.335 -0.2362  2.2062 -1.1466
  190SAPI  H15Y21956   2.699  -0.440  18.253  1.4741 -1.3627  1.0676
  190SAPI  C31621957   2.632  -0.388  18.442  0.4464 -0.6240  0.4876
  190SAPI  H16X21958   2.522  -0.401  18.435  0.2028  1.4564 -0.2146
  190SAPI  H16Y21959   2.640  -0.298  18.508 -0.2490 -1.2007  1.3845
  190SAPI  C31721960   2.673  -0.518  18.507 -0.0790  0.3241 -0.7064
  190SAPI  H17X21961   2.784  -0.526  18.499  0.0386  0.9579  0.2071
  190SAPI  H17Y21962   2.640  -0.603  18.442  1.1418 -1.5334  0.9889
  190SAPI  C31821963   2.640  -0.551  18.659  0.2951  0.3358  0.0503
  190SAPI  H18X21964   2.660  -0.465  18.727  1.6599  0.3940 -0.4030
  190SAPI  H18Y21965   2.706  -0.632  18.696  0.7202  0.7460  0.2053
  190SAPI  H18Z21966   2.531  -0.575  18.666  0.4453 -0.1857  0.7759
  191SAPI   C1221967   1.961   3.426   9.804  0.5775  0.1775  0.9730
  191SAPI    H221968   2.003   3.375   9.715 -0.3686 -0.4501  0.8684
  191SAPI    O221969   2.083   3.466   9.859 -0.5364 -1.0283 -0.1134
  191SAPI   HO221970   2.138   3.503   9.790 -0.2165 -1.8437 -0.3025
  191SAPI   C1321971   1.860   3.539   9.769  0.0457 -0.2949  0.3465
  191SAPI    H321972   1.764   3.496   9.734 -0.8671  0.6561  1.5731
  191SAPI    O321973   1.919   3.626   9.664  0.4628  0.0269  0.0071
  191SAPI   HO321974   1.856   3.662   9.602  1.0772 -1.5890 -1.6403
  191SAPI   C1421975   1.836   3.620   9.898  0.5266  0.0607  0.1155
  191SAPI    H421976   1.935   3.661   9.928 -0.7999  1.1139  3.4311
  191SAPI    O421977   1.745   3.721   9.874  0.0501 -0.5019 -0.3820
  191SAPI   HO421978   1.739   3.769   9.956  0.9838 -1.8572  0.5214
  191SAPI   C1521979   1.795   3.536  10.017  0.1322 -0.3016 -0.4933
  191SAPI    H521980   1.684   3.531  10.016 -0.0991  2.8578 -0.9721
  191SAPI    O521981   1.836   3.601  10.146 -0.1475 -0.0998  0.5953
  191SAPI   HO521982   1.775   3.576  10.215 -1.1418 -0.2834 -0.3224
  191SAPI   C1621983   1.849   3.392  10.016  0.1838  0.4138 -0.3072
  191SAPI    H621984   1.943   3.394  10.076  0.7795 -0.3233 -1.1947
  191SAPI    O621985   1.761   3.305  10.091 -0.2167  0.3219 -0.5046
  191SAPI   HO621986   1.801   3.279  10.174 -2.8357 -0.9330  0.4713
  191SAPI   C1121987   1.892   3.324   9.891  0.4597 -0.0742  0.5484
  191SAPI    H121988   1.797   3.290   9.843 -0.3910  3.5658 -0.6312
  191SAPI     P21989   1.913   3.057   9.919 -0.2843 -0.1551  0.1813
  191SAPI   O1321990   1.775   3.044   9.863  0.3389  0.2092 -0.6025
  191SAPI   O1421991   1.932   3.026  10.057  0.3542  0.5579  0.6399
  191SAPI   O1221992   1.976   3.212   9.900 -0.4216  0.4429 -0.2241
  191SAPI   O1121993   2.023   2.964   9.840  0.2863  0.7581 -0.1056
  191SAPI    C121994   2.009   2.823   9.820  0.6404 -0.3534  0.0734
  191SAPI    HA21995   2.103   2.772   9.849 -0.1178 -0.8183  1.8786
  191SAPI    HB21996   1.914   2.791   9.867  0.2236  0.1848 -0.3799
  191SAPI    C221997   2.005   2.784   9.665 -0.7246 -0.0173 -0.4970
  191SAPI    HS21998   2.030   2.677   9.647  1.9350  0.5497 -0.6748
  191SAPI   O2121999   2.094   2.860   9.587  0.4979 -0.8266  0.0674
  191SAPI   C2122000   2.229   2.840   9.597 -0.2447 -0.0150  0.3343
  191SAPI   O2222001   2.285   2.758   9.670 -0.3595 -0.5641  0.3506
  191SAPI   C2222002   2.302   2.937   9.501 -0.6816  0.7796  0.4344
  191SAPI   H2R22003   2.406   2.927   9.538 -1.2017 -2.7275  1.3141
  191SAPI   H2S22004   2.284   2.906   9.396  0.6489  1.2501  0.0441
  191SAPI    C322005   1.867   2.817   9.610  0.2821  0.0872 -0.2345
  191SAPI    HX22006   1.856   2.784   9.504 -4.0514  1.6585 -0.4969
  191SAPI    HY22007   1.857   2.927   9.624 -0.1503 -0.1044  1.0545
  191SAPI   O3122008   1.775   2.743   9.688 -0.0601  0.3178  1.0319
  191SAPI   C3122009   1.654   2.796   9.692 -0.3155 -0.1441 -0.0393
  191SAPI   O3222010   1.616   2.887   9.626  0.3414 -0.2565 -0.1401
  191SAPI   C3222011   1.567   2.713   9.790  0.3734 -0.4158  0.6839
  191SAPI   H2X22012   1.554   2.770   9.884  1.3825 -0.1913  0.6912
  191SAPI   H2Y22013   1.613   2.614   9.809 -1.2757 -1.1017  1.3476
  191SAPI   C2322014   2.245   3.080   9.509  0.5828 -0.9105 -0.1486
  191SAPI   H3R22015   2.208   3.107   9.610 -1.1721  0.5792 -1.1418
  191SAPI   H3S22016   2.157   3.084   9.443  0.9089  0.6787 -0.5236
  191SAPI   C2422017   2.341   3.186   9.455 -0.0852  0.0576  0.2339
  191SAPI   H4R22018   2.278   3.275   9.433  0.2267  0.1258 -0.3995
  191SAPI   H4S22019   2.385   3.157   9.358 -0.1849  0.5207  0.0467
  191SAPI   C2522020   2.449   3.214   9.561 -0.6230  0.0769 -0.2922
  191SAPI   H5R22021   2.536   3.146   9.555 -0.1199  0.8201 -2.2162
  191SAPI   C2622022   2.457   3.318   9.645 -0.3382 -0.3234  0.6118
  191SAPI   H6R22023   2.543   3.316   9.713  1.1586  1.3727 -1.1466
  191SAPI   C2722024   2.353   3.425   9.680 -0.8104  0.3580  0.3141
  191SAPI   H7R22025   2.387   3.474   9.774  1.3067 -1.1768  0.4209
  191SAPI   H7S22026   2.260   3.376   9.716 -1.1950  1.0171  0.2321
  191SAPI   C2822027   2.314   3.523   9.583  0.2932  0.1269  0.4099
  191SAPI   H8R22028   2.287   3.491   9.480  1.0846  1.0410 -0.0934
  191SAPI   C2922029   2.303   3.652   9.616 -0.1343  0.2541  0.6353
  191SAPI   H9R22030   2.264   3.723   9.541 -1.4318 -0.8432  0.2335
  191SAPI  C21022031   2.325   3.725   9.744 -0.3644 -0.4278  0.1986
  191SAPI  H10R22032   2.412   3.791   9.726  0.4532 -1.7830 -1.1318
  191SAPI  H10S22033   2.367   3.649   9.815 -0.2282 -2.5491 -2.0137
  191SAPI  C21122034   2.203   3.801   9.789  0.1669  0.1290  0.0064
  191SAPI  H11R22035   2.105   3.770   9.750 -0.5054  2.3727 -0.2103
  191SAPI  C21222036   2.201   3.916   9.871 -0.2195  0.1292  0.0880
  191SAPI  H12R22037   2.106   3.971   9.877  0.4942  1.6381 -1.4264
  191SAPI  C21322038   2.319   3.985   9.936 -0.1447 -0.3867  0.6212
  191SAPI  H13R22039   2.413   3.928   9.921 -1.3738 -2.4147  0.1978
  191SAPI  H13S22040   2.300   3.995  10.045 -1.5667  1.0014  0.2720
  191SAPI  C21422041   2.338   4.126   9.885 -0.7010 -0.2365 -0.0204
  191SAPI  H14R22042   2.256   4.197   9.901  0.3402  1.3790 -1.5232
  191SAPI  C21522043   2.436   4.167   9.801 -0.6748 -0.2766  0.5724
  191SAPI  H15R22044   2.461   4.271   9.776 -2.0178 -0.6557 -2.8160
  191SAPI  C21622045   2.541   4.073   9.740  0.3382  0.5333  0.1013
  191SAPI  H16R22046   2.518   4.031   9.639 -1.0709  2.0256 -0.2329
  191SAPI  H16S22047   2.559   3.979   9.797  0.9597 -0.3709 -1.4980
  191SAPI  C21722048   2.678   4.144   9.717  0.5451 -0.9036 -0.3372
  191SAPI  H17R22049   2.727   4.165   9.815 -1.4085 -0.3419  0.5841
  191SAPI  H17S22050   2.677   4.230   9.647  0.3760 -0.7044 -0.0914
  191SAPI  C21822051   2.766   4.045   9.644 -0.4567  0.1511  0.5619
  191SAPI  H18R22052   2.721   4.005   9.551  2.9530 -0.5662 -0.9345
  191SAPI  H18S22053   2.789   3.956   9.707 -0.1575 -0.1150  0.0914
  191SAPI  C21922054   2.901   4.103   9.586 -0.2003  0.0682 -0.1754
  191SAPI  H19R22055   2.884   4.196   9.528 -1.9286 -0.5876 -0.7991
  191SAPI  H19S22056   2.944   4.026   9.518 -0.6532  0.3416 -0.7827
  191SAPI  C22022057   3.006   4.126   9.695 -0.6427 -0.4691  0.7910
  191SAPI  H20R22058   3.108   4.130   9.650 -1.2941 -1.3742 -0.8685
  191SAPI  H20S22059   2.996   4.043   9.768 -0.6230 -0.4978  0.7615
  191SAPI  H20T22060   2.968   4.216   9.748 -3.5996 -1.9451  1.3639
  191SAPI   C3322061   1.426   2.695   9.736  0.0872 -0.0531 -0.3680
  191SAPI   H3X22062   1.430   2.639   9.640  0.9745 -1.4145  0.4224
  191SAPI   H3Y22063   1.389   2.797   9.713  0.3375  0.3386  0.8934
  191SAPI   C3422064   1.337   2.613   9.831  0.4435  0.6265 -0.0811
  191SAPI   H4X22065   1.233   2.633   9.796 -0.5024  0.3780  2.3528
  191SAPI   H4Y22066   1.353   2.651   9.934 -1.4293 -1.1949  0.9644
  191SAPI   C3522067   1.372   2.461   9.842  0.0127 -0.3022 -0.5889
  191SAPI   H5X22068   1.363   2.428   9.948  0.1793 -3.1097 -1.3772
  191SAPI   H5Y22069   1.483   2.452   9.836  0.2119  0.3034  1.4289
  191SAPI   C3622070   1.294   2.365   9.752  0.3438 -0.1186 -0.6991
  191SAPI   H6X22071   1.346   2.377   9.655  0.9202 -0.3185 -0.4210
  191SAPI   H6Y22072   1.194   2.410   9.740 -0.6946 -1.5816  1.7160
  191SAPI   C3722073   1.289   2.216   9.793  0.8587  0.0117  0.1281
  191SAPI   H7X22074   1.270   2.220   9.902  2.7335  0.5631  0.4752
  191SAPI   H7Y22075   1.388   2.172   9.766  0.9191  0.5968 -0.6637
  191SAPI   C3822076   1.193   2.147   9.699 -0.5150  0.0421 -0.3155
  191SAPI   H8X22077   1.209   2.175   9.592 -2.9005 -0.3589 -0.8315
  191SAPI   H8Y22078   1.093   2.193   9.714 -0.8706 -0.4993 -0.9550
  191SAPI   C3922079   1.204   1.996   9.693  0.6719 -0.6206 -0.7252
  191SAPI   H9X22080   1.118   1.947   9.642  0.4281  1.2050 -2.1611
  191SAPI   H9Y22081   1.202   1.954   9.796  1.8627 -1.9704 -1.2077
  191SAPI  C31022082   1.339   1.950   9.628  0.1196  0.8042 -0.1949
  191SAPI  H10X22083   1.429   1.991   9.680  1.4660 -0.2617 -1.5870
  191SAPI  H10Y22084   1.347   2.000   9.529 -0.1914  1.0923 -0.0760
  191SAPI  C31122085   1.371   1.797   9.628 -0.6627  0.5892  0.6073
  191SAPI  H11X22086   1.367   1.755   9.731  1.1329 -0.2431  0.3741
  191SAPI  H11Y22087   1.472   1.762   9.595 -0.6744  1.4333 -0.3876
  191SAPI  C31222088   1.280   1.713   9.531 -0.4634  0.0687 -0.2338
  191SAPI  H12X22089   1.247   1.790   9.458  1.5959  1.1483 -0.0934
  191SAPI  H12Y22090   1.195   1.672   9.590 -0.0550  0.6624  0.7952
  191SAPI  C31322091   1.345   1.591   9.466 -0.1290 -0.3265  0.2497
  191SAPI  H13X22092   1.443   1.620   9.423 -1.3453  0.7085 -2.0504
  191SAPI  H13Y22093   1.285   1.554   9.379  2.2923  1.2742 -2.2817
  191SAPI  C31422094   1.371   1.471   9.564 -0.3907  0.3765  0.2817
  191SAPI  H14X22095   1.292   1.468   9.643  2.1452 -1.2967  2.9524
  191SAPI  H14Y22096   1.460   1.487   9.628  0.2415 -1.6198 -0.0373
  191SAPI  C31522097   1.387   1.329   9.496 -0.3539 -0.1604 -0.0732
  191SAPI  H15X22098   1.482   1.340   9.440  0.2184  0.5076  1.0137
  191SAPI  H15Y22099   1.300   1.299   9.432 -1.1126 -0.9934  1.3025
  191SAPI  C31622100   1.383   1.223   9.607  0.1883 -0.0732  0.0257
  191SAPI  H16X22101   1.391   1.130   9.547 -1.8749 -0.5186  0.3894
  191SAPI  H16Y22102   1.280   1.225   9.648 -0.8480  2.0332 -2.3584
  191SAPI  C31722103   1.500   1.226   9.702  0.3118 -0.6468  0.2168
  191SAPI  H17X22104   1.496   1.304   9.781 -1.5684  0.7790 -1.1956
  191SAPI  H17Y22105   1.596   1.246   9.650  2.3437 -0.0844  3.8446
  191SAPI  C31822106   1.534   1.091   9.764  0.6643  0.8837 -0.3705
  191SAPI  H18X22107   1.606   1.108   9.846 -0.5068  1.3361  0.5949
  191SAPI  H18Y22108   1.562   1.014   9.688 -2.1759 -0.0797 -0.5729
  191SAPI  H18Z22109   1.443   1.045   9.809 -0.3749  0.8144 -2.4224
  192SAPI   C1222110   1.987   0.109  14.164  0.6110 -0.0387 -0.3157
  192SAPI    H222111   1.943   0.206  14.194 -1.6829 -0.9499 -0.5102
  192SAPI    O222112   2.035   0.056  14.288  0.0554 -0.1931  0.2112
  192SAPI   HO222113   2.072   0.125  14.343 -0.6380  0.9954 -0.7546
  192SAPI   C1322114   1.868   0.041  14.104  0.7959  0.2817  0.1480
  192SAPI    H322115   1.842   0.086  14.005  0.1391 -0.7533 -0.1648
  192SAPI    O322116   1.750   0.050  14.182  0.0245  0.2299 -0.1457
  192SAPI   HO322117   1.688   0.118  14.154 -1.8631 -1.0485  0.6719
  192SAPI   C1422118   1.892  -0.109  14.067 -0.4750  0.0969 -0.4862
  192SAPI    H422119   1.902  -0.155  14.167 -0.1628  1.8258  0.3004
  192SAPI    O422120   1.776  -0.186  14.013 -0.5905  0.7843  0.1787
  192SAPI   HO422121   1.716  -0.200  14.087  0.1094  1.4958  0.8876
  192SAPI   C1522122   2.026  -0.133  13.994 -0.1705  0.4414  1.0489
  192SAPI    H522123   1.988  -0.108  13.893 -1.8387 -1.2940  1.1803
  192SAPI    O522124   2.060  -0.272  13.993 -0.1994  0.0285 -0.1185
  192SAPI   HO522125   2.118  -0.284  14.068 -0.4191 -0.3578 -0.0117
  192SAPI   C1622126   2.141  -0.027  14.014  0.7280 -0.5975 -0.4241
  192SAPI    H622127   2.188  -0.047  14.113 -3.3598 -0.3589  1.7916
  192SAPI    O622128   2.222  -0.018  13.903  0.3651  0.3671  0.3163
  192SAPI   HO622129   2.264   0.069  13.904  1.3103 -0.0792  0.0544
  192SAPI   C1122130   2.086   0.109  14.057  0.3301  0.1869 -0.4877
  192SAPI    H122131   2.043   0.146  13.961  0.6375 -0.9149 -1.0791
  192SAPI     P22132   2.219   0.356  14.041 -0.1285  0.0122  0.0195
  192SAPI   O1322133   2.219   0.344  13.895  0.3102  0.0519  0.0026
  192SAPI   O1422134   2.348   0.404  14.099 -0.2612  0.8347 -0.3317
  192SAPI   O1222135   2.192   0.199  14.103  0.2902  0.4599 -0.1977
  192SAPI   O1122136   2.093   0.435  14.092 -0.6354 -0.1954  0.7285
  192SAPI    C122137   2.059   0.448  14.227  0.6859  0.1731  0.2710
  192SAPI    HA22138   1.950   0.423  14.230 -0.0107  2.8901  0.2872
  192SAPI    HB22139   2.111   0.378  14.297  0.5004 -0.1731  0.0684
  192SAPI    C222140   2.079   0.593  14.283  0.6638  0.6040 -0.3482
  192SAPI    HS22141   2.050   0.580  14.390  1.9744 -4.5213 -0.3587
  192SAPI   O2122142   2.007   0.692  14.216  0.0505 -0.6888 -0.2166
  192SAPI   C2122143   1.876   0.684  14.223 -0.5130  0.3708 -0.2089
  192SAPI   O2222144   1.820   0.598  14.284 -0.0694  0.2999  0.1905
  192SAPI   C2222145   1.805   0.799  14.152 -0.0929  0.1635 -0.5310
  192SAPI   H2R22146   1.871   0.885  14.178  0.5880 -0.1101 -1.3283
  192SAPI   H2S22147   1.823   0.786  14.043  0.6604 -1.0226 -0.2925
  192SAPI    C322148   2.229   0.623  14.302 -0.2137 -0.0648 -0.5698
  192SAPI    HX22149   2.286   0.610  14.208 -1.7934  0.9527 -1.7428
  192SAPI    HY22150   2.266   0.549  14.375  0.5060  1.4973  0.7104
  192SAPI   O3122151   2.262   0.756  14.339  0.4854 -0.2441 -0.6071
  192SAPI   C3122152   2.234   0.790  14.460 -0.1030  0.5579 -0.5126
  192SAPI   O3222153   2.175   0.721  14.537 -0.7447  0.1262 -0.2519
  192SAPI   C3222154   2.282   0.941  14.488 -0.1610 -0.0146  1.4790
  192SAPI   H2X22155   2.211   1.001  14.427  0.6244  0.0933  0.6589
  192SAPI   H2Y22156   2.383   0.942  14.444 -0.2074  0.1153  1.3736
  192SAPI   C2322157   1.659   0.825  14.196 -0.1216  0.9046  0.2259
  192SAPI   H3R22158   1.653   0.862  14.301 -0.9890 -2.4583  1.5182
  192SAPI   H3S22159   1.590   0.738  14.188  1.1587  0.0147 -2.0116
  192SAPI   C2422160   1.599   0.934  14.107  0.1097  0.2779 -0.9210
  192SAPI   H4R22161   1.621   0.913  14.000 -0.1645  0.7229 -1.0635
  192SAPI   H4S22162   1.647   1.029  14.139 -2.0671  1.0864  0.1037
  192SAPI   C2522163   1.445   0.946  14.103  0.7016 -0.1284  0.5447
  192SAPI   H5R22164   1.392   0.867  14.049 -1.5594  1.1156  0.8352
  192SAPI   C2622165   1.360   1.044  14.141  0.2008 -1.0978  0.0348
  192SAPI   H6R22166   1.251   1.034  14.127  0.4203 -1.1333 -2.0069
  192SAPI   C2722167   1.399   1.157  14.234  0.3133  0.0733 -0.0835
  192SAPI   H7R22168   1.338   1.248  14.213  2.7653  1.6920 -0.5248
  192SAPI   H7S22169   1.502   1.184  14.203  0.5646 -0.0492  0.6165
  192SAPI   C2822170   1.396   1.126  14.384 -0.1449 -0.1648 -0.5007
  192SAPI   H8R22171   1.476   1.061  14.423 -0.2662  0.1545  0.2872
  192SAPI   C2922172   1.307   1.176  14.465  0.4835  0.4977  0.2296
  192SAPI   H9R22173   1.315   1.150  14.571 -0.4286  4.2485  1.3470
  192SAPI  C21022174   1.184   1.251  14.429  0.0076  0.3464  0.1055
  192SAPI  H10R22175   1.145   1.237  14.326 -0.0500 -1.1827  0.3133
  192SAPI  H10S22176   1.192   1.361  14.420 -1.3035  0.4292 -0.2679
  192SAPI  C21122177   1.062   1.218  14.521 -0.8518 -0.3819  0.5169
  192SAPI  H11R22178   1.072   1.128  14.583  0.0079 -0.9094 -0.3561
  192SAPI  C21222179   0.957   1.297  14.552  0.0831  0.8521  0.1838
  192SAPI  H12R22180   0.879   1.245  14.609  1.6049 -1.5888  0.1674
  192SAPI  C21322181   0.919   1.436  14.520 -0.7690  0.3383  0.8750
  192SAPI  H13R22182   0.834   1.442  14.449  0.2875  1.4208 -0.3477
  192SAPI  H13S22183   1.003   1.475  14.458 -1.5890 -1.5415 -1.5697
  192SAPI  C21422184   0.880   1.521  14.637 -0.1560 -0.6101  0.1775
  192SAPI  H14R22185   0.774   1.518  14.668  0.4929  2.5890  3.4204
  192SAPI  C21522186   0.962   1.598  14.711  0.3116 -0.1245 -1.0077
  192SAPI  H15R22187   0.926   1.660  14.794  0.6821 -2.3306  0.9131
  192SAPI  C21622188   1.107   1.605  14.685 -0.7546 -0.4766 -0.6642
  192SAPI  H16R22189   1.154   1.514  14.642  0.5057 -0.5379  0.7636
  192SAPI  H16S22190   1.161   1.621  14.781  0.9309  0.4244 -1.7134
  192SAPI  C21722191   1.132   1.722  14.583  0.0845  0.4430 -0.4312
  192SAPI  H17R22192   1.091   1.814  14.630  0.5474  0.4910 -0.1187
  192SAPI  H17S22193   1.080   1.696  14.488  0.0027  1.7497 -0.7546
  192SAPI  C21822194   1.279   1.756  14.547  0.2092  0.8803  0.1304
  192SAPI  H18R22195   1.349   1.771  14.632  1.9197 -1.3912 -0.7872
  192SAPI  H18S22196   1.283   1.851  14.489  2.8524  0.6359 -0.2142
  192SAPI  C21922197   1.331   1.634  14.463 -0.0394 -0.6246 -0.4904
  192SAPI  H19R22198   1.261   1.623  14.377 -3.0314  0.1046  1.6665
  192SAPI  H19S22199   1.326   1.550  14.535  1.0297  0.8580  1.3864
  192SAPI  C22022200   1.473   1.646  14.421 -0.1396  0.1565  0.2585
  192SAPI  H20R22201   1.480   1.723  14.342 -1.9731 -1.9680 -2.1635
  192SAPI  H20S22202   1.502   1.550  14.374  4.0602  1.5370 -0.3233
  192SAPI  H20T22203   1.549   1.658  14.501  1.3332 -0.0651 -1.0746
  192SAPI   C3322204   2.271   0.973  14.638 -0.1964 -0.2546 -0.4798
  192SAPI   H3X22205   2.360   0.934  14.693 -0.6626 -0.1909  0.3320
  192SAPI   H3Y22206   2.196   0.903  14.682  0.7148 -0.6566  0.4947
  192SAPI   C3422207   2.233   1.118  14.661 -0.7707 -0.0457 -0.3091
  192SAPI   H4X22208   2.218   1.138  14.769 -0.1511  0.0294 -0.2390
  192SAPI   H4Y22209   2.143   1.149  14.602 -3.0052 -1.9190  1.8630
  192SAPI   C3522210   2.345   1.216  14.613  0.0847 -0.3639 -0.1726
  192SAPI   H5X22211   2.289   1.311  14.605 -2.0225 -1.6567 -2.1252
  192SAPI   H5Y22212   2.379   1.204  14.508 -3.6882  1.9896 -1.8782
  192SAPI   C3622213   2.465   1.227  14.705  0.1058  0.3896 -0.5420
  192SAPI   H6X22214   2.491   1.126  14.743 -1.1004 -0.4742 -1.9251
  192SAPI   H6Y22215   2.451   1.291  14.795  3.2649 -0.4087  0.6533
  192SAPI   C3722216   2.591   1.273  14.622 -0.4647 -0.3773  0.3730
  192SAPI   H7X22217   2.565   1.371  14.577 -1.6235 -0.8003  0.0985
  192SAPI   H7Y22218   2.593   1.212  14.529 -1.7366  2.1986 -1.4731
  192SAPI   C3822219   2.721   1.272  14.701  0.6553 -0.2626 -0.2437
  192SAPI   H8X22220   2.742   1.182  14.763  1.6620  0.1143 -0.0150
  192SAPI   H8Y22221   2.717   1.357  14.773  1.5386 -0.0468 -0.4422
  192SAPI   C3922222   2.842   1.278  14.614 -0.2911  0.7011  0.6305
  192SAPI   H9X22223   2.850   1.381  14.574 -3.0391  1.0482  0.7739
  192SAPI   H9Y22224   2.824   1.214  14.525  1.2295 -0.2446  0.9614
  192SAPI  C31022225   2.973   1.227  14.692  0.4692 -0.2564  0.1221
  192SAPI  H10X22226   2.949   1.130  14.741  0.7004 -0.0112  0.7240
  192SAPI  H10Y22227   2.988   1.300  14.774  0.1187  3.0099 -2.5210
  192SAPI  C31122228   3.097   1.201  14.611 -0.8015 -0.2764  0.0415
  192SAPI  H11X22229   3.109   1.278  14.533  0.4100 -1.6252 -1.1538
  192SAPI  H11Y22230   3.082   1.105  14.557 -0.4070 -2.2722  3.1534
  192SAPI  C31222231   3.231   1.195  14.682  0.6110  0.2417 -0.7413
  192SAPI  H12X22232   3.268   1.297  14.705 -2.0592  0.9066  1.1292
  192SAPI  H12Y22233   3.305   1.151  14.612  3.0777  0.4724  1.6072
  192SAPI  C31322234   3.226   1.107  14.810  0.6127  0.0500  0.2601
  192SAPI  H13X22235   3.170   1.017  14.775 -0.5503  1.5096 -1.8095
  192SAPI  H13Y22236   3.171   1.156  14.893  1.2181  0.2705  0.5346
  192SAPI  C31422237   3.367   1.049  14.862 -0.3279 -0.1573  0.9276
  192SAPI  H14X22238   3.419   1.006  14.774  0.3471  0.2319  1.1282
  192SAPI  H14Y22239   3.351   0.970  14.938 -0.7065  0.5955  1.6470
  192SAPI  C31522240   3.460   1.152  14.928  0.2830 -0.5399 -0.4539
  192SAPI  H15X22241   3.411   1.184  15.023 -1.6821  0.0649 -1.6182
  192SAPI  H15Y22242   3.457   1.238  14.858  2.3785 -1.4127 -1.7077
  192SAPI  C31622243   3.601   1.100  14.949  0.0893  0.0366  0.3494
  192SAPI  H16X22244   3.641   1.079  14.848 -0.6758 -1.7206  0.3825
  192SAPI  H16Y22245   3.589   1.010  15.013  1.1891  0.7522  1.6366
  192SAPI  C31722246   3.695   1.210  15.012  0.1782 -0.0259 -0.2766
  192SAPI  H17X22247   3.705   1.298  14.945  2.9201 -0.8440 -1.0741
  192SAPI  H17Y22248   3.795   1.161  15.020 -0.0468 -0.4526 -0.0126
  192SAPI  C31822249   3.639   1.248  15.154 -0.6415 -0.3171  0.2026
  192SAPI  H18X22250   3.548   1.309  15.137 -1.4561 -1.6908 -0.5733
  192SAPI  H18Y22251   3.707   1.323  15.200  0.7500  0.7952 -3.3275
  192SAPI  H18Z22252   3.620   1.168  15.230  1.4225 -1.1259 -0.0886
  193SOD    SOD22253   1.476   0.093  11.408  0.4751 -0.2720 -0.1762
  194SOD    SOD22254   1.611   1.913   5.223 -0.0150 -0.4475  0.3823
  195SOD    SOD22255   1.080   1.911  27.442 -0.1206  0.0485 -0.3395
  196SOD    SOD22256   2.288   2.122   6.909 -0.4477 -0.0648 -0.5713
  197SOD    SOD22257   1.670   1.286   2.052 -0.1164  0.3376 -0.4139
  198SOD    SOD22258   0.456   1.887  19.073  0.2938  0.4630  0.1820
  199SOD    SOD22259   2.947   0.661   3.998  0.0300  0.2293 -0.0647
  200SOD    SOD22260   3.362   1.735  20.827 -0.6335 -0.2169  0.1318
  201SOD    SOD22261   2.762   0.169  28.804  0.1701  0.0086 -0.1087
  202SOD    SOD22262   2.538   2.411  21.827  0.1380  0.2877 -0.1032
  203SOD    SOD22263   0.452   3.225  11.659 -0.3766 -0.3799  0.3184
  204SOD    SOD22264   1.484   1.050   4.984 -0.0308 -0.1616  0.0335
  205SOD    SOD22265   0.165   1.658   6.684 -0.2541  0.0957 -0.0497
  206SOD    SOD22266   1.721   3.515   1.575  0.3129 -0.3484  0.0055
  207SOD    SOD22267   2.378   3.177  30.588  0.3481  0.5406 -0.1999
  208SOD    SOD22268   1.562   0.303   7.367 -0.1857 -0.0246 -0.3606
  209SOD    SOD22269   0.001   1.536  23.002  0.2605 -0.1063  0.1778
  210SOD    SOD22270   2.894   2.607  30.981 -0.3958 -0.3867  0.2922
  211SOD    SOD22271   2.152   1.298  20.056  0.3980  0.2014 -0.0616
  212SOD    SOD22272   0.154   1.033   5.696 -0.0900 -0.0530 -0.6893
  213SOD    SOD22273   3.345   2.751   2.511 -0.2139  0.2258  0.5818
  214SOD    SOD22274   1.142   1.629  21.552 -0.3285  0.4090 -0.4077
  215SOD    SOD22275   2.556   1.752  28.164  0.5345  0.2644  0.0871
  216SOD    SOD22276   0.149   0.913   1.831 -0.1126  0.6329 -0.7547
  217SOD    SOD22277   0.204   3.491   7.233  0.5604  0.0583  0.1146
  218SOD    SOD22278   0.473   1.835  22.472  0.4914 -0.0288  0.1301
  219SOD    SOD22279   0.882   3.391  14.527 -0.1348  0.1697 -0.4247
  220SOD    SOD22280   1.180   3.083  30.017 -0.3077 -0.2762  0.2179
  221SOD    SOD22281   2.490   1.669   7.183  0.1980  0.3638  0.1089
  222SOD    SOD22282   2.584   1.627  17.485  0.4715 -0.4488  0.6727
  223SOD    SOD22283   1.734   2.658   2.837 -0.2513 -0.1730 -0.0811
  224SOD    SOD22284   2.531   0.895  19.164  0.0329 -0.3292  0.6449
  225SOD    SOD22285   1.091   1.848   5.882 -0.0788 -0.3595  0.5880
  226SOD    SOD22286   1.595   0.116  12.827 -0.2400  0.1404 -0.0022
  227SOD    SOD22287   1.807   3.119  10.485 -0.2212  0.0561  0.0736
  228SOD    SOD22288   1.861   3.498  32.450  0.3872  0.1380 -0.2115
  229SOD    SOD22289   1.126   0.090   6.550  0.2043  0.0302  0.0448
  230SOD    SOD22290   1.581   3.155  12.304  0.5039 -0.1340 -0.5066
  231SOD    SOD22291   1.670   0.194  15.326 -0.4952 -0.1133 -0.1731
  232SOD    SOD22292   2.444   0.450   3.710  0.0479  0.1357  0.6415
  233SOD    SOD22293   2.916   2.095  18.649 -0.1812  0.3759  0.0183
  234CLA    CLA22294   3.457   0.125   2.818 -0.0183  0.2721  0.6107
  235CLA    CLA22295   1.457   3.341   3.021  0.2776 -0.2755 -0.0969
  236CLA    CLA22296   3.346   0.570  32.188 -0.1777 -0.1682  0.1236
  237CLA    CLA22297   2.153   3.487   4.694 -0.1571 -0.1709 -0.2467
  238CLA    CLA22298   1.419   2.520  31.025 -0.1648 -0.0110 -0.0949
  239CLA    CLA22299   2.065   1.875   3.919 -0.2435 -0.2700  0.4955
  240CLA    CLA22300   1.130   1.476   6.674 -0.1396 -0.4331  0.2973
  241CLA    CLA22301   3.170   3.406  27.808 -0.1212  0.0384  0.1162
  242CLA    CLA22302   0.312   3.485   1.891  0.2373 -0.1307 -0.0340
  243CLA    CLA22303   1.745   0.472   0.097  0.2329  0.0297 -0.0299
  244CLA    CLA22304   2.819   1.663   2.947 -0.3751 -0.1894 -0.0544
  245CLA    CLA22305   2.078   3.206   1.977 -0.1147  0.1955 -0.0418
  246CLA    CLA22306   3.080   0.222   5.866 -0.0823  0.1438 -0.6449
  247CLA    CLA22307   2.290   1.333  31.691 -0.1776 -0.0740  0.4354
  248CLA    CLA22308   2.686   1.714  31.692 -0.1129 -0.1418  0.3349
  249CLA    CLA22309   1.339   0.089  31.713 -0.2481 -0.1143 -0.0628
  250CLA    CLA22310   1.138   0.645   4.424  0.4713 -0.2443 -0.0985
  251TIP3   OH222311   0.036   0.092  28.552  0.1350 -0.4980 -0.4562
  251TIP3    H122312   0.124   0.054  28.554  0.6790  0.7247  0.5440
  251TIP3    H222313   0.039   0.154  28.479  0.9807  1.3864  1.0732
  252TIP3   OH222314   1.083   2.263  27.782  0.4206 -0.5850  0.0428
  252TIP3    H122315   1.002   2.225  27.748  0.3724  0.2013 -0.7530
  252TIP3    H222316   1.060   2.294  27.869 -0.4905  0.7309 -0.6331
  253TIP3   OH222317   2.245   0.942  32.779  0.1693 -0.6249  0.4484
  253TIP3    H122318   2.339   0.947  32.766 -0.0439  1.0014 -0.8779
  253TIP3    H222319   2.233   0.958  32.872  1.1841 -0.3728  0.5511
  254TIP3   OH222320   0.045   0.801  28.218  0.0015 -0.4396  0.6460
  254TIP3    H122321  -0.044   0.832  28.235 -0.1618  0.1650 -1.0818
  254TIP3    H222322   0.043   0.774  28.127  0.6863 -3.8341  1.5328
  255TIP3   OH222323   2.213   0.904   6.747 -0.3174 -0.0837  0.0319
  255TIP3    H122324   2.129   0.884   6.788  0.4669  1.0389  2.3886
  255TIP3    H222325   2.274   0.842   6.786  0.4649  1.0101  0.6039
  256TIP3   OH222326   0.770   1.951   3.752  0.2019 -0.8501  0.2191
  256TIP3    H122327   0.789   2.006   3.676  2.2844 -0.6304  0.8362
  256TIP3    H222328   0.697   1.994   3.796  1.4711  1.2158  0.4272
  257TIP3   OH222329   1.632   1.687  32.173  0.4617  0.0851  0.5260
  257TIP3    H122330   1.598   1.672  32.262  0.9828 -3.0109  0.2800
  257TIP3    H222331   1.726   1.676  32.181  0.5334 -0.0102 -0.3938
  258TIP3   OH222332   1.719   0.276   2.162 -0.5572  0.0508  0.5093
  258TIP3    H122333   1.807   0.308   2.181 -0.8418  2.2682 -1.5900
  258TIP3    H222334   1.730   0.216   2.088 -0.6966 -0.5595  0.9730
  259TIP3   OH222335   0.736   2.959  31.523  0.1157  0.0897  0.1025
  259TIP3    H122336   0.686   2.918  31.594  0.6733  1.1540  1.1508
  259TIP3    H222337   0.690   2.934  31.444 -0.6897 -0.9146  0.8567
  260TIP3   OH222338   1.293   2.259   0.656  0.4769 -0.2665 -0.7278
  260TIP3    H122339   1.230   2.209   0.707 -0.6817  2.4505  0.7168
  260TIP3    H222340   1.355   2.194   0.624 -0.3680 -2.4986  1.7871
  261TIP3   OH222341   1.964   2.750  27.439 -0.4914  0.8484  0.1000
  261TIP3    H122342   1.966   2.750  27.534  0.0167 -0.2737  0.0999
  261TIP3    H222343   2.009   2.831  27.414  1.5777 -0.0413  0.8022
  262TIP3   OH222344   0.563   1.480  21.013  0.1347 -0.0142 -0.4164
  262TIP3    H122345   0.632   1.522  20.962 -0.0308 -0.8660 -1.3679
  262TIP3    H222346   0.496   1.456  20.949 -0.8761  0.4372  0.4362
  263TIP3   OH222347   1.802   2.585  31.328  0.8810  0.0524  0.6140
  263TIP3    H122348   1.851   2.560  31.250  0.4477  1.4438 -0.1329
  263TIP3    H222349   1.740   2.514  31.342  2.3736 -1.2328  0.9614
  264TIP3   OH222350   0.983   2.046   5.837  0.4026  0.0604  0.7209
  264TIP3    H122351   0.913   2.056   5.773  0.5097 -1.9227  0.2247
  264TIP3    H222352   0.960   2.106   5.907 -2.6007 -1.4652  1.2266
  265TIP3   OH222353   0.879   0.132   4.095 -0.0502  0.0568  0.4729
  265TIP3    H122354   0.845   0.150   4.007 -0.6608  0.1628  0.7227
  265TIP3    H222355   0.800   0.127   4.150  0.3139 -0.2243  0.9729
  266TIP3   OH222356   0.026   3.385  32.239 -0.0028 -0.1742 -0.0603
  266TIP3    H122357  -0.021   3.459  32.278 -0.8297 -1.9418  2.5368
  266TIP3    H222358  -0.039   3.315  32.235  0.9582 -1.0339 -1.7535
  267TIP3   OH222359   1.334   3.073  30.694 -0.6070  0.0865  0.1730
  267TIP3    H122360   1.414   3.116  30.663 -0.1841 -0.2226  0.7937
  267TIP3    H222361   1.312   3.010  30.625 -0.0875 -0.0947  0.1666
  268TIP3   OH222362   1.143   0.174   1.521  0.0982  0.0060 -0.5167
  268TIP3    H122363   1.093   0.149   1.443 -0.0175  1.5078 -0.9496
  268TIP3    H222364   1.102   0.125   1.592 -1.3272  0.3911 -1.0307
  269TIP3   OH222365   1.063   3.224  26.867 -0.1430  0.4178  0.2006
  269TIP3    H122366   1.120   3.296  26.838  0.8444 -0.2844  0.3475
  269TIP3    H222367   1.026   3.255  26.950  2.2068 -0.1817  1.5613
  270TIP3   OH222368   1.534   0.324   0.477 -0.2426  0.0492  0.3682
  270TIP3    H122369   1.591   0.263   0.431 -3.5019 -1.8478 -1.4972
  270TIP3    H222370   1.519   0.395   0.414 -0.3777  0.2652  0.6418
  271TIP3   OH222371   0.250   0.115  31.688  0.4540 -0.7429 -0.5395
  271TIP3    H122372   0.264   0.026  31.718 -1.7613 -1.6240 -1.9116
  271TIP3    H222373   0.165   0.140  31.724  0.8349  0.6926 -0.5401
  272TIP3   OH222374   2.145   2.597  22.410 -0.2965  0.4536 -0.1178
  272TIP3    H122375   2.057   2.608  22.445 -0.7317  0.2099 -1.0933
  272TIP3    H222376   2.186   2.683  22.419 -1.2843  1.0934 -1.3439
  273TIP3   OH222377   2.297   2.849  32.071 -0.1715 -0.6922  0.1402
  273TIP3    H122378   2.355   2.879  32.001 -2.3078  1.4330 -0.8222
  273TIP3    H222379   2.280   2.757  32.050  3.3342 -1.6656  0.8964
  274TIP3   OH222380   2.385   2.389  29.789 -0.6648 -0.3316  0.3218
  274TIP3    H122381   2.455   2.371  29.852 -0.3250 -0.6615 -0.1428
  274TIP3    H222382   2.370   2.305  29.746 -0.8240 -0.0850 -0.1024
  275TIP3   OH222383   2.177   2.733  30.015  0.6865 -0.3241 -0.6207
  275TIP3    H122384   2.141   2.661  29.962  1.1615 -0.1034 -1.2598
  275TIP3    H222385   2.235   2.780  29.955 -1.2014  1.8743 -0.8889
  276TIP3   OH222386   3.446   2.072  31.124 -0.0745 -0.1126  0.0644
  276TIP3    H122387   3.450   2.120  31.207 -0.3805 -0.6134  0.3710
  276TIP3    H222388   3.493   1.990  31.142 -1.0345 -0.6753  0.0576
  277TIP3   OH222389   0.649   2.663  28.204  0.2098  0.4048 -0.0834
  277TIP3    H122390   0.681   2.573  28.198 -1.7485 -0.3406 -0.1058
  277TIP3    H222391   0.570   2.657  28.257 -0.4606  1.9622 -0.8393
  278TIP3   OH222392   1.237   3.491   6.398  0.4984  0.0420 -0.6581
  278TIP3    H122393   1.231   3.462   6.307  1.2408 -0.1626 -0.6491
  278TIP3    H222394   1.315   3.447   6.432 -1.6651 -2.6844  1.1287
  279TIP3   OH222395   3.226   3.050  28.919  0.2948  0.2406  0.1286
  279TIP3    H122396   3.239   3.143  28.901  0.1893  0.2994  0.3479
  279TIP3    H222397   3.281   3.005  28.855 -1.7690  0.3761 -1.8608
  280TIP3   OH222398   2.844   2.913  28.036 -0.7460  0.7616  0.0194
  280TIP3    H122399   2.768   2.856  28.041  1.4622 -2.4111  0.0594
  280TIP3    H222400   2.891   2.884  27.957  0.6452  2.3262  0.2075
  281TIP3   OH222401   0.998   2.559  11.811  0.0220  0.0926  0.0477
  281TIP3    H122402   0.998   2.576  11.716 -0.1940 -0.0337  0.0249
  281TIP3    H222403   1.091   2.560  11.835  0.0174  2.0336  0.1784
  282TIP3   OH222404   2.253   2.142  28.723  0.3706 -0.0706  0.2960
  282TIP3    H122405   2.233   2.074  28.788 -0.1197  0.1014  0.3279
  282TIP3    H222406   2.170   2.186  28.708  0.2380 -0.8281 -1.3023
  283TIP3   OH222407   0.935   2.534  29.870  0.2370 -0.5253 -0.3886
  283TIP3    H122408   0.945   2.551  29.776 -0.2020 -0.3072 -0.3984
  283TIP3    H222409   1.014   2.486  29.894  0.1122 -1.0499 -0.9777
  284TIP3   OH222410   1.274   3.054  14.614  0.1806 -0.2552 -0.0609
  284TIP3    H122411   1.270   2.978  14.673  0.7777 -0.0453  0.2533
  284TIP3    H222412   1.367   3.072  14.605  0.0951 -0.2566 -1.0466
  285TIP3   OH222413   0.911   1.748   5.779  0.9042  0.0576 -0.2668
  285TIP3    H122414   0.834   1.702   5.812 -0.4873  0.6623 -2.4622
  285TIP3    H222415   0.944   1.693   5.709  1.0581  0.9224 -0.8949
  286TIP3   OH222416   0.061   1.420  30.660  0.7659 -0.1660 -0.0019
  286TIP3    H122417   0.017   1.504  30.649 -0.3990 -0.5407  1.5936
  286TIP3    H222418   0.154   1.443  30.668  0.5325  0.9042 -0.1982
  287TIP3   OH222419   2.697   0.442   5.762 -0.3112  0.2061  0.0530
  287TIP3    H122420   2.604   0.423   5.765 -0.4732  0.5857 -1.5100
  287TIP3    H222421   2.715   0.492   5.841 -1.4114  0.0494  0.4121
  288TIP3   OH222422   1.871   1.299  26.250  0.0358 -0.1912  0.7152
  288TIP3    H122423   1.787   1.280  26.292  0.6970  2.0927  3.2957
  288TIP3    H222424   1.887   1.223  26.194 -1.9322 -2.4600  3.0114
  289TIP3   OH222425   2.713   0.837  32.161  0.2396 -0.1022 -0.0431
  289TIP3    H122426   2.624   0.803  32.149  0.1784 -0.4510  1.2916
  289TIP3    H222427   2.768   0.759  32.169  0.3611  0.0861  1.1540
  290TIP3   OH222428   3.233   0.359   6.188 -0.3490  0.1341 -0.3526
  290TIP3    H122429   3.238   0.313   6.272  0.8843  1.1346  0.1556
  290TIP3    H222430   3.302   0.425   6.193 -0.8290  0.7817 -1.8196
  291TIP3   OH222431   3.421   2.022   0.283  0.8773 -0.1132 -0.1983
  291TIP3    H122432   3.486   2.083   0.318  0.2666  0.8936 -0.7784
  291TIP3    H222433   3.431   2.029   0.188 -0.9945  1.1147 -0.3596
  292TIP3   OH222434   1.495   0.917  32.403 -0.0810 -0.0631 -0.2191
  292TIP3    H122435   1.513   0.988  32.465 -0.6055 -0.0858 -0.0360
  292TIP3    H222436   1.418   0.873  32.438 -0.6351  0.1730 -1.0983
  293TIP3   OH222437   1.934   3.283  10.580  0.4880  0.6732  0.0864
  293TIP3    H122438   1.906   3.312  10.667  1.1906  1.1922  0.1526
  293TIP3    H222439   2.028   3.300  10.579  0.4764  0.7207 -0.7984
  294TIP3   OH222440   2.453   1.288  27.549  0.0174  0.1934 -0.2786
  294TIP3    H122441   2.514   1.291  27.622  0.6881 -0.9769 -0.7610
  294TIP3    H222442   2.429   1.196  27.541 -1.2508  0.5217 -0.5710
  295TIP3   OH222443   2.258   2.400  11.671 -0.0672  0.4390  0.0826
  295TIP3    H122444   2.249   2.371  11.762 -1.4704  0.1857 -0.1104
  295TIP3    H222445   2.243   2.494  11.674  0.2573  0.4871  0.1657
  296TIP3   OH222446   0.704   0.483   2.255 -0.1719 -0.5782  0.3069
  296TIP3    H122447   0.748   0.411   2.210 -1.6676 -0.7038 -1.0792
  296TIP3    H222448   0.740   0.562   2.214  0.9821 -0.5316  1.3603
  297TIP3   OH222449   0.209   1.709  28.997  0.4810  0.4470 -0.0965
  297TIP3    H122450   0.225   1.683  28.906  2.5735  3.0897 -0.6300
  297TIP3    H222451   0.128   1.759  28.994  0.2185  0.0136 -0.3732
  298TIP3   OH222452   3.306   2.166  29.527 -0.0400  0.0995  0.4134
  298TIP3    H122453   3.266   2.230  29.585 -3.5452 -0.0472 -1.5627
  298TIP3    H222454   3.283   2.081  29.564 -0.5935  0.0171 -0.0963
  299TIP3   OH222455   0.167   3.355  27.816 -0.2986 -0.2887 -0.0009
  299TIP3    H122456   0.097   3.403  27.772  0.6653  1.3212  0.1756
  299TIP3    H222457   0.181   3.278  27.760 -0.9049  0.3379 -1.0538
  300TIP3   OH222458   0.601   0.762   2.689 -0.4911 -0.5099 -0.2946
  300TIP3    H122459   0.623   0.826   2.622 -0.7185  0.9837  1.0005
  300TIP3    H222460   0.513   0.732   2.665 -0.8378  0.4971 -0.3193
  301TIP3   OH222461   2.266   0.705   3.068  0.5559 -0.2121  0.2215
  301TIP3    H122462   2.265   0.724   2.974 -1.3491 -1.9093 -0.1613
  301TIP3    H222463   2.359   0.697   3.089  1.1578  2.2610 -1.0113
  302TIP3   OH222464   1.065   2.941  29.848  0.4672 -0.4044  0.0799
  302TIP3    H122465   0.975   2.906  29.847 -0.5103  1.9329 -0.4762
  302TIP3    H222466   1.120   2.863  29.841 -1.5165 -1.9089  0.0687
  303TIP3   OH222467   2.231   2.133   1.460  0.2268  0.6870  0.1932
  303TIP3    H122468   2.180   2.208   1.431  0.7707  0.7297 -0.6849
  303TIP3    H222469   2.320   2.167   1.472  0.8178 -0.0773 -1.6112
  304TIP3   OH222470   1.174   2.358  26.210 -0.2695 -0.3615 -0.3462
  304TIP3    H122471   1.220   2.423  26.156 -0.7468 -0.3301 -0.7233
  304TIP3    H222472   1.138   2.296  26.147  1.0918 -1.6269  0.0620
  305TIP3   OH222473   0.988   3.002  31.379 -0.1315  0.1733 -0.6207
  305TIP3    H122474   0.976   3.091  31.346  0.4128  1.0608  1.4532
  305TIP3    H222475   0.914   2.986  31.437  1.0442  0.2516  0.9636
  306TIP3   OH222476   2.974   2.286   7.059  0.0992 -0.0389 -0.2820
  306TIP3    H122477   3.053   2.327   7.095  0.3456  0.3122 -1.1846
  306TIP3    H222478   2.935   2.240   7.133  0.4504  0.8627  0.4956
  307TIP3   OH222479   1.838   0.270  26.617 -0.2397  0.5344  0.0498
  307TIP3    H122480   1.894   0.228  26.683  0.9965  3.1154  0.8126
  307TIP3    H222481   1.881   0.250  26.534  1.1981  1.4662  0.5244
  308TIP3   OH222482   1.925   0.999  27.855  0.0968 -0.4470 -0.1501
  308TIP3    H122483   1.896   0.954  27.776 -1.8705 -1.1058  0.8669
  308TIP3    H222484   1.852   0.988  27.916 -0.1191  3.2721  0.4971
  309TIP3   OH222485   0.631   3.045  29.024  0.0985  0.1672  0.5220
  309TIP3    H122486   0.573   3.064  28.950  0.9182 -1.2590 -0.5318
  309TIP3    H222487   0.639   3.129  29.070 -0.0670  1.2350 -1.2845
  310TIP3   OH222488   2.725   1.816  28.861  0.0903  1.1891 -0.1111
  310TIP3    H122489   2.656   1.751  28.876  1.0561  0.4843  1.5518
  310TIP3    H222490   2.782   1.776  28.796  0.6210  0.4014  0.8289
  311TIP3   OH222491   1.324   1.275   4.562  0.4476 -0.0036 -0.1610
  311TIP3    H122492   1.342   1.247   4.651 -0.3245  2.1296  0.7285
  311TIP3    H222493   1.410   1.275   4.519  0.5894 -2.8223 -0.0416
  312TIP3   OH222494   2.052   2.030  27.233 -0.5859  0.1425  0.2616
  312TIP3    H122495   2.079   2.013  27.143  1.3224  0.9122  0.6471
  312TIP3    H222496   2.023   1.945  27.266 -0.5540 -0.3100 -0.8217
  313TIP3   OH222497   3.032   3.262   2.098  0.0332  0.0659 -0.1948
  313TIP3    H122498   3.084   3.197   2.050 -0.9345  0.5149 -1.9509
  313TIP3    H222499   3.094   3.334   2.113  0.7216 -0.6460  0.4785
  314TIP3   OH222500   0.220   3.216   2.102  0.6482 -0.1539 -0.0159
  314TIP3    H122501   0.274   3.260   2.169  3.7344  0.1177 -2.4444
  314TIP3    H222502   0.242   3.262   2.021 -2.2777 -1.0370 -1.4098
  315TIP3   OH222503   3.110   1.381  31.217  0.6186 -0.0173 -0.2310
  315TIP3    H122504   3.081   1.306  31.164 -0.0262  0.0102  0.0698
  315TIP3    H222505   3.163   1.434  31.157  0.0651 -0.0905 -0.7958
  316TIP3   OH222506   1.505   1.670  30.051  0.3017 -0.2903 -0.1612
  316TIP3    H122507   1.438   1.670  29.982 -0.4868  0.0017  0.5770
  316TIP3    H222508   1.504   1.581  30.086  1.5620 -0.7835 -1.3101
  317TIP3   OH222509   1.621   0.504  30.168 -0.2878 -0.5356  0.0041
  317TIP3    H122510   1.694   0.446  30.146 -0.5151 -1.0191  0.4989
  317TIP3    H222511   1.551   0.479  30.108 -1.2401 -2.5190  1.8013
  318TIP3   OH222512   3.400   0.518   0.978  0.9318  0.1837 -0.4963
  318TIP3    H122513   3.394   0.520   1.073 -0.8400 -0.8983 -0.5438
  318TIP3    H222514   3.465   0.450   0.959 -0.4553 -1.3248 -0.0553
  319TIP3   OH222515   0.425   2.624  28.407  0.5066  0.3780 -0.1695
  319TIP3    H122516   0.422   2.649  28.500 -0.8883  0.3129 -0.1879
  319TIP3    H222517   0.350   2.669  28.368  0.8672  0.0940 -1.1976
  320TIP3   OH222518   3.523   1.312   3.717 -0.4348 -0.5803 -0.3029
  320TIP3    H122519   3.550   1.323   3.626 -1.2959  1.8479 -0.3291
  320TIP3    H222520   3.593   1.352   3.768 -1.1292  0.3465 -0.0572
  321TIP3   OH222521   1.293   1.578  31.895  0.3371 -0.0863 -0.7085
  321TIP3    H122522   1.240   1.624  31.960  0.1467  1.5270 -1.9187
  321TIP3    H222523   1.230   1.552  31.827  0.6705 -0.8227 -0.7378
  322TIP3   OH222524   0.302   0.499  29.059  0.3781 -0.0845  0.0831
  322TIP3    H122525   0.377   0.441  29.068  2.3861  2.4035  0.3466
  322TIP3    H222526   0.325   0.558  28.987 -1.0993  1.0229  0.4606
  323TIP3   OH222527   0.982   3.254   1.585 -0.2884 -0.6683  0.0429
  323TIP3    H122528   0.931   3.174   1.583  0.0435 -0.8643 -1.1457
  323TIP3    H222529   0.919   3.322   1.610 -0.5204 -1.3148  1.2890
  324TIP3   OH222530   0.648   3.498  26.996 -0.7147 -0.2866  0.2472
  324TIP3    H122531   0.654   3.447  27.077 -0.4581  0.5139  0.7431
  324TIP3    H222532   0.554   3.506  26.980 -0.7633 -1.3010 -0.1048
  325TIP3   OH222533   2.407   3.540  29.158  0.2439  0.3284  0.0277
  325TIP3    H122534   2.499   3.511  29.160  0.3955  0.8431  0.8570
  325TIP3    H222535   2.411   3.634  29.174 -0.4675  0.2670  0.6226
  326TIP3   OH222536   1.428   2.104  21.235  0.4611 -0.5901 -0.0010
  326TIP3    H122537   1.407   2.011  21.232  0.2478 -0.5442  0.0635
  326TIP3    H222538   1.357   2.144  21.284  0.4837 -0.3731 -0.1405
  327TIP3   OH222539   1.475   1.930  20.099  0.0871  0.4072  0.5440
  327TIP3    H122540   1.512   1.979  20.026 -1.3366  0.9736  0.1788
  327TIP3    H222541   1.525   1.960  20.175  0.3196  1.2147  0.0811
  328TIP3   OH222542   2.290   2.641  29.759  0.3803 -0.0855  0.0053
  328TIP3    H122543   2.296   2.547  29.774  0.2981 -0.1225 -0.1822
  328TIP3    H222544   2.196   2.658  29.751  0.4314 -0.1356 -0.8292
  329TIP3   OH222545   2.607   2.236  29.449  0.0504 -0.3448 -0.1344
  329TIP3    H122546   2.686   2.241  29.395  1.5585 -2.3693  1.6913
  329TIP3    H222547   2.550   2.175  29.403  0.5962 -0.7440 -0.2896
  330TIP3   OH222548   2.852   2.930   3.600  0.2036  0.1670  0.0191
  330TIP3    H122549   2.886   2.988   3.532 -0.2220  0.7088  0.2641
  330TIP3    H222550   2.930   2.893   3.641  0.4665 -0.1949 -0.7807
  331TIP3   OH222551   2.253   2.231  26.089 -0.0219  0.2780  0.0776
  331TIP3    H122552   2.241   2.326  26.088 -1.9524  0.0959 -1.5843
  331TIP3    H222553   2.185   2.198  26.030 -0.1594 -2.2327  1.4965
  332TIP3   OH222554   1.240   1.960  31.737  0.5685  0.1956 -0.0018
  332TIP3    H122555   1.309   1.972  31.802  0.4794 -1.4551  0.4469
  332TIP3    H222556   1.276   1.896  31.675 -0.1449  0.1526 -0.3842
  333TIP3   OH222557   0.234   1.084  29.925 -0.3441 -0.2487  1.0189
  333TIP3    H122558   0.284   1.034  29.989 -1.2354 -0.4345  1.5915
  333TIP3    H222559   0.241   1.034  29.844  0.4741 -0.2128  1.0600
  334TIP3   OH222560   3.254   2.253  26.669 -0.0294  0.7826 -0.4616
  334TIP3    H122561   3.200   2.206  26.733  1.4671 -0.5767 -0.1459
  334TIP3    H222562   3.197   2.264  26.593 -2.0560  2.9099  1.1957
  335TIP3   OH222563   2.237   3.234  10.006 -0.2332  0.0059  0.1322
  335TIP3    H122564   2.165   3.216   9.946  0.2724 -3.3448  0.3464
  335TIP3    H222565   2.196   3.281  10.079 -1.3964  1.5370 -1.4062
  336TIP3   OH222566   3.524   1.421   2.340  0.0911  0.0327 -0.1220
  336TIP3    H122567   3.429   1.428   2.337 -0.0300 -0.6947  1.2221
  336TIP3    H222568   3.554   1.461   2.259 -1.4089 -0.6926 -1.0651
  337TIP3   OH222569   0.078   1.402  28.741  0.0783 -0.0332 -0.1550
  337TIP3    H122570   0.043   1.333  28.685 -1.4500  0.8479 -0.3526
  337TIP3    H222571   0.098   1.474  28.680 -2.3585  1.2335  0.4198
  338TIP3   OH222572   0.982   1.951   5.005  0.4322  0.5480  0.3176
  338TIP3    H122573   0.923   1.919   5.073  0.6515 -3.6233 -1.1375
  338TIP3    H222574   0.925   1.967   4.930  0.7078  0.3906  0.0749
  339TIP3   OH222575   0.895   0.563  31.100 -0.5454  0.5355 -0.4508
  339TIP3    H122576   0.895   0.576  31.195  2.4397 -0.0582 -0.2666
  339TIP3    H222577   0.941   0.639  31.065 -2.6050  1.3334 -1.6192
  340TIP3   OH222578   0.170   0.661   6.235 -0.5631  0.1428 -0.2453
  340TIP3    H122579   0.172   0.750   6.201 -2.9793  0.1890 -0.4494
  340TIP3    H222580   0.104   0.617   6.181  0.8633 -1.9150 -0.4260
  341TIP3   OH222581   3.098   1.712  28.807 -0.2697 -0.7508  0.3942
  341TIP3    H122582   3.091   1.734  28.715  0.2228 -2.3181 -0.0527
  341TIP3    H222583   3.151   1.781  28.845 -1.1253  0.3271 -0.3175
  342TIP3   OH222584   1.393   2.691  32.791  0.0234  0.7071  0.2467
  342TIP3    H122585   1.298   2.704  32.786  0.2131  1.8787 -2.5692
  342TIP3    H222586   1.404   2.596  32.781 -0.8443  0.3565  2.1820
  343TIP3   OH222587   2.197   2.096   6.228  0.2078 -0.1552 -0.3185
  343TIP3    H122588   2.142   2.161   6.185 -1.8804 -2.8257 -1.9416
  343TIP3    H222589   2.274   2.089   6.172  0.5677  0.9869 -0.0073
  344TIP3   OH222590   0.443   1.997  29.434 -0.2700 -0.1801 -0.3603
  344TIP3    H122591   0.367   2.007  29.377 -0.5456  0.9630  0.1971
  344TIP3    H222592   0.423   2.049  29.511  1.0021 -0.0100 -0.1271
  345TIP3   OH222593   0.522   2.392   0.907 -0.4326 -0.4501  0.3404
  345TIP3    H122594   0.553   2.478   0.936 -0.5544  0.1190 -1.1550
  345TIP3    H222595   0.524   2.338   0.986  1.1083  0.4985  0.9938
  346TIP3   OH222596   0.736   2.462  26.432 -0.8990  0.4236  0.7477
  346TIP3    H122597   0.705   2.539  26.480 -0.9482  1.1838 -0.4601
  346TIP3    H222598   0.708   2.478  26.342 -0.6300 -0.8692  0.4203
  347TIP3   OH222599   1.343   2.363  27.384 -0.5904  0.0722  0.2019
  347TIP3    H122600   1.249   2.381  27.386 -0.8497 -1.0928 -0.6934
  347TIP3    H222601   1.379   2.433  27.329 -1.3594 -1.0656 -1.8582
  348TIP3   OH222602   3.542   2.596  30.246  0.1538  0.5785 -0.3969
  348TIP3    H122603   3.617   2.545  30.215 -0.1863  0.0698 -0.3829
  348TIP3    H222604   3.581   2.674  30.286  0.6220  1.0466 -1.7077
  349TIP3   OH222605   0.116   2.588  28.984 -0.0693  0.2790 -0.2061
  349TIP3    H122606   0.182   2.547  28.927 -0.4254  0.0113 -0.4290
  349TIP3    H222607   0.046   2.524  28.989  1.1032 -0.9438  2.7805
  350TIP3   OH222608   3.487   0.442   4.661  0.1236 -0.1364  0.4271
  350TIP3    H122609   3.404   0.475   4.625 -0.2206 -1.3115  0.1069
  350TIP3    H222610   3.517   0.378   4.597  1.4676  0.4961  0.3802
  351TIP3   OH222611   2.574   2.469   5.380  0.4606  0.2165  0.3664
  351TIP3    H122612   2.572   2.550   5.330 -1.7337  0.1748  0.2828
  351TIP3    H222613   2.648   2.479   5.439 -0.2417  2.6753  0.9516
  352TIP3   OH222614   2.554   2.610  29.448 -0.3093  0.0034  0.0300
  352TIP3    H122615   2.649   2.611  29.438 -0.2132  2.3786  0.7365
  352TIP3    H222616   2.536   2.675  29.516 -2.4822 -0.1106 -0.3676
  353TIP3   OH222617   3.022   2.863   0.369  0.2775 -0.2572  0.2438
  353TIP3    H122618   3.008   2.940   0.314  0.8607  0.5358  1.1823
  353TIP3    H222619   2.981   2.884   0.452 -1.6316 -1.9240 -0.2059
  354TIP3   OH222620   0.861   1.026   5.951  0.1655 -0.0122  0.8478
  354TIP3    H122621   0.900   0.962   6.011 -0.5650 -1.9735 -0.6662
  354TIP3    H222622   0.767   1.008   5.954  0.1207 -0.1950 -0.9060
  355TIP3   OH222623   1.620   1.225  26.377  0.0857 -0.0449  0.6311
  355TIP3    H122624   1.634   1.169  26.453  0.0692 -0.4029  0.3736
  355TIP3    H222625   1.578   1.168  26.313 -1.3010  0.6484  0.8908
  356TIP3   OH222626   2.399   0.007  31.813  0.3657  0.2108 -0.3601
  356TIP3    H122627   2.370  -0.018  31.725  1.7232  0.3607 -0.8598
  356TIP3    H222628   2.444   0.090  31.802  1.5193 -0.3085  0.2970
  357TIP3   OH222629   0.961   1.678   3.486  0.2598 -0.0497 -0.2484
  357TIP3    H122630   0.952   1.746   3.420  0.5632 -0.5889 -0.8580
  357TIP3    H222631   0.962   1.725   3.569  3.4383  1.0235 -0.7543
  358TIP3   OH222632   1.851   1.523   1.818 -0.1547  0.1846 -0.1372
  358TIP3    H122633   1.940   1.502   1.848  0.1346  0.5837 -0.6789
  358TIP3    H222634   1.854   1.617   1.800 -1.2194  0.5753  1.5865
  359TIP3   OH222635   0.290   0.858   1.007  0.1151 -0.5615 -0.1485
  359TIP3    H122636   0.385   0.860   0.993  0.3458 -0.4520  1.2153
  359TIP3    H222637   0.266   0.950   1.018  0.2706 -0.6953  1.7576
  360TIP3   OH222638   3.348   0.971  26.696 -0.9434 -0.4600 -0.5964
  360TIP3    H122639   3.388   1.058  26.699  0.1292 -0.9379 -0.3956
  360TIP3    H222640   3.344   0.949  26.603 -1.7995  0.0541 -0.6878
  361TIP3   OH222641   0.341   0.254  31.999  0.3163  0.0708 -0.0019
  361TIP3    H122642   0.374   0.307  31.927  1.6251  0.9894  1.2038
  361TIP3    H222643   0.330   0.167  31.963  0.9039  0.5191 -1.3142
  362TIP3   OH222644   1.080   2.557   2.786 -0.1701 -0.5698  0.3179
  362TIP3    H122645   1.123   2.547   2.700 -0.2853 -0.9090  0.2965
  362TIP3    H222646   1.150   2.539   2.849  0.4363  1.6378  0.3565
  363TIP3   OH222647   2.599   2.698  31.436  0.5059 -0.1411  0.1456
  363TIP3    H122648   2.528   2.700  31.372  1.3560 -2.0796 -0.9785
  363TIP3    H222649   2.570   2.637  31.503  1.1563 -1.1898 -0.4789
  364TIP3   OH222650   1.418   2.506  30.272 -0.3520 -0.8318 -0.0035
  364TIP3    H122651   1.347   2.562  30.241  0.1647 -0.6133 -0.8168
  364TIP3    H222652   1.414   2.514  30.368  0.8408  2.0917 -0.0878
  365TIP3   OH222653   1.439   0.760  31.291 -0.3767  0.0649  0.1505
  365TIP3    H122654   1.468   0.805  31.370 -1.2327  1.1994 -0.1529
  365TIP3    H222655   1.470   0.816  31.219 -1.2735  0.0708 -0.2438
  366TIP3   OH222656   2.267   3.477  26.929  0.1642  0.1397 -0.1353
  366TIP3    H122657   2.305   3.561  26.903  0.2278 -0.1261 -0.9294
  366TIP3    H222658   2.325   3.444  26.998  1.0220  0.0323 -0.8918
  367TIP3   OH222659   2.304   0.375   6.437 -0.8530 -0.4108  0.1603
  367TIP3    H122660   2.274   0.329   6.358 -1.5082 -1.1231  0.8060
  367TIP3    H222661   2.372   0.318   6.473 -0.4636 -0.0208  0.0399
  368TIP3   OH222662   0.047   2.372  32.710 -0.1503 -0.1277 -0.8646
  368TIP3    H122663  -0.022   2.323  32.664 -0.3696 -0.5141 -0.1362
  368TIP3    H222664   0.090   2.307  32.765  1.1603 -0.0128 -1.6945
  369TIP3   OH222665   1.715   1.930  28.946 -0.4138  0.3910  0.1764
  369TIP3    H122666   1.778   1.859  28.945 -2.1948 -1.2503 -0.8471
  369TIP3    H222667   1.757   2.001  28.897  1.3099  0.0160  1.0507
  370TIP3   OH222668   2.340   1.653  28.640 -0.0803 -0.2816 -0.2197
  370TIP3    H122669   2.257   1.621  28.603 -0.5508 -1.5952  1.8183
  370TIP3    H222670   2.407   1.598  28.599 -0.4032 -0.5263 -0.4264
  371TIP3   OH222671   2.260   0.256   1.129  0.0348  0.3880  0.1157
  371TIP3    H122672   2.185   0.250   1.069 -0.2640  0.1773  0.5010
  371TIP3    H222673   2.337   0.256   1.072 -0.1789 -1.2037 -0.1959
  372TIP3   OH222674   2.263   2.914  10.660 -0.1788  0.6284 -0.2451
  372TIP3    H122675   2.313   2.847  10.614  0.0463  0.2473  0.5383
  372TIP3    H222676   2.303   2.997  10.634  0.1245  0.3984 -0.5132
  373TIP3   OH222677   1.881   0.157  11.962 -0.1110  0.1515  0.2205
  373TIP3    H122678   1.910   0.101  12.034  0.1827  2.3692  1.9505
  373TIP3    H222679   1.961   0.185  11.919  0.0611  1.9609  1.5938
  374TIP3   OH222680   2.926   0.923   0.202 -0.2486 -0.4906  0.6674
  374TIP3    H122681   3.010   0.954   0.170 -0.4019  0.4399  1.1312
  374TIP3    H222682   2.906   0.847   0.148  0.1334  0.2389 -0.5264
  375TIP3   OH222683   1.285   1.779   2.629  0.1132 -0.5309 -0.8302
  375TIP3    H122684   1.192   1.763   2.644  0.3210 -0.3405  0.8445
  375TIP3    H222685   1.287   1.850   2.565 -0.9412  0.7445  0.4846
  376TIP3   OH222686   2.204   1.527  21.281 -0.2505 -0.0267 -0.2993
  376TIP3    H122687   2.154   1.514  21.362  0.7384  1.3310  0.5708
  376TIP3    H222688   2.142   1.504  21.211 -1.7633  0.5956  0.7785
  377TIP3   OH222689   0.339   3.129  29.786 -0.3279 -0.2069 -0.6741
  377TIP3    H122690   0.430   3.155  29.797 -0.7673  0.8034  0.8706
  377TIP3    H222691   0.314   3.168  29.701 -0.3279  2.7930  0.5622
  378TIP3   OH222692   1.801   0.203   3.572  0.0760 -0.3673  0.0284
  378TIP3    H122693   1.896   0.198   3.580  0.0161 -3.1428  0.0715
  378TIP3    H222694   1.779   0.138   3.505 -1.9124 -1.5329  1.6688
  379TIP3   OH222695   1.671   0.842  29.894 -0.5806  0.2994  0.2105
  379TIP3    H122696   1.735   0.913  29.900 -0.0623 -0.1016 -0.4848
  379TIP3    H222697   1.634   0.836  29.982  0.5042  0.3790  0.6908
  380TIP3   OH222698   0.050   3.414   4.949 -0.8268 -0.4951  0.2149
  380TIP3    H122699   0.100   3.359   4.889  1.9381  1.4723  0.5469
  380TIP3    H222700  -0.031   3.433   4.902 -0.5271 -2.2749 -1.1492
  381TIP3   OH222701   2.476   1.865   2.031 -0.1406  0.0651  0.4524
  381TIP3    H122702   2.531   1.823   2.097 -1.2232 -1.1425  0.6168
  381TIP3    H222703   2.479   1.806   1.956 -0.4139  0.4857  0.1062
  382TIP3   OH222704   3.077   2.446  14.535  0.0733  0.3453 -0.8990
  382TIP3    H122705   3.093   2.444  14.441 -1.5505  1.9281 -1.2505
  382TIP3    H222706   3.149   2.499  14.571  0.8969 -0.5636 -1.1753
  383TIP3   OH222707   0.667   1.550  21.609 -1.1688  0.0284 -0.1599
  383TIP3    H122708   0.669   1.487  21.537  1.0444  1.0439 -1.0930
  383TIP3    H222709   0.636   1.631  21.570 -0.7980  0.3623  0.2260
  384TIP3   OH222710   0.164   2.189  32.884  0.2356 -0.4175  0.0314
  384TIP3    H122711   0.089   2.128  32.882  0.6768 -1.1417  2.4771
  384TIP3    H222712   0.240   2.133  32.870  0.6578 -0.5624  2.4436
  385TIP3   OH222713   1.730   2.840  12.006  0.2897  0.3513  0.0461
  385TIP3    H122714   1.648   2.860  12.052  0.9224  0.3848  1.1894
  385TIP3    H222715   1.797   2.841  12.074  0.8097 -2.7575 -0.2951
  386TIP3   OH222716   2.563   2.065  20.874  0.1936  0.4309  0.3438
  386TIP3    H122717   2.602   2.038  20.957 -0.9497  1.1872  1.1586
  386TIP3    H222718   2.624   2.130  20.839  1.4931 -1.0415 -0.2240
  387TIP3   OH222719   0.394   0.020   3.573  0.2214 -0.8344 -0.1382
  387TIP3    H122720   0.384   0.016   3.668 -0.0648 -1.3495 -0.1868
  387TIP3    H222721   0.425   0.109   3.556 -0.3014 -0.5457  0.3840
  388TIP3   OH222722   1.861   0.072   1.413 -0.3674  0.1256 -0.2607
  388TIP3    H122723   1.820   0.045   1.330  1.2967 -1.7868 -0.5492
  388TIP3    H222724   1.948   0.102   1.388  0.9248 -2.3548  0.8650
  389TIP3   OH222725   0.311   0.360   2.703  0.8321 -0.0322 -0.3673
  389TIP3    H122726   0.406   0.364   2.714  0.7829  0.2955 -0.0403
  389TIP3    H222727   0.281   0.450   2.716  0.5966  0.0979 -1.6121
  390TIP3   OH222728   1.535   0.876   5.989 -0.0828 -0.3320 -0.2909
  390TIP3    H122729   1.613   0.899   6.040 -1.4201  1.0242  1.2846
  390TIP3    H222730   1.539   0.781   5.979  1.8259 -0.2716 -0.3904
  391TIP3   OH222731   3.374   0.873  29.033  0.5214  0.4543 -0.3259
  391TIP3    H122732   3.453   0.829  29.002 -0.1251 -0.6349 -0.4873
  391TIP3    H222733   3.380   0.870  29.128  1.1679  1.3253 -0.3239
  392TIP3   OH222734   0.419   1.454  19.383 -0.4030  0.4560 -0.2530
  392TIP3    H122735   0.398   1.520  19.449 -0.3637  0.1583  0.0638
  392TIP3    H222736   0.495   1.490  19.336  0.5002  0.0291  0.8311
  393TIP3   OH222737   2.805   3.116   2.361  0.1818  0.1812  0.1307
  393TIP3    H122738   2.858   3.141   2.285 -2.3839 -1.0972 -2.2803
  393TIP3    H222739   2.775   3.199   2.398 -0.3434  0.8532 -1.6920
  394TIP3   OH222740   1.847   3.514  31.239 -0.6126  0.0376  0.1407
  394TIP3    H122741   1.838   3.428  31.280 -0.0451  0.2130  0.6511
  394TIP3    H222742   1.915   3.558  31.291  0.5528  0.0604 -1.3661
  395TIP3   OH222743   2.207   0.585   0.305  0.0724  0.6859  0.1583
  395TIP3    H122744   2.225   0.510   0.248 -1.4031  0.8111 -0.5125
  395TIP3    H222745   2.144   0.638   0.257 -0.7394  1.1221  1.6297
  396TIP3   OH222746   2.175   0.064  32.928  0.4022  0.3036 -0.2898
  396TIP3    H122747   2.263   0.102  32.928  0.9974 -1.0097 -0.6066
  396TIP3    H222748   2.171   0.013  33.009  0.4483 -0.7223 -0.9130
  397TIP3   OH222749   0.905   0.299  31.949 -0.5727  0.1878 -0.2973
  397TIP3    H122750   0.969   0.269  31.884 -1.1812  1.4844 -1.5454
  397TIP3    H222751   0.825   0.314  31.899 -1.1007  1.1067  0.7689
  398TIP3   OH222752   0.016   1.223  27.873 -0.0679  0.5578 -0.1422
  398TIP3    H122753  -0.002   1.208  27.780 -0.0591 -1.6660  0.1724
  398TIP3    H222754  -0.013   1.313  27.888  0.3970  1.1521 -2.3915
  399TIP3   OH222755   0.037   1.513   5.546  0.1024  0.4143  0.0293
  399TIP3    H122756  -0.007   1.457   5.483  0.6345 -0.6556  0.5746
  399TIP3    H222757   0.110   1.551   5.496 -0.9395  1.5650 -0.6557
  400TIP3   OH222758   2.321   1.235  32.794 -0.3386  0.9263  0.1683
  400TIP3    H122759   2.361   1.276  32.718  3.3249 -1.7959  0.3693
  400TIP3    H222760   2.277   1.157  32.758  0.1987  0.3903  0.6550
  401TIP3   OH222761   2.464   3.298  29.898 -0.4386 -0.1601 -0.2710
  401TIP3    H122762   2.543   3.321  29.948 -0.9360  1.0587  0.0043
  401TIP3    H222763   2.398   3.280  29.965 -1.5192  2.8873 -0.3500
  402TIP3   OH222764   2.898   1.320   0.261 -0.2288  0.3365 -0.4751
  402TIP3    H122765   2.815   1.368   0.255 -0.6392 -0.2645  0.2032
  402TIP3    H222766   2.880   1.250   0.324  0.4924 -0.4290 -1.0949
  403TIP3   OH222767   2.348   2.956  30.704  0.3747 -0.7537 -0.5916
  403TIP3    H122768   2.427   2.953  30.758 -0.4523 -2.0386  0.6366
  403TIP3    H222769   2.279   2.922  30.762 -0.7968 -0.9966 -2.0790
  404TIP3   OH222770   2.380   3.123   0.933 -0.4216 -0.5813  0.3009
  404TIP3    H122771   2.403   3.068   0.858  0.7429  0.3898 -0.0723
  404TIP3    H222772   2.307   3.176   0.902  0.0779 -0.1591 -0.1615
  405TIP3   OH222773   1.191   2.147  22.766  0.3866  0.2157 -0.3743
  405TIP3    H122774   1.227   2.234  22.782 -0.3360  0.2512  1.2337
  405TIP3    H222775   1.222   2.094  22.839 -0.7752 -0.3788 -0.2854
  406TIP3   OH222776   0.180   0.470  27.808 -0.0438  0.0950  0.1105
  406TIP3    H122777   0.092   0.492  27.776  0.6782  1.6509 -0.9465
  406TIP3    H222778   0.226   0.436  27.731  0.6246  0.3847  0.3767
  407TIP3   OH222779   3.245   2.370  18.800 -0.1318  0.7466  0.0034
  407TIP3    H122780   3.298   2.336  18.872  1.2434 -0.7704 -1.6404
  407TIP3    H222781   3.293   2.447  18.770  2.3149 -1.5823 -2.6000
  408TIP3   OH222782   1.135   1.931   1.111  0.2420  0.5293 -0.2814
  408TIP3    H122783   1.107   1.996   1.176  2.3202 -0.2716  1.5332
  408TIP3    H222784   1.194   1.979   1.053 -1.2512  1.1271 -1.3951
  409TIP3   OH222785   2.133   0.269   7.174 -0.2918  0.0201  0.0854
  409TIP3    H122786   2.204   0.208   7.193  0.8395  1.2312 -0.0948
  409TIP3    H222787   2.082   0.272   7.255  0.3540 -0.2324  0.5091
  410TIP3   OH222788   1.538   1.685   1.754  0.6421 -0.0514  0.1897
  410TIP3    H122789   1.565   1.751   1.818 -0.3157  0.9269 -0.3665
  410TIP3    H222790   1.569   1.719   1.670 -0.4618  0.0677 -0.1907
  411TIP3   OH222791   1.602   3.135  14.897  0.1194 -0.5451 -0.0644
  411TIP3    H122792   1.683   3.141  14.948  0.2582  0.2654 -0.3627
  411TIP3    H222793   1.560   3.221  14.908 -0.0307 -0.4848 -0.9971
  412TIP3   OH222794   1.807   1.864  26.184  0.4749 -0.2219 -0.2116
  412TIP3    H122795   1.782   1.912  26.105  1.0848  1.5919  0.6428
  412TIP3    H222796   1.844   1.782  26.152  1.1140  0.6549 -1.8434
  413TIP3   OH222797   1.013   0.906  32.511 -0.3895 -0.6991  0.2876
  413TIP3    H122798   1.059   0.844  32.455  1.2900 -0.3039  1.1304
  413TIP3    H222799   1.001   0.858  32.594  2.3732  0.4648  1.5158
  414TIP3   OH222800   0.893   2.362  32.273 -0.4074  0.7167 -0.2045
  414TIP3    H122801   0.971   2.345  32.326 -0.1585  2.0291 -0.1384
  414TIP3    H222802   0.924   2.362  32.183 -0.4473  0.6325 -0.2191
  415TIP3   OH222803   2.311   0.620   4.781 -0.0303  0.3312 -0.5559
  415TIP3    H122804   2.339   0.632   4.690 -0.5449  0.0144 -0.7633
  415TIP3    H222805   2.338   0.531   4.803 -1.2527 -0.1590 -0.9174
  416TIP3   OH222806   0.227   1.802  30.401 -0.6052 -0.4721 -0.0602
  416TIP3    H122807   0.202   1.710  30.397  2.2000 -1.3715  0.4826
  416TIP3    H222808   0.251   1.824  30.311 -0.4110 -0.5691 -0.0341
  417TIP3   OH222809   1.718   2.400   0.847  0.2605  0.0788  0.2388
  417TIP3    H122810   1.744   2.447   0.767 -0.1097 -0.3278 -0.1276
  417TIP3    H222811   1.635   2.440   0.873  1.2669  1.4592  1.4772
  418TIP3   OH222812   1.663   3.134  32.290  0.1967 -0.2785  0.5446
  418TIP3    H122813   1.600   3.119  32.219  1.0356 -0.6123 -0.1468
  418TIP3    H222814   1.656   3.057  32.345 -0.5115  0.0135  0.8718
  419TIP3   OH222815   2.451   0.304  27.576  0.1649  0.0336 -0.0332
  419TIP3    H122816   2.450   0.310  27.480  1.0777  1.2331  0.0020
  419TIP3    H222817   2.415   0.218  27.595 -2.3265  0.6988 -1.3498
  420TIP3   OH222818   0.973   3.415  31.151  0.0119 -0.2915  0.1388
  420TIP3    H122819   0.910   3.420  31.079  0.5116 -0.3711 -0.3045
  420TIP3    H222820   0.951   3.490  31.206  0.0937  0.1922 -0.4766
  421TIP3   OH222821   0.798   1.083  31.002 -0.4311  0.7286 -0.2401
  421TIP3    H122822   0.776   1.077  31.095  0.3072  1.9094  0.0385
  421TIP3    H222823   0.742   1.018  30.959 -1.4485  0.8233  0.9100
  422TIP3   OH222824   2.375   2.751  28.785  0.0857 -0.5224  0.0878
  422TIP3    H122825   2.306   2.810  28.754 -0.0038 -0.3767  0.5601
  422TIP3    H222826   2.455   2.784  28.744 -0.1696 -0.9308 -0.7847
  423TIP3   OH222827   2.794   2.340   3.244  0.0806  0.4582 -0.3460
  423TIP3    H122828   2.811   2.415   3.301 -0.8194  0.8821 -0.6195
  423TIP3    H222829   2.821   2.370   3.157  1.5689 -0.2310 -0.1498
  424TIP3   OH222830   0.241   0.425   3.508  0.2103  0.2775  0.0626
  424TIP3    H122831   0.198   0.451   3.427  2.0321  1.8141 -0.4778
  424TIP3    H222832   0.180   0.450   3.577 -2.0979 -2.4939 -0.7689
  425TIP3   OH222833   3.293   1.656  32.509  0.0058  0.7447 -0.4546
  425TIP3    H122834   3.245   1.579  32.538  1.8264  0.4342  2.0637
  425TIP3    H222835   3.301   1.645  32.414 -0.5242 -1.7139 -0.2657
  426TIP3   OH222836   1.338   1.617   6.846 -0.0797  0.0549 -0.2369
  426TIP3    H122837   1.297   1.579   6.768 -0.0572  0.7998 -0.6127
  426TIP3    H222838   1.277   1.596   6.917 -0.9168  0.7672 -0.7161
  427TIP3   OH222839   0.758   3.398   6.350  0.0443 -0.1010  0.2640
  427TIP3    H122840   0.683   3.426   6.297 -1.0368 -1.9072  0.7359
  427TIP3    H222841   0.805   3.336   6.294  2.4505  2.4586 -0.8050
  428TIP3   OH222842   0.593   0.486   1.329  0.3860  0.4073  0.3814
  428TIP3    H122843   0.525   0.449   1.272 -1.4267  2.6597  0.9266
  428TIP3    H222844   0.565   0.464   1.418 -0.3316  2.2401  0.6739
  429TIP3   OH222845   0.029   2.275  26.283  0.5975 -0.1845  1.0301
  429TIP3    H122846   0.031   2.260  26.378 -1.6109 -0.3976  1.0798
  429TIP3    H222847  -0.046   2.332  26.268  0.7739 -0.3283 -0.6268
  430TIP3   OH222848   1.558   3.155  27.517  0.6652 -0.2999 -0.1899
  430TIP3    H122849   1.642   3.197  27.532  1.4356 -1.6782 -0.5408
  430TIP3    H222850   1.559   3.130  27.425 -1.1048  1.7042 -0.8541
  431TIP3   OH222851   1.465   2.427   1.175 -0.1847  0.7418  0.1505
  431TIP3    H122852   1.417   2.510   1.170 -0.9281  0.3440  0.5729
  431TIP3    H222853   1.428   2.373   1.105  0.7187  0.9633 -0.5239
  432TIP3   OH222854   2.768   3.194  27.016 -0.1072 -0.1587  0.1799
  432TIP3    H122855   2.704   3.257  26.986  1.1089 -0.1728 -2.7868
  432TIP3    H222856   2.716   3.122  27.053 -1.6968  0.5108 -0.6859
  433TIP3   OH222857   2.082   0.239   0.476  0.0456  0.0240 -0.1632
  433TIP3    H122858   2.036   0.256   0.394 -0.6988 -0.1128  0.2160
  433TIP3    H222859   2.062   0.316   0.530 -2.7190 -1.5391  1.2920
  434TIP3   OH222860   3.397   0.721  30.402 -0.0162  0.3224  0.0378
  434TIP3    H122861   3.347   0.665  30.343  0.6349 -0.3867  0.1523
  434TIP3    H222862   3.484   0.727  30.363  0.2099  0.4399  0.5470
  435TIP3   OH222863   1.752   1.457  20.643 -0.2929  0.9018 -0.3997
  435TIP3    H122864   1.810   1.493  20.711 -2.4500  2.1337  0.9169
  435TIP3    H222865   1.767   1.363  20.646 -1.0075  0.7867  2.5702
  436TIP3   OH222866   2.307   1.584  27.264 -0.0118  0.2092 -0.2074
  436TIP3    H122867   2.333   1.517  27.328 -0.9073 -1.5718 -1.6047
  436TIP3    H222868   2.213   1.596  27.280  0.0241  0.7011 -0.3609
  437TIP3   OH222869   0.733   2.140   4.983  0.1658  0.2497  0.3586
  437TIP3    H122870   0.719   2.229   5.015 -1.7186 -0.9110  3.0752
  437TIP3    H222871   0.695   2.140   4.895  0.0676  2.0660  0.3657
  438TIP3   OH222872   2.962   1.642  28.403 -0.4005 -0.5923  0.5707
  438TIP3    H122873   2.897   1.606  28.343 -0.1104 -0.2556  0.0456
  438TIP3    H222874   2.976   1.732  28.372  1.5681 -1.1762 -0.3983
  439TIP3   OH222875   2.578   1.173   0.876 -0.0905  0.1173 -0.5525
  439TIP3    H122876   2.578   1.078   0.867 -2.8475 -0.2166  1.5272
  439TIP3    H222877   2.625   1.190   0.958  0.0879  0.4956 -0.7314
  440TIP3   OH222878   2.130   3.100  14.773 -0.4846 -0.0108  0.2103
  440TIP3    H122879   2.212   3.142  14.747  0.3470 -0.8320  1.3759
  440TIP3    H222880   2.158   3.021  14.819 -1.9617 -0.8649 -0.2954
  441TIP3   OH222881   0.907   0.451   4.362  0.0250 -0.4170 -0.4321
  441TIP3    H122882   0.969   0.511   4.404 -1.9355 -0.0917  2.2983
  441TIP3    H222883   0.957   0.371   4.347  1.7580  0.6817 -0.8080
  442TIP3   OH222884   2.271   0.871   3.334 -0.6363 -0.2307  0.1173
  442TIP3    H122885   2.345   0.845   3.390 -1.4218 -1.6433  0.5480
  442TIP3    H222886   2.306   0.868   3.245  0.6072  1.9584  0.4454
  443TIP3   OH222887   0.273   0.600  28.615 -0.2067 -0.4891  0.4856
  443TIP3    H122888   0.288   0.544  28.539  0.7540  1.0326 -0.5152
  443TIP3    H222889   0.220   0.672  28.581  0.3810  0.2995  1.1903
  444TIP3   OH222890   0.976   0.497  30.540  0.7196 -0.2816 -0.1643
  444TIP3    H122891   1.013   0.522  30.624 -1.6890 -0.1304  0.9262
  444TIP3    H222892   0.894   0.453  30.561 -0.7929  1.1747 -2.4329
  445TIP3   OH222893   0.727   0.689  28.341 -0.1022 -0.3281  0.6877
  445TIP3    H122894   0.767   0.664  28.258  0.7702 -0.4480  1.1384
  445TIP3    H222895   0.756   0.779  28.356 -0.3533 -0.2655  0.8045
  446TIP3   OH222896   2.092   2.172   4.039  0.0235  0.1609 -0.5877
  446TIP3    H122897   2.109   2.084   4.005  1.6278  0.2070  0.0257
  446TIP3    H222898   2.082   2.226   3.960  1.9262 -0.0679 -1.0447
  447TIP3   OH222899   0.315   2.044   5.331  0.2099 -0.0024 -0.3708
  447TIP3    H122900   0.290   2.123   5.378  1.2516 -0.6555  1.3798
  447TIP3    H222901   0.271   2.051   5.246 -1.8013  1.1975  0.7076
  448TIP3   OH222902   0.416   2.748  31.993  0.3134 -0.4684 -0.1334
  448TIP3    H122903   0.469   2.825  32.012 -0.6575  0.5813 -1.4925
  448TIP3    H222904   0.478   2.684  31.958  0.8135  0.5280 -1.1513
  449TIP3   OH222905   1.551   2.733   3.520  0.5449  0.1980 -0.2693
  449TIP3    H122906   1.480   2.793   3.541 -1.0033 -2.2889  2.3197
  449TIP3    H222907   1.630   2.779   3.547 -0.4910  1.4670  0.7135
  450TIP3   OH222908   1.195   3.542  14.179  0.3035 -0.4045  0.5999
  450TIP3    H122909   1.154   3.619  14.218 -0.1969 -0.3152 -0.0929
  450TIP3    H222910   1.122   3.496  14.136  0.5865 -1.2771  1.0326
  451TIP3   OH222911   0.094   0.349  30.742  0.0233 -0.0955  0.0706
  451TIP3    H122912   0.094   0.374  30.834 -1.7066  0.8682 -0.1413
  451TIP3    H222913   0.179   0.308  30.728  1.7283  2.6762  1.3109
  452TIP3   OH222914   1.517   1.908  22.218 -0.7548  0.0994 -0.2723
  452TIP3    H122915   1.511   2.004  22.226 -3.8799 -0.1305  1.7228
  452TIP3    H222916   1.596   1.886  22.266  0.2581  1.6708 -1.1149
  453TIP3   OH222917   2.896   2.879   5.832 -0.0412 -0.4599 -0.1617
  453TIP3    H122918   2.867   2.790   5.812 -1.7167 -0.2291  1.0691
  453TIP3    H222919   2.964   2.868   5.898 -0.7457 -0.8205  0.5190
  454TIP3   OH222920   0.659   0.199  32.855 -0.3034 -0.0218  0.1461
  454TIP3    H122921   0.589   0.181  32.917  0.6260 -0.4396  1.0907
  454TIP3    H222922   0.615   0.201  32.770 -1.2954 -1.3646  0.5948
  455TIP3   OH222923   0.193   3.377   6.682  0.5875  0.1074  0.0035
  455TIP3    H122924   0.164   3.451   6.628  1.1412  1.3058  1.2924
  455TIP3    H222925   0.130   3.307   6.662  0.2675  0.7790 -1.5194
  456TIP3   OH222926   2.983   0.016   3.508  0.3170 -0.7431  0.1536
  456TIP3    H122927   3.061   0.053   3.466 -0.9122 -0.6089 -2.1564
  456TIP3    H222928   2.928   0.091   3.528 -0.4198 -1.0261 -0.7863
  457TIP3   OH222929   1.525   1.053   3.692  0.0791  0.4623 -0.0542
  457TIP3    H122930   1.533   1.025   3.601 -0.2730  0.8794 -0.2213
  457TIP3    H222931   1.470   1.132   3.687  0.5350  0.8151  0.4574
  458TIP3   OH222932   2.822   2.763  27.821 -0.5790  0.0029 -0.2033
  458TIP3    H122933   2.891   2.700  27.801  0.8389  0.9383  1.4082
  458TIP3    H222934   2.829   2.829  27.752  0.2971  0.1744  0.0324
  459TIP3   OH222935   1.815   2.197   0.234  0.3176  0.5029 -0.5103
  459TIP3    H122936   1.736   2.250   0.246  0.3206  0.3377  0.3603
  459TIP3    H222937   1.783   2.107   0.226  0.4603  0.1961  1.6396
  460TIP3   OH222938   0.741   2.343  27.882 -0.4019  0.0197 -0.0636
  460TIP3    H122939   0.700   2.269  27.927 -0.2321  0.2627  0.4954
  460TIP3    H222940   0.801   2.302  27.820 -0.2065 -0.3121  0.3390
  461TIP3   OH222941   2.185   2.396   4.180  0.3269  0.1460  0.2171
  461TIP3    H122942   2.273   2.400   4.144 -0.3463  1.3262 -1.4174
  461TIP3    H222943   2.173   2.303   4.202  2.0316  0.0070  0.6708
  462TIP3   OH222944   0.620   2.268   4.152 -0.5808 -0.1102  0.3936
  462TIP3    H122945   0.686   2.292   4.216 -0.1273  0.9249 -0.4301
  462TIP3    H222946   0.537   2.275   4.199 -0.0987 -2.6770  1.8181
  463TIP3   OH222947   2.842   2.431  19.423  0.2380 -1.2378 -0.1094
  463TIP3    H122948   2.799   2.346  19.411 -0.8766 -0.5381 -1.3233
  463TIP3    H222949   2.771   2.490  19.447  0.9796 -0.5946  0.5464
  464TIP3   OH222950   3.513   0.086   1.411 -0.1169 -0.0605  0.4042
  464TIP3    H122951   3.523   0.174   1.374  0.1873  0.3539  1.4298
  464TIP3    H222952   3.487   0.101   1.502 -0.2810 -1.0443  0.5345
  465TIP3   OH222953   1.750   1.392  28.987  0.5531 -0.0167  0.6206
  465TIP3    H122954   1.794   1.477  28.982  0.5161 -0.0422 -0.3708
  465TIP3    H222955   1.821   1.328  28.992  0.6371 -0.0232 -0.4071
  466TIP3   OH222956   3.329   0.994  30.173  0.5382 -0.2781 -0.5186
  466TIP3    H122957   3.237   0.980  30.148  0.0648  2.1143 -0.3226
  466TIP3    H222958   3.377   0.991  30.090  0.5920 -3.1137 -0.4797
  467TIP3   OH222959   1.556   2.064  28.711  0.1732  0.8040  0.1927
  467TIP3    H122960   1.566   2.152  28.748  0.4016  1.7811 -2.0151
  467TIP3    H222961   1.533   2.009  28.786 -0.2287  2.7751  1.6084
  468TIP3   OH222962   2.708   3.134   6.038  0.3590 -0.7648 -0.1058
  468TIP3    H122963   2.677   3.048   6.009 -0.9702 -0.0774 -0.8092
  468TIP3    H222964   2.693   3.134   6.132  1.6791 -1.8033  0.1401
  469TIP3   OH222965   3.424   1.117  28.878 -0.1871  0.2085 -0.0574
  469TIP3    H122966   3.382   1.162  28.952  0.9202 -0.8744  1.2789
  469TIP3    H222967   3.386   1.030  28.879 -0.0142  0.1220 -0.6584
  470TIP3   OH222968   0.691   3.083   0.232  0.1534 -0.3644 -0.3696
  470TIP3    H122969   0.596   3.066   0.235  0.0900 -0.4405 -2.0464
  470TIP3    H222970   0.731   2.996   0.234  0.1643 -0.3580 -0.3015
  471TIP3   OH222971   2.109   1.694  17.515 -0.7103 -0.2113 -0.5050
  471TIP3    H122972   2.090   1.606  17.483 -2.1098 -0.7343  1.5924
  471TIP3    H222973   2.049   1.751  17.466 -1.3491 -0.7153 -0.3199
  472TIP3   OH222974   2.037   1.116  28.318 -0.4507 -0.4778 -0.1057
  472TIP3    H122975   2.028   1.146  28.228  0.0202 -0.7093 -0.2342
  472TIP3    H222976   2.066   1.025  28.310  0.9101 -0.1061  0.2599
  473TIP3   OH222977   2.308   3.497  12.440 -0.7783 -0.1385 -0.8760
  473TIP3    H122978   2.300   3.432  12.510 -0.5461  1.3229  0.5643
  473TIP3    H222979   2.253   3.462  12.369 -1.7118 -1.2549  0.3431
  474TIP3   OH222980   0.359   0.444  32.172  0.0057  0.2316  0.2969
  474TIP3    H122981   0.374   0.358  32.134 -2.1280  0.5594 -1.4722
  474TIP3    H222982   0.305   0.427  32.249 -0.1689 -0.0352  0.1177
  475TIP3   OH222983   0.967   0.936   6.787  0.4500 -0.1176 -0.3377
  475TIP3    H122984   0.894   0.931   6.725 -0.7024  2.6902  0.6378
  475TIP3    H222985   0.995   1.027   6.784  1.8752 -0.4227  1.6123
  476TIP3   OH222986   3.212   2.006   3.851 -0.0890  0.0496  0.6956
  476TIP3    H122987   3.145   2.014   3.919 -1.2347  0.2896 -0.4423
  476TIP3    H222988   3.173   2.044   3.773  1.7064  1.0594  0.2087
  477TIP3   OH222989   2.955   1.109  31.568  0.5778  0.1424 -0.5159
  477TIP3    H122990   2.865   1.142  31.570  0.5255 -0.0160  0.6022
  477TIP3    H222991   3.009   1.187  31.554  0.3553  0.5081  0.5284
  478TIP3   OH222992   2.712   1.882  31.349  0.1441 -0.3925  0.2336
  478TIP3    H122993   2.710   1.793  31.386  1.1789 -0.5521 -0.0801
  478TIP3    H222994   2.774   1.877  31.277  0.3944  0.6487  0.3637
  479TIP3   OH222995   2.435   0.043  13.517  0.4735 -0.2706 -0.0460
  479TIP3    H122996   2.416   0.097  13.594  0.7507  0.6782 -0.6282
  479TIP3    H222997   2.465  -0.041  13.553 -2.0575 -0.8523  0.9000
  480TIP3   OH222998   2.543   0.662  30.665  0.2085  0.8823  0.4257
  480TIP3    H122999   2.449   0.680  30.675 -0.5750 -1.3215 -1.7914
  480TIP3    H223000   2.577   0.661  30.755 -1.8527  1.8593  1.2839
  481TIP3   OH223001   1.156   1.875  23.372  0.0789 -0.2378  0.2833
  481TIP3    H123002   1.207   1.944  23.414  0.0839 -0.1992  0.2138
  481TIP3    H223003   1.221   1.821  23.327  0.1066 -0.4638  0.5843
  482TIP3   OH223004   1.811   1.258  20.340  0.0139 -0.3410 -0.3747
  482TIP3    H123005   1.801   1.239  20.246 -0.8763 -3.0780  0.1971
  482TIP3    H223006   1.823   1.173  20.381 -0.2419  0.7345  2.1133
  483TIP3   OH223007   3.267   1.811  32.744  0.3257  0.1093  0.2634
  483TIP3    H123008   3.194   1.814  32.807 -0.3249 -0.5893 -0.4398
  483TIP3    H223009   3.238   1.751  32.676  0.0745  2.4659 -1.8686
  484TIP3   OH223010   0.408   2.012   6.636  0.3632 -0.4314 -0.2417
  484TIP3    H123011   0.491   1.979   6.601 -0.0409 -1.2958 -0.4073
  484TIP3    H223012   0.342   1.952   6.601 -0.1683 -0.6951  1.1700
  485TIP3   OH223013   3.348   1.869  19.904 -0.2161  0.9724 -0.7601
  485TIP3    H123014   3.256   1.882  19.878 -0.3680  1.5461  0.0355
  485TIP3    H223015   3.385   1.957  19.903 -0.1754  0.9845  0.7532
  486TIP3   OH223016   3.368   0.925  28.646  0.6920  0.2783  0.1331
  486TIP3    H123017   3.294   0.976  28.678  0.8368  0.6954 -0.1890
  486TIP3    H223018   3.338   0.834  28.649  0.4323  0.3804  0.7157
  487TIP3   OH223019   3.466   0.528  25.899  0.6801 -0.0865  0.6979
  487TIP3    H123020   3.392   0.498  25.847  0.7895 -0.7465  0.9071
  487TIP3    H223021   3.526   0.567  25.836  0.6972 -0.6465  0.3624
  488TIP3   OH223022   1.991   2.968  25.957 -0.0313 -0.3188  0.2365
  488TIP3    H123023   1.985   2.876  25.984  0.8590  0.4600  3.5365
  488TIP3    H223024   1.911   3.008  25.990  0.6364  0.5048  0.8976
  489TIP3   OH223025   1.147   1.638   2.978 -0.1111 -0.3755  0.1077
  489TIP3    H123026   1.162   1.545   2.958 -0.5236 -0.1240 -1.5521
  489TIP3    H223027   1.052   1.644   2.989 -0.1686 -0.0260 -0.5533
  490TIP3   OH223028   1.238   0.934  26.622 -0.4907  0.2613  0.7324
  490TIP3    H123029   1.147   0.946  26.595 -0.8126 -1.0941  1.1510
  490TIP3    H223030   1.241   0.968  26.711 -0.6039  0.2438  0.7428
  491TIP3   OH223031   2.464   0.808   1.255 -0.0158 -0.0194 -0.0595
  491TIP3    H123032   2.501   0.732   1.210  1.0431 -0.1932  1.0262
  491TIP3    H223033   2.541   0.854   1.290 -0.7158  0.8487  0.3793
  492TIP3   OH223034   2.982   1.664  32.259 -0.0431 -0.0157  0.0891
  492TIP3    H123035   2.920   1.733  32.283 -0.8439 -0.4028 -0.7937
  492TIP3    H223036   2.928   1.596  32.218  1.0128 -0.0964 -1.2569
  493TIP3   OH223037   1.510   1.650   2.724 -0.0637 -0.1757  0.0895
  493TIP3    H123038   1.562   1.697   2.659  0.2288 -0.9332 -0.2355
  493TIP3    H223039   1.422   1.686   2.714  0.1372  0.2475 -0.2013
  494TIP3   OH223040   1.339   3.053  27.005  0.4850 -0.0164 -0.0250
  494TIP3    H123041   1.424   3.037  26.963  1.2807  0.3300  1.4168
  494TIP3    H223042   1.296   3.116  26.947  1.2909 -0.0216 -0.6485
  495TIP3   OH223043   3.407   3.194  31.806 -0.2972  0.4126 -0.4106
  495TIP3    H123044   3.448   3.144  31.876  0.6811  1.4431 -0.2064
  495TIP3    H223045   3.465   3.183  31.731 -1.3322 -0.6714 -1.0722
  496TIP3   OH223046   0.222   0.756  27.772  0.9078 -0.3132  0.6423
  496TIP3    H123047   0.144   0.705  27.750 -0.3612  1.6616  0.3632
  496TIP3    H223048   0.256   0.786  27.688  2.6351 -2.0009  0.6742
  497TIP3   OH223049   3.521   1.238   0.948 -0.8991  0.2419 -0.0079
  497TIP3    H123050   3.476   1.183   1.011 -1.0540  0.2900 -0.0755
  497TIP3    H223051   3.477   1.220   0.864  0.0301 -0.6581 -0.3190
  498TIP3   OH223052   1.035   3.181  26.441 -0.4270  0.4054 -0.0762
  498TIP3    H123053   1.107   3.243  26.454 -0.2809 -0.1046  1.9164
  498TIP3    H223054   1.074   3.096  26.464 -1.3137 -0.0513 -0.2548
  499TIP3   OH223055   2.621   2.810   7.290  0.4362  0.5872 -0.0318
  499TIP3    H123056   2.647   2.728   7.333  1.5617 -0.7587 -2.9404
  499TIP3    H223057   2.529   2.821   7.312  0.0967 -1.8153  0.0375
  500TIP3   OH223058   0.652   1.926   5.899  0.4265  0.1255 -0.5786
  500TIP3    H123059   0.648   1.836   5.866  0.5254  0.0124 -0.2842
  500TIP3    H223060   0.738   1.931   5.942  0.3249  0.2940 -0.3986
  501TIP3   OH223061   0.179   0.930   7.517  0.1276  0.2226 -0.0671
  501TIP3    H123062   0.140   0.908   7.432  0.6103 -0.5837 -0.0952
  501TIP3    H223063   0.223   0.849   7.544 -0.9812  0.0945  1.5019
  502TIP3   OH223064   2.608   0.277  26.411  0.0448 -0.1522 -0.1380
  502TIP3    H123065   2.698   0.304  26.391 -0.5212  0.5230 -2.0975
  502TIP3    H223066   2.616   0.222  26.489  2.4038 -1.7136 -1.3382
  503TIP3   OH223067   2.830   0.454   4.560 -0.4693  0.5805 -0.0034
  503TIP3    H123068   2.897   0.521   4.547 -0.1345  0.0493 -1.1157
  503TIP3    H223069   2.761   0.499   4.609  0.0202  1.5637 -0.1884
  504TIP3   OH223070   2.695   3.259  32.179  0.1487 -0.0767 -0.2221
  504TIP3    H123071   2.788   3.278  32.182 -0.4943  5.1234 -2.2106
  504TIP3    H223072   2.660   3.301  32.257 -0.8804  2.7045 -2.0314
  505TIP3   OH223073   3.150   1.033  28.721 -0.1744  0.0264 -0.0966
  505TIP3    H123074   3.089   1.104  28.703 -1.2423 -0.8362  0.0021
  505TIP3    H223075   3.145   1.021  28.816  0.2910  0.0687 -0.0643
  506TIP3   OH223076   1.136   1.567  31.613 -0.2693  0.2041 -0.0981
  506TIP3    H123077   1.102   1.478  31.615 -0.3188  0.2045 -0.8945
  506TIP3    H223078   1.058   1.623  31.614 -0.2396  0.2447  0.3333
  507TIP3   OH223079   2.902   0.151  30.331 -0.0217  0.3840  0.1619
  507TIP3    H123080   2.840   0.209  30.375  0.4304  1.8393 -0.9990
  507TIP3    H223081   2.954   0.112  30.402 -0.3453  1.4201  0.9906
  508TIP3   OH223082   0.853   2.937  27.968  0.2315  0.4519 -0.0996
  508TIP3    H123083   0.927   2.883  27.940  1.5613  2.1775 -0.0540
  508TIP3    H223084   0.852   3.011  27.908 -0.8733  0.9602  0.4985
  509TIP3   OH223085   0.226   2.084   2.563  0.4292 -0.0819 -0.0560
  509TIP3    H123086   0.173   2.066   2.485 -0.4097  3.0204 -0.3085
  509TIP3    H223087   0.165   2.073   2.636 -0.1793  1.8607 -0.2331
  510TIP3   OH223088   3.025   1.165   3.767 -0.3198  0.0829 -0.1944
  510TIP3    H123089   3.068   1.188   3.685  0.9869  0.0468  0.4632
  510TIP3    H223090   3.056   1.230   3.830 -1.1437 -0.0156  0.3323
  511TIP3   OH223091   0.283   0.914   4.535  0.3155 -0.4570  0.4163
  511TIP3    H123092   0.291   0.825   4.500  0.4391 -0.3806  0.2551
  511TIP3    H223093   0.324   0.909   4.621  0.6165 -0.4748  0.2724
  512TIP3   OH223094   3.440   3.471  31.858 -0.6189 -0.6798  0.2742
  512TIP3    H123095   3.398   3.387  31.838  0.1947 -1.0876  0.2374
  512TIP3    H223096   3.368   3.528  31.886 -1.6670 -0.4553 -2.5704
  513TIP3   OH223097   3.433   2.322  29.340  0.8318 -0.7487 -0.2432
  513TIP3    H123098   3.474   2.351  29.422  0.4728  2.5332 -1.0629
  513TIP3    H223099   3.390   2.240  29.362  1.2188 -0.2688  2.7110
  514TIP3   OH223100   0.238   0.041  31.405 -0.3448 -0.5997  0.1387
  514TIP3    H123101   0.152   0.065  31.370 -0.0460 -0.1227 -0.2691
  514TIP3    H223102   0.237   0.075  31.495 -0.2682  0.1522 -0.1398
  515TIP3   OH223103   0.256   2.441  26.030 -0.2517 -0.1073 -0.0750
  515TIP3    H123104   0.197   2.394  25.972  0.3882 -1.2721  0.1868
  515TIP3    H223105   0.200   2.504  26.076 -0.8056  0.7215 -1.7924
  516TIP3   OH223106   1.796   1.470  29.551  0.1573 -0.3511 -0.2876
  516TIP3    H123107   1.799   1.565  29.541  0.8550 -0.2132  0.9873
  516TIP3    H223108   1.810   1.436  29.463 -0.9142  0.7140 -0.9080
  517TIP3   OH223109   2.179   3.484   5.190 -0.2182  0.0076 -0.3080
  517TIP3    H123110   2.109   3.533   5.145 -2.2090 -1.7327  0.7087
  517TIP3    H223111   2.221   3.434   5.120 -0.8273  0.1281 -0.7740
  518TIP3   OH223112   2.313   3.253   2.882  0.9389  0.3149 -0.1867
  518TIP3    H123113   2.400   3.227   2.913  0.3050  0.0783  1.4994
  518TIP3    H223114   2.254   3.228   2.952 -0.5104  0.4932 -1.2934
  519TIP3   OH223115   1.433   3.319   2.618  0.2799 -0.4059  0.6017
  519TIP3    H123116   1.367   3.304   2.550  0.4047 -1.9938  0.7813
  519TIP3    H223117   1.414   3.253   2.685  0.4622  0.8148  1.8931
  520TIP3   OH223118   1.407   3.269  11.908  0.1618 -0.7912  0.3910
  520TIP3    H123119   1.488   3.240  11.950  0.2610 -0.5259  0.3854
  520TIP3    H223120   1.365   3.325  11.973  0.7799  0.4037 -0.1962
  521TIP3   OH223121   2.439   0.123   5.846  0.4370  0.3547  0.0579
  521TIP3    H123122   2.378   0.082   5.907  0.3544  0.9370  0.3783
  521TIP3    H223123   2.415   0.216   5.847 -0.4098  0.2031 -1.8476
  522TIP3   OH223124   0.737   3.065  32.663 -0.2033 -0.0104  0.1831
  522TIP3    H123125   0.746   3.074  32.569 -1.4144 -1.2930 -0.0960
  522TIP3    H223126   0.770   3.147  32.699 -1.4001  1.2574 -1.4597
  523TIP3   OH223127   3.203   1.977  28.190 -0.3154 -0.1676  0.2084
  523TIP3    H123128   3.256   1.958  28.113  0.3290 -0.1391  0.6357
  523TIP3    H223129   3.264   2.015  28.253 -1.1041  1.1515  0.2319
  524TIP3   OH223130   1.924   3.520  28.556  0.2720 -0.8962 -0.0947
  524TIP3    H123131   1.901   3.605  28.593  1.1380 -0.5864 -0.2586
  524TIP3    H223132   1.990   3.539  28.490  2.3278 -1.9078  1.5633
  525TIP3   OH223133   0.423   1.842  27.665 -0.4765  0.1243 -0.0107
  525TIP3    H123134   0.338   1.847  27.709 -0.0387 -0.6942  0.9752
  525TIP3    H223135   0.431   1.926  27.620 -1.2015  0.7873  1.0193
  526TIP3   OH223136   1.198   2.904   5.484 -0.5921  0.0929 -0.1553
  526TIP3    H123137   1.241   2.969   5.429 -2.6719  0.3848 -1.5699
  526TIP3    H223138   1.261   2.832   5.492  1.8996  2.2916  1.6902
  527TIP3   OH223139   2.625   2.352   0.626 -0.1167 -0.1450  0.1594
  527TIP3    H123140   2.582   2.267   0.621 -0.4205 -0.0642  1.1140
  527TIP3    H223141   2.714   2.331   0.655 -0.9033 -0.0164  3.0079
  528TIP3   OH223142   2.400   2.272  31.505  0.2207 -0.1908 -1.1853
  528TIP3    H123143   2.458   2.215  31.455  1.0561 -0.7585  0.3480
  528TIP3    H223144   2.344   2.212  31.554 -0.1380  0.3234 -0.9587
  529TIP3   OH223145   0.069   3.155   3.385  0.2048 -0.3428  0.0605
  529TIP3    H123146   0.045   3.243   3.357 -1.1584 -1.0864 -1.3120
  529TIP3    H223147   0.016   3.139   3.463 -0.0149 -0.1402 -0.0457
  530TIP3   OH223148   2.076   0.949   3.786  0.1334  0.6814 -0.2285
  530TIP3    H123149   2.075   0.939   3.691  0.1267  1.7718 -0.3519
  530TIP3    H223150   1.997   0.905   3.816 -0.4510  1.3071 -0.8313
  531TIP3   OH223151   3.096   2.919  29.365  0.0455  0.5585  0.0721
  531TIP3    H123152   3.158   2.848  29.350  1.0592  1.1525  1.2784
  531TIP3    H223153   3.034   2.913  29.293 -0.1573 -1.8180  0.3769
  532TIP3   OH223154   0.437   1.307   5.528  0.4568  0.2165 -0.2082
  532TIP3    H123155   0.389   1.256   5.593  0.3530  1.5172  0.7725
  532TIP3    H223156   0.370   1.340   5.468 -0.0651  2.4678  1.4574
  533TIP3   OH223157   0.315   1.000   3.041  0.3853  0.0286  0.3450
  533TIP3    H123158   0.405   1.019   3.068 -0.1693  2.2485  0.8997
  533TIP3    H223159   0.320   0.992   2.945  1.2962 -0.8347  0.4509
  534TIP3   OH223160   3.423   1.953   0.971  0.1349 -0.9541  0.3666
  534TIP3    H123161   3.505   1.935   0.925 -0.1388 -0.6360 -0.2568
  534TIP3    H223162   3.378   1.868   0.974 -0.9097 -0.5561 -2.0873
  535TIP3   OH223163   1.148   0.849   3.030  0.4261  0.1900  0.9455
  535TIP3    H123164   1.079   0.910   3.056 -0.5962  0.0469 -1.1960
  535TIP3    H223165   1.225   0.878   3.079 -0.7906  1.2125  2.3551
  536TIP3   OH223166   2.381   2.913  25.697 -0.4640 -0.6329  0.1901
  536TIP3    H123167   2.303   2.859  25.713 -0.8123 -0.6468 -1.3850
  536TIP3    H223168   2.448   2.851  25.669 -1.0758 -0.2522 -2.3477
  537TIP3   OH223169   0.566   3.407  31.871 -0.0683  0.5522  0.2427
  537TIP3    H123170   0.506   3.405  31.796  0.4459 -1.3915 -0.1732
  537TIP3    H223171   0.650   3.434  31.833  0.4959 -1.6091 -0.1944
  538TIP3   OH223172   2.752   1.409   7.669 -0.0277  0.2059 -0.2574
  538TIP3    H123173   2.822   1.451   7.620 -0.2512  1.2863  0.3082
  538TIP3    H223174   2.695   1.482   7.695 -0.6917 -0.5128  0.3391
  539TIP3   OH223175   2.968   1.844  19.704  0.2081 -0.1400 -0.2019
  539TIP3    H123176   2.973   1.807  19.616 -0.7583  1.1717 -0.8502
  539TIP3    H223177   2.877   1.834  19.729  0.4003 -0.1617  0.5028
  540TIP3   OH223178   2.000   1.691  20.528  0.3346  0.4434 -0.6022
  540TIP3    H123179   1.945   1.617  20.555  0.6252  0.7605  0.9696
  540TIP3    H223180   2.085   1.673  20.568  0.9603  0.7283 -1.7472
  541TIP3   OH223181   1.206   3.287  27.173 -0.1851 -0.7950  0.2767
  541TIP3    H123182   1.216   3.194  27.194 -1.2317 -0.7268  1.1666
  541TIP3    H223183   1.112   3.299  27.164  0.0075 -0.0358 -0.9467
  542TIP3   OH223184   2.422   0.279   1.873 -1.8117 -0.4403  0.1092
  542TIP3    H123185   2.447   0.261   1.964 -1.8625 -1.1201 -0.0095
  542TIP3    H223186   2.455   0.204   1.823 -2.9998 -0.7595 -0.2250
  543TIP3   OH223187   2.879   2.374   1.477 -0.1088 -0.6877  0.1047
  543TIP3    H123188   2.905   2.290   1.516  0.2467 -0.4789  0.3365
  543TIP3    H223189   2.813   2.352   1.412  0.5117 -1.2298 -0.3602
  544TIP3   OH223190   1.988   2.683   0.923  0.6778  0.1257  0.1081
  544TIP3    H123191   2.056   2.750   0.921  0.2176  0.6152 -1.7150
  544TIP3    H223192   2.034   2.600   0.914  1.0785  0.4186 -0.6043
  545TIP3   OH223193   2.956   1.346   6.915 -0.3010  0.2879  0.5069
  545TIP3    H123194   2.993   1.297   6.988 -1.9281  0.3030  1.4043
  545TIP3    H223195   3.012   1.325   6.841  0.5148 -0.9340  1.4238
  546TIP3   OH223196   1.489   1.364   1.634  0.2296  0.0775  0.3646
  546TIP3    H123197   1.448   1.302   1.573  1.4066 -1.1387  0.7570
  546TIP3    H223198   1.416   1.406   1.678 -0.6408 -1.8127  0.8386
  547TIP3   OH223199   2.110   2.826   6.617 -0.3521 -0.3953 -0.3688
  547TIP3    H123200   2.187   2.859   6.571 -0.0543  1.2339  1.1715
  547TIP3    H223201   2.086   2.746   6.570  1.3645 -0.1339 -1.7992
  548TIP3   OH223202   1.085   1.128   4.517  0.0046 -0.0409  0.5564
  548TIP3    H123203   1.068   1.128   4.423 -0.4057 -1.6524  0.6152
  548TIP3    H223204   1.153   1.195   4.528  0.5392 -0.2903 -0.9691
  549TIP3   OH223205   1.192   1.373  29.945  0.6776  0.1014 -0.7240
  549TIP3    H123206   1.118   1.411  29.897  0.4942  0.8004  0.0829
  549TIP3    H223207   1.268   1.393  29.891  0.9672  4.0161  0.8528
  550TIP3   OH223208   0.702   2.224  27.459 -0.1779  0.6717  0.2275
  550TIP3    H123209   0.610   2.197  27.468  0.0960 -1.2344 -1.9546
  550TIP3    H223210   0.705   2.273  27.377  0.8046  0.4927  0.1474
  551TIP3   OH223211   2.052   2.150  30.830  0.3687 -0.0601 -0.3718
  551TIP3    H123212   2.089   2.125  30.746  1.0141 -1.3601  0.2764
  551TIP3    H223213   2.128   2.175  30.883  0.0786 -0.3552  0.1906
  552TIP3   OH223214   0.315   2.745  29.846  0.0677 -0.7966  0.4518
  552TIP3    H123215   0.230   2.713  29.814 -0.1749 -0.5878  0.8722
  552TIP3    H223216   0.350   2.672  29.898 -0.2064 -0.6063  0.9086
  553TIP3   OH223217   3.464   2.364   4.626  0.2967 -0.0352 -0.1722
  553TIP3    H123218   3.472   2.393   4.717 -0.5365  2.3915 -0.8015
  553TIP3    H223219   3.396   2.419   4.589 -1.1538 -2.6314 -1.6820
  554TIP3   OH223220   2.437   3.250   2.440  0.1517 -0.4947  0.0918
  554TIP3    H123221   2.451   3.204   2.357 -2.8211  1.8571 -1.9381
  554TIP3    H223222   2.490   3.329   2.434 -1.2793  0.4795 -0.4098
  555TIP3   OH223223   1.434   2.373  25.862  0.5990 -0.2976 -0.3509
  555TIP3    H123224   1.511   2.325  25.892 -1.2793 -2.7911  0.7920
  555TIP3    H223225   1.460   2.408  25.776  2.3675 -2.6831 -0.8831
  556TIP3   OH223226   0.986   2.496   5.922  0.6607  0.3805  0.5172
  556TIP3    H123227   0.974   2.454   5.837  0.3926  2.3253 -0.4499
  556TIP3    H223228   0.899   2.525   5.948  0.9509  1.0273  0.7859
  557TIP3   OH223229   0.202   1.008   5.456  0.2991 -0.6359 -0.6222
  557TIP3    H123230   0.185   0.917   5.431 -0.6665 -0.9750  1.1183
  557TIP3    H223231   0.160   1.059   5.387 -1.8965 -1.5351 -0.0492
  558TIP3   OH223232   1.983   1.751  29.621  0.0191 -0.3731  0.3234
  558TIP3    H123233   1.938   1.748  29.705 -1.2376 -1.9956 -0.3637
  558TIP3    H223234   1.914   1.738  29.556  0.9315  1.0967 -1.0007
  559TIP3   OH223235   2.244   2.110  29.327 -0.0399  0.0997 -0.6009
  559TIP3    H123236   2.270   2.049  29.396 -1.3983  1.0787  0.8290
  559TIP3    H223237   2.269   2.196  29.359 -1.3443  0.6478 -0.9786
  560TIP3   OH223238   1.774   3.035  26.345  0.1964  0.3795  0.1408
  560TIP3    H123239   1.689   3.005  26.313 -0.5581  2.6319 -0.1404
  560TIP3    H223240   1.769   3.025  26.440 -0.7384  1.2684  0.2023
  561TIP3   OH223241   2.600   2.228  30.373 -0.2554 -0.0929  0.0094
  561TIP3    H123242   2.507   2.225  30.398 -0.8054 -3.4515 -1.8821
  561TIP3    H223243   2.612   2.152  30.316  4.1165 -0.8519  1.5913
  562TIP3   OH223244   3.125   1.474  26.346 -0.3449  0.4727  0.4414
  562TIP3    H123245   3.031   1.472  26.362 -0.3905  0.0587  0.1331
  562TIP3    H223246   3.147   1.567  26.342 -0.8183  0.5737  0.0720
  563TIP3   OH223247   0.137   2.037   5.113  0.2601  0.5624 -0.3622
  563TIP3    H123248   0.058   1.997   5.148  0.9861  0.1625  0.8757
  563TIP3    H223249   0.146   2.001   5.025 -1.9608  2.0776 -1.3026
  564TIP3   OH223250   0.524   1.177   4.476 -0.2290  0.9225 -0.1271
  564TIP3    H123251   0.612   1.215   4.468 -0.6472  2.0435  0.3382
  564TIP3    H223252   0.538   1.092   4.518  0.8365  0.0372 -2.1690
  565TIP3   OH223253   2.530   1.357  29.858 -0.3857 -0.1331  0.0588
  565TIP3    H123254   2.513   1.379  29.767  0.2653  0.4722  0.0730
  565TIP3    H223255   2.512   1.263  29.864  1.5851 -0.6440 -1.2103
  566TIP3   OH223256   1.332   0.369  12.385 -0.0777  0.1307 -0.1811
  566TIP3    H123257   1.288   0.289  12.413 -2.7800  1.8756  0.9663
  566TIP3    H223258   1.292   0.438  12.438  2.1361  2.2733 -1.1090
  567TIP3   OH223259   1.146   2.105  28.789 -0.4300 -0.3380 -0.3539
  567TIP3    H123260   1.134   2.055  28.870  0.1028  0.3168  0.1443
  567TIP3    H223261   1.160   2.195  28.819  1.0144 -0.2792 -1.1119
  568TIP3   OH223262   1.625   2.956  26.985  0.3901 -0.1524  0.1344
  568TIP3    H123263   1.551   2.900  27.009  1.1857 -1.2943 -0.0170
  568TIP3    H223264   1.680   2.901  26.930  0.3055  1.3466 -1.5639
  569TIP3   OH223265   2.185   1.958   5.541 -0.4922 -0.5288 -0.6698
  569TIP3    H123266   2.230   2.042   5.531 -0.5583 -0.4733 -0.4972
  569TIP3    H223267   2.256   1.894   5.543 -0.4003 -0.4074 -0.0303
  570TIP3   OH223268   2.723   3.341   0.446 -0.4652  0.0370 -0.0616
  570TIP3    H123269   2.814   3.371   0.440 -0.2475 -0.7262 -0.7465
  570TIP3    H223270   2.673   3.419   0.470  0.4786  0.2945  1.1875
  571TIP3   OH223271   1.207   1.889   2.358 -0.3586 -0.0046 -0.0050
  571TIP3    H123272   1.212   1.979   2.389 -1.2791  0.4903 -1.1732
  571TIP3    H223273   1.140   1.891   2.289  0.3357 -1.3704 -0.7817
  572TIP3   OH223274   1.023   0.202  14.026 -0.5189  0.1365  0.2565
  572TIP3    H123275   1.079   0.241  13.958  0.5571 -0.2501  0.8983
  572TIP3    H223276   0.991   0.121  13.988 -0.3542  0.1814  0.0219
  573TIP3   OH223277   1.265   0.131  32.074 -0.8793 -0.4267  0.1632
  573TIP3    H123278   1.259   0.165  32.163  2.3349 -0.3314  0.4674
  573TIP3    H223279   1.292   0.207  32.022  0.2971 -1.1259 -0.2817
  574TIP3   OH223280   1.944   1.448   1.549  0.1727  0.3633  0.3932
  574TIP3    H123281   1.982   1.366   1.517 -0.3832 -0.0029  0.6573
  574TIP3    H223282   1.892   1.423   1.626 -0.9269  0.7864 -0.1859
  575TIP3   OH223283   0.832   2.641   6.133  0.0094 -0.0449 -0.0653
  575TIP3    H123284   0.837   2.642   6.229 -0.7450  0.9076 -0.0233
  575TIP3    H223285   0.740   2.625   6.113  0.4851 -2.3790 -0.6795
  576TIP3   OH223286   0.904   3.327   4.738 -0.0038  0.0283  0.3508
  576TIP3    H123287   0.829   3.349   4.794 -0.8165 -2.0241  0.1661
  576TIP3    H223288   0.871   3.258   4.680  1.5564  0.3151 -0.9381
  577TIP3   OH223289   1.466   1.057   0.907 -0.5059  0.1702 -0.0432
  577TIP3    H123290   1.416   1.000   0.849 -1.4580  1.2046 -0.2849
  577TIP3    H223291   1.400   1.115   0.946  0.4927  1.5818 -0.3678
  578TIP3   OH223292   2.349   1.739  32.163 -0.3952  0.5609  0.0227
  578TIP3    H123293   2.345   1.807  32.230 -1.1040  0.4554  0.0909
  578TIP3    H223294   2.371   1.786  32.082 -1.6574  0.9926 -0.0889
  579TIP3   OH223295   1.297   3.093   3.108  0.4672 -0.4125 -0.4284
  579TIP3    H123296   1.345   3.171   3.078 -1.5420  1.5599  1.1219
  579TIP3    H223297   1.205   3.115   3.093 -0.2358 -1.8738  1.3630
  580TIP3   OH223298   0.455   0.615  30.526  0.2156  0.3649 -0.8256
  580TIP3    H123299   0.434   0.645  30.614 -0.6342  1.1214 -1.2571
  580TIP3    H223300   0.401   0.671  30.469  1.4340  0.5152 -1.8691
  581TIP3   OH223301   1.604   3.161   7.780  0.2141  0.0813 -0.8726
  581TIP3    H123302   1.624   3.179   7.688 -1.2719  0.9751 -1.0346
  581TIP3    H223303   1.526   3.213   7.799  0.0488 -0.6837  0.6864
  582TIP3   OH223304   3.492   0.984   0.331 -0.1248 -0.6339 -0.4174
  582TIP3    H123305   3.573   1.030   0.351  0.0306 -0.5182 -1.2687
  582TIP3    H223306   3.486   0.987   0.235 -2.4262  1.6306 -0.3204
  583TIP3   OH223307   1.609   2.042   3.897  0.0672  0.2033  0.1578
  583TIP3    H123308   1.540   2.024   3.961  0.4337 -0.4632  0.3796
  583TIP3    H223309   1.564   2.086   3.825 -1.1342 -2.4814 -0.8724
  584TIP3   OH223310   0.816   1.643  29.195 -1.1042 -0.6758 -0.5017
  584TIP3    H123311   0.757   1.684  29.258 -0.8076 -0.0638 -0.6165
  584TIP3    H223312   0.760   1.585  29.143 -1.5596 -0.2658 -0.4688
  585TIP3   OH223313   2.333   0.047  27.501  0.0165  0.6572  0.1476
  585TIP3    H123314   2.350  -0.024  27.440  1.4958  1.8036 -0.8290
  585TIP3    H223315   2.241   0.070  27.486  0.3283  0.8696 -1.6179
  586TIP3   OH223316   3.002   3.128   1.619  0.0856  0.0645  0.0728
  586TIP3    H123317   2.944   3.055   1.598  1.9329 -1.5772  0.3080
  586TIP3    H223318   3.083   3.086   1.649  1.5306  2.2075 -0.5807
  587TIP3   OH223319   2.278   3.464   2.152  0.1412 -0.3661 -0.2623
  587TIP3    H123320   2.243   3.436   2.237  0.6724  0.8443  0.3768
  587TIP3    H223321   2.240   3.402   2.089  0.2938 -1.7180  0.9258
  588TIP3   OH223322   2.115   0.002  29.079 -0.1629  0.4633 -0.5057
  588TIP3    H123323   2.200  -0.043  29.084 -0.2672  0.1879 -1.1419
  588TIP3    H223324   2.064  -0.049  29.016 -1.7249 -0.8942  1.7170
  589TIP3   OH223325   2.733   3.413   7.098  0.4323 -0.2981  0.6919
  589TIP3    H123326   2.640   3.390   7.105  1.1810 -3.7826  0.9430
  589TIP3    H223327   2.752   3.459   7.180 -1.1744  1.0891  0.3393
  590TIP3   OH223328   0.638   2.130  29.292  0.8342  0.6298 -0.0408
  590TIP3    H123329   0.576   2.071  29.335 -0.2811  0.0066 -2.3840
  590TIP3    H223330   0.608   2.217  29.317 -0.1424  0.3061 -0.0301
  591TIP3   OH223331   1.108   2.841  13.041  0.1583  0.7170  0.2254
  591TIP3    H123332   1.189   2.892  13.051 -0.4208  1.6839  0.0916
  591TIP3    H223333   1.059   2.857  13.121 -0.0148  0.3303  0.1992
  592TIP3   OH223334   0.809   2.844  29.824  0.1175 -0.6583 -0.3534
  592TIP3    H123335   0.835   2.768  29.876 -0.0147  0.1026  0.8485
  592TIP3    H223336   0.718   2.860  29.848  0.4679  0.5507  0.2742
  593TIP3   OH223337   0.733   2.585  27.114 -0.2762 -0.0874 -0.7146
  593TIP3    H123338   0.800   2.644  27.081 -1.2928  1.1914 -0.5640
  593TIP3    H223339   0.749   2.581  27.208  0.3263 -0.7585 -0.8398
  594TIP3   OH223340   1.491   1.057  27.930 -0.3000 -0.1712 -0.1558
  594TIP3    H123341   1.427   1.129  27.928  0.2955  0.3624 -0.7641
  594TIP3    H223342   1.438   0.978  27.920 -0.9593  0.1822  0.4293
  595TIP3   OH223343   2.256   2.683  25.850 -0.0812  0.1033 -0.5950
  595TIP3    H123344   2.187   2.678  25.783 -1.3345 -3.3394  0.7213
  595TIP3    H223345   2.334   2.649  25.805  0.1461  1.5003 -1.3286
  596TIP3   OH223346   3.404   0.742   3.030  0.7726 -0.5771 -0.0355
  596TIP3    H123347   3.387   0.780   3.117  0.9973 -0.5844  0.0123
  596TIP3    H223348   3.498   0.727   3.029  0.8056 -0.3628 -0.3685
  597TIP3   OH223349   0.299   3.081  26.723 -0.5875  0.4580 -0.1913
  597TIP3    H123350   0.351   3.121  26.653 -1.6940 -0.1203 -1.3948
  597TIP3    H223351   0.210   3.112  26.708 -1.3947 -1.9157 -0.8651
  598TIP3   OH223352   3.273   1.141   4.113 -0.3877  0.0859 -0.5127
  598TIP3    H123353   3.255   1.141   4.207 -2.1592 -2.0688 -0.7878
  598TIP3    H223354   3.264   1.233   4.087 -0.1044  0.6781  1.3530
  599TIP3   OH223355   1.734   0.043   1.992  0.2510 -0.5225  0.1274
  599TIP3    H123356   1.720   0.054   1.898  0.3319  0.3037  0.2073
  599TIP3    H223357   1.829   0.035   2.001  0.1793 -1.5182  0.0506
  600TIP3   OH223358   2.830   2.494  26.038  0.3275 -0.3202  0.1211
  600TIP3    H123359   2.871   2.533  26.116  1.1290  1.3351 -1.0557
  600TIP3    H223360   2.749   2.543  26.027 -0.4518 -1.4581  0.6424
  601TIP3   OH223361   1.161   2.249  27.149 -0.1976  0.1117 -0.3100
  601TIP3    H123362   1.210   2.168  27.165  0.8823  0.9949  1.1014
  601TIP3    H223363   1.099   2.254  27.221  1.3012  1.6384  0.9564
  602TIP3   OH223364   2.758   1.826   3.655 -0.1235 -0.0036  0.0471
  602TIP3    H123365   2.673   1.807   3.695 -0.1682  0.6596  0.2680
  602TIP3    H223366   2.796   1.894   3.710 -0.2028  0.9468 -1.0491
  603TIP3   OH223367   2.326   0.446  29.731  0.8129 -0.1397 -0.4442
  603TIP3    H123368   2.308   0.401  29.813 -0.3643  1.0620 -0.0062
  603TIP3    H223369   2.248   0.430  29.677  1.2921 -0.3699 -1.0836
  604TIP3   OH223370   0.943   3.330   0.750  0.4439  0.5479 -0.5922
  604TIP3    H123371   0.991   3.392   0.806  0.6775  1.1867 -1.4599
  604TIP3    H223372   0.861   3.375   0.731  0.2903  0.2575 -0.6064
  605TIP3   OH223373   2.672   3.367   2.757  0.4295 -0.1821 -0.0838
  605TIP3    H123374   2.637   3.374   2.846  1.6366  1.4953  0.3192
  605TIP3    H223375   2.609   3.415   2.703  0.4460  0.0877  0.1292
  606TIP3   OH223376   2.372   1.196  31.217 -0.1424  0.7676 -0.4078
  606TIP3    H123377   2.356   1.107  31.247  2.1092 -0.2752 -2.0198
  606TIP3    H223378   2.289   1.223  31.177 -0.4695 -1.1711 -1.1626
  607TIP3   OH223379   0.235   2.812   3.946  0.0843  0.3031 -0.3497
  607TIP3    H123380   0.158   2.870   3.940 -1.1100 -1.0636  0.9153
  607TIP3    H223381   0.212   2.736   3.892 -0.3785 -1.0360  1.6394
  608TIP3   OH223382   2.879   2.998  28.314  0.4388  0.1833 -0.0512
  608TIP3    H123383   2.856   3.004  28.221  2.3312 -1.2859 -0.6897
  608TIP3    H223384   2.970   3.026  28.318  1.1215 -1.9577  0.9473
  609TIP3   OH223385   0.132   1.298  30.291  0.1795  0.0029 -0.3962
  609TIP3    H123386   0.159   1.206  30.285 -1.7511 -0.5590 -1.3989
  609TIP3    H223387   0.050   1.296  30.340  0.7724  1.3890  0.7487
  610TIP3   OH223388   0.857   2.940   3.600  0.4491 -0.2891 -0.2598
  610TIP3    H123389   0.828   2.849   3.591 -1.3726  0.3209 -1.0605
  610TIP3    H223390   0.784   2.984   3.643  0.3128  1.2566 -1.9664
  611TIP3   OH223391   3.453   2.164  19.589 -0.2398  0.1194 -0.7729
  611TIP3    H123392   3.460   2.143  19.682  2.2169  1.3154 -0.5961
  611TIP3    H223393   3.369   2.208  19.580 -0.0007  1.0607  1.1440
  612TIP3   OH223394   2.544   1.954  30.339 -0.1689  0.2373  0.1155
  612TIP3    H123395   2.462   1.942  30.388  0.3332 -1.4119  0.6045
  612TIP3    H223396   2.612   1.924  30.399  0.5393 -1.0958 -1.2876
  613TIP3   OH223397   2.419   0.128  27.102 -0.1969 -0.2146 -0.1465
  613TIP3    H123398   2.482   0.186  27.146 -0.4577 -0.9134  1.1630
  613TIP3    H223399   2.339   0.136  27.153 -0.4729 -1.1402 -0.4218
  614TIP3   OH223400   2.449   0.402  30.580 -0.0643 -0.0782 -0.0222
  614TIP3    H123401   2.494   0.485  30.569 -0.0980 -0.1471 -0.6756
  614TIP3    H223402   2.425   0.400  30.673  0.7012  0.2459  0.1872
  615TIP3   OH223403   2.537   2.409  30.172 -0.1779  0.6513  0.2387
  615TIP3    H123404   2.621   2.454  30.183 -0.8446  2.5593 -1.6413
  615TIP3    H223405   2.523   2.363  30.254  1.9281  1.6339  1.2304
  616TIP3   OH223406   0.687   2.821   4.988  0.1536 -0.1153 -0.1043
  616TIP3    H123407   0.637   2.871   5.052  1.4859  1.8055 -0.4895
  616TIP3    H223408   0.644   2.840   4.904  0.1850 -0.2539 -0.1524
  617TIP3   OH223409   1.762   1.553  26.131  0.4294 -0.8358  0.3854
  617TIP3    H123410   1.815   1.501  26.192 -2.2527 -2.7618  1.2807
  617TIP3    H223411   1.736   1.491  26.063 -0.2912  0.1485 -0.2525
  618TIP3   OH223412   0.851   1.396  30.747 -0.0762 -0.0881  0.1322
  618TIP3    H123413   0.852   1.447  30.828 -0.8419  1.0830 -0.5832
  618TIP3    H223414   0.835   1.460  30.678  1.8590 -0.8546 -1.1162
  619TIP3   OH223415   3.254   2.304   0.942  0.9426  0.0504  0.4289
  619TIP3    H123416   3.248   2.209   0.954 -1.4558 -0.1939 -1.7199
  619TIP3    H223417   3.239   2.340   1.029 -1.8903 -1.5711  0.7333
  620TIP3   OH223418   3.517   0.850   6.616 -0.0029 -0.8112 -0.1562
  620TIP3    H123419   3.592   0.809   6.573 -0.2605 -2.0081  0.4905
  620TIP3    H223420   3.452   0.780   6.625 -1.2430  0.2173 -0.7594
  621TIP3   OH223421   2.325   3.332  32.259  0.1811  0.3120 -0.0905
  621TIP3    H123422   2.231   3.323  32.247  0.5513 -1.3177 -2.5322
  621TIP3    H223423   2.349   3.408  32.207  0.3256  0.0598 -0.4019
  622TIP3   OH223424   2.838   0.997  17.704  0.6759  0.4363 -0.3242
  622TIP3    H123425   2.826   0.944  17.625 -0.2997  1.1994 -0.7180
  622TIP3    H223426   2.856   1.085  17.672  0.3383  0.7406  0.2907
  623TIP3   OH223427   1.472   0.756  28.271 -0.4514  0.0360  0.2424
  623TIP3    H123428   1.437   0.827  28.216  0.7769  0.4401 -0.0394
  623TIP3    H223429   1.501   0.800  28.350 -0.0059 -0.2033  0.2108
  624TIP3   OH223430   0.074   1.434   2.050 -0.4023  0.0960  0.2804
  624TIP3    H123431   0.003   1.372   2.032  0.6240 -0.8320 -0.7503
  624TIP3    H223432   0.133   1.386   2.108  0.2767  0.1824 -0.3250
  625TIP3   OH223433   0.525   0.218   6.783 -0.0117 -0.1698 -0.0897
  625TIP3    H123434   0.581   0.208   6.860 -0.4136 -0.9352  0.1149
  625TIP3    H223435   0.576   0.271   6.722  0.2790  0.5280  0.7317
  626TIP3   OH223436   2.136   1.746  30.836 -0.0285 -0.0597 -0.2163
  626TIP3    H123437   2.142   1.671  30.896 -0.2628  0.5900  0.6489
  626TIP3    H223438   2.041   1.758  30.823  0.0353 -0.6392 -1.3083
  627TIP3   OH223439   2.074   0.136   3.536  0.3206  0.3622 -0.3476
  627TIP3    H123440   2.109   0.174   3.455  1.7316  0.1385  0.1300
  627TIP3    H223441   2.050   0.047   3.513  0.3261  0.4344 -0.6311
  628TIP3   OH223442   0.960   3.466  29.173  0.3966  0.0483 -0.3600
  628TIP3    H123443   1.052   3.444  29.166  0.3858 -0.0893 -0.0769
  628TIP3    H223444   0.934   3.435  29.260  0.2436  0.6602 -0.1823
  629TIP3   OH223445   2.107   1.296  25.567  0.1444 -0.1443  0.4797
  629TIP3    H123446   2.076   1.214  25.606  0.3099 -0.4585 -0.0215
  629TIP3    H223447   2.087   1.363  25.631 -1.1454 -0.3951  0.3648
  630TIP3   OH223448   1.358   0.053  31.135  0.2052  0.5285 -0.0351
  630TIP3    H123449   1.326   0.035  31.223  0.5180  1.5769  0.2975
  630TIP3    H223450   1.413   0.131  31.144  0.7734  0.2663 -1.0441
  631TIP3   OH223451   0.014   0.726   4.264 -0.0288 -0.4617  0.5083
  631TIP3    H123452   0.108   0.707   4.264  0.2339  0.5712  2.0921
  631TIP3    H223453   0.009   0.821   4.261 -1.0371 -0.5196  0.1178
  632TIP3   OH223454   3.415   2.555   4.012 -0.2729  0.1006 -0.2085
  632TIP3    H123455   3.330   2.569   3.969  0.4593 -0.9958 -2.1419
  632TIP3    H223456   3.452   2.478   3.967  1.6609  0.4409  0.7157
  633TIP3   OH223457   1.668   3.235  27.125  0.0069  0.2372  0.3099
  633TIP3    H123458   1.644   3.316  27.079 -0.1975  0.0339  0.0503
  633TIP3    H223459   1.612   3.168  27.086 -0.0094  0.0166  0.7048
  634TIP3   OH223460   0.432   3.048  29.377 -0.0173 -0.5957  0.1419
  634TIP3    H123461   0.518   3.052  29.419  1.5818  2.2436 -2.9045
  634TIP3    H223462   0.442   2.981  29.309 -1.2548 -2.2606  1.5077
  635TIP3   OH223463   3.347   3.404   1.485  0.4576 -0.2962 -0.9085
  635TIP3    H123464   3.407   3.331   1.500  0.7428 -0.2784 -1.9434
  635TIP3    H223465   3.403   3.481   1.476  0.2014 -0.0689 -0.6110
  636TIP3   OH223466   3.480   1.572   1.196  0.3204 -0.5229  0.5723
  636TIP3    H123467   3.396   1.587   1.240  0.9627 -0.6763  1.8785
  636TIP3    H223468   3.518   1.496   1.240  1.9159  0.5759  1.2092
  637TIP3   OH223469   1.162   0.623  29.812  0.5097  0.3939 -0.2183
  637TIP3    H123470   1.205   0.539  29.798 -1.1644 -0.6338  0.4344
  637TIP3    H223471   1.099   0.606  29.883 -0.2933  2.0447 -0.4812
  638TIP3   OH223472   0.553   0.957   0.333 -0.1984 -0.9222 -0.4607
  638TIP3    H123473   0.515   0.953   0.245  0.4206  0.3486 -0.8038
  638TIP3    H223474   0.524   1.041   0.368  0.1754 -1.0902  0.2685
  639TIP3   OH223475   1.855   2.880  11.739  0.3594  0.0356  0.4385
  639TIP3    H123476   1.815   2.868  11.825 -2.2231  1.0480 -0.5095
  639TIP3    H223477   1.896   2.796  11.720 -1.4292 -1.1611  1.5402
  640TIP3   OH223478   0.859   1.275   0.950 -0.0702  0.4190 -0.2035
  640TIP3    H123479   0.863   1.363   0.913 -0.1002 -0.2586 -1.8928
  640TIP3    H223480   0.918   1.223   0.895  0.1095 -0.5796  0.8965
  641TIP3   OH223481   1.796   1.980   4.651 -0.1931  0.1018  0.0932
  641TIP3    H123482   1.713   1.999   4.695 -1.2397 -0.5334 -1.4760
  641TIP3    H223483   1.786   2.020   4.564  0.4144 -1.4638 -0.7397
  642TIP3   OH223484   2.997   2.697  32.138 -0.1653  0.2883 -0.5957
  642TIP3    H123485   2.949   2.775  32.166  1.2138  0.9206  0.1305
  642TIP3    H223486   2.935   2.625  32.149 -1.1090  1.1302 -0.2221
  643TIP3   OH223487   3.373   0.655  32.727  0.4159 -0.4191 -0.2884
  643TIP3    H123488   3.330   0.603  32.660  1.1118 -1.4890  0.0728
  643TIP3    H223489   3.459   0.675  32.689  0.1093  0.5937 -0.4741
  644TIP3   OH223490   2.401   3.381  29.618 -0.5804 -0.1135 -0.6649
  644TIP3    H123491   2.307   3.395  29.630 -0.2943  0.8417  0.7293
  644TIP3    H223492   2.432   3.356  29.705  0.5304  0.0431 -1.0035
  645TIP3   OH223493   0.775   2.711   3.259  0.5268 -0.4697  0.6398
  645TIP3    H123494   0.822   2.695   3.341  1.3979 -1.0016  0.0397
  645TIP3    H223495   0.819   2.657   3.194 -0.7118 -0.7332 -0.0169
  646TIP3   OH223496   1.923   2.788  26.588 -0.6136 -0.0348  0.6842
  646TIP3    H123497   1.871   2.810  26.511 -1.2172 -1.2945  0.7035
  646TIP3    H223498   1.958   2.871  26.619  0.1220  0.4446 -1.2944
  647TIP3   OH223499   1.838   1.578  26.873  0.5295  0.1344  0.4865
  647TIP3    H123500   1.873   1.520  26.940  1.8899  0.0234 -0.2795
  647TIP3    H223501   1.794   1.648  26.922  0.8968 -0.3089  1.4718
  648TIP3   OH223502   2.657   1.311  21.285 -0.2165 -0.0290 -0.6589
  648TIP3    H123503   2.622   1.275  21.366 -0.9955  0.6055 -0.7027
  648TIP3    H223504   2.746   1.275  21.279 -1.3333 -2.9837 -1.3325
  649TIP3   OH223505   0.295   3.002   1.456  0.3377 -0.3025 -0.7512
  649TIP3    H123506   0.292   2.906   1.462  0.8881 -0.3175 -0.6772
  649TIP3    H223507   0.298   3.020   1.362  2.9871 -0.4753 -0.7796
  650TIP3   OH223508   1.521   2.180  10.814  0.1413  0.6275  0.0274
  650TIP3    H123509   1.543   2.258  10.865 -0.2556  1.5679 -1.2130
  650TIP3    H223510   1.504   2.113  10.880  0.8483  1.4761  1.1091
  651TIP3   OH223511   0.686   2.549  32.884  0.1549  0.3295 -0.3336
  651TIP3    H123512   0.731   2.626  32.850 -0.3640  1.6561  1.7543
  651TIP3    H223513   0.600   2.551  32.843  0.3787  0.4569 -0.8069
  652TIP3   OH223514   1.890   1.805   2.660 -0.2836  0.0234 -0.1558
  652TIP3    H123515   1.799   1.813   2.634 -0.9775  0.2691  2.1112
  652TIP3    H223516   1.888   1.808   2.756  2.1098  0.0893 -0.0424
  653TIP3   OH223517   1.335   3.090  30.972  0.4606 -0.6446  0.4607
  653TIP3    H123518   1.339   2.997  30.994  2.8679 -0.8847 -0.6309
  653TIP3    H223519   1.335   3.091  30.876  2.5296  0.4382  0.4180
  654TIP3   OH223520   0.385   0.360   2.418 -0.5479 -0.0056  0.1411
  654TIP3    H123521   0.368   0.367   2.512 -1.4282 -1.6999  0.1509
  654TIP3    H223522   0.441   0.434   2.398 -0.5964  0.5630  1.9463
  655TIP3   OH223523   3.373   3.328  29.481  0.6204  0.3354 -0.3558
  655TIP3    H123524   3.317   3.284  29.416  0.4184  2.5170 -1.7466
  655TIP3    H223525   3.444   3.265  29.497  0.3199 -0.5417 -2.1981
  656TIP3   OH223526   0.003   3.262   0.545 -0.1289 -0.0538 -0.4239
  656TIP3    H123527  -0.053   3.205   0.598  0.5919 -0.8504 -0.4999
  656TIP3    H223528  -0.059   3.313   0.493 -0.8209  0.0280  0.4414
  657TIP3   OH223529   1.878   0.827   5.005 -0.2600  0.5216  0.3015
  657TIP3    H123530   1.856   0.776   5.083 -0.9994  0.2315 -0.0961
  657TIP3    H223531   1.941   0.772   4.957 -1.2843 -0.1689 -0.2789
  658TIP3   OH223532   2.400   0.565   5.966 -0.3927  0.0195 -0.4519
  658TIP3    H123533   2.450   0.633   5.921 -1.1685 -0.4451 -2.0897
  658TIP3    H223534   2.325   0.610   6.003 -0.9974  0.0644 -1.6812
  659TIP3   OH223535   0.179   2.488  21.672 -0.2327  0.3219  0.1104
  659TIP3    H123536   0.248   2.528  21.725 -0.2877 -0.8551  1.1231
  659TIP3    H223537   0.116   2.454  21.736 -0.4410 -0.8986 -0.7024
  660TIP3   OH223538   3.056   2.434  28.696  0.2436  0.4267  0.1625
  660TIP3    H123539   3.024   2.424  28.786 -0.6342 -0.5610 -0.2469
  660TIP3    H223540   3.000   2.377  28.644  3.2039 -2.1442 -0.4940
  661TIP3   OH223541   3.372   1.774   2.621  0.4398  0.1482  0.1862
  661TIP3    H123542   3.301   1.709   2.623  0.4276  0.0983 -1.2229
  661TIP3    H223543   3.412   1.768   2.708 -0.1804 -1.0675  0.4070
  662TIP3   OH223544   0.665   2.308  27.197 -0.6676 -0.3912  0.0927
  662TIP3    H123545   0.724   2.252  27.147 -0.9959 -1.1192  0.5070
  662TIP3    H223546   0.662   2.390  27.148  0.7265 -0.3186  0.0976
  663TIP3   OH223547   3.272   1.012   0.522  0.1945  0.7531  0.4934
  663TIP3    H123548   3.358   0.990   0.487 -0.1473  0.8005 -0.3889
  663TIP3    H223549   3.215   0.939   0.498 -0.0282  0.7282  1.0553
  664TIP3   OH223550   3.481   2.415  29.099  0.2877 -0.3200  0.2978
  664TIP3    H123551   3.423   2.385  29.169  1.2449 -0.4127  1.0748
  664TIP3    H223552   3.550   2.348  29.094  0.5417 -0.0264 -0.3463
  665TIP3   OH223553   3.464   3.464  31.526 -0.2120 -0.6536 -0.1567
  665TIP3    H123554   3.506   3.486  31.609 -1.5593 -1.0183  0.6464
  665TIP3    H223555   3.514   3.513  31.461  2.4938 -2.3053  0.5090
  666TIP3   OH223556   0.003   2.115  30.706 -0.4911  0.0711 -0.1655
  666TIP3    H123557  -0.018   2.064  30.629 -0.6541  0.1347 -0.1652
  666TIP3    H223558   0.099   2.122  30.705 -0.3754 -1.1236  0.4036
  667TIP3   OH223559   3.229   0.395  31.726  0.8435 -0.8376  0.0561
  667TIP3    H123560   3.195   0.317  31.682  0.2656 -0.7090  0.2610
  667TIP3    H223561   3.200   0.386  31.817 -2.8894  1.5352 -0.6505
  668TIP3   OH223562   0.278   3.429  26.180 -0.0788 -0.3636 -0.2624
  668TIP3    H123563   0.293   3.452  26.088 -0.0767 -1.6365 -0.6033
  668TIP3    H223564   0.357   3.459  26.225  0.5345 -0.9468 -0.9210
  669TIP3   OH223565   0.153   3.517   3.460 -0.0273  0.2030 -0.1488
  669TIP3    H123566   0.216   3.555   3.522 -1.5287  3.3733 -0.3615
  669TIP3    H223567   0.107   3.451   3.511  1.5190 -0.1497  0.8666
  670TIP3   OH223568   0.608   2.625  24.083 -1.0357  0.0798  0.3247
  670TIP3    H123569   0.650   2.541  24.065 -1.1263 -0.2981  1.7009
  670TIP3    H223570   0.676   2.690  24.064  0.1224 -0.4997  2.1635
  671TIP3   OH223571   2.088   2.953   0.855  0.0607 -0.3465 -0.7349
  671TIP3    H123572   1.998   2.950   0.823 -0.0492  0.9214 -0.6015
  671TIP3    H223573   2.096   3.039   0.895  0.4852 -1.4733  1.8241
  672TIP3   OH223574   2.743   0.815   1.978 -0.2594  0.0299  0.0983
  672TIP3    H123575   2.650   0.809   1.957 -0.3597 -2.3826  0.8561
  672TIP3    H223576   2.746   0.808   2.074  0.6537  1.5811  0.2180
  673TIP3   OH223577   1.390   3.006  29.961 -0.0698 -0.1227  0.5442
  673TIP3    H123578   1.465   3.015  29.903 -0.2180 -0.3000  0.3238
  673TIP3    H223579   1.427   2.975  30.044  0.1137 -0.0839  0.4756
  674TIP3   OH223580   2.030   1.355  29.924  0.1020 -0.1756 -0.3731
  674TIP3    H123581   2.088   1.287  29.956  1.3340  0.8103 -0.4296
  674TIP3    H223582   2.006   1.405  30.002 -0.9707 -0.7821 -0.2992
  675TIP3   OH223583   1.191   1.235   6.939 -0.1109  0.2210 -0.1353
  675TIP3    H123584   1.151   1.149   6.953  0.7955 -0.4747 -1.6134
  675TIP3    H223585   1.116   1.295   6.928 -0.7847 -0.0342  2.4294
  676TIP3   OH223586   2.208   3.129   7.369 -0.5061 -0.0627 -0.2143
  676TIP3    H123587   2.229   3.044   7.331  0.9164 -0.6435  1.7285
  676TIP3    H223588   2.293   3.172   7.379 -1.2715  2.5181 -2.9750
  677TIP3   OH223589   3.143   1.003   1.048  0.5054 -0.3643 -0.4104
  677TIP3    H123590   3.104   1.069   0.991  0.3847  1.4917  1.6855
  677TIP3    H223591   3.149   0.924   0.994 -1.2956  0.7615 -2.3714
  678TIP3   OH223592   1.778   2.312   4.898  0.1674 -0.1551 -0.1991
  678TIP3    H123593   1.777   2.396   4.853 -0.5420  0.8065  1.5173
  678TIP3    H223594   1.688   2.280   4.893  0.6914 -1.5485 -2.0354
  679TIP3   OH223595   1.915   1.506   6.603 -0.1110 -0.1083 -0.0415
  679TIP3    H123596   1.934   1.593   6.639  0.5537  0.5035 -1.7441
  679TIP3    H223597   1.834   1.480   6.646  1.1217  0.0821  2.6059
  680TIP3   OH223598   0.330   0.723   2.585  0.5046 -0.0196 -0.0333
  680TIP3    H123599   0.268   0.786   2.548  1.3796  1.9240  1.6101
  680TIP3    H223600   0.282   0.680   2.655  0.4694  0.1606  0.0528
  681TIP3   OH223601   1.182   2.510  28.364  0.4043  0.3780 -0.3867
  681TIP3    H123602   1.277   2.515  28.374  0.7165  0.1673 -2.7141
  681TIP3    H223603   1.161   2.417  28.378  0.4704  0.4768  0.4332
  682TIP3   OH223604   2.443   3.013  13.958 -0.1619  0.0950  0.0970
  682TIP3    H123605   2.515   2.963  13.919 -0.4858  0.4709 -1.0193
  682TIP3    H223606   2.482   3.097  13.982 -0.4600  0.7946 -1.6793
  683TIP3   OH223607   0.530   0.696   1.739 -0.2753 -0.2718 -0.1405
  683TIP3    H123608   0.445   0.718   1.776  0.2101 -1.0696  1.5620
  683TIP3    H223609   0.534   0.744   1.656 -1.5902  1.2830  0.6512
  684TIP3   OH223610   0.256   0.836   5.790  0.2739 -0.1846  0.2517
  684TIP3    H123611   0.239   0.759   5.736  0.4253 -0.3831  0.4829
  684TIP3    H223612   0.338   0.817   5.834 -1.2239 -1.3394  2.7958
  685TIP3   OH223613   1.052   0.864   1.595 -0.0266 -0.0575  0.2016
  685TIP3    H123614   1.039   0.939   1.652 -0.0218 -1.7564  2.5801
  685TIP3    H223615   1.145   0.841   1.606 -0.6291 -1.9739  1.6251
  686TIP3   OH223616   0.087   3.178  32.781 -0.1629 -0.5407 -0.1295
  686TIP3    H123617   0.055   3.264  32.754 -0.7532 -0.7603 -0.1309
  686TIP3    H223618   0.068   3.120  32.707  0.5204 -0.6069 -0.2602
  687TIP3   OH223619   2.321   3.069  31.767  0.3180 -0.3106  0.1891
  687TIP3    H123620   2.237   3.065  31.722  0.9934  0.0259 -1.1627
  687TIP3    H223621   2.364   2.987  31.745  0.3807 -0.4498  0.8148
  688TIP3   OH223622   2.053   1.302   4.113 -0.1623 -0.1130  0.4240
  688TIP3    H123623   2.062   1.226   4.171 -2.5381  0.6166  1.8983
  688TIP3    H223624   2.141   1.337   4.105  0.9218 -2.6988  0.1176
  689TIP3   OH223625   2.436   3.369  30.475 -0.1743  0.3319  0.2841
  689TIP3    H123626   2.513   3.423  30.494 -1.6799  2.7225 -0.0016
  689TIP3    H223627   2.446   3.343  30.384  0.4535  0.2988  0.3589
  690TIP3   OH223628   2.927   2.521   4.604  0.0595 -0.2116 -0.1661
  690TIP3    H123629   2.927   2.595   4.543 -0.4398  0.2347  0.3740
  690TIP3    H223630   2.961   2.448   4.552  2.3906  0.7967 -0.2022
  691TIP3   OH223631   0.432   1.340  18.595 -0.7276 -0.5063 -0.5117
  691TIP3    H123632   0.523   1.315  18.580 -1.4351 -2.3419 -2.3762
  691TIP3    H223633   0.436   1.423  18.642  1.9345  0.7149 -2.6293
  692TIP3   OH223634   0.880   2.911  14.972 -0.5636  0.2284 -0.1811
  692TIP3    H123635   0.839   2.904  14.886 -4.2318 -0.5652  1.4508
  692TIP3    H223636   0.874   2.823  15.009  1.6557  0.3660  0.6853
  693TIP3   OH223637   3.354   1.483   3.370 -0.4760  0.3377 -0.3797
  693TIP3    H123638   3.317   1.446   3.290 -0.0732  1.2727 -1.0169
  693TIP3    H223639   3.279   1.492   3.429 -0.7661 -0.4173 -0.6171
  694TIP3   OH223640   0.531   0.944  30.367  0.3681 -0.2508  0.1487
  694TIP3    H123641   0.581   1.013  30.411 -0.6031 -0.8762  2.3908
  694TIP3    H223642   0.447   0.943  30.412 -1.1025 -0.3531 -2.3963
  695TIP3   OH223643   3.343   3.306  27.104 -0.3072  0.4181  0.2367
  695TIP3    H123644   3.285   3.351  27.165 -0.3349  1.0796 -0.2617
  695TIP3    H223645   3.290   3.236  27.067 -0.8720  1.1466 -0.3739
  696TIP3   OH223646   2.067   1.187  27.530 -0.0153 -0.3957  0.2038
  696TIP3    H123647   1.989   1.223  27.572  2.1030 -1.0868  5.3782
  696TIP3    H223648   2.067   1.095  27.553  2.5457 -0.3111  0.8582
  697TIP3   OH223649   1.979   2.157   0.711  0.0480  0.0401  0.1684
  697TIP3    H123650   2.026   2.146   0.629 -0.1070  1.3284 -0.1239
  697TIP3    H223651   2.018   2.093   0.771 -0.3378 -1.4262 -1.0950
  698TIP3   OH223652   0.571   3.163  27.300 -0.5431 -0.1363  0.1894
  698TIP3    H123653   0.593   3.170  27.207  0.1432 -0.9582  0.2762
  698TIP3    H223654   0.476   3.175  27.303 -0.5104  0.3781 -0.5599
  699TIP3   OH223655   2.816   0.018   5.115  0.7482  0.3139 -0.0616
  699TIP3    H123656   2.728  -0.016   5.101  0.4963 -0.3437  2.5289
  699TIP3    H223657   2.823   0.027   5.210  2.8459  2.1242 -0.3113
  700TIP3   OH223658   3.275   1.379  30.141 -0.2418 -0.2642 -0.2209
  700TIP3    H123659   3.318   1.367  30.226 -0.0147  0.5397 -0.2133
  700TIP3    H223660   3.344   1.359  30.077 -0.1226  0.1036 -0.2108
  701TIP3   OH223661   3.144   1.817   4.950 -0.2385  0.0522 -0.0783
  701TIP3    H123662   3.073   1.858   4.900  0.3181  1.4586  0.2607
  701TIP3    H223663   3.218   1.877   4.943  0.2340 -0.2944  1.4300
  702TIP3   OH223664   2.401   2.024   0.380 -0.0859  0.2395 -0.4135
  702TIP3    H123665   2.434   2.054   0.465 -1.6617 -1.2820  0.7957
  702TIP3    H223666   2.380   2.105   0.333  2.1049  1.1552  0.0271
  703TIP3   OH223667   0.115   2.359   5.124  0.4079 -0.2629  0.5573
  703TIP3    H123668   0.085   2.377   5.035  1.5213  1.3138  0.4758
  703TIP3    H223669   0.137   2.265   5.123 -0.7652 -0.5487 -0.4557
  704TIP3   OH223670   1.118   3.340  14.827  0.0091 -0.2283 -0.3230
  704TIP3    H123671   1.153   3.410  14.881 -0.7149 -0.7437  0.8568
  704TIP3    H223672   1.041   3.378  14.785  0.3025  0.0354 -0.6231
  705TIP3   OH223673   1.052   2.012  25.412 -0.3966 -0.7588 -0.2924
  705TIP3    H123674   1.096   2.093  25.383 -0.5727 -1.0183 -1.3230
  705TIP3    H223675   1.046   2.021  25.507  0.8126 -0.1708 -0.2466
  706TIP3   OH223676   1.086   2.632   0.996  0.3281  0.0197 -0.3702
  706TIP3    H123677   1.156   2.671   0.944  2.4754 -2.2972  0.5666
  706TIP3    H223678   1.041   2.572   0.937  2.4127 -2.1945  0.1220
  707TIP3   OH223679   3.395   1.960   2.086 -0.0765 -0.1076  0.5563
  707TIP3    H123680   3.379   2.049   2.118  1.8747  0.3022  0.5417
  707TIP3    H223681   3.451   1.973   2.009 -1.1329 -1.2893 -0.4385
  708TIP3   OH223682   0.743   1.704  30.816 -0.0825  0.3815  0.1856
  708TIP3    H123683   0.744   1.732  30.725 -1.1281  1.5515  0.5104
  708TIP3    H223684   0.831   1.723  30.848 -0.5556  2.8372  0.2228
  709TIP3   OH223685   3.176   1.503  27.684 -0.1785 -0.5025 -0.3752
  709TIP3    H123686   3.212   1.560  27.752  0.4922  0.0838 -1.2015
  709TIP3    H223687   3.082   1.519  27.686  0.0768  1.3456 -1.1998
  710TIP3   OH223688   1.981   2.139  20.259 -0.0405  0.0687 -0.1250
  710TIP3    H123689   1.943   2.166  20.343 -0.9990  0.0614 -0.5391
  710TIP3    H223690   2.049   2.204  20.241 -0.7641  0.8740 -0.0073
  711TIP3   OH223691   0.744   3.159  27.520  0.0226 -0.1590  0.4707
  711TIP3    H123692   0.676   3.170  27.454  0.8165  2.0998 -0.0507
  711TIP3    H223693   0.823   3.137  27.470  0.1060 -0.8734  0.9048
  712TIP3   OH223694   1.701   3.387  30.769 -0.0576 -0.1097  0.3184
  712TIP3    H123695   1.758   3.379  30.846 -0.1488  1.5876  0.5971
  712TIP3    H223696   1.614   3.405  30.805  0.2610  2.8799 -0.1081
  713TIP3   OH223697   1.666   1.446   2.219 -0.6529 -0.3705  0.4476
  713TIP3    H123698   1.610   1.508   2.172 -0.1526  0.0615  0.4117
  713TIP3    H223699   1.743   1.497   2.243  0.8317 -1.4990 -1.5560
  714TIP3   OH223700   1.707   2.386  31.115 -0.1299 -0.6535  0.2623
  714TIP3    H123701   1.740   2.387  31.025 -0.4495  1.6643  0.1268
  714TIP3    H223702   1.631   2.444  31.113 -0.6218 -1.2086  1.8735
  715TIP3   OH223703   1.707   1.860   0.591 -0.1908 -0.5922 -0.3724
  715TIP3    H123704   1.696   1.880   0.684  0.4642 -1.8508 -0.0017
  715TIP3    H223705   1.657   1.779   0.578 -1.4216  0.2815 -1.4543
  716TIP3   OH223706   1.339   2.267  29.123 -0.4529 -0.7120 -0.1543
  716TIP3    H123707   1.259   2.315  29.103 -0.4575 -1.0843 -1.0819
  716TIP3    H223708   1.402   2.334  29.150 -0.4947 -0.1991 -1.2951
  717TIP3   OH223709   3.325   1.279  31.345 -0.1413 -0.2174  0.5522
  717TIP3    H123710   3.326   1.188  31.316 -3.1429 -0.7650  1.8101
  717TIP3    H223711   3.266   1.324  31.285  2.1042  1.2517 -0.7059
  718TIP3   OH223712   2.398   0.489   1.548  0.2975 -0.2568  0.4899
  718TIP3    H123713   2.493   0.499   1.553  0.4246 -1.6304  1.7339
  718TIP3    H223714   2.383   0.430   1.474  0.3654  0.2885  0.0339
  719TIP3   OH223715   1.297   1.778  31.541  0.1301  0.4065  0.2309
  719TIP3    H123716   1.381   1.733  31.544  0.8434  1.5901 -0.8249
  719TIP3    H223717   1.233   1.713  31.569  1.4966 -0.2291  2.0028
  720TIP3   OH223718   2.262   0.567  27.429 -0.5049  0.1906  0.2048
  720TIP3    H123719   2.214   0.507  27.486 -1.9731  1.5023  0.4255
  720TIP3    H223720   2.210   0.571  27.349 -1.8964  2.9953  1.0976
  721TIP3   OH223721   0.595   1.397  32.027 -0.1087 -0.8605 -0.3173
  721TIP3    H123722   0.633   1.347  31.955  1.1458 -1.7421  0.9013
  721TIP3    H223723   0.551   1.332  32.081  1.7556 -0.7815  1.4212
  722TIP3   OH223724   2.838   2.149  31.814 -0.3787 -0.1372  0.0708
  722TIP3    H123725   2.888   2.223  31.848 -0.1881 -0.2541  0.0472
  722TIP3    H223726   2.776   2.127  31.884 -0.6855  0.2743 -0.0665
  723TIP3   OH223727   3.491   0.525   4.077 -0.4244 -0.2695 -0.1946
  723TIP3    H123728   3.484   0.618   4.100  0.6572 -0.2192 -0.0548
  723TIP3    H223729   3.488   0.480   4.162 -2.3720 -0.4784 -0.3306
  724TIP3   OH223730   0.432   0.270   3.433 -0.6423 -0.0150 -0.6631
  724TIP3    H123731   0.357   0.320   3.465  0.7852  2.4804 -0.9639
  724TIP3    H223732   0.417   0.261   3.339 -0.4956  0.6976 -0.7641
  725TIP3   OH223733   0.668   1.827   4.137  0.1030 -0.0079  0.3133
  725TIP3    H123734   0.752   1.866   4.113  0.0066  1.1576  1.7321
  725TIP3    H223735   0.689   1.767   4.210  0.1274 -2.1243 -1.3293
  726TIP3   OH223736   2.357   1.236  19.951 -0.2095  0.4402  0.2357
  726TIP3    H123737   2.432   1.294  19.944 -0.5268  1.2264  2.5867
  726TIP3    H223738   2.339   1.209  19.860  1.3773  2.1379 -0.6424
  727TIP3   OH223739   1.688   2.644   3.836 -0.2787 -0.0590 -0.1055
  727TIP3    H123740   1.752   2.606   3.775 -1.1745 -1.6068 -0.0992
  727TIP3    H223741   1.679   2.579   3.905 -0.7538  0.8247  0.6795
  728TIP3   OH223742   0.931   1.593   4.846  0.2444 -0.3290 -0.1967
  728TIP3    H123743   0.999   1.661   4.852 -0.1278  0.2748 -2.1129
  728TIP3    H223744   0.907   1.576   4.937  0.2858  2.2135  0.3868
  729TIP3   OH223745   2.550   0.128  30.683  0.3748 -0.1362  0.0278
  729TIP3    H123746   2.507   0.198  30.634  0.3744  1.6144  2.3718
  729TIP3    H223747   2.477   0.076  30.717  0.3276 -0.3338 -0.3621
  730TIP3   OH223748   1.830   2.743  26.290 -0.1249  0.2750  0.2165
  730TIP3    H123749   1.794   2.669  26.339  0.4366  0.5609  1.0724
  730TIP3    H223750   1.755   2.799  26.272 -0.2762  0.3679  1.1121
  731TIP3   OH223751   3.168   2.046  30.474  0.6659  0.1382 -0.3066
  731TIP3    H123752   3.147   2.094  30.554 -0.2046 -0.3434 -0.2265
  731TIP3    H223753   3.196   2.113  30.412  1.3307  0.5192  0.3923
  732TIP3   OH223754   0.563   3.095  14.305  0.3901 -0.6023 -0.1406
  732TIP3    H123755   0.501   3.031  14.338 -0.3704 -0.2548 -0.8677
  732TIP3    H223756   0.643   3.045  14.289 -0.2388 -1.4004 -0.8450
  733TIP3   OH223757   2.605   0.747  26.871 -0.3773 -0.0001  0.8268
  733TIP3    H123758   2.603   0.656  26.844 -0.6182 -0.1284  1.2610
  733TIP3    H223759   2.697   0.773  26.865 -0.3937 -0.1019  0.1525
  734TIP3   OH223760   0.794   2.351  19.757  0.1316 -0.3619  0.1031
  734TIP3    H123761   0.817   2.258  19.750 -0.0153 -0.3580 -0.4078
  734TIP3    H223762   0.879   2.396  19.761  0.2020 -0.4955  0.1099
  735TIP3   OH223763   2.752   1.050  32.778  0.3266  0.3147 -0.1645
  735TIP3    H123764   2.745   1.126  32.720  1.8849  0.3748 -0.3274
  735TIP3    H223765   2.721   1.081  32.863 -0.2722  0.7523 -0.5423
  736TIP3   OH223766   0.706   2.084   2.461  0.0197 -0.7408 -0.1711
  736TIP3    H123767   0.752   2.163   2.490 -0.2871 -0.7571  0.3692
  736TIP3    H223768   0.615   2.113   2.448 -0.3103 -1.2131  0.9769
  737TIP3   OH223769   0.260   3.272  30.492 -0.5181 -0.2216 -0.5908
  737TIP3    H123770   0.199   3.254  30.564  1.3144  0.6578  1.2863
  737TIP3    H223771   0.282   3.365  30.502  0.4457 -0.2969 -1.7710
  738TIP3   OH223772   2.984   0.639   6.604  0.5529 -0.3665 -0.0362
  738TIP3    H123773   2.891   0.617   6.612  0.8333 -1.6197  0.0762
  738TIP3    H223774   3.001   0.639   6.510  1.1930 -3.8787 -0.0667
  739TIP3   OH223775   2.265   2.484  31.381 -0.5017 -0.2661  0.4974
  739TIP3    H123776   2.308   2.407  31.420  0.2806  0.1555  0.4855
  739TIP3    H223777   2.197   2.507  31.444 -0.5167 -0.7667  0.6699
  740TIP3   OH223778   3.439   2.511  26.263  0.0766 -0.2686  0.0352
  740TIP3    H123779   3.351   2.483  26.285 -1.5727  3.7371 -0.5004
  740TIP3    H223780   3.453   2.591  26.315  3.6466 -0.9879  0.4896
  741TIP3   OH223781   0.400   1.797  32.019  0.3040 -0.0881 -0.0437
  741TIP3    H123782   0.429   1.887  32.008  1.2396 -0.5919 -2.0966
  741TIP3    H223783   0.440   1.769  32.102  2.2694  0.5793 -0.7056
  742TIP3   OH223784   2.401   0.939  29.679 -0.1916 -0.3949 -0.4840
  742TIP3    H123785   2.384   1.024  29.720  0.5758 -0.5298  0.1397
  742TIP3    H223786   2.410   0.878  29.753 -0.8710 -1.0509 -0.9254
  743TIP3   OH223787   2.251   2.383   0.025  0.4385  0.0624  0.7206
  743TIP3    H123788   2.164   2.401   0.062  0.9366  1.9685  1.0841
  743TIP3    H223789   2.274   2.464  -0.021  1.6670 -0.7315 -0.0958
  744TIP3   OH223790   0.680   1.716  27.867  0.6181 -0.0065  0.6081
  744TIP3    H123791   0.664   1.627  27.834  0.7016  0.6821 -1.4601
  744TIP3    H223792   0.763   1.741  27.828  0.1937  1.2676  0.4870
  745TIP3   OH223793   1.590   2.346  30.136 -0.2058 -0.4575  0.2281
  745TIP3    H123794   1.535   2.408  30.184  1.4438  0.1422  1.3955
  745TIP3    H223795   1.642   2.302  30.203 -0.8567 -2.6926 -0.6201
  746TIP3   OH223796   3.468   2.476  18.629  0.0145  0.5107 -0.5550
  746TIP3    H123797   3.400   2.540  18.607 -0.7698  0.2593  0.9665
  746TIP3    H223798   3.490   2.496  18.720 -1.4638 -2.3776  0.5614
  747TIP3   OH223799   3.356   1.070   6.662 -0.0471  0.0483  0.5445
  747TIP3    H123800   3.316   1.022   6.734  0.4284 -1.1139  0.0497
  747TIP3    H223801   3.416   1.008   6.621 -0.9292  0.3946 -1.3957
  748TIP3   OH223802   3.144   0.781   0.456 -0.9417 -0.1314  0.1402
  748TIP3    H123803   3.114   0.701   0.499 -0.3161 -0.0775  0.6928
  748TIP3    H223804   3.218   0.754   0.402  0.2189  0.2933  1.4593
  749TIP3   OH223805   1.562   1.427   0.369 -0.1678  0.3557  0.1146
  749TIP3    H123806   1.630   1.494   0.355 -0.6978  1.3475  2.0057
  749TIP3    H223807   1.611   1.347   0.388  0.4774  0.8164  0.4358
  750TIP3   OH223808   1.337   0.978  31.788 -0.0780  0.4873 -0.0667
  750TIP3    H123809   1.420   0.963  31.832 -0.2834 -1.4096 -0.2704
  750TIP3    H223810   1.307   1.062  31.823  1.7801  1.0998  0.1852
  751TIP3   OH223811   0.729   1.619  32.806  0.6628 -0.2210 -0.0304
  751TIP3    H123812   0.643   1.581  32.791  0.8455 -1.2286  1.2375
  751TIP3    H223813   0.790   1.547  32.792  1.2037  0.1766  0.2352
  752TIP3   OH223814   2.137   1.075  27.163 -0.4516  0.4200  0.0665
  752TIP3    H123815   2.053   1.100  27.200 -0.5614 -1.2465  1.0021
  752TIP3    H223816   2.201   1.130  27.209 -0.9243  1.0322  0.0029
  753TIP3   OH223817   2.122   1.074  20.175 -0.3394  0.0598  0.1241
  753TIP3    H123818   2.192   1.012  20.154 -1.8172 -0.7662 -3.0096
  753TIP3    H223819   2.069   1.030  20.241  0.3235 -0.6684  0.1820
  754TIP3   OH223820   1.429   1.695  27.296 -0.0583  0.1944  0.0437
  754TIP3    H123821   1.491   1.704  27.368  1.4336 -0.2737 -1.1230
  754TIP3    H223822   1.366   1.767  27.308 -1.6735 -1.5753  3.4517
  755TIP3   OH223823   0.682   1.121  25.949 -0.4626  0.1434 -0.7339
  755TIP3    H123824   0.626   1.076  25.885  0.1342 -0.4108 -0.8786
  755TIP3    H223825   0.675   1.214  25.926 -0.6699 -0.0029 -1.2754
  756TIP3   OH223826   0.496   1.483   6.210 -0.7515  0.1222 -0.1297
  756TIP3    H123827   0.453   1.437   6.137  1.5681 -0.6244 -1.1327
  756TIP3    H223828   0.491   1.575   6.187 -0.8785 -0.0413 -0.7781
  757TIP3   OH223829   1.874   2.604   1.540 -0.0858  0.0192  0.0012
  757TIP3    H123830   1.782   2.603   1.565 -0.6601  1.7439 -1.7580
  757TIP3    H223831   1.921   2.618   1.622 -1.4652  0.1633  0.7975
  758TIP3   OH223832   1.287   1.185   1.055 -0.6863 -0.4503  0.1918
  758TIP3    H123833   1.284   1.281   1.054  1.3368 -0.3440 -0.0250
  758TIP3    H223834   1.216   1.159   1.114 -0.4881  1.2267  1.2222
  759TIP3   OH223835   2.733   0.913  19.046  0.0037  0.1393  0.0054
  759TIP3    H123836   2.734   0.967  18.967  1.0411  0.6129  0.3185
  759TIP3    H223837   2.825   0.911  19.074 -0.2482 -0.5832  0.8224
  760TIP3   OH223838   1.602   2.552  26.791  0.0094 -0.2445  0.0856
  760TIP3    H123839   1.669   2.491  26.762  0.5450  0.9822 -1.4243
  760TIP3    H223840   1.519   2.504  26.783  0.5395 -1.1936  0.2417
  761TIP3   OH223841   2.547   2.393  32.025 -0.7601  0.4946 -0.2855
  761TIP3    H123842   2.514   2.328  31.963 -0.4555 -0.0942  0.1672
  761TIP3    H223843   2.469   2.424  32.071 -0.6793 -1.2568  1.1345
  762TIP3   OH223844   0.129   2.509  23.622 -0.5665 -0.1859 -0.2217
  762TIP3    H123845   0.083   2.482  23.702 -0.3817 -0.0685 -0.0739
  762TIP3    H223846   0.061   2.509  23.554 -0.5640 -1.0695 -0.2446
  763TIP3   OH223847   1.986   0.673  26.229 -0.0329 -0.6331 -0.0767
  763TIP3    H123848   1.937   0.628  26.161  2.8353 -3.2833 -0.6563
  763TIP3    H223849   2.070   0.695  26.187  1.0209 -0.4300  2.0167
  764TIP3   OH223850   1.400   0.645   1.305  0.1357  0.0587 -0.4802
  764TIP3    H123851   1.457   0.711   1.267 -0.2144  1.2825  1.0328
  764TIP3    H223852   1.451   0.608   1.377 -0.2144 -0.3088 -0.4178
  765TIP3   OH223853   2.772   2.294   1.962  0.2841  0.5332  0.2166
  765TIP3    H123854   2.774   2.247   2.046  0.1627 -1.2546 -0.7209
  765TIP3    H223855   2.780   2.225   1.896 -1.6056  1.6678 -1.3155
  766TIP3   OH223856   1.698   2.134  32.361 -0.6382  0.1945 -0.4307
  766TIP3    H123857   1.690   2.099  32.272 -1.4212 -0.8509  0.0241
  766TIP3    H223858   1.695   2.229  32.350 -1.6388  0.0651 -1.4613
  767TIP3   OH223859   1.285   1.092  26.339  0.2996 -0.0935  0.6486
  767TIP3    H123860   1.270   1.186  26.331 -0.8074 -0.3133 -0.2168
  767TIP3    H223861   1.250   1.068  26.424  0.9333  0.3314  1.0327
  768TIP3   OH223862   2.013   2.507  26.588  0.1779  0.1045  0.4944
  768TIP3    H123863   1.960   2.586  26.586 -0.4179 -0.3093 -0.6728
  768TIP3    H223864   1.977   2.451  26.519  0.6994 -1.1171  1.1818
  769TIP3   OH223865   3.241   2.016  26.346  0.0358  0.0448  0.0938
  769TIP3    H123866   3.277   2.002  26.258 -0.1178  1.1073 -0.1507
  769TIP3    H223867   3.315   2.051  26.397  0.4827 -1.7544  0.7620
  770TIP3   OH223868   3.382   0.501  28.248 -0.7735 -0.0010  0.3746
  770TIP3    H123869   3.309   0.557  28.225 -1.0964 -0.2881  0.6963
  770TIP3    H223870   3.396   0.447  28.169 -1.4511 -0.5230  0.6000
  771TIP3   OH223871   2.059   1.949  31.845 -1.0253  0.2804  0.1851
  771TIP3    H123872   2.110   1.982  31.918  0.4307 -0.4509 -0.4674
  771TIP3    H223873   2.027   1.864  31.875  1.4862 -1.1025 -0.7618
  772TIP3   OH223874   3.059   3.306   3.261 -0.3774  0.2001  0.1187
  772TIP3    H123875   3.138   3.268   3.224 -0.4460 -1.0054  1.1723
  772TIP3    H223876   3.036   3.376   3.200 -0.4036 -1.6105 -2.0656
  773TIP3   OH223877   0.106   1.934   3.384  0.7710 -0.1196  0.8680
  773TIP3    H123878   0.102   1.839   3.378 -0.5608 -0.0232 -1.2848
  773TIP3    H223879   0.014   1.962   3.375  1.3461  1.3706 -1.4632
  774TIP3   OH223880   2.297   1.443  26.046 -0.4951  0.0308 -0.3146
  774TIP3    H123881   2.228   1.427  26.110 -0.1844  0.4877  0.1436
  774TIP3    H223882   2.341   1.358  26.037 -1.0195 -0.2214 -0.4966
  775TIP3   OH223883   2.496   1.552  18.171  0.2586  0.3572  0.5107
  775TIP3    H123884   2.531   1.637  18.144  1.5818 -0.5380 -0.7197
  775TIP3    H223885   2.414   1.544  18.122  2.8968 -1.5057 -4.1609
  776TIP3   OH223886   0.278   0.292   5.102  0.0717  0.0845  0.2640
  776TIP3    H123887   0.258   0.385   5.114 -2.2407 -0.6157  2.7249
  776TIP3    H223888   0.252   0.274   5.012  1.5033  1.9595 -0.6071
  777TIP3   OH223889   0.937   3.318   3.617  0.2345  0.1871 -0.6720
  777TIP3    H123890   0.977   3.399   3.649  0.5052  0.3222 -1.3393
  777TIP3    H223891   0.866   3.348   3.561 -1.1533 -0.0475  0.8775
  778TIP3   OH223892   2.811   1.013  30.236 -0.1120 -0.1182  0.4741
  778TIP3    H123893   2.747   1.083  30.222  0.1967  0.5012  2.0370
  778TIP3    H223894   2.780   0.968  30.315  2.0430  1.0026  2.0446
  779TIP3   OH223895   2.962   3.343  30.904  0.2101 -0.3326  0.2676
  779TIP3    H123896   2.981   3.330  30.997  0.2410 -1.0999  0.1597
  779TIP3    H223897   3.045   3.371  30.867 -0.3188  2.3141  0.8621
  780TIP3   OH223898   3.139   3.475   1.684 -0.3280 -0.0879  0.2228
  780TIP3    H123899   3.220   3.463   1.634 -0.2089 -0.2035  0.4440
  780TIP3    H223900   3.073   3.427   1.635 -0.2244 -0.1444  0.1398
  781TIP3   OH223901   1.381   0.371   2.998  1.0823 -0.1295  0.6705
  781TIP3    H123902   1.449   0.326   2.947  0.4172  0.0225 -0.3805
  781TIP3    H223903   1.344   0.302   3.053 -0.3076 -1.0806 -1.3290
  782TIP3   OH223904   2.688   0.238  29.595 -0.3865 -0.1134 -0.1405
  782TIP3    H123905   2.665   0.152  29.630  1.0817  0.0321  1.2827
  782TIP3    H223906   2.642   0.300  29.652  1.0942  0.0936  0.8819
  783TIP3   OH223907   1.307   3.207  29.295  0.6305  0.1869  0.0951
  783TIP3    H123908   1.219   3.178  29.271  0.6340  0.5318 -0.3402
  783TIP3    H223909   1.315   3.294  29.256  0.9769  0.3717  0.5702
  784TIP3   OH223910   1.597   1.129   0.525  0.0958 -0.1606  0.5189
  784TIP3    H123911   1.504   1.151   0.528  0.1492  0.4288 -1.3149
  784TIP3    H223912   1.625   1.134   0.617 -1.4296  0.7388  0.9776
  785TIP3   OH223913   0.990   0.201   6.132  0.1387 -0.2459  0.5178
  785TIP3    H123914   0.963   0.149   6.207  3.2540 -2.4032  0.3559
  785TIP3    H223915   1.057   0.260   6.165  1.4454 -1.1175 -0.4761
  786TIP3   OH223916   1.651   0.183   4.596  0.2735 -0.0507  0.3684
  786TIP3    H123917   1.716   0.252   4.584  0.1244 -0.1170 -1.0385
  786TIP3    H223918   1.575   0.227   4.634  0.8207  0.1916  1.2063
  787TIP3   OH223919   3.477   0.277  28.727  0.0228 -0.1340 -0.2595
  787TIP3    H123920   3.516   0.221  28.660  1.7605 -1.5024  1.7435
  787TIP3    H223921   3.541   0.276  28.798 -2.0845  0.5754  1.7459
  788TIP3   OH223922   2.460   1.557  18.462  0.2607  0.0642 -0.5087
  788TIP3    H123923   2.405   1.498  18.512 -0.3743  0.3301 -0.8893
  788TIP3    H223924   2.455   1.525  18.372  2.2118 -1.0433 -0.2984
  789TIP3   OH223925   3.328   0.052  11.876  0.0881  0.6542 -0.1185
  789TIP3    H123926   3.276   0.122  11.915  1.1466  1.9369 -0.9334
  789TIP3    H223927   3.280   0.028  11.797  1.1000  2.4413 -1.3423
  790TIP3   OH223928   0.611   2.304  21.066 -0.1834  0.4674 -0.5881
  790TIP3    H123929   0.577   2.255  20.991  0.9316  1.8023 -2.0588
  790TIP3    H223930   0.570   2.391  21.057  1.5793  1.3072 -0.9379
  791TIP3   OH223931   0.955   1.084   5.207  0.4910 -0.1496 -0.5727
  791TIP3    H123932   0.871   1.122   5.182  0.2547 -1.1484 -1.3686
  791TIP3    H223933   0.962   1.101   5.301 -0.8707 -0.5586 -0.3770
  792TIP3   OH223934   3.279   1.986  23.756  0.4610  0.0691 -0.9270
  792TIP3    H123935   3.198   2.001  23.709  0.6409  1.7152 -0.7707
  792TIP3    H223936   3.304   2.072  23.789  0.4507 -0.9350  2.0208
  793TIP3   OH223937   0.254   1.833  29.302 -0.1674  0.1387  0.3698
  793TIP3    H123938   0.274   1.805  29.392 -2.6772 -0.3777  0.8310
  793TIP3    H223939   0.293   1.765  29.247 -0.7529 -0.8944  1.1967
  794TIP3   OH223940   0.576   0.889  32.102 -0.0329  0.3615 -0.7465
  794TIP3    H123941   0.540   0.971  32.136 -1.4173 -0.1480 -0.9318
  794TIP3    H223942   0.533   0.821  32.154  1.6517 -0.2489 -0.0799
  795TIP3   OH223943   2.902   1.253   4.144 -0.3677  0.0541 -0.1560
  795TIP3    H123944   2.964   1.300   4.199 -0.6246  0.8116 -0.4975
  795TIP3    H223945   2.910   1.162   4.171  1.1381  0.0816 -0.4351
  796TIP3   OH223946   2.023   1.382  26.592  0.0308  0.1162  0.3002
  796TIP3    H123947   2.083   1.403  26.664  0.2403 -1.3731  0.5995
  796TIP3    H223948   1.950   1.336  26.635  0.0075 -0.5095 -0.3863
  797TIP3   OH223949   1.391   0.117   5.170  0.4000  0.0188  0.0654
  797TIP3    H123950   1.347   0.200   5.151  2.3772  0.8093 -1.4593
  797TIP3    H223951   1.326   0.050   5.149 -0.6819  1.1502 -0.3171
  798TIP3   OH223952   0.434   1.657   2.200  0.2086  0.1881 -0.0647
  798TIP3    H123953   0.428   1.651   2.104 -0.9901  0.8259 -0.0502
  798TIP3    H223954   0.437   1.566   2.230  0.8602 -0.0145 -0.7189
  799TIP3   OH223955   1.219   1.647   0.777  0.0911  0.4553 -0.0896
  799TIP3    H123956   1.299   1.623   0.824  0.1399  0.0152 -0.3978
  799TIP3    H223957   1.210   1.742   0.793  0.0886  0.3127  0.8325
  800TIP3   OH223958   3.467   1.057   3.202  0.3737 -0.2057 -0.0612
  800TIP3    H123959   3.500   0.997   3.269  0.1161 -0.2433  0.0334
  800TIP3    H223960   3.373   1.038   3.197  0.4743 -0.5542 -0.7895
  801TIP3   OH223961   1.841   1.292  21.138 -0.4758  0.3535  0.0229
  801TIP3    H123962   1.747   1.288  21.117 -0.5047  0.4347  0.1415
  801TIP3    H223963   1.846   1.268  21.230 -0.3340 -0.1204 -0.1056
  802TIP3   OH223964   3.318   0.372   0.705 -0.4674 -0.7555  0.0792
  802TIP3    H123965   3.354   0.290   0.671 -1.4560 -1.0986 -0.1753
  802TIP3    H223966   3.291   0.421   0.627  0.1744 -0.1488  0.2265
  803TIP3   OH223967   0.177   1.753  21.113 -0.3847  0.0355  0.2067
  803TIP3    H123968   0.123   1.810  21.166 -1.2843  0.1677 -0.8228
  803TIP3    H223969   0.212   1.688  21.174 -1.4059  0.1722  0.9434
  804TIP3   OH223970   1.521   2.145  27.012 -0.6274 -0.2628 -0.3266
  804TIP3    H123971   1.617   2.140  27.006 -0.6909  0.0374 -1.8835
  804TIP3    H223972   1.505   2.190  27.095  0.5467 -1.1385  0.4101
  805TIP3   OH223973   1.409   0.360  27.801  0.6974  0.1950  0.0312
  805TIP3    H123974   1.323   0.323  27.820  0.6664  0.5122  0.5343
  805TIP3    H223975   1.431   0.327  27.714 -0.9255  1.8973 -1.0886
  806TIP3   OH223976   2.442   2.014   6.785 -0.6942  0.2804 -0.0067
  806TIP3    H123977   2.533   2.042   6.773 -0.3319 -0.6380  0.4846
  806TIP3    H223978   2.421   1.965   6.705 -0.0146 -1.3618  0.7718
  807TIP3   OH223979   0.845   3.118   4.062  0.7911  0.2490 -0.4963
  807TIP3    H123980   0.826   3.032   4.100  0.2091  0.3925 -0.4517
  807TIP3    H223981   0.939   3.115   4.043  0.5892 -0.7986 -1.4829
  808TIP3   OH223982   2.902   1.046  26.111  0.9819  0.4391  0.2430
  808TIP3    H123983   2.827   1.079  26.062  1.3059 -0.8526 -1.1987
  808TIP3    H223984   2.882   0.954  26.128  2.7616 -0.3168 -1.3812
  809TIP3   OH223985   0.477   0.056  31.270 -0.1307 -0.6964  0.3858
  809TIP3    H123986   0.383   0.058  31.286 -0.6635  2.4479 -2.1150
  809TIP3    H223987   0.513   0.120  31.332  0.3511 -1.6245  1.0857
  810TIP3   OH223988   1.624   2.052   1.606 -0.0146  0.1905 -0.1299
  810TIP3    H123989   1.587   1.968   1.631  1.4954 -0.0429  1.5218
  810TIP3    H223990   1.688   2.071   1.674  0.7767  1.9465 -1.2943
  811TIP3   OH223991   1.447   1.641  22.171 -0.0182 -0.5331  0.4007
  811TIP3    H123992   1.465   1.732  22.147 -0.1964 -0.6445 -0.1662
  811TIP3    H223993   1.435   1.596  22.087 -1.3614 -0.7853  0.7095
  812TIP3   OH223994   2.508   1.643  29.039 -0.4452  0.3163 -0.2668
  812TIP3    H123995   2.491   1.677  29.127  0.6734  0.9372 -0.2677
  812TIP3    H223996   2.422   1.625  29.003 -0.9654  1.0037  0.5933
  813TIP3   OH223997   3.460   1.311   5.917 -1.0218  0.6494  0.5205
  813TIP3    H123998   3.431   1.402   5.907 -0.2562  0.9545  0.9990
  813TIP3    H223999   3.521   1.313   5.990 -2.4005 -0.5662  1.7987
  814TIP3   OH224000   0.046   1.382  32.055  0.2956 -0.1513 -0.0230
  814TIP3    H124001   0.087   1.456  32.099 -2.4656  0.6681  1.4352
  814TIP3    H224002   0.072   1.306  32.106  1.4554  0.0584 -0.2665
  815TIP3   OH224003   1.407   2.577   7.063 -0.0863 -0.0941 -0.3623
  815TIP3    H124004   1.458   2.502   7.031  0.5271  0.4075 -0.5733
  815TIP3    H224005   1.325   2.538   7.094  0.7623 -1.0541  0.8376
  816TIP3   OH224006   1.135   0.470  14.705 -0.6912  0.2358  0.5483
  816TIP3    H124007   1.139   0.475  14.801  0.2234  0.4741  0.5092
  816TIP3    H224008   1.152   0.560  14.676 -0.6536  0.1018  0.1545
  817TIP3   OH224009   0.843   1.776  21.997 -0.0387 -0.2578 -0.3968
  817TIP3    H124010   0.931   1.776  21.960  0.5279 -1.0268  0.8933
  817TIP3    H224011   0.848   1.835  22.071 -0.7328  0.0285 -0.5696
  818TIP3   OH224012   1.497   1.780   3.441  0.0222 -0.6094  0.0830
  818TIP3    H124013   1.590   1.792   3.459 -0.1408  0.1349  0.4425
  818TIP3    H224014   1.493   1.695   3.397  1.0620  0.0652 -1.4001
  819TIP3   OH224015   3.398   1.495  27.202 -0.5763  0.6039  0.1131
  819TIP3    H124016   3.310   1.485  27.239 -0.4653  0.5801  0.3761
  819TIP3    H224017   3.385   1.538  27.118 -0.6683  2.5316  1.0559
  820TIP3   OH224018   2.678   0.890  31.212 -0.0812  0.0546 -0.0866
  820TIP3    H124019   2.723   0.808  31.233 -2.4748 -1.3630 -0.0343
  820TIP3    H224020   2.640   0.919  31.295 -0.0618  0.6951 -0.2954
  821TIP3   OH224021   2.677   0.488   4.917 -0.5787  0.1000  0.3983
  821TIP3    H124022   2.635   0.407   4.947  1.1898 -0.1936  2.3361
  821TIP3    H224023   2.760   0.490   4.965  0.2441  2.1501 -1.0109
  822TIP3   OH224024   0.446   0.109   2.906 -0.3488 -0.4756  0.3457
  822TIP3    H124025   0.513   0.123   2.839 -0.9918  0.5465 -0.1050
  822TIP3    H224026   0.363   0.117   2.858 -0.8131  0.1118  1.2332
  823TIP3   OH224027   2.310   1.745   6.668 -0.8501 -0.1378 -0.3953
  823TIP3    H124028   2.318   1.653   6.645  0.5163 -0.2732  0.5237
  823TIP3    H224029   2.396   1.782   6.650 -0.4927  0.3041  1.8903
  824TIP3   OH224030   2.539   1.814   4.891 -0.1623 -0.3039  0.5050
  824TIP3    H124031   2.450   1.848   4.889 -1.2094 -2.6129  2.2810
  824TIP3    H224032   2.543   1.762   4.972  2.5157 -1.0203  0.0247
  825TIP3   OH224033   2.093   1.514   0.309  0.8080 -0.1073  0.5851
  825TIP3    H124034   2.107   1.571   0.233 -2.8036  3.0431  1.9910
  825TIP3    H224035   2.180   1.504   0.347  2.0898  1.9301 -1.4956
  826TIP3   OH224036   0.050   2.033  19.390  0.1058 -0.0580  0.5294
  826TIP3    H124037   0.121   1.981  19.428 -0.3355 -1.3995 -0.3820
  826TIP3    H224038   0.011   2.080  19.464  1.0958 -0.3388  1.2413
  827TIP3   OH224039   2.857   2.053  18.856  0.4269  0.0297 -0.4884
  827TIP3    H124040   2.816   2.106  18.924  1.3815  0.7208 -0.4252
  827TIP3    H224041   2.925   2.003  18.901  1.4704  0.9367 -0.9947
  828TIP3   OH224042   3.495   2.804  14.627 -0.3859 -0.2423 -0.0094
  828TIP3    H124043   3.462   2.868  14.691 -0.1007 -0.5640  0.4656
  828TIP3    H224044   3.444   2.821  14.548  1.1386  2.0676 -0.6270
  829TIP3   OH224045   3.544   1.329   1.297  0.1838  0.0345  0.7861
  829TIP3    H124046   3.610   1.283   1.348  0.1653  0.0994  0.8687
  829TIP3    H224047   3.480   1.262   1.274  1.8104 -0.7579 -1.9201
  830TIP3   OH224048   2.845   1.177   4.742 -0.2399 -0.0529  0.3126
  830TIP3    H124049   2.911   1.134   4.687 -0.4537  1.3342 -1.1226
  830TIP3    H224050   2.762   1.162   4.697 -0.6515 -0.2317  1.1139
  831TIP3   OH224051   3.459   2.241   1.315  0.0622  0.1735  0.3090
  831TIP3    H124052   3.446   2.332   1.287 -1.0973  0.6581  2.2842
  831TIP3    H224053   3.437   2.241   1.408  3.5090 -1.4083  1.2521
  832TIP3   OH224054   2.995   2.419  14.042 -0.4938 -0.1092 -0.3545
  832TIP3    H124055   3.009   2.369  13.962 -0.1286  1.1311 -1.0874
  832TIP3    H224056   2.900   2.432  14.046 -0.3995  1.0363 -1.3654
  833TIP3   OH224057   1.531   3.542   2.786  0.0418 -0.4752 -0.0177
  833TIP3    H124058   1.528   3.467   2.726 -0.6457 -1.1754  0.8587
  833TIP3    H224059   1.522   3.503   2.873  1.0539  0.5149  0.5626
  834TIP3   OH224060   2.056   2.646   2.114  0.3467  0.3139 -0.2519
  834TIP3    H124061   2.131   2.705   2.103  1.1113 -0.6677 -0.5621
  834TIP3    H224062   1.983   2.692   2.073  0.1003  2.4439  2.3023
  835TIP3   OH224063   0.153   1.155   2.512  0.4275 -0.1281  0.1877
  835TIP3    H124064   0.085   1.170   2.446  1.3903 -0.2148 -0.8545
  835TIP3    H224065   0.159   1.237   2.561 -0.8255 -0.3167  0.6884
  836TIP3   OH224066   0.252   1.625  26.667  0.0670  0.3176 -0.4624
  836TIP3    H124067   0.208   1.706  26.641  0.1187  0.2693 -0.7032
  836TIP3    H224068   0.182   1.560  26.671  0.0830  0.2868 -0.6509
  837TIP3   OH224069   1.752   1.445  27.523 -0.1133  0.0603  0.0907
  837TIP3    H124070   1.788   1.369  27.570 -1.1109 -0.2816  0.3189
  837TIP3    H224071   1.658   1.434  27.528 -0.2695  1.1635 -0.1447
  838TIP3   OH224072   0.495   2.516  30.502 -0.1890 -0.3859 -0.1949
  838TIP3    H124073   0.566   2.519  30.438 -0.4404 -0.0889 -0.4670
  838TIP3    H224074   0.539   2.520  30.587  0.1719 -1.2252 -0.3336
  839TIP3   OH224075   1.622   1.151  18.268  0.2930  0.4521  0.1547
  839TIP3    H124076   1.682   1.183  18.200 -0.0174  0.6917 -0.0035
  839TIP3    H224077   1.608   1.226  18.325  0.6679  0.2126  0.5716
  840TIP3   OH224078   1.053   1.437  25.681 -0.1494  0.1978  0.0762
  840TIP3    H124079   1.059   1.490  25.761  0.0325  0.1455  0.0989
  840TIP3    H224080   0.981   1.377  25.697  0.9385 -0.9427  0.8801
  841TIP3   OH224081   2.192   2.936  28.688 -0.2393  0.1216  0.3526
  841TIP3    H124082   2.108   2.976  28.668 -0.0931  0.3469  0.1792
  841TIP3    H224083   2.257   2.993  28.646 -0.0992 -1.1955 -1.3715
  842TIP3   OH224084   3.489   2.809  32.630  0.2092 -0.0688 -0.4546
  842TIP3    H124085   3.516   2.791  32.540  1.9366  0.3262 -0.0494
  842TIP3    H224086   3.571   2.810  32.680 -0.7714 -0.9635  1.2521
  843TIP3   OH224087   1.635   3.069  30.901 -0.1528 -0.3443 -0.4456
  843TIP3    H124088   1.659   3.102  30.814 -0.0458  1.0271  0.0841
  843TIP3    H224089   1.542   3.047  30.892 -0.2577  0.2064 -0.7925
  844TIP3   OH224090   0.103   2.893  26.338  0.4177  0.2945  0.0571
  844TIP3    H124091   0.146   2.875  26.254 -0.4600 -0.5664 -0.2278
  844TIP3    H224092   0.162   2.857  26.403 -0.3167 -1.8831 -0.3908
  845TIP3   OH224093   2.524   0.880  32.759 -0.4770 -0.0854 -0.4624
  845TIP3    H124094   2.549   0.811  32.697  0.9026  0.3522 -0.4246
  845TIP3    H224095   2.605   0.928  32.775 -1.5569  2.0682 -1.1068
  846TIP3   OH224096   1.641   1.669   5.247 -0.2914  0.3573 -0.2094
  846TIP3    H124097   1.630   1.584   5.205  0.2569 -0.1598  0.6740
  846TIP3    H224098   1.725   1.664   5.292 -0.3105  1.3214 -0.0321
  847TIP3   OH224099   1.973   1.446  20.070 -0.1879 -0.3424 -0.2848
  847TIP3    H124100   1.946   1.480  20.155  1.5769  0.0562  0.1704
  847TIP3    H224101   2.001   1.524  20.021 -0.1015 -0.6866 -0.7924
  848TIP3   OH224102   2.395   0.006   2.650 -0.3648  0.1223  0.2127
  848TIP3    H124103   2.403  -0.086   2.678 -0.0985 -0.1749 -0.8014
  848TIP3    H224104   2.386   0.001   2.555 -1.2085  1.1106  0.2216
  849TIP3   OH224105   0.368   2.497  31.626 -0.8239 -0.0006 -0.5214
  849TIP3    H124106   0.433   2.517  31.560 -0.9851  3.1793  0.1151
  849TIP3    H224107   0.284   2.511  31.582 -0.9880 -0.5221 -0.3744
  850TIP3   OH224108   1.008   3.484   4.509  0.8120 -0.0590  0.3305
  850TIP3    H124109   1.093   3.441   4.516  0.8705  0.2000  1.3645
  850TIP3    H224110   0.961   3.457   4.588  0.6728  1.3742  0.7666
  851TIP3   OH224111   1.878   0.895  31.269 -0.6493 -0.2945  0.0541
  851TIP3    H124112   1.947   0.939  31.219 -1.0559  0.2512 -0.0388
  851TIP3    H224113   1.809   0.961  31.278 -0.7370 -0.5007  1.0304
  852TIP3   OH224114   0.656   1.410  29.028  0.2300 -0.4050  0.0958
  852TIP3    H124115   0.626   1.415  28.938 -1.8174 -0.8638  0.6995
  852TIP3    H224116   0.734   1.355  29.024 -0.2276 -1.0050 -1.3135
  853TIP3   OH224117   0.563   2.498  31.936 -0.1837  0.1041 -0.0322
  853TIP3    H124118   0.652   2.470  31.958  0.1548 -0.0974 -1.4923
  853TIP3    H224119   0.537   2.439  31.865 -1.2065  0.6198 -0.0976
  854TIP3   OH224120   2.898   0.733   5.229  0.5735 -0.4146  0.4241
  854TIP3    H124121   2.806   0.737   5.201  0.3543 -0.3632  1.1219
  854TIP3    H224122   2.948   0.736   5.148 -0.0326  0.0737  0.0575
  855TIP3   OH224123   1.006   3.143   6.490 -0.2635  0.4979 -0.5988
  855TIP3    H124124   1.046   3.127   6.575  0.4819 -0.2516 -1.0829
  855TIP3    H224125   1.075   3.181   6.436 -0.5993  0.5430 -1.0113
  856TIP3   OH224126   1.044   0.776   2.768  0.7688 -0.1645 -0.1573
  856TIP3    H124127   1.083   0.849   2.816  0.7334 -0.8257  0.9125
  856TIP3    H224128   1.117   0.736   2.721  0.9190  0.1359 -0.1789
  857TIP3   OH224129   1.208   1.741  26.641  0.1264  0.5593  0.2869
  857TIP3    H124130   1.116   1.734  26.666 -0.2170 -0.0709 -1.0793
  857TIP3    H224131   1.223   1.836  26.633 -0.5503  0.6527  0.0098
  858TIP3   OH224132   3.051   2.565  14.266  0.0426  0.1991  0.8969
  858TIP3    H124133   3.084   2.513  14.193  0.9371  0.7646  0.8829
  858TIP3    H224134   2.959   2.579  14.246  0.1658 -0.0644  0.1263
  859TIP3   OH224135   3.189   3.384   6.510  0.6184 -0.5128  0.0848
  859TIP3    H124136   3.270   3.370   6.462 -0.0626 -1.2180 -0.9052
  859TIP3    H224137   3.134   3.309   6.487  0.1585 -0.7271  1.7690
  860TIP3   OH224138   1.061   1.010   7.032 -0.0258  0.0304  0.4913
  860TIP3    H124139   1.021   0.981   6.950  1.6554  0.8226 -0.6719
  860TIP3    H224140   0.987   1.034   7.088 -1.3042 -2.3136 -0.0552
  861TIP3   OH224141   0.019   1.308   4.911 -0.1213 -0.1524  0.4343
  861TIP3    H124142   0.098   1.326   4.963  0.3071 -2.6181  0.7864
  861TIP3    H224143  -0.047   1.368   4.946  1.8410  2.9020 -0.7254
  862TIP3   OH224144   1.826   0.631  32.761 -0.2733  0.1368  0.0202
  862TIP3    H124145   1.798   0.584  32.839  1.5141  1.5934  1.6487
  862TIP3    H224146   1.813   0.723  32.782  1.7949  0.6537 -0.6983
  863TIP3   OH224147   2.467   0.827   2.078 -0.2007 -0.0613 -0.0931
  863TIP3    H124148   2.445   0.860   2.165 -0.0793  0.3324 -0.2079
  863TIP3    H224149   2.397   0.861   2.022  1.1018  1.9333 -0.6197
  864TIP3   OH224150   2.576   0.905  26.544  0.4930  0.3755  0.4584
  864TIP3    H124151   2.589   0.964  26.618  2.4302  1.5653 -0.7317
  864TIP3    H224152   2.657   0.854  26.540  0.1518 -0.1220 -0.4497
  865TIP3   OH224153   2.094   1.280  18.967 -0.0504 -0.6402 -0.4471
  865TIP3    H124154   2.157   1.338  18.924  0.9347 -1.6757 -0.4351
  865TIP3    H224155   2.052   1.335  19.033  1.3961 -0.1106  0.0674
  866TIP3   OH224156   3.194   2.244  19.554  0.2727 -0.2154 -0.0874
  866TIP3    H124157   3.155   2.272  19.471 -2.3288 -1.3802  0.6432
  866TIP3    H224158   3.166   2.309  19.617  0.7364 -0.2994  0.2113
  867TIP3   OH224159   2.095   1.603  28.068  0.5957 -0.5516  0.1469
  867TIP3    H124160   2.126   1.614  28.158 -0.3738 -0.6268  0.4997
  867TIP3    H224161   2.137   1.523  28.038  1.3021 -0.2696  0.3626
  868TIP3   OH224162   0.338   0.456   6.381  0.0888 -0.0146 -0.1768
  868TIP3    H124163   0.292   0.387   6.429 -0.3399  0.8773  0.7230
  868TIP3    H224164   0.269   0.502   6.333  0.3975 -0.2999 -0.9214
  869TIP3   OH224165   2.289   1.591   2.356  0.2716 -0.0919 -0.6673
  869TIP3    H124166   2.296   1.501   2.388  0.0940 -0.3746 -1.3966
  869TIP3    H224167   2.337   1.644   2.420 -1.3717 -0.4080  0.9145
  870TIP3   OH224168   1.112   0.084  29.715 -0.4509  0.4402 -0.6944
  870TIP3    H124169   1.195   0.096  29.761 -0.2686 -1.0475 -0.5980
  870TIP3    H224170   1.064   0.021  29.768 -1.0190  0.1473 -1.5340
  871TIP3   OH224171   3.433   0.947  27.867  0.0007 -0.1823 -0.3363
  871TIP3    H124172   3.474   1.033  27.873  0.3884 -0.4341  0.7869
  871TIP3    H224173   3.346   0.964  27.830 -0.1993  0.7855  0.5655
  872TIP3   OH224174   3.491   2.409   4.882  0.5502 -0.3116  0.4559
  872TIP3    H124175   3.451   2.466   4.947  0.2400 -0.4907  0.4238
  872TIP3    H224176   3.467   2.321   4.910 -1.8474 -0.3249 -1.3340
  873TIP3   OH224177   2.129   1.012  19.058  0.5226 -0.5807  0.4334
  873TIP3    H124178   2.136   1.105  19.036  2.0949 -0.8899 -0.5972
  873TIP3    H224179   2.043   1.003  19.098 -0.1312  1.1126 -0.4838
  874TIP3   OH224180   2.752   1.566  20.110  0.1460 -0.1072 -0.0384
  874TIP3    H124181   2.714   1.590  20.194  1.9562  0.3786  0.6973
  874TIP3    H224182   2.754   1.647  20.060  0.1040 -0.1620 -0.1295
  875TIP3   OH224183   2.119   3.374  26.651 -0.3606  0.5652 -0.2376
  875TIP3    H124184   2.187   3.319  26.689 -1.4718 -0.5728  0.1734
  875TIP3    H224185   2.117   3.452  26.705 -2.4345 -1.3310  2.7174
  876TIP3   OH224186   3.350   0.156  30.708  0.0474 -0.3044  0.4676
  876TIP3    H124187   3.309   0.231  30.664  2.3650 -0.2619 -1.8882
  876TIP3    H224188   3.320   0.080  30.657  0.5864 -0.5754  0.5555
  877TIP3   OH224189   1.578   3.490  27.016 -0.1851 -0.3202 -0.8131
  877TIP3    H124190   1.492   3.458  26.989 -0.1335 -0.0781 -1.2838
  877TIP3    H224191   1.564   3.530  27.102 -0.0219 -2.6766  0.4027
  878TIP3   OH224192   0.763   1.014   4.141  0.3280  0.0874  0.4622
  878TIP3    H124193   0.801   0.934   4.106 -0.0349 -0.6696  1.7433
  878TIP3    H224194   0.748   1.069   4.064 -1.1824 -1.8217 -0.6869
  879TIP3   OH224195   2.010   3.400   2.957 -0.0516  0.5253 -0.1140
  879TIP3    H124196   2.019   3.483   2.910 -1.2596 -0.0335 -1.4064
  879TIP3    H224197   1.916   3.385   2.959 -0.0132  0.2768  2.1127
  880TIP3   OH224198   2.276   0.694  32.606 -0.1040  0.2722 -0.2938
  880TIP3    H124199   2.348   0.729  32.553  0.6185 -0.2289  0.3374
  880TIP3    H224200   2.242   0.770  32.653  0.3073  0.4404 -0.2610
  881TIP3   OH224201   0.755   2.153   2.860 -0.1428  0.1401 -0.3385
  881TIP3    H124202   0.834   2.128   2.812  0.1544  1.1927 -0.4400
  881TIP3    H224203   0.773   2.243   2.889 -1.1753  0.2731 -0.0759
  882TIP3   OH224204   2.378   3.183   0.407  0.4723 -0.3161 -0.2450
  882TIP3    H124205   2.391   3.195   0.501  1.3513  1.3035 -0.5483
  882TIP3    H224206   2.308   3.118   0.402 -1.2890  1.2871  1.5549
  883TIP3   OH224207   1.879   2.609   3.324 -0.2392 -0.5758  0.0957
  883TIP3    H124208   1.929   2.551   3.266 -0.2131  1.1853 -1.7376
  883TIP3    H224209   1.801   2.632   3.274 -0.7587  0.1678  1.1934
  884TIP3   OH224210   0.875   0.555  28.151  0.3055  0.0324 -0.7335
  884TIP3    H124211   0.798   0.513  28.189 -1.8585  1.6475 -3.0058
  884TIP3    H224212   0.945   0.538  28.214 -1.8327 -1.6626  1.3734
  885TIP3   OH224213   1.850   2.562  29.174 -0.4709 -0.3270  0.1711
  885TIP3    H124214   1.816   2.509  29.246 -0.5516  0.5245  0.7692
  885TIP3    H224215   1.776   2.616  29.147 -0.5120 -0.8037 -0.7251
  886TIP3   OH224216   2.446   0.485   2.566 -0.1189 -0.1231  0.3582
  886TIP3    H124217   2.372   0.434   2.600  0.5407  0.2129  2.4479
  886TIP3    H224218   2.406   0.550   2.508 -1.1630 -1.6549 -0.7295
  887TIP3   OH224219   2.529   2.808  28.466 -0.0999  0.0908  0.0900
  887TIP3    H124220   2.532   2.836  28.557 -1.3403  0.5876 -0.0129
  887TIP3    H224221   2.621   2.797  28.442  0.2325 -0.3493  1.4850
  888TIP3   OH224222   2.131   2.038   0.481 -0.1861 -0.3752  0.3384
  888TIP3    H124223   2.219   2.011   0.454  0.3811  2.3040 -0.7781
  888TIP3    H224224   2.073   2.001   0.415  0.1727 -1.3615  0.5534
  889TIP3   OH224225   1.814   3.285  32.907 -0.9971  0.0696  0.5417
  889TIP3    H124226   1.752   3.342  32.954 -0.9361  1.2789 -0.7803
  889TIP3    H224227   1.878   3.345  32.869  1.1553 -1.1554  2.0044
  890TIP3   OH224228   3.378   1.863   4.058  0.4393  0.6030  0.6123
  890TIP3    H124229   3.381   1.951   4.097 -1.0182  0.4641  1.0925
  890TIP3    H224230   3.331   1.875   3.976 -2.6601 -0.1658  2.1282
  891TIP3   OH224231   0.234   2.662  11.588 -0.2529 -0.4236  0.5894
  891TIP3    H124232   0.185   2.744  11.597 -2.4473 -1.3702 -1.5443
  891TIP3    H224233   0.191   2.601  11.648 -0.4378 -0.7134  0.1739
  892TIP3   OH224234   2.460   1.950   5.812  0.3959 -0.5424  0.5926
  892TIP3    H124235   2.530   1.996   5.859  0.1492 -0.0958  0.5291
  892TIP3    H224236   2.452   1.997   5.729  0.2012 -0.7540  0.4912
  893TIP3   OH224237   3.132   3.109  28.330  0.1958 -0.0763  0.3628
  893TIP3    H124238   3.198   3.045  28.355 -0.9258 -1.0226  1.0256
  893TIP3    H224239   3.094   3.139  28.413  0.1166  0.8140  0.0205
  894TIP3   OH224240   1.948   3.354  26.975  0.3486 -0.2455  0.6948
  894TIP3    H124241   1.937   3.262  26.950  1.0400 -0.3136  0.6224
  894TIP3    H224242   2.020   3.384  26.920  0.9531 -0.0035  1.6189
  895TIP3   OH224243   1.680   1.701  32.759  0.3757 -0.5418  0.8106
  895TIP3    H124244   1.591   1.738  32.759  1.3708  2.1431  2.0977
  895TIP3    H224245   1.696   1.676  32.668 -1.8876 -1.6982  0.6673
  896TIP3   OH224246   0.949   2.691  23.798 -0.3914 -0.1854  0.1862
  896TIP3    H124247   1.038   2.658  23.811 -0.5055 -0.3691  0.5125
  896TIP3    H224248   0.901   2.616  23.763 -0.7318 -0.4765  1.2400
  897TIP3   OH224249   1.126   0.804  29.144  0.4944  0.9175 -0.1732
  897TIP3    H124250   1.121   0.869  29.213 -0.6307  2.3698 -1.5650
  897TIP3    H224251   1.220   0.787  29.134  0.7288  1.4845  0.9620
  898TIP3   OH224252   1.597   0.274  14.137 -0.4154  0.3853 -0.2573
  898TIP3    H124253   1.623   0.333  14.208 -3.2292  1.0682  0.3478
  898TIP3    H224254   1.530   0.323  14.088 -0.8479 -1.2722 -1.4330
  899TIP3   OH224255   0.488   2.164  29.012  0.8278  0.0592  0.0301
  899TIP3    H124256   0.547   2.202  29.077 -0.3410  0.6233  0.8092
  899TIP3    H224257   0.482   2.071  29.036 -3.0462  0.9651  3.6986
  900TIP3   OH224258   1.545   2.693  12.559  0.4252 -0.6960 -0.0903
  900TIP3    H124259   1.450   2.699  12.552  0.4225  0.0308  0.4447
  900TIP3    H224260   1.562   2.697  12.653  1.1052  1.6731 -0.2376
  901TIP3   OH224261   0.269   1.662   5.452  0.3875 -0.0708  0.1395
  901TIP3    H124262   0.338   1.728   5.453 -0.1538  0.5003  0.1305
  901TIP3    H224263   0.207   1.692   5.387 -0.8705  0.4831  1.5271
  902TIP3   OH224264   3.286   1.901   3.135  0.3412 -0.2161 -0.1221
  902TIP3    H124265   3.210   1.846   3.113  0.4611 -0.4296 -0.0150
  902TIP3    H224266   3.262   1.989   3.107 -0.4190 -0.0582  0.9534
  903TIP3   OH224267   1.665   0.369  29.317 -0.3487  0.6494 -0.1844
  903TIP3    H124268   1.702   0.457  29.322 -2.6662  1.6597  0.5012
  903TIP3    H224269   1.572   0.383  29.301 -0.7006 -1.7152 -0.5660
  904TIP3   OH224270   0.818   1.957   3.048  0.1558  0.1941  0.1616
  904TIP3    H124271   0.892   1.994   3.097 -0.5218  0.1595  1.2447
  904TIP3    H224272   0.789   2.027   2.990  0.2121  0.6409  0.6756
  905TIP3   OH224273   2.397   0.317   0.476 -0.7739  0.7276  0.3085
  905TIP3    H124274   2.304   0.311   0.452 -0.5263 -2.6398 -0.4488
  905TIP3    H224275   2.438   0.361   0.402 -1.6555  1.4554  0.2434
  906TIP3   OH224276   2.552   3.193   2.997 -0.6848  0.2770 -0.2967
  906TIP3    H124277   2.595   3.112   3.025 -2.0544 -0.9296 -1.5561
  906TIP3    H224278   2.528   3.237   3.079 -0.0696 -0.6593  0.4053
  907TIP3   OH224279   2.929   2.509   2.040 -0.0496 -0.3762  0.3331
  907TIP3    H124280   2.865   2.439   2.029 -0.5797  0.1371  0.1132
  907TIP3    H224281   2.885   2.588   2.007 -0.0090  0.3540  1.9604
  908TIP3   OH224282   2.824   2.192  22.022  0.3521 -0.5585 -0.3963
  908TIP3    H124283   2.782   2.186  21.936  0.1660 -3.2933 -0.2016
  908TIP3    H224284   2.911   2.154  22.009 -0.3017 -2.7091  0.9145
  909TIP3   OH224285   2.402   3.215  11.635  0.1994 -0.2585  0.2390
  909TIP3    H124286   2.338   3.281  11.661 -0.0454 -0.6139  0.5566
  909TIP3    H224287   2.423   3.236  11.544 -1.8569 -1.2940 -0.5455
  910TIP3   OH224288   2.909   0.431   5.066 -0.9062 -0.4340 -0.4193
  910TIP3    H124289   2.987   0.486   5.056 -0.4954 -0.7607  0.8904
  910TIP3    H224290   2.925   0.356   5.008 -1.1633  0.4455 -1.6851
  911TIP3   OH224291   1.248   0.161   3.154  0.5235 -0.1042 -0.5781
  911TIP3    H124292   1.159   0.137   3.179  1.0124 -1.9312 -0.4548
  911TIP3    H224293   1.304   0.101   3.203  1.7686  0.1348 -1.6355
  912TIP3   OH224294   2.191   0.852   0.665 -0.0807  0.3575  0.2716
  912TIP3    H124295   2.233   0.907   0.599 -1.5109 -0.4288 -1.3689
  912TIP3    H224296   2.185   0.766   0.624 -4.2122  0.6252 -0.1478
  913TIP3   OH224297   2.531   1.053   0.306  0.5634  0.2875  0.0571
  913TIP3    H124298   2.440   1.079   0.312  0.7780  1.3010 -0.7847
  913TIP3    H224299   2.529   0.957   0.308 -0.4618  0.3127  0.5820
  914TIP3   OH224300   1.983   2.305   2.549  0.6622 -0.0793  0.3962
  914TIP3    H124301   1.931   2.304   2.629  1.6220 -0.8931  1.0293
  914TIP3    H224302   2.068   2.269   2.575  0.8810 -0.6700 -1.0683
  915TIP3   OH224303   2.395   0.688   5.269 -0.2358 -0.5706 -0.4367
  915TIP3    H124304   2.434   0.750   5.330 -1.1442  0.4280 -0.8467
  915TIP3    H224305   2.404   0.603   5.313  2.3586 -0.4101 -0.5261
  916TIP3   OH224306   0.309   0.956  28.885  0.1577 -0.4587 -0.3817
  916TIP3    H124307   0.268   1.025  28.938 -1.1009 -1.7890  0.4741
  916TIP3    H224308   0.237   0.921  28.832  0.7967 -1.0263 -0.8906
  917TIP3   OH224309   1.479   3.338  15.423  0.0318  0.0724  0.8101
  917TIP3    H124310   1.409   3.381  15.374 -0.4674 -1.0147  0.5505
  917TIP3    H224311   1.506   3.265  15.367 -0.0769 -0.7737  1.8282
  918TIP3   OH224312   1.865   1.399   7.873  0.6690 -0.2950 -0.5070
  918TIP3    H124313   1.830   1.447   7.797 -0.7353  1.4441  1.1283
  918TIP3    H224314   1.958   1.420   7.874  0.6956 -0.2926 -1.6991
  919TIP3   OH224315   0.976   3.407  32.538  0.0549  0.2798  0.0542
  919TIP3    H124316   0.972   3.344  32.466  1.7369  0.9319 -0.6507
  919TIP3    H224317   1.049   3.377  32.592 -1.2102 -0.2227  1.5632
  920TIP3   OH224318   1.084   1.805  20.826 -0.1363  0.1467  0.3991
  920TIP3    H124319   1.050   1.716  20.829 -2.4921  0.9677  0.4522
  920TIP3    H224320   1.023   1.856  20.880 -0.3946  2.2326 -1.6736
  921TIP3   OH224321   0.170   1.905  22.465 -0.1200  0.2564 -0.3299
  921TIP3    H124322   0.167   1.834  22.401  1.7452  1.1385 -1.4702
  921TIP3    H224323   0.131   1.979  22.420  1.4576  0.9593 -0.6142
  922TIP3   OH224324   3.479   2.925  29.348  0.7019 -0.6721 -0.0457
  922TIP3    H124325   3.418   2.886  29.286 -0.0501 -1.3248  1.0941
  922TIP3    H224326   3.445   3.013  29.363  1.3694 -0.1835 -1.1824
  923TIP3   OH224327   0.599   0.566  31.529  0.0821  0.1479 -0.4075
  923TIP3    H124328   0.551   0.590  31.450  0.7361  2.0951 -0.2671
  923TIP3    H224329   0.543   0.596  31.601 -0.1954 -1.0001 -0.1208
  924TIP3   OH224330   0.760   3.106   0.739  0.3557  0.4269  0.4258
  924TIP3    H124331   0.672   3.138   0.719 -0.0447 -0.6056  0.4813
  924TIP3    H224332   0.817   3.182   0.724 -0.3057  0.6209 -1.4842
  925TIP3   OH224333   2.587   2.068  32.414 -0.1802 -0.2039  0.2553
  925TIP3    H124334   2.595   2.156  32.452 -0.3751 -0.4501  0.8834
  925TIP3    H224335   2.660   2.062  32.353  0.6063 -0.0714  1.1610
  926TIP3   OH224336   1.846   2.001  30.903 -0.3701  0.4573 -0.0202
  926TIP3    H124337   1.907   2.061  30.858  0.1646 -0.8255 -1.0750
  926TIP3    H224338   1.899   1.961  30.971 -0.5595  0.7198  0.2842
  927TIP3   OH224339   2.656   1.371   2.944 -0.2055 -0.4753  0.1428
  927TIP3    H124340   2.710   1.446   2.921  0.0033 -0.4024  0.8481
  927TIP3    H224341   2.579   1.378   2.887 -1.0200  1.2370  1.3697
  928TIP3   OH224342   2.585   3.421   5.770 -0.3204 -0.2691  0.1005
  928TIP3    H124343   2.562   3.507   5.805  0.5361  0.0961 -0.1916
  928TIP3    H224344   2.503   3.385   5.737 -0.3155  1.5136 -2.0997
  929TIP3   OH224345   2.950   1.463  32.510  0.0654 -0.2366 -0.2677
  929TIP3    H124346   2.901   1.492  32.432  2.9086  1.8446 -1.4473
  929TIP3    H224347   2.931   1.530  32.576  1.0393  0.4308 -0.6443
  930TIP3   OH224348   2.418   0.458  26.875  0.1267 -0.2053  0.6649
  930TIP3    H124349   2.417   0.378  26.822 -0.4982  0.8418 -1.0117
  930TIP3    H224350   2.327   0.485  26.878  0.1240 -0.3357  2.5135
  931TIP3   OH224351   3.388   2.226   4.325  0.4868  0.4319  0.3120
  931TIP3    H124352   3.368   2.134   4.309  0.0285  0.5782  0.0339
  931TIP3    H224353   3.476   2.225   4.363  0.7148 -0.0790 -0.2163
  932TIP3   OH224354   0.471   1.668  28.843  0.2820  0.2589 -0.3691
  932TIP3    H124355   0.559   1.673  28.806  0.7040  1.8028  0.7412
  932TIP3    H224356   0.451   1.574  28.847  1.3104 -0.0479 -1.8978
  933TIP3   OH224357   3.190   3.245  30.624 -0.4615  0.0551  0.3318
  933TIP3    H124358   3.248   3.170  30.633 -0.2770 -0.0792 -1.5177
  933TIP3    H224359   3.218   3.306  30.692 -1.1824 -1.8395  2.4787
  934TIP3   OH224360   1.427   0.095  28.028 -0.0514  0.6935 -0.5350
  934TIP3    H124361   1.507   0.134  28.062 -0.9738  3.0261 -0.8197
  934TIP3    H224362   1.370   0.086  28.105 -0.0219  0.4001 -0.5487
  935TIP3   OH224363   0.609   1.376  26.936 -0.7566  0.4901 -0.5553
  935TIP3    H124364   0.539   1.440  26.953  0.3438  2.1172 -1.8183
  935TIP3    H224365   0.655   1.411  26.860  0.2894 -1.5262 -0.9035
  936TIP3   OH224366   1.244   1.073  27.564 -0.5919 -0.1343 -0.1608
  936TIP3    H124367   1.205   0.999  27.609 -0.2941 -0.8468 -1.0349
  936TIP3    H224368   1.338   1.057  27.567 -0.5624 -0.1797 -0.9820
  937TIP3   OH224369   1.979   2.613  14.388 -0.2575 -0.0128 -0.2392
  937TIP3    H124370   1.884   2.607  14.395 -0.1813 -1.5637 -0.1269
  937TIP3    H224371   2.006   2.659  14.467 -0.8325 -0.6988  0.3718
  938TIP3   OH224372   0.318   1.887  22.946  0.1757  0.0902 -0.0616
  938TIP3    H124373   0.382   1.851  23.007  1.5473  0.6274 -1.1202
  938TIP3    H224374   0.261   1.942  23.000  0.8711 -0.0580  0.8475
  939TIP3   OH224375   0.689   3.546   4.763 -0.2791 -0.1907  0.0422
  939TIP3    H124376   0.676   3.609   4.691 -1.3667  0.3115  0.6481
  939TIP3    H224377   0.657   3.463   4.727  1.0022 -0.4021 -0.7023
  940TIP3   OH224378   2.683   2.415  29.146  0.3835 -0.1619  0.7946
  940TIP3    H124379   2.665   2.321  29.149 -1.3834  0.0034 -1.5355
  940TIP3    H224380   2.596   2.456  29.143  1.0516  1.2937 -1.6262
  941TIP3   OH224381   2.697   1.396  27.957  0.4734 -0.7069 -0.8808
  941TIP3    H124382   2.741   1.352  27.885  0.2709  0.4738 -1.7622
  941TIP3    H224383   2.623   1.340  27.979 -0.0987 -0.5559 -2.3337
  942TIP3   OH224384   2.997   3.330  28.915  0.0397  0.0471 -0.2080
  942TIP3    H124385   3.000   3.360  29.006  0.3835  4.5402 -1.4362
  942TIP3    H224386   3.089   3.318  28.890 -0.1123 -3.3521  0.4923
  943TIP3   OH224387   0.684   2.828  30.878  0.1189  0.4587 -0.1237
  943TIP3    H124388   0.672   2.923  30.878 -0.6636  0.3718 -0.3362
  943TIP3    H224389   0.762   2.813  30.931 -0.8487  1.0854  1.5435
  944TIP3   OH224390   0.914   1.230   6.400  0.2087 -0.3770 -0.0162
  944TIP3    H124391   0.856   1.303   6.378  0.7997  0.5318  1.2997
  944TIP3    H224392   0.859   1.153   6.395 -0.7693  0.3136 -0.1330
  945TIP3   OH224393   0.122   0.647   5.645 -0.2028 -0.0374 -0.2871
  945TIP3    H124394   0.140   0.602   5.562  1.3500  1.3236 -0.7394
  945TIP3    H224395   0.027   0.643   5.654 -0.3438 -0.8518 -1.7486
  946TIP3   OH224396   3.384   2.857  22.175 -0.1584  0.2733 -0.3723
  946TIP3    H124397   3.428   2.841  22.092  1.7567  0.0286  0.6178
  946TIP3    H224398   3.322   2.785  22.184 -0.5233  0.4021 -1.6448
  947TIP3   OH224399   1.768   1.934  32.853 -0.4891  0.0935  0.5308
  947TIP3    H124400   1.770   1.849  32.808 -1.2040  1.2848 -1.8964
  947TIP3    H224401   1.819   1.920  32.932 -0.2708 -2.5056  0.0209
  948TIP3   OH224402   0.347   3.528   0.883  0.2631  0.0033 -0.0159
  948TIP3    H124403   0.268   3.486   0.850 -0.8866  1.1205  1.1819
  948TIP3    H224404   0.405   3.456   0.907 -0.0158 -0.8296 -1.7050
  949TIP3   OH224405   1.774   2.928   2.189  0.0405 -0.3208 -0.1885
  949TIP3    H124406   1.785   2.863   2.120 -0.0693  0.5060 -1.0131
  949TIP3    H224407   1.782   3.012   2.144  1.0878  0.2452  1.0003
  950TIP3   OH224408   2.008   0.904   1.741 -0.0414 -0.1856 -0.1818
  950TIP3    H124409   2.010   0.892   1.835  0.7262  0.9698 -0.0360
  950TIP3    H224410   1.916   0.924   1.721  0.1871  2.0862  0.6986
  951TIP3   OH224411   0.983   1.749   0.273 -0.5123 -0.2452  0.7628
  951TIP3    H124412   0.902   1.766   0.224 -0.7192  0.4982  1.3551
  951TIP3    H224413   1.017   1.835   0.295  0.2730 -0.5598  0.8058
  952TIP3   OH224414   1.961   0.820   4.520  0.0609  0.4865 -0.0736
  952TIP3    H124415   1.867   0.827   4.502 -0.1863  0.9256  1.3147
  952TIP3    H224416   1.968   0.756   4.590  0.9972 -1.0447 -1.4837
  953TIP3   OH224417   2.592   2.869  27.613 -0.5138 -0.4078  0.4844
  953TIP3    H124418   2.662   2.934  27.619  1.3206 -2.4066  3.1082
  953TIP3    H224419   2.558   2.878  27.524  2.7911  1.0007 -0.8013
  954TIP3   OH224420   2.808   0.748   2.597  0.0119 -0.1807  0.2064
  954TIP3    H124421   2.854   0.813   2.544 -1.0098  0.4003 -0.0004
  954TIP3    H224422   2.785   0.679   2.535 -0.3322  0.0361  0.0932
  955TIP3   OH224423   2.039   2.216  18.959 -0.6914 -0.4068  0.5466
  955TIP3    H124424   2.069   2.307  18.950 -1.4989 -0.2931 -1.3855
  955TIP3    H224425   2.089   2.182  19.033  1.1143  1.0220  0.0608
  956TIP3   OH224426   2.373   1.960  21.597 -0.1820  0.1367  0.1788
  956TIP3    H124427   2.448   2.019  21.585  0.9061 -0.7713  1.9869
  956TIP3    H224428   2.364   1.953  21.692 -0.5129 -2.2674  0.0272
  957TIP3   OH224429   0.965   0.264   4.747  0.0572 -0.4982 -0.2603
  957TIP3    H124430   1.047   0.289   4.704 -0.4001 -0.7875 -1.3133
  957TIP3    H224431   0.981   0.174   4.777  0.3127 -0.3615  0.0183
  958TIP3   OH224432   0.718   1.296  27.569  0.2787 -0.3308  0.5105
  958TIP3    H124433   0.730   1.201  27.577  0.1065 -0.4113 -0.1850
  958TIP3    H224434   0.704   1.325  27.660  2.4370 -0.6601  1.0105
  959TIP3   OH224435   1.996   2.016   3.628  0.2902 -0.5756 -0.2320
  959TIP3    H124436   1.998   1.989   3.720 -1.8977  0.7143  0.2580
  959TIP3    H224437   1.982   1.935   3.580  0.2308 -1.1126  0.6662
  960TIP3   OH224438   3.053   2.329   2.885  0.0994 -0.0865 -0.1301
  960TIP3    H124439   3.118   2.295   2.823  0.0917 -0.5794  0.1249
  960TIP3    H224440   3.103   2.347   2.965 -0.0773 -0.4907  0.0753
  961TIP3   OH224441   0.849   0.666   2.066 -0.4224 -0.9244 -0.0934
  961TIP3    H124442   0.927   0.611   2.063  0.1383 -0.2053  0.6759
  961TIP3    H224443   0.793   0.633   1.996  0.7952 -1.1315 -0.9929
  962TIP3   OH224444   2.482   1.565  30.075  0.4833  0.7248 -0.8656
  962TIP3    H124445   2.540   1.552  30.150 -1.6758  1.2829  0.9834
  962TIP3    H224446   2.519   1.509  30.007  1.3015 -1.5003  1.2737
  963TIP3   OH224447   1.648   2.688   5.845  0.2515 -0.1620  0.0246
  963TIP3    H124448   1.657   2.655   5.756  0.4406  0.6545 -0.2690
  963TIP3    H224449   1.654   2.610   5.900 -0.2478 -0.7217 -0.6905
  964TIP3   OH224450   0.429   3.430   5.618 -0.1481  0.0594  0.1888
  964TIP3    H124451   0.352   3.485   5.604  0.5395  0.5669 -2.0168
  964TIP3    H224452   0.414   3.388   5.702 -4.2158 -2.1121 -1.3504
  965TIP3   OH224453   1.726   3.463   3.007 -0.0120 -0.9931 -0.1572
  965TIP3    H124454   1.637   3.426   3.010 -1.3326  1.8427 -1.0542
  965TIP3    H224455   1.748   3.478   3.099 -1.8353  1.0809  0.0299
  966TIP3   OH224456   0.274   1.574   5.711 -0.6082 -0.7607 -0.6107
  966TIP3    H124457   0.263   1.598   5.619  1.5223 -0.0209 -0.7252
  966TIP3    H224458   0.190   1.595   5.752 -0.9479  0.8042 -2.0006
  967TIP3   OH224459   2.229   3.033   4.092  0.2069 -0.2354 -0.0568
  967TIP3    H124460   2.261   3.113   4.050 -0.7588  1.6226  2.4385
  967TIP3    H224461   2.307   2.995   4.134  0.6794 -0.6653 -1.2877
  968TIP3   OH224462   2.176   1.286  26.928 -0.0133  0.1642  0.6942
  968TIP3    H124463   2.093   1.317  26.963  0.2726 -0.4557  2.0244
  968TIP3    H224464   2.240   1.310  26.996  0.7821  0.0500 -0.0009
  969TIP3   OH224465   2.645   0.444   1.884 -0.4346  0.0573 -0.1354
  969TIP3    H124466   2.625   0.529   1.845  0.2186  0.2285 -0.1189
  969TIP3    H224467   2.561   0.398   1.889 -0.3227 -0.8018 -3.6890
  970TIP3   OH224468   3.219   3.420   1.950  0.1818  0.0498  0.0194
  970TIP3    H124469   3.287   3.383   1.894 -0.4955 -0.8961 -0.2061
  970TIP3    H224470   3.153   3.453   1.890 -0.1155 -0.1329  0.2395
  971TIP3   OH224471   3.228   0.490   4.493  0.1198 -0.2775  0.3069
  971TIP3    H124472   3.205   0.444   4.412 -0.7900 -1.0883  1.0093
  971TIP3    H224473   3.201   0.431   4.563 -0.1886  0.9139  1.2222
  972TIP3   OH224474   0.354   1.016  26.700 -0.1584 -0.0999 -0.2174
  972TIP3    H124475   0.343   1.069  26.779  1.2306 -0.4252  0.2377
  972TIP3    H224476   0.345   0.926  26.731  2.3044 -0.3368  0.0042
  973TIP3   OH224477   0.459   0.635  26.514 -0.5985  0.4243  0.2382
  973TIP3    H124478   0.515   0.558  26.521 -1.1136 -0.1669 -1.6057
  973TIP3    H224479   0.520   0.708  26.503 -0.1373 -0.1500 -1.2596
  974TIP3   OH224480   2.465   2.661   3.037  0.0002 -0.1220  0.3438
  974TIP3    H124481   2.541   2.719   3.035  0.0088 -0.1490 -0.3026
  974TIP3    H224482   2.410   2.690   2.964  0.1124 -1.0415 -0.1326
  975TIP3   OH224483   1.084   2.693   0.590 -0.0520 -0.5848 -0.0664
  975TIP3    H124484   1.155   2.757   0.585  0.5472 -1.2580 -0.4206
  975TIP3    H224485   1.066   2.671   0.498 -1.1434  0.0310 -0.0105
  976TIP3   OH224486   2.565   1.234   5.698  0.5145  0.5252  0.1761
  976TIP3    H124487   2.532   1.300   5.759 -0.4681 -0.0495  0.2881
  976TIP3    H224488   2.565   1.153   5.748  3.0222  0.6241  0.4756
  977TIP3   OH224489   3.246   0.073   6.378  0.1615  0.1913 -0.5515
  977TIP3    H124490   3.198   0.004   6.424 -0.6591 -0.6375 -2.5526
  977TIP3    H224491   3.308   0.107   6.443  0.1330 -1.9739  0.6844
  978TIP3   OH224492   2.199   1.775  27.525 -0.1014 -0.1945  0.0370
  978TIP3    H124493   2.188   1.845  27.590 -0.1453  0.4381 -0.6428
  978TIP3    H224494   2.249   1.816  27.455 -1.9826 -0.1824 -1.3783
  979TIP3   OH224495   3.253   3.360   2.380  0.4912  0.0403  0.0524
  979TIP3    H124496   3.260   3.384   2.472 -0.3228 -0.8973  0.3806
  979TIP3    H224497   3.221   3.440   2.337 -1.7299 -0.2260  1.0431
  980TIP3   OH224498   1.526   1.033   1.214 -0.0212 -0.3665  0.1737
  980TIP3    H124499   1.486   1.094   1.153  1.1023  0.4708  0.2487
  980TIP3    H224500   1.452   0.995   1.263 -0.8429 -0.3066 -1.0002
  981TIP3   OH224501   1.926   2.593  11.759  0.0776  0.0285  0.4199
  981TIP3    H124502   1.963   2.607  11.846 -1.5270 -3.4823  1.9100
  981TIP3    H224503   2.001   2.589  11.700  1.3393  0.9764  1.9049
  982TIP3   OH224504   1.115   0.451  28.792  0.1729 -0.3402 -0.0093
  982TIP3    H124505   1.027   0.469  28.825  0.4797 -0.4919  0.9238
  982TIP3    H224506   1.165   0.529  28.812  0.5274 -0.6875  0.4897
  983TIP3   OH224507   2.004   2.741   1.352  0.3407 -0.3399 -0.3874
  983TIP3    H124508   1.956   2.697   1.422 -0.5874 -0.6120 -1.1696
  983TIP3    H224509   2.074   2.788   1.397 -1.2859  0.9446  0.9275
  984TIP3   OH224510   0.511   1.070  29.171 -0.0686 -0.0408 -0.3959
  984TIP3    H124511   0.517   0.979  29.199 -1.7320  0.2381  0.9874
  984TIP3    H224512   0.491   1.064  29.077 -0.6156 -1.0934 -0.2284
  985TIP3   OH224513   0.933   3.304  11.755 -0.4224 -0.2217  0.2151
  985TIP3    H124514   0.844   3.320  11.787 -0.4897 -0.8569  0.3450
  985TIP3    H224515   0.989   3.351  11.817 -0.6971  0.8297 -0.3036
  986TIP3   OH224516   2.616   0.715  18.356 -0.0637  0.4790  0.1327
  986TIP3    H124517   2.583   0.728  18.267 -0.0678  0.6702  0.1628
  986TIP3    H224518   2.690   0.776  18.363  0.4887 -0.1514 -0.0370
  987TIP3   OH224519   3.439   2.839  27.352 -0.0415 -0.0532  0.7658
  987TIP3    H124520   3.404   2.927  27.339  1.2710  0.3371 -0.4283
  987TIP3    H224521   3.379   2.782  27.304 -0.6278  0.2476  1.1421
  988TIP3   OH224522   3.492   0.664  27.264 -0.0696 -0.1426 -0.1817
  988TIP3    H124523   3.460   0.722  27.333 -1.6016 -2.6434  1.3456
  988TIP3    H224524   3.447   0.695  27.185  0.4513  1.7530  0.2150
  989TIP3   OH224525   1.771   2.551  28.863 -0.4489 -0.7177  0.5409
  989TIP3    H124526   1.782   2.619  28.930 -1.1272 -0.2216  0.1627
  989TIP3    H224527   1.771   2.599  28.780 -1.4219 -1.1170  0.2964
  990TIP3   OH224528   0.458   1.053   2.385 -0.3515  0.1454 -0.3442
  990TIP3    H124529   0.470   0.986   2.453  2.6420  0.8137 -0.1024
  990TIP3    H224530   0.407   1.122   2.428  0.1589 -0.1225  0.7193
  991TIP3   OH224531   1.918   0.835   5.871  0.1193 -0.6503 -0.0476
  991TIP3    H124532   1.953   0.875   5.792 -0.2993 -0.0904  0.0485
  991TIP3    H224533   1.958   0.885   5.943 -1.0342  0.1497  0.0609
  992TIP3   OH224534   2.675   1.190   3.383  0.2974 -0.1862  0.4605
  992TIP3    H124535   2.707   1.215   3.470 -1.1809  0.9076  0.7330
  992TIP3    H224536   2.652   1.273   3.341  0.4313 -0.7430 -0.7622
  993TIP3   OH224537   2.381   2.756   3.741 -0.2812  0.2821  0.4623
  993TIP3    H124538   2.425   2.712   3.669 -0.3328  1.6520 -0.4471
  993TIP3    H224539   2.439   2.829   3.764  0.9007 -1.3933  3.4021
  994TIP3   OH224540   0.224   2.519   1.824  0.2611  0.0661  0.1415
  994TIP3    H124541   0.236   2.608   1.791 -0.4384  0.8843  1.9462
  994TIP3    H224542   0.291   2.468   1.779  1.6277  1.7912  0.0939
  995TIP3   OH224543   0.305   2.137   1.166 -0.5515  0.3417  0.1182
  995TIP3    H124544   0.292   2.217   1.217  1.7957 -0.2754  1.8468
  995TIP3    H224545   0.224   2.127   1.117 -0.3394  4.6922 -1.5437
  996TIP3   OH224546   2.449   1.953  17.761  0.1359  0.0468 -0.2394
  996TIP3    H124547   2.541   1.933  17.776  0.1378  1.5898  2.3370
  996TIP3    H224548   2.401   1.885  17.808 -0.1738 -1.5153 -2.6248
  997TIP3   OH224549   1.279   3.143   4.702 -0.3461  0.0006 -0.1570
  997TIP3    H124550   1.345   3.131   4.634  1.7552 -0.4984  1.8511
  997TIP3    H224551   1.275   3.059   4.748 -0.5656  0.7549  1.2768
  998TIP3   OH224552   3.307   3.292   5.001 -0.1596 -0.3554  0.4050
  998TIP3    H124553   3.287   3.341   5.080 -2.0550 -0.6776  0.1582
  998TIP3    H224554   3.230   3.238   4.985  0.8310 -1.4887 -0.7758
  999TIP3   OH224555   1.027   1.360  27.170 -0.3411  0.2577  0.6459
  999TIP3    H124556   1.082   1.428  27.209  1.8796 -0.3319 -1.2184
  999TIP3    H224557   1.059   1.278  27.208 -3.7193  0.1181  3.7165
 1000TIP3   OH224558   1.941   2.764   5.693  0.0435  0.3150  0.2386
 1000TIP3    H124559   1.881   2.750   5.619  1.1082  1.2090 -0.8312
 1000TIP3    H224560   1.981   2.849   5.676  0.2578  0.5776  1.9143
 1001TIP3   OH224561   0.519   1.713  26.683 -0.6904  0.2118 -0.4613
 1001TIP3    H124562   0.557   1.733  26.597 -0.4494  3.7555  0.3461
 1001TIP3    H224563   0.427   1.693  26.665 -0.1388 -1.4984 -1.7085
 1002TIP3   OH224564   0.111   1.174  31.150 -0.6067  0.4271 -0.3182
 1002TIP3    H124565   0.104   1.235  31.223  1.7027 -0.0267  0.3549
 1002TIP3    H224566   0.196   1.192  31.110 -0.1928 -1.7765 -0.5890
 1003TIP3   OH224567   3.178   2.689   6.716  0.4586 -0.1099 -0.0175
 1003TIP3    H124568   3.205   2.754   6.652  3.4616  0.0399  1.2151
 1003TIP3    H224569   3.225   2.609   6.691  0.1588 -0.5948  0.8896
 1004TIP3   OH224570   1.208   0.260  29.511  0.1339 -0.2103 -0.1331
 1004TIP3    H124571   1.213   0.238  29.418 -0.0617 -0.0335 -0.1875
 1004TIP3    H224572   1.126   0.221  29.541  0.4083 -0.6375  0.0678
 1005TIP3   OH224573   2.387   1.309  27.098 -0.2066 -0.3228 -0.5218
 1005TIP3    H124574   2.458   1.371  27.115 -0.8536  0.4507 -0.5555
 1005TIP3    H224575   2.342   1.300  27.182 -1.9419  1.6415 -1.1317
 1006TIP3   OH224576   2.000   1.538   7.026  0.4925 -0.0315  0.3824
 1006TIP3    H124577   1.960   1.625   7.030  1.1598  0.3014 -0.0161
 1006TIP3    H224578   1.926   1.479   7.013  0.0699  0.5108  0.2540
 1007TIP3   OH224579   0.140   2.983   0.518 -0.5593 -0.1246  0.4473
 1007TIP3    H124580   0.217   2.954   0.469 -0.3286 -1.4359  1.5571
 1007TIP3    H224581   0.170   3.060   0.567 -0.6841  0.9473 -1.0933
 1008TIP3   OH224582   2.861   1.553  31.123 -0.3831 -0.4762 -0.2501
 1008TIP3    H124583   2.822   1.474  31.159  0.3749 -1.0918 -0.7593
 1008TIP3    H224584   2.948   1.557  31.162  0.1727 -0.7550 -1.4133
 1009TIP3   OH224585   3.296   0.937   3.925 -0.4111 -0.1771 -0.2884
 1009TIP3    H124586   3.277   0.989   3.847 -0.7767 -0.8125 -0.6406
 1009TIP3    H224587   3.315   1.001   3.993  4.1754  0.4602 -1.8306
 1010TIP3   OH224588   2.511   0.080   6.262 -0.0896  0.7821  0.4155
 1010TIP3    H124589   2.542   0.014   6.201 -1.8751  0.6510 -0.4069
 1010TIP3    H224590   2.564   0.157   6.242 -0.2722  0.5841 -0.9577
 1011TIP3   OH224591   2.226   0.272  31.332  0.1311  0.4884 -0.0008
 1011TIP3    H124592   2.180   0.355  31.317  0.9676  0.9388 -0.1856
 1011TIP3    H224593   2.217   0.225  31.249 -0.5756  0.2679  0.1947
 1012TIP3   OH224594   0.665   2.531   4.064  0.1393 -0.5545 -0.1182
 1012TIP3    H124595   0.639   2.445   4.096 -0.3426 -0.0662  0.8871
 1012TIP3    H224596   0.759   2.535   4.078 -0.0179 -0.4613  1.0532
 1013TIP3   OH224597   0.089   0.680  31.387 -0.1558 -0.2904  0.4151
 1013TIP3    H124598   0.027   0.750  31.408  0.0090  0.2273 -0.7546
 1013TIP3    H224599   0.163   0.696  31.446 -0.8735 -0.5708  1.4178
 1014TIP3   OH224600   3.206   2.754  27.750 -0.1540  0.0392 -0.3566
 1014TIP3    H124601   3.286   2.777  27.703  0.1132 -2.2631 -1.1744
 1014TIP3    H224602   3.235   2.692  27.817 -0.8212  1.7977  1.6862
 1015TIP3   OH224603   1.659   0.017  11.219  0.1758  0.8940 -0.4147
 1015TIP3    H124604   1.702  -0.034  11.150  1.0214  0.9478  0.0629
 1015TIP3    H224605   1.637   0.100  11.177 -0.6159  0.4049 -1.0127
 1016TIP3   OH224606   0.913   1.687   1.881 -0.6184 -0.1366 -0.3539
 1016TIP3    H124607   0.837   1.711   1.934 -0.2074  1.3584 -0.4061
 1016TIP3    H224608   0.985   1.680   1.943 -0.2801  0.9546 -0.5948
 1017TIP3   OH224609   1.512   3.010  27.289  0.0628 -0.3643  0.0239
 1017TIP3    H124610   1.562   2.928  27.284  1.1312  0.2714 -0.0821
 1017TIP3    H224611   1.440   2.999  27.228  0.2960 -1.1672 -0.1123
 1018TIP3   OH224612   0.526   1.765  29.934 -0.2089  0.5835  0.0260
 1018TIP3    H124613   0.570   1.741  30.016  1.5325  0.0309 -1.0069
 1018TIP3    H224614   0.467   1.691  29.916 -2.0069  1.5440  1.6666
 1019TIP3   OH224615   2.903   1.973  20.818 -0.2241 -0.3027 -0.3518
 1019TIP3    H124616   2.872   2.041  20.758  0.0997 -0.2047 -0.4044
 1019TIP3    H224617   2.831   1.909  20.819 -0.5015  0.0047 -0.3470
 1020TIP3   OH224618   1.067   1.835  26.167 -1.0624  0.1422 -0.4896
 1020TIP3    H124619   1.046   1.927  26.154  2.4426  0.9394 -1.5762
 1020TIP3    H224620   1.149   1.836  26.217  0.6162 -2.2277 -2.9283
 1021TIP3   OH224621   2.970   2.332  22.227 -0.4286 -0.0056 -0.4690
 1021TIP3    H124622   3.065   2.328  22.213 -0.3214  2.0194 -0.4987
 1021TIP3    H224623   2.933   2.284  22.152  0.5512 -1.7127  0.0740
 1022TIP3   OH224624   2.121   2.216   6.777  0.3523 -0.1621 -0.1314
 1022TIP3    H124625   2.099   2.308   6.785 -1.1752 -0.3284 -1.9965
 1022TIP3    H224626   2.070   2.184   6.703  1.7841 -2.2266 -0.3282
 1023TIP3   OH224627   1.848   2.889   5.253 -0.3629 -0.3197  0.5131
 1023TIP3    H124628   1.842   2.794   5.266  1.1935 -0.5767 -0.3911
 1023TIP3    H224629   1.869   2.899   5.160  1.7607  0.7678  1.0312
 1024TIP3   OH224630   3.059   0.873  29.168  0.1023 -0.0832  0.0628
 1024TIP3    H124631   2.988   0.831  29.119  0.6702 -0.2533 -0.6392
 1024TIP3    H224632   3.017   0.906  29.247 -0.8005 -0.0122 -0.4244
 1025TIP3   OH224633   3.171   3.143  27.615 -0.5021  0.3206  0.0598
 1025TIP3    H124634   3.155   3.100  27.699 -1.5908 -1.2274 -0.8800
 1025TIP3    H224635   3.137   3.232  27.627 -0.8175  0.0639  1.1986
 1026TIP3   OH224636   0.111   2.414   2.413 -0.0524 -0.2069 -0.3236
 1026TIP3    H124637   0.206   2.411   2.405  0.0007 -2.2169  0.6398
 1026TIP3    H224638   0.079   2.339   2.363 -1.0509 -0.2067  0.2697
 1027TIP3   OH224639   1.391   0.004  11.614  0.4383  0.0215  0.4786
 1027TIP3    H124640   1.373  -0.090  11.617  0.1052  0.1258  2.3754
 1027TIP3    H224641   1.368   0.037  11.701  2.1198  1.5771  0.3994
 1028TIP3   OH224642   1.747   2.434   6.729 -0.5582 -0.0484  0.2489
 1028TIP3    H124643   1.680   2.394   6.673 -0.2051  0.6222 -0.6743
 1028TIP3    H224644   1.725   2.527   6.731  0.4935  0.2324 -0.3059
 1029TIP3   OH224645   1.213   1.802  19.382  0.0572  0.0235  0.0634
 1029TIP3    H124646   1.247   1.889  19.402  0.2859 -0.0325 -0.0871
 1029TIP3    H224647   1.123   1.805  19.415 -0.0105  0.3931 -0.1441
 1030TIP3   OH224648   0.905   1.222  27.847  0.1636  0.2297 -0.2126
 1030TIP3    H124649   0.847   1.146  27.853 -1.7766  1.5042 -1.5719
 1030TIP3    H224650   0.846   1.297  27.851  1.7363  1.6093 -1.4001
 1031TIP3   OH224651   2.850   0.477  30.421 -0.5394  0.0318 -0.3008
 1031TIP3    H124652   2.787   0.408  30.404  0.4623 -0.9250 -0.2623
 1031TIP3    H224653   2.835   0.503  30.512 -0.7770 -0.2983 -0.2469
 1032TIP3   OH224654   2.033   2.099  25.938 -0.0057 -0.6672 -0.4886
 1032TIP3    H124655   1.958   2.040  25.935 -0.9960  0.5457 -0.3847
 1032TIP3    H224656   1.995   2.187  25.934  1.4449 -0.0324 -1.0336
 1033TIP3   OH224657   3.111   2.150  28.449  0.5984 -0.1430 -0.3560
 1033TIP3    H124658   3.038   2.197  28.489  2.0441  0.7714  1.2995
 1033TIP3    H224659   3.134   2.202  28.372  0.7368  0.6125  0.1929
 1034TIP3   OH224660   0.747   3.442   6.016  0.1239  0.2962  0.3640
 1034TIP3    H124661   0.679   3.503   5.988  1.6031  1.9811  0.3287
 1034TIP3    H224662   0.785   3.408   5.935  0.2793  0.4480  0.3728
 1035TIP3   OH224663   2.140   1.521  27.491 -0.3452 -0.1913  0.6827
 1035TIP3    H124664   2.171   1.609  27.514 -0.9258 -0.0339  0.8905
 1035TIP3    H224665   2.203   1.462  27.534  1.6107  0.0760 -1.6013
 1036TIP3   OH224666   0.841   2.164  27.689  0.0291  0.4102  0.2483
 1036TIP3    H124667   0.801   2.189  27.606  0.3300 -2.1046 -0.7314
 1036TIP3    H224668   0.785   2.094  27.723  1.5450 -0.6529  0.6499
 1037TIP3   OH224669   0.150   0.087  27.984 -0.4356 -0.2816  0.5929
 1037TIP3    H124670   0.058   0.077  28.005 -0.3849 -3.4848 -0.2114
 1037TIP3    H224671   0.185  -0.002  27.983  2.0415  0.5536 -1.7868
 1038TIP3   OH224672   1.907   0.034   0.132  0.3991 -0.7306  0.3287
 1038TIP3    H124673   1.949  -0.037   0.180 -0.3353 -0.4069  1.5023
 1038TIP3    H224674   1.830  -0.006   0.092  1.2907 -1.1200 -1.0704
 1039TIP3   OH224675   2.700   1.011   6.441  0.2607  0.0878 -0.2192
 1039TIP3    H124676   2.690   0.979   6.351 -0.2408  0.2080 -0.2093
 1039TIP3    H224677   2.611   1.034   6.468  0.0762 -1.8960  1.0435
 1040TIP3   OH224678   2.493   2.653   5.841  0.0298 -0.0260 -0.2140
 1040TIP3    H124679   2.458   2.667   5.753 -0.6088  0.9831  0.1761
 1040TIP3    H224680   2.417   2.626   5.893  0.4806 -1.0132 -0.0507
 1041TIP3   OH224681   1.979   3.164  28.380 -0.0463  0.5090  0.4419
 1041TIP3    H124682   1.892   3.173  28.341 -0.3433 -0.4855  0.8424
 1041TIP3    H224683   2.039   3.171  28.306 -0.5004  0.5754  0.0737
 1042TIP3   OH224684   3.215   1.470  32.722  0.7800 -0.9495  0.1270
 1042TIP3    H124685   3.160   1.392  32.722  1.3729 -1.4044 -1.4663
 1042TIP3    H224686   3.172   1.530  32.783 -2.5867 -0.5471 -2.3825
 1043TIP3   OH224687   0.627   1.807  21.856  0.1326 -0.2180  0.3394
 1043TIP3    H124688   0.564   1.740  21.882 -0.5694  0.0229 -0.6898
 1043TIP3    H224689   0.704   1.791  21.911 -0.1899 -1.5877  0.4119
 1044TIP3   OH224690   1.773   2.800  30.247 -0.1746  0.6325  0.4082
 1044TIP3    H124691   1.812   2.861  30.309 -0.7458  0.6379  0.7706
 1044TIP3    H224692   1.834   2.726  30.244 -0.8055  0.0114  2.0249
 1045TIP3   OH224693   1.197   2.318  19.356 -0.1472  0.5595 -0.4000
 1045TIP3    H124694   1.289   2.344  19.352 -0.1620  0.9450  0.9715
 1045TIP3    H224695   1.160   2.346  19.273  1.2587 -0.8089 -1.5445
 1046TIP3   OH224696   1.743   0.811  32.141  0.1006 -0.9030 -0.3862
 1046TIP3    H124697   1.743   0.718  32.161 -0.4710 -0.6664  0.8036
 1046TIP3    H224698   1.772   0.853  32.222  0.5631 -0.0649 -0.9790
 1047TIP3   OH224699   0.849   2.559   1.916  0.0374 -0.0885 -0.3193
 1047TIP3    H124700   0.933   2.574   1.959 -0.8701  1.4541  1.0355
 1047TIP3    H224701   0.822   2.472   1.946  0.0832  0.3856  1.1859
 1048TIP3   OH224702   0.408   2.630   1.142 -0.9651 -0.2906  0.2515
 1048TIP3    H124703   0.426   2.609   1.234  0.2018  0.0485  0.1175
 1048TIP3    H224704   0.487   2.603   1.095 -1.5414 -0.4362 -0.6562
 1049TIP3   OH224705   2.690   2.347   4.294 -0.0231 -0.3454 -0.2110
 1049TIP3    H124706   2.760   2.284   4.277  0.3899  0.3322 -1.0942
 1049TIP3    H224707   2.736   2.425   4.327 -0.3979 -0.0390 -0.4052
 1050TIP3   OH224708   2.700   3.504   0.829 -0.3137 -0.2809  0.0625
 1050TIP3    H124709   2.659   3.418   0.844 -1.0341 -0.0561 -0.5390
 1050TIP3    H224710   2.765   3.488   0.761 -0.3163 -0.3897  0.0852
 1051TIP3   OH224711   1.672   0.532  12.017  0.3361  0.0367 -0.0148
 1051TIP3    H124712   1.636   0.553  12.103 -0.0391  1.5004 -0.4867
 1051TIP3    H224713   1.767   0.535  12.029  0.3173  1.8725  0.0435
 1052TIP3   OH224714   1.127   0.504   1.837  0.2278 -0.4991 -0.0258
 1052TIP3    H124715   1.112   0.533   1.747  0.1358  0.6533  0.3442
 1052TIP3    H224716   1.125   0.408   1.832  1.6380 -0.4924 -1.4773
 1053TIP3   OH224717   3.432   1.314  30.364 -0.0749  0.1578  0.1741
 1053TIP3    H124718   3.388   1.381  30.417  1.3542  0.8664  0.5035
 1053TIP3    H224719   3.387   1.233  30.386 -2.5965  1.1225 -1.0595
 1054TIP3   OH224720   1.089   0.468  29.171  0.4424  0.0454 -0.5665
 1054TIP3    H124721   1.122   0.541  29.224 -0.6858 -0.0764  0.3401
 1054TIP3    H224722   1.042   0.511  29.099  0.0125  0.2358 -0.1841
 1055TIP3   OH224723   3.069   2.793  29.613 -0.1491 -0.1222 -0.3081
 1055TIP3    H124724   3.155   2.761  29.588  1.4228  3.8925 -0.8306
 1055TIP3    H224725   3.042   2.848  29.539 -2.0669  0.5635  0.8189
 1056TIP3   OH224726   2.298   1.688   4.289  0.3910  0.4767 -0.5202
 1056TIP3    H124727   2.290   1.649   4.202  0.0560  0.5814 -0.5404
 1056TIP3    H224728   2.236   1.640   4.343  1.1943 -0.1400 -0.1311
 1057TIP3   OH224729   2.115   0.514   4.405  0.1729 -0.3447 -0.5824
 1057TIP3    H124730   2.026   0.549   4.400  0.3862  0.0695 -2.0525
 1057TIP3    H224731   2.104   0.419   4.397 -0.3242 -0.6239  2.3347
 1058TIP3   OH224732   2.107   2.842   3.192  0.4066  0.0011 -0.0460
 1058TIP3    H124733   2.132   2.750   3.190  1.1796  0.1191  1.7449
 1058TIP3    H224734   2.099   2.863   3.285  0.6779  1.8485 -0.3856
 1059TIP3   OH224735   3.248   1.602   0.412  0.5520 -0.3331  0.6163
 1059TIP3    H124736   3.255   1.662   0.487  0.0886  0.7540 -0.1873
 1059TIP3    H224737   3.333   1.607   0.369 -0.1995  1.6784 -0.8286
 1060TIP3   OH224738   0.150   1.811   0.059 -0.6525 -0.5797  0.3552
 1060TIP3    H124739   0.090   1.862   0.004  1.0872  0.5115 -0.6043
 1060TIP3    H224740   0.155   1.726   0.017  1.6898  0.6365 -2.1252
 1061TIP3   OH224741   0.009   1.657  30.228 -0.3305 -0.0492  0.2946
 1061TIP3    H124742   0.075   1.590  30.247 -0.4087  0.4472  2.7364
 1061TIP3    H224743  -0.042   1.620  30.156  1.2705 -1.3879 -0.2469
 1062TIP3   OH224744   2.506   2.864  32.325  0.4583  0.1071  0.7118
 1062TIP3    H124745   2.417   2.897  32.322  0.7291  0.8005 -0.0183
 1062TIP3    H224746   2.541   2.880  32.237  1.2441 -0.3154  0.9311
 1063TIP3   OH224747   1.641   1.468  26.502  0.3385  0.0797  0.2144
 1063TIP3    H124748   1.635   1.449  26.596  2.4410  0.5571  0.5037
 1063TIP3    H224749   1.668   1.384  26.463 -0.5312 -0.1177  0.0312
 1064TIP3   OH224750   3.067   2.344   0.204  0.0642  0.6663  0.3770
 1064TIP3    H124751   3.118   2.337   0.285 -0.1125  0.6787  0.4896
 1064TIP3    H224752   3.080   2.435   0.175 -0.3716  0.8432  0.7238
 1065TIP3   OH224753   2.410   1.678  29.654  0.3035 -0.0477 -0.1782
 1065TIP3    H124754   2.479   1.743  29.666  0.8104 -0.5976 -0.0810
 1065TIP3    H224755   2.456   1.594  29.648 -0.4569 -0.6880  2.0465
 1066TIP3   OH224756   2.780   3.346   3.410 -0.3275 -0.3287  0.4855
 1066TIP3    H124757   2.847   3.408   3.379 -1.0204  1.1620  1.8190
 1066TIP3    H224758   2.703   3.366   3.357 -0.0946 -1.1874 -0.1923
 1067TIP3   OH224759   1.192   2.571  27.910  0.3556  0.0503 -0.2178
 1067TIP3    H124760   1.140   2.518  27.971 -0.3033 -0.5283 -1.2422
 1067TIP3    H224761   1.174   2.662  27.935 -1.3020 -0.1341 -0.6415
 1068TIP3   OH224762   3.320   2.852   1.900 -0.3148 -0.3292  0.3604
 1068TIP3    H124763   3.276   2.922   1.851 -0.3277  0.0837  0.9549
 1068TIP3    H224764   3.405   2.889   1.923 -0.5340 -0.3093  1.1514
 1069TIP3   OH224765   1.960   0.291  12.610 -0.0448  0.0270  0.1635
 1069TIP3    H124766   2.043   0.337  12.595 -0.0305 -0.2408 -0.6047
 1069TIP3    H224767   1.985   0.200  12.621 -0.2846 -0.1499 -0.6878
 1070TIP3   OH224768   0.370   2.316   4.279  0.1057  0.3148 -0.3360
 1070TIP3    H124769   0.370   2.355   4.366 -0.7986  0.0329 -0.1995
 1070TIP3    H224770   0.284   2.336   4.244  0.7105  1.0395 -1.4510
 1071TIP3   OH224771   0.784   0.514   5.171  0.1454 -0.2231 -0.1090
 1071TIP3    H124772   0.814   0.522   5.081  0.8821 -2.8187 -0.1648
 1071TIP3    H224773   0.733   0.433   5.173 -1.9813  1.0560  1.3077
 1072TIP3   OH224774   2.146   2.722   5.189 -0.6180 -0.1075 -0.6065
 1072TIP3    H124775   2.081   2.676   5.243  0.6230 -1.7122 -0.4124
 1072TIP3    H224776   2.187   2.653   5.137 -0.8030  1.2122 -2.6125
 1073TIP3   OH224777   3.337   2.272   6.669  0.3401 -0.9969 -0.0060
 1073TIP3    H124778   3.425   2.248   6.698  0.9915 -1.8966 -2.5148
 1073TIP3    H224779   3.309   2.200   6.613 -1.8463 -0.5161  0.3541
 1074TIP3   OH224780   0.655   3.530   3.197  0.4750 -0.5413  0.3980
 1074TIP3    H124781   0.671   3.610   3.146  0.5620 -0.2138  0.9292
 1074TIP3    H224782   0.560   3.520   3.197  0.4817 -0.6492  0.0226
 1075TIP3   OH224783   3.482   1.780   4.580  0.4540 -0.0509 -0.2191
 1075TIP3    H124784   3.491   1.700   4.631 -0.5019 -1.5662 -2.2982
 1075TIP3    H224785   3.519   1.848   4.636  1.4811 -1.9469  1.5443
 1076TIP3   OH224786   2.341   3.040   1.308  0.6472 -0.4885 -0.4421
 1076TIP3    H124787   2.250   3.062   1.330  0.8177 -1.0745  0.9646
 1076TIP3    H224788   2.390   3.120   1.326  0.3627 -0.0144 -1.6773
 1077TIP3   OH224789   0.505   3.026  28.400 -0.0074  0.6146 -0.4649
 1077TIP3    H124790   0.432   3.016  28.338  1.2976  1.0984 -2.1672
 1077TIP3    H224791   0.583   3.017  28.346  1.2118  0.6517  1.2191
 1078TIP3   OH224792   1.792   0.007   3.802 -0.2763  0.1467  0.1907
 1078TIP3    H124793   1.772   0.068   3.731 -0.9292 -2.8067 -2.4031
 1078TIP3    H224794   1.742   0.039   3.876 -1.2328  2.2564 -1.2596
 1079TIP3   OH224795   2.051   0.694  30.710  0.4549  0.0360  0.2306
 1079TIP3    H124796   1.995   0.621  30.736 -1.5327  0.7932 -1.6095
 1079TIP3    H224797   2.080   0.732  30.793 -1.0097 -0.9646  1.2553
 1080TIP3   OH224798   0.211   3.440  32.440  0.2465 -0.6932  0.0866
 1080TIP3    H124799   0.149   3.419  32.370 -0.4818  0.7298  0.2713
 1080TIP3    H224800   0.157   3.443  32.520  0.4234  1.0492  0.1766
 1081TIP3   OH224801   1.158   1.590   1.432 -0.4556  0.8962  0.3930
 1081TIP3    H124802   1.083   1.564   1.486 -0.5028  0.0426 -0.0695
 1081TIP3    H224803   1.118   1.634   1.356 -0.4809  0.6912  0.2854
 1082TIP3   OH224804   0.337   3.379   2.281 -0.1507  0.6970 -0.5190
 1082TIP3    H124805   0.358   3.340   2.366 -0.7655 -0.5435 -0.9163
 1082TIP3    H224806   0.332   3.473   2.299 -1.6092  0.3591  1.1354
 1083TIP3   OH224807   0.904   1.117  31.644 -0.0702  0.1086  0.2966
 1083TIP3    H124808   0.920   1.093  31.552 -2.7220 -1.1874  0.0676
 1083TIP3    H224809   0.963   1.060  31.694  0.2271 -0.3575 -0.5539
 1084TIP3   OH224810   2.611   0.917  28.523 -0.5424  0.1489  0.1519
 1084TIP3    H124811   2.543   0.864  28.564 -1.0699 -0.8923 -1.9380
 1084TIP3    H224812   2.682   0.856  28.504  0.7230  1.0844  1.6074
 1085TIP3   OH224813   1.017   1.544  21.359  0.1154 -0.0489 -0.0065
 1085TIP3    H124814   0.954   1.558  21.288  0.5313 -0.1177 -0.3928
 1085TIP3    H224815   0.991   1.461  21.399 -2.0523  1.4323  1.9546
 1086TIP3   OH224816   2.937   2.097  22.347 -0.5711  0.0790  0.2226
 1086TIP3    H124817   2.943   2.189  22.322 -0.2260  0.1592  0.5863
 1086TIP3    H224818   2.870   2.095  22.415  0.1812  0.2362  0.9853
 1087TIP3   OH224819   2.129   2.759  30.802 -0.0648 -0.2121  0.0968
 1087TIP3    H124820   2.096   2.773  30.713 -1.4358  2.2589  0.9132
 1087TIP3    H224821   2.085   2.679  30.831 -1.2754  0.1272 -0.7181
 1088TIP3   OH224822   0.198   2.921  29.582  0.7314  0.0049  0.5041
 1088TIP3    H124823   0.268   2.955  29.638  0.5804  0.6858  0.2894
 1088TIP3    H224824   0.239   2.905  29.498  0.8156 -0.4134  0.6236
 1089TIP3   OH224825   2.528   3.066  26.609 -0.5151 -0.3032  0.2591
 1089TIP3    H124826   2.552   3.118  26.686  2.3435  0.2813 -0.9042
 1089TIP3    H224827   2.555   2.977  26.631  0.9046 -0.0193 -0.2730
 1090TIP3   OH224828   0.630   2.117  32.190  0.4482  0.0233  0.2650
 1090TIP3    H124829   0.555   2.153  32.142  0.2001  0.9244  1.3009
 1090TIP3    H224830   0.694   2.096  32.122 -1.2163 -2.0626 -0.7924
 1091TIP3   OH224831   3.173   3.042   2.076  0.6782  0.1467 -0.2835
 1091TIP3    H124832   3.237   3.043   2.147  0.3163  0.4054  0.0413
 1091TIP3    H224833   3.121   2.963   2.091  1.6337 -0.6959 -1.1999
 1092TIP3   OH224834   1.933   2.348  31.804 -0.5483  0.0148  0.0035
 1092TIP3    H124835   1.988   2.290  31.751  0.5766  1.1182 -0.0912
 1092TIP3    H224836   1.888   2.403  31.741 -0.6182  0.1128  0.1394
 1093TIP3   OH224837   0.434   2.475  27.059  0.0946 -0.0219 -0.6634
 1093TIP3    H124838   0.421   2.506  26.969 -2.2115  0.0060 -0.3907
 1093TIP3    H224839   0.447   2.555  27.110 -2.4058  0.3424 -0.4717
 1094TIP3   OH224840   0.260   0.659  31.674  0.2351  0.1030 -0.3354
 1094TIP3    H124841   0.197   0.702  31.732 -0.0070 -0.3614 -0.2490
 1094TIP3    H224842   0.296   0.729  31.621 -0.1461  0.4122 -0.1857
 1095TIP3   OH224843   2.705   3.054  14.802 -0.3759 -0.2559 -0.1583
 1095TIP3    H124844   2.705   3.065  14.897 -1.4963  1.0263 -0.2744
 1095TIP3    H224845   2.760   3.125  14.769 -1.4919  0.4401 -0.5525
 1096TIP3   OH224846   0.443   0.339  32.574 -0.0117 -0.1117 -0.2234
 1096TIP3    H124847   0.480   0.253  32.557  0.0897 -0.0684 -0.2240
 1096TIP3    H224848   0.356   0.336  32.534 -0.2230 -0.3975  0.2545
 1097TIP3   OH224849   2.690   2.307   0.253  0.2680 -0.4048  0.2235
 1097TIP3    H124850   2.750   2.247   0.296  0.2449 -1.1193 -0.7110
 1097TIP3    H224851   2.695   2.285   0.160 -1.6047 -0.6509  0.1335
 1098TIP3   OH224852   3.358   0.506   5.505  0.1407  0.0227 -0.0182
 1098TIP3    H124853   3.421   0.493   5.434  1.4263 -1.9409  1.3667
 1098TIP3    H224854   3.310   0.423   5.509 -1.5372  0.9475 -0.0544
 1099TIP3   OH224855   0.004   2.088   5.514  0.2232 -0.2242 -0.0310
 1099TIP3    H124856  -0.078   2.114   5.471  0.6583  0.4976 -0.4460
 1099TIP3    H224857   0.011   1.995   5.496 -1.0973 -0.5512  1.0034
 1100TIP3   OH224858   1.221   3.417  26.746 -0.0349 -0.3216 -0.3633
 1100TIP3    H124859   1.200   3.369  26.665 -2.0659 -1.6052  0.8273
 1100TIP3    H224860   1.142   3.467  26.765  0.6455  0.4461  0.5436
 1101TIP3   OH224861   1.718   1.588   6.312  0.5284 -0.1047 -0.2113
 1101TIP3    H124862   1.786   1.651   6.334 -0.6797  1.8157 -1.6920
 1101TIP3    H224863   1.735   1.565   6.221 -1.3744  1.3103 -0.9992
 1102TIP3   OH224864   3.036   0.434  29.822 -0.0671 -0.2428  0.0306
 1102TIP3    H124865   2.966   0.386  29.867  1.1162 -1.8468  0.2364
 1102TIP3    H224866   3.116   0.411  29.871  0.5542  1.9797  0.1489
 1103TIP3   OH224867   2.447   1.662  26.640 -0.6412  0.0305  0.1504
 1103TIP3    H124868   2.443   1.755  26.619  4.1585  0.1887 -1.1365
 1103TIP3    H224869   2.392   1.653  26.718 -0.3964  4.1717  1.0205
 1104TIP3   OH224870   2.461   2.176   3.182  0.5185  0.3815  0.2928
 1104TIP3    H124871   2.520   2.160   3.109  0.9712 -2.2316  1.1421
 1104TIP3    H224872   2.517   2.210   3.252  0.0843  2.8878 -0.4796
 1105TIP3   OH224873   3.511   2.618  26.701  0.0929 -0.4814  0.4314
 1105TIP3    H124874   3.440   2.580  26.753 -0.5008  0.8395  0.6173
 1105TIP3    H224875   3.470   2.641  26.618  0.5857 -0.8040  0.0999
 1106TIP3   OH224876   3.476   2.579  27.256  0.2586 -0.6509  0.0302
 1106TIP3    H124877   3.530   2.644  27.212  2.0929 -2.6649 -0.9331
 1106TIP3    H224878   3.519   2.565  27.341  0.7882 -1.6267 -0.3779
 1107TIP3   OH224879   0.059   2.861  29.051 -0.2753 -0.3400  0.4264
 1107TIP3    H124880   0.069   2.769  29.076 -1.1015 -0.2240  1.2772
 1107TIP3    H224881   0.140   2.884  29.006  1.0641 -0.7637  2.4931
 1108TIP3   OH224882   3.106   1.108  29.029 -0.1684 -0.1028  0.3725
 1108TIP3    H124883   3.015   1.084  29.046 -0.2707 -0.9221 -1.1471
 1108TIP3    H224884   3.157   1.033  29.058 -0.2027 -0.7215 -1.0933
 1109TIP3   OH224885   0.550   2.449   2.670 -0.4924  0.0341  0.2588
 1109TIP3    H124886   0.620   2.427   2.608  0.1813  0.3238  0.9067
 1109TIP3    H224887   0.502   2.367   2.680 -1.3039  0.2473 -1.4821
 1110TIP3   OH224888   1.686   0.100  27.258 -0.2015 -0.1189 -0.6579
 1110TIP3    H124889   1.629   0.150  27.199  0.4765  0.1211 -1.1241
 1110TIP3    H224890   1.639   0.099  27.341 -0.6737  0.4743 -0.9065
 1111TIP3   OH224891   0.979   0.811   2.403 -0.4318  0.1999 -0.2547
 1111TIP3    H124892   1.049   0.849   2.350  0.6796 -0.0300  1.0196
 1111TIP3    H224893   1.006   0.720   2.417 -1.2299 -0.0276 -0.1350
 1112TIP3   OH224894   0.711   1.193  28.090 -0.5443  0.2661  0.4325
 1112TIP3    H124895   0.661   1.176  28.010  0.2910  1.7217 -0.4483
 1112TIP3    H224896   0.645   1.224  28.153 -1.3128 -1.5159  0.5796
 1113TIP3   OH224897   0.780   1.042   2.717  0.4282 -0.0476 -0.4756
 1113TIP3    H124898   0.777   1.063   2.623  1.7149  0.5485 -0.4162
 1113TIP3    H224899   0.867   1.073   2.744  0.4810 -1.1875  0.6862
 1114TIP3   OH224900   1.699   0.229  30.739  0.0853  0.3739  0.0821
 1114TIP3    H124901   1.709   0.164  30.669 -2.7412  1.3358 -1.3780
 1114TIP3    H224902   1.725   0.183  30.819 -1.6487 -2.5691 -0.8928
 1115TIP3   OH224903   3.483   2.545   1.358  0.6894 -0.4101  0.4566
 1115TIP3    H124904   3.532   2.613   1.312 -0.6841  1.3968  1.5439
 1115TIP3    H224905   3.534   2.528   1.437  0.2520  0.5638  0.9723
 1116TIP3   OH224906   1.458   2.671  13.276 -0.5577 -0.2106 -0.6958
 1116TIP3    H124907   1.363   2.683  13.277 -0.7976 -1.8247 -0.1491
 1116TIP3    H224908   1.473   2.608  13.206  0.1082 -0.0196 -0.7284
 1117TIP3   OH224909   1.568   0.600   1.999  0.0324  0.6608  0.6722
 1117TIP3    H124910   1.484   0.554   2.000  0.2423  0.1683 -0.9200
 1117TIP3    H224911   1.633   0.531   2.010  0.2859  0.7335 -0.2260
 1118TIP3   OH224912   0.226   0.416  29.980  0.2608  0.1261 -0.2138
 1118TIP3    H124913   0.189   0.488  30.031  0.5530 -0.1729  0.4489
 1118TIP3    H224914   0.172   0.340  30.004  1.6791 -0.4702  1.3219
 1119TIP3   OH224915   0.556   2.074  22.883  0.1336 -0.1795 -0.1964
 1119TIP3    H124916   0.513   2.132  22.946 -0.9529 -0.1537 -0.9367
 1119TIP3    H224917   0.583   1.999  22.935  0.7151  0.5649  0.6011
 1120TIP3   OH224918   3.487   3.158   4.839 -0.1423 -0.1572  0.0273
 1120TIP3    H124919   3.423   3.097   4.802 -0.6621  1.4059 -1.8171
 1120TIP3    H224920   3.439   3.205   4.907 -0.2025 -0.6795  0.3534
 1121TIP3   OH224921   1.583   1.960  20.384 -0.1298  0.2607 -0.3432
 1121TIP3    H124922   1.506   1.985  20.435  0.0896 -0.1416  0.1990
 1121TIP3    H224923   1.656   1.973  20.445  0.1014 -0.5594 -0.4358
 1122TIP3   OH224924   2.497   0.654  32.195 -0.2346 -0.8644  0.5721
 1122TIP3    H124925   2.522   0.562  32.203 -1.8590 -1.3303  0.6599
 1122TIP3    H224926   2.416   0.653  32.144 -0.1101  0.5609  0.2791
 1123TIP3   OH224927   1.498   0.413   2.689  0.0029 -0.5706  0.0513
 1123TIP3    H124928   1.403   0.425   2.683  0.3113  3.9653  0.4046
 1123TIP3    H224929   1.530   0.430   2.600  0.5927  0.8910  0.5125
 1124TIP3   OH224930   0.162   1.998   0.461 -1.0745  0.5916  0.2063
 1124TIP3    H124931   0.223   2.027   0.528 -1.5068  0.3036  0.7260
 1124TIP3    H224932   0.166   2.066   0.394 -1.6140  1.5518  1.1219
 1125TIP3   OH224933   2.074   3.477  30.808 -0.0699  0.5930  0.1761
 1125TIP3    H124934   2.004   3.435  30.858  0.1821 -1.6424 -1.2390
 1125TIP3    H224935   2.031   3.552  30.766 -1.0980  0.4571  0.9475
 1126TIP3   OH224936   1.752   1.407   7.036 -0.0341 -0.2930 -0.4284
 1126TIP3    H124937   1.688   1.471   7.004  0.8145  0.3529 -0.8416
 1126TIP3    H224938   1.762   1.346   6.963  1.0733  0.5586 -1.0075
 1127TIP3   OH224939   2.484   3.076  12.492  0.2065  0.0873 -0.2675
 1127TIP3    H124940   2.549   3.070  12.562 -0.9050  0.1187  0.8053
 1127TIP3    H224941   2.415   3.132  12.528 -0.7271 -0.4815 -1.1027
 1128TIP3   OH224942   2.413   0.143  29.464 -0.1976  0.2791 -0.3789
 1128TIP3    H124943   2.496   0.145  29.418  0.4750 -0.4198  0.7665
 1128TIP3    H224944   2.435   0.159  29.556 -1.5704  2.2880 -0.3258
 1129TIP3   OH224945   1.201   2.376   1.745 -0.0020  0.2089 -0.1740
 1129TIP3    H124946   1.158   2.412   1.667  1.4219  0.5176 -0.8569
 1129TIP3    H224947   1.289   2.351   1.714  0.0076 -1.2797  0.9371
 1130TIP3   OH224948   0.499   0.363  30.470  0.1669  0.2431 -0.3399
 1130TIP3    H124949   0.486   0.454  30.495  0.0350  0.2121 -0.2972
 1130TIP3    H224950   0.442   0.351  30.394 -0.9625 -0.2131  0.5433
 1131TIP3   OH224951   2.187   2.010  31.103  0.2558  0.4563 -0.4007
 1131TIP3    H124952   2.224   1.942  31.047 -1.1093 -1.0189  0.3877
 1131TIP3    H224953   2.131   1.962  31.165  1.3651  2.0179  1.9808
 1132TIP3   OH224954   3.505   2.568   2.590  0.0130 -0.0135  0.9413
 1132TIP3    H124955   3.573   2.580   2.656 -0.2211 -0.4064  1.2558
 1132TIP3    H224956   3.543   2.505   2.528  0.7604  1.3712 -0.0422
 1133TIP3   OH224957   1.618   0.215   0.256 -0.7594  0.8975  0.5181
 1133TIP3    H124958   1.652   0.279   0.194  0.1526 -0.7908 -0.7801
 1133TIP3    H224959   1.523   0.219   0.244 -0.5829  0.3788 -1.2421
 1134TIP3   OH224960   3.326   2.967   4.093  0.1563  0.6915  0.1961
 1134TIP3    H124961   3.318   3.037   4.158  1.6969  0.7385  0.3540
 1134TIP3    H224962   3.284   3.003   4.014  0.7403  1.7180  0.3378
 1135TIP3   OH224963   1.006   1.799   2.669 -0.0998  0.3376 -0.2938
 1135TIP3    H124964   0.962   1.817   2.585  0.0370 -0.5240 -0.5575
 1135TIP3    H224965   0.935   1.771   2.727 -0.0174 -0.2609 -0.4813
 1136TIP3   OH224966   2.213   2.820   1.528 -0.3453 -0.2475 -0.4300
 1136TIP3    H124967   2.230   2.726   1.515  1.5716  0.0926 -0.7353
 1136TIP3    H224968   2.183   2.826   1.619 -0.0536 -1.1152 -0.2639
 1137TIP3   OH224969   1.681   0.026  27.785 -0.2547  0.1846 -0.2400
 1137TIP3    H124970   1.724   0.039  27.869 -0.7430  1.3889 -0.1527
 1137TIP3    H224971   1.598  -0.017  27.807 -0.4777  0.6888 -0.0645
 1138TIP3   OH224972   2.197   1.719   3.015  0.2502 -0.0996 -0.3049
 1138TIP3    H124973   2.234   1.650   3.072  1.4005 -0.5244 -1.4999
 1138TIP3    H224974   2.230   1.697   2.928  1.1711  2.3253 -0.6248
 1139TIP3   OH224975   0.128   0.497   6.712  0.2022  0.1267  0.1526
 1139TIP3    H124976   0.093   0.522   6.798  0.1427 -2.0416  0.8264
 1139TIP3    H224977   0.175   0.416   6.728  0.1359 -0.3774 -1.8889
 1140TIP3   OH224978   1.516   2.478  32.550  0.0245  0.0880  0.3816
 1140TIP3    H124979   1.512   2.450  32.641 -1.2051  2.0640  1.0131
 1140TIP3    H224980   1.425   2.494  32.525  0.3293 -0.4293 -1.2156
 1141TIP3   OH224981   0.636   3.153   1.223 -0.1869 -0.3836  0.1155
 1141TIP3    H124982   0.554   3.195   1.197  0.3750  0.9622  0.4311
 1141TIP3    H224983   0.672   3.119   1.141  0.0256  1.0254 -0.4164
 1142TIP3   OH224984   0.438   2.560  23.795  0.2252  1.2196 -0.2207
 1142TIP3    H124985   0.351   2.550  23.834  0.1363  2.0325 -0.1954
 1142TIP3    H224986   0.422   2.602  23.710  0.2855 -1.7207 -1.8049
 1143TIP3   OH224987   2.456   2.708   1.757 -0.4734 -0.0648 -0.8081
 1143TIP3    H124988   2.507   2.636   1.794 -0.7513  0.7482  1.3139
 1143TIP3    H224989   2.365   2.683   1.771 -0.5834  1.1694  1.1191
 1144TIP3   OH224990   1.383   0.817   6.396  0.3983 -1.1003  0.0061
 1144TIP3    H124991   1.394   0.907   6.365 -0.4638 -1.0410 -0.1743
 1144TIP3    H224992   1.446   0.766   6.347  1.4024 -0.4875  0.6270
 1145TIP3   OH224993   2.918   1.428  26.840 -0.5836 -0.2312 -0.0187
 1145TIP3    H124994   2.836   1.457  26.880 -1.2188  0.1995 -1.5638
 1145TIP3    H224995   2.899   1.339  26.810 -0.6912  0.0567 -0.8475
 1146TIP3   OH224996   3.436   2.110  26.499  0.3362  0.8850  0.1314
 1146TIP3    H124997   3.413   2.047  26.568 -1.1503  2.4241  1.1191
 1146TIP3    H224998   3.461   2.189  26.546  0.7674  1.5099 -1.1062
 1147TIP3   OH224999   2.934   0.355   1.855 -0.3775 -0.3274 -0.5841
 1147TIP3    H125000   2.953   0.397   1.772 -0.9874  2.7101  0.6949
 1147TIP3    H225001   2.842   0.375   1.872 -0.7088 -2.2116  0.1696
 1148TIP3   OH225002   3.382   0.042   4.926 -0.1493 -0.0881  0.4680
 1148TIP3    H125003   3.430   0.125   4.933  0.1030 -0.3014  1.3831
 1148TIP3    H225004   3.318   0.046   4.997 -0.9099 -0.1910 -0.1964
 1149TIP3   OH225005   3.225   0.442  31.113 -0.4530  0.3854  0.1193
 1149TIP3    H125006   3.197   0.460  31.023  1.3724 -1.3906 -0.8853
 1149TIP3    H225007   3.147   0.404  31.154 -0.4782 -1.8350 -1.7439
 1150TIP3   OH225008   1.429   0.228   5.919  0.2374 -0.3339  0.2707
 1150TIP3    H125009   1.366   0.199   5.853 -1.0562  2.4339  0.1380
 1150TIP3    H225010   1.514   0.200   5.885 -0.5618 -0.5967 -1.6475
 1151TIP3   OH225011   3.313   2.309   1.555 -0.4356 -0.2508  0.5285
 1151TIP3    H125012   3.388   2.320   1.613  1.0299 -1.4002 -1.0262
 1151TIP3    H225013   3.264   2.391   1.563  0.7882  0.3948  1.8593
 1152TIP3   OH225014   1.510   0.850   5.455  0.0534  0.1476  0.2768
 1152TIP3    H125015   1.516   0.914   5.527  0.1949  0.7715 -0.2813
 1152TIP3    H225016   1.586   0.793   5.468 -0.2297 -0.0828  0.9448
 1153TIP3   OH225017   3.387   0.893   6.116  0.2305 -0.0151  0.6676
 1153TIP3    H125018   3.426   0.853   6.039  1.0513 -0.9612  1.5296
 1153TIP3    H225019   3.442   0.863   6.189 -0.2832  1.1634  1.5747
 1154TIP3   OH225020   0.380   1.526  30.203  0.0333 -0.0896 -0.0701
 1154TIP3    H125021   0.316   1.549  30.271 -0.8441  0.0955 -0.9341
 1154TIP3    H225022   0.420   1.445  30.234 -1.4192 -0.8262 -0.0134
 1155TIP3   OH225023   1.450   0.325   1.808  0.6748  0.1385 -0.2310
 1155TIP3    H125024   1.376   0.384   1.794  1.4903  0.8823 -1.5817
 1155TIP3    H225025   1.444   0.301   1.901 -1.7759 -0.5535 -0.4939
 1156TIP3   OH225026   1.366   3.155  26.629 -0.2337  0.1673  0.2116
 1156TIP3    H125027   1.303   3.083  26.618  0.3658 -0.2523 -0.5929
 1156TIP3    H225028   1.324   3.230  26.588  0.1064 -0.3041 -1.0257
 1157TIP3   OH225029   0.561   1.356   1.179 -0.0094 -0.1079  0.2844
 1157TIP3    H125030   0.494   1.419   1.154 -0.0953  0.6406  2.1951
 1157TIP3    H225031   0.533   1.273   1.140 -0.8415  0.6511 -0.7823
 1158TIP3   OH225032   0.026   1.125   2.219 -0.2220 -0.9580 -0.0572
 1158TIP3    H125033   0.033   1.055   2.154  2.2898 -1.7968  1.0087
 1158TIP3    H225034   0.112   1.167   2.219 -0.9389  0.6256  1.0100
 1159TIP3   OH225035   3.041   2.009   2.522 -0.1319  0.0422 -1.2877
 1159TIP3    H125036   3.004   2.096   2.534  1.2812  0.4793  0.2265
 1159TIP3    H225037   2.969   1.949   2.544  0.1215  0.8641  2.3990
 1160TIP3   OH225038   0.672   3.084   5.247 -0.0960  0.3517  0.8197
 1160TIP3    H125039   0.758   3.075   5.287 -0.1313  1.1471  1.0946
 1160TIP3    H225040   0.651   3.177   5.255 -0.4158  0.4082 -0.4373
 1161TIP3   OH225041   1.171   0.544  28.241  0.5194 -0.3127  0.5691
 1161TIP3    H125042   1.220   0.564  28.162 -0.8843  0.7661 -0.0676
 1161TIP3    H225043   1.202   0.457  28.268  2.2083  0.0301 -0.2016
 1162TIP3   OH225044   2.688   1.645   1.721  0.0519  0.4348 -0.5472
 1162TIP3    H125045   2.596   1.669   1.729 -0.6382 -1.9884 -0.1357
 1162TIP3    H225046   2.736   1.726   1.737 -1.9507  1.3181  1.5766
 1163TIP3   OH225047   1.844   3.036  30.501  0.1626 -0.0950 -0.8797
 1163TIP3    H125048   1.822   3.097  30.431 -0.9699 -0.0637 -0.5033
 1163TIP3    H225049   1.762   2.993  30.523  0.1349  0.9842  1.4674
 1164TIP3   OH225050   0.053   3.066  32.501 -0.0525 -0.5484 -0.0261
 1164TIP3    H125051   0.084   2.990  32.451 -1.6011 -0.9608 -0.4018
 1164TIP3    H225052  -0.038   3.077  32.475 -0.7082 -0.3109  2.1884
 1165TIP3   OH225053   2.527   0.672   1.816  0.3019  0.4515 -0.6340
 1165TIP3    H125054   2.498   0.647   1.728 -0.1552 -0.2033 -0.3127
 1165TIP3    H225055   2.459   0.731   1.848  0.1145  0.1420 -0.4608
 1166TIP3   OH225056   1.169   1.006  30.997 -0.0989  0.2183 -0.2236
 1166TIP3    H125057   1.262   0.997  30.975  0.3742  1.4937  1.0481
 1166TIP3    H225058   1.133   1.061  30.927  0.8158  2.1877  0.7622
 1167TIP3   OH225059   2.473   0.622   0.575  0.4379  0.1881 -0.0082
 1167TIP3    H125060   2.384   0.589   0.583 -1.0721  3.5561 -1.1218
 1167TIP3    H225061   2.515   0.564   0.512 -1.0003 -1.3931  0.4420
 1168TIP3   OH225062   2.589   1.870   7.844 -0.1739 -0.0781 -0.0892
 1168TIP3    H125063   2.514   1.922   7.813 -1.4810 -1.3425  0.7942
 1168TIP3    H225064   2.559   1.833   7.927  1.9211  0.3669  0.9364
 1169TIP3   OH225065   0.386   0.504   3.179  0.7718  0.4129  0.0940
 1169TIP3    H125066   0.452   0.509   3.248  0.7792 -0.2115  0.1419
 1169TIP3    H225067   0.409   0.574   3.118  1.2648  0.4310  0.2967
 1170TIP3   OH225068   1.651   3.466   0.090 -0.1750 -0.2060  0.3005
 1170TIP3    H125069   1.601   3.445   0.169 -1.5482 -2.1410 -0.9805
 1170TIP3    H225070   1.602   3.537   0.049 -1.3694 -1.3857 -0.4097
 1171TIP3   OH225071   3.493   3.015   1.332 -0.2153 -0.0940  0.2076
 1171TIP3    H125072   3.563   2.996   1.269 -1.3965 -2.5061 -0.4892
 1171TIP3    H225073   3.412   3.007   1.282 -1.1246 -0.5927  1.6815
 1172TIP3   OH225074   0.716   2.841  30.238  0.6855  0.2644  0.2633
 1172TIP3    H125075   0.669   2.803  30.311  0.6560  1.2281  0.7589
 1172TIP3    H225076   0.713   2.774  30.170 -2.5472  0.7418 -0.2151
 1173TIP3   OH225077   1.186   2.020  26.586 -0.6748 -0.1102  0.2766
 1173TIP3    H125078   1.171   2.022  26.491 -1.6049 -0.2464  0.4135
 1173TIP3    H225079   1.252   2.087  26.601  0.0959 -0.6454 -0.5703
 1174TIP3   OH225080   2.473   0.230   4.404 -0.0931 -0.9976 -0.2484
 1174TIP3    H125081   2.418   0.177   4.461 -1.1240 -0.7265 -0.9788
 1174TIP3    H225082   2.495   0.307   4.456 -0.4770 -1.0650  0.0135
 1175TIP3   OH225083   3.240   2.395  30.738  0.1226  0.8124  0.2278
 1175TIP3    H125084   3.312   2.400  30.675  0.1809 -0.4253  0.1559
 1175TIP3    H225085   3.173   2.342  30.694  0.9363 -1.7530  1.8366
 1176TIP3   OH225086   0.982   1.353   2.003 -0.7146  0.7072 -0.1665
 1176TIP3    H125087   1.002   1.439   2.041  0.6259  0.5797 -0.5413
 1176TIP3    H225088   0.931   1.373   1.925 -1.3905  1.0975  0.3663
 1177TIP3   OH225089   1.099   1.129  30.057 -0.1939 -0.2824 -0.2189
 1177TIP3    H125090   1.040   1.093  29.992 -0.6098 -0.4089  0.2297
 1177TIP3    H225091   1.142   1.203  30.012 -0.3974 -0.4345 -0.6655
 1178TIP3   OH225092   1.735   2.096   4.413 -0.1921  0.0389  0.0066
 1178TIP3    H125093   1.666   2.125   4.354  0.5753 -0.4870 -1.1958
 1178TIP3    H225094   1.811   2.151   4.390  0.0747 -0.0627  0.6204
 1179TIP3   OH225095   0.434   1.138  31.333 -0.2490  0.1250 -0.2565
 1179TIP3    H125096   0.413   1.231  31.331  0.7011  0.3516 -0.2277
 1179TIP3    H225097   0.349   1.094  31.328 -0.6738  0.9838 -0.9833
 1180TIP3   OH225098   1.811   1.031   3.385 -0.1937  0.1156  0.1266
 1180TIP3    H125099   1.894   0.995   3.416 -0.8827 -0.6350  1.1394
 1180TIP3    H225100   1.791   1.102   3.446 -1.2020 -0.9074  1.0313
 1181TIP3   OH225101   2.583   2.106  30.765 -0.3557 -0.2636  0.7197
 1181TIP3    H125102   2.659   2.149  30.726  1.1603 -3.3688 -0.1022
 1181TIP3    H225103   2.615   2.074  30.850 -1.1469 -0.4596  0.9528
 1182TIP3   OH225104   1.465   2.278  31.591 -0.0277  0.2381  0.0918
 1182TIP3    H125105   1.539   2.221  31.612  0.9106  1.8405  1.4531
 1182TIP3    H225106   1.419   2.289  31.674 -0.2938  1.2727 -0.1709
 1183TIP3   OH225107   2.375   3.539  32.700 -0.0837  0.0829 -0.3696
 1183TIP3    H125108   2.358   3.445  32.695  1.5413 -0.2502  0.0432
 1183TIP3    H225109   2.289   3.577  32.720 -0.5846 -1.4020  0.4706
 1184TIP3   OH225110   1.360   1.728  26.862 -0.8621 -0.6791  0.4340
 1184TIP3    H125111   1.367   1.737  26.767 -0.1778  1.4762  0.6349
 1184TIP3    H225112   1.291   1.663  26.875 -0.4460 -1.5811 -1.5282
 1185TIP3   OH225113   1.891   1.058  19.922 -0.7519 -0.1869 -0.4367
 1185TIP3    H125114   1.949   1.134  19.926  0.2365 -0.8860 -0.8967
 1185TIP3    H225115   1.950   0.983  19.925 -1.7366 -0.9634  0.5625
 1186TIP3   OH225116   0.483   1.888  22.695 -0.5538  0.1559  0.0608
 1186TIP3    H125117   0.478   1.810  22.750  2.4015  0.4596  0.9551
 1186TIP3    H225118   0.493   1.960  22.758  1.0383  0.7247 -0.7841
 1187TIP3   OH225119   2.437   3.185   6.280 -0.0811 -0.3921 -0.1448
 1187TIP3    H125120   2.529   3.194   6.306  0.3147  2.0845 -1.9957
 1187TIP3    H225121   2.388   3.229   6.350  0.4968  1.3675 -0.7821
 1188TIP3   OH225122   0.684   0.287   2.474  0.3473  0.0031 -0.2453
 1188TIP3    H125123   0.691   0.212   2.414  0.5716 -0.2904  0.1410
 1188TIP3    H225124   0.616   0.342   2.436  1.6132  0.6401 -1.6518
 1189TIP3   OH225125   0.120   2.499  27.449 -0.1649 -0.5778 -0.3056
 1189TIP3    H125126   0.156   2.584  27.474 -0.6969 -0.3676 -0.2349
 1189TIP3    H225127   0.133   2.444  27.527 -1.0856 -0.1557  0.1604
 1190TIP3   OH225128   0.957   3.282  30.857 -0.7868  0.1106 -0.3179
 1190TIP3    H125129   1.043   3.318  30.835 -1.0871  0.3818 -1.0861
 1190TIP3    H225130   0.899   3.358  30.855 -1.1112 -0.1338 -0.1718
 1191TIP3   OH225131   1.060   1.232  31.134  0.0062 -0.0551  0.5480
 1191TIP3    H125132   1.071   1.158  31.075 -0.9463  0.1375  0.1007
 1191TIP3    H225133   1.038   1.305  31.076  1.7036  0.7754  0.9098
 1192TIP3   OH225134   2.076   1.075  25.811 -0.6453 -0.2730  0.1388
 1192TIP3    H125135   2.031   1.028  25.741 -1.0571  0.9822 -0.4622
 1192TIP3    H225136   2.007   1.123  25.856 -0.1119  0.5135  0.1396
 1193TIP3   OH225137   2.010   2.162   2.063  0.4729  0.3920 -0.1159
 1193TIP3    H125138   2.019   2.201   2.150  0.1987 -0.1023  0.1392
 1193TIP3    H225139   1.929   2.111   2.068  0.6822  0.0173 -0.5257
 1194TIP3   OH225140   2.349   3.530  30.800  0.0781 -0.1353 -0.5259
 1194TIP3    H125141   2.363   3.436  30.801 -0.4605 -0.2182 -0.6109
 1194TIP3    H225142   2.255   3.541  30.817 -0.0223  0.3494 -1.3073
 1195TIP3   OH225143   0.000   2.221   1.741 -0.4683 -0.1465  0.4214
 1195TIP3    H125144   0.052   2.179   1.809 -0.5605 -0.3917  0.3449
 1195TIP3    H225145   0.058   2.221   1.664 -0.5835 -0.4388  0.3304
 1196TIP3   OH225146   1.855   2.255  19.265 -0.4505 -0.0922 -0.3004
 1196TIP3    H125147   1.949   2.242  19.262 -0.3581  0.0582  1.2112
 1196TIP3    H225148   1.842   2.326  19.328 -1.6380 -0.9823  0.5022
 1197TIP3   OH225149   2.097   3.239  28.095 -0.3147 -0.0726 -0.1459
 1197TIP3    H125150   2.054   3.153  28.090  0.0927 -0.3669  1.0437
 1197TIP3    H225151   2.158   3.239  28.022 -1.3106 -0.2261 -0.9960
 1198TIP3   OH225152   3.230   1.926  31.609 -0.3250 -0.4290 -0.3113
 1198TIP3    H125153   3.152   1.979  31.624 -0.4113  0.5611 -3.4820
 1198TIP3    H225154   3.210   1.875  31.531  0.7853 -3.1962  1.0859
 1199TIP3   OH225155   0.654   2.003  27.844 -0.3244 -0.8792 -0.1757
 1199TIP3    H125156   0.651   1.908  27.836 -1.5159 -0.9583  0.8200
 1199TIP3    H225157   0.671   2.019  27.937  0.4034 -0.1082 -0.4240
 1200TIP3   OH225158   1.440   0.886  27.532 -0.5875  0.1052  0.0181
 1200TIP3    H125159   1.410   0.796  27.521  2.2388 -1.0245  0.4755
 1200TIP3    H225160   1.484   0.908  27.450 -0.1366  0.5534  0.3653
 1201TIP3   OH225161   0.034   3.291   0.144  0.0781  0.4125 -0.0124
 1201TIP3    H125162   0.073   3.222   0.091  0.1349  1.3135 -1.1919
 1201TIP3    H225163  -0.022   3.245   0.206 -1.9375 -0.6440 -2.4391
 1202TIP3   OH225164   2.112   2.916  30.227  0.7686 -0.0358  0.3120
 1202TIP3    H125165   2.138   2.866  30.150  1.8523  0.5220  0.3036
 1202TIP3    H225166   2.134   2.859  30.301 -1.2029 -1.0012  0.2165
 1203TIP3   OH225167   2.653   3.122  10.878  0.4200  0.1145  0.2234
 1203TIP3    H125168   2.580   3.144  10.821  1.7193 -1.2404 -2.1272
 1203TIP3    H225169   2.688   3.206  10.907 -0.7788  0.8068 -0.2813
 1204TIP3   OH225170   1.667   0.864  30.877 -0.7498 -0.3137 -0.3738
 1204TIP3    H125171   1.697   0.776  30.856  0.8644  0.2145 -0.4079
 1204TIP3    H225172   1.583   0.872  30.832  0.1651 -1.0462 -2.3375
 1205TIP3   OH225173   1.537   0.497  28.702  0.2916 -0.2034 -0.6341
 1205TIP3    H125174   1.507   0.565  28.642 -0.1665 -0.1631 -0.3622
 1205TIP3    H225175   1.506   0.525  28.788  1.0420 -0.2024 -0.3554
 1206TIP3   OH225176   1.542   1.749  32.427  0.8465 -0.0086 -0.0427
 1206TIP3    H125177   1.624   1.754  32.476  0.2344 -0.3493  1.0477
 1206TIP3    H225178   1.486   1.814  32.469  0.4852  0.0647 -0.6397
 1207TIP3   OH225179   3.314   0.629  27.908 -0.7619 -0.0559 -0.2960
 1207TIP3    H125180   3.296   0.678  27.988  0.0329 -0.4397  0.1394
 1207TIP3    H225181   3.401   0.660  27.881 -0.7226 -0.4377 -0.6144
 1208TIP3   OH225182   0.184   1.426   5.107  0.3694 -0.2432  0.2176
 1208TIP3    H125183   0.108   1.455   5.156 -0.9167  0.2623 -1.9530
 1208TIP3    H225184   0.258   1.444   5.165 -1.0899 -0.3161  2.1995
 1209TIP3   OH225185   0.606   2.545  23.530 -0.3880 -0.4181  0.4901
 1209TIP3    H125186   0.640   2.561  23.442 -1.6387 -0.5181 -0.0333
 1209TIP3    H225187   0.527   2.598  23.535 -1.7324 -2.3213  0.6104
 1210TIP3   OH225188   0.475   1.478   2.750 -0.1606  0.1468 -0.0529
 1210TIP3    H125189   0.486   1.573   2.758 -1.4248  0.1976  1.7875
 1210TIP3    H225190   0.497   1.444   2.837 -1.3205 -1.0693 -0.2075
 1211TIP3   OH225191   0.339   0.134   1.560  0.4865  0.4551 -0.3223
 1211TIP3    H125192   0.314   0.076   1.631  2.2151 -0.5600 -0.4680
 1211TIP3    H225193   0.418   0.178   1.591  0.9194  0.4535 -1.3581
 1212TIP3   OH225194   0.197   1.484  27.490  0.5645 -0.3163 -0.2217
 1212TIP3    H125195   0.156   1.506  27.406  0.5399 -1.2055 -0.4581
 1212TIP3    H225196   0.280   1.532  27.490 -0.1227  0.9047 -0.0706
 1213TIP3   OH225197   3.343   2.238  32.896 -0.4613 -0.0657  0.6748
 1213TIP3    H125198   3.290   2.289  32.836 -0.4569 -0.5944  0.2200
 1213TIP3    H225199   3.344   2.290  32.977  0.0985  0.9822  0.0195
 1214TIP3   OH225200   0.753   2.738   0.744  0.0783  0.7233  0.1806
 1214TIP3    H125201   0.844   2.708   0.743  0.0454  0.5911  0.8425
 1214TIP3    H225202   0.701   2.659   0.727  0.0917  0.8502 -0.4929
 1215TIP3   OH225203   0.181   1.344  30.020  0.6632  0.2451 -0.3128
 1215TIP3    H125204   0.188   1.341  30.115  0.8099  1.0476 -0.2908
 1215TIP3    H225205   0.213   1.258  29.991  0.4324 -0.0763  0.3655
 1216TIP3   OH225206   1.367   2.059  27.989 -0.3592 -0.0517 -0.5249
 1216TIP3    H125207   1.442   2.002  28.002  0.7542  1.0841 -1.6395
 1216TIP3    H225208   1.359   2.066  27.893 -1.1360  0.7912 -0.4122
 1217TIP3   OH225209   3.005   0.071  26.958 -0.0570 -0.2011  0.3833
 1217TIP3    H125210   3.007  -0.004  27.017 -1.0831 -0.0519  0.6275
 1217TIP3    H225211   3.081   0.058  26.900 -1.3089 -2.4840 -0.8960
 1218TIP3   OH225212   2.417   0.952   1.559  0.3200 -0.0082 -0.0446
 1218TIP3    H125213   2.372   0.873   1.588 -1.0382  0.5009 -0.7003
 1218TIP3    H225214   2.500   0.921   1.523 -0.0651 -1.0969 -0.0223
 1219TIP3   OH225215   3.041   0.319  27.825 -0.6401 -0.1541 -0.5751
 1219TIP3    H125216   3.034   0.237  27.873 -0.0465 -0.6232 -1.2733
 1219TIP3    H225217   3.049   0.386  27.893 -0.9616 -0.6891 -0.0068
 1220TIP3   OH225218   2.200   1.751  26.338 -0.3503  0.0274  0.1419
 1220TIP3    H125219   2.154   1.826  26.300  0.8724  1.0900  0.7161
 1220TIP3    H225220   2.133   1.707  26.391 -1.4792 -0.1882 -1.3720
 1221TIP3   OH225221   0.582   1.016   6.762 -0.3051  0.3732 -0.0276
 1221TIP3    H125222   0.618   1.070   6.832 -0.2242  1.7775 -1.0850
 1221TIP3    H225223   0.503   0.977   6.800  0.3303  0.2024  1.1663
 1222TIP3   OH225224   0.929   0.564   3.816 -0.2085  0.2773 -0.4497
 1222TIP3    H125225   0.834   0.570   3.818 -0.4098 -1.7768 -1.7011
 1222TIP3    H225226   0.957   0.643   3.769 -1.3842  0.1716 -1.3662
 1223TIP3   OH225227   0.019   2.253  30.406  0.3737  0.3787 -0.2085
 1223TIP3    H125228   0.114   2.256  30.406  0.4694 -0.6563  2.0315
 1223TIP3    H225229  -0.003   2.164  30.431 -1.1783  0.7706 -0.0391
 1224TIP3   OH225230   1.278   2.121  23.411 -0.3301  0.6697 -0.0309
 1224TIP3    H125231   1.370   2.144  23.414 -0.1705  0.2972 -1.3561
 1224TIP3    H225232   1.232   2.205  23.414  0.0504  0.8633  0.4844
 1225TIP3   OH225233   0.115   0.029   6.494  0.6149  0.3810  0.0875
 1225TIP3    H125234   0.038   0.044   6.551  1.4508 -0.8621  1.6284
 1225TIP3    H225235   0.084   0.050   6.406 -1.2172  0.8143  0.7853
 1226TIP3   OH225236   1.276   0.986   3.855  0.0282  0.4924  0.2596
 1226TIP3    H125237   1.221   0.986   3.777  0.6325 -0.1752 -0.1719
 1226TIP3    H225238   1.364   1.003   3.824 -0.0281  2.4124  1.0516
 1227TIP3   OH225239   2.864   0.782  26.884  0.0468  0.2291  0.2685
 1227TIP3    H125240   2.892   0.744  26.967 -0.7492 -0.5499  0.1974
 1227TIP3    H225241   2.938   0.836  26.856  1.5502 -1.8748 -0.0090
 1228TIP3   OH225242   2.063   2.137  30.152 -0.1318 -0.0892  0.4181
 1228TIP3    H125243   2.076   2.192  30.074 -0.2772 -1.5067 -0.6345
 1228TIP3    H225244   2.149   2.137  30.195 -0.2167  1.2198  0.6352
 1229TIP3   OH225245   2.766   1.969   6.201 -0.2422 -0.9235  0.6784
 1229TIP3    H125246   2.712   1.921   6.265 -2.4733  0.9407  0.3095
 1229TIP3    H225247   2.776   2.056   6.239  0.0569 -0.3639 -0.6392
 1230TIP3   OH225248   3.037   2.800   2.182  0.8369 -0.2324 -0.0380
 1230TIP3    H125249   3.051   2.749   2.103  0.4481 -0.1277 -0.1750
 1230TIP3    H225250   2.942   2.808   2.190  0.8548 -0.7147  0.7451
 1231TIP3   OH225251   1.683   1.821  27.394  0.1915 -0.9189 -0.1985
 1231TIP3    H125252   1.686   1.848  27.302  1.2971 -0.7378 -0.1158
 1231TIP3    H225253   1.767   1.778  27.410 -0.4751 -2.0241  0.4056
 1232TIP3   OH225254   0.693   0.940  31.529 -0.3479 -0.3788 -0.0558
 1232TIP3    H125255   0.772   0.899  31.491  0.1931  0.8830 -0.3525
 1232TIP3    H225256   0.725   0.984  31.608 -0.7200  0.2826 -0.2726
 1233TIP3   OH225257   1.558   2.586  13.770 -0.0053  0.3464  0.1784
 1233TIP3    H125258   1.574   2.502  13.813  2.5025 -0.0220 -1.2773
 1233TIP3    H225259   1.490   2.567  13.706 -0.6580 -0.1418  0.9956
 1234TIP3   OH225260   0.753   0.458   0.160 -0.1738  0.0552 -0.1278
 1234TIP3    H125261   0.700   0.412   0.225 -1.3528  0.2671 -0.9078
 1234TIP3    H225262   0.806   0.389   0.120 -0.3172 -0.2685  0.2301
 1235TIP3   OH225263   2.322   0.630   3.607  0.4231 -0.4719  0.5520
 1235TIP3    H125264   2.375   0.710   3.607  0.7213 -0.6128 -1.7969
 1235TIP3    H225265   2.315   0.605   3.515  0.2233 -3.1016  1.1933
 1236TIP3   OH225266   1.295   2.648   6.461 -0.1917  0.3656 -0.1892
 1236TIP3    H125267   1.214   2.624   6.417 -0.3308 -2.1960  1.2219
 1236TIP3    H225268   1.359   2.583   6.431  0.6070  0.6857  0.7449
 1237TIP3   OH225269   2.033   1.086  18.199 -0.2270  0.4793  0.7470
 1237TIP3    H125270   2.083   1.021  18.150  1.2363  0.9546  1.5362
 1237TIP3    H225271   1.946   1.049  18.208 -0.6645  0.4508 -2.3805
 1238TIP3   OH225272   1.266   1.768  21.419  0.5021 -0.5076  0.1063
 1238TIP3    H125273   1.216   1.849  21.428 -1.2925 -1.7521  2.6278
 1238TIP3    H225274   1.323   1.783  21.344 -0.2075  2.8204  0.0892
 1239TIP3   OH225275   2.026   1.608   4.136  0.2529 -0.1075 -0.0912
 1239TIP3    H125276   2.011   1.663   4.059 -1.6078  0.9304  0.9373
 1239TIP3    H225277   1.951   1.548   4.138 -0.1114  0.3562  1.2613
 1240TIP3   OH225278   1.756   1.883   3.460 -0.0064  0.6089 -0.3368
 1240TIP3    H125279   1.756   1.919   3.549  0.7136 -1.2235  0.4638
 1240TIP3    H225280   1.844   1.848   3.448 -0.2656  0.3268 -1.5679
 1241TIP3   OH225281   0.212   0.345  28.054 -0.1402  0.3071  0.1677
 1241TIP3    H125282   0.176   0.263  28.020  2.0153 -0.5924 -0.1341
 1241TIP3    H225283   0.215   0.403  27.978 -0.9358  0.3895  0.1999
 1242TIP3   OH225284   2.532   0.211  28.914 -0.1559  0.0299 -0.3373
 1242TIP3    H125285   2.524   0.253  28.999  0.2093 -0.4562 -0.0572
 1242TIP3    H225286   2.505   0.121  28.929 -0.0818 -0.0600 -0.7354
 1243TIP3   OH225287   0.741   2.886   0.525 -0.6675  0.0513  0.2452
 1243TIP3    H125288   0.806   2.957   0.533 -1.1940  0.7360 -1.2772
 1243TIP3    H225289   0.749   2.838   0.607  2.1182 -0.1897 -0.0742
 1244TIP3   OH225290   2.646   0.629   4.697  0.3200  0.5011  0.0736
 1244TIP3    H125291   2.556   0.661   4.697  0.5248  1.0929 -0.7142
 1244TIP3    H225292   2.651   0.574   4.776 -0.3746  1.4524  0.8126
 1245TIP3   OH225293   2.364   0.573   3.331 -0.5015 -0.9540  0.0156
 1245TIP3    H125294   2.418   0.637   3.284 -0.1837  0.3211  2.0022
 1245TIP3    H225295   2.412   0.490   3.321  1.0586 -0.1525  0.4629
 1246TIP3   OH225296   2.754   1.256   1.122 -0.1792 -0.1380  0.0235
 1246TIP3    H125297   2.819   1.186   1.115 -0.0366  0.0163 -0.2178
 1246TIP3    H225298   2.798   1.333   1.085  0.6512  0.7605  2.6586
 1247TIP3   OH225299   0.291   1.274  32.323  0.2934  0.6154 -0.0516
 1247TIP3    H125300   0.211   1.235  32.359  0.1065  0.4546 -0.6140
 1247TIP3    H225301   0.305   1.353  32.373 -0.6758  1.0628 -0.4676
 1248TIP3   OH225302   3.295   2.865  29.140  0.1233  0.0726  0.2346
 1248TIP3    H125303   3.374   2.879  29.087 -0.5211  0.6727 -0.5731
 1248TIP3    H225304   3.224   2.901  29.088 -0.8736 -1.5235  0.4090
 1249TIP3   OH225305   3.289   0.721  27.067  0.3629  0.0941  0.5019
 1249TIP3    H125306   3.199   0.693  27.047 -0.8916  2.7128  1.9205
 1249TIP3    H225307   3.329   0.733  26.981 -1.2745  0.6032 -0.2474
 1250TIP3   OH225308   1.483   2.290   2.755  0.3107  0.6218 -0.1018
 1250TIP3    H125309   1.421   2.218   2.744  0.4984  0.3746  0.4405
 1250TIP3    H225310   1.481   2.336   2.671  0.2444 -0.0589 -0.4799
 1251TIP3   OH225311   3.062   0.140   0.879  0.0968 -0.1742 -0.2130
 1251TIP3    H125312   3.028   0.227   0.860  0.1650 -0.1574 -0.2571
 1251TIP3    H225313   3.124   0.154   0.951  0.4802 -0.1149 -0.5529
 1252TIP3   OH225314   0.550   2.569   1.709  0.2819  0.4979  0.0231
 1252TIP3    H125315   0.522   2.487   1.749  3.6542 -1.4301 -1.1750
 1252TIP3    H225316   0.599   2.614   1.777  0.9394  0.0710 -0.1592
 1253TIP3   OH225317   1.365   2.679   5.559  0.2075 -0.1886  0.4690
 1253TIP3    H125318   1.410   2.596   5.544  0.6127 -0.0604  0.9577
 1253TIP3    H225319   1.314   2.665   5.639 -0.5773 -0.3091 -0.0352
 1254TIP3   OH225320   0.662   1.455   5.421  0.1297 -0.7019  0.0765
 1254TIP3    H125321   0.600   1.418   5.484 -0.6790 -2.0413 -1.4332
 1254TIP3    H225322   0.607   1.494   5.354  0.9658 -0.2032 -0.3336
 1255TIP3   OH225323   3.261   1.666   0.075  0.3437 -0.4961  0.0308
 1255TIP3    H125324   3.324   1.706   0.014  1.1849 -0.4569  0.9021
 1255TIP3    H225325   3.188   1.728   0.078  0.7829  0.0347 -0.1114
 1256TIP3   OH225326   3.065   3.063   5.351  0.3294  0.0920  0.2279
 1256TIP3    H125327   3.160   3.060   5.356  0.3440 -1.9548 -0.4483
 1256TIP3    H225328   3.034   3.044   5.439  0.5580 -0.6560  0.1495
 1257TIP3   OH225329   2.742   0.675   5.612  0.2738 -0.1583  0.2400
 1257TIP3    H125330   2.835   0.684   5.632  0.3727 -1.3701  0.4332
 1257TIP3    H225331   2.724   0.582   5.626 -1.0123  0.0994  0.3919
 1258TIP3   OH225332   3.483   3.506  26.279  0.0297  0.1025  0.0687
 1258TIP3    H125333   3.443   3.567  26.218  0.0000 -0.3070 -0.3222
 1258TIP3    H225334   3.504   3.429  26.227 -1.4817 -0.9096  0.8914
 1259TIP3   OH225335   1.666   2.660  11.447  0.2012  0.2771  0.1001
 1259TIP3    H125336   1.708   2.744  11.429 -0.7385  0.4312 -1.5439
 1259TIP3    H225337   1.717   2.597  11.396  0.1788  0.0262  0.3859
 1260TIP3   OH225338   2.661   1.729   3.213  0.2835 -0.2328 -0.1746
 1260TIP3    H125339   2.641   1.652   3.267 -0.6248 -0.4133 -0.7523
 1260TIP3    H225340   2.711   1.694   3.139 -0.0634 -0.2572 -0.3978
 1261TIP3   OH225341   1.700   1.157  28.572 -0.0324  0.0679 -0.4958
 1261TIP3    H125342   1.684   1.199  28.656  1.0708 -2.2579  0.9796
 1261TIP3    H225343   1.738   1.226  28.517 -1.7603  1.9121  0.5123
 1262TIP3   OH225344   2.510   2.080   0.632  0.7967  0.5562 -0.5671
 1262TIP3    H125345   2.566   2.031   0.692  1.9522  1.4147 -0.8972
 1262TIP3    H225346   2.425   2.083   0.676  0.8271 -1.2485 -0.3086
 1263TIP3   OH225347   3.227   3.016   4.754  0.3585  0.2599 -0.1644
 1263TIP3    H125348   3.173   3.089   4.784  1.3271  1.2703 -0.7666
 1263TIP3    H225349   3.226   3.024   4.658  0.6447 -0.4072 -0.2289
 1264TIP3   OH225350   0.312   1.209   1.281 -0.2332 -0.0100  0.0203
 1264TIP3    H125351   0.292   1.270   1.352  1.3075  0.2711  0.2503
 1264TIP3    H225352   0.300   1.260   1.201  1.6822  0.8700  0.2250
 1265TIP3   OH225353   1.064   0.240  31.700 -0.5050  0.0312  0.5908
 1265TIP3    H125354   1.014   0.170  31.657 -0.5296  0.5966 -0.3076
 1265TIP3    H225355   1.143   0.196  31.732 -0.6713 -0.4762  0.3143
 1266TIP3   OH225356   1.830   3.469  30.530  0.3268  0.2275  0.1046
 1266TIP3    H125357   1.801   3.448  30.619 -0.7857 -0.3174 -0.3736
 1266TIP3    H225358   1.772   3.539  30.501  0.7999  0.5280 -0.1448
 1267TIP3   OH225359   1.379   3.236   0.779 -0.5616 -0.0642 -0.7942
 1267TIP3    H125360   1.438   3.173   0.821 -2.6649 -1.6317  0.0052
 1267TIP3    H225361   1.411   3.322   0.806  1.3228 -0.8536 -0.3988
 1268TIP3   OH225362   2.409   1.857  17.192 -0.6448 -0.3207  0.3545
 1268TIP3    H125363   2.407   1.936  17.137 -1.4247 -1.6678 -1.6719
 1268TIP3    H225364   2.384   1.889  17.279 -0.1161  1.7906 -0.1914
 1269TIP3   OH225365   1.404   0.526  10.675  0.9472 -0.1846 -0.2964
 1269TIP3    H125366   1.375   0.459  10.612  0.0289  0.9343 -1.1035
 1269TIP3    H225367   1.494   0.545  10.650  2.2688 -3.0545  1.6757
 1270TIP3   OH225368   0.955   1.816  27.272  0.2226 -0.2593 -0.2108
 1270TIP3    H125369   0.927   1.900  27.236 -0.4846  0.2895  1.5085
 1270TIP3    H225370   0.970   1.761  27.195  1.0729  1.5244 -1.3926
 1271TIP3   OH225371   3.327   3.490   2.613  0.2386 -0.2697  0.1738
 1271TIP3    H125372   3.250   3.544   2.593  0.7300  0.1354 -0.6838
 1271TIP3    H225373   3.389   3.551   2.653  1.0043 -0.0487 -1.2946
 1272TIP3   OH225374   1.485   2.381   2.484  0.0294 -0.2712  0.0404
 1272TIP3    H125375   1.548   2.454   2.481  0.5306 -0.6643  0.6340
 1272TIP3    H225376   1.515   2.321   2.415 -0.7772  0.3786 -0.9016
 1273TIP3   OH225377   1.686   2.511   4.229 -0.3123  0.4619 -0.5534
 1273TIP3    H125378   1.767   2.509   4.179 -0.1048  0.0780 -0.2115
 1273TIP3    H225379   1.691   2.593   4.278  0.2095  0.1076  0.0046
 1274TIP3   OH225380   1.624   2.683   1.214  0.3100 -0.1392 -0.3108
 1274TIP3    H125381   1.644   2.674   1.121  1.5945  1.4915 -0.2262
 1274TIP3    H225382   1.687   2.626   1.258  1.5779  1.2050 -0.3199
 1275TIP3   OH225383   0.389   1.534   0.247  0.2197  0.1275 -0.3068
 1275TIP3    H125384   0.388   1.515   0.340 -0.4881  1.4348 -0.0229
 1275TIP3    H225385   0.314   1.485   0.212 -0.0490  0.3386 -0.0326
 1276TIP3   OH225386   2.147   3.490   4.003  0.1281  0.8150  0.8375
 1276TIP3    H125387   2.128   3.563   4.061 -0.6168  1.9056 -0.7080
 1276TIP3    H225388   2.065   3.440   4.000 -0.6050  2.0326 -0.9757
 1277TIP3   OH225389   2.338   1.507   0.721  0.0948  0.6564  0.2347
 1277TIP3    H125390   2.411   1.444   0.722 -0.0067  0.5386  0.2606
 1277TIP3    H225391   2.293   1.492   0.804 -1.8681 -1.5140 -1.1326
 1278TIP3   OH225392   0.672   1.652  31.919  0.3713 -0.0136  0.0206
 1278TIP3    H125393   0.607   1.684  31.856  0.8799  1.1704  0.0713
 1278TIP3    H225394   0.620   1.602  31.982 -0.3380 -0.0437 -0.5645
 1279TIP3   OH225395   0.345   0.723  29.906  0.0686 -0.0999 -0.5254
 1279TIP3    H125396   0.330   0.797  29.847  2.0203  0.4216 -0.4508
 1279TIP3    H225397   0.397   0.761  29.978 -0.0951 -1.2613  0.2276
 1280TIP3   OH225398   2.743   2.474  13.991  0.3989 -0.0299  0.1366
 1280TIP3    H125399   2.743   2.526  13.911 -0.7439  1.5809  1.1068
 1280TIP3    H225400   2.656   2.434  13.994 -0.6646  2.1347  1.8113
 1281TIP3   OH225401   1.164   1.014   3.602  0.0351  0.2408 -0.2571
 1281TIP3    H125402   1.189   0.994   3.512  2.0405  1.2858  0.0055
 1281TIP3    H225403   1.108   1.091   3.595  0.5011  0.5510 -0.5994
 1282TIP3   OH225404   1.585   2.461  26.093 -1.7259  0.1463  1.1707
 1282TIP3    H125405   1.529   2.538  26.091  2.0193  3.1132 -0.2134
 1282TIP3    H225406   1.585   2.428  26.003  0.4283  1.6317  0.5644
 1283TIP3   OH225407   0.964   2.574  29.582  0.1764  0.2077 -0.0143
 1283TIP3    H125408   0.908   2.569  29.505  2.0883 -0.7465 -1.4072
 1283TIP3    H225409   1.023   2.648  29.565  1.7684 -1.0918 -0.3175
 1284TIP3   OH225410   1.202   2.832  31.624 -0.1533 -0.5225 -0.1612
 1284TIP3    H125411   1.207   2.736  31.621  0.6462 -0.4964  0.1848
 1284TIP3    H225412   1.131   2.850  31.686  0.6614 -0.8909  0.9044
 1285TIP3   OH225413   1.927   1.740  28.665  0.0316  0.1875  0.6832
 1285TIP3    H125414   1.856   1.733  28.600 -0.6706  1.8307  1.2101
 1285TIP3    H225415   1.985   1.668  28.644  1.4993  2.2640 -3.8116
 1286TIP3   OH225416   2.824   2.668  32.619  0.0675  0.0117 -0.1226
 1286TIP3    H125417   2.816   2.573  32.629 -1.2896  0.2474  1.5375
 1286TIP3    H225418   2.913   2.682  32.587  0.6269 -1.7744  0.5468
 1287TIP3   OH225419   0.338   0.935  27.988 -0.0467  0.3671  0.2232
 1287TIP3    H125420   0.392   0.876  28.040 -1.4042 -0.3569  0.8694
 1287TIP3    H225421   0.320   0.886  27.907 -0.0373  0.4537  0.1682
 1288TIP3   OH225422   2.115   0.225   2.410 -0.7262 -0.2185  0.5070
 1288TIP3    H125423   2.061   0.278   2.351 -0.9736  0.3442  1.2352
 1288TIP3    H225424   2.108   0.267   2.495 -0.6662 -1.2406  1.0378
 1289TIP3   OH225425   3.008   0.701   5.629 -0.6413  0.1207 -0.1689
 1289TIP3    H125426   3.063   0.736   5.699 -2.6960  0.4332  1.3895
 1289TIP3    H225427   3.021   0.606   5.634  1.1932  0.2742 -1.1453
 1290TIP3   OH225428   2.396   2.171  18.307 -0.0158  0.7598 -0.3625
 1290TIP3    H125429   2.451   2.134  18.376 -1.3384  1.1882  0.9757
 1290TIP3    H225430   2.457   2.190  18.236  1.7833  2.2541  1.4613
 1291TIP3   OH225431   1.312   2.271  29.638  0.8788 -0.4310 -0.0872
 1291TIP3    H125432   1.228   2.305  29.667 -0.0639  0.1464 -3.1480
 1291TIP3    H225433   1.299   2.176  29.633  0.6755 -0.4189  0.1818
 1292TIP3   OH225434   3.115   3.437   6.791 -0.2694  0.1651  0.5758
 1292TIP3    H125435   3.124   3.436   6.695  1.2728 -1.3956  0.6921
 1292TIP3    H225436   3.021   3.433   6.806 -0.6122  1.6396 -0.8630
 1293TIP3   OH225437   3.285   3.486   7.007  0.1088  0.3028  0.0069
 1293TIP3    H125438   3.252   3.474   6.918 -1.7149  2.1497  0.3763
 1293TIP3    H225439   3.264   3.404   7.051 -2.1637  0.6166 -0.3734
 1294TIP3   OH225440   0.713   2.947   4.458  0.4828  0.4696 -0.9109
 1294TIP3    H125441   0.768   2.883   4.501  0.3087  1.3483  0.6904
 1294TIP3    H225442   0.653   2.895   4.404  0.1380 -0.7616  0.5781
 1295TIP3   OH225443   1.363   1.126   3.022 -0.3108  0.3304 -0.6986
 1295TIP3    H125444   1.418   1.184   3.074 -1.7205  1.6867 -0.6527
 1295TIP3    H225445   1.376   1.039   3.060  0.4060  0.9248  0.4487
 1296TIP3   OH225446   1.380   1.932  25.279  0.6875  0.6354 -0.0231
 1296TIP3    H125447   1.348   1.948  25.191 -2.4617  1.7409  1.2071
 1296TIP3    H225448   1.414   1.842  25.276 -0.1827  0.3312 -2.1189
 1297TIP3   OH225449   2.899   1.430  28.917  0.2229 -0.1948 -0.1311
 1297TIP3    H125450   2.872   1.442  29.008 -0.5800 -1.4695 -0.1849
 1297TIP3    H225451   2.994   1.442  28.919  0.2675 -0.5814  0.9479
 1298TIP3   OH225452   1.391   0.924  30.888  0.3514  0.0606 -0.1091
 1298TIP3    H125453   1.373   0.832  30.872  0.3185 -0.0146  0.3488
 1298TIP3    H225454   1.398   0.963  30.801 -0.7398 -0.1516 -0.3025
 1299TIP3   OH225455   1.996   0.704   3.093 -0.4619  0.7425  0.1068
 1299TIP3    H125456   2.090   0.722   3.087 -0.6934  2.1603  0.1897
 1299TIP3    H225457   1.983   0.669   3.181  0.3292 -2.0593 -0.8121
 1300TIP3   OH225458   0.785   3.398  30.095 -0.2294 -0.0539 -0.2680
 1300TIP3    H125459   0.739   3.440  30.022 -2.5474 -0.6479  0.7478
 1300TIP3    H225460   0.771   3.456  30.170 -1.2234 -1.2680  0.5405
 1301TIP3   OH225461   1.667   1.092  26.624  0.3815 -1.3001  0.1530
 1301TIP3    H125462   1.724   1.031  26.578  1.3616  0.3198 -0.8746
 1301TIP3    H225463   1.726   1.160  26.657 -0.9218  0.5443 -1.1250
 1302TIP3   OH225464   2.406   0.237  32.893  0.3047 -0.4219  0.3800
 1302TIP3    H125465   2.403   0.300  32.820  0.5004  1.0955  1.6285
 1302TIP3    H225466   2.495   0.245  32.927  0.2604 -1.2412  0.7083
 1303TIP3   OH225467   1.797   2.419  18.375 -0.7184  0.1102  0.3247
 1303TIP3    H125468   1.852   2.379  18.442  1.4788  0.0619 -1.4011
 1303TIP3    H225469   1.717   2.365  18.375 -0.4358 -0.3870  2.2883
 1304TIP3   OH225470   2.348   2.367  29.380 -0.2198  0.1069 -0.4806
 1304TIP3    H125471   2.375   2.381  29.289 -0.4139  1.4939 -0.3391
 1304TIP3    H225472   2.420   2.403  29.432  0.4779 -1.7813 -0.0250
 1305TIP3   OH225473   2.962   1.569  30.666  0.7692  0.1721  0.1647
 1305TIP3    H125474   2.930   1.605  30.583 -0.3592 -0.7260  0.1707
 1305TIP3    H225475   2.949   1.475  30.657  0.1524  0.1022  1.5483
 1306TIP3   OH225476   1.346   1.805  30.463  0.0753  0.5337  0.8281
 1306TIP3    H125477   1.286   1.731  30.461 -0.1383  0.6376  2.2378
 1306TIP3    H225478   1.368   1.822  30.371  0.2618 -1.3645  0.4924
 1307TIP3   OH225479   1.265   2.238  32.625  0.3874 -0.5078 -0.7431
 1307TIP3    H125480   1.312   2.318  32.648 -0.1811  0.5830 -3.0686
 1307TIP3    H225481   1.243   2.198  32.709  1.0714  1.5507  0.4841
 1308TIP3   OH225482   0.839   0.403  12.340  0.2206  0.2581 -0.6360
 1308TIP3    H125483   0.920   0.365  12.304  0.9739  0.3666  0.8905
 1308TIP3    H225484   0.779   0.329  12.347  0.7232 -0.1247 -0.3185
 1309TIP3   OH225485   1.284   1.526   6.145 -0.3680 -0.0244 -0.2471
 1309TIP3    H125486   1.209   1.505   6.201  0.3523  1.4415  1.3736
 1309TIP3    H225487   1.350   1.561   6.205  1.5361 -0.9849 -1.6614
 1310TIP3   OH225488   1.163   3.349   1.815 -0.3789 -0.4034  0.5829
 1310TIP3    H125489   1.096   3.327   1.751  0.2341 -0.6917  0.0197
 1310TIP3    H225490   1.156   3.281   1.882 -0.0217 -0.9920  0.0348
 1311TIP3   OH225491   0.720   1.081   4.989  0.2685  0.2235 -0.0453
 1311TIP3    H125492   0.814   1.072   4.973  0.1941  0.2950 -0.5345
 1311TIP3    H225493   0.689   0.991   5.003  0.3958  0.1927  0.0334
 1312TIP3   OH225494   0.026   3.352  27.252  0.5235 -0.5013  0.4562
 1312TIP3    H125495   0.072   3.288  27.307  1.3313 -1.2439 -1.0112
 1312TIP3    H225496  -0.058   3.311  27.233  0.7949 -0.8731  0.0251
 1313TIP3   OH225497   2.776   2.212  26.105  0.4739 -0.6145  0.8846
 1313TIP3    H125498   2.819   2.296  26.089  1.0047 -1.0137  0.1685
 1313TIP3    H225499   2.683   2.234  26.112  0.4843 -0.0837 -0.3596
 1314TIP3   OH225500   2.364   2.414  29.128 -0.0375 -1.0459  0.3437
 1314TIP3    H125501   2.362   2.373  29.041 -0.0159  0.2113 -0.2702
 1314TIP3    H225502   2.299   2.484  29.123  2.7578  1.7335 -0.0841
 1315TIP3   OH225503   0.383   2.434  29.811 -0.2521 -0.5108  0.1044
 1315TIP3    H125504   0.433   2.463  29.887  0.4763  0.0390 -0.5652
 1315TIP3    H225505   0.308   2.387  29.848 -1.0757  1.5332  1.2300
 1316TIP3   OH225506   3.239   1.153   6.115 -0.0614  0.6558 -0.8199
 1316TIP3    H125507   3.244   1.089   6.043 -0.5355  0.8623 -1.0393
 1316TIP3    H225508   3.250   1.100   6.194 -1.8079  0.0788 -0.9165
 1317TIP3   OH225509   1.775   0.114   5.368  0.0795  0.3896 -0.4764
 1317TIP3    H125510   1.862   0.135   5.334  0.0264 -2.1483 -2.5614
 1317TIP3    H225511   1.790   0.046   5.433 -0.3478 -2.2698 -2.9379
 1318TIP3   OH225512   2.982   2.543   3.577 -0.0753 -0.3683 -0.1008
 1318TIP3    H125513   2.968   2.570   3.486  0.4844  1.9089  0.4024
 1318TIP3    H225514   2.982   2.626   3.625  1.5060 -1.3592  1.7042
 1319TIP3   OH225515   0.958   1.484   0.203 -0.2889  0.6777 -0.3323
 1319TIP3    H125516   1.043   1.449   0.230 -0.8198 -1.1506 -0.8508
 1319TIP3    H225517   0.961   1.577   0.227  2.3844  1.0172 -1.6577
 1320TIP3   OH225518   1.420   0.337   3.915  0.7263  0.4191 -0.0629
 1320TIP3    H125519   1.442   0.330   3.822  0.4115 -0.6644 -0.0650
 1320TIP3    H225520   1.326   0.320   3.919  0.1637  3.2046  0.1632
 1321TIP3   OH225521   0.481   2.819   5.800 -0.0914 -0.0892  0.3531
 1321TIP3    H125522   0.509   2.767   5.724 -1.7625 -0.9311  0.2619
 1321TIP3    H225523   0.492   2.910   5.772  0.2867 -0.3844 -0.5102
 1322TIP3   OH225524   1.615   3.070  13.770  0.0304 -0.3227 -0.4225
 1322TIP3    H125525   1.710   3.080  13.784 -0.0449  2.1760 -1.2491
 1322TIP3    H225526   1.579   3.063  13.859  0.8640  0.1944 -0.0282
 1323TIP3   OH225527   1.366   2.265  21.882 -0.0976 -0.2411 -0.0707
 1323TIP3    H125528   1.392   2.314  21.804 -1.5162 -2.2354 -1.9372
 1323TIP3    H225529   1.294   2.315  21.920 -0.8269 -0.3109 -1.3165
 1324TIP3   OH225530   1.442   0.525  28.955  0.8078  0.1344  0.2978
 1324TIP3    H125531   1.360   0.554  28.913  0.8103 -0.7662 -0.3750
 1324TIP3    H225532   1.422   0.523  29.048 -0.2567 -0.9446  0.0825
 1325TIP3   OH225533   0.886   0.384  32.793 -0.1716  0.1726  0.1306
 1325TIP3    H125534   0.799   0.344  32.786 -0.1163  0.1220 -0.2796
 1325TIP3    H225535   0.933   0.329  32.856 -1.0590  1.3107  1.8891
 1326TIP3   OH225536   2.577   3.425  27.754  0.2318  0.2624  0.1296
 1326TIP3    H125537   2.554   3.518  27.765  0.1747  0.1260  1.2473
 1326TIP3    H225538   2.566   3.387  27.841  1.1686 -0.6044 -0.1144
 1327TIP3   OH225539   0.402   0.463   3.716 -0.2492 -0.3707  0.0312
 1327TIP3    H125540   0.368   0.390   3.768  0.1874  0.3199  1.3440
 1327TIP3    H225541   0.347   0.465   3.638 -0.2102 -2.1488 -0.0758
 1328TIP3   OH225542   1.612   1.794   6.572 -0.5758 -0.6174 -0.2621
 1328TIP3    H125543   1.665   1.849   6.514 -1.1445  1.4044  1.0310
 1328TIP3    H225544   1.594   1.715   6.521  1.8951 -0.4741 -1.4901
 1329TIP3   OH225545   2.124   1.415  17.636  0.2495 -0.1937  0.2388
 1329TIP3    H125546   2.033   1.426  17.665  0.1596  0.0802 -0.1401
 1329TIP3    H225547   2.176   1.443  17.711  0.0255  2.0917 -0.3756
 1330TIP3   OH225548   0.776   0.952  29.299  0.5265  0.3744 -0.5487
 1330TIP3    H125549   0.800   0.905  29.379  3.3939  1.7852 -0.4512
 1330TIP3    H225550   0.704   1.010  29.325 -0.2393 -0.9232  0.3373
 1331TIP3   OH225551   2.342   1.434   6.739  0.5375  0.4588 -0.4240
 1331TIP3    H125552   2.326   1.342   6.718  1.9847 -0.0962  0.6734
 1331TIP3    H225553   2.326   1.441   6.833  1.0698  1.1594 -0.3713
 1332TIP3   OH225554   1.708   3.544   0.406 -0.0241 -0.1133 -0.1680
 1332TIP3    H125555   1.633   3.505   0.362  0.2144  0.1095 -0.7782
 1332TIP3    H225556   1.718   3.630   0.366  0.9061 -0.3587 -0.4995
 1333TIP3   OH225557   1.534   2.329   6.557  0.0809  0.0247 -0.7014
 1333TIP3    H125558   1.476   2.385   6.609  0.3099 -0.6791  0.3454
 1333TIP3    H225559   1.485   2.248   6.545  0.9407 -0.6864  0.4440
 1334TIP3   OH225560   0.946   1.245  29.639 -0.2167 -0.4989 -0.2295
 1334TIP3    H125561   1.024   1.300  29.632 -0.4784  0.1019  1.2902
 1334TIP3    H225562   0.885   1.282  29.576 -1.0225  2.1248  1.8854
 1335TIP3   OH225563   0.440   2.402   6.513  0.4980  0.2092  0.1192
 1335TIP3    H125564   0.502   2.418   6.441 -2.5460  3.8924 -2.0659
 1335TIP3    H225565   0.375   2.343   6.476 -0.1751  0.7454  0.4329
 1336TIP3   OH225566   1.618   0.545   4.341  0.1748 -0.4711  0.3093
 1336TIP3    H125567   1.576   0.511   4.420  1.0566 -0.2914  0.8691
 1336TIP3    H225568   1.547   0.550   4.277 -0.7545  0.2529  1.3536
 1337TIP3   OH225569   0.674   0.779  27.972  0.4653  0.0658  0.2212
 1337TIP3    H125570   0.735   0.716  28.010 -0.9998 -1.0751  0.7514
 1337TIP3    H225571   0.588   0.752  28.003 -0.4181  1.2010 -1.0937
 1338TIP3   OH225572   2.334   3.086   3.570 -0.4997 -0.2411 -0.5893
 1338TIP3    H125573   2.319   3.180   3.579 -2.4821 -0.6243  0.6331
 1338TIP3    H225574   2.386   3.062   3.646  0.7130 -0.0238 -1.3301
 1339TIP3   OH225575   2.248   2.546   1.474  0.1287 -0.4013  0.4416
 1339TIP3    H125576   2.261   2.495   1.555  0.0252 -2.1155 -0.5705
 1339TIP3    H225577   2.189   2.492   1.421 -0.1537  0.8949 -0.6181
 1340TIP3   OH225578   2.657   1.402   3.869  0.0515  0.4998  0.2643
 1340TIP3    H125579   2.569   1.437   3.861  0.2286  0.7862 -0.5488
 1340TIP3    H225580   2.649   1.328   3.929 -0.7254  0.5668  0.2454
 1341TIP3   OH225581   1.023   2.427  27.409 -0.0990  0.0987  0.4087
 1341TIP3    H125582   1.030   2.500  27.347  0.0698 -0.5438 -0.3549
 1341TIP3    H225583   1.009   2.468  27.494 -0.1943  1.0114 -0.0369
 1342TIP3   OH225584   1.585   3.250  11.092  0.3226  0.1542  0.6459
 1342TIP3    H125585   1.641   3.175  11.110  0.4184 -0.2164 -1.1017
 1342TIP3    H225586   1.646   3.321  11.072  0.1973 -0.1207 -0.7648
 1343TIP3   OH225587   3.510   0.307  31.741 -0.1264  0.0583 -0.1869
 1343TIP3    H125588   3.452   0.383  31.748  0.3339  0.4641 -0.6317
 1343TIP3    H225589   3.550   0.299  31.827 -0.5346  0.0272  0.0003
 1344TIP3   OH225590   2.240   1.103  32.552  0.0870  0.2006 -0.2582
 1344TIP3    H125591   2.155   1.100  32.507 -0.7153  1.3626  1.1045
 1344TIP3    H225592   2.228   1.046  32.628  0.0309  1.4478  0.6973
 1345TIP3   OH225593   1.206   3.095  28.443 -0.0222  0.6931 -0.1303
 1345TIP3    H125594   1.117   3.122  28.420  0.4980  1.4778 -1.2980
 1345TIP3    H225595   1.212   3.004  28.413 -0.2299  0.8380 -0.6105
 1346TIP3   OH225596   1.827   3.416  29.068  0.5530  0.5679 -0.3995
 1346TIP3    H125597   1.887   3.346  29.047  0.8915  0.2477  1.4398
 1346TIP3    H225598   1.830   3.475  28.992  1.0493 -0.8509 -1.5097
 1347TIP3   OH225599   0.060   2.033   2.788 -0.7519  0.0137 -0.2847
 1347TIP3    H125600   0.089   2.059   2.876 -1.2369  0.6443 -0.3015
 1347TIP3    H225601  -0.036   2.035   2.793 -0.7860 -0.4583 -0.6855
 1348TIP3   OH225602   0.630   0.914   4.581 -0.2686 -0.2302 -0.1764
 1348TIP3    H125603   0.653   0.877   4.495  0.8895  2.1676 -1.0057
 1348TIP3    H225604   0.714   0.920   4.627 -0.8222 -1.0977  1.0029
 1349TIP3   OH225605   2.845   1.198   6.667  0.4171 -0.0592  0.4037
 1349TIP3    H125606   2.939   1.178   6.677  0.2803 -0.4890  0.8729
 1349TIP3    H225607   2.810   1.122   6.620  0.3373  0.1999  0.0354
 1350TIP3   OH225608   1.830   0.430  11.523 -0.3496  0.4805  0.0357
 1350TIP3    H125609   1.882   0.350  11.532  0.5403  1.1515  1.1489
 1350TIP3    H225610   1.799   0.448  11.611  0.3495  1.9279  0.0173
 1351TIP3   OH225611   1.442   2.958   2.627  0.0363 -0.1957  0.0479
 1351TIP3    H125612   1.496   3.026   2.669 -1.0588  0.6150  0.1716
 1351TIP3    H225613   1.353   2.976   2.657 -0.6349 -0.2366 -1.7997
 1352TIP3   OH225614   0.807   0.377  31.674  0.9282  0.7723  0.4484
 1352TIP3    H125615   0.863   0.322  31.618 -1.2752  0.2013 -1.3559
 1352TIP3    H225616   0.807   0.462  31.631  0.7490  0.8932  0.6899
 1353TIP3   OH225617   2.033   1.109  31.115 -0.1022  0.6851  0.0174
 1353TIP3    H125618   2.119   1.079  31.088 -0.0825 -1.0527  1.8027
 1353TIP3    H225619   2.048   1.198  31.147  1.0448  0.3797  0.3752
 1354TIP3   OH225620   1.551   2.882  28.407 -0.2934  0.2750  0.1982
 1354TIP3    H125621   1.519   2.943  28.341  1.0330  0.7065 -0.0828
 1354TIP3    H225622   1.477   2.825  28.426 -0.6765  0.0780 -1.7323
 1355TIP3   OH225623   0.061   1.704   4.110  0.0813  0.1538 -0.4019
 1355TIP3    H125624   0.030   1.659   4.032 -1.5105 -0.2024  0.3914
 1355TIP3    H225625  -0.015   1.754   4.141  0.5916  0.0705  1.0695
 1356TIP3   OH225626   2.368   2.629  12.048  0.0720  0.5336  0.0951
 1356TIP3    H125627   2.308   2.568  12.090 -0.2272  1.3483  0.9001
 1356TIP3    H225628   2.436   2.645  12.114  0.5160  0.5553 -0.3569
 1357TIP3   OH225629   2.665   3.480   3.201  0.2348 -0.0940 -0.5717
 1357TIP3    H125630   2.670   3.471   3.106 -2.2581  1.0898 -0.8960
 1357TIP3    H225631   2.713   3.561   3.220  1.7722 -0.9649 -0.6364
 1358TIP3   OH225632   3.089   2.120  26.839  0.2592 -0.1435  0.0286
 1358TIP3    H125633   3.006   2.167  26.833  0.7717  0.7578 -0.0368
 1358TIP3    H225634   3.065   2.037  26.881 -0.6639  0.1257  0.0701
 1359TIP3   OH225635   2.499   1.973  26.350 -0.2863 -0.3726 -0.0198
 1359TIP3    H125636   2.501   1.883  26.318 -1.8163  0.1634 -1.7957
 1359TIP3    H225637   2.590   2.000  26.351  0.0897 -1.5395 -0.6441
 1360TIP3   OH225638   0.382   0.196  29.032 -0.0309  0.2736 -0.3004
 1360TIP3    H125639   0.413   0.119  28.984  0.4825  0.3768 -0.1398
 1360TIP3    H225640   0.460   0.252  29.040 -0.2598  0.5362  0.1065
 1361TIP3   OH225641   2.222   3.175  32.664  0.3768  0.0671 -0.5045
 1361TIP3    H125642   2.317   3.176  32.653  0.3691 -0.9878 -0.7222
 1361TIP3    H225643   2.201   3.086  32.693 -0.5368  0.3014 -0.3972
 1362TIP3   OH225644   1.949   2.913   6.273 -0.3870 -0.1716 -0.0558
 1362TIP3    H125645   2.022   2.862   6.239  0.7975  0.8502  0.8365
 1362TIP3    H225646   1.990   2.991   6.311 -1.9226  0.3357  0.6545
 1363TIP3   OH225647   0.347   1.700  27.395  0.3035 -0.2083 -0.1866
 1363TIP3    H125648   0.306   1.740  27.471  0.9072  1.2376 -0.5919
 1363TIP3    H225649   0.274   1.681  27.335  0.1114  1.6885 -0.6071
 1364TIP3   OH225650   1.062   1.423  30.180  0.6058  0.1182 -0.1521
 1364TIP3    H125651   1.020   1.505  30.154  1.5030  0.4302 -0.6539
 1364TIP3    H225652   1.118   1.400  30.106  0.5943 -0.7889  0.1147
 1365TIP3   OH225653   0.982   0.225  15.294 -0.0377 -0.2712  0.4358
 1365TIP3    H125654   0.952   0.221  15.385 -0.4043 -2.2080  0.2652
 1365TIP3    H225655   0.922   0.168  15.246  2.1009 -1.9041 -0.4425
 1366TIP3   OH225656   1.750   0.539  32.165 -0.7206  0.0179 -0.0072
 1366TIP3    H125657   1.678   0.502  32.114 -0.4556 -0.4097 -0.0784
 1366TIP3    H225658   1.773   0.470  32.227 -1.3551  0.7089  1.0280
 1367TIP3   OH225659   1.189   2.057   5.329 -0.3740 -0.4391 -0.4036
 1367TIP3    H125660   1.263   2.110   5.300 -0.1347 -0.4894  0.1233
 1367TIP3    H225661   1.213   1.967   5.305 -0.9360 -0.2897 -1.6288
 1368TIP3   OH225662   1.712   0.369   5.471 -0.2889 -0.0193  0.0471
 1368TIP3    H125663   1.739   0.293   5.420 -0.5977  0.0097 -0.1617
 1368TIP3    H225664   1.741   0.350   5.560 -0.3004 -0.3463 -0.0173
 1369TIP3   OH225665   0.764   1.972  31.751 -0.2716  0.4595 -0.2037
 1369TIP3    H125666   0.671   1.961  31.731 -0.2532  0.3455 -0.2278
 1369TIP3    H225667   0.810   1.947  31.671 -0.2367  0.9439 -0.3358
 1370TIP3   OH225668   3.311   0.684   1.711 -0.0341 -0.2945 -0.3638
 1370TIP3    H125669   3.299   0.593   1.683 -0.8171 -0.2893 -0.0484
 1370TIP3    H225670   3.406   0.694   1.718  0.1894 -0.4737 -2.4233
 1371TIP3   OH225671   1.571   0.293   4.979 -0.4388  0.2285 -0.4110
 1371TIP3    H125672   1.586   0.375   4.932 -0.3522  0.4998  0.0765
 1371TIP3    H225673   1.587   0.316   5.071 -0.2850 -0.3692 -0.2887
 1372TIP3   OH225674   3.004   1.996   7.027  0.0152 -0.0653 -0.1822
 1372TIP3    H125675   3.083   1.976   7.078  0.3043  0.4403 -0.4353
 1372TIP3    H225676   2.934   1.998   7.093 -0.0973 -2.1513 -0.1446
 1373TIP3   OH225677   3.015   3.066  32.722 -0.3630  0.0137  0.0829
 1373TIP3    H125678   3.105   3.040  32.742  0.2587 -0.7557 -3.2164
 1373TIP3    H225679   2.960   2.998  32.762  0.3857  0.7729  2.5924
 1374TIP3   OH225680   3.321   1.691  28.367  0.4364  0.3186 -0.6932
 1374TIP3    H125681   3.266   1.758  28.407  0.0258 -0.2524 -0.2870
 1374TIP3    H225682   3.389   1.673  28.432  0.5974  0.3960 -0.8376
 1375TIP3   OH225683   3.542   2.654  28.563 -0.8364  0.3584 -0.3306
 1375TIP3    H125684   3.562   2.742  28.596 -1.3221  0.5443 -0.5215
 1375TIP3    H225685   3.447   2.653  28.554 -1.0001 -0.7650  1.2815
 1376TIP3   OH225686   3.156   1.006  29.443  0.0709 -0.0584  0.0551
 1376TIP3    H125687   3.163   1.095  29.476 -0.3025 -0.3801  1.0355
 1376TIP3    H225688   3.072   1.004  29.396 -1.4140 -0.6314  2.5307
 1377TIP3   OH225689   0.611   2.414  29.353  0.3247  0.3164 -0.2604
 1377TIP3    H125690   0.620   2.422  29.448  0.1364  0.2880 -0.2389
 1377TIP3    H225691   0.686   2.460  29.317  0.4688  0.2134 -0.0950
 1378TIP3   OH225692   1.875   0.147  27.620  0.4114  0.2857  0.4100
 1378TIP3    H125693   1.808   0.112  27.679  0.3944 -1.6263 -0.6314
 1378TIP3    H225694   1.849   0.237  27.603  0.6827  1.0941  3.6325
 1379TIP3   OH225695   2.382   3.189  14.761 -0.1900  0.0499  0.1224
 1379TIP3    H125696   2.416   3.107  14.797  1.4582  1.2284  1.3971
 1379TIP3    H225697   2.454   3.251  14.771 -0.5083  1.1027 -3.0789
 1380TIP3   OH225698   0.081   2.176   7.074  0.2543 -0.0758  0.1111
 1380TIP3    H125699   0.096   2.210   6.986 -0.2263 -2.9682 -1.2276
 1380TIP3    H225700  -0.005   2.210   7.099 -0.6575 -1.0307 -1.5642
 1381TIP3   OH225701   2.669   3.484  29.146 -0.2335 -0.9294 -0.1108
 1381TIP3    H125702   2.707   3.399  29.122  1.8480 -0.5268  1.4871
 1381TIP3    H225703   2.735   3.548  29.118  0.5187 -0.2030  2.9682
 1382TIP3   OH225704   0.690   2.153   2.178 -0.6655  0.2184 -0.3383
 1382TIP3    H125705   0.747   2.158   2.255  0.4576 -1.3010 -1.0479
 1382TIP3    H225706   0.637   2.074   2.192 -0.4209 -0.0912 -1.1535
 1383TIP3   OH225707   0.158   1.767  22.727  0.1041  0.8843 -0.0513
 1383TIP3    H125708   0.232   1.776  22.786 -0.0471  2.1809 -0.0474
 1383TIP3    H225709   0.183   1.818  22.650 -1.7683  3.4369  0.9196
 1384TIP3   OH225710   0.787   0.028  30.573 -0.1591 -0.0335  0.1880
 1384TIP3    H125711   0.794   0.074  30.656  0.8647  0.6356 -0.2476
 1384TIP3    H225712   0.873  -0.011  30.560  0.0450  0.7565 -1.0400
 1385TIP3   OH225713   2.271   2.125  26.366 -0.4299 -0.2723 -0.5765
 1385TIP3    H125714   2.355   2.085  26.341 -0.7506 -2.1067  1.0365
 1385TIP3    H225715   2.249   2.182  26.293  3.7417  2.8432  0.2668
 1386TIP3   OH225716   0.902   1.519  27.436  0.0928 -0.7290 -0.3375
 1386TIP3    H125717   0.851   1.446  27.471 -1.7747  0.6234 -0.1198
 1386TIP3    H225718   0.874   1.526  27.345  1.6036 -1.3741 -0.8846
 1387TIP3   OH225719   2.092   2.674  10.686  0.4415  0.1905  0.1965
 1387TIP3    H125720   2.158   2.742  10.697  0.5725  0.2125 -0.6858
 1387TIP3    H225721   2.079   2.667  10.591 -0.5523 -0.0708  0.3375
 1388TIP3   OH225722   0.322   0.230  26.422 -0.2063  0.0453 -0.2711
 1388TIP3    H125723   0.406   0.203  26.458 -0.7437  0.8656  1.7949
 1388TIP3    H225724   0.273   0.148  26.410  0.5074 -0.3550 -0.4850
 1389TIP3   OH225725   1.962   1.108  29.002  0.0304 -0.8847  0.2061
 1389TIP3    H125726   2.016   1.029  29.003 -1.7031 -2.1398  0.9207
 1389TIP3    H225727   1.964   1.138  28.911 -0.6552 -2.7996 -0.4876
 1390TIP3   OH225728   1.529   3.135   6.979  1.0511  0.3747  0.2666
 1390TIP3    H125729   1.464   3.148   6.910  0.9050  2.0119  0.6582
 1390TIP3    H225730   1.579   3.059   6.951 -0.9171 -0.8505 -0.1169
 1391TIP3   OH225731   3.330   2.872   0.856  0.0044 -0.3455 -0.6833
 1391TIP3    H125732   3.366   2.849   0.770 -1.8805  1.1262 -1.9795
 1391TIP3    H225733   3.272   2.947   0.838 -2.7467 -1.8110  1.3492
 1392TIP3   OH225734   1.883   0.239  29.779  0.0353  0.6206  0.4024
 1392TIP3    H125735   1.905   0.301  29.849 -1.8344  0.1585  1.4658
 1392TIP3    H225736   1.815   0.183  29.816 -0.7808  0.1259 -1.6636
 1393TIP3   OH225737   0.976   3.116   2.291 -0.3610 -0.2178  0.0489
 1393TIP3    H125738   0.975   3.184   2.224 -1.9486 -0.4714 -0.2365
 1393TIP3    H225739   0.885   3.111   2.320 -0.0331 -1.3751  0.9340
 1394TIP3   OH225740   0.201   2.208  23.907 -0.2545  0.0961  0.3632
 1394TIP3    H125741   0.266   2.215  23.977  0.4750  0.3052 -0.3094
 1394TIP3    H225742   0.135   2.147  23.940  0.1569  0.0826  1.1657
 1395TIP3   OH225743   2.288   1.743   1.506  0.8719  0.0213 -0.2207
 1395TIP3    H125744   2.259   1.653   1.495 -0.5825  0.1875  1.8336
 1395TIP3    H225745   2.292   1.778   1.417 -2.6596 -0.8591 -0.8518
 1396TIP3   OH225746   1.305   3.133  29.553 -0.0742 -0.5119 -0.3700
 1396TIP3    H125747   1.288   3.169  29.466  1.5280 -0.4976 -0.7102
 1396TIP3    H225748   1.384   3.178  29.582  0.0849 -1.3799  0.6012
 1397TIP3   OH225749   2.434   0.215  12.427  0.5978 -0.2360 -0.1876
 1397TIP3    H125750   2.399   0.127  12.446 -2.0229  0.5984 -0.7779
 1397TIP3    H225751   2.431   0.222  12.332 -0.8279  1.0729 -0.0728
 1398TIP3   OH225752   2.577   2.661  11.237  0.0700 -0.0285  0.1201
 1398TIP3    H125753   2.575   2.571  11.269 -0.8858 -0.8709 -2.1077
 1398TIP3    H225754   2.573   2.715  11.316 -2.4041 -1.9346  1.4462
 1399TIP3   OH225755   3.287   2.785  14.428 -0.8569 -0.5268 -0.3769
 1399TIP3    H125756   3.323   2.815  14.344  0.5337  1.1816  0.7468
 1399TIP3    H225757   3.224   2.717  14.405  0.9726 -1.5736 -2.6743
 1400TIP3   OH225758   0.121   2.870  27.771 -0.3140 -0.2024  0.4191
 1400TIP3    H125759   0.028   2.858  27.757 -0.3568  0.2758  0.2762
 1400TIP3    H225760   0.161   2.786  27.745 -0.7188 -0.4766  0.6806
 1401TIP3   OH225761   2.307   1.136   7.597 -0.1826 -0.2260 -0.0397
 1401TIP3    H125762   2.280   1.046   7.616  1.3101 -0.3246  1.9060
 1401TIP3    H225763   2.361   1.129   7.519 -0.3548 -0.9716 -0.0992
 1402TIP3   OH225764   2.401   0.611  31.307 -0.0297 -0.5773  0.0060
 1402TIP3    H125765   2.442   0.697  31.306  0.5350 -0.6754  3.1376
 1402TIP3    H225766   2.318   0.624  31.352  0.3299 -1.6967  1.0741
 1403TIP3   OH225767   1.449   1.973  28.472  0.3766 -0.0311 -0.2261
 1403TIP3    H125768   1.492   1.987  28.556 -1.2646 -0.3416  0.7268
 1403TIP3    H225769   1.378   2.038  28.471 -0.1962 -0.6494 -0.9478
 1404TIP3   OH225770   1.168   2.121   4.498  0.2015 -0.5373  0.1080
 1404TIP3    H125771   1.107   2.061   4.539 -0.3963 -0.2088 -0.2882
 1404TIP3    H225772   1.169   2.096   4.406  0.2162 -0.1669  0.0061
 1405TIP3   OH225773   1.043   1.404  29.292 -0.3059 -0.2597 -0.1943
 1405TIP3    H125774   1.022   1.316  29.261  0.9266 -0.8133  0.4832
 1405TIP3    H225775   1.086   1.446  29.217 -0.9527 -0.1968 -0.5389
 1406TIP3   OH225776   0.582   0.409   2.791 -0.5746  0.0813  0.1661
 1406TIP3    H125777   0.610   0.318   2.800 -0.5290 -0.0495 -1.1041
 1406TIP3    H225778   0.654   0.461   2.828  1.5332 -0.2349 -3.0599
 1407TIP3   OH225779   0.102   0.431  11.989 -0.3126  0.0611 -0.1963
 1407TIP3    H125780   0.090   0.433  12.084  0.3184 -1.8835 -0.0400
 1407TIP3    H225781   0.032   0.374  11.957 -0.0679  0.1034 -0.8211
 1408TIP3   OH225782   0.275   1.625   1.979  0.0226  0.5552  0.1429
 1408TIP3    H125783   0.359   1.613   1.934 -0.1446  0.6506 -0.1932
 1408TIP3    H225784   0.244   1.536   1.994  1.3079  0.4073  2.4116
 1409TIP3   OH225785   1.277   1.139  30.316 -0.3738  0.1937 -0.2058
 1409TIP3    H125786   1.208   1.151  30.252  0.8243  0.5443 -1.4929
 1409TIP3    H225787   1.354   1.115  30.264  1.2067  2.5989  0.8450
 1410TIP3   OH225788   0.576   0.094  32.594 -0.4101 -0.1807 -0.2545
 1410TIP3    H125789   0.555   0.002  32.608 -0.8803  0.0829  0.9431
 1410TIP3    H225790   0.660   0.093  32.547 -1.4921 -1.2194 -2.2889
 1411TIP3   OH225791   1.050   2.753  32.200 -0.6037  0.1388  0.0114
 1411TIP3    H125792   1.097   2.712  32.127 -1.8720  0.2838 -0.9208
 1411TIP3    H225793   1.070   2.846  32.192  0.2129  0.0317  0.5944
 1412TIP3   OH225794   1.238   2.454   0.074 -0.3250 -0.3575  0.1855
 1412TIP3    H125795   1.243   2.543   0.110 -0.6736 -0.8943  1.5915
 1412TIP3    H225796   1.165   2.458   0.012  0.4155  0.6273 -0.6627
 1413TIP3   OH225797   0.748   2.217  20.588 -0.3757  0.2347  0.0069
 1413TIP3    H125798   0.759   2.312  20.593  0.7875  0.0683  1.9211
 1413TIP3    H225799   0.654   2.204  20.588 -0.5725  1.3768  1.2401
 1414TIP3   OH225800   2.400   0.802   6.336 -0.2664  0.5204  0.2447
 1414TIP3    H125801   2.392   0.807   6.241 -0.7726 -0.7732  0.2088
 1414TIP3    H225802   2.417   0.893   6.363  1.1259  0.7178 -1.1753
 1415TIP3   OH225803   0.087   0.425  30.262  0.3329 -0.5733 -0.1529
 1415TIP3    H125804   0.057   0.440  30.351 -1.8909 -1.3902 -0.6857
 1415TIP3    H225805   0.068   0.333  30.245 -0.8668 -0.0532 -1.9728
 1416TIP3   OH225806   2.220   2.825  31.459  0.2233 -0.2297  0.0401
 1416TIP3    H125807   2.168   2.747  31.479  1.6706 -1.2338  0.0994
 1416TIP3    H225808   2.179   2.895  31.509  0.9722 -1.7094  3.0039
 1417TIP3   OH225809   1.544   1.845  26.580 -0.4214 -0.0232  0.3363
 1417TIP3    H125810   1.571   1.914  26.519  2.3557  0.5162  2.0074
 1417TIP3    H225811   1.539   1.766  26.526 -3.0488  1.2476 -1.4920
 1418TIP3   OH225812   1.023   1.683  32.311 -0.2927 -0.2453  0.2877
 1418TIP3    H125813   1.101   1.628  32.319  0.9637  1.6381  1.7068
 1418TIP3    H225814   1.028   1.721  32.224  1.2701  1.0660  0.9024
 1419TIP3   OH225815   2.858   0.048  14.977  0.0521 -0.1464  0.3672
 1419TIP3    H125816   2.807  -0.031  14.992  1.0045 -0.4522  2.4113
 1419TIP3    H225817   2.948   0.023  14.996  0.5127  1.1756  0.0784
 1420TIP3   OH225818   0.244   1.186  25.688  0.1575 -0.2080 -0.3598
 1420TIP3    H125819   0.258   1.209  25.596  2.6241  0.1571  0.0276
 1420TIP3    H225820   0.206   1.264  25.727 -2.2342 -0.8357 -1.2975
 1421TIP3   OH225821   1.933   3.029   6.691 -0.2918 -0.0187 -0.1683
 1421TIP3    H125822   1.968   2.950   6.650  0.3336 -0.4361  1.1023
 1421TIP3    H225823   1.870   3.063   6.628 -0.2364 -1.2838 -0.9459
 1422TIP3   OH225824   0.399   1.081  30.878  0.0947 -0.6435  0.1562
 1422TIP3    H125825   0.384   1.169  30.914 -0.5952  0.0295 -1.6356
 1422TIP3    H225826   0.387   1.092  30.784  2.3795 -2.1779 -0.3884
 1423TIP3   OH225827   1.729   1.655  19.935 -0.2550 -0.3297 -0.1659
 1423TIP3    H125828   1.706   1.748  19.945 -0.7175 -0.4944  0.3645
 1423TIP3    H225829   1.824   1.654  19.929 -0.3279  0.4069 -2.7038
 1424TIP3   OH225830   2.077   2.902  12.540 -0.0007  0.6421  0.9599
 1424TIP3    H125831   2.118   2.967  12.483 -0.7867  1.4627  1.3058
 1424TIP3    H225832   2.108   2.924  12.628  1.2279 -0.6354  0.8825
 1425TIP3   OH225833   0.250   2.839  27.079  0.0367 -0.7860  0.0959
 1425TIP3    H125834   0.195   2.773  27.035  2.0393 -0.6042 -3.0203
 1425TIP3    H225835   0.330   2.791  27.101  0.8580  0.1654 -0.7114
 1426TIP3   OH225836   3.251   3.085   1.745  0.3167  0.4112  0.4750
 1426TIP3    H125837   3.258   3.142   1.822  0.2668 -0.1030  0.8643
 1426TIP3    H225838   3.316   3.119   1.684  1.7664 -0.3781  1.5214
 1427TIP3   OH225839   3.397   3.226   2.636  0.0064  0.2264  0.2011
 1427TIP3    H125840   3.471   3.195   2.583 -2.7181 -2.6775 -2.2817
 1427TIP3    H225841   3.383   3.316   2.607  0.1767 -0.4620 -2.2427
 1428TIP3   OH225842   2.147   1.496   5.924 -0.6232 -0.2795  0.3036
 1428TIP3    H125843   2.112   1.585   5.923  1.5203  0.6398  0.6401
 1428TIP3    H225844   2.100   1.451   5.855 -0.2754  1.7612 -1.3719
 1429TIP3   OH225845   0.151   2.572   3.780 -0.0119 -0.0237 -0.5379
 1429TIP3    H125846   0.237   2.537   3.802  0.3547  1.0384 -0.2098
 1429TIP3    H225847   0.091   2.499   3.793  0.6667 -0.4054  0.5619
 1430TIP3   OH225848   1.351   0.407  14.509 -0.3176 -0.2009 -0.3964
 1430TIP3    H125849   1.271   0.396  14.560  1.0052  1.0331  2.1750
 1430TIP3    H225850   1.421   0.386  14.571  1.3964  0.2970 -2.0788
 1431TIP3   OH225851   0.993   0.085   3.222 -0.1665 -0.3832 -0.4256
 1431TIP3    H125852   0.989  -0.009   3.236 -1.1281 -0.5527 -1.6989
 1431TIP3    H225853   0.905   0.109   3.193 -0.0411  0.9755  0.2140
 1432TIP3   OH225854   0.553   0.034  31.608  0.1473 -0.6335 -0.0879
 1432TIP3    H125855   0.510  -0.051  31.601  0.3500 -0.6939 -0.6873
 1432TIP3    H225856   0.506   0.079  31.678  0.9907 -1.7797  1.2500
 1433TIP3   OH225857   0.721   3.038  26.828 -0.6944  0.4354  0.1031
 1433TIP3    H125858   0.769   2.958  26.848  0.9719  1.4331  0.3642
 1433TIP3    H225859   0.632   3.009  26.807 -0.5183 -1.3280  1.5686
 1434TIP3   OH225860   1.913   2.541  22.557 -0.4221  0.5464  0.2370
 1434TIP3    H125861   1.837   2.585  22.596 -1.2393  0.2484 -0.9536
 1434TIP3    H225862   1.878   2.496  22.480  0.7529 -0.5942  0.3304
 1435TIP3   OH225863   0.443   1.896  23.767  0.4931 -0.2095 -0.2147
 1435TIP3    H125864   0.357   1.895  23.725  0.1737  1.4297  0.3298
 1435TIP3    H225865   0.476   1.807  23.755 -1.4717 -1.0203 -0.0308
 1436TIP3   OH225866   3.078   2.868  28.577 -0.4539  0.4362  0.3602
 1436TIP3    H125867   3.121   2.810  28.640  1.1106  1.1615  0.0091
 1436TIP3    H225868   3.109   2.838  28.492 -0.2454  1.2717  0.1307
 1437TIP3   OH225869   2.735   2.024  21.075  0.1458  0.1522  0.1188
 1437TIP3    H125870   2.803   2.008  21.009 -0.4455  1.1616 -0.7695
 1437TIP3    H225871   2.780   2.072  21.145  0.4928  0.2808 -0.1865
 1438TIP3   OH225872   0.126   1.531  24.061  0.0834 -0.1826  0.3258
 1438TIP3    H125873   0.148   1.574  23.979  3.8311 -0.4033  1.0390
 1438TIP3    H225874   0.117   1.438  24.038  0.7863 -0.2000  0.1118
 1439TIP3   OH225875   1.941   3.212   4.098  0.5554  0.4825 -0.3232
 1439TIP3    H125876   1.902   3.224   4.012  0.9261  0.8869 -0.4359
 1439TIP3    H225877   1.949   3.117   4.107 -3.2425  0.0813  0.9520
 1440TIP3   OH225878   1.253   0.104   5.703 -0.2159  0.4619 -0.4831
 1440TIP3    H125879   1.229   0.167   5.635 -1.3917  0.7711  0.1759
 1440TIP3    H225880   1.177   0.103   5.761  0.7642  0.1982  0.8205
 1441TIP3   OH225881   0.376   0.575  32.910  0.6975 -0.4434  0.2732
 1441TIP3    H125882   0.421   0.594  32.827 -0.5820 -1.8302 -0.7887
 1441TIP3    H225883   0.334   0.658  32.933  1.1154 -0.0197 -0.4319
 1442TIP3   OH225884   0.223   3.521  12.686 -0.1124 -0.5872 -0.3858
 1442TIP3    H125885   0.208   3.486  12.598  1.6782 -1.4492 -0.4115
 1442TIP3    H225886   0.271   3.451  12.731 -0.1598  0.2185  0.9589
 1443TIP3   OH225887   0.675   2.601  32.482  0.4054 -0.0475  0.6001
 1443TIP3    H125888   0.603   2.611  32.544  0.7336 -0.5306  1.0709
 1443TIP3    H225889   0.656   2.519  32.437  1.5738 -1.1443  1.9997
 1444TIP3   OH225890   2.866   1.628   1.506  0.7091 -0.0679 -0.0554
 1444TIP3    H125891   2.811   1.601   1.580  1.3166 -0.9309  0.1002
 1444TIP3    H225892   2.865   1.553   1.447  0.5059  0.4879 -0.7655
 1445TIP3   OH225893   1.472   2.052   0.580  0.0049 -0.3613 -0.2995
 1445TIP3    H125894   1.449   1.964   0.549 -0.5521 -0.9054  1.5651
 1445TIP3    H225895   1.561   2.067   0.546  0.7003 -2.2607  0.5633
 1446TIP3   OH225896   2.934   3.119   3.423  0.5181  0.0458 -0.4834
 1446TIP3    H125897   2.883   3.195   3.451  1.4348  0.8827 -1.0137
 1446TIP3    H225898   2.994   3.154   3.358  2.5797 -0.6653  0.9450
 1447TIP3   OH225899   1.892   2.851  12.263 -0.4344  0.0911 -0.5179
 1447TIP3    H125900   1.861   2.761  12.252  0.7577 -0.2526 -1.3006
 1447TIP3    H225901   1.954   2.846  12.336 -1.9862  0.7229  0.8855
 1448TIP3   OH225902   1.930   2.946   5.494 -0.0458  0.2970 -0.1069
 1448TIP3    H125903   1.886   2.953   5.409 -1.5066 -1.6397  0.4253
 1448TIP3    H225904   2.021   2.927   5.473 -0.7773 -2.3518 -1.3220
 1449TIP3   OH225905   1.582   2.318  32.196 -0.2109 -0.2224 -0.7089
 1449TIP3    H125906   1.563   2.394  32.251  1.0623 -0.3475 -0.0678
 1449TIP3    H225907   1.605   2.354  32.111 -0.2678  0.0749 -0.5985
 1450TIP3   OH225908   1.902   1.014  29.803  0.0506 -0.0324  0.4424
 1450TIP3    H125909   1.955   0.983  29.730  2.1644  1.6364  1.1519
 1450TIP3    H225910   1.851   1.086  29.767  1.2713  0.9493  0.5863
 1451TIP3   OH225911   0.872   0.323   1.594  0.0699  0.3656 -0.2083
 1451TIP3    H125912   0.952   0.276   1.570  0.2923  1.6472 -2.2324
 1451TIP3    H225913   0.899   0.415   1.597 -0.8846  0.6243  1.2155
 1452TIP3   OH225914   3.458   3.333   1.815  0.1760  0.0242  0.2951
 1452TIP3    H125915   3.509   3.265   1.772 -1.9076 -0.2356 -1.9751
 1452TIP3    H225916   3.465   3.409   1.756 -0.2612  0.6815  1.0640
 1453TIP3   OH225917   1.022   0.772   0.724  0.8669  0.4361  0.1264
 1453TIP3    H125918   1.043   0.763   0.631 -1.8119 -0.7786 -0.4336
 1453TIP3    H225919   0.979   0.690   0.748 -1.8585  2.1051  1.4354
 1454TIP3   OH225920   1.611   1.831  26.864  0.2406 -1.1769 -0.1401
 1454TIP3    H125921   1.528   1.786  26.878 -1.4589  1.1825 -1.7495
 1454TIP3    H225922   1.604   1.868  26.776  1.5862  1.7460  0.8261
 1455TIP3   OH225923   2.174   0.137  31.102  0.0545  0.2822 -0.6322
 1455TIP3    H125924   2.204   0.164  31.015 -0.3068  0.1861 -0.7879
 1455TIP3    H225925   2.131   0.053  31.088  0.5336 -0.0374 -0.2643
 1456TIP3   OH225926   0.079   0.353   6.024 -0.4072  0.1777 -0.0045
 1456TIP3    H125927   0.166   0.366   5.988  0.6844 -0.0232  2.3796
 1456TIP3    H225928   0.023   0.337   5.947  1.3780  1.5369 -1.6757
 1457TIP3   OH225929   2.359   1.205   3.273 -0.2323 -0.2993  0.2817
 1457TIP3    H125930   2.382   1.127   3.221  0.9821 -0.5973  1.1978
 1457TIP3    H225931   2.420   1.272   3.242 -0.0243 -0.2590  0.7794
 1458TIP3   OH225932   0.867   1.285   3.316 -0.1000  0.1333 -0.3050
 1458TIP3    H125933   0.871   1.377   3.343 -1.6102  0.2178 -0.2540
 1458TIP3    H225934   0.884   1.286   3.222  3.8190 -0.0143  0.2233
 1459TIP3   OH225935   2.731   0.147  28.374 -0.3233  0.6937  0.4994
 1459TIP3    H125936   2.759   0.094  28.449  1.7924  1.2164  0.1554
 1459TIP3    H225937   2.813   0.168  28.328 -1.5606  0.2083 -2.0976
 1460TIP3   OH225938   0.280   2.132  30.737 -0.0368 -0.5165  0.0972
 1460TIP3    H125939   0.247   2.185  30.810  2.1124 -0.4151  1.0855
 1460TIP3    H225940   0.352   2.184  30.702 -0.4085 -1.0300 -1.4850
 1461TIP3   OH225941   1.752   1.842  27.102 -0.4100 -0.1192  0.0084
 1461TIP3    H125942   1.678   1.854  27.044 -0.9128 -0.5824  0.5420
 1461TIP3    H225943   1.804   1.922  27.092 -0.1490 -0.4357 -1.5335
 1462TIP3   OH225944   0.185   2.583  30.894 -0.5216 -0.3663  0.0189
 1462TIP3    H125945   0.279   2.600  30.881 -0.7653  2.9019  1.4262
 1462TIP3    H225946   0.147   2.585  30.806  0.5122 -0.0968 -0.4348
 1463TIP3   OH225947   1.936   1.474  32.772 -0.4225 -0.4221  0.2762
 1463TIP3    H125948   2.005   1.424  32.816  0.5057  2.2303  2.0767
 1463TIP3    H225949   1.861   1.470  32.831 -0.1935  0.6135  0.6612
 1464TIP3   OH225950   3.529   0.751   5.931  0.1934  0.0439  0.0867
 1464TIP3    H125951   3.601   0.699   5.896 -1.0871 -0.4514 -1.9474
 1464TIP3    H225952   3.475   0.772   5.855 -0.5410  2.4666  1.1959
 1465TIP3   OH225953   0.966   1.153   4.269  0.4563  0.3811  0.4521
 1465TIP3    H125954   1.025   1.089   4.229 -0.0301  1.0451 -1.4099
 1465TIP3    H225955   0.882   1.137   4.227  0.1273  1.6745  0.6028
 1466TIP3   OH225956   2.220   1.942   2.092 -0.5704  0.5912  0.1113
 1466TIP3    H125957   2.314   1.923   2.093 -0.6820  0.0337  0.1232
 1466TIP3    H225958   2.210   2.006   2.021 -0.4648 -0.8799 -1.2879
 1467TIP3   OH225959   3.220   2.868   2.371 -0.0148  0.4517 -0.0320
 1467TIP3    H125960   3.211   2.963   2.377  1.7104  0.6920 -0.6730
 1467TIP3    H225961   3.141   2.839   2.327 -1.1196  1.4310  1.1984
 1468TIP3   OH225962   2.987   0.550  28.845  0.4277  0.0783 -0.2753
 1468TIP3    H125963   3.009   0.477  28.902 -1.4601 -0.8981 -0.7028
 1468TIP3    H225964   3.012   0.520  28.757 -1.4303 -0.6219 -0.6201
 1469TIP3   OH225965   3.001   0.513   1.625 -0.5715  0.2714  0.4888
 1469TIP3    H125966   3.063   0.536   1.557  1.6402 -1.5391  1.7298
 1469TIP3    H225967   2.980   0.596   1.669  0.3530  1.0289 -0.4627
 1470TIP3   OH225968   1.889   3.389  11.810  0.0938 -0.1406 -0.4887
 1470TIP3    H125969   1.957   3.367  11.875 -0.4592 -0.5166 -0.0233
 1470TIP3    H225970   1.925   3.463  11.762  0.8128 -0.2998 -0.2099
 1471TIP3   OH225971   2.258   3.307   6.467  0.4460 -0.0941 -0.4165
 1471TIP3    H125972   2.196   3.290   6.538 -0.0795 -0.2873 -0.9212
 1471TIP3    H225973   2.248   3.400   6.449  0.6168 -0.0336 -0.2055
 1472TIP3   OH225974   0.003   1.261  27.294 -0.1793  0.0911  0.6877
 1472TIP3    H125975  -0.029   1.344  27.259 -1.0900 -0.2307  0.7252
 1472TIP3    H225976   0.017   1.278  27.387 -0.7860  0.0953  0.7840
 1473TIP3   OH225977   0.344   2.520  26.568 -0.7467 -0.1289  0.5690
 1473TIP3    H125978   0.400   2.449  26.536  0.2912  0.9709 -0.1782
 1473TIP3    H225979   0.346   2.511  26.663 -0.5999 -1.0733  0.4891
 1474TIP3   OH225980   2.743   2.493  27.336 -0.5852  0.1105 -0.5356
 1474TIP3    H125981   2.779   2.437  27.268 -2.3793  0.3485 -1.7435
 1474TIP3    H225982   2.778   2.580  27.317  0.9033 -0.2559  0.3764
 1475TIP3   OH225983   2.543   1.876  18.263 -0.0711  0.3113  0.4505
 1475TIP3    H125984   2.610   1.849  18.200 -0.0338  1.6249 -0.0892
 1475TIP3    H225985   2.583   1.857  18.349 -0.2418 -1.7650  0.1261
 1476TIP3   OH225986   0.941   2.118  19.729 -0.0553 -0.0833 -0.0265
 1476TIP3    H125987   0.927   2.064  19.652 -1.9849  0.1778  0.0854
 1476TIP3    H225988   1.016   2.173  19.707  0.3401 -1.0279 -1.1155
 1477TIP3   OH225989   1.339   2.998   0.096 -0.0188 -0.5259  0.3962
 1477TIP3    H125990   1.290   2.942   0.036 -1.3949  0.1339  0.8454
 1477TIP3    H225991   1.428   2.997   0.062 -0.7909  0.0614 -1.8769
 1478TIP3   OH225992   3.453   0.904   2.646 -0.1335  0.3085  0.8622
 1478TIP3    H125993   3.439   0.986   2.693 -0.9683  1.4026 -1.1570
 1478TIP3    H225994   3.365   0.866   2.638 -0.0744  0.3544 -0.1294
 1479TIP3   OH225995   1.087   2.168  30.273  0.2150 -0.6394  0.3625
 1479TIP3    H125996   1.142   2.159  30.195 -0.6524 -0.3615 -0.2998
 1479TIP3    H225997   1.147   2.193  30.343  1.1028 -1.4958 -0.0774
 1480TIP3   OH225998   1.460   2.979  13.138 -0.2269 -0.2128  1.0418
 1480TIP3    H125999   1.435   2.923  13.065  1.2317 -0.5430  0.7702
 1480TIP3    H226000   1.501   2.919  13.201  1.1592  0.4834  0.8422
 1481TIP3   OH226001   2.134   0.828  28.625 -0.6482 -0.3529 -0.6553
 1481TIP3    H126002   2.095   0.747  28.658 -1.2185 -0.5257 -1.6984
 1481TIP3    H226003   2.062   0.872  28.580 -0.1656  0.3965 -0.7067
 1482TIP3   OH226004   2.574   2.091  21.479 -0.6761 -0.5635  0.4237
 1482TIP3    H126005   2.669   2.083  21.477 -0.6332 -0.1995  0.8734
 1482TIP3    H226006   2.558   2.185  21.483 -1.0257 -0.6537  1.4958
 1483TIP3   OH226007   1.163   1.980  27.647  0.3133  0.7280 -0.5139
 1483TIP3    H126008   1.258   1.991  27.639  0.3244  0.5712 -0.6094
 1483TIP3    H226009   1.130   2.068  27.663  0.7095  0.4920  2.0474
 1484TIP3   OH226010   1.658   2.613  11.844 -0.2337 -0.2409  0.8340
 1484TIP3    H126011   1.733   2.560  11.817 -0.8702 -1.7248  1.8553
 1484TIP3    H226012   1.687   2.657  11.923  0.0865  0.4956  0.3229
 1485TIP3   OH226013   0.199   1.615  18.778 -0.3893  0.1477  0.4392
 1485TIP3    H126014   0.184   1.703  18.744 -0.6153  0.6175  1.7024
 1485TIP3    H226015   0.295   1.606  18.779 -0.3623 -0.4372 -1.6133
 1486TIP3   OH226016   3.437   2.316  30.167 -0.8139  0.0038 -0.0496
 1486TIP3    H126017   3.462   2.406  30.188  0.0852 -0.3286  0.3256
 1486TIP3    H226018   3.439   2.269  30.250 -3.9996  0.2118  0.2821
 1487TIP3   OH226019   2.531   2.612   6.578  0.1844 -0.2050  0.3170
 1487TIP3    H126020   2.445   2.651   6.595 -1.8411 -2.5688 -3.2688
 1487TIP3    H226021   2.548   2.558   6.656 -1.7852  0.0133  0.9645
 1488TIP3   OH226022   2.708   2.955   2.605 -0.2493 -0.1120 -0.0488
 1488TIP3    H126023   2.769   2.947   2.678 -1.1952 -1.4724  0.6332
 1488TIP3    H226024   2.752   3.014   2.544  1.4305 -0.4811  0.7348
 1489TIP3   OH226025   2.402   1.946  19.380 -0.6740 -0.4450 -0.1709
 1489TIP3    H126026   2.367   2.029  19.411 -0.2761 -0.2876 -0.1406
 1489TIP3    H226027   2.487   1.968  19.341 -0.5327 -0.8432 -0.0963
 1490TIP3   OH226028   1.837   3.381   5.965  0.2966 -0.2925 -0.1617
 1490TIP3    H126029   1.798   3.428   5.891  1.0375 -0.1704 -0.4845
 1490TIP3    H226030   1.826   3.288   5.942 -2.3095 -0.3805  1.0646
 1491TIP3   OH226031   0.395   1.634  22.559 -0.3067 -0.0234  0.0059
 1491TIP3    H126032   0.389   1.621  22.654 -0.0643 -2.0348 -0.2082
 1491TIP3    H226033   0.315   1.595  22.525 -0.2457  0.4168 -0.6414
 1492TIP3   OH226034   2.295   0.390  14.555  0.1276  0.0896  0.4225
 1492TIP3    H126035   2.361   0.458  14.539  1.3037 -0.9985  0.5093
 1492TIP3    H226036   2.277   0.396  14.649  0.9372 -0.3325  0.6110
 1493TIP3   OH226037   2.028   0.209   5.290  0.4448 -0.2038 -0.0273
 1493TIP3    H126038   2.086   0.218   5.366 -0.5401 -1.5972  0.9453
 1493TIP3    H226039   2.082   0.235   5.215  2.1295 -0.8088  0.9152
 1494TIP3   OH226040   3.400   1.480  32.266  0.1019 -0.5798  0.8841
 1494TIP3    H126041   3.322   1.424  32.274 -0.4755  0.1316  0.3525
 1494TIP3    H226042   3.423   1.475  32.173  1.2613 -1.5189  1.1952
 1495TIP3   OH226043   1.456   2.417   5.552 -0.5563  0.0921 -0.2878
 1495TIP3    H126044   1.404   2.381   5.480 -1.3833 -0.5011  0.5626
 1495TIP3    H226045   1.433   2.361   5.627  0.3628  0.6196  0.3996
 1496TIP3   OH226046   1.653   1.331   1.838 -1.1850  0.3963  0.5281
 1496TIP3    H126047   1.735   1.376   1.822  0.0051 -1.6186  0.6382
 1496TIP3    H226048   1.595   1.359   1.767 -1.1462  3.3841  1.5494
 1497TIP3   OH226049   0.324   0.169   1.083 -0.4731  0.0758  0.2317
 1497TIP3    H126050   0.360   0.118   1.156 -2.9319 -1.5087  0.4529
 1497TIP3    H226051   0.335   0.113   1.006 -1.8254 -0.2002  0.2063
 1498TIP3   OH226052   2.901   0.741  30.053  0.1534  0.3611 -0.4104
 1498TIP3    H126053   2.932   0.663  30.098  1.7933  0.7101 -0.8638
 1498TIP3    H226054   2.859   0.793  30.122 -0.0043 -0.4270  0.0984
 1499TIP3   OH226055   1.462   0.826  26.423 -0.0980  0.0091  0.0152
 1499TIP3    H126056   1.435   0.848  26.512 -1.4716  0.0135 -0.3748
 1499TIP3    H226057   1.535   0.765  26.434 -0.2796 -0.0177  1.1394
 1500TIP3   OH226058   3.101   2.659  26.728 -0.3393  0.0395  0.1753
 1500TIP3    H126059   3.176   2.620  26.772 -0.0623  0.8098  0.3932
 1500TIP3    H226060   3.133   2.743  26.695 -0.8911  0.0334 -0.4065
 1501TIP3   OH226061   1.709   1.915   5.726  0.2076 -0.0517  0.3023
 1501TIP3    H126062   1.698   1.832   5.773  0.5915 -0.9251 -1.0947
 1501TIP3    H226063   1.796   1.908   5.685  0.2320  1.0326  0.1348
 1502TIP3   OH226064   0.592   0.042  29.997 -0.4798  0.3885 -0.7811
 1502TIP3    H126065   0.540  -0.013  30.055  2.0080  0.0812  1.3518
 1502TIP3    H226066   0.591   0.128  30.037  0.0381  0.5596 -1.1171
 1503TIP3   OH226067   2.843   2.599  29.454 -0.9553 -0.3296 -1.0848
 1503TIP3    H126068   2.845   2.525  29.394  0.4913  0.2897 -1.8515
 1503TIP3    H226069   2.918   2.653  29.429 -0.8705  0.4476  0.6539
 1504TIP3   OH226070   3.454   0.212   1.661 -0.3519 -0.3847  0.1648
 1504TIP3    H126071   3.403   0.287   1.628 -1.6641 -1.9891 -1.7246
 1504TIP3    H226072   3.418   0.196   1.748 -0.7815  0.5540  0.1771
 1505TIP3   OH226073   1.432   2.497  25.338  0.3976  0.0719  0.6548
 1505TIP3    H126074   1.462   2.557  25.269  1.7530 -0.0265  1.1296
 1505TIP3    H226075   1.428   2.412  25.295 -3.4752  0.6714 -0.5890
 1506TIP3   OH226076   2.503   2.282  26.127 -0.5992 -0.0575 -0.9313
 1506TIP3    H126077   2.487   2.375  26.147 -0.0061 -0.1226 -0.1290
 1506TIP3    H226078   2.416   2.245  26.113 -0.9169  0.3539 -0.0551
 1507TIP3   OH226079   2.587   0.878  29.258  0.1040 -0.2412 -0.1753
 1507TIP3    H126080   2.495   0.902  29.260  0.3140  0.6135 -0.0164
 1507TIP3    H226081   2.619   0.910  29.173  0.5156  0.5630  0.2664
 1508TIP3   OH226082   0.934   2.284  31.729  0.0716  0.3382  0.0302
 1508TIP3    H126083   0.922   2.270  31.823 -1.0550  1.6960  0.1208
 1508TIP3    H226084   0.949   2.378  31.720  3.7984 -0.1804 -0.8324
 1509TIP3   OH226085   1.782   3.161   2.026  0.5589 -0.1053  0.4113
 1509TIP3    H126086   1.875   3.178   2.012  0.8785 -0.2695  2.0641
 1509TIP3    H226087   1.743   3.248   2.035  0.9912 -0.0302  1.9897
 1510TIP3   OH226088   1.036   1.590  25.915 -0.0514 -0.3649  0.3746
 1510TIP3    H126089   1.030   1.647  25.838  1.8355 -0.4027  0.1454
 1510TIP3    H226090   1.018   1.647  25.989  0.5392  0.2450  0.0601
 1511TIP3   OH226091   0.300   1.031  25.899 -0.2701 -0.1643  0.2206
 1511TIP3    H126092   0.219   1.000  25.939 -0.2658  0.5507  0.8163
 1511TIP3    H226093   0.271   1.091  25.830 -0.2693 -1.1467 -0.6644
 1512TIP3   OH226094   2.872   0.423   2.249  0.4446  0.3923 -0.0174
 1512TIP3    H126095   2.937   0.356   2.268 -0.3150 -0.2482  0.4111
 1512TIP3    H226096   2.914   0.481   2.186  1.6316  0.3375  0.7033
 1513TIP3   OH226097   2.493   3.238  32.723  0.7893  0.1148 -0.2354
 1513TIP3    H126098   2.510   3.300  32.794  0.6139  0.8430 -0.8191
 1513TIP3    H226099   2.540   3.159  32.749 -1.3128 -0.5191  1.9355
 1514TIP3   OH226100   2.726   2.652  28.701 -0.6493 -0.5761 -0.2675
 1514TIP3    H126101   2.796   2.659  28.766 -0.1782 -1.3435 -0.6744
 1514TIP3    H226102   2.760   2.699  28.624 -1.8674  1.7970  0.5212
 1515TIP3   OH226103   1.373   3.379  12.579 -0.4487 -0.4110  0.2950
 1515TIP3    H126104   1.325   3.362  12.498  1.3766  0.6053 -1.0718
 1515TIP3    H226105   1.309   3.365  12.648 -1.8780 -2.0458 -1.2612
 1516TIP3   OH226106   0.209   1.705  20.415 -0.2075  0.0517 -0.8962
 1516TIP3    H126107   0.207   1.753  20.332  1.6435 -1.4355 -1.8905
 1516TIP3    H226108   0.221   1.614  20.389  1.7491 -0.3133  0.9919
 1517TIP3   OH226109   3.111   3.133   2.397  0.2678 -0.5556  0.0972
 1517TIP3    H126110   3.149   3.217   2.375 -0.4430 -0.3506 -0.3901
 1517TIP3    H226111   3.017   3.150   2.408 -0.1322 -1.5130 -1.4368
 1518TIP3   OH226112   0.218   1.131   6.230 -0.4634 -0.1260  0.8133
 1518TIP3    H126113   0.166   1.084   6.295  0.1355 -1.2313  0.5106
 1518TIP3    H226114   0.305   1.139   6.269  0.3235 -2.1075 -0.4002
 1519TIP3   OH226115   1.763   3.150  28.237  0.2483 -0.3841  0.1240
 1519TIP3    H126116   1.692   3.092  28.263 -0.8275  0.2455 -1.2804
 1519TIP3    H226117   1.720   3.224  28.194  1.6718  0.7424  0.5433
 1520TIP3   OH226118   0.336   1.471   0.522 -0.0411  0.0017  0.1195
 1520TIP3    H126119   0.304   1.434   0.605 -0.6716  1.0237  0.3591
 1520TIP3    H226120   0.288   1.553   0.513  1.4036  0.8348 -0.3113
 1521TIP3   OH226121   2.352   2.790   5.643 -0.1870  0.7631  0.3703
 1521TIP3    H126122   2.427   2.812   5.587 -1.3463  0.7682 -1.2549
 1521TIP3    H226123   2.276   2.813   5.591 -1.3516 -0.3697  1.5031
 1522TIP3   OH226124   1.647   0.284  10.715  0.6878  0.1947 -0.1839
 1522TIP3    H126125   1.628   0.363  10.664  0.1607 -1.3915 -2.5862
 1522TIP3    H226126   1.736   0.259  10.688  0.9552  0.0791  0.7618
 1523TIP3   OH226127   0.918   0.370  26.270 -0.7753  0.2997  0.4374
 1523TIP3    H126128   0.957   0.289  26.302 -0.3785  0.3931  0.1944
 1523TIP3    H226129   0.986   0.409  26.215 -0.7216  1.1154  1.0579
 1524TIP3   OH226130   1.529   0.125   2.402  0.1345 -0.0286 -0.5285
 1524TIP3    H126131   1.573   0.044   2.426 -0.2476  0.3321  1.6587
 1524TIP3    H226132   1.587   0.194   2.433 -0.8689  0.4671  0.3277
 1525TIP3   OH226133   3.340   1.251   0.244  0.4930 -0.6766 -0.1078
 1525TIP3    H126134   3.246   1.246   0.231  0.0954  0.4701  1.9416
 1525TIP3    H226135   3.361   1.176   0.300  0.9181 -1.2391 -0.9926
 1526TIP3   OH226136   0.143   2.621   0.436  0.9711 -0.0330 -0.4010
 1526TIP3    H126137   0.153   2.648   0.528 -1.0363  2.8519 -0.8991
 1526TIP3    H226138   0.049   2.612   0.424  1.2691 -1.9295 -1.8748
 1527TIP3   OH226139   0.595   2.644  11.303 -0.3563 -0.2998 -0.4691
 1527TIP3    H126140   0.511   2.601  11.321  0.2780 -0.5657  2.5131
 1527TIP3    H226141   0.655   2.572  11.285 -0.5401 -0.1710 -1.6721
 1528TIP3   OH226142   0.137   1.495  31.082 -0.2265  0.0922 -0.2949
 1528TIP3    H126143   0.139   1.491  31.177  0.2016 -1.5132 -0.3353
 1528TIP3    H226144   0.180   1.577  31.060 -0.7948  0.7346  0.8939
 1529TIP3   OH226145   0.548   0.839   6.319 -0.0755 -0.1789  0.2827
 1529TIP3    H126146   0.541   0.744   6.330 -2.4457 -0.1706 -0.6203
 1529TIP3    H226147   0.489   0.876   6.385 -3.0000  0.3763 -2.3738
 1530TIP3   OH226148   2.034   2.912   3.964 -0.1288 -0.3160  0.0570
 1530TIP3    H126149   2.107   2.931   4.023 -0.1838  0.2746 -0.0624
 1530TIP3    H226150   2.074   2.866   3.891 -0.2814 -2.5400  1.2756
 1531TIP3   OH226151   1.266   1.887   6.874  0.3783 -0.6208  0.2654
 1531TIP3    H126152   1.191   1.863   6.930  1.7402 -0.9931  2.0261
 1531TIP3    H226153   1.319   1.807   6.869  0.8918 -0.2422 -0.6006
 1532TIP3   OH226154   1.377   2.893  11.684  0.0348 -0.0785  0.7677
 1532TIP3    H126155   1.467   2.910  11.656 -0.0941 -0.9720 -0.2610
 1532TIP3    H226156   1.378   2.801  11.711 -0.7113 -0.2805  0.1348
 1533TIP3   OH226157   2.953   1.513   5.155  0.8024  1.0633 -0.5687
 1533TIP3    H126158   2.938   1.482   5.066  0.3348 -0.6014  0.0466
 1533TIP3    H226159   2.896   1.589   5.165 -1.8716 -0.7988 -0.6139
 1534TIP3   OH226160   3.084   1.879   0.008  0.0601  0.2579  0.5274
 1534TIP3    H126161   3.090   1.957   0.064 -1.2167 -0.2307  1.3814
 1534TIP3    H226162   3.039   1.909  -0.070 -2.3075  0.0111  1.7003
 1535TIP3   OH226163   1.739   1.165  32.336 -0.0139 -0.6786 -0.8100
 1535TIP3    H126164   1.661   1.124  32.299  0.0223 -0.1247 -1.5155
 1535TIP3    H226165   1.707   1.217  32.410  0.0457 -2.6506  0.6787
 1536TIP3   OH226166   1.859   1.035  27.246  0.9032 -0.3356 -0.3720
 1536TIP3    H126167   1.830   1.097  27.179  1.8178  1.3076  0.6604
 1536TIP3    H226168   1.782   1.022  27.301  1.3157  2.0015  0.8940
 1537TIP3   OH226169   1.471   1.186   6.076  0.1625  0.0731  0.2968
 1537TIP3    H126170   1.517   1.257   6.031  0.4673 -0.0152  0.4668
 1537TIP3    H226171   1.382   1.188   6.039 -0.2064  1.3293  1.1766
 1538TIP3   OH226172   2.726   2.574  30.810  0.2736 -0.5797 -0.3241
 1538TIP3    H126173   2.746   2.541  30.722 -1.9838 -1.5361 -0.5528
 1538TIP3    H226174   2.632   2.559  30.820 -0.3106  2.9900  0.8253
 1539TIP3   OH226175   3.264   3.407  30.852 -0.1502  0.3406 -0.0816
 1539TIP3    H126176   3.242   3.500  30.863  0.2220  0.5256 -0.8204
 1539TIP3    H226177   3.344   3.396  30.902  1.1151  0.9945 -1.8671
 1540TIP3   OH226178   0.646   2.366  32.376  0.2532  1.0096 -0.1733
 1540TIP3    H126179   0.742   2.365  32.370  0.4257  0.5760  2.0791
 1540TIP3    H226180   0.619   2.283  32.337  0.8606  0.7457 -0.0489
 1541TIP3   OH226181   1.303   2.166   6.418  0.1437  0.4547  0.0977
 1541TIP3    H126182   1.266   2.253   6.404 -1.0200 -0.2780 -1.7537
 1541TIP3    H226183   1.238   2.120   6.470  0.8387  0.7102  1.2301
 1542TIP3   OH226184   3.221   1.858  26.738 -0.5737 -0.1833  0.0358
 1542TIP3    H126185   3.188   1.804  26.667 -0.2797  0.0761 -0.2970
 1542TIP3    H226186   3.152   1.922  26.754 -2.6109 -2.8012  2.8626
 1543TIP3   OH226187   0.796   1.947   1.436  0.3703 -0.0180 -0.3174
 1543TIP3    H126188   0.763   2.016   1.493  1.9278 -1.2274  2.2203
 1543TIP3    H226189   0.845   1.993   1.368 -1.2051  1.4567 -0.5293
 1544TIP3   OH226190   2.062   0.525   6.378 -0.1202 -0.1443  0.0321
 1544TIP3    H126191   2.131   0.474   6.420 -0.2790  0.1886  0.7076
 1544TIP3    H226192   2.062   0.609   6.425 -1.4667 -0.4044  0.5324
 1545TIP3   OH226193   3.464   1.553   4.714 -0.1005  0.5487 -0.1472
 1545TIP3    H126194   3.454   1.485   4.647  2.0115  0.8035 -0.7924
 1545TIP3    H226195   3.399   1.531   4.781 -1.1661 -0.6373 -1.5157
 1546TIP3   OH226196   2.764   0.586   5.976 -0.0521  0.2128  0.2382
 1546TIP3    H126197   2.721   0.596   6.061 -0.1529  1.5276  0.0594
 1546TIP3    H226198   2.854   0.560   5.998 -0.0237  0.7278  0.7704
 1547TIP3   OH226199   2.579   1.338   7.466 -0.1133 -0.2026  0.0577
 1547TIP3    H126200   2.642   1.350   7.537 -0.0019  1.5530 -0.3053
 1547TIP3    H226201   2.576   1.243   7.453  0.9895 -0.4533  1.3784
 1548TIP3   OH226202   1.583   3.226  31.161 -0.1105  0.4980 -0.2795
 1548TIP3    H126203   1.566   3.178  31.080  0.7483 -0.1410 -0.0846
 1548TIP3    H226204   1.515   3.196  31.222 -0.0682  0.1335 -0.4099
 1549TIP3   OH226205   3.501   2.382   5.345  0.1363  0.6227  0.3697
 1549TIP3    H126206   3.543   2.424   5.421 -0.1969 -0.9170  1.4348
 1549TIP3    H226207   3.564   2.395   5.274  0.5111  1.9941  0.9064
 1550TIP3   OH226208   3.025   2.568  27.678  0.2115 -0.1188  0.1097
 1550TIP3    H126209   3.023   2.584  27.584 -1.3840  0.4193  0.2070
 1550TIP3    H226210   3.110   2.602  27.707  1.4570 -1.8112 -1.3550
 1551TIP3   OH226211   1.503   2.515   1.428 -0.2196 -0.6744 -0.1225
 1551TIP3    H126212   1.503   2.591   1.369 -0.2841 -1.1215 -0.7037
 1551TIP3    H226213   1.473   2.443   1.374  0.4573 -1.2523  0.2586
 1552TIP3   OH226214   2.151   1.821   2.663 -0.3558  0.1942  0.4610
 1552TIP3    H126215   2.191   1.903   2.692 -0.6848  0.9206 -1.0510
 1552TIP3    H226216   2.057   1.841   2.657 -0.1360  0.8855 -3.2641
 1553TIP3   OH226217   1.207   2.783  26.282 -0.4591 -0.3952 -0.3602
 1553TIP3    H126218   1.139   2.802  26.346 -0.9462  1.8300 -1.4501
 1553TIP3    H226219   1.178   2.826  26.201  1.9896  0.2696 -0.9841
 1554TIP3   OH226220   0.645   1.679   4.937 -0.4340 -0.0777  0.6527
 1554TIP3    H126221   0.560   1.636   4.921 -0.5616 -0.7819  2.8033
 1554TIP3    H226222   0.707   1.607   4.942  0.3225  0.4328 -0.8158
 1555TIP3   OH226223   0.330   1.229  32.846 -0.1043 -0.0640  0.3240
 1555TIP3    H126224   0.333   1.239  32.751 -1.5215 -1.1569  0.1206
 1555TIP3    H226225   0.403   1.281  32.878 -0.8689  2.0974 -1.2006
 1556TIP3   OH226226   3.264   1.169   6.416  0.1713 -0.1046  0.3160
 1556TIP3    H126227   3.274   1.164   6.511  2.7601  0.2080  0.1208
 1556TIP3    H226228   3.170   1.155   6.401 -0.3437  0.1023  2.9123
 1557TIP3   OH226229   3.028   1.022   6.342  0.2137  0.0901  0.3141
 1557TIP3    H126230   2.954   1.081   6.356  0.2677 -0.1831  2.0826
 1557TIP3    H226231   3.045   0.985   6.429 -0.0900 -2.8686 -0.7902
 1558TIP3   OH226232   1.252   2.312   2.259  0.0408  0.3759 -0.5222
 1558TIP3    H126233   1.266   2.400   2.226 -0.4532  1.0610  1.0238
 1558TIP3    H226234   1.241   2.258   2.180 -0.8270  1.8759 -1.4626
 1559TIP3   OH226235   0.075   1.548  29.722  0.5070 -0.2445 -0.3293
 1559TIP3    H126236   0.057   1.630  29.675  2.2912  0.3159 -0.1409
 1559TIP3    H226237   0.078   1.481  29.653  0.3042  0.0829 -0.6566
 1560TIP3   OH226238   2.582   1.999   6.408  0.0617 -0.4470  0.2519
 1560TIP3    H126239   2.584   1.951   6.491  0.5683 -0.6868  0.1062
 1560TIP3    H226240   2.590   2.091   6.434  0.1833 -0.5192  0.4769
 1561TIP3   OH226241   1.792   0.014  28.045  0.2668 -0.0673  0.3757
 1561TIP3    H126242   1.760   0.056  28.124 -0.8577 -0.3668  0.0961
 1561TIP3    H226243   1.885  -0.002  28.062 -0.1458 -0.9516  2.0002
 1562TIP3   OH226244   0.808   2.815  28.455  0.4661 -0.5758  0.3028
 1562TIP3    H126245   0.762   2.821  28.371 -0.6546 -1.2102  0.8604
 1562TIP3    H226246   0.856   2.898  28.462  0.5202 -0.4842 -0.9201
 1563TIP3   OH226247   3.549   1.606   3.862 -0.3101 -0.2244 -0.5456
 1563TIP3    H126248   3.458   1.594   3.833 -0.3210 -2.7661  0.3353
 1563TIP3    H226249   3.602   1.585   3.785 -0.4443 -0.7540 -0.4968
 1564TIP3   OH226250   1.068   3.447   1.302 -0.3812 -0.0657  0.2008
 1564TIP3    H126251   1.014   3.524   1.320  0.6500  0.2643  2.1584
 1564TIP3    H226252   1.019   3.374   1.340 -0.5890 -0.1402 -0.2044
 1565TIP3   OH226253   0.275   2.873  30.638 -0.0773  0.4714  0.4375
 1565TIP3    H126254   0.182   2.857  30.623  0.5600 -2.8767 -0.9455
 1565TIP3    H226255   0.302   2.805  30.700  1.4449  1.4119  0.8620
 1566TIP3   OH226256   0.255   3.112   5.540  0.0547  0.4098  0.2593
 1566TIP3    H126257   0.289   3.159   5.616 -0.3030  1.0557  0.0333
 1566TIP3    H226258   0.189   3.053   5.576  1.1255 -0.5762  0.6495
 1567TIP3   OH226259   2.388   1.829  31.019 -0.1330  0.4280  0.1171
 1567TIP3    H126260   2.374   1.769  31.092 -0.3341  0.3003 -0.0227
 1567TIP3    H226261   2.406   1.771  30.944 -0.0624  0.5519  0.0371
 1568TIP3   OH226262   3.150   0.344   4.723  0.0847  0.1532 -0.7600
 1568TIP3    H126263   3.139   0.388   4.808 -0.0467 -0.2254 -0.5769
 1568TIP3    H226264   3.108   0.258   4.735  2.0172 -0.8176 -0.4705
 1569TIP3   OH226265   2.452   2.376  27.048  0.1951 -0.2682 -0.5994
 1569TIP3    H126266   2.517   2.386  26.979  0.5447  1.6287 -0.0285
 1569TIP3    H226267   2.479   2.297  27.095  1.1760 -0.3802 -1.3187
 1570TIP3   OH226268   0.930   2.843   5.476 -0.3370 -0.3547 -0.2688
 1570TIP3    H126269   1.021   2.873   5.468 -0.2296 -0.8304 -1.0197
 1570TIP3    H226270   0.922   2.812   5.566 -0.0984  0.7630  0.1449
 1571TIP3   OH226271   1.299   1.128  32.843 -0.2199  0.2246 -0.0362
 1571TIP3    H126272   1.279   1.037  32.860 -1.8788  0.5073 -0.2600
 1571TIP3    H226273   1.269   1.143  32.753 -1.4609  1.3493  0.5176
 1572TIP3   OH226274   2.784   1.116  31.045  0.0651  0.2938 -0.1297
 1572TIP3    H126275   2.879   1.121  31.031  0.2198  0.7308  0.9623
 1572TIP3    H226276   2.773   1.045  31.108 -0.3540  0.1802 -0.3260
 1573TIP3   OH226277   0.044   3.531   3.998  0.2722  0.2805  0.8189
 1573TIP3    H126278  -0.045   3.508   4.025  0.7864 -1.2612  1.3064
 1573TIP3    H226279   0.069   3.603   4.057 -0.5010  0.4306  0.9651
 1574TIP3   OH226280   2.078   2.713  27.715 -0.1771  0.0235 -0.4393
 1574TIP3    H126281   2.111   2.653  27.781  0.3767  2.5008  1.7258
 1574TIP3    H226282   2.156   2.751  27.675 -0.4988 -0.0857 -1.1811
 1575TIP3   OH226283   1.105   2.086  28.257  0.1219  0.3461  0.2943
 1575TIP3    H126284   1.153   2.118  28.333 -0.6925  0.2333  0.8595
 1575TIP3    H226285   1.045   2.020  28.292  0.2921 -0.2841 -0.5569
 1576TIP3   OH226286   0.701   3.173   2.309  0.3889  0.0312  0.0823
 1576TIP3    H126287   0.609   3.153   2.293  0.5884 -0.2861 -0.7440
 1576TIP3    H226288   0.700   3.247   2.369 -0.4664  2.1004 -2.3261
 1577TIP3   OH226289   1.069   2.399  30.490  0.0151  0.9501 -0.4182
 1577TIP3    H126290   1.122   2.329  30.452  2.2608  0.4059  3.2394
 1577TIP3    H226291   1.004   2.353  30.544 -0.4923  1.6808 -0.3907
 1578TIP3   OH226292   0.327   3.104  27.226 -0.0801 -0.1780  0.1982
 1578TIP3    H126293   0.310   3.016  27.191  0.2983 -0.3713  0.4874
 1578TIP3    H226294   0.259   3.117  27.292 -1.9880  0.9537 -1.8586
 1579TIP3   OH226295   0.663   0.488  27.269 -0.3062 -0.1915 -0.0787
 1579TIP3    H126296   0.657   0.486  27.173  0.7486 -0.7429 -0.1400
 1579TIP3    H226297   0.578   0.523  27.297  0.1049  1.9768 -1.2835
 1580TIP3   OH226298   1.008   0.599  29.564 -0.5898  0.5560  0.2300
 1580TIP3    H126299   0.947   0.526  29.574 -0.7246  0.6642  0.2069
 1580TIP3    H226300   1.070   0.590  29.637  0.3285 -0.4714 -0.6469
 1581TIP3   OH226301   0.446   1.278   2.542 -0.4996 -0.4022  0.1633
 1581TIP3    H126302   0.406   1.215   2.602 -2.8023  0.1629 -0.6735
 1581TIP3    H226303   0.456   1.358   2.594 -0.1726 -0.6262  0.4515
 1582TIP3   OH226304   2.014   2.343  10.424  0.0330 -0.2487 -0.0721
 1582TIP3    H126305   2.013   2.310  10.514 -1.2569  1.8926  0.7614
 1582TIP3    H226306   1.921   2.346  10.399  0.1115  2.0539 -0.3022
 1583TIP3   OH226307   2.912   2.633   1.376 -0.1938  0.1912 -0.1610
 1583TIP3    H126308   2.925   2.554   1.429  2.3602  0.4953 -0.2491
 1583TIP3    H226309   2.817   2.643   1.372 -0.6451 -3.0998 -0.4775
 1584TIP3   OH226310   2.015   0.400  30.565  0.2914  0.2516  0.1916
 1584TIP3    H126311   1.967   0.437  30.491 -0.1600 -3.5827 -1.6765
 1584TIP3    H226312   1.970   0.434  30.642 -0.8180  2.4167 -1.2999
 1585TIP3   OH226313   1.298   1.074  26.061 -0.2873 -0.2243 -0.0473
 1585TIP3    H126314   1.381   1.048  26.021 -0.6279 -0.9988 -0.2726
 1585TIP3    H226315   1.306   1.046  26.152 -0.3922 -0.5137 -0.1270
 1586TIP3   OH226316   0.236   1.917   4.171  0.0986  0.0323  0.3122
 1586TIP3    H126317   0.223   1.822   4.170 -0.3800  0.0953  0.2664
 1586TIP3    H226318   0.195   1.947   4.090  0.9535  0.1921 -0.0781
 1587TIP3   OH226319   3.448   1.773  21.052  0.1358  0.0040  0.0773
 1587TIP3    H126320   3.515   1.782  20.983 -1.0050 -0.7835 -1.1871
 1587TIP3    H226321   3.458   1.684  21.084 -2.3870 -1.3645 -2.4975
 1588TIP3   OH226322   1.243   1.299   6.386 -0.2527 -0.3794 -0.9892
 1588TIP3    H126323   1.232   1.302   6.481  2.7542  1.5386 -0.5763
 1588TIP3    H226324   1.174   1.357   6.353 -0.4404  0.0823  0.1422
 1589TIP3   OH226325   1.342   3.272  13.323  0.4669  0.0682  0.2649
 1589TIP3    H126326   1.431   3.284  13.356  0.9207  0.5972 -1.0669
 1589TIP3    H226327   1.296   3.353  13.347  1.1953  1.0809 -1.5390
 1590TIP3   OH226328   0.436   1.747  32.272  0.4109  0.3239 -0.0240
 1590TIP3    H126329   0.522   1.720  32.304  0.1717  0.3381  0.6402
 1590TIP3    H226330   0.387   1.772  32.351 -0.3156  0.0036 -0.3611
 1591TIP3   OH226331   2.540   2.960   5.510 -0.0610 -0.5520  0.5075
 1591TIP3    H126332   2.498   2.983   5.427 -0.1882  1.1117  0.9992
 1591TIP3    H226333   2.626   2.927   5.484  0.1215  0.4841 -0.2819
 1592TIP3   OH226334   0.517   2.049   6.124  0.4545  0.4600  0.3486
 1592TIP3    H126335   0.491   1.999   6.047  1.4507 -1.5275  1.2498
 1592TIP3    H226336   0.594   2.005   6.158 -0.4001  0.7623  2.9531
 1593TIP3   OH226337   3.080   2.666   0.922 -0.5353  0.3425  0.1383
 1593TIP3    H126338   3.041   2.593   0.875 -1.6730  0.4219  0.9237
 1593TIP3    H226339   3.174   2.657   0.907 -0.8380  0.3055 -2.0231
 1594TIP3   OH226340   2.081   0.474   2.706  0.0495 -1.0875 -0.2267
 1594TIP3    H126341   2.029   0.461   2.785  0.8903 -0.6037  0.4332
 1594TIP3    H226342   2.131   0.393   2.696  0.2476 -0.9969 -0.0090
 1595TIP3   OH226343   3.324   1.504  17.470 -0.0697 -0.6010  0.0624
 1595TIP3    H126344   3.281   1.450  17.536 -1.3041  0.6224  0.3187
 1595TIP3    H226345   3.418   1.492  17.486 -0.2932 -2.5274  0.1807
 1596TIP3   OH226346   2.452   2.688   3.472  0.1224  0.4932  0.1854
 1596TIP3    H126347   2.547   2.703   3.466  0.0139  2.1440  1.5738
 1596TIP3    H226348   2.438   2.603   3.431  2.0418  0.7538 -1.1373
 1597TIP3   OH226349   0.470   0.721  32.671 -0.4725 -0.2994 -0.3952
 1597TIP3    H126350   0.477   0.817  32.669  0.8048 -0.3558  0.2391
 1597TIP3    H226351   0.508   0.693  32.588 -0.0232 -0.2850 -0.1975
 1598TIP3   OH226352   2.815   2.868  29.249 -0.0820  0.3429  0.0147
 1598TIP3    H126353   2.726   2.897  29.270 -0.4740 -0.8018  0.0563
 1598TIP3    H226354   2.809   2.840  29.157  0.3792  0.7929 -0.1528
 1599TIP3   OH226355   2.733   1.515  27.027 -0.5844 -0.2871 -0.5570
 1599TIP3    H126356   2.673   1.587  27.009 -0.9307 -0.9188 -2.1034
 1599TIP3    H226357   2.694   1.469  27.101 -1.1036  0.2952 -0.4669
 1600TIP3   OH226358   1.303   1.525   0.370  0.0193 -0.0612  0.1647
 1600TIP3    H126359   1.289   1.525   0.465  2.3717  2.0007  0.5870
 1600TIP3    H226360   1.397   1.509   0.359 -0.2284 -0.4475 -1.8622
 1601TIP3   OH226361   2.397   0.037   0.342  0.4474 -0.3282 -0.3792
 1601TIP3    H126362   2.324   0.098   0.338  2.5669  2.3331 -2.3662
 1601TIP3    H226363   2.363  -0.044   0.304 -1.5797  0.6865 -0.8613
 1602TIP3   OH226364   3.106   1.253   6.685  0.4049  0.3798 -0.1479
 1602TIP3    H126365   3.092   1.310   6.609  0.0416  2.8634  1.6701
 1602TIP3    H226366   3.187   1.206   6.664  0.1700  0.7737 -2.1624
 1603TIP3   OH226367   1.254   0.736   2.605  0.4030  0.1252 -0.3788
 1603TIP3    H126368   1.251   0.692   2.520  1.8325 -1.0252  0.1328
 1603TIP3    H226369   1.294   0.821   2.585 -0.4539  0.3840 -1.0492
 1604TIP3   OH226370   3.144   0.316  30.074  0.0090 -0.9370 -0.2270
 1604TIP3    H126371   3.158   0.251  30.005 -0.9719  0.0210 -1.3894
 1604TIP3    H226372   3.188   0.280  30.151  2.3221 -1.4349 -1.6817
 1605TIP3   OH226373   3.263   1.088  29.756  0.1456 -0.0776  0.0809
 1605TIP3    H126374   3.353   1.069  29.784  0.9825  1.3102 -1.4804
 1605TIP3    H226375   3.219   1.003  29.757  1.6961 -0.9187  0.1072
 1606TIP3   OH226376   1.849   2.236   6.468 -0.2213  0.0582 -0.4564
 1606TIP3    H126377   1.921   2.173   6.470  0.8322  1.2412  0.1480
 1606TIP3    H226378   1.801   2.220   6.550 -0.2439 -0.2626 -0.5305
 1607TIP3   OH226379   0.427   2.970  11.215  0.1363 -0.6877 -0.6389
 1607TIP3    H126380   0.503   2.951  11.160  0.2820 -1.1962 -0.2743
 1607TIP3    H226381   0.388   3.048  11.177  1.3022  0.0569 -0.3416
 1608TIP3   OH226382   0.472   3.362  26.753 -0.3695  0.2571  0.0985
 1608TIP3    H126383   0.406   3.348  26.685 -0.1660 -2.7969  0.3848
 1608TIP3    H226384   0.422   3.363  26.835 -0.1717 -1.6786  0.2841
 1609TIP3   OH226385   1.788   0.838  27.645  0.2690 -0.6877 -0.1800
 1609TIP3    H126386   1.698   0.812  27.664  0.3797 -0.0355  1.4199
 1609TIP3    H226387   1.800   0.818  27.552 -0.1981 -4.6683  0.4410
 1610TIP3   OH226388   1.638   2.622   0.637  0.1138  0.2103 -0.2370
 1610TIP3    H126389   1.631   2.698   0.578  0.7804  0.9029  0.5526
 1610TIP3    H226390   1.645   2.547   0.578  2.7092  1.0355 -1.1140
 1611TIP3   OH226391   2.192   3.462  31.600  0.7238  0.0330  0.4988
 1611TIP3    H126392   2.168   3.387  31.545  1.0096  0.2074  0.1266
 1611TIP3    H226393   2.131   3.459  31.673  1.3989 -1.1954  1.0524
 1612TIP3   OH226394   1.806   1.293  22.986  0.8381  0.0002  0.5043
 1612TIP3    H126395   1.729   1.328  23.031  1.3991  0.6857  0.9533
 1612TIP3    H226396   1.847   1.235  23.049  0.5877 -0.5175  0.1963
 1613TIP3   OH226397   1.462   3.337  32.141  0.3271 -0.3563  0.0708
 1613TIP3    H126398   1.511   3.418  32.156  2.7474 -1.8832  1.0122
 1613TIP3    H226399   1.468   3.322  32.047 -0.7195  0.8441 -0.2240
 1614TIP3   OH226400   3.236   1.730   0.991 -0.6480 -0.0779 -0.3255
 1614TIP3    H126401   3.261   1.754   0.902  0.9073 -0.2967  0.0315
 1614TIP3    H226402   3.142   1.714   0.985 -0.7445  0.7980 -1.7231
 1615TIP3   OH226403   1.263   2.322  25.531  0.4490  0.0155  0.0179
 1615TIP3    H126404   1.356   2.327  25.509  0.3891  1.2101 -0.0372
 1615TIP3    H226405   1.220   2.299  25.448  0.5468  1.1417 -0.3610
 1616TIP3   OH226406   1.475   2.631  11.640 -0.2375 -0.0149 -0.1201
 1616TIP3    H126407   1.521   2.618  11.722 -1.5449  0.9663  0.8032
 1616TIP3    H226408   1.544   2.641  11.575  0.8245 -0.0135  0.9806
 1617TIP3   OH226409   1.458   2.749   1.789 -0.6783 -0.1725 -0.3836
 1617TIP3    H126410   1.414   2.800   1.721  1.3801  1.0239 -0.9227
 1617TIP3    H226411   1.528   2.807   1.821  1.3608 -2.3560 -0.5576
 1618TIP3   OH226412   1.848   2.966  29.178  0.0721  0.1247  0.5347
 1618TIP3    H126413   1.806   3.052  29.189  0.2565  0.0994  1.4916
 1618TIP3    H226414   1.877   2.942  29.266  0.2588 -0.8039  0.2270
 1619TIP3   OH226415   3.241   3.512   0.769  0.0029  0.2156  0.1508
 1619TIP3    H126416   3.167   3.553   0.813 -0.0562 -1.2535  1.5136
 1619TIP3    H226417   3.318   3.540   0.818  0.0621 -0.4081  0.4314
 1620TIP3   OH226418   1.169   0.597   3.229  0.0681 -0.1968  0.0877
 1620TIP3    H126419   1.189   0.618   3.320 -0.7451 -0.9866  0.4621
 1620TIP3    H226420   1.254   0.599   3.185  0.2605  2.0652  0.4355
 1621TIP3   OH226421   2.691   3.419   6.126  0.5155  0.5752  0.1092
 1621TIP3    H126422   2.734   3.472   6.058  0.3713  1.4953  0.7198
 1621TIP3    H226423   2.695   3.329   6.092 -0.7903  1.1658 -1.7610
 1622TIP3   OH226424   1.981   2.522   5.338 -0.3436  0.4843  0.0229
 1622TIP3    H126425   1.991   2.451   5.402 -0.5346 -0.5488 -1.0645
 1622TIP3    H226426   1.887   2.539   5.335 -0.2493  1.1500  0.6570
 1623TIP3   OH226427   0.204   0.118   2.773  0.2122 -0.0798  0.1944
 1623TIP3    H126428   0.227   0.190   2.715  1.5421  1.4781  2.5070
 1623TIP3    H226429   0.108   0.118   2.776  0.1754  0.9201 -0.6196
 1624TIP3   OH226430   2.678   0.568   2.429 -0.5155 -0.2057 -0.1916
 1624TIP3    H126431   2.592   0.533   2.455 -0.2273 -0.2431  0.7366
 1624TIP3    H226432   2.718   0.497   2.379 -1.1783 -0.0407 -0.9865
 1625TIP3   OH226433   1.953   1.291  32.080 -0.1759  0.8853  0.7982
 1625TIP3    H126434   1.857   1.292  32.078 -0.2378 -1.3867 -0.4940
 1625TIP3    H226435   1.980   1.343  32.005 -0.4725 -0.3359 -0.1775
 1626TIP3   OH226436   2.066   1.028  29.580 -0.0132 -0.3068  0.0999
 1626TIP3    H126437   2.155   0.993  29.581 -0.0224 -0.3223  0.7215
 1626TIP3    H226438   2.078   1.123  29.577  0.0118 -0.3364 -1.5502
 1627TIP3   OH226439   2.550   1.091  26.735  0.0672 -0.5627 -0.0666
 1627TIP3    H126440   2.472   1.136  26.702 -0.0698 -0.8824 -0.1897
 1627TIP3    H226441   2.528   1.069  26.825  0.8230  1.1871  0.5790
 1628TIP3   OH226442   1.180   0.531   1.038  0.2827 -0.5109  0.2853
 1628TIP3    H126443   1.102   0.544   0.985 -0.4031 -0.8808  1.1855
 1628TIP3    H226444   1.245   0.591   1.001 -0.8208  0.7511  0.3277
 1629TIP3   OH226445   1.033   2.841  29.488 -0.3021 -0.4058  0.5114
 1629TIP3    H126446   0.992   2.862  29.404 -0.1184 -0.1704  0.4781
 1629TIP3    H226447   1.120   2.809  29.466 -0.0228  0.2359  0.6340
 1630TIP3   OH226448   3.048   3.047   3.051  0.0734  1.1070  0.1185
 1630TIP3    H126449   3.013   3.136   3.058 -2.2003  0.3280 -0.4033
 1630TIP3    H226450   3.110   3.051   2.979  0.4212  2.3714  0.4567
 1631TIP3   OH226451   0.348   2.957   2.522  0.1247  0.1540 -0.2851
 1631TIP3    H126452   0.334   2.892   2.453  0.1747 -1.1995  0.9205
 1631TIP3    H226453   0.270   2.949   2.578  1.5696 -1.2803  1.6960
 1632TIP3   OH226454   2.246   3.211  14.169  0.3447 -0.0710  0.3752
 1632TIP3    H126455   2.246   3.191  14.263 -0.2808 -0.1726  0.3549
 1632TIP3    H226456   2.339   3.216  14.146  0.5090 -0.8821  0.8228
 1633TIP3   OH226457   1.053   1.677  30.680  0.2647 -0.2900 -0.5476
 1633TIP3    H126458   1.122   1.690  30.614  1.0980  0.5798  0.4551
 1633TIP3    H226459   1.097   1.631  30.751  0.5532  2.4381  1.1933
 1634TIP3   OH226460   1.782   1.832   1.353  0.0667 -0.4165 -0.5994
 1634TIP3    H126461   1.836   1.910   1.365 -1.5554  0.5261  1.2567
 1634TIP3    H226462   1.844   1.759   1.350  1.5650  0.8525 -1.4606
 1635TIP3   OH226463   0.425   3.436   6.808 -0.0356 -0.2629 -0.7321
 1635TIP3    H126464   0.344   3.425   6.758 -1.1893  2.1859  0.4343
 1635TIP3    H226465   0.491   3.454   6.741 -1.2047  1.3053 -1.5408
 1636TIP3   OH226466   0.988   3.451  29.877 -0.3827  0.7356  0.3747
 1636TIP3    H126467   1.034   3.482  29.955 -0.1637  2.0403 -0.2508
 1636TIP3    H226468   0.964   3.361  29.898  0.0305  0.9297  1.7881
 1637TIP3   OH226469   0.647   0.162  13.485  0.2536 -0.2672 -0.0385
 1637TIP3    H126470   0.621   0.071  13.469 -1.6517  0.2514 -0.1575
 1637TIP3    H226471   0.589   0.192  13.554 -0.0159  1.2244 -0.8600
 1638TIP3   OH226472   1.160   1.884  32.628  0.5325  0.4276 -0.1941
 1638TIP3    H126473   1.177   1.798  32.591  0.5215  0.1981  0.3239
 1638TIP3    H226474   1.068   1.882  32.652  0.0184  1.2711 -1.9469
 1639TIP3   OH226475   2.708   2.602   2.330 -0.6308 -0.0254  0.3899
 1639TIP3    H126476   2.736   2.687   2.297  0.4407 -0.2285  0.7220
 1639TIP3    H226477   2.613   2.608   2.336 -0.4440  2.0597  2.8161
 1640TIP3   OH226478   0.843   3.229  26.665  0.1753 -0.2149  0.2048
 1640TIP3    H126479   0.938   3.223  26.660  0.2249 -0.3429  1.2375
 1640TIP3    H226480   0.815   3.145  26.701 -0.2100  0.3294  1.2157
 1641TIP3   OH226481   1.333   0.941  29.804 -0.1831  0.0477 -0.3545
 1641TIP3    H126482   1.358   0.862  29.853 -3.6197 -0.1435  1.4065
 1641TIP3    H226483   1.363   1.013  29.859  0.2421 -0.0873 -0.4056
 1642TIP3   OH226484   0.008   0.110  12.040 -0.8958  0.4256 -0.0789
 1642TIP3    H126485  -0.073   0.077  12.000 -0.8730 -0.9318  0.9340
 1642TIP3    H226486   0.019   0.058  12.119 -0.9919  3.1206  1.8319
 1643TIP3   OH226487   2.843   1.853   7.747  0.0350  0.3291 -0.5506
 1643TIP3    H126488   2.769   1.855   7.807  0.0480 -1.9731 -0.3957
 1643TIP3    H226489   2.911   1.905   7.790  1.0112 -3.2734  2.8486
 1644TIP3   OH226490   0.530   2.573  31.417 -0.4502 -1.0138 -0.4762
 1644TIP3    H126491   0.454   2.596  31.363 -1.0757 -1.3993  0.2148
 1644TIP3    H226492   0.604   2.574  31.357 -0.9987 -0.6013 -1.1596
 1645TIP3   OH226493   2.218   2.225  29.642  0.1023 -0.1579  0.5291
 1645TIP3    H126494   2.155   2.176  29.589 -1.3656  0.6326  1.4736
 1645TIP3    H226495   2.283   2.160  29.669 -0.4689 -1.0589 -0.2344
 1646TIP3   OH226496   3.343   1.057  30.448  0.7340 -0.4409 -0.3000
 1646TIP3    H126497   3.318   0.971  30.483  0.1179 -0.6043 -1.1195
 1646TIP3    H226498   3.349   1.043  30.353  0.3703  0.4800 -0.4648
 1647TIP3   OH226499   1.117   2.919  30.187 -0.1081  0.1264  0.4779
 1647TIP3    H126500   1.096   2.938  30.279 -0.3437 -1.4195  0.7791
 1647TIP3    H226501   1.152   2.830  30.189 -2.4353 -0.9376 -1.2199
 1648TIP3   OH226502   2.264   2.178  26.658  0.0836  0.0571  0.1713
 1648TIP3    H126503   2.177   2.205  26.686 -0.1100  0.4594 -0.7535
 1648TIP3    H226504   2.258   2.174  26.562  1.0789  0.1000  0.0931
 1649TIP3   OH226505   3.210   0.841  29.651  0.2822  0.1581  0.3340
 1649TIP3    H126506   3.139   0.779  29.632 -1.3762  2.1264 -0.2984
 1649TIP3    H226507   3.218   0.893  29.571  1.7738  0.6217  0.7597
 1650TIP3   OH226508   3.159   2.472  26.322  0.4446  0.5431  0.1243
 1650TIP3    H126509   3.125   2.399  26.374  0.9685  0.8759  0.9648
 1650TIP3    H226510   3.083   2.509  26.278  0.0544 -0.0071  0.3309
 1651TIP3   OH226511   0.923   2.074   7.157 -0.2539  0.2455  0.3778
 1651TIP3    H126512   0.967   1.995   7.126  1.0561  0.4176  1.7111
 1651TIP3    H226513   0.981   2.109   7.224 -2.1159  0.8568  1.7436
 1652TIP3   OH226514   1.808   2.396  26.243 -0.4357 -0.9402 -0.4032
 1652TIP3    H126515   1.862   2.384  26.165 -0.9309  2.0343 -1.3280
 1652TIP3    H226516   1.720   2.409  26.210 -0.3398  2.5616  0.3288
 1653TIP3   OH226517   3.277   1.096   1.608 -0.4331  0.3324  0.2079
 1653TIP3    H126518   3.197   1.047   1.627  0.3253 -0.7691  0.6644
 1653TIP3    H226519   3.267   1.177   1.657 -1.8922  0.8683 -0.8835
 1654TIP3   OH226520   0.667   1.748  22.399  0.7506  0.0967  0.3286
 1654TIP3    H126521   0.685   1.709  22.313  2.0119 -0.0709  0.6640
 1654TIP3    H226522   0.752   1.775  22.432  0.3276 -0.1755  1.7043
 1655TIP3   OH226523   0.861   0.504  11.160 -0.4236  0.0976 -0.1991
 1655TIP3    H126524   0.928   0.527  11.096  2.0461 -3.5176  0.7423
 1655TIP3    H226525   0.844   0.585  11.208  2.9053  1.3744 -0.9116
 1656TIP3   OH226526   3.169   3.469   1.250 -0.3277 -0.1592 -0.3095
 1656TIP3    H126527   3.210   3.400   1.198 -2.2610 -2.1185  0.5820
 1656TIP3    H226528   3.124   3.422   1.320 -1.3340  2.0818  0.6439
 1657TIP3   OH226529   0.434   0.710   0.745 -0.1511 -0.2958 -0.0597
 1657TIP3    H126530   0.504   0.764   0.709 -2.1881  1.3721 -1.7752
 1657TIP3    H226531   0.454   0.622   0.712  2.0110 -0.2613  0.9412
 1658TIP3   OH226532   1.009   1.400   0.507 -0.2718 -0.0072  0.2451
 1658TIP3    H126533   1.104   1.405   0.520 -0.0261  1.7713 -1.6625
 1658TIP3    H226534   0.992   1.309   0.485  1.1580 -0.1621 -0.3163
 1659TIP3   OH226535   2.235   2.550   2.839  0.1889 -0.1872 -0.7427
 1659TIP3    H126536   2.256   2.515   2.752  2.1877 -0.1899 -0.2961
 1659TIP3    H226537   2.267   2.484   2.900  0.1958  0.5124  0.0282
 1660TIP3   OH226538   2.529   0.430   5.302 -0.1453  0.6952  0.2954
 1660TIP3    H126539   2.619   0.462   5.306 -0.3256  1.4336 -0.8534
 1660TIP3    H226540   2.537   0.336   5.286  0.5030  1.1592 -2.7390
 1661TIP3   OH226541   2.154   3.377  26.361 -0.4703 -0.0789 -0.2615
 1661TIP3    H126542   2.096   3.448  26.332 -0.2628 -0.1227 -0.7973
 1661TIP3    H226543   2.141   3.373  26.456 -0.7783  0.4155 -0.2770
 1662TIP3   OH226544   0.903   0.017  14.962  0.3098  0.0330 -0.7867
 1662TIP3    H126545   0.837   0.024  15.030  0.6996  1.5512 -0.5330
 1662TIP3    H226546   0.984  -0.006  15.009  0.0464 -1.6300 -1.0743
 1663TIP3   OH226547   0.933   1.506  31.059 -0.3431 -0.2119  0.0652
 1663TIP3    H126548   0.850   1.520  31.105 -0.8592 -0.0887 -0.8700
 1663TIP3    H226549   0.992   1.571  31.096  0.0249 -1.7006  2.3119
 1664TIP3   OH226550   2.076   2.354  22.302 -0.1726  0.6480 -0.4849
 1664TIP3    H126551   2.081   2.449  22.304  0.3357  0.6257 -0.6273
 1664TIP3    H226552   2.157   2.326  22.259  1.1417  0.0240  2.1587
 1665TIP3   OH226553   2.562   0.426  14.241 -0.5071 -0.3451  0.7305
 1665TIP3    H126554   2.481   0.406  14.194 -1.9384 -0.3643  3.0535
 1665TIP3    H226555   2.627   0.441  14.172 -2.7853  1.0361 -1.2753
 1666TIP3   OH226556   2.377   1.931  26.597 -0.0723  0.6951 -0.3375
 1666TIP3    H126557   2.329   1.996  26.648 -3.0214 -1.1719 -0.4883
 1666TIP3    H226558   2.369   1.961  26.506  0.1180  0.9986 -0.2580
 1667TIP3   OH226559   2.866   2.889   1.558 -0.0960 -0.6419 -0.3175
 1667TIP3    H126560   2.890   2.797   1.548 -3.0516 -1.5793  0.0160
 1667TIP3    H226561   2.801   2.889   1.628  0.7326  1.9268  0.5721
 1668TIP3   OH226562   3.503   3.425  11.801 -0.2645  0.2318 -0.0359
 1668TIP3    H126563   3.427   3.473  11.835 -0.8575 -0.2852 -0.6082
 1668TIP3    H226564   3.485   3.334  11.824  1.6701  0.3763  2.6302
 1669TIP3   OH226565   0.438   1.595  22.827 -0.8173  0.5514  0.0229
 1669TIP3    H126566   0.504   1.579  22.895 -0.1118 -2.2537 -1.1662
 1669TIP3    H226567   0.355   1.581  22.871 -0.3585 -1.5748  0.3472
 1670TIP3   OH226568   1.558   2.450  31.378 -0.4857 -0.1279  0.3285
 1670TIP3    H126569   1.528   2.366  31.413  0.6924 -0.5861  0.2774
 1670TIP3    H226570   1.488   2.512  31.401  0.5905 -0.1382  4.4905
 1671TIP3   OH226571   1.772   2.084   2.460  0.2231 -0.1092 -0.1087
 1671TIP3    H126572   1.775   2.174   2.427 -0.2183 -0.2427 -0.5269
 1671TIP3    H226573   1.848   2.041   2.420  0.9219  0.2932  0.7596
 1672TIP3   OH226574   2.008   3.432  32.816  0.0980  0.0196 -0.1939
 1672TIP3    H126575   2.065   3.356  32.820 -0.8703 -0.6769  0.8027
 1672TIP3    H226576   2.059   3.503  32.855  1.3984  0.1910 -2.0552
 1673TIP3   OH226577   3.161   2.099  27.590 -0.3785 -0.2091 -0.0364
 1673TIP3    H126578   3.206   2.172  27.547  0.2618 -0.0306  0.9276
 1673TIP3    H226579   3.160   2.030  27.523 -0.7475  0.5703 -0.8611
 1674TIP3   OH226580   1.393   0.199  12.757 -0.2309  0.5273  0.1658
 1674TIP3    H126581   1.327   0.243  12.811 -2.4193 -0.6215 -1.3751
 1674TIP3    H226582   1.342   0.139  12.702  1.8582  1.2428 -2.8256
 1675TIP3   OH226583   2.861   2.071  28.821 -0.2221  0.0782 -0.3020
 1675TIP3    H126584   2.830   1.981  28.829 -0.6414  0.3573  1.9068
 1675TIP3    H226585   2.782   2.124  28.819  0.0255  0.5078  0.6507
 1676TIP3   OH226586   2.227   2.663   3.967 -0.1698 -0.6221 -0.0357
 1676TIP3    H126587   2.277   2.684   3.888 -0.5251 -2.5617 -0.8368
 1676TIP3    H226588   2.144   2.628   3.935 -1.7501  1.6231  1.2639
 1677TIP3   OH226589   1.861   0.735  28.871  0.1503 -0.0473 -0.1520
 1677TIP3    H126590   1.907   0.681  28.935 -0.8467  0.8071  1.3702
 1677TIP3    H226591   1.907   0.721  28.789  2.6311  0.1781  1.1143
 1678TIP3   OH226592   0.729   2.553   5.803  0.0827 -0.6653 -0.2979
 1678TIP3    H126593   0.724   2.648   5.800  1.5628 -0.4713  1.4440
 1678TIP3    H226594   0.748   2.527   5.712 -0.4047  0.6701 -0.8053
 1679TIP3   OH226595   1.707   3.379  32.598 -0.1599  0.5745  0.6798
 1679TIP3    H126596   1.718   3.290  32.566 -0.9019  0.4697  0.6904
 1679TIP3    H226597   1.692   3.370  32.692 -0.5658  0.6779  0.6284
 1680TIP3   OH226598   0.800   1.637  20.921  0.3739 -0.2196 -0.8183
 1680TIP3    H126599   0.856   1.572  20.879 -0.3338 -1.2942 -0.1556
 1680TIP3    H226600   0.775   1.697  20.850 -0.9527 -2.1076 -2.0511
 1681TIP3   OH226601   2.914   3.111  30.215 -0.6950  0.1587 -0.0497
 1681TIP3    H126602   2.886   3.094  30.125  1.1191  0.3932 -0.6993
 1681TIP3    H226603   2.951   3.028  30.244 -1.8536 -0.1064  0.7457
 1682TIP3   OH226604   1.627   1.931  29.421  0.0048 -0.0789  0.0844
 1682TIP3    H126605   1.569   1.893  29.355  1.7192 -0.0369 -1.5311
 1682TIP3    H226606   1.621   2.026  29.407  0.6090 -0.0836 -0.2559
 1683TIP3   OH226607   0.977   1.877   6.082  0.2985  0.2426  0.2850
 1683TIP3    H126608   1.002   1.945   6.145  0.2897 -0.9067  1.5865
 1683TIP3    H226609   0.882   1.867   6.095  0.6216 -1.4308  1.6054
 1684TIP3   OH226610   2.428   1.364  30.795 -0.5992 -0.2820  0.0034
 1684TIP3    H126611   2.434   1.457  30.816 -0.3073 -0.6394  1.6737
 1684TIP3    H226612   2.348   1.335  30.839  0.1851 -1.1349  0.9243
 1685TIP3   OH226613   1.351   1.904  28.229 -0.0421  0.1830  0.2571
 1685TIP3    H126614   1.394   1.904  28.315 -0.3521 -0.0863  0.4158
 1685TIP3    H226615   1.286   1.974  28.235 -0.4801 -0.2318  0.4600
 1686TIP3   OH226616   3.095   2.288   0.476  0.3700  0.5883  0.1657
 1686TIP3    H126617   3.087   2.260   0.567 -0.4372  0.7134  0.1439
 1686TIP3    H226618   3.005   2.287   0.442  0.4363  2.1437 -0.1465
 1687TIP3   OH226619   1.907   0.521  26.457  0.3240 -0.4949 -0.3491
 1687TIP3    H126620   1.888   0.429  26.440  1.8343 -1.0223  0.5612
 1687TIP3    H226621   1.948   0.553  26.377  1.4779 -1.1596 -0.0553
 1688TIP3   OH226622   1.529   0.264  31.133 -0.1149 -0.5338  0.1586
 1688TIP3    H126623   1.593   0.242  31.065  0.3626 -0.7003  0.6503
 1688TIP3    H226624   1.501   0.353  31.112  0.0090 -0.5924 -0.2704
 1689TIP3   OH226625   3.418   1.591  26.902  0.4201  0.1289 -0.4842
 1689TIP3    H126626   3.335   1.562  26.863  0.9416 -1.3613 -0.5364
 1689TIP3    H226627   3.443   1.668  26.851 -0.7038  0.3327 -0.7490
 1690TIP3   OH226628   0.755   0.682   5.395  0.0829 -0.4233 -0.1358
 1690TIP3    H126629   0.782   0.649   5.309  0.4258  2.0778 -1.0677
 1690TIP3    H226630   0.836   0.694   5.443 -0.1193 -1.9531  0.6251
 1691TIP3   OH226631   3.428   3.335   6.394 -0.1532 -0.3720  0.3028
 1691TIP3    H126632   3.432   3.359   6.302  1.8273  0.6227  0.5903
 1691TIP3    H226633   3.481   3.256   6.401 -0.9029 -0.8669  0.4810
 1692TIP3   OH226634   3.072   3.151   6.389  0.8500 -0.3599  0.2871
 1692TIP3    H126635   3.008   3.083   6.365  1.7885 -1.7316  1.5050
 1692TIP3    H226636   3.156   3.114   6.365  1.4721 -0.0846  1.9195
 1693TIP3   OH226637   2.124   3.169   3.081 -1.3878  0.0736  0.4785
 1693TIP3    H126638   2.047   3.111   3.084 -0.2124 -1.7623 -1.6304
 1693TIP3    H226639   2.090   3.252   3.047 -2.6190 -0.3183  0.6816
 1694TIP3   OH226640   3.389   0.249  31.520  0.0804 -0.7905  0.6241
 1694TIP3    H126641   3.426   0.289  31.599  1.0250 -2.4643  1.0834
 1694TIP3    H226642   3.311   0.203  31.550 -1.0082  0.6123  0.0945
 1695TIP3   OH226643   3.366   2.930   6.873  0.0104  0.4779 -0.0248
 1695TIP3    H126644   3.309   3.000   6.840 -1.2476  0.0531  1.1440
 1695TIP3    H226645   3.401   2.965   6.955 -0.5370 -0.1958  0.5079
 1696TIP3   OH226646   2.918   2.534   3.042  0.0045  0.5460 -0.1845
 1696TIP3    H126647   2.956   2.474   2.979 -0.6780  0.3831 -0.4466
 1696TIP3    H226648   2.873   2.600   2.989  0.5880  1.1958  0.1021
 1697TIP3   OH226649   1.427   2.739   3.163  0.1043  0.0469  0.3264
 1697TIP3    H126650   1.424   2.790   3.082 -0.7015 -0.0877  0.2619
 1697TIP3    H226651   1.337   2.741   3.196  0.4720  0.3373  1.3705
 1698TIP3   OH226652   2.444   1.343  32.570  0.4439 -0.4910  0.2586
 1698TIP3    H126653   2.537   1.367  32.565  0.5480 -0.6980  1.0112
 1698TIP3    H226654   2.423   1.310  32.482  1.3183 -1.2596  0.3198
 1699TIP3   OH226655   1.258   3.230  32.565  0.3433  0.3196  0.4090
 1699TIP3    H126656   1.280   3.251  32.474  1.5158  0.6251  0.7439
 1699TIP3    H226657   1.211   3.147  32.560 -0.2000  0.6770 -0.5293
 1700TIP3   OH226658   0.835   0.385   3.589  0.2200 -0.1153  0.0056
 1700TIP3    H126659   0.778   0.443   3.639 -0.8127  0.2596 -1.5461
 1700TIP3    H226660   0.861   0.436   3.512  0.9078 -1.0225 -0.3916
 1701TIP3   OH226661   1.798   3.343   4.994 -0.2433  0.1374  0.0517
 1701TIP3    H126662   1.764   3.302   5.073  1.1144  1.1135  1.2088
 1701TIP3    H226663   1.743   3.421   4.982  0.1843  0.5461  0.6626
 1702TIP3   OH226664   2.846   1.488   4.525 -0.2358  0.0838 -0.3469
 1702TIP3    H126665   2.844   1.393   4.516  2.1313  0.0528 -1.2000
 1702TIP3    H226666   2.848   1.504   4.620 -0.4292 -0.7117 -0.2056
 1703TIP3   OH226667   0.977   2.852  12.512  0.5847 -0.3925 -0.4104
 1703TIP3    H126668   1.036   2.830  12.440 -0.6736 -3.6457 -0.6349
 1703TIP3    H226669   0.947   2.941  12.492  2.3862 -0.1448 -2.3750
 1704TIP3   OH226670   3.520   3.357   2.873  0.2398 -0.1176 -0.2669
 1704TIP3    H126671   3.505   3.451   2.870 -1.4524 -0.3206  0.5218
 1704TIP3    H226672   3.457   3.321   2.811  2.0876 -0.6640 -1.9388
 1705TIP3   OH226673   1.313   1.731   6.546  0.4012 -0.3015  0.0852
 1705TIP3    H126674   1.273   1.673   6.611  1.9589 -1.9795 -0.3889
 1705TIP3    H226675   1.363   1.673   6.489  1.1833  1.4128 -1.0524
 1706TIP3   OH226676   2.179   1.415   3.571  0.0088 -0.2141 -0.5712
 1706TIP3    H126677   2.177   1.429   3.666  0.7079  1.7255 -0.7954
 1706TIP3    H226678   2.231   1.336   3.560 -0.9026 -1.0390  0.6873
 1707TIP3   OH226679   3.082   1.973  30.794 -0.4667  0.4644 -0.3563
 1707TIP3    H126680   3.068   1.880  30.809 -0.0632  0.7846  2.6377
 1707TIP3    H226681   3.177   1.984  30.802 -0.5766  1.2197 -0.0077
 1708TIP3   OH226682   1.622   2.581  11.160 -0.6694  0.1916  0.0137
 1708TIP3    H126683   1.695   2.536  11.202 -2.3082 -0.2698  2.5606
 1708TIP3    H226684   1.629   2.672  11.190 -0.6388  0.3644 -0.5007
 1709TIP3   OH226685   0.655   1.153  30.221 -0.3687 -0.0821  0.2012
 1709TIP3    H126686   0.711   1.088  30.263 -0.4057 -0.2102  0.0534
 1709TIP3    H226687   0.577   1.105  30.196 -0.7090  0.1796  0.7470
 1710TIP3   OH226688   2.875   1.117  32.382 -0.5080  0.5109  0.1388
 1710TIP3    H126689   2.867   1.022  32.384 -1.5514  0.5799 -0.1356
 1710TIP3    H226690   2.895   1.138  32.291 -2.6819  0.6909 -0.3510
 1711TIP3   OH226691   2.251   0.196  13.358  0.0562  0.6367 -0.0964
 1711TIP3    H126692   2.323   0.163  13.412 -1.1626 -2.7211 -0.3235
 1711TIP3    H226693   2.283   0.187  13.268 -0.2552  0.1086 -0.1567
 1712TIP3   OH226694   0.841   2.232  30.589 -0.4937 -0.2122  0.3513
 1712TIP3    H126695   0.819   2.178  30.513  2.1283 -0.6616 -0.2010
 1712TIP3    H226696   0.833   2.173  30.664  0.8487 -0.9751 -0.0781
 1713TIP3   OH226697   3.029   0.447  28.596 -0.0274 -0.0075  0.5036
 1713TIP3    H126698   3.102   0.392  28.624  0.3169 -0.3095 -0.9081
 1713TIP3    H226699   3.049   0.469  28.505 -1.2759  0.6123  0.3574
 1714TIP3   OH226700   2.201   0.589   0.579  0.4308 -0.3431  0.2868
 1714TIP3    H126701   2.115   0.559   0.608 -0.2174  2.0999  1.1173
 1714TIP3    H226702   2.193   0.595   0.484 -0.7026  0.7853  0.4168
 1715TIP3   OH226703   1.180   0.548   2.918  0.1464  1.1720 -0.2324
 1715TIP3    H126704   1.243   0.490   2.961  0.6104  0.1627 -2.1643
 1715TIP3    H226705   1.199   0.634   2.956  2.6396  0.8854 -0.6211
 1716TIP3   OH226706   2.685   2.149   3.665  0.2476 -0.3527 -0.4821
 1716TIP3    H126707   2.616   2.094   3.629  1.2460 -2.8233  1.0623
 1716TIP3    H226708   2.708   2.107   3.748  1.8897  1.8050  0.2636
 1717TIP3   OH226709   1.797   0.140  32.590 -0.2629 -0.2030  0.2100
 1717TIP3    H126710   1.854   0.198  32.640  1.3741 -1.2696 -0.3655
 1717TIP3    H226711   1.711   0.182  32.595  0.3101  0.8581  2.0377
 1718TIP3   OH226712   0.558   2.486  25.878  0.2539  0.1885 -0.2801
 1718TIP3    H126713   0.605   2.410  25.910 -0.8238  0.1600  1.4121
 1718TIP3    H226714   0.626   2.547  25.850  1.3360  0.0744  1.8752
 1719TIP3   OH226715   2.429   0.916   7.231 -0.1308 -0.2173  0.5555
 1719TIP3    H126716   2.450   0.995   7.179 -2.3474  0.7586  1.0451
 1719TIP3    H226717   2.481   0.847   7.190  1.2378  1.3008 -0.4403
 1720TIP3   OH226718   2.647   1.821   7.090 -0.2056 -0.2496  0.3367
 1720TIP3    H126719   2.700   1.840   7.013  1.1084 -0.1672  1.2221
 1720TIP3    H226720   2.692   1.865   7.162 -1.2030 -0.6050  1.2164
 1721TIP3   OH226721   0.933   1.655  30.084  0.2377 -1.0908  0.0158
 1721TIP3    H126722   0.938   1.749  30.100  1.4062 -0.8977 -1.2977
 1721TIP3    H226723   0.840   1.637  30.074  0.1071  0.3296 -1.7950
 1722TIP3   OH226724   2.158   1.313  32.316 -0.0801 -0.0897 -0.4606
 1722TIP3    H126725   2.120   1.334  32.230 -1.1021  0.0743  0.0078
 1722TIP3    H226726   2.091   1.258  32.358 -1.1646  2.4938  1.4933
 1723TIP3   OH226727   1.945   2.593  10.109 -0.2329  0.0249 -0.5341
 1723TIP3    H126728   2.020   2.565  10.161 -1.3208 -1.3354  0.3826
 1723TIP3    H226729   1.906   2.665  10.159 -0.5068 -0.3922 -0.1450
 1724TIP3   OH226730   3.388   0.205   3.751  0.9552 -0.4417  0.3934
 1724TIP3    H126731   3.428   0.120   3.765 -2.0141 -1.9166  0.5826
 1724TIP3    H226732   3.356   0.203   3.661 -0.3852 -0.1192  0.8350
 1725TIP3   OH226733   2.629   3.156  11.763  0.0793  0.1368 -0.1569
 1725TIP3    H126734   2.543   3.182  11.732 -0.1480  0.3090  0.6054
 1725TIP3    H226735   2.653   3.081  11.708 -0.8980 -0.4196  0.1599
 1726TIP3   OH226736   1.503   1.038  30.648  0.2505 -0.4435  0.2097
 1726TIP3    H126737   1.546   1.122  30.659  1.0665 -0.9169  0.7779
 1726TIP3    H226738   1.548   0.996  30.575 -0.2093 -0.3587 -0.1283
 1727TIP3   OH226739   2.822   1.811  27.795 -0.3130 -0.0821 -0.3159
 1727TIP3    H126740   2.856   1.892  27.757  0.4741 -1.2612 -2.2580
 1727TIP3    H226741   2.860   1.808  27.883  2.1036  0.2477 -1.2566
 1728TIP3   OH226742   1.968   1.250  28.752 -0.3512  0.4762  0.6268
 1728TIP3    H126743   1.921   1.287  28.677 -0.5778 -1.7166 -0.3731
 1728TIP3    H226744   2.058   1.242  28.722 -0.5601 -0.9778  0.3232
 1729TIP3   OH226745   1.888   2.145  28.911 -0.1135 -0.4392  0.1515
 1729TIP3    H126746   1.955   2.119  28.974 -0.6855 -1.5346  0.3451
 1729TIP3    H226747   1.922   2.224  28.870  0.9825 -0.6007  0.7181
 1730TIP3   OH226748   1.244   1.898  27.278 -0.3590  0.1375 -0.0457
 1730TIP3    H126749   1.297   1.973  27.305  0.9098 -0.7396 -0.0494
 1730TIP3    H226750   1.235   1.908  27.183  2.3446 -1.2553 -0.5230
 1731TIP3   OH226751   2.265   0.832  29.440  0.4313 -0.2280  0.1242
 1731TIP3    H126752   2.335   0.858  29.379  0.3005  1.4153  0.6342
 1731TIP3    H226753   2.301   0.851  29.527  0.2240 -1.5874  0.5252
 1732TIP3   OH226754   3.053   3.371   0.186  0.7991 -0.0857  0.0959
 1732TIP3    H126755   3.122   3.429   0.153  1.4746 -0.4628  0.8250
 1732TIP3    H226756   2.972   3.409   0.151  1.2355  1.2275  0.4503
 1733TIP3   OH226757   0.588   1.622  23.076  0.0641 -0.1188  0.6788
 1733TIP3    H126758   0.676   1.589  23.058  1.0958  2.3148  0.8586
 1733TIP3    H226759   0.548   1.555  23.131  1.7748 -1.3012  0.5591
 1734TIP3   OH226760   0.395   0.279   6.130 -0.6459 -0.1920  0.6473
 1734TIP3    H126761   0.442   0.334   6.068  0.2363 -2.2074 -0.5496
 1734TIP3    H226762   0.377   0.337   6.204 -0.6016  1.9343 -0.9160
 1735TIP3   OH226763   1.895   1.378   0.124  0.7858 -0.2613 -0.6546
 1735TIP3    H126764   1.871   1.287   0.141  0.8908 -0.2216 -0.2834
 1735TIP3    H226765   1.991   1.376   0.118  0.9226  0.0735  0.9492
 1736TIP3   OH226766   0.261   0.812  30.918 -0.0301 -0.0519  0.0572
 1736TIP3    H126767   0.195   0.840  30.981  1.3572 -0.2506  1.6822
 1736TIP3    H226768   0.318   0.888  30.907  0.8412 -0.6198  0.5512
 1737TIP3   OH226769   1.595   0.301  32.644  0.4957  0.4520  0.0594
 1737TIP3    H126770   1.598   0.351  32.562  0.4950  0.2135 -0.0863
 1737TIP3    H226771   1.501   0.290  32.662  0.4928  1.1861  0.5113
 1738TIP3   OH226772   2.380   1.588  28.239  0.1425 -0.0153  0.0570
 1738TIP3    H126773   2.335   1.648  28.299  1.2188 -0.8370  1.7594
 1738TIP3    H226774   2.333   1.505  28.249 -0.7056  0.2358 -1.5297
 1739TIP3   OH226775   2.360   2.389  32.564 -0.1392 -0.1970  0.1453
 1739TIP3    H126776   2.309   2.343  32.497 -0.3829  0.4785 -0.1494
 1739TIP3    H226777   2.451   2.370  32.542 -0.1833  0.6795 -0.8890
 1740TIP3   OH226778   1.824   2.932  31.226 -0.2645  0.1436  0.2965
 1740TIP3    H126779   1.778   2.892  31.153  1.7110 -0.4487 -0.6959
 1740TIP3    H226780   1.902   2.877  31.239  0.5346  1.4663  1.4386
 1741TIP3   OH226781   0.773   1.780  32.382 -0.3106 -0.5674 -0.2521
 1741TIP3    H126782   0.717   1.706  32.356 -0.3140 -0.4870 -0.4761
 1741TIP3    H226783   0.862   1.746  32.371 -0.3092 -0.4399 -0.6491
 1742TIP3   OH226784   0.483   2.688  27.202 -0.0084 -0.0547 -0.1702
 1742TIP3    H126785   0.480   2.733  27.286 -0.9528  0.5036 -0.4922
 1742TIP3    H226786   0.576   2.672  27.187  0.2794  1.0642  0.3249
 1743TIP3   OH226787   1.587   3.258   5.425  0.0101  0.2507  0.5068
 1743TIP3    H126788   1.602   3.346   5.392 -1.5068  0.4595  0.3148
 1743TIP3    H226789   1.627   3.201   5.360 -2.6797  0.6670 -1.6834
 1744TIP3   OH226790   0.576   3.462   2.068 -0.8804 -0.0440  0.2805
 1744TIP3    H126791   0.599   3.369   2.057  1.8107  0.3634  1.5945
 1744TIP3    H226792   0.493   3.472   2.021 -1.0029 -2.9863 -0.3320
 1745TIP3   OH226793   3.081   3.371   3.682  0.3198  0.3674 -0.2582
 1745TIP3    H126794   3.032   3.430   3.626 -1.5902 -1.7834 -0.9853
 1745TIP3    H226795   3.146   3.331   3.624  1.7670  1.7845  0.2832
 1746TIP3   OH226796   0.804   1.735   2.875 -0.2660  0.4291  0.6670
 1746TIP3    H126797   0.816   1.825   2.903  2.1367 -0.2416  2.0952
 1746TIP3    H226798   0.723   1.707   2.918  0.1678  1.2521  2.0934
 1747TIP3   OH226799   1.465   3.374  11.368  0.0250 -0.3104 -0.3425
 1747TIP3    H126800   1.525   3.355  11.295  0.2130 -1.2303  0.0377
 1747TIP3    H226801   1.389   3.317  11.352 -1.3925  1.7982 -1.5504
 1748TIP3   OH226802   1.392   0.948  27.112  0.0370 -0.8405  0.0190
 1748TIP3    H126803   1.443   0.939  27.031  0.1644  0.8257 -0.1232
 1748TIP3    H226804   1.307   0.980  27.083  0.5097  1.0832  0.5832
 1749TIP3   OH226805   0.537   1.996   0.610  0.2136  0.0280  0.1174
 1749TIP3    H126806   0.540   2.007   0.515  1.1159  1.3153  0.2750
 1749TIP3    H226807   0.551   1.902   0.624  1.8665  0.0732 -0.9621
 1750TIP3   OH226808   1.933   3.520  10.416  0.3185 -0.1958  0.2935
 1750TIP3    H126809   2.028   3.522  10.405  0.4446  0.8042  1.3197
 1750TIP3    H226810   1.913   3.430  10.440  0.6718 -1.0572 -2.3351
 1751TIP3   OH226811   1.932   2.363   6.142 -0.0006  0.6479  0.7427
 1751TIP3    H126812   1.856   2.396   6.093  0.1583  0.2061  0.1912
 1751TIP3    H226813   1.969   2.441   6.182  1.8643  1.6661 -2.5791
 1752TIP3   OH226814   1.233   1.964  29.907  0.1022  0.5744  0.4012
 1752TIP3    H126815   1.239   1.975  29.812  0.1086 -0.6151  0.2572
 1752TIP3    H226816   1.241   1.870  29.921  0.7917  0.7993  1.6351
 1753TIP3   OH226817   1.774   0.590  32.482  0.0952  0.1426 -0.1420
 1753TIP3    H126818   1.852   0.633  32.448 -0.6243  1.5952 -0.0594
 1753TIP3    H226819   1.779   0.602  32.577  0.0768 -0.2959 -0.0848
 1754TIP3   OH226820   0.865   1.576  24.308  0.2501  0.4327 -0.1044
 1754TIP3    H126821   0.786   1.628  24.323  1.5976  2.0522  1.9615
 1754TIP3    H226822   0.840   1.513  24.240 -2.7294  1.0121  0.3200
 1755TIP3   OH226823   1.382   1.124  28.610 -0.3669  0.4278  0.1353
 1755TIP3    H126824   1.412   1.162  28.528 -0.0492 -0.6943 -0.2784
 1755TIP3    H226825   1.289   1.146  28.614 -0.4241  0.3216 -0.6125
 1756TIP3   OH226826   3.251   0.682   4.696  0.5045  0.0242  0.0027
 1756TIP3    H126827   3.234   0.618   4.628 -0.9695  1.3640 -0.9592
 1756TIP3    H226828   3.173   0.738   4.697 -0.0403 -0.5343  3.5140
 1757TIP3   OH226829   2.369   1.898  28.199  0.5103 -0.9156  0.2280
 1757TIP3    H126830   2.295   1.911  28.139  0.5233 -0.9554  0.2022
 1757TIP3    H226831   2.330   1.898  28.286  0.7948  1.7234  0.4189
 1758TIP3   OH226832   0.896   1.948   4.010  0.7084 -0.3343 -0.7156
 1758TIP3    H126833   0.905   1.972   3.918  1.0575 -0.4061 -0.7007
 1758TIP3    H226834   0.955   1.874   4.022  0.5457 -0.4287 -0.4697
 1759TIP3   OH226835   2.592   1.833  22.818 -0.2518 -0.3476  0.5517
 1759TIP3    H126836   2.586   1.928  22.803  1.7855 -0.1123  0.8862
 1759TIP3    H226837   2.516   1.797  22.773 -0.6660  1.3772 -0.2395
 1760TIP3   OH226838   1.528   2.106   1.189 -0.2302  0.4363 -0.2880
 1760TIP3    H126839   1.496   2.117   1.099 -0.2284  0.3162 -0.3037
 1760TIP3    H226840   1.569   2.190   1.210 -1.0348  0.7830 -0.0710
 1761TIP3   OH226841   2.276   0.335  31.970 -0.2486  1.0104 -0.3032
 1761TIP3    H126842   2.295   0.359  32.061  0.9083  2.1924 -0.8247
 1761TIP3    H226843   2.362   0.316  31.932 -0.8529 -0.8939 -0.7906
 1762TIP3   OH226844   2.782   2.567  23.008 -0.2209 -0.1379  0.1475
 1762TIP3    H126845   2.850   2.507  23.038 -1.1524 -1.0950  0.3940
 1762TIP3    H226846   2.706   2.511  22.990 -1.1406  0.9746  0.4644
 1763TIP3   OH226847   0.772   1.870  30.607  0.5184  0.5377 -0.4120
 1763TIP3    H126848   0.789   1.913  30.690  0.6932  1.1531 -0.7552
 1763TIP3    H226849   0.856   1.874  30.560  0.2944  0.6486 -0.8122
 1764TIP3   OH226850   0.238   1.499   6.542 -0.6881 -0.2185 -0.0823
 1764TIP3    H126851   0.191   1.497   6.459 -1.0602 -0.2821  0.1286
 1764TIP3    H226852   0.297   1.423   6.538 -0.9087 -0.3864 -0.1731
 1765TIP3   OH226853   2.382   3.241   0.678 -0.2892 -0.1369 -0.8552
 1765TIP3    H126854   2.297   3.200   0.695 -0.0451  0.1759  1.4200
 1765TIP3    H226855   2.361   3.332   0.657 -0.6036 -0.5332 -2.3987
 1766TIP3   OH226856   0.833   3.246  30.512  0.4885 -0.3076  0.7685
 1766TIP3    H126857   0.745   3.270  30.482 -0.2797  0.8359  3.6292
 1766TIP3    H226858   0.884   3.327  30.499  1.1051 -0.8756 -0.5908
 1767TIP3   OH226859   1.893   1.828  19.074 -0.6350 -0.2845  0.5206
 1767TIP3    H126860   1.893   1.823  18.978  0.1031 -0.4257  0.5231
 1767TIP3    H226861   1.897   1.922  19.093 -1.6371 -0.2147  0.4201
 1768TIP3   OH226862   2.878   1.889  27.375  0.4240 -0.1073  0.4537
 1768TIP3    H126863   2.936   1.834  27.427  0.3828 -0.2312  0.3676
 1768TIP3    H226864   2.926   1.905  27.294  0.4927  0.0957  0.5315
 1769TIP3   OH226865   0.577   0.292  31.419 -1.1512  0.8105  0.3499
 1769TIP3    H126866   0.569   0.257  31.508  0.2472 -0.3958  0.0440
 1769TIP3    H226867   0.620   0.377  31.431  0.7966 -0.1795  0.7380
 1770TIP3   OH226868   0.968   2.317   4.739 -0.1801 -0.2141 -0.2414
 1770TIP3    H126869   1.013   2.348   4.661 -1.1837  1.2241 -0.2859
 1770TIP3    H226870   0.958   2.222   4.725  0.6591 -0.1572 -1.3126
 1771TIP3   OH226871   0.803   1.313   1.748 -0.0271  0.2962  0.0385
 1771TIP3    H126872   0.716   1.292   1.714  0.3540  0.8028 -1.3166
 1771TIP3    H226873   0.831   1.390   1.698  0.7727  0.7956  1.1963
 1772TIP3   OH226874   1.691   1.786   2.141 -0.5298  0.5830  0.4174
 1772TIP3    H126875   1.732   1.751   2.220 -1.0148  2.4920  1.5608
 1772TIP3    H226876   1.598   1.772   2.154 -0.6622  1.4944  0.4948
 1773TIP3   OH226877   3.452   2.183  32.574  0.1498 -0.7920  0.5107
 1773TIP3    H126878   3.394   2.114  32.540 -0.2099 -0.1266 -0.2392
 1773TIP3    H226879   3.540   2.145  32.566 -0.0673 -1.2971  0.4270
 1774TIP3   OH226880   3.191   0.202   5.090  0.4410  0.2600  0.3664
 1774TIP3    H126881   3.102   0.204   5.053  0.6455  0.4646 -0.1340
 1774TIP3    H226882   3.227   0.289   5.069  0.3030  0.6669  1.7262
 1775TIP3   OH226883   0.859   3.284  32.768 -0.1951 -0.4047 -0.2503
 1775TIP3    H126884   0.843   3.348  32.838  0.8279 -0.6372  0.2173
 1775TIP3    H226885   0.881   3.337  32.692  1.2072 -0.1878  0.2773
 1776TIP3   OH226886   1.643   1.538  28.516 -0.3967 -0.4652  0.5605
 1776TIP3    H126887   1.615   1.482  28.589 -1.3442 -1.0476 -0.2219
 1776TIP3    H226888   1.563   1.553  28.466  0.5373 -1.5852 -1.3847
 1777TIP3   OH226889   3.270   0.502  31.450 -0.2993 -0.1286  0.4199
 1777TIP3    H126890   3.221   0.534  31.374  1.2850  1.2973 -0.0625
 1777TIP3    H226891   3.301   0.416  31.425 -0.4208  0.0268 -0.2668
 1778TIP3   OH226892   1.465   1.318   4.221  0.4406 -0.3870  0.6256
 1778TIP3    H126893   1.383   1.270   4.209 -0.0068  0.5071  0.0191
 1778TIP3    H226894   1.489   1.346   4.132  1.0742 -0.0946  0.8852
 1779TIP3   OH226895   0.534   0.807   0.077 -0.2071  0.0777  0.4534
 1779TIP3    H126896   0.552   0.728   0.027 -0.8414 -1.1489  2.0400
 1779TIP3    H226897   0.613   0.859   0.070 -0.1080 -0.2657 -1.3723
 1780TIP3   OH226898   1.833   1.052  29.439 -0.3682  0.6085  0.2207
 1780TIP3    H126899   1.917   1.022  29.474 -1.0047 -1.1963  0.2942
 1780TIP3    H226900   1.823   1.004  29.357 -0.9201  1.5046 -0.2481
 1781TIP3   OH226901   1.923   3.535  27.172  0.2525  0.0054 -0.2853
 1781TIP3    H126902   1.907   3.481  27.095 -0.4817  0.6134 -0.5757
 1781TIP3    H226903   1.846   3.593  27.177  1.3646  1.5722 -0.4588
 1782TIP3   OH226904   0.699   2.168   0.841  0.3808  0.2963  0.1996
 1782TIP3    H126905   0.668   2.158   0.751 -0.3943 -1.1841  0.6193
 1782TIP3    H226906   0.650   2.243   0.875  0.1674  0.4233 -0.3743
 1783TIP3   OH226907   3.548   0.997  32.557 -0.1180 -0.2496  0.2012
 1783TIP3    H126908   3.500   0.934  32.504  0.9625 -1.2011  0.3233
 1783TIP3    H226909   3.621   1.024  32.502  1.5047 -1.8775  1.4472
 1784TIP3   OH226910   2.778   2.700   1.903  0.2735 -0.2162  0.1407
 1784TIP3    H126911   2.845   2.768   1.904 -0.0092  0.0892 -0.8087
 1784TIP3    H226912   2.783   2.663   1.815 -0.3219 -0.6747  0.2952
 1785TIP3   OH226913   1.795   2.710  29.691 -0.0994 -0.1785 -0.2531
 1785TIP3    H126914   1.882   2.751  29.698 -0.1252 -0.3719  2.0883
 1785TIP3    H226915   1.804   2.647  29.620  1.4587  0.3334 -0.5499
 1786TIP3   OH226916   1.143   1.971  22.451  0.0534  0.5960  0.1020
 1786TIP3    H126917   1.180   2.026  22.382  1.4355  3.3005  2.7207
 1786TIP3    H226918   1.214   1.913  22.476  0.0767  0.6779  0.2289
 1787TIP3   OH226919   0.830   0.053  28.811 -0.1261  1.0576  0.2685
 1787TIP3    H126920   0.894   0.103  28.761  1.4899 -0.4956  0.6839
 1787TIP3    H226921   0.764   0.027  28.746  1.2189  0.2060 -0.8055
 1788TIP3   OH226922   2.161   0.557   7.064  0.0515  0.6845  0.0695
 1788TIP3    H126923   2.127   0.545   7.153 -0.4433  2.1354  0.1083
 1788TIP3    H226924   2.256   0.553   7.073  0.0035 -1.4222  0.2789
 1789TIP3   OH226925   2.231   1.657  20.660 -0.2545 -0.0850  0.0441
 1789TIP3    H126926   2.283   1.692  20.733 -0.8487 -0.6871  0.7869
 1789TIP3    H226927   2.274   1.689  20.581  0.2990  0.7413  0.6679
 1790TIP3   OH226928   1.046   2.411   3.835 -0.6573 -0.8483 -0.1889
 1790TIP3    H126929   1.077   2.325   3.806  0.4965 -0.1650 -1.0992
 1790TIP3    H226930   1.038   2.404   3.930  1.7094 -1.2970  0.0359
 1791TIP3   OH226931   2.871   1.520   4.026 -0.3149 -0.2510 -0.2624
 1791TIP3    H126932   2.885   1.440   4.076  0.7626 -0.3917 -0.7540
 1791TIP3    H226933   2.783   1.510   3.990 -0.0258 -1.4416 -0.6985
 1792TIP3   OH226934   0.530   1.121  26.917 -0.2246  0.1773 -0.0648
 1792TIP3    H126935   0.555   1.209  26.890  0.2688  0.1324  0.2354
 1792TIP3    H226936   0.442   1.132  26.954  0.5242  0.8918  1.6616
 1793TIP3   OH226937   1.651   0.455   3.419 -0.3313  0.0083  0.3691
 1793TIP3    H126938   1.743   0.440   3.397 -0.0689  1.0964  0.6608
 1793TIP3    H226939   1.609   0.370   3.406  0.4287 -0.1691 -1.1551
 1794TIP3   OH226940   3.327   2.448  28.592 -0.4677 -0.3453 -0.3992
 1794TIP3    H126941   3.371   2.377  28.639  0.2252 -0.1842 -0.7796
 1794TIP3    H226942   3.250   2.468  28.644 -0.2738 -0.8799  0.1021
 1795TIP3   OH226943   1.895   2.122  21.459 -0.0461  0.1073  0.1251
 1795TIP3    H126944   1.842   2.068  21.400  1.5721 -1.2397 -0.1607
 1795TIP3    H226945   1.854   2.208  21.455 -1.2101 -0.4634 -1.3701
 1796TIP3   OH226946   3.208   0.352   1.948 -0.6374 -0.8741  0.7516
 1796TIP3    H126947   3.129   0.345   1.893 -0.9868  0.1094  1.1044
 1796TIP3    H226948   3.280   0.339   1.887 -1.0283  0.0714  0.0677
 1797TIP3   OH226949   2.208   1.121  31.996  0.4926 -0.2458 -0.4058
 1797TIP3    H126950   2.150   1.081  32.061  0.0938  1.9824  0.7087
 1797TIP3    H226951   2.187   1.214  32.000  0.4653  0.0057 -3.7646
 1798TIP3   OH226952   0.190   1.109   0.358  0.4667 -0.1017  0.3170
 1798TIP3    H126953   0.280   1.128   0.383  0.6189 -2.2608  1.6637
 1798TIP3    H226954   0.186   1.130   0.264  2.1044  0.7935  0.4172
 1799TIP3   OH226955   3.129   3.089  31.484 -0.0681  0.0757 -0.1580
 1799TIP3    H126956   3.191   3.023  31.454 -0.5429 -0.3437 -0.2360
 1799TIP3    H226957   3.096   3.129  31.404 -0.6684 -0.4234 -0.1674
 1800TIP3   OH226958   1.294   2.173  30.044 -0.3226  0.0369 -0.2321
 1800TIP3    H126959   1.390   2.177  30.042 -0.2942 -0.6969 -2.0905
 1800TIP3    H226960   1.274   2.080  30.035 -1.2344  0.0866  1.0053
 1801TIP3   OH226961   2.296   2.791   2.115 -0.4094 -0.0887  0.5292
 1801TIP3    H126962   2.256   2.851   2.178 -1.5126 -1.2715  1.0016
 1801TIP3    H226963   2.351   2.733   2.168 -0.2611 -0.2214  0.2324
 1802TIP3   OH226964   3.083   3.290   4.291 -0.3428 -0.0965 -0.6311
 1802TIP3    H126965   3.037   3.314   4.211 -0.2526  0.9921 -0.3637
 1802TIP3    H226966   3.112   3.373   4.329 -1.1081 -0.5259  0.9677
 1803TIP3   OH226967   2.788   2.857   5.445  0.0234 -0.4777 -0.0600
 1803TIP3    H126968   2.815   2.783   5.500 -0.0096  0.3021  1.0239
 1803TIP3    H226969   2.869   2.891   5.409  0.4482  1.0842  2.1995
 1804TIP3   OH226970   2.175   0.558  27.183 -0.0208  0.2519 -0.5731
 1804TIP3    H126971   2.115   0.548  27.109 -0.5544 -0.8079 -0.0219
 1804TIP3    H226972   2.228   0.634  27.162 -0.9224  0.6233 -1.5258
 1805TIP3   OH226973   1.302   1.156   0.585  0.1225  0.4564 -0.3690
 1805TIP3    H126974   1.324   1.107   0.664 -0.6467 -0.2030 -0.5479
 1805TIP3    H226975   1.292   1.247   0.616 -0.3151  0.1848  0.3271
 1806TIP3   OH226976   0.330   1.069  30.601  0.6828 -0.4113 -0.1524
 1806TIP3    H126977   0.252   1.014  30.601 -0.1274  0.6801 -0.4233
 1806TIP3    H226978   0.302   1.150  30.556  1.1638  1.0696  2.0498
 1807TIP3   OH226979   2.251   3.075  25.948 -0.2312  0.5527 -0.6219
 1807TIP3    H126980   2.298   3.012  25.894  0.2504 -0.1471  0.5727
 1807TIP3    H226981   2.159   3.050  25.939 -0.1601  0.5065 -1.2069
 1808TIP3   OH226982   0.182   2.786  26.048 -0.2965  0.0136  0.2611
 1808TIP3    H126983   0.265   2.756  26.012  0.0785  0.4977  0.6973
 1808TIP3    H226984   0.118   2.720  26.020 -0.1858  0.7760 -1.9462
 1809TIP3   OH226985   3.123   1.431  28.735 -0.1043  0.6804 -0.6657
 1809TIP3    H126986   3.200   1.397  28.780 -0.3587  0.5614 -0.3183
 1809TIP3    H226987   3.100   1.511  28.782  0.1045  0.9867 -1.0794
 1810TIP3   OH226988   0.790   2.614   1.441 -0.0193  0.0556 -0.0544
 1810TIP3    H126989   0.830   2.668   1.373 -1.4137  0.0079 -0.9534
 1810TIP3    H226990   0.697   2.614   1.420 -0.3996 -0.5214  1.4804
 1811TIP3   OH226991   1.833   0.981  26.392 -0.5708  0.3611 -0.0645
 1811TIP3    H126992   1.784   0.971  26.310 -0.6212  0.9712 -0.1125
 1811TIP3    H226993   1.913   0.929  26.379 -0.5433  0.5179 -0.5286
 1812TIP3   OH226994   0.033   2.168   1.060  0.5380  0.3330 -0.1455
 1812TIP3    H126995  -0.031   2.106   1.027  2.3751 -1.8167  0.1364
 1812TIP3    H226996   0.002   2.191   1.148 -0.5432  0.4088 -0.5389
 1813TIP3   OH226997   0.738   2.021   4.380 -0.3447  0.1068 -0.0219
 1813TIP3    H126998   0.651   2.023   4.342  0.2563 -0.1204 -1.4498
 1813TIP3    H226999   0.757   1.927   4.391 -0.3739  0.1620  0.5359
 1814TIP3   OH227000   2.784   3.170  32.549  0.1818 -0.4791  0.0548
 1814TIP3    H127001   2.865   3.157  32.600  1.8436  1.0636 -2.0314
 1814TIP3    H227002   2.764   3.083  32.514  1.4892 -0.7254 -0.1401
 1815TIP3   OH227003   0.205   1.503  31.590 -0.9606 -0.2706  0.3389
 1815TIP3    H127004   0.266   1.559  31.637  0.8637 -0.9925 -1.0655
 1815TIP3    H227005   0.145   1.471  31.657  0.7923 -0.3108  1.9640
 1816TIP3   OH227006   3.308   0.344  26.907  0.1571 -0.3263  0.5900
 1816TIP3    H127007   3.325   0.342  26.813 -0.3270  1.0754  0.4464
 1816TIP3    H227008   3.370   0.408  26.941  0.8465 -1.3833  1.3533
 1817TIP3   OH227009   0.401   2.220  32.066  0.0647 -0.4330 -0.1816
 1817TIP3    H127010   0.414   2.239  31.973 -1.9259 -0.3285 -0.4871
 1817TIP3    H227011   0.387   2.306  32.106 -3.0871 -0.6791 -0.5395
 1818TIP3   OH227012   3.284   2.676   5.787 -0.3787  0.4225  0.4391
 1818TIP3    H127013   3.255   2.760   5.752 -1.8238  2.6911  6.0460
 1818TIP3    H227014   3.379   2.684   5.795 -0.5512  1.7781  1.3372
 1819TIP3   OH227015   2.084   3.500  28.144 -0.2085  0.2612  0.2918
 1819TIP3    H127016   2.077   3.404  28.139  0.8751  0.1734  0.0930
 1819TIP3    H227017   2.093   3.518  28.238  0.9343  0.0356  0.2419
 1820TIP3   OH227018   2.569   1.498   3.345  0.6126 -0.4259  0.0867
 1820TIP3    H127019   2.484   1.526   3.379  0.6950  0.6441 -0.5327
 1820TIP3    H227020   2.631   1.516   3.416  0.9461  2.7460 -0.8541
 1821TIP3   OH227021   1.718   1.159  31.221 -0.3555  0.5225 -0.2369
 1821TIP3    H127022   1.678   1.172  31.307  1.0290 -0.9738  0.6864
 1821TIP3    H227023   1.698   1.239  31.173 -0.1219  1.9435  1.8927
 1822TIP3   OH227024   1.439   0.282  13.089 -0.5666 -0.1337  0.0799
 1822TIP3    H127025   1.377   0.297  13.017  0.0581  0.2694 -0.3777
 1822TIP3    H227026   1.383   0.254  13.162 -1.3380  0.5522 -0.2208
 1823TIP3   OH227027   1.412   0.192   0.034  0.2322 -0.1901  0.3900
 1823TIP3    H127028   1.379   0.105   0.011 -2.2316  0.8657 -0.3861
 1823TIP3    H227029   1.417   0.239  -0.049  1.0493  0.6012  0.8665
 1824TIP3   OH227030   2.921   0.014   0.664 -0.2151 -0.3275 -0.3806
 1824TIP3    H127031   2.966  -0.008   0.583  0.6592 -1.5210  0.3896
 1824TIP3    H227032   2.988   0.052   0.720 -0.8385  0.6121 -0.2533
 1825TIP3   OH227033   1.850   2.260  30.633  0.5484  0.1547 -0.0037
 1825TIP3    H127034   1.880   2.195  30.569  0.0671  1.5768 -1.7657
 1825TIP3    H227035   1.754   2.261  30.623  0.3416 -0.4383  1.6341
 1826TIP3   OH227036   0.309   1.378   3.151 -0.2129  0.8950 -0.0626
 1826TIP3    H127037   0.221   1.415   3.138 -0.2179  1.0917  0.5472
 1826TIP3    H227038   0.303   1.329   3.233  0.6432  2.0918  0.7352
 1827TIP3   OH227039   1.755   0.959   1.646  0.2715 -0.7765  0.1375
 1827TIP3    H127040   1.727   1.008   1.568  1.2284  1.6756  1.2053
 1827TIP3    H227041   1.683   0.971   1.709  1.7370  2.0345  1.4577
 1828TIP3   OH227042   3.004   2.388  23.439  0.7428 -0.0810  0.2640
 1828TIP3    H127043   3.024   2.442  23.362 -1.9274  1.8348  0.7449
 1828TIP3    H227044   2.950   2.317  23.404 -1.7785  1.6333  0.4192
 1829TIP3   OH227045   3.019   2.868  30.230 -0.0288 -0.6069  0.1657
 1829TIP3    H127046   3.113   2.848  30.229  0.4894  1.3900  1.5677
 1829TIP3    H227047   2.990   2.852  30.140  2.4523  2.0378 -1.2839
 1830TIP3   OH227048   1.616   1.362  32.553  0.0139 -0.0205 -0.2375
 1830TIP3    H127049   1.671   1.438  32.537 -0.1998  0.2715  0.3610
 1830TIP3    H227050   1.612   1.355  32.649 -1.5424  0.3716 -0.2502
 1831TIP3   OH227051   2.345   0.608   5.548  0.2163  0.3742  0.3947
 1831TIP3    H127052   2.256   0.573   5.554  0.3663 -0.5989 -1.9975
 1831TIP3    H227053   2.400   0.540   5.585  0.1107  0.1952  0.2237
 1832TIP3   OH227054   2.344   0.375  30.010  0.6149  0.1393 -0.0204
 1832TIP3    H127055   2.271   0.401  30.067  1.0444  1.3131  0.0267
 1832TIP3    H227056   2.393   0.312  30.062 -0.6518 -1.1100 -0.2621
 1833TIP3   OH227057   1.752   2.116   6.226 -0.4752  0.1241 -0.6191
 1833TIP3    H127058   1.804   2.187   6.265  0.2843  0.0772 -1.5318
 1833TIP3    H227059   1.814   2.045   6.213 -1.5450 -1.4750  1.9791
 1834TIP3   OH227060   1.154   2.130   1.310 -0.3183  0.1405  0.2440
 1834TIP3    H127061   1.164   2.224   1.322  0.6017 -0.1868  2.7786
 1834TIP3    H227062   1.137   2.097   1.399 -2.0428 -1.9340 -0.7724
 1835TIP3   OH227063   2.632   0.032   4.840 -0.6939  0.6075  0.4966
 1835TIP3    H127064   2.581  -0.044   4.813  0.9256 -0.3304 -0.0876
 1835TIP3    H227065   2.679   0.059   4.761  1.7232 -0.2284  1.5422
 1836TIP3   OH227066   0.845   3.228   6.163  0.1676  0.3544  0.3367
 1836TIP3    H127067   0.822   3.298   6.101  0.1925 -0.9196 -1.1616
 1836TIP3    H227068   0.940   3.220   6.154 -0.0112 -0.8701 -0.6261
 1837TIP3   OH227069   2.603   1.836   6.629 -0.3412  0.1488  0.4509
 1837TIP3    H127070   2.672   1.791   6.581 -0.8395 -0.3270  0.1685
 1837TIP3    H227071   2.638   1.846   6.718 -0.3139 -1.0036  0.5816
 1838TIP3   OH227072   0.028   0.974   6.362  0.1646  0.6209 -0.0423
 1838TIP3    H127073  -0.066   0.993   6.372  0.2253  1.2333 -0.5916
 1838TIP3    H227074   0.048   0.915   6.435 -0.4846  1.0798  0.5210
 1839TIP3   OH227075   1.988   2.078  30.472  0.2416 -0.4971 -0.8522
 1839TIP3    H127076   2.075   2.084  30.432 -0.1991  0.9280 -1.6810
 1839TIP3    H227077   1.935   2.035  30.405  0.1116 -0.5843 -0.6919
 1840TIP3   OH227078   1.482   1.937   5.405  0.1457  0.7208  0.1597
 1840TIP3    H127079   1.512   1.971   5.489  0.0062 -0.1471  0.5697
 1840TIP3    H227080   1.423   1.864   5.428 -0.4117  0.8933 -0.6710
 1841TIP3   OH227081   1.087   0.449  27.117  0.4420 -0.0185  0.4445
 1841TIP3    H127082   1.122   0.395  27.188 -0.8647 -1.9618 -0.2909
 1841TIP3    H227083   1.163   0.476  27.066  1.1355 -1.3391  0.7536
 1842TIP3   OH227084   2.826   2.111   1.778  0.2401  0.1415 -0.3581
 1842TIP3    H127085   2.905   2.129   1.728  0.1540 -1.9750 -1.3565
 1842TIP3    H227086   2.765   2.075   1.714 -0.0158 -2.2910  1.1244
 1843TIP3   OH227087   1.057   2.527  31.821  0.3815 -0.1418  0.1144
 1843TIP3    H127088   0.987   2.587  31.796  1.3406  0.8788 -0.1780
 1843TIP3    H227089   1.113   2.521  31.743  0.3225 -1.4039  0.1431
 1844TIP3   OH227090   1.767   0.512  30.506 -0.0523 -0.4421 -0.0979
 1844TIP3    H127091   1.695   0.575  30.502  0.1798 -0.2591 -3.0058
 1844TIP3    H227092   1.750   0.451  30.434  2.3089 -0.8323 -0.3965
 1845TIP3   OH227093   2.950   3.518  32.085  0.2628 -0.2795  0.0661
 1845TIP3    H127094   2.998   3.473  32.154 -0.1543 -0.5347  0.1992
 1845TIP3    H227095   2.876   3.559  32.131  0.8486  0.8746  0.0122
 1846TIP3   OH227096   1.363   0.822  30.308 -0.8935  0.2190 -0.7108
 1846TIP3    H127097   1.342   0.889  30.373 -1.1977  0.8372 -1.4336
 1846TIP3    H227098   1.289   0.822  30.248  0.3017  1.1334 -2.2580
 1847TIP3   OH227099   0.393   1.756  27.951  0.0490 -0.1000  0.2182
 1847TIP3    H127100   0.460   1.730  28.015  0.2678 -1.7982 -0.6434
 1847TIP3    H227101   0.440   1.759  27.868 -0.5675  0.5334 -0.1075
 1848TIP3   OH227102   0.007   1.167  31.447  0.2020  0.2483  0.6821
 1848TIP3    H127103  -0.080   1.203  31.430  1.2695  2.3934 -0.6861
 1848TIP3    H227104   0.000   1.129  31.534 -1.7343  1.5880  1.1876
 1849TIP3   OH227105   2.840   1.303  27.737  0.5618  0.0276 -0.3695
 1849TIP3    H127106   2.932   1.309  27.764  1.2620 -0.8947 -2.3337
 1849TIP3    H227107   2.826   1.210  27.720 -1.2178 -0.0829  1.3131
 1850TIP3   OH227108   0.545   0.980   3.167 -0.1730 -0.2229  0.3226
 1850TIP3    H127109   0.615   0.955   3.106 -1.3818  0.9468 -1.6048
 1850TIP3    H227110   0.535   0.903   3.224  0.3711 -1.7406 -1.5310
 1851TIP3   OH227111   3.193   2.017   0.474 -0.2383 -0.2936 -0.9887
 1851TIP3    H127112   3.244   2.013   0.393 -1.0716 -0.5053 -1.5143
 1851TIP3    H227113   3.125   2.082   0.457 -0.5885 -0.5437 -0.5572
 1852TIP3   OH227114   2.834   1.598  29.618  1.2257  0.4669 -0.0178
 1852TIP3    H127115   2.860   1.576  29.529 -2.1662 -0.6971 -0.8734
 1852TIP3    H227116   2.851   1.519  29.669 -0.3364 -0.2555 -0.5509
 1853TIP3   OH227117   2.579   2.587  10.257  0.1090  0.0095  0.1840
 1853TIP3    H127118   2.517   2.518  10.233 -1.2766  0.5381  2.0288
 1853TIP3    H227119   2.539   2.630  10.333  0.5703  3.3223 -1.2994
 1854TIP3   OH227120   0.223   1.157  26.939  0.1054 -0.3287  0.4261
 1854TIP3    H127121   0.149   1.118  26.985  0.2029  0.7671  1.5884
 1854TIP3    H227122   0.206   1.252  26.941  2.4174  0.1633  2.4719
 1855TIP3   OH227123   1.344   0.080   6.644 -0.4633  0.0189  0.1458
 1855TIP3    H127124   1.417   0.141   6.659 -0.3882  0.1231 -0.6085
 1855TIP3    H227125   1.325   0.044   6.731 -1.9680  2.7416  1.0600
 1856TIP3   OH227126   1.331   1.662   4.072  0.0805 -0.6984 -0.6016
 1856TIP3    H127127   1.426   1.677   4.066  0.5297 -3.3936 -2.7844
 1856TIP3    H227128   1.317   1.633   4.162  1.5136 -1.0367 -0.4539
 1857TIP3   OH227129   0.332   0.568   6.978  0.1645  0.3829  0.3997
 1857TIP3    H127130   0.241   0.599   6.974  0.9092  2.6147 -2.0346
 1857TIP3    H227131   0.363   0.596   7.064 -1.3132 -0.0412  1.0995
 1858TIP3   OH227132   1.853   3.461  12.501  0.1371  0.2416 -0.5414
 1858TIP3    H127133   1.940   3.421  12.505 -0.1992 -0.8431 -2.5571
 1858TIP3    H227134   1.868   3.545  12.456  0.2698  0.5313  0.0338
 1859TIP3   OH227135   2.446   1.409  21.147  0.1442  0.7365 -0.7876
 1859TIP3    H127136   2.398   1.442  21.223  1.5138 -0.4014  0.6361
 1859TIP3    H227137   2.515   1.354  21.184  2.1230  1.7385 -2.7564
 1860TIP3   OH227138   1.567   3.161   3.894 -0.2971 -0.5889 -0.3875
 1860TIP3    H127139   1.557   3.194   3.805  0.1221 -1.2671 -0.6964
 1860TIP3    H227140   1.658   3.179   3.916  0.0544 -1.8351 -0.7074
 1861TIP3   OH227141   2.308   3.404   4.971 -0.1650 -0.4991  0.5014
 1861TIP3    H127142   2.344   3.335   4.917 -1.5501 -1.2031  0.4391
 1861TIP3    H227143   2.238   3.443   4.918 -0.7365 -0.4054  1.2994
 1862TIP3   OH227144   1.501   2.756   6.825  0.6257  0.0416 -0.9087
 1862TIP3    H127145   1.505   2.838   6.777  0.6831  0.3713 -0.3428
 1862TIP3    H227146   1.489   2.781   6.916  2.1039 -0.5184 -0.5150
 1863TIP3   OH227147   2.524   2.631   6.913 -0.2268  0.1606  0.1881
 1863TIP3    H127148   2.475   2.675   6.983 -1.2955  0.7673 -0.8966
 1863TIP3    H227149   2.571   2.701   6.869 -0.4600 -0.0472 -0.3977
 1864TIP3   OH227150   3.426   0.299  26.660  0.2467 -0.2441  0.2295
 1864TIP3    H127151   3.500   0.314  26.602  0.1610 -0.6094  0.0214
 1864TIP3    H227152   3.394   0.212  26.636  0.5335 -0.6167  1.1692
 1865TIP3   OH227153   0.651   2.096  31.016 -0.3303  0.0267 -0.1416
 1865TIP3    H127154   0.632   2.029  31.081  1.1839  0.4417  0.7795
 1865TIP3    H227155   0.629   2.179  31.060  1.3682  0.3594  0.1608
 1866TIP3   OH227156   2.106   0.460   5.566 -0.6013 -0.2978  0.0663
 1866TIP3    H127157   2.109   0.379   5.515 -1.3476  0.1041 -0.6407
 1866TIP3    H227158   2.102   0.431   5.657  2.2952 -1.0238  0.0635
 1867TIP3   OH227159   0.379   1.950  18.262  0.1833  0.0636  0.3130
 1867TIP3    H127160   0.453   1.890  18.253  0.1170 -0.0766  0.6886
 1867TIP3    H227161   0.361   1.952  18.356 -0.2072  0.1982  0.2360
 1868TIP3   OH227162   1.137   3.297   4.876 -0.1317  0.0221 -0.2720
 1868TIP3    H127163   1.059   3.316   4.825  0.1881  0.2137 -0.6911
 1868TIP3    H227164   1.191   3.242   4.820 -1.1515 -2.4463  1.0134
 1869TIP3   OH227165   2.884   1.313   4.960  0.8600 -0.8869  0.5252
 1869TIP3    H127166   2.861   1.253   4.889  2.5750 -0.6406 -0.2883
 1869TIP3    H227167   2.894   1.256   5.037  1.9196 -1.6057 -0.1143
 1870TIP3   OH227168   0.173   0.030  27.157 -0.0081  0.0673 -0.3353
 1870TIP3    H127169   0.136  -0.045  27.204  0.6050  0.2716  0.4857
 1870TIP3    H227170   0.237   0.067  27.217 -1.5479  2.3384  0.0423
 1871TIP3   OH227171   2.650   2.282   4.819 -0.3015 -0.3002  0.0933
 1871TIP3    H127172   2.714   2.234   4.871  2.1145 -1.0367 -3.1703
 1871TIP3    H227173   2.605   2.215   4.768 -0.6833  0.5150 -0.6775
 1872TIP3   OH227174   2.379   2.117   3.999  0.6228 -0.5851  0.5674
 1872TIP3    H127175   2.286   2.122   4.022  0.3781  1.9680 -0.6066
 1872TIP3    H227176   2.381   2.062   3.920 -0.0275  0.0215  0.1153
 1873TIP3   OH227177   2.680   1.312  31.207 -0.0527  0.9151 -0.1134
 1873TIP3    H127178   2.586   1.304  31.192 -0.0096  1.5045 -0.7213
 1873TIP3    H227179   2.719   1.245  31.151 -0.2068 -0.9756  1.8770
 1874TIP3   OH227180   1.718   2.661  28.211 -0.2758  0.1076 -0.2449
 1874TIP3    H127181   1.714   2.720  28.286  0.0930  1.0017 -0.9215
 1874TIP3    H227182   1.797   2.687  28.163 -1.7884  1.2288 -2.2985
 1875TIP3   OH227183   3.384   0.609  28.686 -0.1041  0.1565 -0.0475
 1875TIP3    H127184   3.318   0.645  28.745  0.1841  0.3949  0.1362
 1875TIP3    H227185   3.458   0.587  28.743 -0.3760 -1.0023 -0.1124
 1876TIP3   OH227186   1.713   3.452  29.394  0.5380 -0.5502  0.4103
 1876TIP3    H127187   1.714   3.459  29.298 -0.7034  0.5071  0.4531
 1876TIP3    H227188   1.758   3.531  29.424 -0.0892 -0.3050  0.7107
 1877TIP3   OH227189   1.739   2.098  13.996  0.3446 -0.2078  0.3868
 1877TIP3    H127190   1.742   2.055  13.910 -0.3903  0.3294  0.0878
 1877TIP3    H227191   1.805   2.051  14.048 -0.1277 -1.4076 -0.0603
 1878TIP3   OH227192   2.188   3.058  29.681  0.8013 -0.1331  0.6636
 1878TIP3    H127193   2.183   3.153  29.681  0.4996 -0.1412  1.3736
 1878TIP3    H227194   2.263   3.038  29.626 -0.1856  0.4369 -0.9520
 1879TIP3   OH227195   1.066   1.501   6.329 -0.3656  0.1857  0.3825
 1879TIP3    H127196   1.052   1.590   6.298  1.9086  0.9912  1.4372
 1879TIP3    H227197   1.078   1.510   6.424 -0.4516 -1.2957  0.5636
 1880TIP3   OH227198   1.473   1.776   3.778 -0.3753 -0.2199 -0.2791
 1880TIP3    H127199   1.528   1.736   3.711 -1.2579 -0.4775 -0.8691
 1880TIP3    H227200   1.515   1.753   3.861 -0.0238 -1.0648 -0.6805
 1881TIP3   OH227201   3.219   1.772  32.207 -0.2318 -0.7232 -0.3065
 1881TIP3    H127202   3.186   1.845  32.153 -0.4618 -1.6943 -1.5304
 1881TIP3    H227203   3.143   1.716  32.221  0.0696 -1.0312  0.1175
 1882TIP3   OH227204   2.081   2.296  31.571  0.4696 -0.5096  0.0520
 1882TIP3    H127205   2.086   2.294  31.475  1.7427 -0.6083  0.0956
 1882TIP3    H227206   2.155   2.241  31.599  0.5037  0.0524  1.0888
 1883TIP3   OH227207   0.850   2.090  32.008 -0.3594  0.1112 -0.1546
 1883TIP3    H127208   0.800   2.042  31.942  0.1697 -0.5248 -0.1109
 1883TIP3    H227209   0.931   2.040  32.017  0.1318  0.9153  0.0384
 1884TIP3   OH227210   2.607   0.196  28.599  0.2539  0.0141 -0.1780
 1884TIP3    H127211   2.622   0.225  28.509  1.2548 -2.9129 -1.0878
 1884TIP3    H227212   2.527   0.144  28.594 -0.3279  0.7740  0.9108
 1885TIP3   OH227213   3.281   2.647  32.728 -0.1974  0.4962  0.5213
 1885TIP3    H127214   3.337   2.614  32.798  1.0475 -1.3058 -1.2319
 1885TIP3    H227215   3.339   2.698  32.671 -0.2434 -1.3183 -1.2754
 1886TIP3   OH227216   2.638   2.384  29.928 -0.3734  0.2773  0.3018
 1886TIP3    H127217   2.634   2.406  30.021 -0.0314 -0.1117  0.4095
 1886TIP3    H227218   2.666   2.466  29.886  0.5892  0.1535  0.6701
 1887TIP3   OH227219   0.086   0.160   4.212 -0.2105 -0.7169 -0.2578
 1887TIP3    H127220   0.026   0.229   4.239 -0.9372 -1.0873 -0.8949
 1887TIP3    H227221   0.134   0.139   4.292 -0.3306  0.1702  0.0615
 1888TIP3   OH227222   0.773   0.929   6.577 -0.1087  0.0022 -0.6110
 1888TIP3    H127223   0.694   0.945   6.628  0.5768  2.2062 -0.1285
 1888TIP3    H227224   0.767   0.989   6.503  0.2044 -1.2297 -1.6706
 1889TIP3   OH227225   1.549   3.121   9.753 -0.0686  0.1834  0.3708
 1889TIP3    H127226   1.623   3.098   9.809 -1.5561 -0.4168  2.1866
 1889TIP3    H227227   1.552   3.056   9.682 -0.2695 -1.4225  1.7766
 1890TIP3   OH227228   3.532   1.073   4.034 -0.2991  0.2959  0.1509
 1890TIP3    H127229   3.531   0.978   4.019 -0.3765  0.4072 -0.5831
 1890TIP3    H227230   3.441   1.100   4.021 -0.3402  0.4227  0.6962
 1891TIP3   OH227231   1.673   1.384   1.441  0.1561 -0.0221  0.3995
 1891TIP3    H127232   1.608   1.406   1.508 -0.7654 -0.1964 -0.4024
 1891TIP3    H227233   1.753   1.427   1.470 -0.4894  0.7685  1.0848
 1892TIP3   OH227234   1.307   3.516   1.686  0.7924  0.2304  0.4061
 1892TIP3    H127235   1.275   3.443   1.739  0.0465 -1.3072 -1.9849
 1892TIP3    H227236   1.236   3.580   1.689  0.2045 -0.4004  0.2479
 1893TIP3   OH227237   3.423   3.173  32.224  0.5474  0.2389  0.5588
 1893TIP3    H127238   3.447   3.130  32.142 -3.8677  0.6880 -1.2418
 1893TIP3    H227239   3.400   3.101  32.282  0.5073  0.0092  0.2631
 1894TIP3   OH227240   1.555   2.219   2.052  0.2538  0.0723 -0.4788
 1894TIP3    H127241   1.581   2.269   1.975  1.8451  1.2049  0.7261
 1894TIP3    H227242   1.586   2.270   2.126 -0.3473 -1.4623  0.9119
 1895TIP3   OH227243   2.506   2.059   4.691 -0.6704 -0.0527 -0.0600
 1895TIP3    H127244   2.567   1.994   4.725 -1.3789 -0.9318 -0.4314
 1895TIP3    H227245   2.515   2.054   4.596 -0.0465  1.0807 -0.0817
 1896TIP3   OH227246   2.034   1.296   5.759 -0.0732 -0.8494 -0.0780
 1896TIP3    H127247   2.019   1.216   5.709 -1.5262  0.1649 -1.3554
 1896TIP3    H227248   1.950   1.313   5.802 -0.6870  1.3968 -1.9933
 1897TIP3   OH227249   2.915   1.548   1.179 -0.2380  0.1369  0.4956
 1897TIP3    H127250   2.928   1.550   1.085 -0.0470  2.2080  0.5185
 1897TIP3    H227251   2.995   1.584   1.216 -0.7211  0.3458  1.3858
 1898TIP3   OH227252   1.402   1.877   1.270  0.4599 -0.3275  0.1391
 1898TIP3    H127253   1.452   1.958   1.258  0.2437  0.0188  1.4187
 1898TIP3    H227254   1.313   1.901   1.244  0.5117 -0.3231 -0.0377
 1899TIP3   OH227255   1.007   0.887  28.833 -0.0848 -0.1812 -0.1459
 1899TIP3    H127256   0.946   0.889  28.906  0.8352  0.4816  0.6267
 1899TIP3    H227257   0.956   0.852  28.760 -1.3804  0.3538  0.4715
 1900TIP3   OH227258   3.394   2.720   0.065 -0.1072 -0.3306  0.2732
 1900TIP3    H127259   3.300   2.742   0.062 -0.1772 -0.5690  0.6571
 1900TIP3    H227260   3.438   2.802   0.044 -0.3930 -0.1038  0.5414
 1901TIP3   OH227261   3.122   3.394  29.159 -0.3514  0.0293 -0.1432
 1901TIP3    H127262   3.120   3.459  29.229 -0.3089  0.8420 -0.8723
 1901TIP3    H227263   3.216   3.375  29.147 -0.3938 -0.5561  0.4105
 1902TIP3   OH227264   0.016   3.063  31.986  0.5218 -0.0219 -0.2945
 1902TIP3    H127265   0.093   3.071  31.929  2.2071 -0.6896  1.7392
 1902TIP3    H227266  -0.011   2.971  31.977 -0.3759  0.3167 -1.3388
 1903TIP3   OH227267   2.026   1.773   5.073  0.2627 -0.0636  0.0743
 1903TIP3    H127268   1.955   1.809   5.127  0.4556  1.2924 -0.5222
 1903TIP3    H227269   1.992   1.778   4.983 -0.0732 -2.3321  0.0284
 1904TIP3   OH227270   1.704   0.719   1.288  0.3328  0.3819  0.0360
 1904TIP3    H127271   1.684   0.625   1.290  2.0335 -0.0646 -1.3917
 1904TIP3    H227272   1.714   0.743   1.380 -2.0022 -0.3526  0.5594
 1905TIP3   OH227273   1.850   0.586  26.006 -0.1578 -0.0932  0.5680
 1905TIP3    H127274   1.895   0.501  25.999  0.5568  0.2801  0.5309
 1905TIP3    H227275   1.764   0.570  25.967  0.9213 -0.1177 -1.9916
 1906TIP3   OH227276   2.160   0.614  31.441  0.0665  0.7789 -0.1897
 1906TIP3    H127277   2.098   0.544  31.460  0.4120  0.5111 -0.0342
 1906TIP3    H227278   2.134   0.686  31.498 -0.2217  0.7382 -0.2693
 1907TIP3   OH227279   1.468   1.806  29.087  0.0136  0.8936 -0.6027
 1907TIP3    H127280   1.475   1.727  29.141 -0.3996  1.0754 -0.2789
 1907TIP3    H227281   1.559   1.832  29.071  0.1577  1.2152  0.5826
 1908TIP3   OH227282   2.720   3.029   0.127  0.0473  0.0224  0.4584
 1908TIP3    H127283   2.810   3.059   0.126  0.1978  0.1711  4.0238
 1908TIP3    H227284   2.727   2.934   0.119  0.6185 -0.0281  1.3876
 1909TIP3   OH227285   2.412   2.919   6.111  0.1259  0.5754 -0.6171
 1909TIP3    H127286   2.461   2.837   6.113  0.5555  0.7673 -2.2503
 1909TIP3    H227287   2.480   2.987   6.116 -0.2286  0.8602  0.7705
 1910TIP3   OH227288   0.479   2.901  30.438 -0.3919  0.2411  0.1505
 1910TIP3    H127289   0.424   2.924  30.512  0.9097  1.4779  0.7745
 1910TIP3    H227290   0.421   2.852  30.379 -1.7389  0.2215  1.4408
 1911TIP3   OH227291   0.467   3.125   1.010  0.0698 -0.2267  0.4557
 1911TIP3    H127292   0.513   3.199   0.971  0.0329 -0.7376 -0.5791
 1911TIP3    H227293   0.467   3.058   0.942 -3.1321  0.1135 -0.0256
 1912TIP3   OH227294   2.098   1.006   4.192  0.3424 -0.0750  0.1432
 1912TIP3    H127295   2.131   0.975   4.277 -0.3134  1.8913  1.1842
 1912TIP3    H227296   2.003   1.007   4.202  0.2781  0.5521 -0.4715
 1913TIP3   OH227297   1.153   1.157  27.320  0.0385  0.1516 -0.3466
 1913TIP3    H127298   1.192   1.102  27.388  0.2113 -0.3748 -0.8648
 1913TIP3    H227299   1.227   1.187  27.268 -0.0595  0.8664 -0.0768
 1914TIP3   OH227300   0.435   2.322   1.769  0.1391 -0.1758 -0.1253
 1914TIP3    H127301   0.413   2.288   1.856 -1.6896 -1.3244 -0.9687
 1914TIP3    H227302   0.461   2.244   1.719 -1.8659 -0.0793 -1.4410
 1915TIP3   OH227303   2.565   0.632   4.317 -0.2564 -0.1983 -0.5195
 1915TIP3    H127304   2.614   0.550   4.313 -1.8627 -1.2116 -0.6155
 1915TIP3    H227305   2.485   0.614   4.268 -1.8315  0.5578  1.5969
 1916TIP3   OH227306   2.067   0.791  26.658 -0.4266 -0.2927  0.5729
 1916TIP3    H127307   1.990   0.740  26.682 -0.1166 -0.4692  1.2371
 1916TIP3    H227308   2.141   0.741  26.693  0.0325 -0.3616 -0.4493
 1917TIP3   OH227309   0.165   1.760   6.201 -0.1254 -0.2981 -0.1691
 1917TIP3    H127310   0.114   1.685   6.233 -0.7435  0.2048  0.0544
 1917TIP3    H227311   0.099   1.822   6.169  0.4577 -0.8386 -2.6150
 1918TIP3   OH227312   1.311   0.313  11.465 -0.7229  0.1296 -0.0139
 1918TIP3    H127313   1.265   0.304  11.548 -1.6451 -0.7611 -0.5925
 1918TIP3    H227314   1.250   0.361  11.409 -1.5292 -2.0759 -1.1609
 1919TIP3   OH227315   0.998   3.530  11.978  0.0868 -0.1356  0.0368
 1919TIP3    H127316   1.056   3.606  11.973 -0.5165  0.2724 -0.9948
 1919TIP3    H227317   0.922   3.560  12.026 -0.2360 -0.0165 -0.5346
 1920TIP3   OH227318   2.139   0.039   1.275  0.1100  0.4334  0.1189
 1920TIP3    H127319   2.171   0.097   1.206  1.6757 -2.4191 -1.8174
 1920TIP3    H227320   2.217   0.017   1.326 -0.4470  0.1399  0.8600
 1921TIP3   OH227321   1.465   1.590  29.536 -0.2145  0.1400  0.3068
 1921TIP3    H127322   1.425   1.668  29.498  1.3366  0.7593 -0.1453
 1921TIP3    H227323   1.518   1.623  29.608  0.2653 -0.5181  0.2685
 1922TIP3   OH227324   3.003   2.103   3.074  0.1587  0.0787 -0.0277
 1922TIP3    H127325   3.008   2.090   2.980 -1.1139  0.8530 -0.2213
 1922TIP3    H227326   2.986   2.015   3.109 -0.0394 -0.1032 -0.5738
 1923TIP3   OH227327   2.496   2.674   4.045  0.6264 -0.7303  0.6616
 1923TIP3    H127328   2.401   2.680   4.035  0.4398 -1.8009  1.5498
 1923TIP3    H227329   2.516   2.581   4.032  1.6025 -0.4593  0.1395
 1924TIP3   OH227330   1.645   0.049  10.346 -0.3006 -0.1262  0.2823
 1924TIP3    H127331   1.706   0.082  10.412 -0.3429 -0.1398  0.3287
 1924TIP3    H227332   1.559   0.076  10.378 -0.3118 -0.0232  0.1686
 1925TIP3   OH227333   0.144   2.697  14.397 -0.0821  0.0714 -0.0863
 1925TIP3    H127334   0.054   2.729  14.408 -0.9285 -2.0104 -0.5280
 1925TIP3    H227335   0.169   2.666  14.484 -0.1633 -0.2833 -0.1911
 1926TIP3   OH227336   0.098   2.885  28.643  0.0003  0.5724 -0.0340
 1926TIP3    H127337   0.088   2.958  28.581 -0.3131  0.8214  0.3046
 1926TIP3    H227338   0.162   2.917  28.706 -2.0346  1.6274  1.6352
 1927TIP3   OH227339   0.493   1.285   2.967  0.1464 -0.2975  0.3140
 1927TIP3    H127340   0.509   1.197   2.933 -0.6162  0.4056 -2.0979
 1927TIP3    H227341   0.422   1.274   3.030 -1.6274 -1.1913 -1.7119
 1928TIP3   OH227342   1.830   2.674  12.697  0.7414  0.2241  0.2092
 1928TIP3    H127343   1.887   2.685  12.773  0.6267 -2.8791  0.8682
 1928TIP3    H227344   1.742   2.683  12.732  0.5981  4.8862 -0.7854
 1929TIP3   OH227345   2.467   3.097   0.067 -0.0604 -0.5173  0.1191
 1929TIP3    H127346   2.519   3.123   0.143 -0.6480 -0.4761  0.5140
 1929TIP3    H227347   2.532   3.077  -0.001  0.5137 -1.3013  0.8656
 1930TIP3   OH227348   1.022   3.357  29.473 -0.4675 -0.2286 -0.0069
 1930TIP3    H127349   1.036   3.274  29.520  0.1963 -0.5458 -0.7302
 1930TIP3    H227350   0.942   3.342  29.423 -2.1015  0.6842  2.2068
 1931TIP3   OH227351   3.418   0.393  26.351 -0.1120  0.4678  0.3747
 1931TIP3    H127352   3.442   0.322  26.292  1.6728  2.3838 -1.3886
 1931TIP3    H227353   3.451   0.364  26.437 -0.8771 -1.4752  0.0669
 1932TIP3   OH227354   2.278   2.166  27.931 -0.4751 -0.0204 -0.3292
 1932TIP3    H127355   2.226   2.243  27.910 -1.0003 -0.4780 -0.7428
 1932TIP3    H227356   2.306   2.179  28.021  0.1331  1.0357 -0.6554
 1933TIP3   OH227357   1.505   0.893   8.017 -0.2664  0.1870  0.1915
 1933TIP3    H127358   1.428   0.877   7.962 -1.2792  1.2308  1.2380
 1933TIP3    H227359   1.497   0.985   8.043  1.9869  0.6645 -0.6108
 1934TIP3   OH227360   1.994   1.488  30.466  0.0452  0.5305  0.4968
 1934TIP3    H127361   1.906   1.452  30.459  0.2604  0.0750  0.1306
 1934TIP3    H227362   1.981   1.576  30.501 -0.6685  1.0147 -0.9208
 1935TIP3   OH227363   1.210   1.940   0.769  0.1469  0.4850  0.0178
 1935TIP3    H127364   1.181   1.944   0.678 -0.0343  0.2055  0.0629
 1935TIP3    H227365   1.132   1.915   0.818 -0.0621  1.8318  0.4054
 1936TIP3   OH227366   0.881   1.243  28.995  0.0913 -0.1936 -0.1461
 1936TIP3    H127367   0.939   1.201  29.059 -1.2649 -1.0278  0.5904
 1936TIP3    H227368   0.829   1.172  28.959  0.5380  0.3310 -1.9154
 1937TIP3   OH227369   0.429   1.374  29.500  0.2225 -0.3626  0.4748
 1937TIP3    H127370   0.490   1.353  29.429  1.0968  0.5421  0.9270
 1937TIP3    H227371   0.467   1.331  29.577 -2.8008 -4.9082 -0.1604
 1938TIP3   OH227372   1.737   2.326   3.511 -0.6791  0.3505  0.2682
 1938TIP3    H127373   1.767   2.279   3.433 -2.7093  0.6707 -0.7847
 1938TIP3    H227374   1.656   2.368   3.483 -1.4435  0.5266  2.5515
 1939TIP3   OH227375   1.337   3.535  13.185  0.2927 -0.0335  0.1770
 1939TIP3    H127376   1.319   3.602  13.250  1.2297  2.3321 -1.8256
 1939TIP3    H227377   1.418   3.494  13.215 -0.1070 -0.0758  1.2529
 1940TIP3   OH227378   1.776   0.306  31.926  0.7769 -0.1345  0.4193
 1940TIP3    H127379   1.776   0.312  31.831 -0.0784  1.7475  0.4849
 1940TIP3    H227380   1.684   0.297  31.949  0.8803  0.4444  1.0922
 1941TIP3   OH227381   1.459   1.249   3.955  0.2749 -0.1030  0.2981
 1941TIP3    H127382   1.405   1.309   3.903 -0.8319 -2.7169 -1.7749
 1941TIP3    H227383   1.549   1.268   3.927 -0.1044  0.2394 -0.7538
 1942TIP3   OH227384   2.044   2.485   5.773 -0.0127 -0.4259  0.1420
 1942TIP3    H127385   2.014   2.423   5.707  0.8823 -0.0281 -0.6742
 1942TIP3    H227386   2.006   2.569   5.745  0.2455 -0.2853  0.2117
 1943TIP3   OH227387   0.447   0.407   1.122 -0.0466 -0.4477  0.0764
 1943TIP3    H127388   0.472   0.435   1.034  1.0874  0.6685  0.7228
 1943TIP3    H227389   0.407   0.321   1.109  0.4514 -0.4774 -1.4867
 1944TIP3   OH227390   0.051   0.423   4.338  0.1006  0.1865  0.0080
 1944TIP3    H127391   0.089   0.415   4.426  1.8135  0.0089 -0.7182
 1944TIP3    H227392   0.050   0.517   4.321  1.8795  0.1039 -0.6508
 1945TIP3   OH227393   0.506   2.664  26.846 -0.3476  0.0474  0.0354
 1945TIP3    H127394   0.564   2.635  26.916  1.2693  0.0799 -1.2159
 1945TIP3    H227395   0.488   2.756  26.865 -0.5445 -0.1510  0.8093
 1946TIP3   OH227396   2.442   2.409  26.695 -0.0497 -0.5087 -0.0879
 1946TIP3    H127397   2.378   2.338  26.694  0.4471 -0.9661  0.2743
 1946TIP3    H227398   2.479   2.408  26.606  0.6150 -1.3167  0.1829
 1947TIP3   OH227399   0.364   3.371  28.035  0.3282  0.5906  0.5056
 1947TIP3    H127400   0.420   3.294  28.024  0.5679  0.8340 -0.0060
 1947TIP3    H227401   0.303   3.368  27.961 -0.2187  0.4331  0.9556
 1948TIP3   OH227402   1.056   0.217  14.302 -0.4788  0.1127  0.1515
 1948TIP3    H127403   1.136   0.270  14.303  0.3731 -1.1020  1.4571
 1948TIP3    H227404   1.021   0.228  14.213 -0.7029  3.2703  0.4979
 1949TIP3   OH227405   3.415   0.196   1.918  0.8663  0.6119 -0.0380
 1949TIP3    H127406   3.461   0.120   1.952  0.6366  0.9355  1.0431
 1949TIP3    H227407   3.349   0.217   1.984 -1.7031 -0.5306 -2.0356
 1950TIP3   OH227408   0.553   1.768  26.408 -0.1531  0.4766 -0.1360
 1950TIP3    H127409   0.602   1.823  26.346 -0.0755 -0.5245 -0.9981
 1950TIP3    H227410   0.467   1.810  26.415  0.7650  2.2751  1.4077
 1951TIP3   OH227411   0.025   3.121  12.008 -0.0785  0.0074  0.6759
 1951TIP3    H127412  -0.031   3.045  12.025 -1.1617  0.7019  0.3466
 1951TIP3    H227413   0.037   3.120  11.913  0.3508 -0.0571  0.7319
 1952TIP3   OH227414   0.142   1.357  29.532 -0.1856 -0.4517  0.3674
 1952TIP3    H127415   0.232   1.346  29.561 -0.3905 -0.0458  1.1911
 1952TIP3    H227416   0.136   1.305  29.452  1.3447  1.2330 -0.9133
 1953TIP3   OH227417   0.698   1.605   1.219  0.0089  0.1108 -0.2565
 1953TIP3    H127418   0.726   1.615   1.128 -3.2712 -0.1992 -1.4350
 1953TIP3    H227419   0.696   1.510   1.233  2.2705  0.1552  0.8589
 1954TIP3   OH227420   0.469   2.034  31.722 -0.1408  0.1907  0.1191
 1954TIP3    H127421   0.473   2.127  31.741 -0.6566  0.1465  0.4672
 1954TIP3    H227422   0.386   2.005  31.760 -0.9316 -0.0301 -1.6873
 1955TIP3   OH227423   1.713   0.274  12.323 -1.5714 -0.3899 -0.3797
 1955TIP3    H127424   1.804   0.245  12.333 -2.0120 -1.1946  2.2106
 1955TIP3    H227425   1.720   0.367  12.306 -0.2377 -0.5498 -0.8368
 1956TIP3   OH227426   2.477   1.601  17.697  0.1057  0.0191  0.3398
 1956TIP3    H127427   2.529   1.633  17.771  1.6819 -0.0404 -0.7089
 1956TIP3    H227428   2.387   1.605  17.729  0.6881  0.5182  2.0690
 1957TIP3   OH227429   2.052   1.700  28.331  0.3531  0.8667 -0.0913
 1957TIP3    H127430   2.056   1.791  28.360 -0.1282  1.2391 -1.1745
 1957TIP3    H227431   1.971   1.693  28.282 -0.5547 -0.6277  1.5000
 1958TIP3   OH227432   1.599   3.519   3.463  0.3582  0.1039  0.0129
 1958TIP3    H127433   1.685   3.484   3.442  0.6548  0.7443  0.1154
 1958TIP3    H227434   1.564   3.461   3.531 -0.0848 -1.2521 -1.3279
 1959TIP3   OH227435   0.426   2.780  27.456  0.3974 -0.2490  0.1001
 1959TIP3    H127436   0.337   2.802  27.428  1.0858  1.4184 -0.8993
 1959TIP3    H227437   0.415   2.752  27.547 -1.1537 -0.0552  0.0049
 1960TIP3   OH227438   3.237   1.770  17.448 -0.0981 -0.1374  0.2446
 1960TIP3    H127439   3.296   1.813  17.509  0.6976  0.2253 -0.7462
 1960TIP3    H227440   3.265   1.679  17.447 -1.3677 -0.5834  1.8539
 1961TIP3   OH227441   2.450   1.277  28.454  0.1331  0.2146 -0.3423
 1961TIP3    H127442   2.524   1.242  28.403 -0.1705 -0.5105 -0.3057
 1961TIP3    H227443   2.403   1.199  28.483 -0.6554  0.6703 -0.3742
 1962TIP3   OH227444   1.805   0.893   2.571 -0.0700 -0.0723 -0.2140
 1962TIP3    H127445   1.732   0.928   2.521  0.1819  0.3919 -0.2592
 1962TIP3    H227446   1.858   0.969   2.593  0.1757 -0.3524  0.1859
 1963TIP3   OH227447   2.945   1.200  28.690  0.4270  0.1743  0.8016
 1963TIP3    H127448   2.956   1.256  28.613  1.2731  0.0094  0.7969
 1963TIP3    H227449   2.942   1.261  28.764  1.1156  0.2384  0.7757
 1964TIP3   OH227450   1.925   0.792  32.372 -0.0528 -0.0197  0.3490
 1964TIP3    H127451   2.005   0.751  32.340 -0.6809 -0.7580 -0.3116
 1964TIP3    H227452   1.955   0.871  32.418  0.9573  0.4545 -1.0567
 1965TIP3   OH227453   2.821   2.766  28.430 -0.6564 -0.0545 -0.1393
 1965TIP3    H127454   2.909   2.729  28.431 -1.6248 -2.7570 -2.0558
 1965TIP3    H227455   2.822   2.828  28.357  0.0631  1.2299  0.9260
 1966TIP3   OH227456   0.306   0.230  28.675 -0.2843 -0.4076 -1.0214
 1966TIP3    H127457   0.265   0.281  28.745 -0.8812 -0.2908 -1.4461
 1966TIP3    H227458   0.332   0.295  28.610 -0.6044 -0.5914 -1.3394
 1967TIP3   OH227459   3.513   1.660   1.936 -0.4725  0.9271  0.2645
 1967TIP3    H127460   3.551   1.577   1.964 -1.5392  0.2966 -0.0990
 1967TIP3    H227461   3.536   1.722   2.005 -0.6826  0.0531  1.1358
 1968TIP3   OH227462   2.338   3.444   1.348 -0.5274 -0.0547  0.0416
 1968TIP3    H127463   2.338   3.430   1.442  0.9805  1.4997  0.2985
 1968TIP3    H227464   2.429   3.431   1.321 -0.8221  0.1318 -1.1157
 1969TIP3   OH227465   0.854   2.046  29.649  0.3457  0.5875 -0.5184
 1969TIP3    H127466   0.852   2.023  29.556 -0.0449 -0.5013 -0.2591
 1969TIP3    H227467   0.836   1.963  29.694  0.2898  1.1514  0.5171
 1970TIP3   OH227468   1.772   2.134   7.422 -0.3519 -0.2058 -0.5455
 1970TIP3    H127469   1.798   2.042   7.432  1.9871  0.4849  0.5064
 1970TIP3    H227470   1.714   2.151   7.497  1.1299 -0.2671  0.6765
 1971TIP3   OH227471   0.997   1.533  29.821 -0.0691 -0.3252  0.3607
 1971TIP3    H127472   0.959   1.566  29.902 -2.0626 -0.3158 -0.5211
 1971TIP3    H227473   0.980   1.602  29.757  0.2178 -0.9310 -0.3835
 1972TIP3   OH227474   3.485   1.383  29.935 -0.1034  0.3772  0.4160
 1972TIP3    H127475   3.487   1.446  29.862  1.9194 -1.9906 -1.7362
 1972TIP3    H227476   3.573   1.385  29.971 -0.4656 -0.1370  1.3629
 1973TIP3   OH227477   2.026   0.004  27.435 -0.0253  0.2731  0.3484
 1973TIP3    H127478   1.977   0.012  27.353  0.4033  2.2098  0.2287
 1973TIP3    H227479   1.975   0.056  27.498 -0.9911 -2.1314  1.6835
 1974TIP3   OH227480   1.788   2.761  26.828  0.5192  0.3261 -0.0989
 1974TIP3    H127481   1.755   2.672  26.841  0.0881  0.3256 -1.1503
 1974TIP3    H227482   1.823   2.761  26.739  2.4711  0.6172  0.6119
 1975TIP3   OH227483   0.412   0.447  26.185 -0.2075  0.2285  0.3304
 1975TIP3    H127484   0.366   0.453  26.269  1.3477  1.8119  1.1538
 1975TIP3    H227485   0.502   0.426  26.209  0.1398  0.0969 -1.0031
 1976TIP3   OH227486   3.223   1.763  26.400 -0.1840 -0.0672  0.4217
 1976TIP3    H127487   3.211   1.850  26.363  0.6627  0.1006  0.5061
 1976TIP3    H227488   3.296   1.725  26.350 -0.7774 -0.8680  0.1423
 1977TIP3   OH227489   1.364   0.033   3.700 -0.0721 -0.0773  0.3350
 1977TIP3    H127490   1.294   0.079   3.653 -0.4526 -0.4671  0.5092
 1977TIP3    H227491   1.349  -0.059   3.680  1.4911 -0.0602 -1.1003
 1978TIP3   OH227492   1.280   1.464   4.899  0.7701 -0.1318 -0.0532
 1978TIP3    H127493   1.334   1.528   4.853  0.2465  1.7030  1.7545
 1978TIP3    H227494   1.206   1.515   4.933 -1.8175 -2.4108 -1.8581
 1979TIP3   OH227495   1.234   1.723   2.026 -0.4817  0.3402  0.2085
 1979TIP3    H127496   1.300   1.792   2.029 -0.4338  0.3714 -1.0004
 1979TIP3    H227497   1.180   1.738   2.103  0.7349  0.4920  1.0657
 1980TIP3   OH227498   3.329   2.978  12.064  0.2377 -0.1416  0.1180
 1980TIP3    H127499   3.321   2.883  12.073  0.2699 -0.0223  1.5152
 1980TIP3    H227500   3.240   3.011  12.076  0.1521 -0.0005 -0.7747
 1981TIP3   OH227501   1.873   3.231   6.877 -0.5437 -0.4005 -0.7405
 1981TIP3    H127502   1.815   3.268   6.944 -0.5359 -0.0255 -0.9393
 1981TIP3    H227503   1.827   3.153   6.847  0.0643 -1.3311  0.6324
 1982TIP3   OH227504   3.274   2.955   5.719  0.3086 -0.3814  0.4588
 1982TIP3    H127505   3.345   3.014   5.696  0.2439 -0.8708 -1.1128
 1982TIP3    H227506   3.265   2.964   5.814  0.2329  2.1768  0.2739
 1983TIP3   OH227507   3.120   0.594  29.424  0.3232 -0.6254  0.2184
 1983TIP3    H127508   3.034   0.568  29.391 -1.0672  4.5212 -0.9856
 1983TIP3    H227509   3.180   0.579  29.351 -0.0603 -1.6348  0.0945
 1984TIP3   OH227510   3.470   0.523   6.149 -0.7120  0.4861 -0.1467
 1984TIP3    H127511   3.434   0.566   6.071  0.4905  1.8009 -0.0247
 1984TIP3    H227512   3.519   0.449   6.115 -0.4092  0.9001 -0.6395
 1985TIP3   OH227513   3.430   2.723  26.458 -0.2434  0.6550 -0.5771
 1985TIP3    H127514   3.506   2.774  26.430 -0.7875  1.5650 -0.4621
 1985TIP3    H227515   3.364   2.789  26.482 -0.7342 -0.0997  0.2596
 1986TIP3   OH227516   2.330   3.485   1.656 -0.0061  0.5447  0.4772
 1986TIP3    H127517   2.412   3.468   1.610  0.1615  1.2153  0.5185
 1986TIP3    H227518   2.354   3.546   1.726 -0.0547 -1.2454  2.1376
 1987TIP3   OH227519   3.498   1.418  32.789  0.0385  0.2515 -0.2953
 1987TIP3    H127520   3.530   1.405  32.699 -0.6077  2.2751 -0.8671
 1987TIP3    H227521   3.405   1.436  32.779 -0.4158 -1.2153  0.9745
 1988TIP3   OH227522   1.951   3.003  28.074 -0.9245 -0.1201  0.2583
 1988TIP3    H127523   1.866   3.047  28.070 -1.8687 -1.9172 -1.0518
 1988TIP3    H227524   1.937   2.920  28.028  1.3828 -0.7555  0.5771
 1989TIP3   OH227525   0.204   0.953   7.059  0.3303  0.3927  0.5088
 1989TIP3    H127526   0.251   1.036   7.052 -0.0259  0.5826  0.3225
 1989TIP3    H227527   0.186   0.927   6.969 -0.1153  0.4375  0.5812
 1990TIP3   OH227528   3.454   2.253  28.851 -0.0526 -0.2732 -0.3273
 1990TIP3    H127529   3.415   2.194  28.915 -1.4939 -0.7857 -1.5964
 1990TIP3    H227530   3.521   2.301  28.899 -1.8381  0.1963  1.8564
 1991TIP3   OH227531   2.132   0.068  12.657  0.0765  0.1098  0.6285
 1991TIP3    H127532   2.116  -0.025  12.676 -1.7395  0.2872  0.1376
 1991TIP3    H227533   2.158   0.069  12.565 -2.4304  0.2572 -0.1555
 1992TIP3   OH227534   1.024   3.164  28.239  0.3057  0.0144  0.0819
 1992TIP3    H127535   1.116   3.182  28.220  0.3523  0.7367  0.8754
 1992TIP3    H227536   0.992   3.117  28.163  1.8538 -2.1033  0.6638
 1993TIP3   OH227537   2.912   1.446   3.186 -0.4175 -1.2156  0.0388
 1993TIP3    H127538   2.819   1.426   3.172 -1.0292  0.7735  0.9195
 1993TIP3    H227539   2.921   1.537   3.160  0.9468 -0.8980  1.5164
 1994TIP3   OH227540   2.903   3.550  31.191 -0.0364 -0.4225 -0.6833
 1994TIP3    H127541   2.818   3.592  31.180 -0.0144 -0.1706  0.0449
 1994TIP3    H227542   2.918   3.551  31.286 -0.6453 -3.2961 -0.4540
 1995TIP3   OH227543   3.304   3.006  32.726 -0.3938 -0.2996  1.2063
 1995TIP3    H127544   3.294   2.966  32.640  1.1627  0.2515  0.7355
 1995TIP3    H227545   3.386   2.970  32.760 -0.1094  0.7863  1.7203
 1996TIP3   OH227546   2.159   2.791  32.615  0.3428  0.1514  0.1925
 1996TIP3    H127547   2.202   2.717  32.572  1.5084  0.0180  1.4816
 1996TIP3    H227548   2.160   2.861  32.550  0.2929 -0.6128 -0.6460
 1997TIP3   OH227549   1.967   1.759   4.368 -0.2573  0.1604 -0.3510
 1997TIP3    H127550   1.983   1.749   4.274 -1.6647 -0.7913 -0.5245
 1997TIP3    H227551   2.014   1.687   4.409  0.4465  0.6397 -0.3095
 1998TIP3   OH227552   3.318   0.245   3.426 -0.1698  0.3997 -0.0174
 1998TIP3    H127553   3.312   0.334   3.391  2.9366 -0.3908 -3.1031
 1998TIP3    H227554   3.404   0.214   3.397 -1.6177 -4.0596 -0.2583
 1999TIP3   OH227555   2.691   1.284  30.277  0.1864  0.2914 -0.0136
 1999TIP3    H127556   2.771   1.305  30.230 -0.0722 -0.1444 -0.6514
 1999TIP3    H227557   2.687   1.349  30.348  1.0253  0.3961 -0.0635
 2000TIP3   OH227558   1.627   2.205  30.835  0.0512 -0.1226 -0.3592
 2000TIP3    H127559   1.705   2.154  30.812  0.1817  0.2551 -0.7680
 2000TIP3    H227560   1.655   2.296  30.828 -0.3459  0.0112 -0.2087
 2001TIP3   OH227561   0.187   1.110   1.945 -0.3217 -0.5688 -0.5982
 2001TIP3    H127562   0.257   1.161   1.903 -1.1565 -0.2251 -1.6260
 2001TIP3    H227563   0.227   1.076   2.025  1.1572 -0.7333 -1.3617
 2002TIP3   OH227564   2.939   3.270  32.275  0.2295  0.0242  0.4564
 2002TIP3    H127565   3.025   3.255  32.237  0.5181  0.8010  0.7895
 2002TIP3    H227566   2.954   3.275  32.369 -0.0394  1.0057  0.4611
 2003TIP3   OH227567   0.612   0.774   4.969  0.0210  0.0506 -0.2481
 2003TIP3    H127568   0.669   0.697   4.970 -0.0749 -0.0257 -0.5105
 2003TIP3    H227569   0.567   0.772   5.054 -0.1739 -0.3265 -0.3584
 2004TIP3   OH227570   2.846   1.224   6.324  0.2986  0.3182  0.5945
 2004TIP3    H127571   2.765   1.178   6.347 -0.6494  1.0298 -1.1348
 2004TIP3    H227572   2.842   1.233   6.229  1.9404  1.2626  0.5834
 2005TIP3   OH227573   3.053   1.098  30.443 -0.1645  0.1826 -0.3528
 2005TIP3    H127574   3.114   1.032  30.409  0.1251 -0.5654  1.4840
 2005TIP3    H227575   3.019   1.142  30.365  1.8391 -0.1637 -1.4920
 2006TIP3   OH227576   1.458   0.092   1.073  0.6679  0.1838 -0.1179
 2006TIP3    H127577   1.377   0.044   1.057  0.4113  0.1400  1.1692
 2006TIP3    H227578   1.448   0.127   1.162  2.6519 -1.0543  0.6616
 2007TIP3   OH227579   2.243   0.244   4.093 -0.2079 -0.4800  0.0941
 2007TIP3    H127580   2.310   0.180   4.118  0.8709  0.5954  0.0747
 2007TIP3    H227581   2.165   0.218   4.142  0.3431 -1.5040  0.4682
 2008TIP3   OH227582   3.074   0.580  28.362  0.4684  0.4795 -0.0476
 2008TIP3    H127583   3.026   0.564  28.281  0.1672  1.2722 -0.0367
 2008TIP3    H227584   3.093   0.674  28.360  0.4980  0.4967  0.7829
 2009TIP3   OH227585   1.229   1.645  28.182  0.1686  0.0142 -0.0014
 2009TIP3    H127586   1.287   1.578  28.219 -0.6419 -2.6054 -3.0255
 2009TIP3    H227587   1.281   1.726  28.185  1.6871 -0.9096  2.6310
 2010TIP3   OH227588   0.646   1.100  26.364  0.2734  0.2465 -0.0524
 2010TIP3    H127589   0.741   1.088  26.356  0.5600  2.5588 -1.0934
 2010TIP3    H227590   0.626   1.173  26.305 -2.5713 -1.6779 -1.7104
 2011TIP3   OH227591   2.975   0.897   2.934  0.2003  0.4096 -0.6396
 2011TIP3    H127592   2.961   0.916   3.027  2.2975  1.8825 -0.5544
 2011TIP3    H227593   2.939   0.973   2.889  1.6599  1.0097 -0.8262
 2012TIP3   OH227594   2.489   1.736   3.729  0.2779  0.4521 -0.0060
 2012TIP3    H127595   2.498   1.651   3.771  0.5820  0.7700  0.5871
 2012TIP3    H227596   2.476   1.716   3.636  0.0595 -0.2430  0.1706
 2013TIP3   OH227597   2.541   3.349   1.552 -0.1970 -0.0699 -0.0329
 2013TIP3    H127598   2.584   3.404   1.487 -0.2234  0.1696  0.1543
 2013TIP3    H227599   2.606   3.337   1.621 -0.2235 -0.1978 -0.0292
 2014TIP3   OH227600   3.052   0.644   0.677 -0.1536 -0.2755 -0.2505
 2014TIP3    H127601   3.080   0.567   0.727 -0.5357 -0.6252 -0.5701
 2014TIP3    H227602   2.966   0.666   0.713 -0.1051 -0.0779 -0.2528
 2015TIP3   OH227603   1.453   2.399  11.280  0.2012  0.5474 -0.2414
 2015TIP3    H127604   1.504   2.455  11.221 -1.0403  2.1939  0.1857
 2015TIP3    H227605   1.470   2.435  11.367  1.3786 -1.3580  0.3770
 2016TIP3   OH227606   0.678   3.275  10.615  0.3028  0.8745 -0.3849
 2016TIP3    H127607   0.759   3.235  10.584 -0.3638 -1.4753  0.6734
 2016TIP3    H227608   0.617   3.202  10.624 -0.4850  1.7701  3.3820
 2017TIP3   OH227609   0.663   0.367  28.615  0.4300  0.3719  0.8553
 2017TIP3    H127610   0.638   0.295  28.557 -0.3061  0.0050  1.6052
 2017TIP3    H227611   0.754   0.387  28.591  0.5302 -0.5786  0.4040
 2018TIP3   OH227612   1.827   3.240  31.263 -0.9027  0.3890 -0.2006
 2018TIP3    H127613   1.736   3.243  31.235 -0.9837 -0.7245 -0.1134
 2018TIP3    H227614   1.850   3.147  31.259  0.0508  0.5873  0.3393
 2019TIP3   OH227615   3.071   3.113  26.961  0.2427 -0.0126 -0.2153
 2019TIP3    H127616   3.161   3.097  26.933 -0.0345 -1.0541 -0.5830
 2019TIP3    H227617   3.033   3.025  26.969 -0.8529  0.4258 -0.4508
 2020TIP3   OH227618   1.374   1.943   7.601 -0.5407  0.4636  0.5269
 2020TIP3    H127619   1.290   1.904   7.579 -0.6116  0.7624  0.2682
 2020TIP3    H227620   1.362   2.037   7.587 -0.1235  0.4920  0.3502
 2021TIP3   OH227621   3.185   2.573   2.612  0.2307 -0.1419  0.3074
 2021TIP3    H127622   3.168   2.599   2.703 -0.3480  3.5132 -0.6808
 2021TIP3    H227623   3.107   2.603   2.564  1.6576  0.4828 -1.7518
 2022TIP3   OH227624   0.433   2.455   0.442  0.0732 -0.5343  0.2530
 2022TIP3    H127625   0.422   2.404   0.522 -1.5225 -0.1229  0.3324
 2022TIP3    H227626   0.362   2.519   0.445 -0.1148 -0.6143 -1.5606
 2023TIP3   OH227627   2.922   0.966   3.606 -0.0663 -0.4717 -0.3271
 2023TIP3    H127628   3.004   0.933   3.567  1.5080  2.4644  0.2280
 2023TIP3    H227629   2.950   1.015   3.683 -2.4362  0.3159  0.1171
 2024TIP3   OH227630   2.133   2.613   4.646 -0.3298 -0.3982 -0.6838
 2024TIP3    H127631   2.187   2.577   4.576 -0.7708 -0.4689 -0.9964
 2024TIP3    H227632   2.173   2.582   4.726  0.5801  0.2346 -0.8812
 2025TIP3   OH227633   2.363   1.972  23.019  0.2931 -1.0393  0.8166
 2025TIP3    H127634   2.281   1.974  23.068 -0.1724  1.0753  0.0775
 2025TIP3    H227635   2.351   1.902  22.955 -1.2539 -0.3211  0.2716
 2026TIP3   OH227636   1.468   2.194   0.187  0.0999  0.5662  0.5540
 2026TIP3    H127637   1.500   2.190   0.277  1.4181  1.4064  0.1450
 2026TIP3    H227638   1.440   2.285   0.175  1.1704  0.8121 -0.2657
 2027TIP3   OH227639   2.418   3.253   1.954  0.7230 -0.3344  0.0709
 2027TIP3    H127640   2.330   3.226   1.981  0.6659 -0.2780 -0.0574
 2027TIP3    H227641   2.432   3.211   1.870  1.1579 -1.0279  0.4804
 2028TIP3   OH227642   2.027   3.194   5.567  0.1435 -0.2500 -0.0585
 2028TIP3    H127643   1.968   3.119   5.558 -1.2846  0.6062  1.6405
 2028TIP3    H227644   2.031   3.210   5.661  2.5944  0.1656 -0.1839
 2029TIP3   OH227645   2.185   1.463  32.017  0.1672  0.2090  0.2583
 2029TIP3    H127646   2.232   1.542  32.044 -0.1532  1.0845 -1.5998
 2029TIP3    H227647   2.228   1.435  31.937 -0.3043 -0.9936  0.4031
 2030TIP3   OH227648   1.973   0.320  25.970 -0.2727 -0.1958 -0.4083
 2030TIP3    H127649   2.006   0.276  26.048  0.8023 -2.1002 -1.8450
 2030TIP3    H227650   1.960   0.250  25.906 -0.9768  1.2997 -2.0077
 2031TIP3   OH227651   2.080   0.734   4.819 -0.0720  0.2460 -0.4312
 2031TIP3    H127652   2.157   0.677   4.815  0.7392  1.3379 -1.0637
 2031TIP3    H227653   2.110   0.817   4.780  0.4347  3.0383  4.9533
 2032TIP3   OH227654   1.989   2.238  18.506  0.1034  0.2068  0.1500
 2032TIP3    H127655   1.971   2.178  18.578  0.6773 -1.4485 -1.0190
 2032TIP3    H227656   2.084   2.242  18.501  0.2374 -2.7627 -2.8138
 2033TIP3   OH227657   0.165   1.763   2.431  0.2647  0.0792  0.5169
 2033TIP3    H127658   0.105   1.785   2.360  1.4934  0.1033 -0.5419
 2033TIP3    H227659   0.108   1.729   2.501 -1.2447  2.4368  0.5487
 2034TIP3   OH227660   0.091   0.689  30.230  0.1954 -0.0241  0.3070
 2034TIP3    H127661   0.029   0.692  30.157  0.9823  0.8069 -0.3525
 2034TIP3    H227662   0.110   0.596  30.241  1.0953 -0.0869 -1.4716
 2035TIP3   OH227663   0.613   1.493   4.398  0.4263  0.3816  0.0955
 2035TIP3    H127664   0.605   1.430   4.469  1.1299 -1.5183 -1.3920
 2035TIP3    H227665   0.665   1.564   4.434 -0.7019  0.3097  1.9546
 2036TIP3   OH227666   0.117   3.243   1.190 -0.2980  0.1054 -0.3629
 2036TIP3    H127667   0.058   3.272   1.259  0.4108 -0.0872  0.3309
 2036TIP3    H227668   0.066   3.253   1.109 -1.0611  0.5184  0.1610
 2037TIP3   OH227669   1.418   3.487  27.796 -0.5124  0.7380 -0.0854
 2037TIP3    H127670   1.391   3.556  27.857 -0.8186  1.0597 -0.5791
 2037TIP3    H227671   1.347   3.483  27.731 -0.1173  0.5102 -0.5089
 2038TIP3   OH227672   1.506   2.671  31.638  0.0627  0.0976 -0.4055
 2038TIP3    H127673   1.549   2.757  31.635 -0.1998  0.2134 -0.7300
 2038TIP3    H227674   1.456   2.665  31.558  0.4993 -0.5821 -0.6408
 2039TIP3   OH227675   0.824   1.644  21.195  0.3954  0.4590  0.2513
 2039TIP3    H127676   0.818   1.627  21.101 -2.8054 -0.0581  0.4385
 2039TIP3    H227677   0.818   1.739  21.203  1.8669  0.5918 -0.0962
 2040TIP3   OH227678   2.945   0.314  32.264 -0.3187  0.1411  0.7470
 2040TIP3    H127679   3.040   0.325  32.270 -0.2001 -0.3663 -0.0961
 2040TIP3    H227680   2.931   0.219  32.271 -0.5350 -0.0804 -1.6965
 2041TIP3   OH227681   3.117   2.340   3.862 -0.0188  0.1456 -0.0876
 2041TIP3    H127682   3.034   2.296   3.845  0.2509 -0.2226 -0.4742
 2041TIP3    H227683   3.169   2.275   3.910  0.4498 -0.0336 -0.8212
 2042TIP3   OH227684   1.534   3.132  14.642  0.0734  0.7818  0.5059
 2042TIP3    H127685   1.579   3.137  14.727 -0.7970  1.2087  0.9594
 2042TIP3    H227686   1.593   3.081  14.587  1.0554  1.2206  1.1110
 2043TIP3   OH227687   1.409   2.397  30.724  0.1936  0.1199 -0.1049
 2043TIP3    H127688   1.361   2.314  30.734 -0.9833  0.7369 -0.3463
 2043TIP3    H227689   1.409   2.435  30.812 -1.3377  0.9133 -0.4016
 2044TIP3   OH227690   2.386   3.025  29.473 -0.4594 -0.5350 -0.6026
 2044TIP3    H127691   2.470   3.070  29.488  0.4581 -2.4032  0.0972
 2044TIP3    H227692   2.389   3.001  29.380 -0.0696 -0.8787 -0.5047
 2045TIP3   OH227693   0.464   2.045   4.323  0.2143  0.2043  0.2300
 2045TIP3    H127694   0.402   1.986   4.280 -0.5781  0.1447  1.3872
 2045TIP3    H227695   0.423   2.131   4.316  1.7743  0.8364 -2.2215
 2046TIP3   OH227696   0.158   1.773   1.699 -0.6015  0.0312  0.0857
 2046TIP3    H127697   0.165   1.716   1.776 -0.6081  0.6384  0.5497
 2046TIP3    H227698   0.132   1.715   1.628  1.5298 -0.9498  0.0311
 2047TIP3   OH227699   1.456   1.603   0.938  0.1217  0.2099  0.0518
 2047TIP3    H127700   1.421   1.588   1.026 -0.7242  0.4861 -0.2172
 2047TIP3    H227701   1.489   1.693   0.941 -2.8099  1.4613 -0.7419
 2048TIP3   OH227702   1.785   3.085   7.189 -0.0899 -0.3612  0.0599
 2048TIP3    H127703   1.776   3.174   7.157 -0.6214  0.0745  1.3577
 2048TIP3    H227704   1.747   3.031   7.119 -0.1425  0.4510 -0.5577
 2049TIP3   OH227705   3.422   1.634  28.649 -0.0088 -0.1964 -0.0143
 2049TIP3    H127706   3.430   1.557  28.592 -0.2573 -1.8705  2.0885
 2049TIP3    H227707   3.350   1.612  28.708  0.6931  1.1410  1.3937
 2050TIP3   OH227708   2.373   0.607  30.335 -0.2836  0.2808 -0.3432
 2050TIP3    H127709   2.360   0.513  30.348 -0.2062  0.2438 -0.5279
 2050TIP3    H227710   2.362   0.645  30.422  0.9159 -0.0468 -0.0345
 2051TIP3   OH227711   1.858   0.352   1.092 -0.6653  0.4289 -0.1623
 2051TIP3    H127712   1.837   0.442   1.064 -1.3812  0.0308 -0.9694
 2051TIP3    H227713   1.925   0.323   1.030  1.9651  1.4569  1.9947
 2052TIP3   OH227714   3.161   2.255  31.386  0.1808 -0.1705 -0.1294
 2052TIP3    H127715   3.124   2.289  31.468 -0.3396 -0.9312 -0.0395
 2052TIP3    H227716   3.088   2.209  31.344 -0.0214  1.5470 -1.8095
 2053TIP3   OH227717   0.890   1.088  31.960  0.3281  0.1339  0.4916
 2053TIP3    H127718   0.954   1.025  31.926  0.9443  0.5387  0.8794
 2053TIP3    H227719   0.869   1.055  32.047  0.7473  0.5251  0.7459
 2054TIP3   OH227720   1.093   1.781  25.704 -0.2725  0.2493 -0.2443
 2054TIP3    H127721   1.170   1.767  25.649 -0.7760  1.3593 -1.2868
 2054TIP3    H227722   1.070   1.873  25.691 -1.7518 -0.0431  0.0342
 2055TIP3   OH227723   1.819   1.415  19.708 -0.2229  0.3628 -0.3942
 2055TIP3    H127724   1.812   1.493  19.763  0.1796  0.1156  0.0152
 2055TIP3    H227725   1.800   1.446  19.619 -0.7009  0.7990 -0.1433
 2056TIP3   OH227726   0.262   0.803   3.252 -0.3709  0.2946 -0.1659
 2056TIP3    H127727   0.350   0.776   3.276 -0.9224 -0.4784  1.0938
 2056TIP3    H227728   0.275   0.877   3.192  1.1654 -1.9276 -2.7865
 2057TIP3   OH227729   2.867   0.008  30.082  0.0576 -0.4764 -0.6259
 2057TIP3    H127730   2.951  -0.004  30.037  1.6446  0.0059  1.9997
 2057TIP3    H227731   2.888   0.064  30.157 -3.0308  1.3715 -0.9734
 2058TIP3   OH227732   3.045   2.429  30.970  0.0237  0.5578 -0.3347
 2058TIP3    H127733   3.113   2.430  30.903  0.5342  0.1225  0.1627
 2058TIP3    H227734   3.093   2.413  31.052 -0.5080  1.6882  0.2225
 2059TIP3   OH227735   1.133   2.126   6.892  0.7180  0.2163 -0.1861
 2059TIP3    H127736   1.168   2.044   6.856  0.7854  0.4872 -0.7447
 2059TIP3    H227737   1.175   2.134   6.978  1.5346  0.1976 -0.5719
 2060TIP3   OH227738   0.986   3.101  29.578  0.6368  0.1863 -0.5070
 2060TIP3    H127739   1.071   3.119  29.619  1.3717  0.7638 -2.2235
 2060TIP3    H227740   0.991   3.008  29.553  1.2935  0.5379 -1.7502
 2061TIP3   OH227741   0.326   1.732   4.478 -0.3307 -0.0137  0.1459
 2061TIP3    H127742   0.301   1.680   4.401 -0.4073  0.5814 -0.2394
 2061TIP3    H227743   0.406   1.689   4.510 -0.2519 -0.2227 -0.3142
 2062TIP3   OH227744   0.497   1.208  26.564 -0.5265 -0.0907  0.5091
 2062TIP3    H127745   0.558   1.162  26.506  1.2424  1.3976  1.1048
 2062TIP3    H227746   0.461   1.140  26.620  1.1285 -0.9281  0.6108
 2063TIP3   OH227747   0.751   1.246   3.938  0.3297 -0.0740 -0.3548
 2063TIP3    H127748   0.693   1.274   4.009 -0.4789  0.1479 -1.0782
 2063TIP3    H227749   0.691   1.225   3.865  1.2097  2.6782 -2.0255
 2064TIP3   OH227750   1.224   2.978   4.002  0.0909 -0.1653 -0.0909
 2064TIP3    H127751   1.264   3.045   3.945  2.3252 -0.1778  1.3498
 2064TIP3    H227752   1.157   2.938   3.947  1.1557  0.7907 -2.2438
 2065TIP3   OH227753   1.669   1.178   5.576  0.8283 -0.0103 -0.0253
 2065TIP3    H127754   1.746   1.139   5.618  1.2725  0.2000 -0.6298
 2065TIP3    H227755   1.594   1.139   5.622  1.2484  2.1109  2.7137
 2066TIP3   OH227756   3.427   0.675  30.764 -0.1178  0.5658  0.3987
 2066TIP3    H127757   3.486   0.680  30.840 -0.6224  1.1619  0.7597
 2066TIP3    H227758   3.340   0.662  30.802 -0.4806  1.6462 -0.0385
 2067TIP3   OH227759   3.428   2.582  30.882 -0.1474  0.2846  0.2695
 2067TIP3    H127760   3.364   2.515  30.855  0.9209  0.2457 -2.5905
 2067TIP3    H227761   3.507   2.532  30.903  0.2351  0.5214 -0.5430
 2068TIP3   OH227762   1.789   1.423   4.151 -0.4593 -0.6978  0.2823
 2068TIP3    H127763   1.854   1.354   4.150  2.9899  2.2548 -0.3290
 2068TIP3    H227764   1.787   1.453   4.242  1.2257  0.9712 -0.1741
 2069TIP3   OH227765   3.321   1.131   5.424 -0.3186  0.1948  0.1292
 2069TIP3    H127766   3.264   1.064   5.463 -0.0613 -0.3220 -0.3624
 2069TIP3    H227767   3.280   1.152   5.340  0.7011 -0.9118 -0.6978
 2070TIP3   OH227768   2.461   0.584   3.908 -0.0205 -0.5258  0.1928
 2070TIP3    H127769   2.423   0.672   3.905  0.4898 -0.2270  1.5466
 2070TIP3    H227770   2.433   0.550   3.994 -0.2410 -1.7053 -0.3288
 2071TIP3   OH227771   2.982   3.216  14.008  0.4955  0.1440  0.3428
 2071TIP3    H127772   2.910   3.231  14.069  0.3103  1.3564 -0.1430
 2071TIP3    H227773   3.061   3.217  14.062  0.2993  0.8020  0.6261
 2072TIP3   OH227774   0.617   0.236  32.119 -0.0904  0.1657 -0.0002
 2072TIP3    H127775   0.550   0.187  32.166  0.1501  1.9721  2.4081
 2072TIP3    H227776   0.580   0.247  32.031 -1.8091 -1.0048  0.5007
 2073TIP3   OH227777   0.833   0.113   5.396 -0.5673  0.3057  0.1910
 2073TIP3    H127778   0.864   0.130   5.307 -0.5673 -0.5626  0.0126
 2073TIP3    H227779   0.822   0.017   5.399 -2.2330  0.4749  0.5699
 2074TIP3   OH227780   0.631   3.287  13.754  0.3157 -0.3372  0.0364
 2074TIP3    H127781   0.564   3.355  13.763  1.5960  1.3951 -2.3681
 2074TIP3    H227782   0.684   3.295  13.833 -2.1151 -1.6769  1.9395
 2075TIP3   OH227783   1.921   0.580   2.030 -0.0956 -0.5078 -0.0789
 2075TIP3    H127784   1.891   0.584   1.939 -2.6737 -0.4049  0.7026
 2075TIP3    H227785   1.870   0.647   2.075  2.0799  0.3600  1.2482
 2076TIP3   OH227786   2.463   2.969   5.241 -0.1657 -0.0541  0.9415
 2076TIP3    H127787   2.452   3.059   5.209  1.2242  0.2861  1.3300
 2076TIP3    H227788   2.455   2.915   5.163  0.5894  0.5551  0.4196
 2077TIP3   OH227789   0.924   0.283   2.578 -0.3465  0.1299 -0.1880
 2077TIP3    H127790   0.979   0.256   2.505  0.1921  0.9155 -0.0923
 2077TIP3    H227791   0.836   0.288   2.541  0.2496  2.9805 -1.5376
 2078TIP3   OH227792   1.928   1.082   5.608  0.5501 -0.0457  0.3136
 2078TIP3    H127793   1.980   1.005   5.633 -0.4766 -0.8401  0.1062
 2078TIP3    H227794   1.944   1.092   5.514 -0.3119 -0.8280  0.0649
 2079TIP3   OH227795   1.950   2.716   6.826 -0.5879 -0.2246 -0.1300
 2079TIP3    H127796   1.994   2.780   6.770 -0.8088  0.2703  0.2523
 2079TIP3    H227797   1.884   2.676   6.770  0.6264 -1.3147 -0.8529
 2080TIP3   OH227798   2.394   0.112  30.340 -0.3268  0.0109 -0.1400
 2080TIP3    H127799   2.369   0.072  30.257 -0.6321  0.1950 -0.1366
 2080TIP3    H227800   2.329   0.081  30.403  0.2028 -0.5416  0.1447
 2081TIP3   OH227801   1.960   1.776  29.221 -0.2795  0.6143 -0.7463
 2081TIP3    H127802   1.976   1.842  29.153 -1.6571  1.9125  0.1075
 2081TIP3    H227803   1.959   1.693  29.174 -0.6704  1.4189 -2.2383
 2082TIP3   OH227804   2.448   3.242  10.727  0.2455  0.4410  0.0002
 2082TIP3    H127805   2.453   3.337  10.716 -0.1876  0.3914 -0.6473
 2082TIP3    H227806   2.384   3.214  10.663 -2.2257  0.1044  2.4326
 2083TIP3   OH227807   0.832   0.011   2.008  0.2391 -0.0021  0.0306
 2083TIP3    H127808   0.828   0.106   2.003  1.3387  0.0350 -0.4592
 2083TIP3    H227809   0.741  -0.018   2.003 -0.1188  1.0245  0.3783
 2084TIP3   OH227810   2.297   1.746   7.070 -0.1238  0.3152  0.9612
 2084TIP3    H127811   2.276   1.653   7.060  0.7496  0.1481  0.5715
 2084TIP3    H227812   2.259   1.788   6.993  0.6210  0.0688  0.4443
 2085TIP3   OH227813   0.689   0.265   6.150  0.3997  0.1019  0.3613
 2085TIP3    H127814   0.783   0.250   6.164  0.6664  0.7237 -0.6856
 2085TIP3    H227815   0.680   0.360   6.144 -0.1993  0.0213 -0.1835
 2086TIP3   OH227816   3.540   1.469   7.447  0.3545  0.2423 -0.5329
 2086TIP3    H127817   3.572   1.411   7.379  0.4577  0.8754 -1.0277
 2086TIP3    H227818   3.471   1.419   7.491 -0.8253  0.3922 -2.1227
 2087TIP3   OH227819   2.421   1.632  20.023 -0.8178  0.2972  0.0140
 2087TIP3    H127820   2.420   1.609  20.116 -1.8148  0.9848  0.1946
 2087TIP3    H227821   2.467   1.716  20.020  1.1511 -0.7213 -0.4120
 2088TIP3   OH227822   2.047   3.021  30.829 -0.6294 -0.2030 -0.3652
 2088TIP3    H127823   2.011   3.052  30.912  0.0478  0.3934 -0.2727
 2088TIP3    H227824   2.063   2.928  30.842 -1.4339 -0.3183 -0.1670
 2089TIP3   OH227825   3.199   0.780   0.874  0.7396  0.0833  0.1266
 2089TIP3    H127826   3.209   0.689   0.901  3.0272 -0.1236 -1.1540
 2089TIP3    H227827   3.178   0.776   0.781  0.8962  0.8510  0.0456
 2090TIP3   OH227828   2.561   2.059  31.705 -0.3653  0.1558 -0.0219
 2090TIP3    H127829   2.546   2.049  31.611  0.7032  1.0149 -0.3064
 2090TIP3    H227830   2.636   2.002  31.724  0.4932  1.2386 -0.0442
 2091TIP3   OH227831   0.356   0.161   0.487 -0.3391  0.5637  0.7665
 2091TIP3    H127832   0.430   0.117   0.445 -1.5877 -1.7600  0.8241
 2091TIP3    H227833   0.321   0.218   0.419  1.0386  1.1539  0.5085
 2092TIP3   OH227834   2.243   0.925   4.717 -0.3247  0.3012  0.1994
 2092TIP3    H127835   2.313   0.861   4.702 -1.4296 -0.5504 -1.6864
 2092TIP3    H227836   2.284   0.993   4.770  2.1682  0.2512 -1.4840
 2093TIP3   OH227837   2.720   1.783  17.570 -0.2550  0.0737 -0.1562
 2093TIP3    H127838   2.811   1.808  17.556  0.4265 -2.1956 -0.1461
 2093TIP3    H227839   2.700   1.816  17.658  0.9249 -0.3568  0.2956
 2094TIP3   OH227840   0.937   2.682   4.040 -0.1455 -0.1169 -0.6786
 2094TIP3    H127841   0.977   2.745   3.979  0.1433 -0.3201 -0.7033
 2094TIP3    H227842   1.001   2.611   4.046  0.1014  0.1778  0.3286
 2095TIP3   OH227843   2.937   2.887   3.260  0.3194  0.1132 -0.8988
 2095TIP3    H127844   2.966   2.933   3.181  1.6164  0.0291 -0.5079
 2095TIP3    H227845   2.939   2.954   3.328 -0.9550  0.2240 -0.9607
 2096TIP3   OH227846   2.465   0.068   3.594  0.1161  0.2656 -0.4507
 2096TIP3    H127847   2.444   0.014   3.518 -0.1747  0.5430 -0.5709
 2096TIP3    H227848   2.413   0.030   3.665  1.2496 -0.6977 -0.1128
 2097TIP3   OH227849   2.711   0.872   1.601  0.1678  0.2590  0.5305
 2097TIP3    H127850   2.791   0.845   1.555  0.3181  1.9364 -0.2851
 2097TIP3    H227851   2.701   0.808   1.671  1.4237 -0.8299 -0.2299
 2098TIP3   OH227852   3.008   2.957   5.597 -0.9679 -0.1692  0.8247
 2098TIP3    H127853   2.958   2.955   5.679  1.8544  0.8721  2.7301
 2098TIP3    H227854   3.099   2.969   5.625 -0.0180  1.7716 -2.5513
 2099TIP3   OH227855   2.132   2.580   6.470  0.2799 -0.1407 -0.4719
 2099TIP3    H127856   2.041   2.579   6.441  0.2848  1.6791 -0.6365
 2099TIP3    H227857   2.183   2.595   6.390  0.7341 -0.9430 -0.3511
 2100TIP3   OH227858   1.712   1.151  19.693 -0.0522  0.9084  0.5240
 2100TIP3    H127859   1.732   1.244  19.697 -0.0048  0.9266 -0.1277
 2100TIP3    H227860   1.734   1.118  19.781 -0.5603  1.5974  0.9146
 2101TIP3   OH227861   1.254   0.592   5.750 -0.2055 -0.5730  0.1186
 2101TIP3    H127862   1.205   0.514   5.723  0.8877 -1.2296  0.0164
 2101TIP3    H227863   1.246   0.652   5.675 -1.6975 -0.2368  0.4963
 2102TIP3   OH227864   3.500   2.922   2.545  0.0233  0.2706 -0.0732
 2102TIP3    H127865   3.518   2.987   2.477  0.8075 -1.2143 -1.3539
 2102TIP3    H227866   3.504   2.971   2.627 -1.3577  2.2064 -1.0857
 2103TIP3   OH227867   2.640   2.146  29.114  0.1359 -0.1971 -0.3430
 2103TIP3    H127868   2.666   2.059  29.144  0.8815 -0.7422 -2.4039
 2103TIP3    H227869   2.661   2.147  29.020  0.6475  2.3803 -0.2914
 2104TIP3   OH227870   1.434   2.473   4.383 -0.4478 -0.0041  0.3975
 2104TIP3    H127871   1.491   2.486   4.307 -1.0420 -0.3162 -0.1177
 2104TIP3    H227872   1.492   2.477   4.458  0.0959  0.6999 -0.0539
 2105TIP3   OH227873   0.099   1.505  29.145 -0.4183 -0.1222 -0.0142
 2105TIP3    H127874   0.154   1.447  29.199 -0.5007  1.1924  1.5640
 2105TIP3    H227875   0.158   1.576  29.119 -0.3546 -0.7926 -1.8253
 2106TIP3   OH227876   3.035   2.035   4.587 -0.4237  0.2601 -0.1106
 2106TIP3    H127877   3.081   1.962   4.545 -0.1890 -0.1592  0.8531
 2106TIP3    H227878   3.087   2.112   4.565  1.2852 -0.2977  1.6422
 2107TIP3   OH227879   2.639   2.885   5.933 -0.1012 -0.3177 -0.1983
 2107TIP3    H127880   2.720   2.907   5.886  0.0628  0.7523  0.5454
 2107TIP3    H227881   2.632   2.790   5.926  1.0882 -0.3966 -0.4892
 2108TIP3   OH227882   1.326   2.320  27.673 -0.1125 -0.0814  0.3900
 2108TIP3    H127883   1.352   2.388  27.610  1.9359 -1.4205 -0.3002
 2108TIP3    H227884   1.233   2.336  27.688  0.1094  2.3054 -0.4382
 2109TIP3   OH227885   0.277   1.801  30.120  0.0240  0.3134 -0.0719
 2109TIP3    H127886   0.350   1.740  30.117 -1.3007 -1.6004  2.5831
 2109TIP3    H227887   0.209   1.761  30.066  0.5968  1.7451 -1.9686
 2110TIP3   OH227888   2.613   3.199  29.460  0.4286  0.2889  0.1823
 2110TIP3    H127889   2.689   3.252  29.482  0.3925  0.6278 -0.4833
 2110TIP3    H227890   2.550   3.261  29.422  0.5844 -0.2998 -1.0830
 2111TIP3   OH227891   1.137   1.555   5.120  0.5467  0.0245 -0.3882
 2111TIP3    H127892   1.078   1.596   5.183  0.9829  1.8592 -1.1215
 2111TIP3    H227893   1.138   1.463   5.145 -0.9846  0.3208  0.9262
 2112TIP3   OH227894   2.798   0.263  27.006 -0.3216 -1.0612 -0.2832
 2112TIP3    H127895   2.754   0.261  27.091 -1.4669 -0.8043 -0.8454
 2112TIP3    H227896   2.868   0.199  27.013  0.3002 -0.2633  1.2165
 2113TIP3   OH227897   2.974   2.452   6.305  0.3061 -0.4973  0.3559
 2113TIP3    H127898   3.050   2.431   6.250  0.6945 -0.7014  0.9616
 2113TIP3    H227899   3.012   2.473   6.391 -0.2257  0.6213  0.3358
 2114TIP3   OH227900   0.288   2.640   3.366  0.2848 -0.0914  0.4134
 2114TIP3    H127901   0.268   2.587   3.289 -0.3754  1.8197 -0.8127
 2114TIP3    H227902   0.383   2.635   3.375  0.5050  0.5439 -1.2399
 2115TIP3   OH227903   1.315   1.946   1.686  0.0772  0.0002  0.6465
 2115TIP3    H127904   1.325   1.854   1.710  2.4615  0.6168  2.3308
 2115TIP3    H227905   1.382   1.992   1.737 -0.0235  2.4866 -1.2702
 2116TIP3   OH227906   3.039   1.096   4.471 -0.1171 -0.0388 -0.3207
 2116TIP3    H127907   3.029   1.055   4.386  0.8899 -0.4297 -0.2674
 2116TIP3    H227908   3.132   1.117   4.477 -0.2706  0.4724  0.4615
 2117TIP3   OH227909   3.216   3.467   4.456  0.2695 -0.3803 -0.5681
 2117TIP3    H127910   3.200   3.444   4.547 -0.2847  0.3436 -0.4721
 2117TIP3    H227911   3.312   3.467   4.448  0.3297 -0.1052  0.1043
 2118TIP3   OH227912   1.994   1.750  27.240 -0.0039 -0.3684  0.3807
 2118TIP3    H127913   1.915   1.759  27.186  0.8609 -0.4405 -0.9431
 2118TIP3    H227914   1.968   1.693  27.312 -1.7657  1.3705  1.2216
 2119TIP3   OH227915   1.508   0.593  14.831  0.5357  1.0647 -0.0855
 2119TIP3    H127916   1.574   0.655  14.862 -0.3262  1.0022  2.0588
 2119TIP3    H227917   1.509   0.523  14.897  0.0328 -0.1695 -1.3343
 2120TIP3   OH227918   3.200   2.937  27.198 -0.6512  0.0904  0.3771
 2120TIP3    H127919   3.239   2.888  27.126 -0.2305  0.3814  0.4009
 2120TIP3    H227920   3.135   2.994  27.157 -0.7383 -0.0780  0.2830
 2121TIP3   OH227921   1.423   2.501   6.730  0.1347  0.0213 -0.4356
 2121TIP3    H127922   1.460   2.589   6.740  1.5186 -0.5591 -0.1564
 2121TIP3    H227923   1.430   2.462   6.817  1.8254 -1.1970 -1.0629
 2122TIP3   OH227924   3.454   2.990  30.557 -0.3301 -0.1543  0.1160
 2122TIP3    H127925   3.391   3.013  30.489 -0.0385  0.7252  0.1328
 2122TIP3    H227926   3.426   2.903  30.587 -0.3677 -0.6224 -1.2297
 2123TIP3   OH227927   1.163   0.379  26.684 -0.2269  0.5794 -0.0237
 2123TIP3    H127928   1.119   0.441  26.626  0.6725 -0.6024 -2.0754
 2123TIP3    H227929   1.098   0.310  26.697  0.3419 -0.3116 -1.6318
 2124TIP3   OH227930   0.740   0.081   3.609 -0.4348  0.1850  0.3613
 2124TIP3    H127931   0.712   0.027   3.535  0.5787  0.1961 -0.0372
 2124TIP3    H227932   0.743   0.170   3.575  0.8619  0.0800  0.1642
 2125TIP3   OH227933   2.237   1.408  28.900  0.6825 -0.6571 -0.2748
 2125TIP3    H127934   2.288   1.384  28.823  0.0586 -1.2431 -0.5185
 2125TIP3    H227935   2.236   1.504  28.899 -0.1093 -0.6452 -1.5585
 2126TIP3   OH227936   3.311   3.266  11.919 -0.0344 -0.0721 -0.3555
 2126TIP3    H127937   3.311   3.173  11.938  3.2023 -0.4718 -1.6805
 2126TIP3    H227938   3.258   3.274  11.840 -2.4877 -0.3084  1.1702
 2127TIP3   OH227939   1.459   3.129  28.265  0.2369  0.6001 -0.2190
 2127TIP3    H127940   1.379   3.141  28.316  0.2905 -0.4797  0.1301
 2127TIP3    H227941   1.499   3.216  28.262 -1.1001  1.2266 -0.6779
 2128TIP3   OH227942   2.400   1.756   5.490  0.1610  0.1293  0.3479
 2128TIP3    H127943   2.376   1.738   5.399  0.4186  0.1944  0.2672
 2128TIP3    H227944   2.458   1.831   5.485  1.2512 -0.6913  0.4527
 2129TIP3   OH227945   1.443   1.828   0.384  0.5226 -0.3060  0.0392
 2129TIP3    H127946   1.419   1.795   0.298 -3.2028 -3.1494  1.8848
 2129TIP3    H227947   1.490   1.755   0.426 -2.3006 -1.1117  2.0595
 2130TIP3   OH227948   1.064   1.512  22.476 -0.9647  0.1730 -0.1305
 2130TIP3    H127949   1.086   1.562  22.555  0.8393  0.4352 -0.7499
 2130TIP3    H227950   1.032   1.428  22.509 -0.4904  0.3740  0.8969
 2131TIP3   OH227951   0.528   1.938  20.961  0.1428  0.3516 -0.4705
 2131TIP3    H127952   0.589   1.904  20.896  0.4627 -0.0539  0.0251
 2131TIP3    H227953   0.495   2.019  20.924  0.6495  0.3485 -0.9402
 2132TIP3   OH227954   0.856   0.369  11.849 -0.4998  0.2561  0.1382
 2132TIP3    H127955   0.829   0.330  11.932 -0.7970 -1.9219 -0.8889
 2132TIP3    H227956   0.861   0.463  11.866  3.4657 -0.3063  3.7547
 2133TIP3   OH227957   2.228   2.248   2.679  0.1883  0.1261 -0.2032
 2133TIP3    H127958   2.189   2.191   2.746 -1.3873  0.9975 -0.3190
 2133TIP3    H227959   2.258   2.187   2.611  1.0650 -0.7152  0.8974
 2134TIP3   OH227960   1.368   1.551  31.067 -0.2454  0.1631 -0.0220
 2134TIP3    H127961   1.384   1.490  31.139 -0.4279  0.7127  0.4948
 2134TIP3    H227962   1.454   1.569  31.031 -0.1458 -0.0863  0.0890
 2135TIP3   OH227963   1.209   2.649  30.149 -0.0554  0.0599  0.0113
 2135TIP3    H127964   1.139   2.591  30.118 -0.3092 -0.3983  1.3752
 2135TIP3    H227965   1.247   2.685  30.069 -1.2435 -0.3961 -0.7909
 2136TIP3   OH227966   2.556   0.890   3.995  0.6580  0.6053  0.0077
 2136TIP3    H127967   2.469   0.872   3.959  0.9744  1.2634 -1.1628
 2136TIP3    H227968   2.563   0.986   3.992  1.1346  0.6044  0.8185
 2137TIP3   OH227969   0.040   2.955   5.643 -0.1022 -0.6186  0.2783
 2137TIP3    H127970   0.002   3.029   5.690 -0.9856 -1.5704  1.1216
 2137TIP3    H227971   0.039   2.884   5.707 -1.0305 -1.8744 -1.0740
 2138TIP3   OH227972   2.657   2.721  31.033  0.0789  0.3203 -0.4177
 2138TIP3    H127973   2.625   2.672  30.957 -1.1027 -2.0856  1.4910
 2138TIP3    H227974   2.584   2.722  31.094  0.9460  2.3167  0.6902
 2139TIP3   OH227975   3.050   3.198   4.861 -0.5514 -0.3485  0.3042
 2139TIP3    H127976   2.976   3.193   4.800 -0.3194 -0.8813  0.0643
 2139TIP3    H227977   3.029   3.273   4.918 -0.5282  0.4606 -0.7324
 2140TIP3   OH227978   2.820   2.551   5.474  0.0927 -0.0034 -0.5084
 2140TIP3    H127979   2.888   2.576   5.412 -0.0619 -0.3098 -0.7998
 2140TIP3    H227980   2.834   2.457   5.489 -0.7109 -0.2271 -1.1211
 2141TIP3   OH227981   3.373   1.426  27.507  0.3383  0.4655  0.7123
 2141TIP3    H127982   3.352   1.455  27.596  0.7438  0.4989  0.7986
 2141TIP3    H227983   3.293   1.441  27.457 -1.3087 -3.1627  1.9355
 2142TIP3   OH227984   2.700   1.042  30.577  0.7281 -0.2767  0.8147
 2142TIP3    H127985   2.764   1.109  30.553  1.5395 -0.7000  1.6955
 2142TIP3    H227986   2.666   1.070  30.662 -1.0150  0.4460 -0.0797
 2143TIP3   OH227987   2.698   2.700   0.081  1.0019 -0.3069 -0.1852
 2143TIP3    H127988   2.710   2.617   0.128  1.3941 -0.3513 -0.3588
 2143TIP3    H227989   2.603   2.706   0.067  1.0204 -0.9967 -0.6580
 2144TIP3   OH227990   2.680   3.136  28.468 -0.6220 -0.2116  0.0428
 2144TIP3    H127991   2.759   3.082  28.468 -0.8979 -0.6242  0.8709
 2144TIP3    H227992   2.641   3.121  28.381  0.8068  0.9284 -0.8461
 2145TIP3   OH227993   1.877   0.103   2.870  0.1899 -0.2098 -0.3055
 2145TIP3    H127994   1.817   0.042   2.914  0.9724 -0.4880  0.4036
 2145TIP3    H227995   1.830   0.186   2.870 -1.1784 -0.9256 -1.8843
 2146TIP3   OH227996   2.054   0.152   0.970  0.8679 -0.3403  0.0306
 2146TIP3    H127997   1.978   0.100   0.996  0.9523 -0.4264  0.1069
 2146TIP3    H227998   2.070   0.128   0.879 -0.4178  1.1572 -0.6352
 2147TIP3   OH227999   1.322   1.398   3.194  0.7879 -0.2917  0.2659
 2147TIP3    H128000   1.227   1.405   3.206  1.1356  1.4963  2.7629
 2147TIP3    H228001   1.343   1.469   3.133  0.7056  0.7100  1.3564
 2148TIP3   OH228002   0.516   0.754   5.308 -0.0100  0.3812 -0.1117
 2148TIP3    H128003   0.585   0.737   5.372  1.3130  0.3141 -1.5197
 2148TIP3    H228004   0.481   0.839   5.334 -0.1978 -0.0823  1.2792
 2149TIP3   OH228005   3.070   1.829  27.157 -0.1773  0.1606 -0.3018
 2149TIP3    H128006   3.127   1.815  27.232  1.1577 -0.5390 -1.4005
 2149TIP3    H228007   3.129   1.858  27.087 -1.5902  2.5301 -0.6558
 2150TIP3   OH228008   2.804   0.856   6.655 -0.2680 -0.3316 -0.0984
 2150TIP3    H128009   2.767   0.896   6.576  2.8491  1.2171 -0.9206
 2150TIP3    H228010   2.895   0.885   6.657 -0.3200  0.2368  4.4423
 2151TIP3   OH228011   1.760   1.691   4.529  0.0120 -0.1580  0.0639
 2151TIP3    H128012   1.816   1.725   4.458 -0.3961  0.3903 -0.0007
 2151TIP3    H228013   1.765   1.759   4.597  0.4463 -0.7064  0.5938
 2152TIP3   OH228014   1.944   2.518  28.559 -0.1284  0.0522 -0.4895
 2152TIP3    H128015   2.033   2.552  28.551  0.2382  0.1549  2.7122
 2152TIP3    H228016   1.889   2.595  28.571 -0.0812 -0.1537  1.2321
 2153TIP3   OH228017   1.715   2.323   2.279 -0.1797 -0.1347  0.1697
 2153TIP3    H128018   1.703   2.407   2.324 -1.1381 -0.7264  1.0676
 2153TIP3    H228019   1.808   2.323   2.253 -0.8077  2.5228 -2.6674
 2154TIP3   OH228020   1.638   0.500  27.796 -0.1419  0.2603 -0.1254
 2154TIP3    H128021   1.568   0.559  27.821 -0.8903 -0.9568  0.7499
 2154TIP3    H228022   1.596   0.414  27.789  0.6159  0.0226 -2.7618
 2155TIP3   OH228023   1.200   1.385  29.508  0.0170 -0.1122  0.0100
 2155TIP3    H128024   1.239   1.298  29.495  0.7301  0.2558 -0.3711
 2155TIP3    H228025   1.133   1.392  29.440  1.6108  0.5696 -1.5926
 2156TIP3   OH228026   2.535   0.470  32.461 -0.6726 -0.0426 -0.3732
 2156TIP3    H128027   2.549   0.434  32.374  0.6442  0.0922 -0.2303
 2156TIP3    H228028   2.477   0.406  32.504 -0.4311 -0.6749 -0.9705
 2157TIP3   OH228029   1.725   3.383  28.777  0.2651 -0.4215 -0.6920
 2157TIP3    H128030   1.777   3.461  28.798  0.2911 -0.7423  0.5228
 2157TIP3    H228031   1.781   3.310  28.805 -0.0623 -0.8484 -1.1465
 2158TIP3   OH228032   0.895   2.587   2.534  0.3238  0.2943  0.0717
 2158TIP3    H128033   0.832   2.570   2.604 -1.1635 -0.3934 -1.3601
 2158TIP3    H228034   0.880   2.678   2.509 -2.0295 -0.5423 -1.9778
 2159TIP3   OH228035   1.647   0.970  25.850  0.6940  0.2539 -0.4688
 2159TIP3    H128036   1.626   1.036  25.916 -0.5615 -0.3240 -0.2548
 2159TIP3    H228037   1.720   0.921  25.888 -0.0886 -0.1552  0.6019
 2160TIP3   OH228038   2.010   0.084   0.715 -0.4583  0.2608 -0.1783
 2160TIP3    H128039   2.003   0.148   0.644  2.5584  1.2260  0.2727
 2160TIP3    H228040   2.073   0.020   0.684 -1.1784 -0.8462  0.5719
 2161TIP3   OH228041   1.732   1.190   6.495  0.1264 -0.3199 -0.3561
 2161TIP3    H128042   1.818   1.228   6.478 -0.3504  0.5967 -0.7749
 2161TIP3    H228043   1.681   1.261   6.534 -1.0447 -0.2213 -1.9437
 2162TIP3   OH228044   2.952   0.557   7.608  0.0666  0.1378 -0.1591
 2162TIP3    H128045   2.997   0.485   7.565 -1.0396 -0.4564 -0.3534
 2162TIP3    H228046   2.892   0.516   7.670 -0.0499  0.9139  0.2632
 2163TIP3   OH228047   2.267   0.640  17.973 -0.0164 -0.1791  0.0491
 2163TIP3    H128048   2.221   0.718  17.940 -0.5495 -0.4490  0.1333
 2163TIP3    H228049   2.208   0.567  17.951  0.4055 -0.5384  0.1079
 2164TIP3   OH228050   0.356   2.920   2.979 -0.0570 -0.9728  0.0970
 2164TIP3    H128051   0.373   2.997   3.032 -0.0707 -0.1441 -1.0585
 2164TIP3    H228052   0.302   2.863   3.035 -2.8882  1.2907 -0.0774
 2165TIP3   OH228053   1.634   2.636  22.582  0.2282 -0.0897  0.1311
 2165TIP3    H128054   1.553   2.585  22.593 -1.5086  2.0864 -1.6656
 2165TIP3    H228055   1.648   2.676  22.668 -1.4141  0.5670  0.1325
 2166TIP3   OH228056   0.844   2.254   5.194 -0.8225  0.5141 -0.2238
 2166TIP3    H128057   0.828   2.197   5.119  0.6909 -0.4365  0.1326
 2166TIP3    H228058   0.757   2.281   5.223 -1.6144 -1.7575 -0.3139
 2167TIP3   OH228059   0.187   1.879  23.624 -0.2589 -0.3746  0.1430
 2167TIP3    H128060   0.109   1.911  23.668 -0.1870 -0.0220  0.0173
 2167TIP3    H228061   0.157   1.854  23.536 -0.2878 -0.5144  0.1939
 2168TIP3   OH228062   1.232   0.409  28.494 -0.4243  0.0208 -0.0867
 2168TIP3    H128063   1.151   0.369  28.524  0.0373 -0.9359 -0.0602
 2168TIP3    H228064   1.265   0.457  28.570 -0.2899 -0.7109  0.3262
 2169TIP3   OH228065   1.043   2.534  27.689  0.1352 -0.4057 -0.4293
 2169TIP3    H128066   1.068   2.448  27.725  2.8008  0.6399  0.4326
 2169TIP3    H228067   1.088   2.597  27.745 -3.3912  1.7589  0.2800
 2170TIP3   OH228068   2.080   2.101  13.962  0.1980 -0.4597  0.0131
 2170TIP3    H128069   2.127   2.179  13.933  0.9423 -1.0443 -0.3870
 2170TIP3    H228070   2.077   2.110  14.058  0.0288  0.1889 -0.0462
 2171TIP3   OH228071   0.644   2.611   0.987 -0.4212 -0.3809  0.2759
 2171TIP3    H128072   0.708   2.641   1.051 -0.5558 -0.0279  0.2521
 2171TIP3    H228073   0.652   2.674   0.915 -2.3356  1.0403  1.2051
 2172TIP3   OH228074   3.427   2.762   4.220 -0.3145 -0.0301  0.1245
 2172TIP3    H128075   3.411   2.697   4.151 -0.4411  1.6519 -1.5187
 2172TIP3    H228076   3.401   2.845   4.181 -0.3785  1.0135  2.2324
 2173TIP3   OH228077   0.996   0.545   2.372 -0.0564 -0.3076  0.5687
 2173TIP3    H128078   0.945   0.523   2.450 -1.5795  1.0427  0.0269
 2173TIP3    H228079   0.941   0.516   2.299  0.3541  0.3983 -0.0320
 2174TIP3   OH228080   0.559   0.856   3.597  0.1935  0.1136  0.2606
 2174TIP3    H128081   0.655   0.856   3.599  0.2358 -0.9350 -0.4734
 2174TIP3    H228082   0.536   0.941   3.560  0.9479 -0.3453 -1.4021
 2175TIP3   OH228083   0.313   3.147   0.000 -0.4025  0.0629 -0.6199
 2175TIP3    H128084   0.370   3.223  -0.016 -1.3961  0.6454 -1.5498
 2175TIP3    H228085   0.239   3.161  -0.058 -1.4720 -0.7071  0.5171
 2176TIP3   OH228086   1.408   2.552  32.234  0.1591  0.0283 -0.2788
 2176TIP3    H128087   1.348   2.560  32.308 -0.5250 -1.7826 -0.5761
 2176TIP3    H228088   1.351   2.558  32.157  0.4893 -0.6870 -0.5852
 2177TIP3   OH228089   2.364   1.585   2.091  0.3292 -0.3844  0.4248
 2177TIP3    H128090   2.310   1.573   2.170 -0.7177  0.4541 -0.1362
 2177TIP3    H228091   2.447   1.619   2.124 -0.4932  1.0765  1.1005
 2178TIP3   OH228092   2.935   2.357  19.064  0.3615  0.1419 -0.5394
 2178TIP3    H128093   2.909   2.421  18.997  0.4127 -1.6277 -2.3513
 2178TIP3    H228094   2.861   2.296  19.068  0.8920 -0.4647  0.1248
 2179TIP3   OH228095   3.223   1.450   2.351  0.0179 -0.7121  0.3757
 2179TIP3    H128096   3.157   1.387   2.322  0.0950 -0.5462 -0.1854
 2179TIP3    H228097   3.243   1.501   2.272 -2.0212  1.8353  1.3214
 2180TIP3   OH228098   2.650   3.486   1.277 -0.4064  0.0355  0.2742
 2180TIP3    H128099   2.726   3.518   1.227 -0.6519 -0.9217 -0.7666
 2180TIP3    H228100   2.631   3.400   1.238 -1.8871  0.1595  0.6698
 2181TIP3   OH228101   2.704   1.668  32.080  0.2985  0.0764 -0.1932
 2181TIP3    H128102   2.637   1.640  32.018 -0.4259 -1.5265  1.2367
 2181TIP3    H228103   2.677   1.631  32.164  1.4317  1.8537  1.0530
 2182TIP3   OH228104   0.429   1.732  30.603  0.2371 -0.3509  0.1714
 2182TIP3    H128105   0.359   1.780  30.557 -0.4561 -0.5926  0.9415
 2182TIP3    H228106   0.488   1.799  30.635  0.2524 -0.1303 -0.3039
 2183TIP3   OH228107   0.993   2.082   3.202  0.2536 -0.0361  0.0298
 2183TIP3    H128108   1.068   2.140   3.213 -1.3842  2.1104  0.5570
 2183TIP3    H228109   0.966   2.060   3.291 -0.0240 -0.4310 -0.1448
 2184TIP3   OH228110   3.012   1.901  18.569  0.5620  0.0577  0.0435
 2184TIP3    H128111   3.100   1.924  18.537  1.1197 -0.6802  1.0136
 2184TIP3    H228112   3.004   1.807  18.554 -0.2820  0.2020 -0.5099
 2185TIP3   OH228113   0.814   2.536   3.793 -0.3376  0.4191 -0.5519
 2185TIP3    H128114   0.901   2.504   3.816 -0.4378  0.2154 -0.4567
 2185TIP3    H228115   0.795   2.602   3.860 -0.7517 -0.3818  0.1299
 2186TIP3   OH228116   1.362   3.310   6.239  0.1587  0.5651 -0.0300
 2186TIP3    H128117   1.373   3.268   6.324 -2.3629 -2.2616 -0.9353
 2186TIP3    H228118   1.447   3.298   6.196 -0.0364 -2.7940  0.2182
 2187TIP3   OH228119   0.079   2.197   6.064 -0.4436  0.2149  0.1810
 2187TIP3    H128120   0.078   2.129   6.131 -0.6638  1.1960  1.2156
 2187TIP3    H228121   0.022   2.164   5.994 -0.5292 -0.6527  0.6579
 2188TIP3   OH228122   3.400   1.130   4.788  0.5173  0.4229 -0.4868
 2188TIP3    H128123   3.438   1.042   4.793 -1.0832 -0.2269  1.2472
 2188TIP3    H228124   3.464   1.187   4.829  1.1773 -0.0664 -0.8207
 2189TIP3   OH228125   0.834   2.136   5.608  0.4639  0.5753 -0.2425
 2189TIP3    H128126   0.763   2.085   5.567 -0.1700 -0.6433  2.1336
 2189TIP3    H228127   0.892   2.159   5.536 -2.5849  2.1303 -2.4371
 2190TIP3   OH228128   0.514   3.339   1.673 -0.8856 -0.5731 -0.5207
 2190TIP3    H128129   0.457   3.285   1.619 -0.4096 -2.8879  1.1282
 2190TIP3    H228130   0.458   3.368   1.745 -0.9480  0.5407 -1.0050
 2191TIP3   OH228131   1.717   2.356   3.898  0.2435  0.3942 -0.3051
 2191TIP3    H128132   1.711   2.265   3.928  2.9518  0.7102  1.5278
 2191TIP3    H228133   1.800   2.360   3.850  1.7900  2.4614  2.2872
 2192TIP3   OH228134   2.095   1.784  21.269  0.0955  0.0550 -0.1753
 2192TIP3    H128135   2.138   1.701  21.292 -0.9278 -0.0812  1.3784
 2192TIP3    H228136   2.017   1.787  21.324  0.3319  2.2716  0.1448
 2193TIP3   OH228137   2.876   2.565   1.693 -0.2463 -0.6224  0.1946
 2193TIP3    H128138   2.879   2.503   1.620 -0.9645 -1.8846  1.1733
 2193TIP3    H228139   2.952   2.542   1.747  1.3089  1.4521 -0.9671
 2194TIP3   OH228140   1.280   0.935   1.319  0.7316 -0.4027  0.2858
 2194TIP3    H128141   1.203   0.981   1.285  0.8734  1.7891  2.6625
 2194TIP3    H228142   1.250   0.845   1.331 -1.3211  0.2632  0.6517
 2195TIP3   OH228143   0.107   0.853   2.465  0.1213  0.3170 -0.2990
 2195TIP3    H128144   0.047   0.853   2.539 -2.0186  0.5852 -1.9142
 2195TIP3    H228145   0.111   0.944   2.436  0.2715  0.1039 -0.9837
 2196TIP3   OH228146   0.870   1.298  32.313  0.1189 -0.4031  0.3570
 2196TIP3    H128147   0.965   1.311  32.308 -0.0140  0.7787  0.6170
 2196TIP3    H228148   0.856   1.213  32.272  1.2503 -0.3987 -0.0882
 2197TIP3   OH228149   1.284   0.400   0.184  0.1031 -0.0091  0.2530
 2197TIP3    H128150   1.356   0.459   0.206  0.0719  0.3766 -0.6326
 2197TIP3    H228151   1.326   0.316   0.165  0.2886  0.1250  0.0705
 2198TIP3   OH228152   3.296   2.000   2.446 -0.2014 -0.1939 -0.4217
 2198TIP3    H128153   3.208   2.014   2.481 -0.5678 -0.3904 -1.2346
 2198TIP3    H228154   3.328   1.921   2.490 -0.3287  0.0132  0.0518
 2199TIP3   OH228155   1.772   1.080  18.990  0.1099 -0.3426 -0.1712
 2199TIP3    H128156   1.824   1.026  19.050  1.2704  0.2508 -0.6142
 2199TIP3    H228157   1.769   1.166  19.033  0.3206 -0.1127 -0.6183
 2200TIP3   OH228158   2.265   1.600   2.763 -0.5645  0.2985  0.1518
 2200TIP3    H128159   2.214   1.659   2.708 -0.2957  1.1109  0.7397
 2200TIP3    H228160   2.352   1.640   2.766 -1.0264  1.2997  2.5991
 2201TIP3   OH228161   1.136   1.765   4.826 -0.3256  0.3133  0.0561
 2201TIP3    H128162   1.131   1.849   4.872  0.4368  0.5034 -0.1909
 2201TIP3    H228163   1.227   1.760   4.796 -0.7109  0.0060 -1.0906
 2202TIP3   OH228164   2.281   1.061  28.501 -0.6495  0.2788  0.0505
 2202TIP3    H128165   2.190   1.055  28.472 -0.0942 -0.3148 -1.6858
 2202TIP3    H228166   2.286   0.997  28.572 -1.3810 -0.3665 -0.4478
 2203TIP3   OH228167   1.606   0.594  25.859 -0.1388 -0.5487  0.0809
 2203TIP3    H128168   1.595   0.647  25.780 -0.2137  3.5654  2.6056
 2203TIP3    H228169   1.534   0.621  25.916  1.4554 -1.3452  2.6177
 2204TIP3   OH228170   0.600   0.530   6.420  0.4414  0.9189  0.0537
 2204TIP3    H128171   0.506   0.511   6.418  0.7558 -0.9400  0.7485
 2204TIP3    H228172   0.626   0.527   6.328  0.1059 -0.3272 -0.0267
 2205TIP3   OH228173   0.730   1.554   0.924 -0.4925 -0.2470 -0.8444
 2205TIP3    H128174   0.657   1.508   0.883  1.4410 -1.7679 -2.8246
 2205TIP3    H228175   0.737   1.636   0.875 -0.6054 -0.2900 -0.9327
 2206TIP3   OH228176   3.055   0.141   1.414  0.3807  0.2130 -0.2512
 2206TIP3    H128177   2.992   0.080   1.454  0.7048  0.1876  0.2258
 2206TIP3    H228178   3.102   0.087   1.350  2.0487 -0.5930  1.5554
 2207TIP3   OH228179   2.569   0.162   5.274  0.1466  0.4764  0.4923
 2207TIP3    H128180   2.511   0.112   5.331  1.2345  0.1200  1.3174
 2207TIP3    H228181   2.657   0.135   5.300  0.6838  0.3141 -1.3463
 2208TIP3   OH228182   2.772   2.929  31.546  0.4976 -0.2941 -0.2681
 2208TIP3    H128183   2.733   2.948  31.461 -0.3995  0.8186  0.3719
 2208TIP3    H228184   2.790   2.835  31.543 -2.1925 -0.8834 -0.6417
 2209TIP3   OH228185   0.280   0.609   4.225  0.0470  0.0420 -0.1703
 2209TIP3    H128186   0.323   0.530   4.193  2.0921  1.1291 -0.2693
 2209TIP3    H228187   0.307   0.677   4.164 -0.1770  1.1785  0.9564
 2210TIP3   OH228188   0.504   1.394   2.285 -0.4204  0.4336 -0.2472
 2210TIP3    H128189   0.575   1.330   2.283 -0.9035 -0.1580  0.7688
 2210TIP3    H228190   0.465   1.385   2.372 -3.5888 -1.3514 -1.6510
 2211TIP3   OH228191   0.502   1.530   5.213  0.5148 -0.1132  0.4488
 2211TIP3    H128192   0.503   1.617   5.252 -1.1036  0.0736  0.1298
 2211TIP3    H228193   0.583   1.527   5.160  0.1322  1.5657 -0.3025
 2212TIP3   OH228194   1.126   2.131   3.856  0.6213  0.7292 -0.3734
 2212TIP3    H128195   1.152   2.135   3.764 -1.2794  0.9577 -0.9258
 2212TIP3    H228196   1.144   2.041   3.882  0.5655  0.4888 -1.1490
 2213TIP3   OH228197   1.207   2.813   2.085 -0.4846  0.0831  0.2729
 2213TIP3    H128198   1.235   2.770   2.005 -0.7774 -4.8680  2.4922
 2213TIP3    H228199   1.113   2.826   2.075 -0.6861 -1.3964  0.1416
 2214TIP3   OH228200   1.716   2.680   7.120  0.8046  0.1689 -0.0594
 2214TIP3    H128201   1.651   2.746   7.096  0.1174 -0.6615 -0.5402
 2214TIP3    H228202   1.674   2.629   7.189  1.8058  0.9759  1.1754
 2215TIP3   OH228203   1.108   2.299  28.077 -0.1537  0.5608  0.3315
 2215TIP3    H128204   1.100   2.222  28.133 -2.4099 -0.4020 -1.1739
 2215TIP3    H228205   1.202   2.320  28.079  0.7531 -2.8390  0.0026
 2216TIP3   OH228206   2.592   1.454  30.522 -0.5840  0.5331  0.5619
 2216TIP3    H128207   2.507   1.425  30.555  0.1122 -0.5001  1.5134
 2216TIP3    H228208   2.651   1.446  30.597  0.7064 -0.3345 -0.5007
 2217TIP3   OH228209   1.909   1.798   6.370 -0.0775  0.5899  0.0002
 2217TIP3    H128210   1.996   1.759   6.370  0.4836  1.7842  0.4553
 2217TIP3    H228211   1.907   1.852   6.291 -0.5050  0.3386 -0.1590
 2218TIP3   OH228212   2.407   0.058   4.194  0.1149  0.6394  0.3110
 2218TIP3    H128213   2.490   0.032   4.153  0.0277  0.3826  0.2952
 2218TIP3    H228214   2.430   0.135   4.246 -0.0263  1.7263 -1.1953
 2219TIP3   OH228215   0.516   3.536  31.014  0.2774  0.0427 -0.2640
 2219TIP3    H128216   0.513   3.553  31.108 -0.8614 -5.7614  1.1649
 2219TIP3    H228217   0.444   3.588  30.977  0.6070  2.2933  2.0053
 2220TIP3   OH228218   2.491   2.719  27.841 -0.1365 -0.5944  0.2568
 2220TIP3    H128219   2.534   2.739  27.758 -2.3640 -0.5112 -0.9408
 2220TIP3    H228220   2.491   2.803  27.888  1.6511 -0.7735  0.6491
 2221TIP3   OH228221   2.519   2.687  29.955 -0.3581 -0.8970 -0.3545
 2221TIP3    H128222   2.586   2.749  29.925 -3.0795  2.3523 -0.3158
 2221TIP3    H228223   2.454   2.686  29.885 -2.5043 -0.2324  1.5068
 2222TIP3   OH228224   3.256   1.236  32.352  0.4200 -0.3384 -0.3625
 2222TIP3    H128225   3.261   1.208  32.443 -0.1528 -0.3520 -0.3308
 2222TIP3    H228226   3.169   1.275  32.344  0.9167  0.7559 -0.5956
 2223TIP3   OH228227   1.194   2.416   1.287  0.3248 -0.0734 -0.0902
 2223TIP3    H128228   1.159   2.412   1.376  0.4338 -1.1013 -0.0839
 2223TIP3    H228229   1.221   2.507   1.277  0.6510 -0.0189  1.0609
 2224TIP3   OH228230   2.648   0.119  31.973 -0.5462 -0.7789 -0.0206
 2224TIP3    H128231   2.652   0.025  31.952 -0.2620 -0.1351 -3.3779
 2224TIP3    H228232   2.583   0.154  31.912  0.9130  1.5217 -0.3627
 2225TIP3   OH228233   2.144   0.049  28.409  0.0324 -0.3000  0.9160
 2225TIP3    H128234   2.137   0.143  28.427  0.0556 -0.4304  1.6650
 2225TIP3    H228235   2.238   0.032  28.406  0.0301 -0.3770  1.2397
 2226TIP3   OH228236   2.884   1.183  26.365  0.0998 -0.4497  0.0286
 2226TIP3    H128237   2.885   1.125  26.288  1.2036 -1.0482  0.4843
 2226TIP3    H228238   2.878   1.271  26.328 -1.5555 -0.8032 -0.6800
 2227TIP3   OH228239   2.857   1.416  32.909  0.1290  0.5273 -0.4373
 2227TIP3    H128240   2.886   1.366  32.833  0.1797  0.0724 -0.1182
 2227TIP3    H228241   2.796   1.359  32.954  1.2501  0.1852  0.6944
 2228TIP3   OH228242   0.235   2.438   3.182 -0.2880 -0.1945  0.2167
 2228TIP3    H128243   0.281   2.403   3.105  0.6753  0.2907  0.5576
 2228TIP3    H228244   0.220   2.362   3.238  1.7411 -0.1229  0.9289
 2229TIP3   OH228245   2.934   1.830   0.353  0.4690 -0.9833  0.9310
 2229TIP3    H128246   3.025   1.838   0.382  1.2980  0.1751 -1.6705
 2229TIP3    H228247   2.939   1.785   0.269 -0.8821  2.0670 -0.9874
 2230TIP3   OH228248   1.176   1.901   5.611 -0.6639  0.5361 -0.7115
 2230TIP3    H128249   1.129   1.983   5.594  0.9171  1.3131 -1.5128
 2230TIP3    H228250   1.268   1.926   5.613  0.0486 -1.4894 -3.0851
 2231TIP3   OH228251   0.437   1.164   6.382 -0.1033 -0.1261 -0.2422
 2231TIP3    H128252   0.430   1.238   6.442  0.5573 -0.7757  0.6602
 2231TIP3    H228253   0.446   1.088   6.438  1.5447 -0.6540 -1.1513
 2232TIP3   OH228254   2.171   1.934   4.210  0.0847 -0.3159 -0.3525
 2232TIP3    H128255   2.224   1.856   4.227  0.5662  0.0582 -0.0981
 2232TIP3    H228256   2.148   1.928   4.118 -1.9930 -2.0423  0.1803
 2233TIP3   OH228257   3.349   2.499  31.636  0.4706 -0.1373 -0.0902
 2233TIP3    H128258   3.381   2.451  31.713 -0.5678 -3.7622 -1.7043
 2233TIP3    H228259   3.261   2.464  31.621  0.6385  0.4082 -2.8992
 2234TIP3   OH228260   1.343   0.250  14.273 -0.5979  0.5869 -0.0600
 2234TIP3    H128261   1.348   0.304  14.351  0.5845  2.0150 -1.0772
 2234TIP3    H228262   1.432   0.249  14.238 -0.0336 -3.7545  0.9570
 2235TIP3   OH228263   2.021   1.435  30.181 -0.5443  0.2846 -0.3081
 2235TIP3    H128264   2.115   1.418  30.182 -0.2011  1.6869 -2.4354
 2235TIP3    H228265   2.001   1.459  30.272  0.6541 -2.1284  0.7059
 2236TIP3   OH228266   2.867   1.775   0.631  0.2158  0.3338  1.0422
 2236TIP3    H128267   2.882   1.788   0.537 -0.3271  0.6203  0.9907
 2236TIP3    H228268   2.848   1.862   0.665  1.0880  0.3388  1.5570
 2237TIP3   OH228269   0.866   0.359  29.570  0.0857  0.1987  0.3852
 2237TIP3    H128270   0.784   0.322  29.603 -1.3243  2.1611 -0.7116
 2237TIP3    H228271   0.909   0.286  29.525 -3.0788 -0.0200 -2.6555
 2238TIP3   OH228272   3.346   2.756  29.557  0.0049  0.2290 -0.1270
 2238TIP3    H128273   3.401   2.700  29.612 -0.3844  0.5609  0.6324
 2238TIP3    H228274   3.406   2.820  29.520  0.5276 -0.9151 -1.3465
 2239TIP3   OH228275   3.404   1.689  19.191  0.0798  0.4362  0.1146
 2239TIP3    H128276   3.380   1.707  19.101  1.1365 -0.8770 -0.4595
 2239TIP3    H228277   3.495   1.720  19.198  0.2250 -0.0753  0.5368
 2240TIP3   OH228278   1.197   2.943  32.794 -0.2475  0.0098  0.1720
 2240TIP3    H128279   1.167   2.853  32.786  1.9600 -0.7409 -0.2275
 2240TIP3    H228280   1.120   2.991  32.823 -1.9011 -1.7034 -1.1249
 2241TIP3   OH228281   0.352   2.260   2.740  0.5540  0.4650  0.1800
 2241TIP3    H128282   0.281   2.216   2.694  1.3446 -1.9019  1.0667
 2241TIP3    H228283   0.314   2.282   2.826  1.3004 -2.6638  1.4679
 2242TIP3   OH228284   1.263   2.798  10.138 -0.0878  0.2080  0.4557
 2242TIP3    H128285   1.342   2.826  10.184 -0.2445  1.3569  0.0573
 2242TIP3    H228286   1.280   2.707  10.113  0.5767  0.0264  1.5093
 2243TIP3   OH228287   2.609   2.948   0.760  0.4545  0.0843 -0.1195
 2243TIP3    H128288   2.519   2.918   0.749  0.7739 -0.5869 -1.1280
 2243TIP3    H228289   2.650   2.882   0.816  0.9497 -1.0119 -1.6982
 2244TIP3   OH228290   0.498   0.342  28.175  0.1125 -0.1416  0.4608
 2244TIP3    H128291   0.410   0.306  28.176 -0.3262  0.5907 -2.3172
 2244TIP3    H228292   0.489   0.426  28.130  2.0466  0.5210  1.2197
 2245TIP3   OH228293   3.075   0.784  28.595 -0.1603  0.3389 -0.0294
 2245TIP3    H128294   3.102   0.725  28.665  3.5545  0.2519 -1.3190
 2245TIP3    H228295   3.092   0.872  28.630  0.1656  0.3625 -0.2427
 2246TIP3   OH228296   2.647   0.920  18.594  0.4915 -1.3200  0.1743
 2246TIP3    H128297   2.561   0.896  18.559 -0.5451  0.0422  1.6448
 2246TIP3    H228298   2.700   0.939  18.517 -0.4196 -2.4596 -0.7774
 2247TIP3   OH228299   3.530   1.614  26.569  0.3957 -0.0848 -0.6774
 2247TIP3    H128300   3.553   1.549  26.503 -1.6103 -1.2594 -0.2939
 2247TIP3    H228301   3.453   1.578  26.613  1.0460  1.1355  1.6363
 2248TIP3   OH228302   0.557   3.214  29.994 -0.0495 -0.9798 -0.2981
 2248TIP3    H128303   0.529   3.154  30.064 -0.1951 -0.0537  0.4608
 2248TIP3    H228304   0.651   3.199  29.985 -0.4064 -2.8440 -1.6276
 2249TIP3   OH228305   0.700   3.360  28.186 -0.3902 -0.9971  0.3120
 2249TIP3    H128306   0.749   3.424  28.135 -2.1735 -0.3877 -0.7317
 2249TIP3    H228307   0.674   3.293  28.123  0.9377 -2.4876  1.2783
 2250TIP3   OH228308   1.622   3.309  14.246 -0.5909 -0.4191 -0.3680
 2250TIP3    H128309   1.692   3.280  14.304  0.2640  0.7856 -0.7579
 2250TIP3    H228310   1.549   3.250  14.264 -0.2151 -0.3179  1.6243
 2251TIP3   OH228311   2.368   0.207  13.738  0.1404 -0.3102  0.6701
 2251TIP3    H128312   2.297   0.266  13.764  0.6515  0.6352 -0.0163
 2251TIP3    H228313   2.443   0.236  13.790 -0.3116 -2.2647  2.5050
 2252TIP3   OH228314   1.774   1.052   2.109 -0.1831  0.4780 -0.4755
 2252TIP3    H128315   1.870   1.061   2.113 -0.1067  0.7666 -2.1923
 2252TIP3    H228316   1.760   0.973   2.057 -0.9143 -0.6887  1.4019
 2253TIP3   OH228317   1.546   0.547  12.291 -0.9193  0.2412 -0.7201
 2253TIP3    H128318   1.509   0.629  12.323 -0.5282 -0.6038  2.1990
 2253TIP3    H228319   1.486   0.480  12.322 -0.6001 -0.6807 -2.0253
 2254TIP3   OH228320   1.701   2.674  28.603  0.0552  0.5897 -0.5982
 2254TIP3    H128321   1.654   2.751  28.636  1.9798  1.6589 -0.1776
 2254TIP3    H228322   1.669   2.662  28.514 -2.9845 -0.4551  0.4698
 2255TIP3   OH228323   0.616   1.785  29.337  0.7603 -0.5643 -0.0224
 2255TIP3    H128324   0.564   1.851  29.383 -0.0275 -2.5500  2.1502
 2255TIP3    H228325   0.568   1.771  29.255  0.3617  0.7774 -0.0503
 2256TIP3   OH228326   0.237   0.370   4.842 -0.6137 -0.1880 -0.4474
 2256TIP3    H128327   0.200   0.441   4.789  0.0520  0.8430  0.4364
 2256TIP3    H228328   0.330   0.370   4.821 -0.8094 -1.8615 -1.6016
 2257TIP3   OH228329   0.118   2.112  21.569 -0.1949  0.1546 -0.0853
 2257TIP3    H128330   0.045   2.110  21.507  0.9108  1.9490 -1.5577
 2257TIP3    H228331   0.078   2.136  21.652 -1.7219 -2.3522  0.0088
 2258TIP3   OH228332   0.446   2.650   0.134  0.7332  0.4251  0.3470
 2258TIP3    H128333   0.438   2.569   0.084  0.3333  0.2497  0.6824
 2258TIP3    H228334   0.526   2.639   0.186  0.5099  0.1046  0.6310
 2259TIP3   OH228335   2.865   1.631  18.839  0.1901 -0.0761  0.2226
 2259TIP3    H128336   2.816   1.701  18.882  0.7901  0.4589  0.0530
 2259TIP3    H228337   2.938   1.613  18.898  0.8515  0.4558 -0.4154
 2260TIP3   OH228338   0.332   1.624  23.632 -0.1894 -0.3576 -0.4144
 2260TIP3    H128339   0.261   1.582  23.583  0.7896 -2.8433  0.1157
 2260TIP3    H228340   0.395   1.649  23.565 -0.8674  0.4685 -0.7606
 2261TIP3   OH228341   0.502   2.707   3.097  0.4445 -0.2730 -0.3971
 2261TIP3    H128342   0.478   2.791   3.058  1.5911  0.1529 -0.2281
 2261TIP3    H228343   0.581   2.726   3.147  0.5168 -1.3864 -0.0680
 2262TIP3   OH228344   1.915   3.026   4.387  0.1377  0.3713 -0.7670
 2262TIP3    H128345   1.891   3.058   4.475 -1.4708  2.1614 -1.7819
 2262TIP3    H228346   1.972   3.094   4.352  0.5091 -0.1778 -1.2460
 2263TIP3   OH228347   0.647   0.073   2.281  0.2775 -0.2399 -0.5554
 2263TIP3    H128348   0.623   0.029   2.200 -1.8553 -0.3962  0.0855
 2263TIP3    H228349   0.679   0.004   2.338 -1.4126 -0.7405 -0.1525
 2264TIP3   OH228350   1.351   1.390  25.257  0.0963 -0.4025  0.5223
 2264TIP3    H128351   1.407   1.365  25.330  2.7175  0.7770 -0.9375
 2264TIP3    H228352   1.389   1.345  25.181 -0.7438  0.6765 -0.5808
 2265TIP3   OH228353   0.468   3.499  28.258 -0.3158 -0.1421  0.1807
 2265TIP3    H128354   0.560   3.483  28.234  0.0272  2.1240 -0.2355
 2265TIP3    H228355   0.418   3.465  28.184  0.5360  3.2026 -2.1712
 2266TIP3   OH228356   0.814   0.984   3.728  0.0057 -0.2874  0.9045
 2266TIP3    H128357   0.821   1.025   3.642  0.7786 -0.1347  1.0397
 2266TIP3    H228358   0.872   1.034   3.784 -0.6806 -0.2275  1.5851
 2267TIP3   OH228359   2.327   3.349  28.564  0.1382 -0.3691  0.1551
 2267TIP3    H128360   2.343   3.442  28.553  1.8031 -0.6315  0.1605
 2267TIP3    H228361   2.234   3.343  28.586  0.1523  1.3377  0.7845
 2268TIP3   OH228362   1.393   2.661  11.947 -0.6938 -0.7819 -0.0259
 2268TIP3    H128363   1.386   2.705  12.031 -1.4435 -1.1546  0.1186
 2268TIP3    H228364   1.486   2.642  11.937 -0.4487  0.2567  0.1946
 2269TIP3   OH228365   1.941   1.080   6.685  0.6251 -0.1375  0.0718
 2269TIP3    H128366   1.859   1.079   6.636  1.1727 -0.7514 -0.8731
 2269TIP3    H228367   1.989   1.155   6.650  0.7319 -0.1711  0.1460
 2270TIP3   OH228368   0.001   1.821   5.429  0.6385 -0.3806  0.1170
 2270TIP3    H128369  -0.077   1.790   5.475  1.3391 -0.9536  0.9863
 2270TIP3    H228370  -0.001   1.777   5.344  0.2917 -0.8121  0.3464
 2271TIP3   OH228371   2.427   1.350  19.102 -0.2734  0.4141 -0.4121
 2271TIP3    H128372   2.416   1.441  19.129 -1.1331  0.8897 -2.2355
 2271TIP3    H228373   2.394   1.347  19.013 -2.2262 -2.1179  0.2600
 2272TIP3   OH228374   1.691   2.901  31.690  0.8610 -0.2991 -0.4752
 2272TIP3    H128375   1.690   2.895  31.594  0.4595  1.7670 -0.6631
 2272TIP3    H228376   1.767   2.955  31.710  1.4934 -1.4927  0.4685
 2273TIP3   OH228377   2.692   1.973   3.353 -0.0581  0.9588  0.7408
 2273TIP3    H128378   2.694   1.906   3.286  0.6179  1.3526  0.3597
 2273TIP3    H228379   2.612   1.955   3.403  0.2612 -0.2897  0.8208
 2274TIP3   OH228380   3.478   1.084   0.722  0.6215  0.3167  0.1861
 2274TIP3    H128381   3.398   1.064   0.673  0.8409  0.1834 -0.1187
 2274TIP3    H228382   3.492   1.007   0.777  1.2331 -0.2006 -0.6790
 2275TIP3   OH228383   1.057   2.863  27.648  0.2244 -0.3812  0.5860
 2275TIP3    H128384   1.139   2.833  27.608  0.7695  1.2638  0.3673
 2275TIP3    H228385   1.074   2.954  27.671 -1.7179  0.1626  0.0772
 2276TIP3   OH228386   0.824   2.545   4.794 -0.0225 -0.5827  0.4565
 2276TIP3    H128387   0.867   2.460   4.783 -0.2961 -0.5766 -0.7861
 2276TIP3    H228388   0.885   2.596   4.847  0.2654 -1.4615  0.9982
 2277TIP3   OH228389   0.744   0.323  28.260 -0.7099 -0.0512 -0.2061
 2277TIP3    H128390   0.781   0.237  28.240  0.1947 -0.0550  1.3254
 2277TIP3    H228391   0.655   0.320  28.225  0.2141 -0.5769 -2.6669
 2278TIP3   OH228392   1.327   3.221  13.026  0.1197 -0.4001 -0.3995
 2278TIP3    H128393   1.340   3.285  13.096 -0.3525 -0.8148  0.0707
 2278TIP3    H228394   1.385   3.149  13.049  0.2876 -0.3530 -0.6705
 2279TIP3   OH228395   3.179   1.200   5.208  0.0839 -0.2313  0.0366
 2279TIP3    H128396   3.088   1.227   5.213  0.1523 -0.2193  2.0778
 2279TIP3    H228397   3.198   1.197   5.114 -1.6330  0.9875 -0.4013
 2280TIP3   OH228398   2.974   1.011   1.260  0.2154 -0.4528  0.9484
 2280TIP3    H128399   2.998   1.100   1.285 -3.7149  1.2190 -0.4315
 2280TIP3    H228400   3.037   0.988   1.191  1.6611  0.9626  1.7214
 2281TIP3   OH228401   2.047   1.110   2.139  0.2642  0.2065  0.9786
 2281TIP3    H128402   2.090   1.043   2.085  0.4348 -0.5994  2.0769
 2281TIP3    H228403   2.119   1.166   2.169  0.1454  0.7754  0.2225
 2282TIP3   OH228404   2.980   2.427   5.822 -0.1401  0.0513 -0.3114
 2282TIP3    H128405   3.013   2.449   5.735 -1.8348 -0.9276 -1.2427
 2282TIP3    H228406   3.050   2.454   5.881  1.9540 -1.1776 -2.0998
 2283TIP3   OH228407   3.062   2.987  12.035 -0.0974 -0.2180 -0.2375
 2283TIP3    H128408   3.070   2.930  11.959 -2.5364 -1.6149  0.4290
 2283TIP3    H228409   3.010   3.061  12.004 -0.1208 -0.2196 -0.2022
 2284TIP3   OH228410   3.525   0.292  32.613 -0.5100  0.1023  0.0411
 2284TIP3    H128411   3.452   0.253  32.565  0.2856  1.3970 -2.4386
 2284TIP3    H228412   3.531   0.382  32.579  3.6839 -0.6343 -1.9029
 2285TIP3   OH228413   2.218   0.704   2.717 -0.1040 -0.4697  0.0956
 2285TIP3    H128414   2.194   0.612   2.704  1.0791 -0.7901  0.1440
 2285TIP3    H228415   2.313   0.706   2.709 -0.1659  0.8531 -0.4932
 2286TIP3   OH228416   1.743   2.880   6.027 -0.1830 -0.0485  0.6367
 2286TIP3    H128417   1.731   2.805   5.968  1.2503 -0.8634  1.3342
 2286TIP3    H228418   1.833   2.909   6.011 -0.7693  1.6999  0.2278
 2287TIP3   OH228419   0.622   2.084  24.629  0.1038  0.3833  0.0386
 2287TIP3    H128420   0.567   2.006  24.643  0.6433 -0.0052  0.0273
 2287TIP3    H228421   0.653   2.075  24.538  1.5718 -0.3093  0.5763
 2288TIP3   OH228422   2.503   2.507  31.604  0.2560 -0.1942 -0.7111
 2288TIP3    H128423   2.473   2.424  31.567  2.0338 -1.0488 -0.3323
 2288TIP3    H228424   2.448   2.520  31.682 -1.9559  0.4713 -2.2884
 2289TIP3   OH228425   0.297   2.797   4.937 -0.1982 -0.2355  0.2728
 2289TIP3    H128426   0.347   2.867   4.978 -1.2284  0.6180  0.1115
 2289TIP3    H228427   0.363   2.737   4.902  0.6932  0.1172  1.3196
 2290TIP3   OH228428   1.940   1.088  30.240  0.2208 -0.3231 -0.2210
 2290TIP3    H128429   1.963   1.158  30.180 -1.2573  1.5014  1.2182
 2290TIP3    H228430   1.935   1.130  30.326  1.4651 -2.6629  1.1200
 2291TIP3   OH228431   3.245   0.027  26.804 -0.1924 -0.5078 -0.0426
 2291TIP3    H128432   3.333   0.006  26.834  0.1654  1.5874  0.5880
 2291TIP3    H228433   3.248   0.011  26.709 -0.6498 -4.9921  0.5251
 2292TIP3   OH228434   0.759   0.858  28.693 -0.2499  0.4662 -0.4752
 2292TIP3    H128435   0.673   0.900  28.680 -0.3371  0.5334  0.3011
 2292TIP3    H228436   0.738   0.766  28.713 -0.0958  0.2535 -1.2551
 2293TIP3   OH228437   1.984   2.139  22.436  0.0396  0.4985  0.1534
 2293TIP3    H128438   2.004   2.226  22.401  0.0510  0.9641  1.2759
 2293TIP3    H228439   2.037   2.079  22.384  1.9481  1.3971  0.9404
 2294TIP3   OH228440   0.962   2.383  22.652  0.3109 -0.4628  0.7345
 2294TIP3    H128441   1.041   2.406  22.701 -0.4704  1.3123  1.2424
 2294TIP3    H228442   0.896   2.446  22.682 -1.0891 -1.3976 -0.2553
 2295TIP3   OH228443   0.778   1.127  32.760 -0.7804 -0.3532 -0.0673
 2295TIP3    H128444   0.853   1.121  32.820  0.3937  2.8052 -1.0387
 2295TIP3    H228445   0.809   1.084  32.680  0.3357  1.5096 -0.6919
 2296TIP3   OH228446   2.565   2.007   2.636 -0.1041  0.4642 -0.0045
 2296TIP3    H128447   2.651   1.997   2.677  1.3152  2.0100 -2.3984
 2296TIP3    H228448   2.545   2.100   2.642 -1.1061  0.3037 -0.4745
 2297TIP3   OH228449   1.449   0.402  25.749 -0.0984 -0.0125 -0.3758
 2297TIP3    H128450   1.375   0.460  25.731 -0.6170  0.0780  1.8069
 2297TIP3    H228451   1.526   0.460  25.744 -0.4965  0.6195  0.5568
 2298TIP3   OH228452   0.995   2.119  27.366  0.2506 -0.0550 -0.4383
 2298TIP3    H128453   0.962   2.192  27.418  1.3278 -0.0097  0.2171
 2298TIP3    H228454   0.955   2.131  27.280 -1.2341  0.1107  0.2362
 2299TIP3   OH228455   1.949   0.324   7.379  0.1199  0.1609  0.0301
 2299TIP3    H128456   1.986   0.412   7.384 -0.6895  0.5446 -0.4142
 2299TIP3    H228457   1.867   0.336   7.330 -0.0811 -0.8121  0.1148
 2300TIP3   OH228458   3.463   2.490  30.565  0.1182  0.0661  0.0317
 2300TIP3    H128459   3.517   2.434  30.510 -0.0586  1.5056 -1.6930
 2300TIP3    H228460   3.375   2.482  30.529  0.1935  1.8504 -0.6318
 2301TIP3   OH228461   0.205   2.049  32.183  0.0007 -0.4214 -0.2822
 2301TIP3    H128462   0.213   2.009  32.097 -0.3200  0.9855 -1.0013
 2301TIP3    H228463   0.266   2.123  32.182 -0.2358 -0.1945  0.5792
 2302TIP3   OH228464   0.429   1.809   0.198 -0.1097 -0.1149  0.2001
 2302TIP3    H128465   0.443   1.714   0.198 -0.3154 -0.1546  0.7293
 2302TIP3    H228466   0.349   1.821   0.147  0.3528 -0.1448 -0.5441
 2303TIP3   OH228467   0.202   0.391  29.549  0.2415 -0.2498 -0.2855
 2303TIP3    H128468   0.194   0.452  29.624 -0.0490 -0.0422 -0.4813
 2303TIP3    H228469   0.273   0.428  29.496 -0.0852  0.0524 -0.5214
 2304TIP3   OH228470   2.210   2.838   3.469  0.3946 -0.5551  0.1337
 2304TIP3    H128471   2.254   2.919   3.496  0.1536 -0.7539  1.1358
 2304TIP3    H228472   2.273   2.769   3.488 -0.0638 -0.7695  0.9148
 2305TIP3   OH228473   2.968   1.624  27.987  0.1417  0.1549  0.3003
 2305TIP3    H128474   3.001   1.545  28.031 -0.0503 -0.0851  0.0147
 2305TIP3    H228475   3.044   1.681  27.979  0.2894 -0.0182  0.4741
 2306TIP3   OH228476   2.968   2.031  31.612 -0.5685 -0.7225 -0.2255
 2306TIP3    H128477   2.931   2.057  31.697 -0.7119 -1.5931 -0.0092
 2306TIP3    H228478   2.937   2.098  31.551  1.7332  1.4714  0.8535
 2307TIP3   OH228479   1.212   2.611  26.920  0.2905  0.4113 -0.2985
 2307TIP3    H128480   1.149   2.637  26.853  0.1172 -1.1724 -0.7979
 2307TIP3    H228481   1.192   2.519  26.937  1.7950  0.1661  0.2865
 2308TIP3   OH228482   3.209   0.741  28.847  0.0789  0.4090  0.1282
 2308TIP3    H128483   3.127   0.715  28.888  1.3728 -0.5117  2.2886
 2308TIP3    H228484   3.247   0.805  28.907  1.6199 -0.2998 -0.0357
 2309TIP3   OH228485   2.026   0.590  28.678  1.0147  0.0031  0.1228
 2309TIP3    H128486   2.049   0.514  28.732  0.0761  0.3260  1.0070
 2309TIP3    H228487   1.966   0.555  28.612 -1.0602  0.2725  1.7549
 2310TIP3   OH228488   1.992   2.756   1.750  0.1336  0.0188 -0.4205
 2310TIP3    H128489   1.985   2.840   1.705  2.4931  0.0963 -0.7534
 2310TIP3    H228490   2.067   2.766   1.808 -0.6774 -1.2768  0.9380
 2311TIP3   OH228491   0.481   2.882   0.554 -0.0869 -0.3619  0.3044
 2311TIP3    H128492   0.576   2.873   0.553 -0.0552 -0.1996 -0.9647
 2311TIP3    H228493   0.452   2.827   0.481 -1.2473 -2.7631  2.4358
 2312TIP3   OH228494   1.982   0.115  12.362  0.9292 -0.3825  0.3976
 2312TIP3    H128495   1.984   0.070  12.278 -0.9524 -0.4354  0.3344
 2312TIP3    H228496   1.992   0.207  12.340 -0.3073 -0.3239  0.0133
 2313TIP3   OH228497   1.497   1.282   5.328 -0.1091  0.5089 -0.6766
 2313TIP3    H128498   1.410   1.263   5.364  0.0988 -1.5221 -1.1554
 2313TIP3    H228499   1.554   1.281   5.405 -0.0637 -1.2666 -0.6898
 2314TIP3   OH228500   0.265   3.481  29.326 -0.1223  0.3810 -0.0244
 2314TIP3    H128501   0.326   3.534  29.378 -3.1615  0.6801  3.6778
 2314TIP3    H228502   0.210   3.545  29.281  0.7398  0.1382 -1.4919
 2315TIP3   OH228503   1.552   3.212  30.564 -0.2535  0.2282  0.3147
 2315TIP3    H128504   1.600   3.197  30.482 -1.4030  0.4345 -0.4245
 2315TIP3    H228505   1.600   3.283  30.607 -0.9567  1.7993 -1.3444
 2316TIP3   OH228506   0.235   1.979  21.339  0.4237  0.0567  0.1410
 2316TIP3    H128507   0.258   2.022  21.257  1.0827 -1.1414 -0.3201
 2316TIP3    H228508   0.155   2.023  21.368  0.8397  1.2948 -0.5187
 2317TIP3   OH228509   0.016   0.982   4.316  0.0493 -0.0192  0.1466
 2317TIP3    H128510   0.018   1.048   4.246  2.0884 -0.2976 -0.1186
 2317TIP3    H228511   0.036   1.031   4.396 -0.5487  0.0067  0.2881
 2318TIP3   OH228512   0.066   2.023  26.204  0.0446  0.1984 -0.7642
 2318TIP3    H128513  -0.009   1.980  26.164 -0.3680  0.8983 -0.7517
 2318TIP3    H228514   0.037   2.112  26.223  0.2399 -0.0594  0.9977
 2319TIP3   OH228515   1.548   0.792   3.002 -0.4536 -0.2395 -0.7265
 2319TIP3    H128516   1.617   0.822   3.060 -0.7108 -0.2619 -0.4079
 2319TIP3    H228517   1.467   0.813   3.048 -0.6814  0.3540 -1.3697
 2320TIP3   OH228518   1.245   1.846   3.171 -0.1326 -0.3376 -0.3213
 2320TIP3    H128519   1.313   1.873   3.110 -0.2247 -1.0941 -0.7691
 2320TIP3    H228520   1.190   1.786   3.121 -0.2555 -0.8990  0.4719
 2321TIP3   OH228521   2.465   3.118  28.249 -0.5344 -0.2895 -0.2288
 2321TIP3    H128522   2.417   3.196  28.224 -1.8762 -1.4034 -1.2761
 2321TIP3    H228523   2.467   3.064  28.170  2.4988 -0.3085 -0.2510
 2322TIP3   OH228524   1.764   2.766   0.108 -0.2301  0.4126 -0.0129
 2322TIP3    H128525   1.832   2.767   0.041 -0.3407  0.7726 -0.1200
 2322TIP3    H228526   1.698   2.829   0.077 -0.4188  0.3666  0.2894
 2323TIP3   OH228527   1.584   2.122   0.839  0.0802 -0.0747  0.0262
 2323TIP3    H128528   1.568   2.105   0.746  0.2554 -0.2426  0.0258
 2323TIP3    H228529   1.625   2.208   0.841  0.7602 -0.3861 -0.1174
 2324TIP3   OH228530   3.405   1.788   3.626  0.3897  0.1378 -0.0658
 2324TIP3    H128531   3.467   1.842   3.676 -1.3397  0.7627  1.5343
 2324TIP3    H228532   3.370   1.846   3.559  0.1259  0.3891  0.2822
 2325TIP3   OH228533   2.161   0.903  27.991 -0.0068 -0.5380  0.1056
 2325TIP3    H128534   2.127   0.816  28.014  0.5786 -1.1183 -1.0651
 2325TIP3    H228535   2.089   0.946  27.945 -0.1684 -0.5621  0.3366
 2326TIP3   OH228536   0.226   3.166   0.755  0.0832 -0.2070 -0.5573
 2326TIP3    H128537   0.188   3.253   0.742  2.5392  1.1577  0.5988
 2326TIP3    H228538   0.171   3.126   0.822 -0.7986  0.6537 -0.7324
 2327TIP3   OH228539   3.086   1.066   2.584 -0.5000  0.0211 -0.2739
 2327TIP3    H128540   3.162   1.124   2.590  0.8627 -1.7204  0.3105
 2327TIP3    H228541   3.124   0.978   2.582 -2.5021 -0.8861 -0.5008
 2328TIP3   OH228542   1.333   0.361   5.401  0.0506  0.4530  0.3939
 2328TIP3    H128543   1.269   0.342   5.332  0.9521 -0.6267 -0.1900
 2328TIP3    H228544   1.287   0.342   5.483 -0.9024  1.3411  0.0900
 2329TIP3   OH228545   2.688   2.334  28.738 -0.3625  0.3987 -0.0069
 2329TIP3    H128546   2.729   2.384  28.808 -1.0607  1.0487 -0.0548
 2329TIP3    H228547   2.594   2.337  28.757 -0.5464  0.4187 -0.8574
 2330TIP3   OH228548   0.885   2.852   2.119  0.2130  1.1671  0.5052
 2330TIP3    H128549   0.943   2.815   2.186  0.0794  1.3653  0.7322
 2330TIP3    H228550   0.802   2.866   2.164 -0.8076 -1.3952 -0.4271
 2331TIP3   OH228551   2.848   1.901   1.528 -0.0976  0.0521  0.4082
 2331TIP3    H128552   2.855   1.806   1.527  0.0926  0.0625  0.6649
 2331TIP3    H228553   2.916   1.931   1.468 -0.7877 -0.0083 -0.4107
 2332TIP3   OH228554   1.056   1.104  28.377 -0.1925 -0.0877 -1.1796
 2332TIP3    H128555   1.003   1.038  28.332  0.2812 -0.8072 -0.7084
 2332TIP3    H228556   1.137   1.058  28.400 -0.6501  0.0484  0.9249
 2333TIP3   OH228557   2.644   0.134   5.599 -0.0003 -0.4614 -0.4513
 2333TIP3    H128558   2.736   0.132   5.626  0.0602 -0.2218 -0.6383
 2333TIP3    H228559   2.618   0.042   5.597 -0.5024 -0.4553  2.0905
 2334TIP3   OH228560   2.475   0.159  27.924 -0.1427 -0.2334 -0.2245
 2334TIP3    H128561   2.422   0.081  27.941  0.1127 -0.3632 -0.0250
 2334TIP3    H228562   2.554   0.148  27.977  0.0627 -0.0139 -0.4753
 2335TIP3   OH228563   1.618   0.446  14.377  0.4703  0.1785 -0.0357
 2335TIP3    H128564   1.681   0.513  14.352 -1.1891  1.3275 -1.3120
 2335TIP3    H228565   1.572   0.483  14.453 -0.8764  0.8049 -1.1251
 2336TIP3   OH228566   1.343   1.171   1.500  0.5664  0.3470  0.3883
 2336TIP3    H128567   1.254   1.195   1.528  0.7449 -0.2919  1.5704
 2336TIP3    H228568   1.331   1.094   1.445  0.1743  1.8433 -1.7576
 2337TIP3   OH228569   3.352   1.996  30.859  0.3523 -0.1091  0.0195
 2337TIP3    H128570   3.421   2.030  30.803  0.3319 -0.6277 -0.3291
 2337TIP3    H228571   3.385   2.009  30.948 -0.1252  1.7987 -0.0579
 2338TIP3   OH228572   2.291   3.494   0.583  0.7695 -0.3630 -0.0859
 2338TIP3    H128573   2.336   3.563   0.633  2.6868 -1.8158  0.2866
 2338TIP3    H228574   2.328   3.500   0.495 -1.0933  0.8241 -0.8626
 2339TIP3   OH228575   2.994   1.845  26.896  0.0536  0.7205 -0.3645
 2339TIP3    H128576   2.997   1.820  26.988  0.2029 -3.1203 -1.2499
 2339TIP3    H228577   2.901   1.855  26.877 -0.7713 -4.8945 -1.0009
 2340TIP3   OH228578   1.128   2.294  19.630 -0.0850  0.3341 -0.1660
 2340TIP3    H128579   1.140   2.323  19.539 -0.2079  0.5414 -0.1186
 2340TIP3    H228580   1.215   2.264  19.657  0.1163  0.9516 -0.1170
 2341TIP3   OH228581   1.127   1.521  20.498 -0.1710  0.2899 -0.0253
 2341TIP3    H128582   1.220   1.538  20.515 -0.0964  1.6708 -1.5095
 2341TIP3    H228583   1.109   1.569  20.417 -1.5494 -2.1156 -1.2411
 2342TIP3   OH228584   2.115   1.899  29.837  0.4552  0.3815 -0.2251
 2342TIP3    H128585   2.120   1.822  29.779  1.1287 -0.8999  1.4368
 2342TIP3    H228586   2.167   1.966  29.793 -0.0325 -0.1530 -1.6551
 2343TIP3   OH228587   1.440   0.456   4.551  0.2586  0.1839  0.4991
 2343TIP3    H128588   1.376   0.433   4.618  0.1685  0.3730  0.4799
 2343TIP3    H228589   1.394   0.446   4.468  0.3530  0.0035  0.4689
 2344TIP3   OH228590   0.326   3.101   3.462 -0.3317  0.1802  0.2750
 2344TIP3    H128591   0.355   3.189   3.486  0.4176  0.1209 -0.3951
 2344TIP3    H228592   0.232   3.112   3.446 -0.5469  0.5466  1.6073
 2345TIP3   OH228593   1.995   2.854  27.057 -0.3947 -0.0324 -0.1382
 2345TIP3    H128594   1.937   2.820  26.989 -0.4681  0.4208 -0.3086
 2345TIP3    H228595   2.047   2.779  27.085 -0.8666 -0.3769 -0.1894
 2346TIP3   OH228596   0.294   1.912  21.637 -0.1023  0.2529 -0.4634
 2346TIP3    H128597   0.239   1.988  21.620 -0.2323 -0.2367 -2.4005
 2346TIP3    H228598   0.380   1.949  21.660 -0.4810  0.9779 -0.1884
 2347TIP3   OH228599   2.861   0.805  31.427 -0.0056  0.0744  0.5130
 2347TIP3    H128600   2.810   0.756  31.491 -1.5797 -0.7844 -1.3124
 2347TIP3    H228601   2.950   0.805  31.462 -0.6533 -1.0620  2.2781
 2348TIP3   OH228602   2.482   3.128   2.186 -0.3444 -0.0552  0.3036
 2348TIP3    H128603   2.453   3.191   2.121  0.8232 -0.6163 -0.8159
 2348TIP3    H228604   2.515   3.054   2.135  0.8946 -0.3902  1.5134
 2349TIP3   OH228605   1.529   0.653   3.581 -0.0597 -0.3432 -0.3762
 2349TIP3    H128606   1.562   0.583   3.525 -0.5855 -2.8629  2.2595
 2349TIP3    H228607   1.573   0.640   3.665  0.4133  3.0441  0.0550
 2350TIP3   OH228608   2.924   1.500  30.110 -0.5476 -0.2818  0.7452
 2350TIP3    H128609   2.994   1.565  30.115  1.2038 -2.1453  2.0045
 2350TIP3    H228610   2.907   1.490  30.016  0.5739  0.5200  0.4451
 2351TIP3   OH228611   3.006   2.935  11.735  0.0414 -0.1952  0.1409
 2351TIP3    H128612   3.075   2.978  11.685 -1.3062  3.9575  1.4091
 2351TIP3    H228613   2.929   2.942  11.679 -0.1167 -1.5680  0.1633
 2352TIP3   OH228614   2.923   1.547  31.834  0.2030  0.6689 -0.1730
 2352TIP3    H128615   2.856   1.582  31.893  0.7769  1.6512 -0.0947
 2352TIP3    H228616   2.879   1.545  31.748 -1.5203 -3.1837  0.6028
 2353TIP3   OH228617   1.563   3.372  12.247 -0.4869 -0.0641  0.2835
 2353TIP3    H128618   1.506   3.438  12.286 -2.2715 -0.8353 -0.9264
 2353TIP3    H228619   1.633   3.423  12.205 -1.2148  0.9992  0.3260
 2354TIP3   OH228620   0.137   0.237   0.684 -0.1705  0.2540 -0.1331
 2354TIP3    H128621   0.053   0.217   0.642  0.6086  1.4409 -2.4109
 2354TIP3    H228622   0.203   0.211   0.620  1.1432  1.2262  0.7704
 2355TIP3   OH228623   1.182   0.200   2.867 -0.1432  0.2529 -0.4808
 2355TIP3    H128624   1.102   0.209   2.919 -0.1626 -0.2729 -0.4209
 2355TIP3    H228625   1.238   0.273   2.896 -0.3937  0.3173 -0.1591
 2356TIP3   OH228626   2.511   2.676   6.197  0.6607  0.5707 -0.0800
 2356TIP3    H128627   2.431   2.627   6.214  0.1792  1.5200  0.5133
 2356TIP3    H228628   2.581   2.623   6.235  0.4572 -0.7257 -1.4408
 2357TIP3   OH228629   1.841   1.400   3.640 -0.1320 -0.4242 -0.3801
 2357TIP3    H128630   1.874   1.314   3.665 -1.6917 -0.5323  1.5579
 2357TIP3    H228631   1.895   1.462   3.688  0.0834 -0.3675 -0.6877
 2358TIP3   OH228632   1.533   0.059   6.121  0.2632 -0.3667 -0.2600
 2358TIP3    H128633   1.496  -0.009   6.063 -0.5152 -0.2311  0.0590
 2358TIP3    H228634   1.514   0.141   6.076 -0.4155 -0.2565  0.2166
 2359TIP3   OH228635   2.016   1.138  31.481 -0.5206  0.8238  0.0038
 2359TIP3    H128636   2.095   1.176  31.518 -0.5128  1.4838 -0.6849
 2359TIP3    H228637   2.033   1.132  31.387 -1.2718  0.9330 -0.1456
 2360TIP3   OH228638   0.557   2.216   5.278  0.1480  0.8008  0.2892
 2360TIP3    H128639   0.525   2.303   5.300  0.3854  0.5184  1.8396
 2360TIP3    H228640   0.500   2.187   5.206 -0.9482  1.6086  0.8014
 2361TIP3   OH228641   0.990   2.456  32.865  0.0509 -0.5675 -0.1080
 2361TIP3    H128642   0.897   2.470  32.883  0.0181 -1.5771  0.5949
 2361TIP3    H228643   1.002   2.361  32.870  1.2161 -0.4227  0.3594
 2362TIP3   OH228644   1.430   1.572  22.612 -0.0500  0.2151 -0.1381
 2362TIP3    H128645   1.342   1.608  22.596  0.3384  1.1543 -0.2574
 2362TIP3    H228646   1.420   1.519  22.691 -0.8432 -0.1436 -0.4647
 2363TIP3   OH228647   0.501   0.600   2.365 -0.2499 -0.1102 -0.3222
 2363TIP3    H128648   0.590   0.575   2.340 -0.3721  0.2854 -1.1749
 2363TIP3    H228649   0.512   0.678   2.418 -0.0686 -0.2488 -0.1554
 2364TIP3   OH228650   0.592   1.295  22.129 -0.1232 -0.0671  0.5196
 2364TIP3    H128651   0.571   1.303  22.036  0.6621 -2.0211  0.1228
 2364TIP3    H228652   0.671   1.348  22.141  1.9238 -2.5627 -0.8089
 2365TIP3   OH228653   1.263   3.172  27.462 -0.0885  0.2319 -0.1886
 2365TIP3    H128654   1.349   3.209  27.482 -0.4201  0.0340  1.8383
 2365TIP3    H228655   1.282   3.087  27.422  0.6695  0.2927  0.0204
 2366TIP3   OH228656   0.513   3.391  11.507 -0.5725 -0.0276  0.1338
 2366TIP3    H128657   0.532   3.360  11.418  1.5893 -0.5910  0.7297
 2366TIP3    H228658   0.495   3.485  11.496  0.0375 -0.0085 -0.8455
 2367TIP3   OH228659   2.946   1.638   6.810  0.5134 -0.2073 -0.4602
 2367TIP3    H128660   2.937   1.637   6.905 -1.2456  1.5533 -0.5414
 2367TIP3    H228661   2.900   1.559   6.781  0.0201 -0.1328  0.1070
 2368TIP3   OH228662   2.215   0.878   2.484 -0.6083  0.3664  0.3387
 2368TIP3    H128663   2.195   0.830   2.564 -1.6109  1.2368  0.6276
 2368TIP3    H228664   2.170   0.831   2.415  0.0374 -0.2306  0.3123
 2369TIP3   OH228665   0.347   3.041  11.814 -0.1219 -0.1796 -0.6188
 2369TIP3    H128666   0.270   2.992  11.784  0.1470  0.2166 -2.0201
 2369TIP3    H228667   0.412   2.973  11.832  0.2967 -0.4025 -2.6890
 2370TIP3   OH228668   3.152   1.225  27.633 -0.0911  0.3276  0.7187
 2370TIP3    H128669   3.197   1.194  27.554 -0.8237 -0.9438  0.7662
 2370TIP3    H228670   3.155   1.320  27.626  5.0068  0.5748  2.0697
 2371TIP3   OH228671   1.754   0.499   3.145  0.0541 -0.0956 -0.1315
 2371TIP3    H128672   1.716   0.532   3.064  2.3791  1.0971 -0.8441
 2371TIP3    H228673   1.754   0.575   3.204 -0.8694 -0.7375  0.7189
 2372TIP3   OH228674   2.864   0.635  32.226  0.3883 -0.1335  0.3552
 2372TIP3    H128675   2.943   0.658  32.177  0.7315 -1.1836  0.3904
 2372TIP3    H228676   2.876   0.542  32.249 -0.4101 -0.0418  1.2004
 2373TIP3   OH228677   0.358   0.104   2.300 -0.2647 -0.0781  0.1760
 2373TIP3    H128678   0.378   0.189   2.337 -0.3318  1.3557 -2.7745
 2373TIP3    H228679   0.439   0.077   2.257 -1.5010  0.9673 -3.1444
 2374TIP3   OH228680   2.843   2.913  32.269  0.1441 -0.7641 -0.5522
 2374TIP3    H128681   2.813   2.901  32.359  1.0245 -0.6740 -0.2326
 2374TIP3    H228682   2.778   2.970  32.229  0.0585 -0.3186  0.2042
 2375TIP3   OH228683   0.038   0.331  32.011 -0.1039 -0.2798  0.4590
 2375TIP3    H128684   0.018   0.335  32.104 -1.6749  1.3553  0.1234
 2375TIP3    H228685   0.130   0.305  32.006 -0.7684 -3.4236  2.3365
 2376TIP3   OH228686   0.437   3.119   3.185 -0.1637 -0.1244  0.4805
 2376TIP3    H128687   0.530   3.137   3.176 -0.3132  0.3104 -0.2438
 2376TIP3    H228688   0.428   3.086   3.274  0.6937 -0.2541  0.5283
 2377TIP3   OH228689   0.919   1.949  31.498 -0.3928 -0.5411 -0.2484
 2377TIP3    H128690   1.005   1.926  31.465 -0.3037  0.2719 -0.6051
 2377TIP3    H228691   0.872   1.982  31.422 -0.7476 -0.2280  0.1009
 2378TIP3   OH228692   3.532   2.567   4.405  0.2799  0.0302  0.3291
 2378TIP3    H128693   3.478   2.621   4.348 -0.2771 -0.3882  0.4461
 2378TIP3    H228694   3.469   2.525   4.464  0.8348  0.3881  1.1922
 2379TIP3   OH228695   0.606   2.819   7.138 -0.0400 -0.3763 -0.6827
 2379TIP3    H128696   0.589   2.910   7.160  2.8317  0.1837 -0.3489
 2379TIP3    H228697   0.590   2.771   7.219  0.1145  0.1043 -0.3631
 2380TIP3   OH228698   1.630   2.567   1.663  0.5257 -0.0767  0.6240
 2380TIP3    H128699   1.591   2.555   1.577  1.9475 -2.5200  0.2057
 2380TIP3    H228700   1.605   2.655   1.689 -0.4467  0.5235 -2.0142
 2381TIP3   OH228701   2.718   0.894  26.263 -0.0884  0.1407 -0.0388
 2381TIP3    H128702   2.650   0.912  26.198  0.8704  0.2844 -1.0263
 2381TIP3    H228703   2.710   0.800  26.280  0.7401 -0.2742 -1.6879
 2382TIP3   OH228704   3.189   2.540   0.561 -0.3174 -0.0599 -0.1910
 2382TIP3    H128705   3.102   2.537   0.602 -0.9893  3.2210 -1.0000
 2382TIP3    H228706   3.198   2.456   0.517 -1.7780 -1.6433  2.3343
 2383TIP3   OH228707   2.242   0.629  32.053  0.1679 -0.3660  0.3532
 2383TIP3    H128708   2.252   0.621  31.958  1.3832  1.2746  0.3011
 2383TIP3    H228709   2.203   0.546  32.080 -1.3979 -0.3670 -1.7175
 2384TIP3   OH228710   0.883   2.690   7.400  0.0920  0.2355 -0.5544
 2384TIP3    H128711   0.789   2.675   7.391 -0.0010 -1.5229  2.1680
 2384TIP3    H228712   0.899   2.679   7.494  2.9703  0.8341 -0.9126
 2385TIP3   OH228713   1.653   1.214   2.848 -0.1450 -0.2405  0.2691
 2385TIP3    H128714   1.708   1.199   2.771  0.5889 -0.2099  0.7671
 2385TIP3    H228715   1.576   1.259   2.815 -1.4705 -3.1884 -0.9639
 2386TIP3   OH228716   1.799   3.205  14.440 -0.3263  0.2405 -0.4012
 2386TIP3    H128717   1.847   3.269  14.493 -1.3245 -0.6642  1.7195
 2386TIP3    H228718   1.775   3.136  14.502 -0.8610 -1.3119 -2.2398
 2387TIP3   OH228719   0.303   2.365  26.803 -0.3670  0.1618  0.5705
 2387TIP3    H128720   0.398   2.361  26.793 -0.6320 -0.7337 -2.7866
 2387TIP3    H228721   0.281   2.292  26.860  0.9435  0.5597  1.6261
 2388TIP3   OH228722   2.745   0.106  27.450  0.1119 -0.0326 -0.9336
 2388TIP3    H128723   2.817   0.127  27.510  0.2330 -0.7501 -0.8152
 2388TIP3    H228724   2.679   0.065  27.505  0.7354 -1.8385 -1.4506
 2389TIP3   OH228725   2.886   2.152  30.823  0.3325  0.3221  0.1254
 2389TIP3    H128726   2.905   2.203  30.902  0.7406 -0.6908  0.6989
 2389TIP3    H228727   2.928   2.068  30.838 -0.0923 -0.0964 -0.9260
 2390TIP3   OH228728   3.523   2.114   4.786  0.0119  0.1417  0.1507
 2390TIP3    H128729   3.516   2.176   4.713 -1.2514 -0.5358 -0.3284
 2390TIP3    H228730   3.617   2.102   4.798  0.2638  1.4320 -0.3554
 2391TIP3   OH228731   1.400   3.300   6.738  0.3304 -0.0278  0.1038
 2391TIP3    H128732   1.383   3.377   6.793 -1.8950 -0.3798  0.0021
 2391TIP3    H228733   1.477   3.325   6.686  0.6550  1.4784  1.2217
 2392TIP3   OH228734   1.268   1.942  29.645 -0.2252 -0.0925  0.4667
 2392TIP3    H128735   1.293   1.982  29.561 -1.1321 -2.0692 -0.8033
 2392TIP3    H228736   1.258   1.849  29.625 -0.2569 -0.6421  2.8469
 2393TIP3   OH228737   0.825   2.478  23.697  0.0141  0.2055 -0.1117
 2393TIP3    H128738   0.749   2.508  23.647 -0.0075  0.4360  0.0558
 2393TIP3    H228739   0.861   2.406  23.646 -0.8708 -0.5240  0.2667
 2394TIP3   OH228740   2.788   1.336  25.855  0.1968  0.4252  0.0444
 2394TIP3    H128741   2.739   1.265  25.896  1.2010 -0.4564 -0.2357
 2394TIP3    H228742   2.743   1.350  25.772 -0.3279  0.4795  0.3348
 2395TIP3   OH228743   1.530   0.440   6.737  0.0199  0.2209  0.1527
 2395TIP3    H128744   1.488   0.447   6.651 -3.7061  0.4649  1.7766
 2395TIP3    H228745   1.563   0.351   6.740  2.3009  0.8571 -2.2548
 2396TIP3   OH228746   1.045   1.268   3.557 -0.1293 -0.4652  0.2252
 2396TIP3    H128747   1.038   1.324   3.634 -1.8895  0.3025 -0.4596
 2396TIP3    H228748   1.034   1.327   3.482  1.5909 -1.1817 -0.6741
 2397TIP3   OH228749   3.082   1.755   3.820  0.7252  0.1629 -0.2513
 2397TIP3    H128750   3.095   1.692   3.748  1.9129  0.2820 -0.1619
 2397TIP3    H228751   3.164   1.805   3.823  0.9901 -0.3070  1.6340
 2398TIP3   OH228752   1.768   0.742  27.397 -0.4310 -0.4383  0.1069
 2398TIP3    H128753   1.688   0.747  27.344 -0.5889 -2.5599  0.0245
 2398TIP3    H228754   1.815   0.666  27.362  0.0933 -1.1351  2.1404
 2399TIP3   OH228755   3.478   1.763   0.322  0.5191 -0.0206 -0.1160
 2399TIP3    H128756   3.555   1.746   0.268  1.7760  0.7820  1.3496
 2399TIP3    H228757   3.467   1.858   0.320 -0.9907 -0.1849 -1.0048
 2400TIP3   OH228758   2.868   3.130  30.579 -0.3372  1.1854  0.0207
 2400TIP3    H128759   2.933   3.185  30.536 -0.4784  0.9534 -0.4935
 2400TIP3    H228760   2.920   3.069  30.632 -0.0823  0.4555 -1.0255
 2401TIP3   OH228761   2.167   1.666  32.749 -0.2554 -0.1655 -0.9492
 2401TIP3    H128762   2.093   1.637  32.802  1.0704 -0.2507  0.9719
 2401TIP3    H228763   2.177   1.598  32.683 -0.6199 -1.2308  0.0554
 2402TIP3   OH228764   0.296   1.065   4.083  0.0735  0.4908 -0.5716
 2402TIP3    H128765   0.211   1.022   4.076  0.0636  0.4595 -0.2767
 2402TIP3    H228766   0.359   0.993   4.093  0.2761  0.4505 -2.0142
 2403TIP3   OH228767   2.556   0.290  26.135 -0.6276 -0.3817 -0.4870
 2403TIP3    H128768   2.565   0.248  26.221 -2.2651 -0.6720 -0.4250
 2403TIP3    H228769   2.616   0.364  26.138  3.0690 -3.1147 -0.9298
 2404TIP3   OH228770   1.640   0.292  11.361  0.1038  0.4328  0.1495
 2404TIP3    H128771   1.642   0.334  11.447 -1.6574  0.5485  0.1697
 2404TIP3    H228772   1.643   0.365  11.299  0.8498  0.3759  0.1128
 2405TIP3   OH228773   0.270   1.454   1.437 -0.4772  0.1083  0.3517
 2405TIP3    H128774   0.307   1.526   1.387  1.0327  0.1883  1.5088
 2405TIP3    H228775   0.178   1.478   1.450 -0.4839  0.8454 -0.9538
 2406TIP3   OH228776   1.913   3.142  27.596  0.3168  0.1070  0.3896
 2406TIP3    H128777   1.916   3.070  27.534  1.9077  0.7174 -0.3020
 2406TIP3    H228778   1.857   3.208  27.555  1.2257  0.4380 -0.3313
 2407TIP3   OH228779   1.530   3.399   4.766 -0.4972  0.2008 -0.3736
 2407TIP3    H128780   1.540   3.313   4.806  0.7037  0.3443 -0.3004
 2407TIP3    H228781   1.569   3.389   4.678 -1.5396  0.3368 -0.8657
 2408TIP3   OH228782   2.454   1.934  31.995  0.1589  0.3045 -0.7160
 2408TIP3    H128783   2.401   2.014  31.993  1.2433  1.0364 -1.1939
 2408TIP3    H228784   2.542   1.963  31.970  0.9719 -0.7445  0.8136
 2409TIP3   OH228785   0.278   1.499  32.477  0.1949  0.0148  0.0752
 2409TIP3    H128786   0.188   1.483  32.505  0.2823 -1.3297 -0.3070
 2409TIP3    H228787   0.286   1.594  32.473 -0.1880  0.3321  3.3844
 2410TIP3   OH228788   0.469   2.583  32.690 -0.1231 -0.7409  0.2306
 2410TIP3    H128789   0.395   2.571  32.631  1.0800  1.8789 -1.9990
 2410TIP3    H228790   0.474   2.677  32.704  2.3551 -0.8967  0.9083
 2411TIP3   OH228791   3.263   0.768  28.149  0.6903 -0.2057 -0.1596
 2411TIP3    H128792   3.288   0.812  28.230 -1.8657 -1.0675  1.1957
 2411TIP3    H228793   3.224   0.837  28.095  1.7655  0.2253 -0.4214
 2412TIP3   OH228794   0.049   0.717  29.037  0.0393 -0.0177  0.1536
 2412TIP3    H128795   0.100   0.718  29.117  0.8521 -0.8361 -0.3379
 2412TIP3    H228796   0.090   0.650  28.982 -1.0768 -0.1534 -0.5699
 2413TIP3   OH228797   3.000   1.253  32.725  0.3798  0.1049  0.2563
 2413TIP3    H128798   3.059   1.190  32.684  0.3158  0.4562 -0.4005
 2413TIP3    H228799   2.965   1.304  32.652 -1.2608 -0.5327  0.5618
 2414TIP3   OH228800   0.320   1.485  25.483 -0.2266 -0.3166  0.6401
 2414TIP3    H128801   0.297   1.407  25.433  0.6969  0.5578 -1.2586
 2414TIP3    H228802   0.379   1.454  25.551  1.2754 -1.1278 -0.9673
 2415TIP3   OH228803   1.397   1.758  32.756 -1.2985 -0.4138 -0.0613
 2415TIP3    H128804   1.324   1.724  32.705 -2.7594  1.1120  0.8996
 2415TIP3    H228805   1.411   1.846  32.720  0.4048 -0.8356 -0.5315
 2416TIP3   OH228806   2.752   3.118  28.944 -0.2323  0.3616 -0.0580
 2416TIP3    H128807   2.821   3.168  28.901  2.2837 -2.2268  0.6684
 2416TIP3    H228808   2.737   3.165  29.027  0.6002  0.9811 -0.2447
 2417TIP3   OH228809   3.192   1.691  29.298 -0.6744 -0.8407 -0.4879
 2417TIP3    H128810   3.242   1.739  29.364 -0.7339 -0.6156 -0.6098
 2417TIP3    H228811   3.110   1.739  29.289 -1.2878 -1.6976  0.3487
 2418TIP3   OH228812   2.718   1.641   6.197 -0.2307 -0.0970 -0.0456
 2418TIP3    H128813   2.702   1.699   6.123 -0.7273 -0.5854 -0.3338
 2418TIP3    H228814   2.638   1.588   6.204 -1.1870  1.4734  2.2961
 2419TIP3   OH228815   2.943   1.809  29.985  0.0372  0.1596  0.4732
 2419TIP3    H128816   2.879   1.839  30.050 -0.1333 -0.4341  0.5879
 2419TIP3    H228817   3.006   1.757  30.035  0.6343  0.7637  0.3650
 2420TIP3   OH228818   0.072   2.562  31.533 -0.1722  0.3888  0.2396
 2420TIP3    H128819  -0.007   2.555  31.587  0.2048  1.5901  0.9740
 2420TIP3    H228820   0.047   2.524  31.449 -1.4282  0.4375  0.5730
 2421TIP3   OH228821   2.903   2.294   3.705  0.0940  0.8268 -0.1179
 2421TIP3    H128822   2.915   2.342   3.623 -1.6614  2.3639  0.4682
 2421TIP3    H228823   2.827   2.238   3.689 -1.5186  2.5809  1.0025
 2422TIP3   OH228824   2.397   0.999  18.339  0.1778 -0.2289  0.1217
 2422TIP3    H128825   2.324   0.969  18.392 -1.0046  2.7315  0.3145
 2422TIP3    H228826   2.367   0.990  18.248 -0.0916  0.1452  0.1726
 2423TIP3   OH228827   0.083   0.669  26.670  0.5536 -0.1455 -0.0311
 2423TIP3    H128828   0.157   0.701  26.722  0.5595  0.2004 -0.2550
 2423TIP3    H228829   0.121   0.644  26.586  0.3239  0.5744 -0.3502
 2424TIP3   OH228830   2.750   1.193   6.060  0.0618 -0.1481  0.4180
 2424TIP3    H128831   2.674   1.200   6.002  0.5585  0.7073 -0.1627
 2424TIP3    H228832   2.787   1.282   6.062  1.0803 -0.5568  0.6332
 2425TIP3   OH228833   0.880   3.513  27.955 -0.7065 -0.1185  0.0940
 2425TIP3    H128834   0.882   3.565  28.036  1.2599 -0.7175  0.4825
 2425TIP3    H228835   0.947   3.445  27.969  1.4238  1.1804 -2.9594
 2426TIP3   OH228836   0.870   1.908  29.363  0.2386  0.7070 -0.1511
 2426TIP3    H128837   0.781   1.876  29.348  0.4370  0.3317 -0.5217
 2426TIP3    H228838   0.889   1.964  29.288  1.3750 -1.4773 -1.5752
 2427TIP3   OH228839   2.084   0.644  29.311 -0.2112 -0.5425  0.1827
 2427TIP3    H128840   2.132   0.695  29.377 -0.5489  0.9073 -0.6495
 2427TIP3    H228841   1.993   0.647  29.339 -0.5022  0.9032 -0.8166
 2428TIP3   OH228842   0.577   3.364   0.912 -0.0721 -0.2110 -0.1942
 2428TIP3    H128843   0.582   3.410   0.828 -0.5887  0.7353  0.2737
 2428TIP3    H228844   0.652   3.398   0.962 -1.0377  0.9272  0.5267
 2429TIP3   OH228845   0.129   0.800  31.892  0.0169 -0.0036 -0.1171
 2429TIP3    H128846   0.172   0.746  31.958 -0.2204  0.6425  0.5715
 2429TIP3    H228847   0.037   0.803  31.920  0.2020  1.5530  0.4022
 2430TIP3   OH228848   1.856   2.538   3.626 -0.2475 -0.2201  0.1974
 2430TIP3    H128849   1.912   2.565   3.553 -1.1166 -2.1081 -1.2384
 2430TIP3    H228850   1.793   2.478   3.588 -1.2960 -0.6103  2.3678
 2431TIP3   OH228851   0.728   2.061   6.970  0.4572 -0.1760  0.1920
 2431TIP3    H128852   0.750   2.120   6.899  2.6297 -2.1321 -0.8724
 2431TIP3    H228853   0.810   2.048   7.018 -0.2696 -1.2647  1.2120
 2432TIP3   OH228854   1.848   2.061  26.738  0.0269  0.1434 -0.0254
 2432TIP3    H128855   1.765   2.076  26.692 -0.6996  0.5651  1.3804
 2432TIP3    H228856   1.894   2.146  26.733 -0.2629  0.3291  0.4319
 2433TIP3   OH228857   1.849   0.325  32.765 -0.0330  0.0040  0.0068
 2433TIP3    H128858   1.754   0.327  32.751 -0.1203 -1.5364  0.1443
 2433TIP3    H228859   1.860   0.348  32.857 -0.4261 -1.2629  0.3993
 2434TIP3   OH228860   0.528   0.803   5.837  0.2520  0.2333  0.0284
 2434TIP3    H128861   0.599   0.860   5.808  1.8643 -1.8841 -0.4338
 2434TIP3    H228862   0.556   0.773   5.923  0.2734 -1.1129 -0.4246
 2435TIP3   OH228863   3.360   0.335   3.000  0.1392 -0.1965 -0.0473
 2435TIP3    H128864   3.357   0.299   2.912  2.1852  1.3820 -0.8557
 2435TIP3    H228865   3.386   0.261   3.056 -1.5211 -1.2904 -0.6687
 2436TIP3   OH228866   1.066   2.150  26.004 -0.6590 -0.2402 -0.4371
 2436TIP3    H128867   0.983   2.118  25.969 -0.1884 -1.3860 -0.5658
 2436TIP3    H228868   1.103   2.204  25.934 -1.1278 -0.0195 -0.5150
 2437TIP3   OH228869   0.099   0.244  31.072  0.1307  0.3457  0.0856
 2437TIP3    H128870   0.185   0.210  31.049  0.4435  1.4988 -0.5165
 2437TIP3    H228871   0.106   0.265  31.166  0.6661  0.8624 -0.0619
 2438TIP3   OH228872   0.283   1.453   7.477 -0.1801  0.1228  0.0300
 2438TIP3    H128873   0.202   1.453   7.528  1.3482  1.9299  2.6968
 2438TIP3    H228874   0.334   1.381   7.515  0.1999  0.1865 -0.3585
 2439TIP3   OH228875   1.647   1.147  29.601  0.2440 -0.3918  0.7412
 2439TIP3    H128876   1.706   1.110  29.535  1.7193  0.0388  1.7818
 2439TIP3    H228877   1.704   1.191  29.663 -1.1317 -0.4888  2.1432
 2440TIP3   OH228878   0.771   0.768   1.631 -0.7247  0.4441  0.2175
 2440TIP3    H128879   0.819   0.700   1.677 -0.6743  0.5879  0.3789
 2440TIP3    H228880   0.681   0.737   1.628 -0.6323  0.1953 -0.0436
 2441TIP3   OH228881   0.875   1.434   2.354  0.1744  0.3889  0.0608
 2441TIP3    H128882   0.940   1.399   2.416 -0.6480 -1.7172 -0.1941
 2441TIP3    H228883   0.851   1.359   2.299 -1.7273  1.3565 -0.5138
 2442TIP3   OH228884   0.689   1.028   1.011  0.4316 -0.6396 -0.3007
 2442TIP3    H128885   0.704   1.033   1.105 -0.5848  0.9058 -0.1906
 2442TIP3    H228886   0.751   1.089   0.973  0.8935 -1.3192 -0.6655
 2443TIP3   OH228887   0.528   1.650   1.901  0.2368 -0.0023  0.0961
 2443TIP3    H128888   0.584   1.724   1.925  0.7690 -0.3217 -0.1337
 2443TIP3    H228889   0.544   1.639   1.807 -2.4488  1.7865 -0.6809
 2444TIP3   OH228890   2.041   3.306   6.638 -0.4111  0.1882  0.6287
 2444TIP3    H128891   2.016   3.226   6.684 -1.3797  0.3988  0.4889
 2444TIP3    H228892   1.969   3.367   6.656 -1.3864 -0.0626 -2.0143
 2445TIP3   OH228893   0.464   1.218   0.435 -0.3399 -0.4986 -0.1566
 2445TIP3    H128894   0.438   1.309   0.450 -2.0199 -0.7982 -0.9572
 2445TIP3    H228895   0.519   1.222   0.357  0.3966 -0.0659  0.3761
 2446TIP3   OH228896   1.523   0.824   0.197 -0.6663 -0.4242 -0.0047
 2446TIP3    H128897   1.469   0.902   0.214  0.7669  0.2773  1.6514
 2446TIP3    H228898   1.555   0.837   0.107 -0.4247  0.9533  0.2459
 2447TIP3   OH228899   1.875   1.165  30.514 -0.3586  0.3266  0.3746
 2447TIP3    H128900   1.840   1.077  30.522 -0.4936  0.1878 -1.2741
 2447TIP3    H228901   1.944   1.170  30.580  0.6750 -1.5422 -0.4806
 2448TIP3   OH228902   1.000   1.639  20.295 -0.2941  0.4645  0.0164
 2448TIP3    H128903   0.921   1.586  20.308 -0.8880  1.6790  1.5566
 2448TIP3    H228904   0.994   1.668  20.204 -1.3230  0.0725 -0.0556
 2449TIP3   OH228905   2.118   0.042  10.110  0.1434 -0.4735 -0.5670
 2449TIP3    H128906   2.131  -0.008  10.029 -0.8103 -0.2143 -0.8919
 2449TIP3    H228907   2.023   0.056  10.115  0.2449 -0.0137  0.3148
 2450TIP3   OH228908   2.389   2.343   6.883 -0.0019 -0.1707  0.5229
 2450TIP3    H128909   2.342   2.425   6.894  1.1089  0.4109  1.1031
 2450TIP3    H228910   2.481   2.368   6.879  0.3847 -1.4028  1.0631
 2451TIP3   OH228911   3.544   0.326   2.588  0.9832  0.3937  0.0100
 2451TIP3    H128912   3.492   0.252   2.560 -0.7156  1.3000  0.6050
 2451TIP3    H228913   3.571   0.304   2.678  1.4719  0.0082 -0.2282
 2452TIP3   OH228914   1.654   2.297   5.381 -0.3717 -0.3028 -0.7046
 2452TIP3    H128915   1.562   2.323   5.383 -0.4249 -0.4670 -1.0810
 2452TIP3    H228916   1.678   2.285   5.473 -1.0062 -1.2703 -0.6573
 2453TIP3   OH228917   0.921   1.652   0.584  0.7685  0.0752 -0.2922
 2453TIP3    H128918   0.982   1.704   0.532  1.1154  1.0266  1.0074
 2453TIP3    H228919   0.946   1.561   0.567  0.7984  0.3521 -1.8382
 2454TIP3   OH228920   2.425   0.230  26.725 -0.0684 -0.0507  0.2048
 2454TIP3    H128921   2.398   0.188  26.644 -0.6220  0.8285 -0.0885
 2454TIP3    H228922   2.479   0.165  26.770  0.8929 -0.2713 -1.2131
 2455TIP3   OH228923   2.526   3.455   0.005 -0.0213  0.0976 -0.0985
 2455TIP3    H128924   2.514   3.394   0.078 -0.0223  0.0107 -0.1708
 2455TIP3    H228925   2.445   3.506   0.002 -0.2024 -0.1957 -0.3140
 2456TIP3   OH228926   3.432   3.466  32.909 -0.4966 -0.0826  0.0675
 2456TIP3    H128927   3.497   3.424  32.966  1.4572  0.9418 -1.2918
 2456TIP3    H228928   3.472   3.549  32.884 -2.3190  0.5512 -0.9217
 2457TIP3   OH228929   2.118   0.413  27.587 -0.4361  0.1771  0.1909
 2457TIP3    H128930   2.143   0.322  27.601 -1.8693 -0.3305 -0.3503
 2457TIP3    H228931   2.025   0.416  27.609 -0.5343  1.3836 -0.3084
 2458TIP3   OH228932   0.344   0.751  27.068 -0.2109  0.1634  0.8433
 2458TIP3    H128933   0.427   0.759  27.022 -0.6637  2.8989  0.2960
 2458TIP3    H228934   0.291   0.694  27.012  0.0582  1.5048 -0.8717
 2459TIP3   OH228935   2.799   2.539   6.697 -0.1194 -0.3827  0.1764
 2459TIP3    H128936   2.764   2.493   6.773  0.9763  1.0562  1.6230
 2459TIP3    H228937   2.875   2.487   6.670  0.9999  0.4221  1.6797
 2460TIP3   OH228938   3.163   0.818   3.529 -0.1466  0.1533 -0.1355
 2460TIP3    H128939   3.181   0.738   3.479 -2.3324  0.5452 -1.6792
 2460TIP3    H228940   3.249   0.847   3.559  1.5811  0.5010 -4.6926
 2461TIP3   OH228941   1.251   3.447  29.184 -0.0718  0.2325 -0.1495
 2461TIP3    H128942   1.312   3.488  29.123 -0.9490  0.5361 -0.8309
 2461TIP3    H228943   1.260   3.499  29.265  0.8061  0.0657 -0.1315
 2462TIP3   OH228944   1.544   1.576   5.563 -0.0737 -0.1674  0.5422
 2462TIP3    H128945   1.612   1.510   5.573  1.4053  1.1480 -0.2426
 2462TIP3    H228946   1.555   1.609   5.473 -1.0011  0.8757  0.7804
 2463TIP3   OH228947   2.227   0.668  26.078  0.8214 -0.1866 -0.0132
 2463TIP3    H128948   2.225   0.727  26.002 -0.6820  0.3088  0.3876
 2463TIP3    H228949   2.284   0.596  26.051  1.5722  0.7554 -1.0275
 2464TIP3   OH228950   0.933   0.374   2.134 -0.1660 -0.0436  0.2924
 2464TIP3    H128951   1.007   0.344   2.082  0.0351  0.3634  0.3368
 2464TIP3    H228952   0.856   0.356   2.080  0.1170  1.4059 -0.6452
 2465TIP3   OH228953   0.803   2.504  20.617  0.2318  0.2501  0.1476
 2465TIP3    H128954   0.860   2.573  20.584  0.3953 -0.7806 -1.8902
 2465TIP3    H228955   0.715   2.530  20.588  0.5595 -1.4764 -2.8939
 2466TIP3   OH228956   0.774   1.778   0.072  0.0244 -0.4214 -0.0026
 2466TIP3    H128957   0.761   1.702   0.015 -0.3973  0.6114 -1.3222
 2466TIP3    H228958   0.699   1.835   0.054  0.7462  0.6763  0.3628
 2467TIP3   OH228959   2.340   1.511   7.271  0.1700  0.2579 -0.2104
 2467TIP3    H128960   2.343   1.423   7.232  0.7231  0.1054  0.1670
 2467TIP3    H228961   2.248   1.526   7.291  0.0636 -0.2053 -0.3525
 2468TIP3   OH228962   0.456   1.249  32.577 -0.4887  0.2718  0.5059
 2468TIP3    H128963   0.532   1.307  32.569 -0.7558  0.5791  0.1728
 2468TIP3    H228964   0.411   1.256  32.493  0.1313 -1.3644  0.0072
 2469TIP3   OH228965   0.752   0.686   3.169 -0.1222 -0.1825  0.1868
 2469TIP3    H128966   0.732   0.754   3.105  0.8437 -0.2493 -0.2000
 2469TIP3    H228967   0.799   0.619   3.120  2.0764  0.4918  1.2172
 2470TIP3   OH228968   2.000   1.009   6.068 -0.7342  0.5255  0.1333
 2470TIP3    H128969   1.934   1.078   6.075 -0.8324  0.6904 -1.8500
 2470TIP3    H228970   2.084   1.055   6.072 -0.8000  0.8647 -1.6261
 2471TIP3   OH228971   2.404   0.776  28.275  0.4605 -0.3616 -0.1562
 2471TIP3    H128972   2.417   0.755  28.182 -0.3343 -2.0217  0.0768
 2471TIP3    H228973   2.462   0.716  28.321  3.8175  2.9469  0.4288
 2472TIP3   OH228974   2.428   2.441  28.062  0.1925 -0.5827 -0.0501
 2472TIP3    H128975   2.376   2.370  28.102  0.2680 -0.4839  0.2265
 2472TIP3    H228976   2.439   2.505  28.133  1.6364 -1.1055  0.2258
 2473TIP3   OH228977   2.816   0.156   3.213  0.0217 -0.4335  0.1485
 2473TIP3    H128978   2.760   0.195   3.279 -0.1055  0.2397 -0.3474
 2473TIP3    H228979   2.904   0.187   3.235  0.3601 -2.1225  1.3983
 2474TIP3   OH228980   2.664   3.056  31.801 -0.3126  0.1215  0.1987
 2474TIP3    H128981   2.704   3.127  31.851  1.5667 -0.1621 -0.8084
 2474TIP3    H228982   2.691   3.071  31.711 -1.0752 -1.0731 -0.2598
 2475TIP3   OH228983   3.374   2.086  20.956 -0.4293  0.2020 -0.9711
 2475TIP3    H128984   3.409   2.021  20.895 -1.5285 -0.4105 -0.9687
 2475TIP3    H228985   3.302   2.127  20.909 -0.6581  0.4126 -0.4426
 2476TIP3   OH228986   2.525   2.673  10.525  0.3572 -0.2097  0.0769
 2476TIP3    H128987   2.533   2.734  10.598  0.9881  2.3803 -1.9649
 2476TIP3    H228988   2.580   2.598  10.549  0.8165  0.7092  2.0658
 2477TIP3   OH228989   1.612   1.544   4.714  0.4757 -0.0915  0.1177
 2477TIP3    H128990   1.663   1.577   4.639  0.8894 -0.9950 -0.0102
 2477TIP3    H228991   1.535   1.601   4.717 -0.1432 -0.7404 -1.7145
 2478TIP3   OH228992   1.146   2.080  26.328  0.0943  0.2997 -0.1268
 2478TIP3    H128993   1.182   2.164  26.353 -0.5116  0.2092  1.1471
 2478TIP3    H228994   1.184   2.061  26.242  1.9023  0.8698  0.5079
 2479TIP3   OH228995   1.908   0.142  15.271 -0.6910 -0.0443  0.3225
 2479TIP3    H128996   1.903   0.231  15.237  0.2979  0.0307  0.3447
 2479TIP3    H228997   1.990   0.139  15.321 -0.6625 -0.9780  0.2542
 2480TIP3   OH228998   0.608   0.955  29.683  0.2416  0.3560 -1.2690
 2480TIP3    H128999   0.660   0.905  29.620 -0.4814 -0.6554 -1.0847
 2480TIP3    H229000   0.631   0.917  29.768 -1.0530 -0.3494 -1.2186
 2481TIP3   OH229001   2.413   2.935  27.991 -0.1666  0.3541 -0.1081
 2481TIP3    H129002   2.325   2.903  28.015 -0.8845  1.6779 -0.8569
 2481TIP3    H229003   2.399   3.027  27.968  1.6492  0.9207  0.9342
 2482TIP3   OH229004   3.222   0.344  28.744 -0.4941  0.5290  0.0068
 2482TIP3    H129005   3.232   0.370  28.835  0.8549 -1.4248  0.4693
 2482TIP3    H229006   3.310   0.323  28.714 -1.2564 -2.3848 -0.5754
 2483TIP3   OH229007   2.423   0.996  30.591  0.4910 -0.6353  0.0299
 2483TIP3    H129008   2.402   1.018  30.681 -1.1746 -0.3621 -0.4013
 2483TIP3    H229009   2.513   1.028  30.580 -0.5592  2.9365  0.4902
 2484TIP3   OH229010   2.485   2.190   1.575 -0.2815 -0.4806 -0.1310
 2484TIP3    H129011   2.551   2.121   1.583 -1.4247 -1.8677 -2.0192
 2484TIP3    H229012   2.455   2.204   1.665 -0.1259 -2.5705  0.2981
 2485TIP3   OH229013   0.344   0.604   5.147 -0.3974  0.4417  0.2872
 2485TIP3    H129014   0.264   0.653   5.130 -0.2617  0.7881  0.6392
 2485TIP3    H229015   0.398   0.663   5.199  0.7741  0.8366 -1.3144
 2486TIP3   OH229016   1.592   3.392  30.323 -0.3280 -0.1700 -0.2560
 2486TIP3    H129017   1.678   3.370  30.358  0.7427  1.0810 -1.9323
 2486TIP3    H229018   1.574   3.480  30.357 -0.5389 -0.0721 -0.6185
 2487TIP3   OH229019   2.930   0.050   5.644 -0.2606  0.6292  0.1364
 2487TIP3    H129020   2.952  -0.042   5.632  0.2105  0.7179  0.2640
 2487TIP3    H229021   2.997   0.082   5.705  0.0423  1.2336 -0.4963
 2488TIP3   OH229022   0.757   0.356  29.298  0.1109  0.7397  0.0887
 2488TIP3    H129023   0.800   0.307  29.229 -0.6996  0.0138  0.0795
 2488TIP3    H229024   0.825   0.412  29.334  0.8917  0.0820 -0.3388
 2489TIP3   OH229025   3.167   1.321  20.077  0.5101  0.3138  0.2005
 2489TIP3    H129026   3.172   1.341  19.984 -1.3352  0.1283  0.0329
 2489TIP3    H229027   3.080   1.283  20.089  1.1012 -0.6105  1.8292
 2490TIP3   OH229028   2.181   0.586  31.763 -0.1978 -0.0506 -0.3006
 2490TIP3    H129029   2.129   0.511  31.791  0.2994  0.3644  1.8538
 2490TIP3    H229030   2.116   0.653  31.741 -0.6156  0.1715  1.5136
 2491TIP3   OH229031   1.966   2.318  14.759 -0.0159 -0.2253 -0.0957
 2491TIP3    H129032   1.876   2.315  14.792  0.4376 -0.3978  1.1829
 2491TIP3    H229033   2.017   2.354  14.832  0.6968  1.6394 -1.4337
 2492TIP3   OH229034   1.273   1.558   3.619  0.0398 -0.0572  0.1114
 2492TIP3    H129035   1.337   1.618   3.580 -1.2588  3.0636  2.4137
 2492TIP3    H229036   1.198   1.562   3.560  0.1067  0.2760  0.0474
 2493TIP3   OH229037   3.280   3.274  28.568  0.1503  0.0875 -0.5351
 2493TIP3    H129038   3.282   3.262  28.663  1.0266 -2.0342 -0.7706
 2493TIP3    H229039   3.369   3.304  28.546  0.0776  0.1574 -0.7322
 2494TIP3   OH229040   2.719   2.662  26.727  1.1152  0.5649 -0.1459
 2494TIP3    H129041   2.792   2.638  26.670  1.8145  1.8700  0.1603
 2494TIP3    H229042   2.646   2.676  26.667  1.7321  1.5251 -0.6927
 2495TIP3   OH229043   3.015   0.562   2.048  0.0536 -0.5275 -0.2708
 2495TIP3    H129044   2.991   0.596   1.961 -0.9985  0.2723  0.3115
 2495TIP3    H229045   3.066   0.483   2.029 -1.3286 -1.1540 -1.6258
 2496TIP3   OH229046   2.003   3.057  26.682  0.1359  0.0370  0.2478
 2496TIP3    H129047   2.080   3.104  26.714  0.4559 -0.4054  0.1279
 2496TIP3    H229048   1.947   3.047  26.758  0.8491 -0.9307  0.6563
 2497TIP3   OH229049   2.403   1.020  20.115  0.3293 -0.4569 -0.5633
 2497TIP3    H129050   2.393   1.106  20.073 -1.2023 -1.2260 -1.8739
 2497TIP3    H229051   2.413   0.959  20.042 -0.0259 -1.5713  0.3026
 2498TIP3   OH229052   0.822   2.614  12.605 -0.4553 -0.5077  0.3303
 2498TIP3    H129053   0.813   2.593  12.513 -0.1408 -2.1929  0.6579
 2498TIP3    H229054   0.853   2.705  12.606  0.3216 -0.7266 -1.2352
 2499TIP3   OH229055   1.381   1.926   2.099 -0.6121 -0.2899 -0.5163
 2499TIP3    H129056   1.323   2.002   2.109  1.4530  1.4060 -0.6784
 2499TIP3    H229057   1.398   1.898   2.189 -1.0495 -0.3198 -0.4376
 2500TIP3   OH229058   2.129   3.134  10.783  0.0533  0.4103 -0.2969
 2500TIP3    H129059   2.051   3.129  10.838  0.8052  0.6503  0.8402
 2500TIP3    H229060   2.156   3.043  10.770 -0.0925  0.3547 -0.2093
 2501TIP3   OH229061   0.051   1.020  29.277  0.1121  0.3996 -0.1428
 2501TIP3    H129062   0.064   1.022  29.182  0.7522 -0.6781 -0.1022
 2501TIP3    H229063   0.029   1.110  29.301 -0.4323  0.6062 -1.3587
 2502TIP3   OH229064   2.322   0.752  27.617 -0.1876 -0.0071 -0.0739
 2502TIP3    H129065   2.285   0.717  27.536  1.7593 -0.5951 -0.7591
 2502TIP3    H229066   2.380   0.682  27.648 -0.0965  0.6392  1.2651
 2503TIP3   OH229067   1.872   1.553  32.240  0.5448 -0.4521  0.3038
 2503TIP3    H129068   1.965   1.572  32.251  0.4588 -0.1878  0.5754
 2503TIP3    H229069   1.869   1.459  32.223  0.9536 -0.2864 -0.8190
 2504TIP3   OH229070   1.886   2.259   3.296  0.2283 -0.1948  0.0814
 2504TIP3    H129071   1.967   2.237   3.342  0.6505  0.5926 -0.2713
 2504TIP3    H229072   1.909   2.333   3.241 -0.9409  0.5367  0.5472
 2505TIP3   OH229073   2.186   2.661   0.594 -0.3598  0.1565 -0.5272
 2505TIP3    H129074   2.259   2.607   0.566  1.2903  0.3733  2.8947
 2505TIP3    H229075   2.124   2.599   0.633  0.3275  0.3986  1.0161
 2506TIP3   OH229076   1.490   1.567   2.002 -0.4691  0.2690 -0.1594
 2506TIP3    H129077   1.395   1.573   2.012 -0.4939  1.6253 -0.9994
 2506TIP3    H229078   1.505   1.570   1.908  0.3352 -1.8721 -0.1656
 2507TIP3   OH229079   0.036   1.370  26.966  0.8751 -0.2025  0.0762
 2507TIP3    H129080  -0.009   1.454  26.958  1.6088  0.1476 -0.5415
 2507TIP3    H229081  -0.032   1.304  26.950  0.1232  0.2289  1.3495
 2508TIP3   OH229082   1.859   2.889   4.967 -0.2006 -0.4760 -0.0548
 2508TIP3    H129083   1.772   2.930   4.959  0.6008  1.7207  1.5140
 2508TIP3    H229084   1.882   2.865   4.877 -1.6643  0.5517 -0.7566
 2509TIP3   OH229085   3.209   0.924   5.188 -0.0181  0.0435  0.2591
 2509TIP3    H129086   3.183   1.015   5.202 -1.7527 -0.1439 -1.2835
 2509TIP3    H229087   3.303   0.922   5.208 -0.4121  1.5884  2.6589
 2510TIP3   OH229088   3.138   1.333  30.808 -0.3236  0.4880 -0.1959
 2510TIP3    H129089   3.085   1.255  30.824  0.4443 -0.0562 -0.2284
 2510TIP3    H229090   3.175   1.355  30.894  0.2427  0.2275 -0.3699
 2511TIP3   OH229091   1.850   1.411   4.711 -0.5154  0.3698 -0.2044
 2511TIP3    H129092   1.759   1.429   4.732 -0.6169  0.4631 -0.7052
 2511TIP3    H229093   1.863   1.319   4.736 -1.3865 -0.3436 -2.1733
 2512TIP3   OH229094   0.456   2.652  28.807  0.3975  0.1157  0.1343
 2512TIP3    H129095   0.464   2.655  28.902 -3.2106  0.6159  0.5842
 2512TIP3    H229096   0.475   2.741  28.778 -0.2149  0.4123  0.6223
 2513TIP3   OH229097   0.073   0.162  29.576 -0.5980 -1.0921  0.1544
 2513TIP3    H129098   0.148   0.105  29.595  0.2423  0.2372  1.0144
 2513TIP3    H229099   0.113   0.243  29.544 -1.7103 -0.5755  0.0343
 2514TIP3   OH229100   1.142   1.615  22.721  0.1244  0.2257  0.4182
 2514TIP3    H129101   1.125   1.531  22.763 -1.9429 -0.2891 -1.2471
 2514TIP3    H229102   1.103   1.679  22.781 -0.2921 -0.2309  0.6475
 2515TIP3   OH229103   0.421   0.418   4.095 -0.2501 -0.1158 -0.1881
 2515TIP3    H129104   0.399   0.377   4.011  0.2417 -4.1216  1.4682
 2515TIP3    H229105   0.516   0.428   4.093 -0.0907 -1.4280  0.3612
 2516TIP3   OH229106   3.174   2.533   5.991 -0.1720 -0.3411 -0.4340
 2516TIP3    H129107   3.178   2.568   6.080  0.1823 -2.5993  0.5096
 2516TIP3    H229108   3.210   2.603   5.936  2.3695  0.0763  1.5533
 2517TIP3   OH229109   1.570   2.207  20.983 -0.2067 -0.2431 -0.0714
 2517TIP3    H129110   1.618   2.129  20.957 -0.9516 -0.6461 -0.2612
 2517TIP3    H229111   1.538   2.188  21.071 -0.7118 -0.3201 -0.2627
 2518TIP3   OH229112   1.011   1.469   0.835 -0.1566  0.0971 -0.7811
 2518TIP3    H129113   1.089   1.520   0.811  0.2289  0.1015  0.4139
 2518TIP3    H229114   0.949   1.486   0.764  0.8566  0.2518 -1.6589
 2519TIP3   OH229115   1.494   2.834   7.083  0.2120  0.1755 -0.4220
 2519TIP3    H129116   1.437   2.758   7.093 -0.1822  0.5459  0.2142
 2519TIP3    H229117   1.451   2.903   7.134  0.8820  0.6481 -0.4873
 2520TIP3   OH229118   3.229   1.324  29.621  0.2607 -0.0259 -0.4073
 2520TIP3    H129119   3.148   1.311  29.572  0.1695  0.7126 -0.4658
 2520TIP3    H229120   3.252   1.237  29.654 -0.4022 -0.2856 -0.6264
 2521TIP3   OH229121   1.799   0.499  28.566  0.2025  0.2077  0.2685
 2521TIP3    H129122   1.773   0.522  28.477  1.2168  1.0727  0.1707
 2521TIP3    H229123   1.716   0.483  28.612 -0.3840  0.7872 -0.5539
 2522TIP3   OH229124   1.854   1.801  31.129  0.0720 -0.4775  0.4303
 2522TIP3    H129125   1.780   1.850  31.164 -0.5773 -0.2209 -1.2231
 2522TIP3    H229126   1.926   1.819  31.189 -1.0120 -0.1557  1.6677
 2523TIP3   OH229127   3.162   1.490   1.528 -0.8784  0.0023 -0.1991
 2523TIP3    H129128   3.091   1.437   1.564 -0.6621 -0.4009 -0.3522
 2523TIP3    H229129   3.234   1.479   1.590 -0.9469  0.4041 -0.0479
 2524TIP3   OH229130   1.202   0.620  29.362 -0.4331 -0.3659 -0.6079
 2524TIP3    H129131   1.124   0.623  29.418  0.0833 -1.4298  0.1989
 2524TIP3    H229132   1.263   0.680  29.405 -1.2728  1.6613 -2.0602
 2525TIP3   OH229133   2.940   2.641   2.503  0.8642 -0.3673 -0.7249
 2525TIP3    H129134   2.914   2.601   2.586  2.6819 -1.4426 -0.6203
 2525TIP3    H229135   2.860   2.682   2.470  0.7841  3.2949  3.2556
 2526TIP3   OH229136   2.738   2.568  29.725  0.2542  0.1208  0.3472
 2526TIP3    H129137   2.757   2.530  29.639  3.0140  2.1474 -0.0984
 2526TIP3    H229138   2.711   2.658  29.705  1.5255  0.8111  1.5462
 2527TIP3   OH229139   1.985   1.616   7.631  0.0982 -0.3459 -0.1307
 2527TIP3    H129140   2.036   1.605   7.712 -0.7496 -1.7205  0.2521
 2527TIP3    H229141   1.911   1.557   7.642 -1.6370  1.6264 -0.6533
 2528TIP3   OH229142   0.574   1.668   3.032 -0.2908  0.2200 -0.0785
 2528TIP3    H129143   0.516   1.688   2.958 -1.2812  0.4414  0.7347
 2528TIP3    H229144   0.533   1.712   3.107  1.2210  0.8232  0.4246
 2529TIP3   OH229145   2.448   2.485   4.807 -0.4120  0.0760  0.0535
 2529TIP3    H129146   2.523   2.541   4.787 -0.7237  0.9945  1.3056
 2529TIP3    H229147   2.486   2.402   4.835  0.0522 -0.5005 -2.1325
 2530TIP3   OH229148   1.474   3.024  32.735  0.1348 -0.3729  0.0695
 2530TIP3    H129149   1.452   3.095  32.674  0.5329 -1.0726 -0.9227
 2530TIP3    H229150   1.390   2.995  32.770 -0.2068 -0.5463 -0.8505
 2531TIP3   OH229151   2.163   2.815  28.397 -0.1035 -0.2297 -0.8585
 2531TIP3    H129152   2.203   2.797  28.312  0.4431 -0.8601 -0.4801
 2531TIP3    H229153   2.215   2.886  28.434  0.1310 -0.4706 -0.7284
 2532TIP3   OH229154   1.645   0.306  26.193 -0.0545 -0.7935 -0.2162
 2532TIP3    H129155   1.673   0.284  26.104  0.3874 -1.4443  0.0794
 2532TIP3    H229156   1.719   0.283  26.248  0.4625  1.4644  0.1400
 2533TIP3   OH229157   2.667   2.025  31.042 -0.2476 -0.4334 -0.3114
 2533TIP3    H129158   2.599   1.958  31.033 -1.1534  0.2864  0.8869
 2533TIP3    H229159   2.745   1.977  31.070 -0.5293 -1.1366 -0.7042
 2534TIP3   OH229160   2.038   1.063   5.050  0.2326  0.3659  0.2778
 2534TIP3    H129161   1.986   1.130   5.092 -0.9133  0.1866 -0.7818
 2534TIP3    H229162   1.988   0.982   5.064  0.3314  0.1525 -0.5446
 2535TIP3   OH229163   0.438   1.129   0.938 -0.5009  0.0314 -0.3178
 2535TIP3    H129164   0.414   1.116   0.847 -1.4040  1.2245 -0.2747
 2535TIP3    H229165   0.512   1.069   0.952 -0.6396 -0.5003 -1.6863
 2536TIP3   OH229166   3.480   2.408   3.776  0.0897  0.4837 -0.5027
 2536TIP3    H129167   3.435   2.444   3.699 -0.5328 -0.2798 -0.5039
 2536TIP3    H229168   3.469   2.313   3.768  0.8117  0.3421  0.0539
 2537TIP3   OH229169   2.241   1.925   1.715  0.3733  0.1331 -0.0566
 2537TIP3    H129170   2.149   1.944   1.730 -0.1324 -2.0674 -0.0515
 2537TIP3    H229171   2.243   1.878   1.631  1.3775 -0.4587  0.2707
 2538TIP3   OH229172   0.983   2.661   6.820 -0.2739 -0.0208 -0.0373
 2538TIP3    H129173   1.066   2.684   6.778 -0.9978  0.1965 -1.4032
 2538TIP3    H229174   0.965   2.734   6.879 -0.7827  1.2606 -1.7042
 2539TIP3   OH229175   0.049   2.772  32.405 -0.1250  0.0066  0.2142
 2539TIP3    H129176   0.025   2.680  32.396  0.8909 -0.3526  0.9416
 2539TIP3    H229177   0.081   2.797  32.319  0.3162 -0.5516  0.2088
 2540TIP3   OH229178   0.714   2.852   4.043 -0.1105  0.2252  0.1558
 2540TIP3    H129179   0.782   2.786   4.050 -0.8358 -0.6073 -0.3828
 2540TIP3    H229180   0.662   2.826   3.966 -0.8556  0.9971  0.3726
 2541TIP3   OH229181   1.281   3.176  28.974  0.4461 -0.0802  0.1947
 2541TIP3    H129182   1.359   3.220  29.009  0.5408 -1.1201  1.3234
 2541TIP3    H229183   1.296   3.176  28.879  1.7333 -0.0965  0.3727
 2542TIP3   OH229184   2.674   0.990  28.097  0.3343 -0.1388 -0.1598
 2542TIP3    H129185   2.645   1.010  28.008 -0.4719 -1.9369 -0.3615
 2542TIP3    H229186   2.681   0.894  28.098 -1.0986 -0.2944  2.0966
 2543TIP3   OH229187   0.231   2.234   5.516  0.2520 -0.3709  0.2989
 2543TIP3    H129188   0.266   2.222   5.604  0.7313  1.0422  0.3115
 2543TIP3    H229189   0.155   2.175   5.513  0.5521 -0.8446  1.4573
 2544TIP3   OH229190   2.153   1.638  32.320  0.2461 -0.3862  0.3281
 2544TIP3    H129191   2.169   1.618  32.412  0.1415 -0.7585  0.2656
 2544TIP3    H229192   2.237   1.670  32.287  0.1828  0.1221  0.6509
 2545TIP3   OH229193   0.428   2.260   5.018 -0.2763 -0.0766 -1.0899
 2545TIP3    H129194   0.344   2.270   4.972 -0.7351 -0.4676 -0.3570
 2545TIP3    H229195   0.467   2.348   5.014 -1.3255  0.4495 -0.2961
 2546TIP3   OH229196   2.609   1.044  27.810 -0.5976 -0.1570  0.0039
 2546TIP3    H129197   2.682   0.990  27.776 -0.3091  1.1569 -1.5830
 2546TIP3    H229198   2.537   1.026  27.750 -0.5427  1.0682 -0.4533
 2547TIP3   OH229199   1.698   0.321  12.709  0.0760 -0.2491 -0.4036
 2547TIP3    H129200   1.768   0.300  12.647  2.4089  1.1444  1.5392
 2547TIP3    H229201   1.681   0.414  12.696  0.3039 -0.0344  0.6894
 2548TIP3   OH229202   1.009   1.136   3.882  1.0217  0.3990  0.9579
 2548TIP3    H129203   0.934   1.181   3.922 -0.4825 -1.1015 -0.0813
 2548TIP3    H229204   1.051   1.204   3.829 -0.6433  0.8808  0.1665
 2549TIP3   OH229205   3.164   1.727  27.426  0.2291  0.5091  0.3454
 2549TIP3    H129206   3.122   1.686  27.501  0.0094 -0.6156 -0.3617
 2549TIP3    H229207   3.197   1.654  27.373  1.7911  1.3104  0.1341
 2550TIP3   OH229208   1.175   2.369  31.382  0.4721 -0.1139 -0.3218
 2550TIP3    H129209   1.139   2.332  31.463  0.3995  2.2794  0.8199
 2550TIP3    H229210   1.247   2.311  31.359 -0.3605 -1.6137  0.6847
 2551TIP3   OH229211   2.356   1.980   3.352 -0.3385  0.8609  0.3394
 2551TIP3    H129212   2.272   1.948   3.321  0.3588 -1.6668  0.8529
 2551TIP3    H229213   2.380   2.049   3.289 -2.5482  1.3639 -0.0400
 2552TIP3   OH229214   1.879   0.170  31.644 -0.1360 -0.0798 -0.3612
 2552TIP3    H129215   1.879   0.078  31.617 -1.2489 -0.3880  0.5836
 2552TIP3    H229216   1.790   0.185  31.677  0.3255  1.0637  0.4214
 2553TIP3   OH229217   1.315   3.425   5.502 -0.2124 -0.0058  0.0900
 2553TIP3    H129218   1.313   3.507   5.553 -1.5867  1.0262 -1.5349
 2553TIP3    H229219   1.383   3.440   5.436 -0.1465 -0.3670  0.0753
 2554TIP3   OH229220   1.949   2.403  20.687 -0.7856  0.0711 -0.4823
 2554TIP3    H129221   1.966   2.485  20.640  0.6060 -0.3803 -0.8184
 2554TIP3    H229222   2.007   2.407  20.763 -1.6703 -0.0364  0.2113
 2555TIP3   OH229223   0.125   1.658  25.659  0.2554 -0.0356 -0.5100
 2555TIP3    H129224   0.157   1.747  25.647 -0.6473  0.2086 -1.2028
 2555TIP3    H229225   0.175   1.606  25.597 -1.3457  0.5184 -2.3698
 2556TIP3   OH229226   0.459   1.175   4.851  0.0756 -0.0105  0.1529
 2556TIP3    H129227   0.401   1.217   4.786 -1.3592 -0.7212  0.9218
 2556TIP3    H229228   0.495   1.099   4.806 -0.5396 -0.2334  0.0297
 2557TIP3   OH229229   0.931   3.072   0.493  0.4410 -0.2648 -0.0384
 2557TIP3    H129230   1.016   3.109   0.518  0.1816 -0.4292  1.1371
 2557TIP3    H229231   0.874   3.149   0.486  0.1718 -0.3123  1.3227
 2558TIP3   OH229232   1.396   0.728  29.188 -0.1384  0.3139 -0.0284
 2558TIP3    H129233   1.458   0.777  29.242 -1.6652  0.4438  1.7188
 2558TIP3    H229234   1.399   0.639  29.224 -0.3781  0.1346 -0.4453
 2559TIP3   OH229235   3.242   2.430   5.335  0.2878 -0.0896  0.8989
 2559TIP3    H129236   3.188   2.414   5.413 -0.3750  0.6386  0.6026
 2559TIP3    H229237   3.330   2.403   5.361  0.1217  0.3578  1.9819
 2560TIP3   OH229238   1.061   1.696  29.336 -0.3672 -1.4505  0.1486
 2560TIP3    H129239   0.996   1.764  29.355  0.8570  0.0644 -0.8123
 2560TIP3    H229240   1.012   1.629  29.289 -1.1218  0.0204 -1.2576
 2561TIP3   OH229241   0.463   1.875   3.960  0.0018  0.3619 -0.3035
 2561TIP3    H129242   0.535   1.868   4.023  0.7068  0.9296 -1.0139
 2561TIP3    H229243   0.483   1.955   3.911 -0.0647 -0.5075 -1.8001
 2562TIP3   OH229244   0.898   1.221   6.925 -0.1312 -0.3174 -0.2741
 2562TIP3    H129245   0.831   1.167   6.966 -0.2692  0.4225  0.5188
 2562TIP3    H229246   0.865   1.311   6.934 -1.3297 -0.2102 -4.1309
 2563TIP3   OH229247   0.105   3.402  31.718  0.2918 -0.6670 -0.0773
 2563TIP3    H129248   0.068   3.348  31.648  1.6270 -1.3879 -0.2572
 2563TIP3    H229249   0.032   3.416  31.778  0.1070 -3.5478  0.4920
 2564TIP3   OH229250   1.003   0.866   3.969  0.5293 -0.2351  0.2547
 2564TIP3    H129251   1.059   0.811   3.914 -1.0107 -0.6030 -1.0320
 2564TIP3    H229252   1.035   0.955   3.955  1.3750 -0.5202  0.2996
 2565TIP3   OH229253   2.632   1.112  28.334  0.0770  0.0551 -0.5632
 2565TIP3    H129254   2.625   1.074  28.247  1.2178  1.8713 -1.5117
 2565TIP3    H229255   2.596   1.046  28.392  0.4980 -1.7558 -2.2628
 2566TIP3   OH229256   0.599   1.520   3.818  0.0116 -0.1000 -0.5621
 2566TIP3    H129257   0.640   1.438   3.844 -0.3104  0.0926  0.6253
 2566TIP3    H229258   0.662   1.561   3.760  1.7279  0.3696  1.5162
 2567TIP3   OH229259   2.274   3.035  13.621 -0.0199 -0.3731  0.6612
 2567TIP3    H129260   2.347   3.062  13.677 -0.5312  1.8769  0.3550
 2567TIP3    H229261   2.315   3.002  13.542  0.6716 -1.5492  1.4755
 2568TIP3   OH229262   3.064   0.959   1.785  0.3541 -0.0609 -0.3040
 2568TIP3    H129263   3.132   0.973   1.851 -0.6920 -1.2344  1.0732
 2568TIP3    H229264   2.987   1.002   1.821 -0.0572 -0.0805 -1.1364
 2569TIP3   OH229265   2.928   0.715   1.794  0.8444  0.6530  0.0928
 2569TIP3    H129266   2.990   0.788   1.789 -1.4041  2.8942  1.9758
 2569TIP3    H229267   2.856   0.748   1.848 -1.1038 -2.4454 -0.3261
 2570TIP3   OH229268   0.669   3.107  31.955  0.0585  0.1535  0.0597
 2570TIP3    H129269   0.651   3.200  31.971  1.2437  0.9067 -2.5033
 2570TIP3    H229270   0.612   3.083  31.883  0.2776 -0.9304  0.2328
 2571TIP3   OH229271   0.746   2.783  30.596  0.2056 -0.2390 -0.1529
 2571TIP3    H129272   0.740   2.793  30.691  0.8588 -0.2931 -0.1025
 2571TIP3    H229273   0.667   2.825  30.563  0.1396  0.0799  0.3960
 2572TIP3   OH229274   2.749   1.580  19.320 -0.0667 -0.0060 -0.4357
 2572TIP3    H129275   2.669   1.530  19.335 -0.1935  0.4785  0.7001
 2572TIP3    H229276   2.785   1.546  19.239 -1.3355 -0.3547 -0.8729
 2573TIP3   OH229277   0.842   3.029   0.982  0.3521  0.6230  0.2891
 2573TIP3    H129278   0.788   3.052   0.907 -1.1995 -1.0988  0.8003
 2573TIP3    H229279   0.911   2.973   0.945  0.9364  1.6232 -0.1560
 2574TIP3   OH229280   1.870   2.565   1.164  0.0891 -0.3303  0.2828
 2574TIP3    H129281   1.895   2.588   1.074 -0.7857  0.0338  0.1304
 2574TIP3    H229282   1.939   2.603   1.218  0.1768  0.1749 -0.1761
 2575TIP3   OH229283   2.883   0.360  29.426  0.4576  0.7357 -0.3989
 2575TIP3    H129284   2.847   0.302  29.493  0.6412  0.4453 -0.5549
 2575TIP3    H229285   2.841   0.445  29.444  1.1487  0.8785  0.6254
 2576TIP3   OH229286   2.082   0.270  29.150  0.2449 -0.1059  0.0385
 2576TIP3    H129287   2.113   0.180  29.158  0.5466  0.1066  1.5359
 2576TIP3    H229288   2.066   0.282  29.056 -0.2670 -1.8651 -0.1278
 2577TIP3   OH229289   2.273   0.528  27.864  0.4995 -0.0049 -0.3936
 2577TIP3    H129290   2.354   0.520  27.814  2.5259 -2.6012  2.8217
 2577TIP3    H229291   2.209   0.475  27.816  1.7468 -0.7847 -1.2375
 2578TIP3   OH229292   1.644   3.152  11.961 -0.0894  0.6444  0.4831
 2578TIP3    H129293   1.624   3.061  11.938  0.8704  0.3061  0.9060
 2578TIP3    H229294   1.712   3.145  12.029  1.7368  1.6817 -1.1433
 2579TIP3   OH229295   1.232   2.049   2.970 -0.3513 -0.0644  0.1184
 2579TIP3    H129296   1.321   2.032   2.998 -0.3059  0.1565  0.1136
 2579TIP3    H229297   1.184   2.065   3.051 -0.2465  0.4521  0.0808
 2580TIP3   OH229298   2.646   0.968  19.366 -0.0618 -0.3514  0.1240
 2580TIP3    H129299   2.739   0.984  19.352 -0.1379  1.6150  1.5102
 2580TIP3    H229300   2.626   1.010  19.450 -2.0536 -1.3893  0.2443
 2581TIP3   OH229301   2.811   3.056   1.354  0.0280 -0.2602 -0.3045
 2581TIP3    H129302   2.798   2.980   1.297 -0.1008  0.4978 -1.3106
 2581TIP3    H229303   2.786   3.025   1.442 -4.5291 -0.1635 -1.3264
 2582TIP3   OH229304   2.877   2.350  27.165 -0.0689 -0.0043 -0.0604
 2582TIP3    H129305   2.924   2.422  27.123 -1.8843  0.7425 -0.9306
 2582TIP3    H229306   2.866   2.285  27.095  0.7718 -0.7586  0.4843
 2583TIP3   OH229307   3.276   2.589  23.007 -0.2123  0.2865  0.0084
 2583TIP3    H129308   3.239   2.603  22.919  1.6185  1.1838 -0.6790
 2583TIP3    H229309   3.257   2.498  23.027  1.6049 -0.7872 -2.5177
 2584TIP3   OH229310   0.856   3.411   4.289 -0.4441 -0.0822 -0.1404
 2584TIP3    H129311   0.919   3.361   4.237 -0.0940  1.2918 -1.0808
 2584TIP3    H229312   0.904   3.435   4.368 -0.0143  0.3136 -0.5136
 2585TIP3   OH229313   0.345   1.688  26.017  0.5347 -0.1712 -0.0831
 2585TIP3    H129314   0.250   1.687  26.030  0.8923 -0.7632  3.7853
 2585TIP3    H229315   0.363   1.611  25.963 -1.1656  0.1662 -1.2056
 2586TIP3   OH229316   0.232   0.278  27.612  0.2992  0.0751 -0.0431
 2586TIP3    H129317   0.316   0.244  27.580  0.5864  2.0063 -1.4673
 2586TIP3    H229318   0.181   0.297  27.533 -0.0482  2.3753  0.6707
 2587TIP3   OH229319   2.286   2.509   4.438 -0.3891  0.1361  0.1021
 2587TIP3    H129320   2.372   2.544   4.413 -0.8392  0.7210 -0.6711
 2587TIP3    H229321   2.242   2.492   4.355 -0.6680 -1.0926  0.4801
 2588TIP3   OH229322   2.912   1.457  19.891  0.4921 -0.1979 -0.8610
 2588TIP3    H129323   2.891   1.475  19.982  1.1529  1.0168 -0.9244
 2588TIP3    H229324   2.941   1.541  19.856  0.9598 -0.8015 -1.9896
 2589TIP3   OH229325   1.309   0.943   0.736  0.3588 -0.2676 -0.3109
 2589TIP3    H129326   1.330   0.890   0.659 -0.3063 -0.6430 -0.2388
 2589TIP3    H229327   1.265   0.883   0.796  0.2107  0.1998  0.0543
 2590TIP3   OH229328   0.521   2.655   5.499  0.3213 -0.1506 -0.3794
 2590TIP3    H129329   0.450   2.592   5.485 -0.2549  0.3320  0.2349
 2590TIP3    H229330   0.475   2.735   5.527  1.0578  0.4304 -0.8111
 2591TIP3   OH229331   0.892   1.846   6.494 -0.1774 -0.2258  0.2797
 2591TIP3    H129332   0.978   1.837   6.453 -0.8843 -1.2503 -1.0771
 2591TIP3    H229333   0.909   1.890   6.577  1.2958  2.2443 -1.2281
 2592TIP3   OH229334   3.186   0.698  30.865  0.2023 -0.5386 -0.0793
 2592TIP3    H129335   3.126   0.625  30.884 -3.0407  1.9796  0.3667
 2592TIP3    H229336   3.195   0.744  30.948 -0.6580  1.4182 -0.9965
 2593TIP3   OH229337   0.598   3.034   1.464  0.5404  0.3528 -0.0431
 2593TIP3    H129338   0.610   3.089   1.386  0.2778 -0.3582 -0.6015
 2593TIP3    H229339   0.503   3.025   1.472  0.5895 -0.8874 -0.6017
 2594TIP3   OH229340   2.697   1.943  28.200  1.2452  0.2385  0.3861
 2594TIP3    H129341   2.675   2.028  28.163 -2.1363 -0.3908  0.6537
 2594TIP3    H229342   2.701   1.958  28.295 -1.6440 -0.1796  0.6689
 2595TIP3   OH229343   3.014   2.791  30.934 -0.0322 -0.4059 -0.0801
 2595TIP3    H129344   3.012   2.861  31.000 -1.0432  0.2315 -0.7680
 2595TIP3    H229345   3.063   2.828  30.861  0.3984 -0.8338 -0.0192
 2596TIP3   OH229346   3.408   1.337  28.095  0.1446 -0.0155  0.1802
 2596TIP3    H129347   3.474   1.399  28.125  0.1789  0.0663 -0.0558
 2596TIP3    H229348   3.334   1.350  28.153 -0.1612  0.8406 -0.3831
 2597TIP3   OH229349   3.194   1.668  30.732  0.0581  0.0152 -1.2368
 2597TIP3    H129350   3.228   1.604  30.794 -0.4713  1.2197  0.3722
 2597TIP3    H229351   3.118   1.625  30.692 -0.8782 -0.0438  0.5294
 2598TIP3   OH229352   1.892   3.213   0.624 -0.1810 -0.0569 -0.1333
 2598TIP3    H129353   1.860   3.133   0.666  0.8499 -1.2890 -1.5680
 2598TIP3    H229354   1.937   3.182   0.545 -0.7281  2.0465 -1.3342
 2599TIP3   OH229355   1.908   1.532  21.288  0.0765  0.3036 -0.1273
 2599TIP3    H129356   1.846   1.603  21.305 -1.7827 -1.1012 -0.7386
 2599TIP3    H229357   1.871   1.484  21.214  1.2462 -1.3385  0.2837
 2600TIP3   OH229358   2.635   1.737  30.708 -0.0332 -0.2574 -0.1533
 2600TIP3    H129359   2.659   1.791  30.634  0.7952 -0.3178  0.0675
 2600TIP3    H229360   2.555   1.692  30.680 -1.6288  2.1571  0.1840
 2601TIP3   OH229361   0.127   2.213   0.303  0.4357  0.3767  0.2246
 2601TIP3    H129362   0.193   2.203   0.234 -0.4695  0.1775 -0.6261
 2601TIP3    H229363   0.091   2.301   0.289  1.1669  0.8712  1.2867
 2602TIP3   OH229364   2.404   1.798  20.834 -0.0421 -0.3051  0.3936
 2602TIP3    H129365   2.457   1.731  20.791 -0.0982 -0.8871  1.2094
 2602TIP3    H229366   2.461   1.874  20.840  0.1380 -0.3828 -0.2354
 2603TIP3   OH229367   2.155   1.467  25.811 -0.3483 -0.3406 -0.0869
 2603TIP3    H129368   2.214   1.401  25.846  0.1134 -0.0458 -0.3080
 2603TIP3    H229369   2.164   1.542  25.870 -1.5106 -0.7607  0.6718
 2604TIP3   OH229370   2.565   2.294  21.200 -0.3162  0.6066  0.2741
 2604TIP3    H129371   2.654   2.259  21.195 -0.1975  1.0420 -0.8824
 2604TIP3    H229372   2.542   2.287  21.293  0.5461 -0.4251  0.4354
 2605TIP3   OH229373   0.118   0.670   3.071  0.4285  0.2350  0.2187
 2605TIP3    H129374   0.110   0.595   3.130 -1.1656 -0.0043 -0.2410
 2605TIP3    H229375   0.168   0.734   3.121  1.2021 -0.8597  0.8993
 2606TIP3   OH229376   0.280   3.509  30.607 -0.0300 -0.2600 -0.4198
 2606TIP3    H129377   0.218   3.496  30.679 -0.6689  1.9070 -0.4885
 2606TIP3    H229378   0.365   3.513  30.649 -0.1994 -0.8143 -0.0124
 2607TIP3   OH229379   0.673   2.508   5.290 -0.2963 -0.0799 -0.4761
 2607TIP3    H129380   0.765   2.520   5.270 -0.0931  0.5764  0.7656
 2607TIP3    H229381   0.648   2.585   5.341 -1.1830 -0.8633  0.3346
 2608TIP3   OH229382   1.969   2.636  30.179 -0.2062  0.0333  0.2888
 2608TIP3    H129383   1.987   2.544  30.196  1.1791 -0.3717 -2.7264
 2608TIP3    H229384   2.056   2.675  30.165 -0.8759  1.3698 -0.3253
 2609TIP3   OH229385   3.184   2.637  29.218 -0.0848 -0.5176  0.1246
 2609TIP3    H129386   3.177   2.583  29.139 -0.3047 -1.4744  0.7787
 2609TIP3    H229387   3.222   2.719  29.188 -1.9891 -0.1235 -1.3115
 2610TIP3   OH229388   0.835   0.262  27.100  0.1365  0.4447 -0.5375
 2610TIP3    H129389   0.791   0.339  27.063 -1.7376 -0.6884 -0.7976
 2610TIP3    H229390   0.929   0.281  27.091 -0.2805  2.0569 -1.9293
 2611TIP3   OH229391   0.825   2.367   0.545 -0.2863 -0.3786  0.0889
 2611TIP3    H129392   0.798   2.335   0.459  0.6836 -1.8107  0.2873
 2611TIP3    H229393   0.861   2.291   0.590  0.0048  0.5160  1.4657
 2612TIP3   OH229394   0.629   1.558  24.782  0.2806  0.1636  0.2778
 2612TIP3    H129395   0.558   1.611  24.746 -0.1641 -0.1680  0.6439
 2612TIP3    H229396   0.679   1.529  24.706 -1.8294 -2.2538 -0.3449
 2613TIP3   OH229397   3.239   2.076   6.878  0.1152 -0.4088 -0.4496
 2613TIP3    H129398   3.324   2.115   6.899  0.5239 -0.9235 -1.0789
 2613TIP3    H229399   3.209   2.038   6.960  0.6127 -0.4345 -0.2749
 2614TIP3   OH229400   1.222   0.615  25.794  0.4333 -0.5766  0.5074
 2614TIP3    H129401   1.241   0.690  25.738  0.6051 -0.3636  0.8500
 2614TIP3    H229402   1.193   0.654  25.877 -0.5454 -0.8899  0.3256
 2615TIP3   OH229403   1.980   2.600  30.975 -0.2993 -0.5356  0.4603
 2615TIP3    H129404   2.030   2.580  31.054  0.0457  1.7212  0.8847
 2615TIP3    H229405   1.926   2.676  31.000 -0.2029  0.2048 -1.4548
 2616TIP3   OH229406   0.840   2.760   4.630 -0.1039 -0.5698 -0.1946
 2616TIP3    H129407   0.905   2.698   4.594  0.4536 -0.6218  0.8663
 2616TIP3    H229408   0.813   2.720   4.712  0.3055  0.6137  0.5370
 2617TIP3   OH229409   0.418   0.269  12.121  0.6617  0.3900 -0.5045
 2617TIP3    H129410   0.466   0.350  12.105  0.1785  1.0056  0.9538
 2617TIP3    H229411   0.486   0.202  12.128  1.1492  0.8572 -0.6916
 2618TIP3   OH229412   2.270   0.026   6.373  1.0710 -0.6946  0.0256
 2618TIP3    H129413   2.345   0.044   6.316  0.0347 -1.0075 -1.4904
 2618TIP3    H229414   2.207   0.094   6.352  0.4306 -1.1765  0.3459
 2619TIP3   OH229415   2.982   0.522  30.174 -0.1380  0.2923  0.0172
 2619TIP3    H129416   2.963   0.518  30.268  1.0959  3.0647  0.4872
 2619TIP3    H229417   3.035   0.444  30.157 -0.2673 -0.2018  1.6577
 2620TIP3   OH229418   0.331   3.339  31.345  0.0313 -0.7026 -0.3778
 2620TIP3    H129419   0.369   3.325  31.432 -0.4758 -0.9495 -0.1928
 2620TIP3    H229420   0.304   3.430  31.345 -1.3029 -1.0705  0.2645
 2621TIP3   OH229421   3.109   0.042  31.005 -1.0266  0.1717  0.1194
 2621TIP3    H129422   3.023   0.034  31.046 -0.3754 -0.4691  1.4270
 2621TIP3    H229423   3.171   0.046  31.078  0.0119  1.4444 -0.7644
 2622TIP3   OH229424   3.348   0.007   3.099 -0.2465  0.0725 -0.1400
 2622TIP3    H129425   3.390   0.037   3.019 -0.7219  1.1270 -0.0169
 2622TIP3    H229426   3.262   0.050   3.099 -1.0807 -1.5265 -0.0745
 2623TIP3   OH229427   1.745   3.106   0.277  0.4950  0.1306 -0.7835
 2623TIP3    H129428   1.662   3.131   0.318 -0.5613 -1.2021 -1.9831
 2623TIP3    H229429   1.720   3.075   0.190  2.2993 -0.0651 -1.2663
 2624TIP3   OH229430   2.895   2.472   2.706 -0.2197 -0.0297 -0.1184
 2624TIP3    H129431   2.810   2.478   2.750 -1.3058 -0.2233 -2.0975
 2624TIP3    H229432   2.940   2.400   2.751 -0.6903  0.6521  1.5341
 2625TIP3   OH229433   1.904   1.196   1.009  0.5505  0.3772 -0.2839
 2625TIP3    H129434   1.993   1.227   0.990  0.1658  0.7008 -1.6300
 2625TIP3    H229435   1.916   1.129   1.077  2.0193 -0.8627 -1.6847
 2626TIP3   OH229436   0.453   1.152  27.867  0.2079 -0.6287  0.9914
 2626TIP3    H129437   0.416   1.072  27.903 -0.4026 -0.4275  0.8175
 2626TIP3    H229438   0.467   1.133  27.774 -0.4314 -0.3652  0.8351
 2627TIP3   OH229439   3.242   1.942  29.710  0.0780  0.0436  0.6088
 2627TIP3    H129440   3.161   1.894  29.690 -0.8358  0.8240  2.1850
 2627TIP3    H229441   3.238   1.957  29.804  2.3350 -0.3059  0.8067
 2628TIP3   OH229442   1.130   2.068  32.093 -0.2653  0.1919  0.1293
 2628TIP3    H129443   1.078   2.057  32.173 -0.9334  0.0416 -0.3186
 2628TIP3    H229444   1.220   2.055  32.121 -0.3246  1.7114  1.1731
 2629TIP3   OH229445   1.250   0.671   3.479  0.0099  0.0995 -0.7552
 2629TIP3    H129446   1.213   0.637   3.560 -1.2939  1.0461 -0.9163
 2629TIP3    H229447   1.342   0.687   3.499  0.6017 -3.0134 -0.5669
 2630TIP3   OH229448   1.420   2.072  27.711  0.5247 -0.6875  0.0610
 2630TIP3    H129449   1.497   2.056  27.656 -0.0558  1.6816 -1.5470
 2630TIP3    H229450   1.392   2.161  27.689 -4.0420 -2.1375 -1.1541
 2631TIP3   OH229451   1.019   3.093   3.437  0.0819  0.1799 -0.3070
 2631TIP3    H129452   1.009   3.179   3.477  0.3211 -0.4362  1.1489
 2631TIP3    H229453   0.965   3.035   3.491  1.0780 -0.8351 -0.3586
 2632TIP3   OH229454   0.949   1.530   1.629 -0.4412 -0.3055  0.4642
 2632TIP3    H129455   0.953   1.587   1.706  0.3136 -1.1275  1.0519
 2632TIP3    H229456   0.889   1.575   1.569  1.2073  1.8632  0.2837
 2633TIP3   OH229457   3.257   2.950  31.996 -0.3458 -0.4336  0.1771
 2633TIP3    H129458   3.228   2.886  31.931 -0.7724 -0.2851  0.2194
 2633TIP3    H229459   3.195   2.941  32.068 -2.2521  2.0226 -0.9776
 2634TIP3   OH229460   2.955   2.529  22.430 -0.2685 -0.4198  0.0966
 2634TIP3    H129461   2.875   2.579  22.413  0.7514  1.7210  1.2111
 2634TIP3    H229462   2.974   2.484  22.348 -0.5191  2.1349 -1.4548
 2635TIP3   OH229463   2.649   3.219   0.808  0.2081 -0.7711 -0.2769
 2635TIP3    H129464   2.643   3.130   0.842 -0.0903 -0.4989  0.3965
 2635TIP3    H229465   2.575   3.227   0.747  0.8518 -1.3185 -1.1450
 2636TIP3   OH229466   1.341   2.694  26.499 -0.0070  0.0123  0.4781
 2636TIP3    H129467   1.308   2.703  26.409 -0.1879  1.6135  0.6828
 2636TIP3    H229468   1.333   2.601  26.517  1.5241 -0.6413 -1.7306
 2637TIP3   OH229469   1.452   2.561   2.019 -0.9402  0.2044 -0.0131
 2637TIP3    H129470   1.431   2.619   1.946  0.8559 -1.1186 -1.6801
 2637TIP3    H229471   1.543   2.581   2.041 -0.6238 -1.2192  0.0671
 2638TIP3   OH229472   3.181   1.189  26.795  0.2535  0.6644  0.1718
 2638TIP3    H129473   3.125   1.162  26.722  0.3526  1.0105 -0.0301
 2638TIP3    H229474   3.264   1.213  26.755  0.4877  0.3391  0.4551
 2639TIP3   OH229475   1.984   3.071  32.846 -0.0369 -0.5430 -0.3912
 2639TIP3    H129476   1.955   3.065  32.755  1.6970 -1.1073 -0.9535
 2639TIP3    H229477   1.943   3.151  32.879 -2.2043 -1.2925 -1.0540
 2640TIP3   OH229478   1.080   3.502  30.142 -0.4075 -0.1141  0.1686
 2640TIP3    H129479   1.109   3.589  30.168 -0.9581  0.0049  0.4052
 2640TIP3    H229480   0.999   3.488  30.191 -1.6411  0.2322 -1.6683
 2641TIP3   OH229481   1.979   1.196   7.724 -0.1653 -0.3135 -0.3327
 2641TIP3    H129482   1.959   1.262   7.791 -0.9327 -0.5381 -0.3266
 2641TIP3    H229483   2.074   1.182   7.731 -0.3189 -0.8197  1.1757
 2642TIP3   OH229484   2.197   2.737   0.158  0.0441 -0.1468  0.3451
 2642TIP3    H129485   2.232   2.817   0.118 -0.5996  0.2315  0.5313
 2642TIP3    H229486   2.136   2.702   0.093  1.5678 -1.4160 -0.4559
 2643TIP3   OH229487   2.412   2.251   4.318  1.0172  0.8421 -0.2743
 2643TIP3    H129488   2.379   2.309   4.387  2.1163  0.8243  0.2955
 2643TIP3    H229489   2.507   2.268   4.316  1.6146 -1.8518  0.8454
 2644TIP3   OH229490   0.619   2.709  31.654 -0.3947 -0.1558 -0.4004
 2644TIP3    H129491   0.561   2.708  31.579 -3.0032  1.2868  1.4464
 2644TIP3    H229492   0.567   2.674  31.726  1.3848  0.1590  1.1349
 2645TIP3   OH229493   0.472   2.678   4.520  0.4822  0.2906  0.4831
 2645TIP3    H129494   0.509   2.695   4.433  1.4745  0.9897  1.0241
 2645TIP3    H229495   0.378   2.693   4.510 -0.2083 -3.8422 -1.5516
 2646TIP3   OH229496   3.126   1.502  27.277 -0.5611  0.2983 -0.0305
 2646TIP3    H129497   3.039   1.496  27.318 -0.9786  1.2756 -0.7251
 2646TIP3    H229498   3.108   1.505  27.183  0.4150 -2.6280 -0.4136
 2647TIP3   OH229499   2.595   2.718   0.962 -0.0646 -0.5138 -0.2606
 2647TIP3    H129500   2.502   2.716   0.985 -0.4267  1.4937 -1.3063
 2647TIP3    H229501   2.610   2.637   0.913 -1.0554 -1.2403  0.6010
 2648TIP3   OH229502   2.375   1.979   2.829 -0.9540 -0.2387  0.1285
 2648TIP3    H129503   2.428   1.983   2.749  0.0580  3.3116  0.8034
 2648TIP3    H229504   2.430   1.933   2.892 -0.3449 -0.1209 -0.3087
 2649TIP3   OH229505   1.080   1.537  27.952 -0.2703 -0.0031 -0.0233
 2649TIP3    H129506   1.115   1.575  28.032  0.6251 -2.2103  0.7057
 2649TIP3    H229507   1.116   1.591  27.882  1.1348  0.3622  0.9411
 2650TIP3   OH229508   0.513   2.242  30.041  0.1671 -0.0659 -0.1691
 2650TIP3    H129509   0.481   2.182  30.109 -0.0451 -0.3396 -0.5084
 2650TIP3    H229510   0.581   2.192  29.996  0.2654  0.0945 -0.1973
 2651TIP3   OH229511   0.695   1.653   5.951  0.3091  0.0358 -0.1446
 2651TIP3    H129512   0.631   1.592   5.914 -0.7551 -0.2607  2.0477
 2651TIP3    H229513   0.765   1.598   5.985  0.5612  0.2163 -0.3606
 2652TIP3   OH229514   2.530   0.318  32.204 -0.0507 -0.1703 -0.0236
 2652TIP3    H129515   2.578   0.319  32.121 -1.7606  0.6028 -1.0608
 2652TIP3    H229516   2.521   0.225  32.225  0.6719 -0.3680 -0.5483
 2653TIP3   OH229517   1.859   1.645   2.310 -0.5771  0.4646  0.0927
 2653TIP3    H129518   1.931   1.674   2.254 -0.8975  1.9878  0.4172
 2653TIP3    H229519   1.901   1.624   2.394 -0.3451  0.0068 -0.1324
 2654TIP3   OH229520   3.285   2.387  32.337  0.0191  0.2390  0.1294
 2654TIP3    H129521   3.229   2.362  32.410 -0.0803 -0.1070 -0.0631
 2654TIP3    H229522   3.292   2.307  32.283  1.7689 -0.1543  0.8459
 2655TIP3   OH229523   2.147   2.271   1.144  0.1208  0.5499 -0.2870
 2655TIP3    H129524   2.075   2.227   1.099  0.8433  0.6296 -1.5663
 2655TIP3    H229525   2.105   2.318   1.216 -1.1157  0.6569 -1.0458
 2656TIP3   OH229526   0.456   3.166   0.557 -0.2567  0.5497 -0.2497
 2656TIP3    H129527   0.463   3.074   0.534 -1.4330  0.5916 -0.8171
 2656TIP3    H229528   0.386   3.170   0.622  0.5188  0.9137  0.5847
 2657TIP3   OH229529   2.873   2.249  28.580  0.0611 -0.3708 -0.3548
 2657TIP3    H129530   2.813   2.296  28.639  1.8392 -0.3311  1.5342
 2657TIP3    H229531   2.851   2.157  28.593  0.3262 -0.3519  0.2569
 2658TIP3   OH229532   3.050   2.087  23.641 -0.3132 -0.1327 -0.0368
 2658TIP3    H129533   3.007   2.003  23.628 -0.9157  0.2846 -0.8391
 2658TIP3    H229534   2.996   2.132  23.706 -0.3422 -0.1190 -0.0701
 2659TIP3   OH229535   1.282   1.273  28.898  0.0605 -0.2386 -0.0956
 2659TIP3    H129536   1.225   1.209  28.855 -0.5937  0.2385  0.0495
 2659TIP3    H229537   1.347   1.220  28.944 -0.0217 -0.7828 -0.5847
 2660TIP3   OH229538   2.479   2.518   0.795  0.0040  0.5128  0.0719
 2660TIP3    H129539   2.542   2.477   0.735  0.6391  0.4964  0.7370
 2660TIP3    H229540   2.405   2.457   0.798  0.7665 -0.4010  0.7409
 2661TIP3   OH229541   1.706   3.058   1.595 -0.6002 -0.1272  0.6332
 2661TIP3    H129542   1.690   2.978   1.544 -0.7927 -1.2750  2.4078
 2661TIP3    H229543   1.620   3.101   1.599 -0.5647  0.0269 -0.0464
 2662TIP3   OH229544   3.398   3.359   6.715 -0.2083  0.2966 -0.0976
 2662TIP3    H129545   3.331   3.371   6.648 -0.2359  0.9697  0.0480
 2662TIP3    H229546   3.448   3.441   6.713  0.5111 -0.1381 -0.1000
 2663TIP3   OH229547   2.678   0.108  26.639  0.4910  0.0979  0.3078
 2663TIP3    H129548   2.757   0.055  26.639  0.5461  0.1115  2.3228
 2663TIP3    H229549   2.642   0.098  26.727  0.0145  2.6713  0.4839
 2664TIP3   OH229550   1.928   2.748   0.338 -0.0356  0.4796  0.7042
 2664TIP3    H129551   1.972   2.663   0.329  1.2020  1.1517  0.1946
 2664TIP3    H229552   1.902   2.771   0.249 -0.1762  0.7418  0.8137
 2665TIP3   OH229553   1.264   0.718   5.495  0.0983 -0.1370 -0.5903
 2665TIP3    H129554   1.343   0.768   5.474  1.4196 -2.0742 -0.4852
 2665TIP3    H229555   1.273   0.637   5.445 -0.4611 -1.5724  1.5083
 2666TIP3   OH229556   0.426   2.728  30.867 -0.1466  0.7167 -0.2567
 2666TIP3    H129557   0.448   2.664  30.934 -1.1420 -0.3095 -0.8842
 2666TIP3    H229558   0.510   2.765  30.840  0.3229  0.5924  0.9960
 2667TIP3   OH229559   0.371   3.317   1.276 -0.4287  0.4235  0.3946
 2667TIP3    H129560   0.354   3.283   1.364  1.0346 -1.1123  0.1537
 2667TIP3    H229561   0.299   3.284   1.223 -0.0126 -0.7760  0.5489
 2668TIP3   OH229562   0.340   1.474  28.270 -0.1884  0.6021  0.3922
 2668TIP3    H129563   0.410   1.528  28.234  1.0322 -0.3173  1.3276
 2668TIP3    H229564   0.266   1.488  28.211  0.2923  2.7595  0.2143
 2669TIP3   OH229565   2.383   3.380   4.515 -0.0586 -0.7616 -0.5787
 2669TIP3    H129566   2.362   3.370   4.422 -0.0962 -2.7446 -0.4081
 2669TIP3    H229567   2.310   3.430   4.551  0.5250  1.0826 -1.7865
 2670TIP3   OH229568   2.703   2.627   4.763 -0.1146  0.0920  0.5659
 2670TIP3    H129569   2.763   2.579   4.706  2.4378  2.6242  0.8663
 2670TIP3    H229570   2.724   2.596   4.852  1.5391  1.5565  0.7610
 2671TIP3   OH229571   1.476   3.232  27.894 -0.1748 -0.0076 -0.6480
 2671TIP3    H129572   1.458   3.313  27.847  0.4324  1.3149  1.2789
 2671TIP3    H229573   1.570   3.218  27.883 -0.1648 -0.1014 -0.4525
 2672TIP3   OH229574   1.389   2.081  32.210 -0.0858 -0.3711 -0.1711
 2672TIP3    H129575   1.432   2.166  32.223  1.9297 -1.4862  0.9452
 2672TIP3    H229576   1.373   2.049  32.299  4.2803 -3.5147 -0.2188
 2673TIP3   OH229577   2.473   3.112   1.707  0.2227  0.0864 -0.1780
 2673TIP3    H129578   2.506   3.171   1.638 -1.4399  0.4474 -0.7146
 2673TIP3    H229579   2.379   3.106   1.690  0.0717 -1.2994  0.9767
 2674TIP3   OH229580   0.542   2.307   7.071 -1.3119  0.4037 -0.5269
 2674TIP3    H129581   0.520   2.255   6.994 -0.9939  0.4851 -0.6712
 2674TIP3    H229582   0.462   2.355   7.091 -0.8870  1.7124 -1.8424
 2675TIP3   OH229583   2.671   0.096   0.282  0.0441  0.2612 -0.1386
 2675TIP3    H129584   2.587   0.072   0.320 -1.5312  0.6005 -3.0868
 2675TIP3    H229585   2.700   0.172   0.332 -0.7950 -0.5486  1.6505
 2676TIP3   OH229586   2.730   2.695  10.050 -0.9948 -0.3105  0.0031
 2676TIP3    H129587   2.675   2.640  10.106  0.2707 -1.8217 -0.1820
 2676TIP3    H229588   2.781   2.749  10.110 -0.2969 -1.2785  0.2849
 2677TIP3   OH229589   2.404   0.235  32.533  0.2908 -0.2234  0.0707
 2677TIP3    H129590   2.366   0.186  32.461  0.6473 -1.0147  0.4074
 2677TIP3    H229591   2.345   0.219  32.607 -0.9566  1.8567 -0.3945
 2678TIP3   OH229592   1.433   0.288  26.631 -0.3536 -0.7518  0.0881
 2678TIP3    H129593   1.342   0.311  26.651 -0.2648 -0.1192 -0.1987
 2678TIP3    H229594   1.439   0.292  26.536  0.4212  1.1273  0.1557
 2679TIP3   OH229595   3.472   0.865  31.493 -0.2564  0.1832 -0.5914
 2679TIP3    H129596   3.511   0.927  31.554  0.5470 -0.4674 -0.4273
 2679TIP3    H229597   3.421   0.806  31.549  1.9202 -1.5263 -0.2577
 2680TIP3   OH229598   1.070   2.746  29.094 -0.0584 -0.3647  0.1748
 2680TIP3    H129599   1.062   2.703  29.010 -0.8740 -0.0770  0.0981
 2680TIP3    H229600   1.158   2.784  29.094  0.2837 -1.1419 -0.1647
 2681TIP3   OH229601   1.188   1.861   3.830  0.0461  0.9190 -0.1182
 2681TIP3    H129602   1.282   1.844   3.831 -0.1586 -0.3843 -0.8685
 2681TIP3    H229603   1.176   1.921   3.756  0.2641  1.0067 -0.0852
 2682TIP3   OH229604   1.598   2.773  31.130  0.0946  0.0695  0.1864
 2682TIP3    H129605   1.564   2.684  31.119  0.3676 -0.1670  1.1786
 2682TIP3    H229606   1.531   2.829  31.090  0.0583 -0.5923 -0.7009
 2683TIP3   OH229607   0.510   2.677  21.208 -0.3067 -0.7084  0.1671
 2683TIP3    H129608   0.603   2.671  21.186  0.1716  0.4393  1.7319
 2683TIP3    H229609   0.469   2.607  21.157  1.3594 -1.0517 -0.7704
 2684TIP3   OH229610   2.182   3.314  27.390  0.2328  0.3402  0.3038
 2684TIP3    H129611   2.165   3.385  27.452  0.2527  0.6640 -0.0558
 2684TIP3    H229612   2.102   3.307  27.338  0.0127 -0.2989  0.7223
 2685TIP3   OH229613   2.054   1.922   4.584 -0.1733 -0.6026  0.7805
 2685TIP3    H129614   2.048   1.857   4.514  2.1914  0.3229 -0.3776
 2685TIP3    H229615   1.964   1.938   4.610 -1.2778 -0.2090 -2.7842
 2686TIP3   OH229616   2.723   2.699  22.329  0.4445  0.0073  0.6473
 2686TIP3    H129617   2.655   2.763  22.312  0.2247 -0.1654  0.8709
 2686TIP3    H229618   2.701   2.662  22.414  0.8341 -0.0275  0.7375
 2687TIP3   OH229619   3.398   3.379   5.716 -0.2282  0.5350 -0.3475
 2687TIP3    H129620   3.380   3.446   5.783 -0.3515  1.2564 -1.0812
 2687TIP3    H229621   3.427   3.429   5.640  0.8975 -0.3471 -0.5216
 2688TIP3   OH229622   0.291   0.134   4.470  0.4406 -0.5128  0.3121
 2688TIP3    H129623   0.300   0.051   4.424 -1.4183  1.0662 -3.2640
 2688TIP3    H229624   0.361   0.189   4.436 -2.8278  1.7454 -3.6722
 2689TIP3   OH229625   0.372   2.541   2.865  0.0444  0.3123 -0.2028
 2689TIP3    H129626   0.436   2.514   2.799 -0.6267  2.1936 -1.7455
 2689TIP3    H229627   0.413   2.615   2.909 -0.3550  0.3977  0.0297
 2690TIP3   OH229628   0.470   2.049   4.639  0.1142 -0.1065 -0.2614
 2690TIP3    H129629   0.495   2.028   4.549  0.5014 -1.2027  0.0825
 2690TIP3    H229630   0.525   1.992   4.693 -1.7622 -1.2132  0.6000
 2691TIP3   OH229631   2.271   0.666  14.789 -0.3486 -0.3267  0.0915
 2691TIP3    H129632   2.223   0.587  14.817  0.3853 -1.2824 -1.2518
 2691TIP3    H229633   2.215   0.705  14.721  0.6122 -1.3290 -1.3290
 2692TIP3   OH229634   2.603   3.109  30.506  0.2397 -0.4984 -0.0631
 2692TIP3    H129635   2.602   3.030  30.452  2.5304 -2.2750  2.2717
 2692TIP3    H229636   2.695   3.130  30.517 -0.3041  2.2257 -0.1410
 2693TIP3   OH229637   0.395   1.531   1.052  0.0960  0.4239 -0.3460
 2693TIP3    H129638   0.308   1.531   1.013 -0.4184 -1.0934  0.6833
 2693TIP3    H229639   0.451   1.570   0.986 -0.9995 -0.5703 -1.9358
 2694TIP3   OH229640   1.296   1.394  25.573  0.3108  0.1609 -0.3318
 2694TIP3    H129641   1.276   1.422  25.483 -0.2453 -0.7671 -0.5170
 2694TIP3    H229642   1.212   1.392  25.617  0.7412  2.0184  0.6676
 2695TIP3   OH229643   0.431   1.855   1.601  0.2783 -0.3949  0.4542
 2695TIP3    H129644   0.485   1.777   1.608  1.0430  0.0549 -0.2992
 2695TIP3    H229645   0.342   1.821   1.587  0.4817 -1.1235  0.8645
 2696TIP3   OH229646   1.709   2.432   0.448 -0.0979  0.3179 -0.1468
 2696TIP3    H129647   1.712   2.344   0.485 -0.1669  0.3222 -0.1301
 2696TIP3    H229648   1.788   2.439   0.394  0.3625  0.5509  0.5404
 2697TIP3   OH229649   3.395   1.533   1.712 -0.2877  0.2476 -0.0835
 2697TIP3    H129650   3.442   1.600   1.761  1.2562 -0.1709 -0.9522
 2697TIP3    H229651   3.376   1.464   1.777  0.5255  0.3107  0.2255
 2698TIP3   OH229652   2.536   1.939  28.565  0.3166  0.1342 -0.0861
 2698TIP3    H129653   2.578   2.025  28.551  1.0357  0.0403  1.3136
 2698TIP3    H229654   2.443   1.956  28.554  0.5008  0.9389 -0.5295
 2699TIP3   OH229655   1.811   0.416  27.593 -0.1016 -0.0585 -0.4048
 2699TIP3    H129656   1.795   0.451  27.506 -3.6354 -0.2163  0.0034
 2699TIP3    H229657   1.774   0.482  27.652  2.2433  0.0611  1.0242
 2700TIP3   OH229658   0.760   2.238   0.299 -0.1244  0.1262 -0.2595
 2700TIP3    H129659   0.750   2.276   0.212 -0.0578  1.2661  0.2099
 2700TIP3    H229660   0.691   2.173   0.305 -1.3087  1.3293 -0.5001
 2701TIP3   OH229661   3.114   0.893  31.560  0.4054 -0.1813 -0.1763
 2701TIP3    H129662   3.174   0.924  31.492  1.5146 -0.7582  0.5146
 2701TIP3    H229663   3.056   0.967  31.576 -0.2437 -0.2164 -2.1281
 2702TIP3   OH229664   1.267   3.393  12.119 -0.0246  0.3915  0.1923
 2702TIP3    H129665   1.292   3.321  12.176  0.3025  0.7298  0.4885
 2702TIP3    H229666   1.172   3.396  12.123 -0.0930 -0.5726 -0.5135
 2703TIP3   OH229667   1.241   0.943   6.017 -0.3918 -0.5274  0.0270
 2703TIP3    H129668   1.203   0.950   6.105 -0.1874  1.8124 -0.0126
 2703TIP3    H229669   1.335   0.936   6.032 -0.4855 -2.2644  0.0082
 2704TIP3   OH229670   1.417   0.837   4.410  0.0383  0.2470  0.5314
 2704TIP3    H129671   1.355   0.773   4.443 -1.0010  0.4132 -1.0066
 2704TIP3    H229672   1.458   0.795   4.334 -0.2131  1.1431 -0.1253
 2705TIP3   OH229673   2.596   0.720   5.090 -0.3297 -0.3219 -0.0584
 2705TIP3    H129674   2.596   0.631   5.057 -1.8876  0.3252 -2.0472
 2705TIP3    H229675   2.518   0.726   5.145 -0.1439 -0.2278  0.1971
 2706TIP3   OH229676   1.553   0.405   5.239 -0.2399 -0.2252  0.0207
 2706TIP3    H129677   1.466   0.365   5.242 -0.0337 -0.7378 -0.5726
 2706TIP3    H229678   1.584   0.402   5.329 -0.1080 -1.7056 -0.0457
 2707TIP3   OH229679   2.103   1.112   0.707 -0.1715 -0.5048 -0.4643
 2707TIP3    H129680   2.114   1.150   0.794  0.2193  0.3175 -0.8577
 2707TIP3    H229681   2.123   1.019   0.718 -1.0170 -0.5966  0.5001
 2708TIP3   OH229682   0.015   3.016   4.430  0.6393  0.4428 -0.1788
 2708TIP3    H129683  -0.049   2.951   4.403 -0.7301  0.9902  1.5446
 2708TIP3    H229684   0.095   2.966   4.446  0.3166 -0.4318 -1.2081
 2709TIP3   OH229685   1.821   2.946  12.640 -0.5683 -0.0658 -0.8267
 2709TIP3    H129686   1.895   2.963  12.581 -0.0810 -0.0282 -0.2142
 2709TIP3    H229687   1.823   2.851  12.653  1.3755  0.2262  1.7109
 2710TIP3   OH229688   1.504   2.886  14.212  0.1746  0.2813  0.0095
 2710TIP3    H129689   1.569   2.866  14.280  0.8326 -0.5941 -0.8485
 2710TIP3    H229690   1.515   2.816  14.147 -1.5629  0.1765 -0.2173
 2711TIP3   OH229691   0.933   1.672  26.759 -0.2260  0.6011  0.1397
 2711TIP3    H129692   0.904   1.716  26.679 -0.3105  0.8457  0.3025
 2711TIP3    H229693   0.853   1.662  26.811 -0.2756 -0.0860 -0.0547
 2712TIP3   OH229694   1.143   2.362  29.933 -0.0013 -0.4806 -0.2115
 2712TIP3    H129695   1.140   2.315  29.850  1.3311 -0.7742 -0.1131
 2712TIP3    H229696   1.210   2.317  29.984 -0.4714 -0.0120  0.8465
 2713TIP3   OH229697   2.383   1.475   1.238  0.4054  0.5203  0.6610
 2713TIP3    H129698   2.373   1.452   1.331 -2.3158  2.8170  1.0436
 2713TIP3    H229699   2.466   1.522   1.234 -0.3805  2.1759  2.3874
 2714TIP3   OH229700   1.041   0.009   3.698 -0.1209  0.4313  0.2498
 2714TIP3    H129701   1.091   0.067   3.641 -2.5721  1.6438 -0.8088
 2714TIP3    H229702   0.975   0.065   3.739 -0.8254 -1.1225  1.3686
 2715TIP3   OH229703   1.805   2.679   2.608 -0.1993  0.2268  0.0153
 2715TIP3    H129704   1.738   2.734   2.567  0.2203  1.0479  0.4002
 2715TIP3    H229705   1.866   2.659   2.538 -2.0556 -2.5794 -0.9661
 2716TIP3   OH229706   2.025   2.405  13.765 -0.3583 -0.1130 -0.1713
 2716TIP3    H129707   2.111   2.407  13.807 -0.7176  0.4084  0.5572
 2716TIP3    H229708   1.963   2.407  13.838 -1.0006  1.0390 -0.7285
 2717TIP3   OH229709   2.346   0.938   5.860 -0.1601  0.0726 -0.0274
 2717TIP3    H129710   2.393   0.918   5.779 -1.9693 -1.3463 -0.8159
 2717TIP3    H229711   2.328   1.031   5.855 -2.6925 -0.4216 -2.7465
 2718TIP3   OH229712   2.654   1.428   0.231 -0.1450 -0.7071 -0.0697
 2718TIP3    H129713   2.650   1.508   0.283  0.2157 -0.4192 -0.4782
 2718TIP3    H229714   2.599   1.445   0.155  1.8223  0.1114 -1.4130
 2719TIP3   OH229715   2.967   3.525  31.477 -0.0071  0.0016  0.2750
 2719TIP3    H129716   3.045   3.476  31.504  0.5235  1.1544  0.8883
 2719TIP3    H229717   2.902   3.505  31.545  0.0431 -0.2525  0.2478
 2720TIP3   OH229718   1.915   3.178  10.268 -0.1815  0.5836  0.2452
 2720TIP3    H129719   2.001   3.216  10.289  0.4357  1.3077 -3.0555
 2720TIP3    H229720   1.929   3.130  10.186 -1.9102 -3.4615  2.0298
 2721TIP3   OH229721   1.912   2.740   4.722 -0.0175  0.0822  0.5907
 2721TIP3    H129722   1.892   2.796   4.647 -1.1446 -0.5783  0.3778
 2721TIP3    H229723   2.002   2.713   4.708 -0.2741 -0.1861 -0.6344
 2722TIP3   OH229724   1.006   0.957  30.643 -0.2479  0.4765  0.0496
 2722TIP3    H129725   1.093   0.959  30.604 -1.3474  2.0951 -2.6417
 2722TIP3    H229726   1.007   1.026  30.709  0.9090 -0.5507  1.1533
 2723TIP3   OH229727   3.338   1.825  30.549  0.4717 -0.4044 -0.3341
 2723TIP3    H129728   3.274   1.786  30.608  0.6833 -0.3844 -0.0872
 2723TIP3    H229729   3.299   1.908  30.521 -1.2435 -1.9677 -3.0498
 2724TIP3   OH229730   2.086   0.441  32.708  0.4143 -0.0983  0.1931
 2724TIP3    H129731   1.994   0.418  32.716  0.3471 -0.4595 -1.3262
 2724TIP3    H229732   2.089   0.536  32.719 -0.5137  0.2741 -2.1206
 2725TIP3   OH229733   2.679   2.781  11.037  1.0889 -0.0765 -0.1870
 2725TIP3    H129734   2.653   2.717  11.103  0.7475 -0.5518 -0.7695
 2725TIP3    H229735   2.751   2.830  11.078  0.6417 -0.1071  0.6714
 2726TIP3   OH229736   1.439   1.703   2.296  0.0807  0.1119 -0.4982
 2726TIP3    H129737   1.360   1.732   2.341 -0.5919 -0.1707 -1.4436
 2726TIP3    H229738   1.435   1.607   2.302 -0.2160  0.0561 -1.4548
 2727TIP3   OH229739   0.097   1.920   0.843  0.6907  0.4519  0.1386
 2727TIP3    H129740   0.071   1.875   0.762 -0.8864  0.6288  0.5111
 2727TIP3    H229741   0.158   1.988   0.814  0.2862  0.4051 -0.8790
 2728TIP3   OH229742   0.033   0.407  31.321 -0.4303  0.3225 -0.3309
 2728TIP3    H129743  -0.026   0.424  31.394  0.3342  2.8600 -0.1921
 2728TIP3    H229744   0.057   0.495  31.289  3.3981 -0.5203 -0.2293
 2729TIP3   OH229745   1.165   2.385  28.723  0.3021 -0.4903  0.0765
 2729TIP3    H129746   1.137   2.351  28.638 -0.0306  0.2153 -0.1027
 2729TIP3    H229747   1.261   2.379  28.720  0.2611 -1.2674 -0.0014
 2730TIP3   OH229748   0.986   1.073   5.467  0.3679 -0.3566  0.1041
 2730TIP3    H129749   0.983   0.981   5.493 -0.6357 -0.7861 -1.4038
 2730TIP3    H229750   0.956   1.121   5.544 -0.6748 -1.4306  0.3978
 2731TIP3   OH229751   3.531   0.073   2.289  0.4320 -0.3632 -0.7834
 2731TIP3    H129752   3.507   0.161   2.258  2.9339  0.7061  0.0959
 2731TIP3    H229753   3.570   0.031   2.213 -0.1755 -0.5022 -1.0276
 2732TIP3   OH229754   2.686   0.407   0.982  0.2962 -0.0146  0.1611
 2732TIP3    H129755   2.727   0.359   1.054 -2.0577 -1.1190  0.8965
 2732TIP3    H229756   2.603   0.360   0.967 -1.0660  2.4844 -0.6684
 2733TIP3   OH229757   0.258   2.383   1.283 -0.5000  0.0953  0.6172
 2733TIP3    H129758   0.192   2.434   1.235  0.5831 -0.0067 -1.0454
 2733TIP3    H229759   0.307   2.449   1.333 -0.3525  0.4533  0.0054
 2734TIP3   OH229760   1.105   1.455  22.200 -0.1425  0.0777 -0.3282
 2734TIP3    H129761   1.144   1.367  22.198 -1.9755 -1.0276  3.4499
 2734TIP3    H229762   1.088   1.472  22.293 -1.3786  3.8028 -1.0620
 2735TIP3   OH229763   2.276   3.152  27.595 -0.5944 -0.1511 -0.0808
 2735TIP3    H129764   2.226   3.186  27.521  1.9479 -0.7513 -2.2344
 2735TIP3    H229765   2.307   3.066  27.566 -2.0244 -1.8810  2.9469
 2736TIP3   OH229766   1.938   0.250  28.645  0.0296 -0.0384  0.3102
 2736TIP3    H129767   2.012   0.264  28.586  0.0275 -1.0303  0.0607
 2736TIP3    H229768   1.885   0.329  28.636  1.4713  1.0704  1.1269
 2737TIP3   OH229769   1.076   3.254  14.479  0.1085  0.4330  0.1618
 2737TIP3    H129770   1.062   3.224  14.389  1.1230  1.5216 -0.3873
 2737TIP3    H229771   1.157   3.212  14.506  1.0958  1.9662 -0.3175
 2738TIP3   OH229772   3.513   1.124  29.848 -0.0739 -0.0374 -0.0863
 2738TIP3    H129773   3.600   1.117  29.886  0.3574  0.3268 -0.9732
 2738TIP3    H229774   3.492   1.217  29.852 -0.4639 -0.1345  0.2080
 2739TIP3   OH229775   2.955   0.423   6.335  0.1940 -0.1044  0.3423
 2739TIP3    H129776   3.025   0.414   6.399 -0.1121 -1.5657  0.5177
 2739TIP3    H229777   2.999   0.429   6.250  0.5564 -0.2779  0.5181
 2740TIP3   OH229778   3.539   1.340  32.489  0.1978  0.3914  0.6076
 2740TIP3    H129779   3.508   1.388  32.412 -0.2233  0.5861  0.8920
 2740TIP3    H229780   3.516   1.249  32.472 -3.0014  0.8084  1.9246
 2741TIP3   OH229781   2.088   1.569  19.612 -0.4178 -0.3314  0.1816
 2741TIP3    H129782   2.058   1.638  19.672  0.9611  1.0917 -0.6819
 2741TIP3    H229783   2.139   1.510  19.668 -3.6936 -2.2163  1.4545
 2742TIP3   OH229784   1.129   0.761  26.902 -0.3016  0.4944 -0.2451
 2742TIP3    H129785   1.058   0.768  26.839 -0.2189 -0.1734 -0.4140
 2742TIP3    H229786   1.162   0.851  26.911 -3.2027  1.4964  2.2206
 2743TIP3   OH229787   2.246   1.400  27.793  0.2109 -0.2057  0.3322
 2743TIP3    H129788   2.338   1.428  27.790  0.0789  0.1352 -1.1123
 2743TIP3    H229789   2.251   1.304  27.792  0.5533 -0.2410 -2.6258
 2744TIP3   OH229790   0.608   3.543   4.195  0.4537  0.2565 -0.3381
 2744TIP3    H129791   0.677   3.490   4.233 -0.4158  0.8725  2.3418
 2744TIP3    H229792   0.528   3.494   4.212 -0.2514  1.8489  1.2912
 2745TIP3   OH229793   2.372   0.612  15.062  0.4125  0.4319  0.1024
 2745TIP3    H129794   2.399   0.677  14.998  0.9870 -0.9828 -1.1446
 2745TIP3    H229795   2.282   0.589  15.037  0.3678  0.4151  0.2744
 2746TIP3   OH229796   1.198   2.837   4.263 -0.0597 -0.3513 -0.3756
 2746TIP3    H129797   1.279   2.793   4.289  0.1729 -0.4695 -1.2800
 2746TIP3    H229798   1.213   2.864   4.173 -1.5895 -1.7153 -1.0707
 2747TIP3   OH229799   3.498   1.407  30.911 -0.1947  0.0889 -0.2234
 2747TIP3    H129800   3.555   1.409  30.834 -0.4482 -0.6247 -0.4365
 2747TIP3    H229801   3.558   1.403  30.985  0.0447  0.2002 -0.4119
 2748TIP3   OH229802   2.354   0.310   3.517  0.3703 -0.0191 -0.4267
 2748TIP3    H129803   2.360   0.228   3.567  0.8271 -0.2989 -0.9284
 2748TIP3    H229804   2.261   0.318   3.496 -0.6940  2.2440  3.9681
 2749TIP3   OH229805   0.831   2.321   1.679  0.2080  0.2265  0.2062
 2749TIP3    H129806   0.827   2.296   1.771 -0.3875 -1.0276 -0.1331
 2749TIP3    H229807   0.809   2.414   1.678  1.7812  0.6458  1.4617
 2750TIP3   OH229808   3.172   3.148  11.296 -0.3646 -0.2832  0.3021
 2750TIP3    H129809   3.122   3.066  11.295 -2.9708  1.1865 -0.7406
 2750TIP3    H229810   3.219   3.147  11.213 -1.7146 -0.0344 -0.5030
 2751TIP3   OH229811   1.132   0.636  30.376  0.1364 -0.1536 -0.2765
 2751TIP3    H129812   1.084   0.604  30.452  1.1952  0.1737  0.5489
 2751TIP3    H229813   1.113   0.730  30.373 -2.3380 -0.5851 -2.2442
 2752TIP3   OH229814   2.119   1.500   7.874  0.1223  0.0248  0.4950
 2752TIP3    H129815   2.156   1.573   7.924  1.4000  0.1588 -0.6050
 2752TIP3    H229816   2.194   1.445   7.853 -0.4135 -0.1500 -1.0728
 2753TIP3   OH229817   2.603   2.489  13.658 -0.4591 -0.0823 -0.1507
 2753TIP3    H129818   2.657   2.539  13.719 -0.9022 -0.6305  0.7107
 2753TIP3    H229819   2.546   2.435  13.714 -1.0176 -0.4511 -1.0417
 2754TIP3   OH229820   2.996   0.138  28.341 -0.4283  0.1618  0.1792
 2754TIP3    H129821   3.028   0.048  28.347 -0.4399  0.1375 -0.1188
 2754TIP3    H229822   3.033   0.171  28.260 -3.1170 -0.6378 -1.4938
 2755TIP3   OH229823   3.416   1.578  31.250 -0.1696  0.0639 -0.4107
 2755TIP3    H129824   3.481   1.512  31.226 -0.5522 -0.0046 -1.2831
 2755TIP3    H229825   3.404   1.566  31.344  1.6178  0.5588 -0.0683
 2756TIP3   OH229826   0.618   0.420  26.509 -0.3473 -0.2250  0.4440
 2756TIP3    H129827   0.705   0.383  26.525  1.0565  1.8019 -1.9629
 2756TIP3    H229828   0.614   0.432  26.414 -1.2023  4.3432  0.8638
 2757TIP3   OH229829   3.327   1.614  21.266 -0.1277  0.0375 -0.1905
 2757TIP3    H129830   3.262   1.586  21.201 -0.1386  0.4782 -0.3704
 2757TIP3    H229831   3.298   1.574  21.348 -0.8779  0.5946 -0.1734
 2758TIP3   OH229832   2.150   1.034  30.472 -0.2072  0.7767  0.2610
 2758TIP3    H129833   2.207   0.996  30.406  0.5562 -0.6851  1.7006
 2758TIP3    H229834   2.208   1.054  30.545 -1.1812  1.4765  0.8630
 2759TIP3   OH229835   1.174   2.632   4.661 -0.7909 -0.2668 -0.0031
 2759TIP3    H129836   1.192   2.723   4.639 -0.4766  0.0923  1.6373
 2759TIP3    H229837   1.169   2.588   4.576  1.2037  0.8652 -0.7740
 2760TIP3   OH229838   1.947   0.499   4.743  0.3001  0.1822  0.1826
 2760TIP3    H129839   2.004   0.436   4.789  1.0095 -0.1884 -1.1598
 2760TIP3    H229840   1.986   0.584   4.762  0.2760  0.0809  0.7048
 2761TIP3   OH229841   3.493   0.484   1.957  0.5036  0.0381  0.0643
 2761TIP3    H129842   3.423   0.438   2.003 -0.7542  2.3632  0.6662
 2761TIP3    H229843   3.543   0.415   1.913 -0.5765 -1.9303  1.7576
 2762TIP3   OH229844   3.250   0.343  26.006 -0.1944 -0.2974 -0.6250
 2762TIP3    H129845   3.191   0.374  26.074  1.7273  2.9725 -0.2213
 2762TIP3    H229846   3.193   0.320  25.933 -2.0846 -0.3444  0.8050
 2763TIP3   OH229847   0.905   1.257  25.821 -0.3950  0.0659 -0.3201
 2763TIP3    H129848   0.955   1.258  25.903 -0.3945  1.7168 -0.3079
 2763TIP3    H229849   0.817   1.228  25.846 -0.3072  0.2451  0.1975
 2764TIP3   OH229850   2.291   2.787  11.456  0.0152 -0.0420  0.3499
 2764TIP3    H129851   2.386   2.783  11.471 -0.0525  0.7354  1.0860
 2764TIP3    H229852   2.270   2.881  11.461 -0.7531 -0.1827 -0.0813
 2765TIP3   OH229853   1.047   1.601  28.676 -0.1088 -0.3767 -0.4140
 2765TIP3    H129854   0.987   1.635  28.743 -0.6475  1.6979 -1.8479
 2765TIP3    H229855   0.992   1.589  28.599  1.0835  0.4515 -1.4266
 2766TIP3   OH229856   1.976   2.399  32.891  0.1707  0.0759 -0.4406
 2766TIP3    H129857   1.931   2.323  32.854 -0.7104  0.2265  0.2948
 2766TIP3    H229858   2.015   2.443  32.816 -0.5828 -0.2702 -1.0449
 2767TIP3   OH229859   0.874   3.136  27.778  0.6088 -0.0767  0.1056
 2767TIP3    H129860   0.804   3.146  27.713  0.2089 -2.5538  0.0576
 2767TIP3    H229861   0.954   3.132  27.726  0.6880  1.5180  0.0688
 2768TIP3   OH229862   1.917   1.826   0.415 -0.0845  0.9534  0.2421
 2768TIP3    H129863   1.967   1.770   0.474  0.2307  0.9556 -0.0275
 2768TIP3    H229864   1.845   1.858   0.470  0.4054  1.2420  0.7345
 2769TIP3   OH229865   3.461   2.133   5.834  0.0875 -0.1589 -0.0641
 2769TIP3    H129866   3.495   2.132   5.745  0.3775  2.2336 -0.0541
 2769TIP3    H229867   3.374   2.173   5.827 -1.4275 -3.0912  0.3548
 2770TIP3   OH229868   1.484   2.610   2.794  0.0403 -0.2651  0.1095
 2770TIP3    H129869   1.421   2.605   2.865  0.0695 -1.8886  0.0503
 2770TIP3    H229870   1.433   2.636   2.717 -0.0890  0.9069  0.5700
 2771TIP3   OH229871   0.175   1.056   4.972 -0.5823  0.2673  0.0208
 2771TIP3    H129872   0.257   1.020   4.937  0.3536  1.6238  0.7330
 2771TIP3    H229873   0.148   1.121   4.907  0.1058  1.3805  0.8150
 2772TIP3   OH229874   2.111   2.809   3.738 -0.3406  0.1138  0.2875
 2772TIP3    H129875   2.205   2.798   3.730 -0.2161 -1.0950  2.3830
 2772TIP3    H229876   2.078   2.803   3.649  1.4268 -1.1291 -0.3429
 2773TIP3   OH229877   1.455   2.341  23.158  0.2121  0.0550 -0.2337
 2773TIP3    H129878   1.435   2.384  23.075 -1.3385  1.1759  0.6658
 2773TIP3    H229879   1.522   2.276  23.136 -0.7917 -0.3020 -2.5240
 2774TIP3   OH229880   0.688   2.289  31.571  0.2483  0.1549 -0.1928
 2774TIP3    H129881   0.762   2.270  31.629 -1.0936 -0.1739  1.4786
 2774TIP3    H229882   0.703   2.380  31.544  2.0559 -0.3787 -1.1576
 2775TIP3   OH229883   3.113   1.442  29.105 -0.2021  0.1369  0.0073
 2775TIP3    H129884   3.206   1.463  29.117 -0.4215  0.9272  0.3770
 2775TIP3    H229885   3.103   1.356  29.146  0.5578 -0.3963 -0.8740
 2776TIP3   OH229886   2.471   2.071  18.541  0.6120 -0.3399 -0.6526
 2776TIP3    H129887   2.434   1.989  18.574 -1.8977 -0.3981 -3.1720
 2776TIP3    H229888   2.446   2.136  18.605  0.8257 -1.2294  0.3591
 2777TIP3   OH229889   2.755   0.546  27.684  0.2346  0.0648 -0.0498
 2777TIP3    H129890   2.772   0.466  27.735 -2.2954 -0.4931  0.0427
 2777TIP3    H229891   2.814   0.539  27.610  0.0618 -1.9530 -0.0634
 2778TIP3   OH229892   2.789   1.371   1.757  0.1488 -0.1358  0.2052
 2778TIP3    H129893   2.747   1.456   1.742  1.5045  0.9932  2.2997
 2778TIP3    H229894   2.717   1.308   1.753 -0.9173  1.0968 -1.2512
 2779TIP3   OH229895   1.101   0.099  32.659 -0.3196  0.1358  0.3833
 2779TIP3    H129896   1.060   0.079  32.575 -1.6979 -0.3582  1.1512
 2779TIP3    H229897   1.034   0.078  32.725 -0.3606  3.1897  1.5026
 2780TIP3   OH229898   3.135   1.013   2.314  0.1434  0.1849 -0.2362
 2780TIP3    H129899   3.129   0.933   2.261  1.8111 -0.0380 -0.1471
 2780TIP3    H229900   3.082   0.994   2.391 -1.5389  0.1441 -1.3342
 2781TIP3   OH229901   0.463   0.620  30.825 -0.4357  0.2294  0.5104
 2781TIP3    H129902   0.398   0.665  30.879 -0.2824  0.9044  0.1406
 2781TIP3    H229903   0.547   0.652  30.859 -0.3140 -0.1340  0.5501
 2782TIP3   OH229904   1.195   3.129   2.001  0.0996  0.1655  0.4172
 2782TIP3    H129905   1.282   3.091   1.992  0.6448  1.0138  1.8501
 2782TIP3    H229906   1.204   3.195   2.070 -1.5954  0.5234  0.3436
 2783TIP3   OH229907   3.447   1.248  18.868  0.1978  0.4296 -0.4068
 2783TIP3    H129908   3.479   1.338  18.878 -0.7480  0.6040  1.5849
 2783TIP3    H229909   3.464   1.226  18.776  1.5297  2.2023 -0.6361
 2784TIP3   OH229910   3.036   0.566   3.799  0.0197 -0.1884 -0.2830
 2784TIP3    H129911   3.127   0.591   3.789  0.4275 -1.7325 -0.8233
 2784TIP3    H229912   3.013   0.524   3.716 -1.5211  1.1105 -0.5587
 2785TIP3   OH229913   2.575   3.390  14.777  0.3107 -0.3779  0.2102
 2785TIP3    H129914   2.618   3.408  14.860  2.1143 -1.9293 -0.3024
 2785TIP3    H229915   2.643   3.350  14.723 -0.8342  0.4801 -1.9889
 2786TIP3   OH229916   0.126   0.816   6.837  0.4969  0.6818 -0.6904
 2786TIP3    H129917   0.056   0.839   6.775 -1.3802 -2.3801  0.0324
 2786TIP3    H229918   0.091   0.740   6.885  2.9981  1.1531  2.1732
 2787TIP3   OH229919   3.303   1.624   4.343 -1.0611  0.5844  0.2410
 2787TIP3    H129920   3.321   1.716   4.322 -2.2021  1.0358  1.1395
 2787TIP3    H229921   3.221   1.626   4.392 -0.9302 -0.8916  0.5688
 2788TIP3   OH229922   2.595   3.304  28.672 -0.0804 -0.2019 -0.2293
 2788TIP3    H129923   2.640   3.268  28.596 -0.6526  0.4115 -0.8800
 2788TIP3    H229924   2.502   3.302  28.647 -0.3142 -0.4313  0.6436
 2789TIP3   OH229925   2.900   1.002  29.356 -0.2975 -0.2754  0.3923
 2789TIP3    H129926   2.903   1.079  29.413  2.1882  0.3893 -0.5172
 2789TIP3    H229927   2.822   0.954  29.384 -1.8955  2.5033  1.0515
 2790TIP3   OH229928   0.475   1.187   5.121 -0.3522 -0.8006 -0.5886
 2790TIP3    H129929   0.530   1.164   5.045 -1.6629 -0.3423 -1.7116
 2790TIP3    H229930   0.405   1.241   5.084  0.4797  1.8268  1.3413
 2791TIP3   OH229931   0.477   2.531  31.067  0.7590 -0.0628  0.1405
 2791TIP3    H129932   0.482   2.440  31.097 -0.7430 -1.0030 -2.1641
 2791TIP3    H229933   0.568   2.560  31.063  1.1868 -0.8381  2.4980
 2792TIP3   OH229934   1.224   1.419  28.584 -0.3255 -0.2737 -0.2359
 2792TIP3    H129935   1.170   1.492  28.614 -0.6824 -0.1430 -1.1694
 2792TIP3    H229936   1.270   1.390  28.663 -0.3787  0.7803  0.2098
 2793TIP3   OH229937   1.544   0.326  11.618 -0.2566  0.3123 -0.9776
 2793TIP3    H129938   1.563   0.416  11.647 -1.0658  0.3765 -0.6077
 2793TIP3    H229939   1.468   0.335  11.560 -0.0254 -0.0788 -1.3463
 2794TIP3   OH229940   1.806   2.827   3.446 -0.0610 -0.1143  0.6386
 2794TIP3    H129941   1.826   2.735   3.424  1.7029  0.2979  0.3634
 2794TIP3    H229942   1.764   2.861   3.367  1.5951 -0.0406 -0.2790
 2795TIP3   OH229943   1.060   2.882   2.361 -0.2034 -0.2891 -0.0123
 2795TIP3    H129944   1.155   2.893   2.356 -0.2578 -0.0132 -0.5039
 2795TIP3    H229945   1.025   2.962   2.323 -0.6348 -0.5179 -0.0989
 2796TIP3   OH229946   2.905   1.040  32.097 -0.1298 -0.1049  0.3019
 2796TIP3    H129947   2.852   0.961  32.107 -0.7999  0.3763  0.6140
 2796TIP3    H229948   2.852   1.099  32.044 -0.6121  0.9818  1.9044
 2797TIP3   OH229949   2.457   1.240  27.960 -0.5923  0.1627  0.2167
 2797TIP3    H129950   2.434   1.189  28.037  2.3749  0.3992  1.3796
 2797TIP3    H229951   2.496   1.177  27.899 -0.5554  0.3838  0.0062
 2798TIP3   OH229952   3.428   2.860   1.585 -0.0195  0.5215  0.5670
 2798TIP3    H129953   3.352   2.880   1.639  0.0969 -0.2028  1.0204
 2798TIP3    H229954   3.401   2.883   1.496 -0.5402  0.8636  0.8075
 2799TIP3   OH229955   2.801   1.294   2.079  0.5194 -0.4289 -0.3594
 2799TIP3    H129956   2.828   1.363   2.140  0.4764 -2.0270  1.5839
 2799TIP3    H229957   2.729   1.333   2.029  0.3445  0.8642  0.8378
 2800TIP3   OH229958   2.143   0.668  29.706  0.3815  0.8091  0.0174
 2800TIP3    H129959   2.238   0.657  29.710  0.1980 -1.2581 -0.2865
 2800TIP3    H229960   2.115   0.673  29.797  0.5756 -1.1694  0.2325
 2801TIP3   OH229961   3.108   2.111  31.072 -1.0071 -0.4029 -0.4180
 2801TIP3    H129962   3.095   2.072  30.986 -0.9044 -0.4351 -0.4198
 2801TIP3    H229963   3.145   2.040  31.125 -0.4680 -0.2014 -0.5200
 2802TIP3   OH229964   3.197   2.016  27.847 -0.4933 -0.3791 -0.1876
 2802TIP3    H129965   3.106   1.996  27.870 -0.7091 -0.1153 -0.7931
 2802TIP3    H229966   3.193   2.042  27.755  0.2630 -0.8136 -0.3475
 2803TIP3   OH229967   2.400   0.765  27.990 -0.2322  0.3644 -0.1631
 2803TIP3    H129968   2.366   0.704  27.924 -1.3889  0.3610  0.4069
 2803TIP3    H229969   2.346   0.843  27.981  1.0114  1.1983 -0.6455
 2804TIP3   OH229970   2.855   3.305  29.553 -0.0727  0.0848  0.5005
 2804TIP3    H129971   2.910   3.315  29.631  1.2695  1.3261 -0.5457
 2804TIP3    H229972   2.916   3.278  29.485 -1.4394 -2.3457  0.1181
 2805TIP3   OH229973   2.617   0.274   4.081 -0.2595  0.2337 -0.1190
 2805TIP3    H129974   2.631   0.304   4.171 -0.1315 -0.9027  0.2548
 2805TIP3    H229975   2.615   0.179   4.088  0.6908  0.0962 -1.4576
 2806TIP3   OH229976   2.424   0.365   2.940  0.6163  0.1055 -0.2746
 2806TIP3    H129977   2.370   0.371   2.862  0.9391 -1.2841 -0.6208
 2806TIP3    H229978   2.513   0.352   2.907  0.7498 -0.5233  0.3227
 2807TIP3   OH229979   2.021   2.329  32.599 -0.3421  0.1418 -0.5997
 2807TIP3    H129980   2.080   2.349  32.526  0.7371  0.7820  0.4150
 2807TIP3    H229981   1.964   2.259  32.565  0.5672 -0.0427 -1.8293
 2808TIP3   OH229982   2.418   3.495   3.325 -0.5731  0.3236 -0.0402
 2808TIP3    H129983   2.392   3.404   3.336 -0.3251  0.3563  0.8971
 2808TIP3    H229984   2.488   3.492   3.259 -0.6873 -0.1341 -0.1456
 2809TIP3   OH229985   2.505   1.334  29.160 -0.2483 -0.0650  0.1253
 2809TIP3    H129986   2.525   1.349  29.068  1.0842  1.1503  0.5730
 2809TIP3    H229987   2.425   1.282  29.159 -1.5035  1.7770 -1.6702
 2810TIP3   OH229988   0.461   3.484  13.695  0.4444 -0.4907  0.8738
 2810TIP3    H129989   0.470   3.579  13.685  0.4873 -0.5371  0.4679
 2810TIP3    H229990   0.487   3.448  13.611 -2.9322 -0.6880 -0.2493
 2811TIP3   OH229991   3.088   2.228   7.926 -0.0458  0.1167 -0.3214
 2811TIP3    H129992   3.130   2.308   7.895  1.1613 -1.0449 -1.8319
 2811TIP3    H229993   3.152   2.159   7.909 -0.0560 -0.9154  3.1232
 2812TIP3   OH229994   1.682   1.212   6.859  1.0338  0.4598  0.2085
 2812TIP3    H129995   1.703   1.119   6.866  1.3688  0.5941  1.2064
 2812TIP3    H229996   1.592   1.219   6.892  0.1266  0.1954 -2.0141
 2813TIP3   OH229997   2.977   0.376  31.473 -0.4781 -0.2519  0.0324
 2813TIP3    H129998   2.987   0.472  31.476  0.7430 -0.3777  1.4746
 2813TIP3    H229999   2.944   0.353  31.560  0.9805 -1.2858  0.3477
 2814TIP3   OH230000   3.207   0.790  30.590  0.4747  1.0084 -0.2064
 2814TIP3    H130001   3.252   0.740  30.523 -1.9995 -2.3418  0.3390
 2814TIP3    H230002   3.247   0.761  30.672 -0.0564  0.9503  0.0371
 2815TIP3   OH230003   1.268   1.975   5.965  0.3404  0.7502 -0.0601
 2815TIP3    H130004   1.288   1.947   6.054  1.1601  1.0809 -0.1359
 2815TIP3    H230005   1.318   2.055   5.952 -0.8785  1.4892 -0.3411
 2816TIP3   OH230006   2.465   0.602   2.228  0.3229  0.3583  0.3196
 2816TIP3    H130007   2.499   0.514   2.213 -0.0801  0.2857 -0.1883
 2816TIP3    H230008   2.462   0.641   2.140 -0.9515  0.3499  0.3459
 2817TIP3   OH230009   1.558   2.799   4.766 -0.1898 -0.0704  0.4052
 2817TIP3    H130010   1.606   2.875   4.731 -0.5176 -0.4378 -0.8971
 2817TIP3    H230011   1.466   2.819   4.748 -0.4576  0.0703  1.7865
 2818TIP3   OH230012   3.036   3.194  29.354 -0.3643  0.1324 -0.4058
 2818TIP3    H130013   3.059   3.101  29.365  0.1946  0.3028 -0.1007
 2818TIP3    H230014   3.080   3.220  29.273  0.8407  0.5480  0.3559
 2819TIP3   OH230015   0.727   1.785   0.737  0.2793  0.1385 -0.0393
 2819TIP3    H130016   0.791   1.759   0.671  1.2534  0.0787  0.9104
 2819TIP3    H230017   0.652   1.727   0.721  1.2847 -1.2611  0.1866
 2820TIP3   OH230018   3.107   1.722   6.214 -0.1011  0.1778  0.6289
 2820TIP3    H130019   3.085   1.684   6.129 -0.4081  0.8402  0.3996
 2820TIP3    H230020   3.046   1.681   6.276 -2.9246  2.8238 -0.1777
 2821TIP3   OH230021   2.269   1.673  28.899 -0.2808  0.4419  0.0561
 2821TIP3    H130022   2.319   1.658  28.819  2.0686 -0.2609  1.5387
 2821TIP3    H230023   2.248   1.766  28.897 -2.3211  0.0419 -2.3944
 2822TIP3   OH230024   1.658   1.203  31.489  0.2789 -0.3356 -0.3530
 2822TIP3    H130025   1.725   1.244  31.543  0.4225  0.0652 -0.8307
 2822TIP3    H230026   1.576   1.217  31.537  0.1112  1.7175 -1.1302
 2823TIP3   OH230027   0.965   1.998  30.002  0.0432  0.2496  0.0786
 2823TIP3    H130028   1.043   1.978  29.950 -0.3016 -1.5159  0.1830
 2823TIP3    H230029   0.957   2.093  29.997 -0.8656  0.1584 -4.4863
 2824TIP3   OH230030   1.329   3.258  11.634  0.0197  0.3835  0.5440
 2824TIP3    H130031   1.250   3.209  11.611  0.2377 -0.0332  0.6936
 2824TIP3    H230032   1.351   3.230  11.722  0.9842 -0.3519  0.0808
 2825TIP3   OH230033   0.026   2.814   3.021 -0.5508 -0.1773  0.1852
 2825TIP3    H130034  -0.021   2.891   2.989 -1.2397 -0.4165  0.6052
 2825TIP3    H230035   0.072   2.844   3.099 -2.2627 -0.6015  1.4055
 2826TIP3   OH230036   3.356   0.347  27.996  0.5867 -0.4513 -0.4741
 2826TIP3    H130037   3.367   0.419  27.935 -1.9324 -0.2019 -0.7350
 2826TIP3    H230038   3.346   0.269  27.941 -1.2469 -0.2880 -0.4419
 2827TIP3   OH230039   2.962   0.226   4.069  0.0287  0.2697 -0.4871
 2827TIP3    H130040   2.996   0.165   4.135  0.1766  1.0800  0.2015
 2827TIP3    H230041   2.926   0.169   4.001  0.2050 -0.5897  0.1133
 2828TIP3   OH230042   2.971   3.316   1.376  0.3840  0.3066  0.5270
 2828TIP3    H130043   2.978   3.248   1.443 -2.7643 -0.1746  0.5092
 2828TIP3    H230044   2.890   3.297   1.330  0.9708  2.3304 -1.5467
 2829TIP3   OH230045   1.730   0.675   5.760 -0.7584  0.1914  0.1513
 2829TIP3    H130046   1.801   0.734   5.785  0.1015 -0.3008 -1.0301
 2829TIP3    H230047   1.657   0.699   5.817 -0.1739  1.8461  0.2461
 2830TIP3   OH230048   0.526   2.029   2.749 -0.2185  0.2303 -0.3470
 2830TIP3    H130049   0.463   2.100   2.735  0.6763  1.0735 -0.2283
 2830TIP3    H230050   0.611   2.073   2.754  0.3297 -0.8290 -0.0012
 2831TIP3   OH230051   0.544   2.836   4.746  0.2309  0.0258  0.0544
 2831TIP3    H130052   0.527   2.926   4.716 -0.7695  0.2091  1.1002
 2831TIP3    H230053   0.504   2.781   4.679 -1.6170  0.4232  0.7782
 2832TIP3   OH230054   3.102   1.973  18.969 -0.6584  0.1241 -0.2893
 2832TIP3    H130055   3.099   2.024  18.888 -1.2410  1.3558  0.4840
 2832TIP3    H230056   3.193   1.943  18.975 -0.5720  0.1324 -1.3120
 2833TIP3   OH230057   3.388   0.082  26.053  0.2434  0.5638 -0.0343
 2833TIP3    H130058   3.353   0.149  25.994 -1.0981 -1.1930 -1.3362
 2833TIP3    H230059   3.466   0.050  26.009  0.6869  1.0233  0.4156
 2834TIP3   OH230060   0.334   2.585   2.545 -0.0334  0.5424  0.0849
 2834TIP3    H130061   0.392   2.524   2.590 -0.4519 -0.9430 -1.2843
 2834TIP3    H230062   0.285   2.628   2.615  1.4923  0.5912  1.1684
 2835TIP3   OH230063   0.670   1.427   4.126  0.5117 -0.2541  0.0640
 2835TIP3    H130064   0.741   1.483   4.096 -0.4871  0.6663 -0.6766
 2835TIP3    H230065   0.656   1.453   4.217  0.2238  0.5474 -0.1994
 2836TIP3   OH230066   1.660   2.970   5.770 -0.6525 -0.7297  0.3788
 2836TIP3    H130067   1.590   3.001   5.828 -1.0437 -1.3527  0.2492
 2836TIP3    H230068   1.681   2.883   5.803  1.5866  0.2227  1.7938
 2837TIP3   OH230069   0.824   3.423   2.977  0.1067 -0.0079  0.0224
 2837TIP3    H130070   0.753   3.361   2.956 -0.0355 -0.2657  1.1959
 2837TIP3    H230071   0.794   3.467   3.056 -0.2004  2.2611 -1.2892
 2838TIP3   OH230072   0.401   2.640   6.375  0.4318  0.1442  0.0715
 2838TIP3    H130073   0.444   2.651   6.460 -0.4044 -0.8125  0.6263
 2838TIP3    H230074   0.308   2.639   6.395  0.2695 -2.6979 -0.5043
 2839TIP3   OH230075   1.979   2.454   3.127  0.7196 -0.3307 -0.2267
 2839TIP3    H130076   1.948   2.495   3.046  1.6330 -0.6942 -0.7691
 2839TIP3    H230077   2.073   2.442   3.114  0.9375 -0.1102  1.0182
 2840TIP3   OH230078   1.829   3.452   4.642  0.3955  0.1940 -0.5850
 2840TIP3    H130079   1.919   3.446   4.674  0.1809  0.6550  0.1338
 2840TIP3    H230080   1.786   3.513   4.702 -1.0290 -1.7937  0.5444
 2841TIP3   OH230081   3.400   0.571  11.384 -0.2451 -0.5818  0.1230
 2841TIP3    H130082   3.475   0.538  11.336 -0.9671 -1.9419 -0.1126
 2841TIP3    H230083   3.333   0.586  11.316 -0.9179 -1.5181  0.5599
 2842TIP3   OH230084   2.808   0.834   6.145  0.0795  0.2738 -0.2089
 2842TIP3    H130085   2.894   0.848   6.107 -0.3124  1.3797 -0.7285
 2842TIP3    H230086   2.814   0.748   6.186  1.7972  0.8214  0.8004
 2843TIP3   OH230087   1.304   1.788  25.518 -0.4827  0.3168 -0.8939
 2843TIP3    H130088   1.364   1.857  25.490 -2.7183  2.3282 -1.0802
 2843TIP3    H230089   1.246   1.773  25.443 -2.2297  0.8323  0.2653
 2844TIP3   OH230090   0.341   2.416  29.380  0.1377  0.2955  0.2633
 2844TIP3    H130091   0.435   2.404  29.371  0.0556 -0.1027 -0.0964
 2844TIP3    H230092   0.318   2.480  29.313 -0.2875 -1.7834 -1.7133
 2845TIP3   OH230093   1.027   2.281  29.673 -0.4058 -0.3042  0.1097
 2845TIP3    H130094   0.974   2.202  29.668 -0.6534 -0.0890 -1.4033
 2845TIP3    H230095   0.971   2.350  29.638  0.3281  0.2244 -0.0605
 2846TIP3   OH230096   1.141   0.648   5.992 -0.2116  0.1819  0.6449
 2846TIP3    H130097   1.220   0.682   6.035  0.3533  0.1149 -0.3014
 2846TIP3    H230098   1.161   0.653   5.899 -0.8676 -0.9537  0.4210
 2847TIP3   OH230099   0.616   0.974   5.587 -0.5506 -0.5042 -0.1415
 2847TIP3    H130100   0.579   0.977   5.499  1.0073  3.7229 -0.9192
 2847TIP3    H230101   0.707   1.002   5.576 -0.0133 -0.8453  2.6914
 2848TIP3   OH230102   1.333   2.926   1.090 -0.0055  0.5607  0.0993
 2848TIP3    H130103   1.315   3.014   1.057  1.7754  0.7741 -0.4206
 2848TIP3    H230104   1.334   2.871   1.011 -0.2601  0.2407  0.3205
 2849TIP3   OH230105   1.374   2.464   4.750 -0.4656  0.4169 -0.1478
 2849TIP3    H130106   1.453   2.484   4.699  0.1613 -1.4827  0.0029
 2849TIP3    H230107   1.313   2.533   4.728  0.8692  1.3317 -1.1142
 2850TIP3   OH230108   0.434   1.660   1.305  0.0243  0.1302 -0.3036
 2850TIP3    H130109   0.389   1.635   1.225 -0.0184 -1.2729  0.1280
 2850TIP3    H230110   0.527   1.644   1.286 -0.0434 -0.9026  0.1292
 2851TIP3   OH230111   1.439   2.985  31.473  0.0409  0.6165  0.0427
 2851TIP3    H130112   1.372   2.962  31.409  0.2947  0.4448 -0.1616
 2851TIP3    H230113   1.515   2.931  31.450  0.5519  1.4433 -0.2699
 2852TIP3   OH230114   0.641   2.508   0.676  0.1186 -0.1628  0.4267
 2852TIP3    H130115   0.593   2.435   0.714  1.2940 -0.6516  1.0296
 2852TIP3    H230116   0.716   2.467   0.632  0.3684  0.6230  0.0993
 2853TIP3   OH230117   0.659   2.753   6.874 -0.0952  0.5277  0.1196
 2853TIP3    H130118   0.674   2.781   6.964 -1.3081  0.2666  0.4262
 2853TIP3    H230119   0.581   2.697   6.879  1.7421 -2.3280 -0.5671
 2854TIP3   OH230120   3.280   2.938   1.190 -0.0246 -0.3550  0.2240
 2854TIP3    H130121   3.269   2.946   1.095 -0.4495 -1.4245  0.1693
 2854TIP3    H230122   3.228   2.861   1.214  1.0516 -0.8339  1.1461
 2855TIP3   OH230123   1.718   1.055   4.947  0.1337 -0.3892  0.1457
 2855TIP3    H130124   1.760   0.971   4.964  2.8086  0.8870  0.3631
 2855TIP3    H230125   1.777   1.099   4.885 -0.6866  1.6803  0.7532
 2856TIP3   OH230126   1.235   1.294   5.992 -0.1422 -0.6326 -0.4056
 2856TIP3    H130127   1.141   1.288   6.011  0.1984 -2.0763  1.0746
 2856TIP3    H230128   1.263   1.374   6.035 -0.5482 -0.6715 -0.0601
 2857TIP3   OH230129   1.034   1.330  26.758  0.7407 -0.3658  0.4424
 2857TIP3    H130130   0.945   1.367  26.754  0.6847 -0.5197  0.2242
 2857TIP3    H230131   1.075   1.375  26.831  0.6513  0.0908  0.2197
 2858TIP3   OH230132   1.469   1.662   5.827 -0.4625 -0.1821  0.0739
 2858TIP3    H130133   1.377   1.666   5.855 -0.8226 -0.8612 -0.9482
 2858TIP3    H230134   1.466   1.689   5.735  0.7931  2.9421  0.8194
 2859TIP3   OH230135   1.693   2.587   4.868 -0.3414 -0.4225  0.1350
 2859TIP3    H130136   1.626   2.651   4.845 -0.2102 -0.4268 -0.2682
 2859TIP3    H230137   1.776   2.633   4.853 -0.2414 -0.8330 -0.5899
 2860TIP3   OH230138   0.768   3.483  30.892  0.3217  0.0539  0.1447
 2860TIP3    H130139   0.688   3.503  30.940  0.6141  1.3965  0.1130
 2860TIP3    H230140   0.807   3.569  30.873  1.2131 -0.5285 -0.7780
 2861TIP3   OH230141   2.308   2.820  27.621 -0.7427  0.0290 -0.2866
 2861TIP3    H130142   2.391   2.809  27.667 -1.2080 -0.1643  0.5186
 2861TIP3    H230143   2.328   2.882  27.551 -0.3815  1.6080  1.1446
 2862TIP3   OH230144   0.704   1.440   3.070  0.1669  0.2899  0.7716
 2862TIP3    H130145   0.650   1.514   3.043  0.4872  0.1923 -0.2076
 2862TIP3    H230146   0.658   1.363   3.034  1.0588  0.2276 -0.2947
 2863TIP3   OH230147   2.212   2.617  31.758  0.1335 -0.2736 -0.7241
 2863TIP3    H130148   2.245   2.701  31.725  0.0547  1.2214  2.6267
 2863TIP3    H230149   2.142   2.594  31.697  0.7130  1.6267 -2.2330
 2864TIP3   OH230150   0.246   0.629   4.478 -0.3340  0.5378  0.6182
 2864TIP3    H130151   0.329   0.582   4.487 -0.7679 -0.4849 -0.5122
 2864TIP3    H230152   0.234   0.640   4.384 -2.3724 -1.0134  0.6335
 2865TIP3   OH230153   2.452   1.851   6.191  0.1234  0.2326  0.5547
 2865TIP3    H130154   2.490   1.897   6.266  1.0173  2.3112 -1.0585
 2865TIP3    H230155   2.420   1.921   6.134 -4.3094 -1.3168  0.7561
 2866TIP3   OH230156   0.632   1.907   3.265  0.1572 -0.4824  0.4119
 2866TIP3    H130157   0.710   1.889   3.211  1.4641 -0.2074  2.1181
 2866TIP3    H230158   0.629   2.003   3.270  0.2267 -0.5126  1.0559
 2867TIP3   OH230159   2.553   2.830  10.755  0.3194 -0.2687 -0.4164
 2867TIP3    H130160   2.550   2.923  10.776  0.4236 -0.3126 -0.1935
 2867TIP3    H230161   2.590   2.789  10.834  1.8753 -0.3022 -1.1287
 2868TIP3   OH230162   0.755   1.965  28.800  0.2485 -0.0026 -0.4878
 2868TIP3    H130163   0.834   1.973  28.853 -0.4143  1.2528  0.3654
 2868TIP3    H230164   0.785   1.927  28.718  1.4910 -0.9338  0.3631
 2869TIP3   OH230165   0.296   0.138  30.917 -0.4867 -0.9101 -0.6265
 2869TIP3    H130166   0.312   0.200  30.845  0.5620  0.4746  0.7400
 2869TIP3    H230167   0.223   0.085  30.886 -0.1080 -0.3295 -2.7001
 2870TIP3   OH230168   0.836   2.194  23.058 -0.5844  0.0086 -0.2354
 2870TIP3    H130169   0.816   2.103  23.036 -0.7308  0.3637 -1.6773
 2870TIP3    H230170   0.910   2.188  23.119 -1.2225 -1.0972  0.4705
 2871TIP3   OH230171   0.631   2.995   5.630 -0.5150 -0.4304 -0.5039
 2871TIP3    H130172   0.562   2.967   5.569  0.1128 -0.2295 -1.3305
 2871TIP3    H230173   0.669   3.072   5.588 -0.1521 -0.2105  0.2187
 2872TIP3   OH230174   1.182   1.968   6.595 -0.1866 -0.1783 -0.3161
 2872TIP3    H130175   1.224   1.887   6.565 -0.1464 -0.7331  1.1402
 2872TIP3    H230176   1.254   2.019   6.632 -0.0792  0.9014 -1.9307
 2873TIP3   OH230177   0.762   2.669  29.005 -0.0926 -0.0721 -0.5150
 2873TIP3    H130178   0.747   2.607  28.933 -0.5193 -2.6431  1.6514
 2873TIP3    H230179   0.856   2.685  29.003  0.1924 -1.5606 -0.5811
 2874TIP3   OH230180   2.050   3.006  27.331 -0.1360  0.2601  0.2138
 2874TIP3    H130181   2.025   3.094  27.303 -1.2085  0.0193  0.4070
 2874TIP3    H230182   2.027   2.950  27.257 -2.2070 -0.2633  1.2019
 2875TIP3   OH230183   0.372   2.474  21.061  0.0233 -0.2645  0.2083
 2875TIP3    H130184   0.347   2.439  20.975 -0.4057 -0.9233  0.5949
 2875TIP3    H230185   0.291   2.472  21.112 -0.3191  2.3847 -0.0931
 2876TIP3   OH230186   2.755   3.448  31.675  0.5012  0.2927  0.1413
 2876TIP3    H130187   2.683   3.446  31.738 -0.1416 -0.2582 -0.5980
 2876TIP3    H230188   2.770   3.356  31.653 -0.2267  0.5568 -1.5628
 2877TIP3   OH230189   2.068   0.919   1.459  0.4492  0.2399  0.2154
 2877TIP3    H130190   2.060   0.946   1.551 -1.2536  0.1653  0.1209
 2877TIP3    H230191   2.051   0.825   1.460  0.9324  0.1433 -0.1313
 2878TIP3   OH230192   1.520   0.583   1.598  0.4962  0.6933  0.4127
 2878TIP3    H130193   1.459   0.512   1.578 -0.8696  1.7801  0.5523
 2878TIP3    H230194   1.600   0.539   1.625 -0.1243 -0.7891 -0.0660
 2879TIP3   OH230195   1.913   3.098  10.932  0.8076 -0.0352  0.4074
 2879TIP3    H130196   1.877   3.084  11.020 -0.8269 -2.5846 -0.5580
 2879TIP3    H230197   1.854   3.161  10.891 -1.0201 -2.0433 -0.2027
 2880TIP3   OH230198   2.068   2.661  14.669 -0.4468 -0.8525  0.0870
 2880TIP3    H130199   2.092   2.613  14.748  0.0529  0.7896  0.9765
 2880TIP3    H230200   2.149   2.705  14.643 -0.5991 -1.3767 -1.3770
 2881TIP3   OH230201   0.737   1.883   5.082  0.1668 -0.6898 -0.2865
 2881TIP3    H130202   0.687   1.819   5.032 -0.7038 -0.0751 -0.2305
 2881TIP3    H230203   0.705   1.968   5.051  0.4767 -0.2941  0.4471
 2882TIP3   OH230204   1.592   0.708   0.787  0.5382  0.0949 -0.3177
 2882TIP3    H130205   1.650   0.736   0.717  1.0140 -0.8006 -0.3016
 2882TIP3    H230206   1.584   0.784   0.844  1.6125  0.2747 -0.3814
 2883TIP3   OH230207   0.483   1.861  26.149  0.1008  0.0273  0.4177
 2883TIP3    H130208   0.433   1.806  26.089  0.4094 -1.4619  1.4659
 2883TIP3    H230209   0.540   1.913  26.092  0.7718 -1.7224 -0.5961
 2884TIP3   OH230210   1.156   1.273   5.234 -0.0043  0.0378 -0.0089
 2884TIP3    H130211   1.105   1.320   5.299 -0.8632 -0.8711  0.0093
 2884TIP3    H230212   1.106   1.192   5.218  0.8388 -0.3443 -0.8499
 2885TIP3   OH230213   2.869   1.394  32.262  0.3730  0.2587 -0.9396
 2885TIP3    H130214   2.781   1.383  32.225  0.1223  0.7302 -0.4996
 2885TIP3    H230215   2.872   1.331  32.334  0.1519  0.6713 -0.5535
 2886TIP3   OH230216   3.076   0.720   5.901 -0.0634  0.3888 -0.0721
 2886TIP3    H130217   3.108   0.769   5.977 -0.2256  1.1783 -0.5081
 2886TIP3    H230218   3.063   0.631   5.934 -1.4445  1.0234  1.2022
 2887TIP3   OH230219   1.693   2.102  29.164  0.3580 -0.2291 -0.1922
 2887TIP3    H130220   1.761   2.151  29.117 -0.0488  0.2170 -0.3292
 2887TIP3    H230221   1.670   2.031  29.104  0.8047 -0.4682 -0.0838
 2888TIP3   OH230222   3.048   2.276  30.611  0.3219  0.0325  0.2233
 2888TIP3    H130223   2.988   2.338  30.571 -0.9395 -0.9191  0.5973
 2888TIP3    H230224   3.001   2.240  30.686  1.1094 -1.1769  0.1815
 2889TIP3   OH230225   3.155   2.101   3.588 -0.4486 -0.1283  0.2663
 2889TIP3    H130226   3.078   2.062   3.549 -1.1125 -0.5748  1.9289
 2889TIP3    H230227   3.161   2.188   3.548 -1.8157 -0.0855  0.1021
 2890TIP3   OH230228   2.488   2.851  31.808 -0.2436  0.1409  0.5908
 2890TIP3    H130229   2.541   2.931  31.803 -0.3249  0.2212  0.9792
 2890TIP3    H230230   2.552   2.780  31.816 -0.1727  0.1713  0.3003
 2891TIP3   OH230231   2.584   1.977   5.177 -0.3356 -0.3022  0.4786
 2891TIP3    H130232   2.654   2.028   5.137 -1.1964  1.6522  1.3337
 2891TIP3    H230233   2.503   2.015   5.142 -1.0216 -2.0331  0.0527
 2892TIP3   OH230234   0.735   2.125  28.092  0.3491 -0.1166 -0.2190
 2892TIP3    H130235   0.672   2.158  28.156 -0.6452 -0.1388 -1.1559
 2892TIP3    H230236   0.770   2.046  28.132 -1.3372 -0.9495 -0.2868
 2893TIP3   OH230237   1.838   0.355   4.543 -0.6483  0.4408 -0.1513
 2893TIP3    H130238   1.910   0.293   4.535 -1.3241 -0.5087  0.7786
 2893TIP3    H230239   1.860   0.408   4.620 -0.4893  0.7673 -0.4231
 2894TIP3   OH230240   1.273   0.763  32.455 -0.3014  0.0817 -0.3953
 2894TIP3    H130241   1.308   0.678  32.479 -1.2305 -1.1936 -3.1905
 2894TIP3    H230242   1.254   0.757  32.361 -0.0213  3.5164 -0.8224
 2895TIP3   OH230243   2.818   1.721  28.635  0.2506 -0.1202  0.1651
 2895TIP3    H130244   2.873   1.665  28.581  1.3812  1.9711 -1.0045
 2895TIP3    H230245   2.771   1.776  28.571  0.4608  1.3754  1.2420
 2896TIP3   OH230246   1.680   3.161  30.016 -0.0009 -0.4675  0.3074
 2896TIP3    H130247   1.772   3.142  30.031 -0.1416 -0.2660  1.5356
 2896TIP3    H230248   1.659   3.118  29.933  2.0244  2.3044 -1.8157
 2897TIP3   OH230249   1.504   1.572  31.642 -0.1193  0.0633  0.1164
 2897TIP3    H130250   1.486   1.478  31.648 -1.6639  0.4101  2.0482
 2897TIP3    H230251   1.535   1.596  31.729 -2.2945  1.7648  0.5044
 2898TIP3   OH230252   1.522   1.417  18.444  0.3919 -0.3680 -0.1047
 2898TIP3    H130253   1.569   1.449  18.366 -1.1128 -3.1878 -2.3434
 2898TIP3    H230254   1.462   1.488  18.467  1.3733  0.8034 -1.0533
 2899TIP3   OH230255   1.997   2.784   4.306  0.0281 -0.6867 -0.3490
 2899TIP3    H130256   1.984   2.874   4.335  0.5324 -0.9826  0.8985
 2899TIP3    H230257   2.035   2.791   4.219 -0.9146  0.2837 -0.7034
 2900TIP3   OH230258   1.788   3.115  26.097  0.0560  0.7263 -0.3056
 2900TIP3    H130259   1.725   3.187  26.105  0.6464  1.3494 -1.1119
 2900TIP3    H230260   1.820   3.101  26.186 -0.7472  0.8377  0.0052
 2901TIP3   OH230261   0.875   3.083  30.711  0.0980  0.8661 -0.1840
 2901TIP3    H130262   0.903   3.148  30.775 -0.3619 -0.0161  0.9578
 2901TIP3    H230263   0.855   3.133  30.632  0.9524  1.9475  0.2655
 2902TIP3   OH230264   0.261   0.471   5.457  0.1749  0.1284 -0.4840
 2902TIP3    H130265   0.276   0.406   5.389 -0.0477  0.2833 -0.6824
 2902TIP3    H230266   0.348   0.509   5.474  0.3143 -0.2571 -0.3241
 2903TIP3   OH230267   1.784   1.539   2.969  0.1240  0.4647 -1.0574
 2903TIP3    H130268   1.830   1.458   2.947 -0.2745  0.0162 -0.3058
 2903TIP3    H230269   1.709   1.510   3.022  0.0284  1.3292 -0.6968
 2904TIP3   OH230270   1.207   3.087   0.315 -0.2700 -0.2123 -0.1509
 2904TIP3    H130271   1.148   3.160   0.297 -0.6914 -0.3264  0.7119
 2904TIP3    H230272   1.241   3.062   0.229  0.8165  1.7634 -0.3455
 2905TIP3   OH230273   1.829   0.072   3.307 -0.2324 -0.7041 -0.1266
 2905TIP3    H130274   1.912   0.119   3.292  0.2575 -1.3719  0.4447
 2905TIP3    H230275   1.762   0.132   3.273  0.3443  0.6041  0.9318
 2906TIP3   OH230276   0.010   1.666   3.393 -0.3125 -0.0241 -0.3380
 2906TIP3    H130277   0.017   1.629   3.481 -2.1166 -1.3659 -0.6957
 2906TIP3    H230278  -0.075   1.636   3.361  1.3602 -1.8976 -3.5702
 2907TIP3   OH230279   2.269   0.247   5.453 -0.5559 -0.5129 -0.5353
 2907TIP3    H130280   2.339   0.286   5.505 -0.5572 -1.2192  0.0207
 2907TIP3    H230281   2.294   0.155   5.444 -1.9966 -1.0813  0.7530
 2908TIP3   OH230282   0.843   0.592  28.897  0.6218 -0.5190  1.0871
 2908TIP3    H130283   0.853   0.665  28.958  0.1717 -0.6327  1.2983
 2908TIP3    H230284   0.755   0.602  28.861  0.5977 -0.8967  1.0376
 2909TIP3   OH230285   2.752   0.996  28.743  0.3720  0.7689 -0.5898
 2909TIP3    H130286   2.806   1.059  28.695 -1.3152  1.8389 -1.1872
 2909TIP3    H230287   2.681   0.975  28.682  0.5290 -1.2313 -0.1480
 2910TIP3   OH230288   0.323   2.129  21.118 -0.0067 -0.4602  0.3750
 2910TIP3    H130289   0.230   2.142  21.097 -0.7624 -3.3483  1.5418
 2910TIP3    H230290   0.367   2.136  21.033 -1.4485 -0.3771 -0.4090
 2911TIP3   OH230291   1.255   2.559   2.572 -0.9602  0.7268 -0.0053
 2911TIP3    H130292   1.299   2.486   2.529 -0.2041  0.2371  1.5679
 2911TIP3    H230293   1.229   2.616   2.499  1.5999  0.6727 -1.0710
 2912TIP3   OH230294   0.750   1.438  25.255  0.2534  0.3426  0.3511
 2912TIP3    H130295   0.688   1.374  25.290  1.4398 -0.9466  0.1633
 2912TIP3    H230296   0.819   1.443  25.321 -1.1991  3.7625  1.8919
 2913TIP3   OH230297   0.980   2.075   0.314 -0.1716  0.1044 -0.4024
 2913TIP3    H130298   0.900   2.126   0.322  0.2305  0.6568  0.2076
 2913TIP3    H230299   1.012   2.094   0.226 -1.0824 -0.6847 -0.9114
 2914TIP3   OH230300   0.687   0.224   6.446 -0.1849  0.1285  0.2739
 2914TIP3    H130301   0.682   0.320   6.441 -1.1456  0.2067  1.9070
 2914TIP3    H230302   0.605   0.194   6.407 -0.9793  0.1064  1.9010
 2915TIP3   OH230303   0.809   2.767  26.759  0.1113 -0.7661 -0.0799
 2915TIP3    H130304   0.823   2.806  26.673  1.5020 -0.3690  0.2953
 2915TIP3    H230305   0.782   2.677  26.741 -2.5713  0.1188 -0.9421
 2916TIP3   OH230306   0.867   1.861  27.545  0.3275 -0.2697  0.0982
 2916TIP3    H130307   0.857   1.858  27.640 -1.0113 -0.9908 -0.0429
 2916TIP3    H230308   0.798   1.804  27.511  0.9874 -0.2903 -1.3006
 2917TIP3   OH230309   2.840   1.578  25.973  0.0542 -0.1042 -0.5013
 2917TIP3    H130310   2.809   1.498  25.931  2.1123 -0.6883 -1.0733
 2917TIP3    H230311   2.790   1.584  26.054 -1.1170 -1.2040 -1.1081
 2918TIP3   OH230312   2.721   2.895  32.507  0.3062  0.3741  0.7340
 2918TIP3    H130313   2.640   2.874  32.460 -0.7060  2.2702  1.5096
 2918TIP3    H230314   2.745   2.814  32.551 -0.5190 -0.5403 -0.4264
 2919TIP3   OH230315   1.882   1.351  22.350  0.8397 -0.0106  0.2062
 2919TIP3    H130316   1.949   1.316  22.409  1.3530 -0.1191 -0.4246
 2919TIP3    H230317   1.839   1.420  22.400  0.6550 -0.7136  1.0247
 2920TIP3   OH230318   3.541   1.817  27.102  0.6515 -0.6734  0.4010
 2920TIP3    H130319   3.559   1.910  27.115  1.9730 -0.4954 -2.0823
 2920TIP3    H230320   3.447   1.812  27.088  0.4077  0.1084  1.5832
 2921TIP3   OH230321   0.348   3.023  30.880  0.0397  0.2873 -0.2780
 2921TIP3    H130322   0.438   3.051  30.868  1.2318 -2.8675  0.2876
 2921TIP3    H230323   0.340   2.944  30.826 -2.1730  0.0487  0.2838
 2922TIP3   OH230324   2.227   1.484   1.492  0.4469 -0.0427  0.0576
 2922TIP3    H130325   2.138   1.480   1.528 -0.5206  0.5559 -2.1098
 2922TIP3    H230326   2.264   1.399   1.512 -1.2645 -0.9741 -0.5217
 2923TIP3   OH230327   0.940   1.176   0.340 -0.2268  0.0231 -0.1749
 2923TIP3    H130328   0.926   1.086   0.370  1.0516  0.4757  2.0243
 2923TIP3    H230329   0.873   1.190   0.273  0.3496 -2.9694 -1.5668
 2924TIP3   OH230330   0.572   0.568  32.468  0.4149 -0.2770 -0.7086
 2924TIP3    H130331   0.643   0.517  32.429  0.7239 -1.3271  1.1165
 2924TIP3    H230332   0.516   0.503  32.510  0.0001  0.7677  0.4146
 2925TIP3   OH230333   3.062   2.213  32.473 -0.3653 -0.3729  0.4740
 2925TIP3    H130334   3.110   2.140  32.434 -2.2753 -1.3428 -0.1556
 2925TIP3    H230335   3.109   2.231  32.554  0.8413 -1.5163  0.0712
 2926TIP3   OH230336   1.411   2.650   3.896  0.5031  0.3090 -0.1159
 2926TIP3    H130337   1.468   2.626   3.822 -0.6134 -0.3217 -0.7977
 2926TIP3    H230338   1.447   2.733   3.927  1.8242 -0.0874 -0.4871
 2927TIP3   OH230339   0.499   2.696  29.628  0.4056 -0.5669  0.0582
 2927TIP3    H130340   0.413   2.710  29.668 -0.1721 -0.2450 -1.2400
 2927TIP3    H230341   0.508   2.601  29.622 -0.4785 -0.5920 -1.0592
 2928TIP3   OH230342   3.172   3.097  11.590 -0.6401 -0.2053 -0.0692
 2928TIP3    H130343   3.179   3.185  11.628 -1.6405  0.0168 -0.3755
 2928TIP3    H230344   3.172   3.112  11.495 -1.3625 -0.4792 -0.1168
 2929TIP3   OH230345   0.850   1.778  26.527  0.4943  0.2998 -0.4291
 2929TIP3    H130346   0.814   1.861  26.561  0.2237  0.9329 -2.1559
 2929TIP3    H230347   0.820   1.775  26.436  2.9940 -0.2465 -1.2881
 2930TIP3   OH230348   0.557   1.662   5.700 -0.1327 -0.0965  0.6678
 2930TIP3    H130349   0.558   1.754   5.675  0.2236  0.4658  2.5786
 2930TIP3    H230350   0.468   1.633   5.684 -0.2066  0.5095 -0.1051
 2931TIP3   OH230351   1.222   3.344  30.715 -0.1586 -0.4108  0.3600
 2931TIP3    H130352   1.242   3.381  30.801 -0.6960 -0.3949  0.4795
 2931TIP3    H230353   1.242   3.251  30.724 -0.6624 -0.4946  0.6461
 2932TIP3   OH230354   1.758   1.534  22.815 -0.4121  0.2230 -0.3717
 2932TIP3    H130355   1.663   1.546  22.821 -0.5124 -0.6458 -0.0577
 2932TIP3    H230356   1.777   1.462  22.875 -0.1293 -2.5242 -3.4535
 2933TIP3   OH230357   2.423   0.784   0.310 -0.5367  0.0874 -0.4604
 2933TIP3    H130358   2.454   0.752   0.225  2.2536  0.0513  0.4800
 2933TIP3    H230359   2.369   0.713   0.345  0.4311 -0.9969 -1.1000
 2934TIP3   OH230360   2.599   1.766  27.624  0.2174 -0.0802 -0.7260
 2934TIP3    H130361   2.672   1.810  27.667  0.0669 -1.1207  0.6523
 2934TIP3    H230362   2.565   1.831  27.562  0.7814  1.2899  0.3440
 2935TIP3   OH230363   0.087   1.421  31.345  0.2900 -0.0500  0.3658
 2935TIP3    H130364   0.051   1.342  31.385 -1.4972  0.0971 -0.8393
 2935TIP3    H230365   0.140   1.461  31.414 -1.9967 -0.2022  2.3472
 2936TIP3   OH230366   2.273   2.023  28.450 -0.0882  0.4772 -0.3002
 2936TIP3    H130367   2.258   2.100  28.505  1.7056  1.0995 -0.6418
 2936TIP3    H230368   2.194   1.970  28.462 -1.1496  2.1274  0.3149
 2937TIP3   OH230369   0.190   2.688   0.696 -0.1723 -0.1338  0.5765
 2937TIP3    H130370   0.209   2.679   0.789 -1.8402  0.8660  1.0440
 2937TIP3    H230371   0.154   2.776   0.686  1.7000  0.5166 -1.3434
 2938TIP3   OH230372   2.572   0.340   2.181 -0.0181  0.4326 -0.2936
 2938TIP3    H130373   2.667   0.355   2.183 -0.2582  2.1463  1.1298
 2938TIP3    H230374   2.561   0.251   2.215  0.9798  1.2265  2.3780
 2939TIP3   OH230375   2.363   2.176   5.518 -0.1062  0.3594  0.1072
 2939TIP3    H130376   2.333   2.218   5.438 -3.7017 -0.3342  0.9239
 2939TIP3    H230377   2.379   2.249   5.578  1.9336  0.8424 -0.9330
 2940TIP3   OH230378   0.195   3.285  28.649  0.0473 -0.0207 -0.1842
 2940TIP3    H130379   0.243   3.321  28.575 -0.9570  2.4379  0.2293
 2940TIP3    H230380   0.126   3.232  28.610  1.6786 -1.7639 -0.8326
 2941TIP3   OH230381   1.844   2.508   0.201 -0.4268  0.4408  0.2393
 2941TIP3    H130382   1.869   2.447   0.132 -1.1816 -1.3350  1.4731
 2941TIP3    H230383   1.818   2.587   0.154  1.9399  0.3877 -1.3389
 2942TIP3   OH230384   3.346   1.463   4.997 -0.0441  0.0381  0.0724
 2942TIP3    H130385   3.289   1.484   5.071  0.5491  0.3212  0.4478
 2942TIP3    H230386   3.286   1.427   4.931 -0.6204  0.0779  0.5640
 2943TIP3   OH230387   0.934   0.183  30.206 -0.2666 -0.3688 -0.2054
 2943TIP3    H130388   0.854   0.137  30.233 -1.6773  1.8978 -0.2549
 2943TIP3    H230389   0.909   0.276  30.206  2.6194  0.4813  0.5298
 2944TIP3   OH230390   0.796   1.373  29.448 -0.4213 -0.3368 -0.7720
 2944TIP3    H130391   0.751   1.339  29.370  0.0058  2.3967 -2.3408
 2944TIP3    H230392   0.884   1.395  29.417  0.6122 -1.5320  1.1711
 2945TIP3   OH230393   1.915   1.019  19.203  0.0301  0.0039 -0.2209
 2945TIP3    H130394   1.845   1.064  19.249  0.5713  0.4847  0.1570
 2945TIP3    H230395   1.948   0.955  19.267  0.2740  0.1413 -0.2061
 2946TIP3   OH230396   2.129   0.803  30.969 -0.0456  0.4231 -0.2830
 2946TIP3    H130397   2.061   0.757  31.019 -0.5168  0.1098 -1.1899
 2946TIP3    H230398   2.208   0.751  30.984  0.1561  1.1113  1.2383
 2947TIP3   OH230399   0.318   2.239  30.374 -0.4684  0.2559 -0.5203
 2947TIP3    H130400   0.336   2.166  30.315  0.4126 -0.6803  0.8757
 2947TIP3    H230401   0.402   2.259  30.414 -0.9258  1.3221 -0.0521
 2948TIP3   OH230402   2.855   2.094   4.243  0.3948  0.4560 -0.0137
 2948TIP3    H130403   2.896   2.023   4.292 -2.5375 -0.3524  1.5340
 2948TIP3    H230404   2.773   2.057   4.211 -0.5601  2.7262 -0.4056
 2949TIP3   OH230405   1.855   2.180  29.867 -0.3980 -0.0039 -0.6405
 2949TIP3    H130406   1.816   2.268  29.871 -0.7033 -0.0647 -1.8834
 2949TIP3    H230407   1.946   2.193  29.895 -1.1751  0.1733  2.1411
 2950TIP3   OH230408   2.334   2.595   1.205  0.0241 -0.1644 -0.3621
 2950TIP3    H130409   2.343   2.584   1.300 -0.4744  0.9120 -0.1774
 2950TIP3    H230410   2.350   2.688   1.190  1.7385 -0.6140 -1.5596
 2951TIP3   OH230411   0.317   3.297  29.132  0.6656  0.4613 -0.3646
 2951TIP3    H130412   0.303   3.356  29.206  0.4954  0.7115 -0.5977
 2951TIP3    H230413   0.247   3.317  29.071 -0.3515 -1.0559  0.2335
 2952TIP3   OH230414   2.735   0.632  29.526 -0.4433 -1.1922  0.0867
 2952TIP3    H130415   2.803   0.667  29.584 -0.2099 -2.9517  0.9493
 2952TIP3    H230416   2.672   0.591  29.586 -0.7386 -2.1405 -0.8410
 2953TIP3   OH230417   1.367   0.476  30.323 -0.3664 -0.1486 -0.1583
 2953TIP3    H130418   1.427   0.505  30.254 -0.4447 -1.3944 -0.7942
 2953TIP3    H230419   1.307   0.549  30.335 -0.0818  0.2665 -1.1234
 2954TIP3   OH230420   3.272   2.162   3.104 -0.1017  0.4990  0.0443
 2954TIP3    H130421   3.176   2.168   3.107 -0.2357 -1.3563  0.5491
 2954TIP3    H230422   3.295   2.181   3.013 -1.0565 -0.2843 -0.3726
 2955TIP3   OH230423   3.172   2.508  29.456 -0.2916 -0.1466  0.2764
 2955TIP3    H130424   3.184   2.550  29.371 -0.2401 -0.1264  0.2943
 2955TIP3    H230425   3.260   2.503  29.493 -0.6013  2.4219  1.5664
 2956TIP3   OH230426   2.139   0.953  26.206  0.4476  0.1624  0.2677
 2956TIP3    H130427   2.213   0.976  26.263 -0.0711  2.1851  0.1879
 2956TIP3    H230428   2.177   0.893  26.142  1.6085 -0.2192  1.2555
 2957TIP3   OH230429   3.017   2.069  29.894 -0.2589 -0.4198  0.1921
 2957TIP3    H130430   3.023   1.973  29.902  2.8954 -0.3644 -0.0598
 2957TIP3    H230431   2.940   2.084  29.840 -0.4121 -2.8781 -0.4058
 2958TIP3   OH230432   2.649   3.414  31.949 -0.4082  0.2675  0.5363
 2958TIP3    H130433   2.736   3.374  31.947 -0.2357  0.6781 -0.9723
 2958TIP3    H230434   2.603   3.366  32.018  0.8071 -0.3735  0.9378
 2959TIP3   OH230435   3.250   1.183  27.387  0.0733  0.5946  0.7205
 2959TIP3    H130436   3.326   1.237  27.366  0.5113  0.1071  1.0232
 2959TIP3    H230437   3.248   1.116  27.318  1.4021 -0.8952  2.0372
 2960TIP3   OH230438   1.746   1.481   7.653 -0.1233  0.0027  0.3579
 2960TIP3    H130439   1.704   1.457   7.571 -0.9520 -1.9509  1.2822
 2960TIP3    H230440   1.679   1.468   7.719  0.8927  0.3330  1.5017
 2961TIP3   OH230441   2.845   1.856  31.967 -0.0937 -0.1346  0.4373
 2961TIP3    H130442   2.789   1.865  31.890  0.4089 -0.6035  0.0128
 2961TIP3    H230443   2.810   1.780  32.014 -0.1074 -0.1353  0.4267
 2962TIP3   OH230444   1.534   1.779   1.481 -0.9225 -0.4312  0.0207
 2962TIP3    H130445   1.469   1.809   1.418 -0.9349 -1.3768 -0.4373
 2962TIP3    H230446   1.618   1.793   1.437 -0.9743 -2.2812 -0.8026
 2963TIP3   OH230447   3.530   2.275  27.301  0.8561 -0.2541 -0.5659
 2963TIP3    H130448   3.614   2.284  27.255  1.7999 -0.1173  1.1039
 2963TIP3    H230449   3.546   2.312  27.388 -0.6156 -1.2568  0.1705
 2964TIP3   OH230450   3.113   2.492   4.804 -0.1725  0.3331 -0.1048
 2964TIP3    H130451   3.028   2.496   4.761  0.3196  0.1895 -1.1280
 2964TIP3    H230452   3.093   2.485   4.897 -1.2629  1.8441 -0.2000
 2965TIP3   OH230453   0.759   0.649   0.536 -0.1254 -0.1755  0.0639
 2965TIP3    H130454   0.731   0.728   0.583 -1.1084 -1.0671  1.0326
 2965TIP3    H230455   0.685   0.627   0.480  0.4807  0.0552 -0.8442
 2966TIP3   OH230456   1.010   2.930  31.801  0.2365 -0.1554  0.3334
 2966TIP3    H130457   1.043   2.952  31.888  1.0148  1.1838 -0.2578
 2966TIP3    H230458   1.011   3.014  31.753  0.0822 -0.9028 -1.0425
 2967TIP3   OH230459   1.770   0.485  27.310  0.3148  0.0488 -0.5359
 2967TIP3    H130460   1.861   0.459  27.295  0.4765  0.1670  0.1809
 2967TIP3    H230461   1.729   0.478  27.225  1.3959  1.5669 -1.2347
 2968TIP3   OH230462   3.481   1.886   6.037  0.0453 -0.2377 -0.0796
 2968TIP3    H130463   3.452   1.896   5.946  0.3975 -1.1208 -0.2971
 2968TIP3    H230464   3.402   1.904   6.088 -0.5542 -1.1999 -0.6221
 2969TIP3   OH230465   2.117   3.213  31.090  0.0074  0.1322  0.1770
 2969TIP3    H130466   2.139   3.120  31.088  0.4838  0.2519 -0.4760
 2969TIP3    H230467   2.201   3.257  31.080 -0.4322  0.6101 -1.6742
 2970TIP3   OH230468   2.235   2.910   2.352 -0.3089 -0.2762 -0.2827
 2970TIP3    H130469   2.304   2.963   2.392  0.3566 -1.9089  0.8120
 2970TIP3    H230470   2.164   2.912   2.415 -0.7056  0.1857 -0.7376
 2971TIP3   OH230471   0.586   2.361  28.404 -0.3268 -0.6765 -0.0679
 2971TIP3    H130472   0.665   2.401  28.439 -0.9704 -0.5329  1.2888
 2971TIP3    H230473   0.520   2.431  28.406 -0.9778 -1.2973  0.6048
 2972TIP3   OH230474   1.859   1.955   3.154  0.0759  0.0337 -0.5646
 2972TIP3    H130475   1.770   1.956   3.188  1.0874 -1.4821  2.4901
 2972TIP3    H230476   1.853   1.907   3.072 -1.8601 -0.4571 -0.1810
 2973TIP3   OH230477   1.481   2.904   6.261 -0.2873  0.2159 -0.6463
 2973TIP3    H130478   1.542   2.972   6.232 -1.5832  1.7067 -0.0188
 2973TIP3    H230479   1.402   2.919   6.210 -0.0891 -1.8816 -1.6721
 2974TIP3   OH230480   2.606   1.391  27.261 -0.0175  1.0485  0.3954
 2974TIP3    H130481   2.570   1.459  27.317 -1.8855  0.1053  0.4027
 2974TIP3    H230482   2.575   1.309  27.299  1.7712  0.1945  0.1004
 2975TIP3   OH230483   0.202   1.857  30.723  0.6758  0.4308  0.0952
 2975TIP3    H130484   0.208   1.829  30.814  0.7433 -2.4841 -0.7012
 2975TIP3    H230485   0.269   1.925  30.714  1.4124  0.0095  1.9459
 2976TIP3   OH230486   2.361   0.910  19.872  0.2798 -0.4314  0.0110
 2976TIP3    H130487   2.363   0.820  19.840  0.2565 -1.3955  2.4897
 2976TIP3    H230488   2.432   0.954  19.825 -1.0171 -1.1196 -2.7766
 2977TIP3   OH230489   0.057   0.051  27.690  0.0334 -0.3639  0.7210
 2977TIP3    H130490   0.068   0.113  27.619  2.1775 -1.6644 -0.1785
 2977TIP3    H230491   0.104   0.089  27.764 -0.4279  0.0217  0.8202
 2978TIP3   OH230492   0.909   0.174  29.125 -0.4296  0.0115  0.0444
 2978TIP3    H130493   0.917   0.097  29.181 -2.1023 -0.3132 -0.1121
 2978TIP3    H230494   0.972   0.160  29.055  1.0048 -0.0421  1.2916
 2979TIP3   OH230495   1.298   3.204   6.495 -0.0860 -0.4487  0.4074
 2979TIP3    H130496   1.323   3.214   6.587  2.0853  1.0237 -0.2704
 2979TIP3    H230497   1.294   3.109   6.481 -1.4269 -0.7164  2.2116
 2980TIP3   OH230498   1.284   2.528   2.976  0.7362  0.2607 -0.4698
 2980TIP3    H130499   1.338   2.450   2.990 -2.4385 -1.8990  0.8991
 2980TIP3    H230500   1.261   2.557   3.064 -3.1584 -1.2055 -0.8060
 2981TIP3   OH230501   1.129   1.552  26.939  0.1169  0.1701  0.3404
 2981TIP3    H130502   1.063   1.605  26.893 -1.2217 -1.6438  0.0523
 2981TIP3    H230503   1.105   1.558  27.031  0.7633  1.0647  0.4701
 2982TIP3   OH230504   2.988   1.333   5.395  0.2104  0.5181  0.2751
 2982TIP3    H130505   3.008   1.240   5.401 -1.9292 -0.0879 -0.9484
 2982TIP3    H230506   2.929   1.340   5.320 -1.1203  2.6053  1.4303
 2983TIP3   OH230507   3.050   1.277   1.185  0.4138 -0.3820  0.0227
 2983TIP3    H130508   2.996   1.349   1.217 -0.5644 -1.9444  2.1959
 2983TIP3    H230509   3.100   1.314   1.113 -1.1016  2.0458  0.1126
 2984TIP3   OH230510   2.225   0.514   0.905  0.2833  0.0466  0.0500
 2984TIP3    H130511   2.168   0.490   0.832 -1.6263  0.8652  1.1951
 2984TIP3    H230512   2.214   0.608   0.914  0.4626 -0.0453  1.4206
 2985TIP3   OH230513   2.630   2.883   7.000 -0.0503  0.3309  0.1558
 2985TIP3    H130514   2.651   2.959   7.054 -0.0251  0.3512  0.1171
 2985TIP3    H230515   2.541   2.859   7.027 -0.0698  0.3925  0.1466
 2986TIP3   OH230516   1.478   1.439   7.742  0.6020  0.3324  0.3721
 2986TIP3    H130517   1.431   1.452   7.659  0.0828  3.3886  1.0322
 2986TIP3    H230518   1.455   1.349   7.768 -0.4591 -0.1718 -2.0109
 2987TIP3   OH230519   0.191   0.586  29.723  0.0616  0.4215  0.1006
 2987TIP3    H130520   0.144   0.668  29.711  1.6964  1.3695 -0.1562
 2987TIP3    H230521   0.247   0.601  29.799 -2.3254 -1.8127  2.5296
 2988TIP3   OH230522   1.401   3.427  29.829 -0.5932 -0.3985 -0.4522
 2988TIP3    H130523   1.456   3.432  29.908 -1.2633  1.2577 -0.0515
 2988TIP3    H230524   1.457   3.385  29.764  0.0686 -1.5744  0.8204
 2989TIP3   OH230525   2.733   1.115   0.119 -0.6870  0.1421  0.1237
 2989TIP3    H130526   2.785   1.052   0.169 -1.5894 -0.6243  0.1386
 2989TIP3    H230527   2.647   1.114   0.162 -1.3554 -0.2245 -1.1537
 2990TIP3   OH230528   0.579   2.921  26.470  0.4378 -0.3818  0.0384
 2990TIP3    H130529   0.590   3.015  26.487 -2.4938 -0.1933  1.4943
 2990TIP3    H230530   0.662   2.894  26.431  1.8932  2.5119  0.8485
 2991TIP3   OH230531   1.400   0.155  32.401 -0.3493 -0.5672  0.2178
 2991TIP3    H130532   1.440   0.122  32.481 -0.5164 -0.5904  0.2911
 2991TIP3    H230533   1.309   0.173  32.425  0.0673  1.3030  0.5496
 2992TIP3   OH230534   2.335   0.625  29.191 -0.4645 -0.1888 -0.2571
 2992TIP3    H130535   2.382   0.556  29.238  1.2786 -0.2187 -1.9483
 2992TIP3    H230536   2.249   0.627  29.233  0.6953 -0.7622  2.3570
 2993TIP3   OH230537   2.421   0.669  30.045  0.5596 -0.1931 -0.1502
 2993TIP3    H130538   2.391   0.589  30.001  1.1144 -0.4628 -0.0584
 2993TIP3    H230539   2.442   0.640  30.134 -1.1093  0.4642  0.4976
 2994TIP3   OH230540   2.851   1.432   6.037 -0.0176 -0.0117 -0.1899
 2994TIP3    H130541   2.808   1.449   5.953  0.2315 -1.1722 -0.5623
 2994TIP3    H230542   2.831   1.510   6.090 -0.5792  0.5179 -1.1516
 2995TIP3   OH230543   0.343   2.413   5.319  0.0114 -0.2472 -0.1060
 2995TIP3    H130544   0.285   2.389   5.247  3.4270 -2.8080 -2.3134
 2995TIP3    H230545   0.309   2.365   5.394 -1.1746 -1.0169 -1.1014
 2996TIP3   OH230546   1.318   2.941   6.466  0.8163  0.4214  0.2081
 2996TIP3    H130547   1.381   2.935   6.394  0.7416 -0.6027  0.2143
 2996TIP3    H230548   1.258   2.867   6.452  0.5617  0.4457  1.0926
 2997TIP3   OH230549   0.724   1.288   5.208 -0.1059  0.5600 -0.8271
 2997TIP3    H130550   0.650   1.252   5.159 -0.2520  0.2048 -0.3495
 2997TIP3    H230551   0.690   1.304   5.296  0.4773  0.0575 -0.5004
 2998TIP3   OH230552   1.418   0.560   0.618  0.6837 -0.0511 -0.8209
 2998TIP3    H130553   1.431   0.593   0.707 -1.2593  0.9197 -0.8340
 2998TIP3    H230554   1.485   0.494   0.606 -0.0393 -1.4147  1.9801
 2999TIP3   OH230555   2.785   1.635   5.579  0.0647 -0.0180  0.7189
 2999TIP3    H130556   2.693   1.622   5.601  0.8050 -1.3346  3.3636
 2999TIP3    H230557   2.829   1.556   5.609  2.1823  0.8182  0.0453
 3000TIP3   OH230558   0.979   1.853  21.494  0.0750 -0.1023 -0.1213
 3000TIP3    H130559   0.973   1.947  21.476 -0.4614 -0.6231 -3.2814
 3000TIP3    H230560   0.889   1.821  21.486  0.3490 -0.9845  0.2256
 3001TIP3   OH230561   0.975   3.138   7.441  0.3098 -0.3054  0.3293
 3001TIP3    H130562   1.019   3.221   7.460  0.2552  0.1195 -1.2577
 3001TIP3    H230563   0.945   3.147   7.351 -1.2759 -1.3638  0.6993
 3002TIP3   OH230564   0.205   1.932   4.596  0.9695 -0.8461 -0.5679
 3002TIP3    H130565   0.279   1.989   4.615  0.4251  0.5570 -2.4166
 3002TIP3    H230566   0.239   1.869   4.532  0.9550 -1.1707 -0.2611
 3003TIP3   OH230567   1.336   2.314  20.973  0.5713  0.2985 -0.3684
 3003TIP3    H130568   1.284   2.247  21.017  0.8429  0.4695  0.2245
 3003TIP3    H230569   1.426   2.292  20.994  0.7365  0.1367 -1.2037
 3004TIP3   OH230570   1.503   1.154  32.196 -0.5202 -0.7209 -0.4747
 3004TIP3    H130571   1.462   1.068  32.184 -2.3979  0.1824 -0.9514
 3004TIP3    H230572   1.431   1.216  32.188  1.1105  1.0808 -2.4994
 3005TIP3   OH230573   1.303   1.576  18.727  0.1639 -0.0518 -0.7594
 3005TIP3    H130574   1.374   1.518  18.753 -0.2323 -0.6085 -0.8954
 3005TIP3    H230575   1.326   1.604  18.639  0.3045 -0.0906 -0.7358
 3006TIP3   OH230576   2.595   1.515  32.285  0.3444  0.3417  0.3006
 3006TIP3    H130577   2.526   1.456  32.253 -1.2072  1.4974  1.3503
 3006TIP3    H230578   2.599   1.497  32.379 -0.5722  2.2305  0.7551
 3007TIP3   OH230579   3.475   0.554   2.841  0.0915  0.9616  0.0595
 3007TIP3    H130580   3.466   0.473   2.892  3.4293  0.3737 -0.0448
 3007TIP3    H230581   3.457   0.624   2.905 -1.1401  0.2055  0.5859
 3008TIP3   OH230582   0.741   0.538   6.193 -0.6726 -0.3237 -0.1923
 3008TIP3    H130583   0.829   0.529   6.228 -1.3106  1.4345  2.1628
 3008TIP3    H230584   0.753   0.564   6.101  1.2331 -0.2586  0.0480
 3009TIP3   OH230585   2.910   2.805  32.861 -0.2993  0.3820 -0.3819
 3009TIP3    H130586   2.861   2.752  32.923 -2.5866  0.7024 -1.8059
 3009TIP3    H230587   2.901   2.759  32.778  0.5797  1.2513 -0.9828
 3010TIP3   OH230588   1.583   2.386  19.517  0.0057  0.3229  0.0674
 3010TIP3    H130589   1.669   2.418  19.493  0.5794 -1.0915  0.1281
 3010TIP3    H230590   1.568   2.421  19.605  1.2901 -0.8082  0.7742
 3011TIP3   OH230591   0.117   2.224  27.596  0.5859  0.3675 -0.8494
 3011TIP3    H130592   0.160   2.182  27.670  0.7922 -1.3079 -1.8519
 3011TIP3    H230593   0.026   2.232  27.623  0.8702  0.8203  0.0027
 3012TIP3   OH230594   0.444   2.001   6.926 -0.2888  0.2002  0.1223
 3012TIP3    H130595   0.521   2.040   6.968  0.3980 -0.3321 -0.6082
 3012TIP3    H230596   0.444   2.039   6.838 -1.4364  0.9384  0.4218
 3013TIP3   OH230597   3.192   2.428   3.102 -0.1790  0.3253  0.1598
 3013TIP3    H130598   3.288   2.422   3.098 -0.1615  0.2395  0.7601
 3013TIP3    H230599   3.175   2.522   3.111 -0.0292  0.1643  3.0159
 3014TIP3   OH230600   0.253   0.982  27.235  0.2127  0.5743  0.2388
 3014TIP3    H130601   0.300   0.911  27.191  2.6137  2.2188 -0.0199
 3014TIP3    H230602   0.186   1.009  27.172  1.3920  0.6609 -1.0032
 3015TIP3   OH230603   0.628   0.274  29.707  0.2546  0.7538  0.5914
 3015TIP3    H130604   0.567   0.331  29.752 -2.4828 -0.3820 -1.4030
 3015TIP3    H230605   0.588   0.188  29.710  2.9486 -0.6002  1.1743
 3016TIP3   OH230606   2.653   1.560   1.179  0.0150 -0.7100  0.1720
 3016TIP3    H130607   2.634   1.575   1.087  2.8327 -1.2598 -0.5806
 3016TIP3    H230608   2.738   1.516   1.180  0.2113 -0.4903  3.0543
 3017TIP3   OH230609   2.793   2.640   5.846  0.6194  0.6151  0.0266
 3017TIP3    H130610   2.851   2.565   5.828 -0.0252  0.8350 -3.8243
 3017TIP3    H230611   2.705   2.606   5.832  0.1097  1.4805  1.0008
 3018TIP3   OH230612   1.940   1.072   2.721  0.1230  0.4488 -0.0130
 3018TIP3    H130613   1.885   1.097   2.796 -0.0859 -0.0377 -0.0017
 3018TIP3    H230614   1.980   0.989   2.747 -2.1677 -1.2443 -1.5354
 3019TIP3   OH230615   3.443   0.245   5.238  0.1768  0.9150 -0.2033
 3019TIP3    H130616   3.351   0.228   5.218 -0.3631  0.9571  1.9097
 3019TIP3    H230617   3.490   0.167   5.206 -0.7491  0.4045 -0.3440
 3020TIP3   OH230618   0.062   2.826   5.415 -0.3347 -0.1534  0.1784
 3020TIP3    H130619   0.069   2.837   5.510 -0.3507 -1.3417  0.3352
 3020TIP3    H230620   0.135   2.876   5.379 -1.9490  2.7164  0.5866
 3021TIP3   OH230621   0.759   1.159   2.294 -0.3335  0.0912 -0.1469
 3021TIP3    H130622   0.792   1.089   2.237  0.9193 -0.3216  1.0322
 3021TIP3    H230623   0.812   1.152   2.373 -0.0314  2.5204 -0.0680
 3022TIP3   OH230624   1.636   2.959  11.595  0.1508  1.0092 -0.6629
 3022TIP3    H130625   1.699   2.940  11.664  0.6812  1.6711 -0.9526
 3022TIP3    H230626   1.680   2.933  11.514 -0.9777 -1.0322 -0.6829
 3023TIP3   OH230627   0.777   2.551  28.512  0.1556 -0.2496  0.0250
 3023TIP3    H130628   0.799   2.641  28.489 -0.1877 -0.4507 -1.1231
 3023TIP3    H230629   0.755   2.555  28.605  1.3035  0.6325  0.2887
 3024TIP3   OH230630   1.431   2.258   1.610  0.2537  0.1183 -0.2263
 3024TIP3    H130631   1.489   2.333   1.595  0.6477 -0.1081  0.1584
 3024TIP3    H230632   1.487   2.182   1.600 -0.1932 -0.1428 -0.8296
 3025TIP3   OH230633   3.097   2.559  27.387 -0.1848  0.1758 -0.3069
 3025TIP3    H130634   3.112   2.650  27.414 -1.0696  0.5690 -1.0770
 3025TIP3    H230635   3.107   2.561  27.292 -0.2870 -0.5143 -0.3322
 3026TIP3   OH230636   0.960   1.085   4.864  0.0159  0.4141 -0.3489
 3026TIP3    H130637   0.975   1.162   4.809  1.8450  0.9007  0.7310
 3026TIP3    H230638   0.951   1.012   4.802  1.0257  1.0936 -1.3305
 3027TIP3   OH230639   0.702   0.753   1.242 -0.1625 -0.1650 -0.3764
 3027TIP3    H130640   0.619   0.774   1.199  0.5986 -1.0780 -2.3709
 3027TIP3    H230641   0.694   0.660   1.265  0.0818 -0.0964  0.0063
 3028TIP3   OH230642   1.755   1.987  26.427 -0.0694  0.0669 -0.2080
 3028TIP3    H130643   1.841   1.982  26.469 -0.7271  1.5655  1.4319
 3028TIP3    H230644   1.772   1.960  26.336  1.7777 -1.3252  0.4813
 3029TIP3   OH230645   2.944   3.305  13.546 -0.7870  0.0665 -0.3552
 3029TIP3    H130646   2.908   3.379  13.595  2.1184  1.7656 -0.5025
 3029TIP3    H230647   2.947   3.233  13.609  0.4750  1.4576  1.2760
 3030TIP3   OH230648   1.843   1.505  25.836  0.0020  0.3840  0.3888
 3030TIP3    H130649   1.936   1.514  25.856  0.3388  0.9453 -1.2308
 3030TIP3    H230650   1.817   1.591  25.802 -0.7648 -0.1441 -0.4201
 3031TIP3   OH230651   2.209   3.116  29.035  0.3023  0.1216 -0.0798
 3031TIP3    H130652   2.190   3.131  29.128  0.0961 -2.1752  0.3148
 3031TIP3    H230653   2.304   3.119  29.029  0.4595 -1.7354  0.6761
 3032TIP3   OH230654   2.153   1.269   0.930 -0.3018 -0.1273  0.1115
 3032TIP3    H130655   2.215   1.220   0.984  0.0636 -0.5511 -0.6745
 3032TIP3    H230656   2.173   1.361   0.947  0.8051 -0.2561 -0.3982
 3033TIP3   OH230657   3.288   2.493  26.832 -0.3724 -0.1439  0.3638
 3033TIP3    H130658   3.239   2.429  26.781 -0.1829  0.6939 -0.8954
 3033TIP3    H230659   3.278   2.463  26.923  0.6229 -2.5796 -0.2439
 3034TIP3   OH230660   0.531   3.047  30.202 -0.0391  0.0981  0.1124
 3034TIP3    H130661   0.604   2.987  30.214  0.5844  1.0136  1.0604
 3034TIP3    H230662   0.467   3.022  30.269  0.5643  0.9678  1.0398
 3035TIP3   OH230663   2.873   0.388  30.679 -0.2832 -0.0864 -0.1252
 3035TIP3    H130664   2.947   0.328  30.671 -0.3327 -0.0338 -1.0310
 3035TIP3    H230665   2.809   0.340  30.733 -0.3974 -0.9317 -0.9871
 3036TIP3   OH230666   2.679   3.185  27.626  0.0738  0.0395  0.1504
 3036TIP3    H130667   2.750   3.154  27.682 -0.9464 -0.4705  1.1813
 3036TIP3    H230668   2.650   3.267  27.667  0.0170  0.2157 -0.2366
 3037TIP3   OH230669   3.537   1.899  29.379 -0.0234  0.2226 -0.5282
 3037TIP3    H130670   3.624   1.862  29.359  0.1590  0.1038  0.4309
 3037TIP3    H230671   3.552   1.992  29.391 -0.2502  0.4082 -1.5759
 3038TIP3   OH230672   1.416   3.207   4.093  0.2038 -0.1088 -0.1321
 3038TIP3    H130673   1.387   3.292   4.059  1.3571  0.2188 -0.3327
 3038TIP3    H230674   1.483   3.177   4.032 -0.5133 -1.4056 -0.3253
 3039TIP3   OH230675   2.405   2.171  27.674 -0.1024 -0.3531  0.5027
 3039TIP3    H130676   2.403   2.182  27.769 -0.5359  1.9462  0.2961
 3039TIP3    H230677   2.485   2.216  27.646 -0.2908 -0.4816 -0.2679
 3040TIP3   OH230678   1.919   1.670   5.400 -0.2249 -0.3989 -0.0678
 3040TIP3    H130679   1.972   1.610   5.347  2.6175  0.9025  1.0831
 3040TIP3    H230680   1.898   1.619   5.479  1.0762 -0.3561  0.3372
 3041TIP3   OH230681   1.212   3.164   1.063 -0.2227 -0.4416 -0.5397
 3041TIP3    H130682   1.161   3.222   1.006  0.8173  2.3631  1.1561
 3041TIP3    H230683   1.155   3.150   1.139 -0.5033 -1.8258 -0.9765
 3042TIP3   OH230684   3.532   1.080  30.863 -0.2695  0.0964 -0.3434
 3042TIP3    H130685   3.543   1.098  30.770 -0.0506 -2.1682 -0.8152
 3042TIP3    H230686   3.539   1.166  30.905  0.5230  1.0663 -2.3189
 3043TIP3   OH230687   3.072   2.707  32.523  0.3167  0.3160  0.0434
 3043TIP3    H130688   3.109   2.791  32.496  0.0095  1.0695  1.8488
 3043TIP3    H230689   3.122   2.683  32.602 -0.7354 -0.3425  0.5352
 3044TIP3   OH230690   1.999   2.401   2.273  0.4373  0.0077 -0.0596
 3044TIP3    H130691   1.995   2.385   2.367 -0.4053 -0.5006 -0.1711
 3044TIP3    H230692   2.053   2.479   2.264 -0.6531  0.9176  0.9574
 3045TIP3   OH230693   2.245   2.549  21.223  0.1343  0.9055 -0.3692
 3045TIP3    H130694   2.271   2.560  21.314  1.2760 -0.4441 -0.4859
 3045TIP3    H230695   2.161   2.593  21.215 -1.1212 -0.8976  1.9066
 3046TIP3   OH230696   1.908   2.189  20.518  0.0389  0.1571 -0.0915
 3046TIP3    H130697   1.880   2.275  20.548  0.3264 -0.2849  1.5261
 3046TIP3    H230698   1.984   2.168  20.572 -0.3092 -1.3159 -0.1241
 3047TIP3   OH230699   0.130   1.093   0.085 -0.5468 -0.4475  0.4103
 3047TIP3    H130700   0.132   0.998   0.077 -2.1248 -0.3585 -2.2247
 3047TIP3    H230701   0.184   1.124   0.012  0.5240  0.7151  1.6505
 3048TIP3   OH230702   0.348   1.748  20.884 -0.0969 -0.6535 -0.2016
 3048TIP3    H130703   0.278   1.750  20.949 -0.9883  0.5692 -1.1578
 3048TIP3    H230704   0.417   1.803  20.921 -0.5921  0.0250 -0.2666
 3049TIP3   OH230705   3.530   2.788  31.910 -0.2791 -0.0903  0.4746
 3049TIP3    H130706   3.617   2.799  31.948  0.4956 -0.7522 -0.9971
 3049TIP3    H230707   3.505   2.699  31.933  0.5254 -0.7675 -1.1159
 3050TIP3   OH230708   3.038   0.256  29.227 -0.0916 -0.3157 -0.2123
 3050TIP3    H130709   2.971   0.304  29.275  0.5653  1.6256 -1.1035
 3050TIP3    H230710   3.056   0.179  29.281  0.2465  1.4573  2.4452
 3051TIP3   OH230711   3.262   0.242   5.599  0.0211 -0.2117 -0.2579
 3051TIP3    H130712   3.209   0.243   5.679  0.8172 -1.7477  0.3270
 3051TIP3    H230713   3.199   0.245   5.528 -0.7270  0.6291  0.4152
 3052TIP3   OH230714   1.104   0.518   1.294  0.1333  0.2000  0.2840
 3052TIP3    H130715   1.141   0.524   1.206 -0.4186 -0.3451  0.0108
 3052TIP3    H230716   1.031   0.580   1.294  2.2701  2.9709  1.5028
 3053TIP3   OH230717   2.160   2.749  29.453  0.4459  0.1862  0.1725
 3053TIP3    H130718   2.247   2.775  29.424  0.0300 -0.3365 -1.6628
 3053TIP3    H230719   2.147   2.662  29.416 -0.2840 -0.3841  1.6912
 3054TIP3   OH230720   0.548   2.267  28.742  0.3050  0.2085  0.1957
 3054TIP3    H130721   0.524   2.225  28.824  1.3853  1.9975  1.5074
 3054TIP3    H230722   0.466   2.299  28.705  0.0793  2.3248  2.3308
 3055TIP3   OH230723   0.831   2.920  28.804 -0.6814 -0.2355 -0.4437
 3055TIP3    H130724   0.924   2.944  28.807 -0.4057 -1.2256 -0.6754
 3055TIP3    H230725   0.787   2.986  28.858  0.1235  0.3861 -0.5362
 3056TIP3   OH230726   3.480   0.671   0.682  0.1533 -1.1612  0.0867
 3056TIP3    H130727   3.535   0.694   0.757 -0.8489 -1.0023  0.7970
 3056TIP3    H230728   3.443   0.586   0.705 -0.9810 -0.6450  0.2765
 3057TIP3   OH230729   1.304   0.031   2.253  0.3613  0.0850 -0.4202
 3057TIP3    H130730   1.245   0.091   2.298  0.1309 -1.2116  1.0718
 3057TIP3    H230731   1.390   0.046   2.293  0.2824 -0.6207  0.0369
 3058TIP3   OH230732   2.373   0.040  32.120 -0.0278  0.5717  0.0258
 3058TIP3    H130733   2.447   0.061  32.178 -0.4312  1.4483  0.2484
 3058TIP3    H230734   2.412  -0.007  32.047  0.5157 -0.4587  0.9444
 3059TIP3   OH230735   1.862   2.461  27.677 -0.0405 -0.2928  0.0529
 3059TIP3    H130736   1.857   2.544  27.631 -0.9974 -1.8638 -2.9393
 3059TIP3    H230737   1.949   2.426  27.656  1.3257  0.8015  3.1908
 3060TIP3   OH230738   0.121   0.992  18.782  0.1252 -0.5230  0.2581
 3060TIP3    H130739   0.153   1.066  18.730  2.0336 -1.7270 -0.3900
 3060TIP3    H230740   0.034   1.019  18.810  0.1072  1.3021 -1.3011
 3061TIP3   OH230741   3.280   0.545   2.221  0.4360  0.0215 -0.1480
 3061TIP3    H130742   3.204   0.601   2.208  1.1231  0.9286 -0.3247
 3061TIP3    H230743   3.339   0.596   2.277  1.5220 -0.0813 -1.1505
 3062TIP3   OH230744   0.248   1.542  32.136 -0.2501 -0.1866 -0.3696
 3062TIP3    H130745   0.272   1.494  32.215  1.2013 -0.3859 -0.9178
 3062TIP3    H230746   0.282   1.631  32.150  0.2871 -0.3045 -0.8927
 3063TIP3   OH230747   3.371   0.438   5.895 -0.2691  0.5301 -0.3527
 3063TIP3    H130748   3.301   0.375   5.878  0.0553  0.4022 -1.2458
 3063TIP3    H230749   3.359   0.507   5.830  1.5168 -0.4048 -1.7547
 3064TIP3   OH230750   0.618   2.652  26.569  0.5187  0.5764 -0.4313
 3064TIP3    H130751   0.561   2.719  26.532  2.0611  1.3369 -1.5458
 3064TIP3    H230752   0.570   2.619  26.645 -2.0305  0.1207 -2.1321
 3065TIP3   OH230753   1.019   1.357  31.876 -0.1988 -0.1163 -0.4835
 3065TIP3    H130754   0.963   1.282  31.894 -0.6730  0.4361  0.4017
 3065TIP3    H230755   0.961   1.421  31.834  0.0265  0.0349 -0.5681
 3066TIP3   OH230756   2.320   1.498  31.420 -0.3522  0.0264 -0.0358
 3066TIP3    H130757   2.300   1.442  31.495 -0.8685  2.1619  1.5137
 3066TIP3    H230758   2.416   1.508  31.422 -0.1234 -1.7029 -1.0496
 3067TIP3   OH230759   3.327   2.772  30.676  0.6333 -0.3113 -0.1785
 3067TIP3    H130760   3.385   2.762  30.752 -1.0948 -2.8870  0.9486
 3067TIP3    H230761   3.279   2.689  30.672 -1.5402  0.9399 -2.2485
 3068TIP3   OH230762   3.264   1.930   6.237 -0.1047 -0.1955 -0.7055
 3068TIP3    H130763   3.202   2.003   6.240 -1.2407 -1.1388  1.9359
 3068TIP3    H230764   3.209   1.853   6.223  0.4596 -1.0025  1.2372
 3069TIP3   OH230765   2.405   2.095  32.692 -0.1331 -0.0997 -0.4121
 3069TIP3    H130766   2.346   2.109  32.766 -0.0910  1.5404 -0.6669
 3069TIP3    H230767   2.355   2.125  32.616  0.8729  0.9534 -0.6817
 3070TIP3   OH230768   0.518   0.232   4.307 -0.7513  0.6396  0.5107
 3070TIP3    H130769   0.548   0.156   4.257  0.3793 -0.0427  2.0982
 3070TIP3    H230770   0.502   0.300   4.242  1.5539  0.1031 -0.7203
 3071TIP3   OH230771   1.981   1.744   1.966 -0.1868  0.5205  0.2271
 3071TIP3    H130772   1.962   1.777   2.054 -3.2933  1.8824 -0.7944
 3071TIP3    H230773   1.967   1.820   1.909 -1.3852 -1.0406 -1.6816
 3072TIP3   OH230774   3.186   2.045   0.972  0.1805 -0.3154 -0.0644
 3072TIP3    H130775   3.167   2.014   0.884 -1.1976  0.0211  0.0970
 3072TIP3    H230776   3.279   2.025   0.985  0.0872 -1.5165 -1.1041
 3073TIP3   OH230777   0.853   0.912  26.010 -0.1614  0.8062 -0.3132
 3073TIP3    H130778   0.884   0.867  25.932  0.7915  0.4034  0.2808
 3073TIP3    H230779   0.793   0.979  25.977 -1.1411 -0.4747 -1.2732
 3074TIP3   OH230780   1.708   2.483  27.313  0.2142 -0.1105  0.2811
 3074TIP3    H130781   1.756   2.403  27.337  0.2064 -0.3241 -0.4033
 3074TIP3    H230782   1.701   2.532  27.395  1.1001 -0.3396  0.5053
 3075TIP3   OH230783   2.539   2.323   1.033 -0.1935 -0.4348 -0.7311
 3075TIP3    H130784   2.537   2.401   0.978 -1.4955 -0.4368 -0.7029
 3075TIP3    H230785   2.455   2.324   1.080  0.6602 -0.6858  0.8940
 3076TIP3   OH230786   0.461   3.378  32.882 -0.1024  0.1511 -0.6884
 3076TIP3    H130787   0.397   3.435  32.925  1.2924  2.0698 -1.0254
 3076TIP3    H230788   0.466   3.409  32.792  1.0878 -0.1351 -0.7510
 3077TIP3   OH230789   0.855   2.458  26.799 -0.2176  0.4942 -0.0879
 3077TIP3    H130790   0.801   2.448  26.878 -0.5974 -0.9679 -0.5058
 3077TIP3    H230791   0.922   2.391  26.807  0.5013  1.1535 -0.4303
 3078TIP3   OH230792   1.641   0.255   3.165  0.0009 -0.2144 -0.1619
 3078TIP3    H130793   1.598   0.232   3.083  0.4359 -1.7189  0.0005
 3078TIP3    H230794   1.675   0.343   3.151  0.4051 -0.5979 -1.7428
 3079TIP3   OH230795   1.646   2.802  32.715  0.1134 -0.5368  0.1683
 3079TIP3    H130796   1.582   2.735  32.739  0.1568 -0.3552  0.8105
 3079TIP3    H230797   1.599   2.885  32.725  0.7931 -0.3235  1.8600
 3080TIP3   OH230798   1.929   1.303   5.209  0.0208 -0.4441  0.0244
 3080TIP3    H130799   1.983   1.382   5.211 -1.7419  0.8047  1.1103
 3080TIP3    H230800   1.972   1.243   5.270  1.1475 -0.1664 -0.4813
 3081TIP3   OH230801   0.250   2.980   6.352 -0.1777 -0.0167 -0.1900
 3081TIP3    H130802   0.343   2.959   6.341 -0.2316 -0.9138  0.9281
 3081TIP3    H230803   0.204   2.901   6.323 -0.5076 -0.3157  1.1068
 3082TIP3   OH230804   1.628   1.908  18.150 -0.1785  0.1489 -0.1482
 3082TIP3    H130805   1.578   1.894  18.070  2.0893  1.2334 -1.8905
 3082TIP3    H230806   1.707   1.854  18.138  0.4755  0.7919  1.0723
 3083TIP3   OH230807   1.316   3.143  28.714  0.0013 -0.1126  0.7813
 3083TIP3    H130808   1.310   3.053  28.745  0.0283 -0.6856 -0.7897
 3083TIP3    H230809   1.279   3.141  28.625  0.5095  1.3056  0.4984
 3084TIP3   OH230810   1.382   2.738   0.908  0.5434  0.5024 -0.2939
 3084TIP3    H130811   1.376   2.668   0.843  0.0969 -0.1206  0.4139
 3084TIP3    H230812   1.471   2.772   0.898 -0.1062  1.8045 -2.6350
 3085TIP3   OH230813   1.060   1.678   1.189  0.5155 -0.4490 -0.4799
 3085TIP3    H130814   0.965   1.677   1.177  0.1639  0.7747  1.6638
 3085TIP3    H230815   1.088   1.762   1.153  0.3404  0.4469  1.3830
 3086TIP3   OH230816   1.502   2.000   2.365 -0.0410  0.2950 -0.3853
 3086TIP3    H130817   1.579   2.036   2.408  0.1627 -0.9222  0.3165
 3086TIP3    H230818   1.478   2.065   2.299  0.1732  1.8097  0.9583
 3087TIP3   OH230819   1.095   1.384  31.356 -0.2059  1.1356 -0.2545
 3087TIP3    H130820   1.008   1.414  31.383 -1.1785 -0.5445 -1.3581
 3087TIP3    H230821   1.078   1.312  31.295  1.9560 -1.0167  1.4698
 3088TIP3   OH230822   0.300   2.003  28.046 -0.1951  0.3620  0.7419
 3088TIP3    H130823   0.337   1.926  28.003  0.3974  2.0568 -2.0383
 3088TIP3    H230824   0.343   2.005  28.132 -1.0633 -2.9209  1.3843
 3089TIP3   OH230825   2.077   1.434  21.066 -0.3248  0.3205 -0.2010
 3089TIP3    H130826   2.007   1.370  21.080  1.3515 -1.5861 -0.0518
 3089TIP3    H230827   2.125   1.399  20.990  1.4966  0.5787  0.7891
 3090TIP3   OH230828   1.580   1.094  27.639  0.4366 -0.4352 -0.1179
 3090TIP3    H130829   1.603   1.088  27.732  1.0637 -0.9283 -0.2947
 3090TIP3    H230830   1.537   1.012  27.619  0.5359 -0.4389 -0.3219
 3091TIP3   OH230831   2.498   1.404   2.696  0.0441 -0.3258  0.2466
 3091TIP3    H130832   2.472   1.392   2.605 -1.0795 -1.4620  0.6759
 3091TIP3    H230833   2.451   1.483   2.724  0.5781  0.1596 -0.2147
 3092TIP3   OH230834   1.220   0.398   0.511  0.0490 -0.1762  0.1013
 3092TIP3    H130835   1.138   0.442   0.535  0.6030  0.8697  0.1630
 3092TIP3    H230836   1.289   0.460   0.537  0.7639  0.2119 -2.4599
 3093TIP3   OH230837   3.279   1.580   2.077 -0.6411  0.3485  0.0048
 3093TIP3    H130838   3.332   1.629   2.015 -1.7989  0.2941 -1.0861
 3093TIP3    H230839   3.207   1.545   2.024 -0.9511 -0.8134  1.1406
 3094TIP3   OH230840   2.861   0.900   5.810 -0.3079 -0.4361  0.1665
 3094TIP3    H130841   2.857   0.872   5.719  0.9417 -0.5442  0.1197
 3094TIP3    H230842   2.893   0.823   5.858  0.5517  0.0666  0.4384
 3095TIP3   OH230843   1.007   0.094   5.884 -0.2337 -0.0577 -0.8886
 3095TIP3    H130844   1.005   0.098   5.980  1.0799 -0.4234 -0.8286
 3095TIP3    H230845   0.962   0.174   5.857 -0.8294 -0.0620  0.0248
 3096TIP3   OH230846   1.120   2.259   0.890 -0.4386  0.2171  0.0600
 3096TIP3    H130847   1.062   2.266   0.966  0.6561 -0.6549  1.0217
 3096TIP3    H230848   1.086   2.323   0.828 -2.1815  0.0230  0.7376
 3097TIP3   OH230849   0.660   1.548  32.245  0.1303  0.3204 -0.1773
 3097TIP3    H130850   0.728   1.481  32.248  0.2961  0.4907 -0.1695
 3097TIP3    H230851   0.604   1.522  32.172 -0.4749 -0.4777  0.5481
 3098TIP3   OH230852   2.511   0.483  28.295 -0.5547 -0.3536 -0.4255
 3098TIP3    H130853   2.446   0.474  28.364  1.8771 -3.5883  1.7409
 3098TIP3    H230854   2.462   0.465  28.214 -3.0343  1.3015  0.5922
 3099TIP3   OH230855   1.597   0.481  30.763  0.2809  0.1058  0.1188
 3099TIP3    H130856   1.612   0.387  30.748 -2.5520 -0.4351  0.1154
 3099TIP3    H230857   1.587   0.518  30.675  0.0095  0.1506  0.1701
 3100TIP3   OH230858   2.559   2.879   2.037 -0.0413 -0.3471 -0.4213
 3100TIP3    H130859   2.598   2.839   1.959  2.4514  0.5771  0.2502
 3100TIP3    H230860   2.474   2.836   2.047  0.9526 -2.8001 -1.8080
 3101TIP3   OH230861   1.314   3.316   3.648 -0.2773 -0.6472  0.0683
 3101TIP3    H130862   1.392   3.266   3.627  0.0259 -0.2305  0.1712
 3101TIP3    H230863   1.295   3.366   3.568  0.9089  0.9800  0.7307
 3102TIP3   OH230864   0.775   2.637   3.534  0.4181  0.3684  0.3108
 3102TIP3    H130865   0.696   2.603   3.491  0.3972  0.2824  0.4171
 3102TIP3    H230866   0.778   2.592   3.618  1.6906 -1.1830 -0.4970
 3103TIP3   OH230867   0.674   1.452  21.341  0.1215 -0.9692 -0.4254
 3103TIP3    H130868   0.745   1.509  21.312 -0.3473 -0.0318  0.2215
 3103TIP3    H230869   0.612   1.453  21.269 -0.0584 -0.3447 -0.2700
 3104TIP3   OH230870   0.038   0.163  32.851 -0.0870 -0.0485  0.1463
 3104TIP3    H130871   0.073   0.229  32.911  2.2560 -0.0130 -1.1692
 3104TIP3    H230872   0.002   0.214  32.778  0.3874 -0.1671 -0.1767
 3105TIP3   OH230873   2.765   3.172  30.822 -0.2503 -0.3900  0.3721
 3105TIP3    H130874   2.794   3.163  30.731  0.9340  0.0612  0.6887
 3105TIP3    H230875   2.836   3.219  30.865 -1.2562  0.3414  1.3016
 3106TIP3   OH230876   0.012   0.426   0.060 -0.6709  0.1272  1.0817
 3106TIP3    H130877   0.046   0.512   0.037  0.9394 -0.6971  0.1648
 3106TIP3    H230878  -0.056   0.443   0.124 -1.8330  2.2229 -0.5957
 3107TIP3   OH230879   2.055   3.109  32.458 -0.3743 -0.7418  0.2088
 3107TIP3    H130880   2.118   3.064  32.402  0.1369 -1.6080  1.4439
 3107TIP3    H230881   2.107   3.143  32.531 -0.5997  2.5382 -1.0059
 3108TIP3   OH230882   2.127   0.176  32.688  0.1805 -0.0373  0.3367
 3108TIP3    H130883   2.096   0.138  32.770 -2.7624  0.2763 -0.5311
 3108TIP3    H230884   2.099   0.268  32.692 -0.7326 -0.2166 -1.3170
 3109TIP3   OH230885   1.815   2.122  27.044 -0.2597  0.2689  0.1528
 3109TIP3    H130886   1.796   2.215  27.027 -2.1565 -0.4446 -2.3093
 3109TIP3    H230887   1.863   2.094  26.966 -0.9268 -1.0902  0.2112
 3110TIP3   OH230888   3.396   3.143   2.265 -0.6638  0.2972 -0.0470
 3110TIP3    H130889   3.364   3.232   2.270 -0.9559  0.1683  0.4003
 3110TIP3    H230890   3.460   3.136   2.336 -0.4426  0.2273 -0.2487
 3111TIP3   OH230891   2.127   1.899   3.228  0.2714 -0.4050  0.1801
 3111TIP3    H130892   2.046   1.946   3.212  0.5979  0.3124  0.5586
 3111TIP3    H230893   2.140   1.844   3.151  0.7265  1.3560 -1.0590
 3112TIP3   OH230894   2.882   2.152  32.289  0.7584 -0.0363  0.2486
 3112TIP3    H130895   2.969   2.171  32.324  2.0990 -1.5544 -1.9988
 3112TIP3    H230896   2.877   2.056  32.290 -1.2595  0.0279  1.0643
 3113TIP3   OH230897   0.501   1.969   1.228 -0.1608 -0.2713 -0.0663
 3113TIP3    H130898   0.484   1.903   1.295 -0.0544  2.2055  2.5888
 3113TIP3    H230899   0.416   2.009   1.211 -0.1032 -0.5591 -1.1177
 3114TIP3   OH230900   3.504   3.474   7.214  0.5858  0.0507 -0.0687
 3114TIP3    H130901   3.460   3.421   7.281 -1.2599  0.9408 -0.5054
 3114TIP3    H230902   3.496   3.423   7.134 -0.5295  0.5964 -0.3337
 3115TIP3   OH230903   2.437   3.212  27.324 -0.1302 -0.2180  0.0440
 3115TIP3    H130904   2.346   3.241  27.327 -0.3986 -1.0531  2.5421
 3115TIP3    H230905   2.446   3.171  27.238 -1.9855  0.2415 -0.4179
 3116TIP3   OH230906   1.957   0.298   0.241 -0.0563  0.5493  0.0324
 3116TIP3    H130907   1.894   0.348   0.190  0.9863  0.7632 -1.1017
 3116TIP3    H230908   1.927   0.207   0.236 -0.7055  0.7568  0.1819
 3117TIP3   OH230909   0.302   2.798  26.487  0.2542  0.2638 -0.1094
 3117TIP3    H130910   0.387   2.842  26.498  1.3972 -2.0210  0.7245
 3117TIP3    H230911   0.319   2.706  26.506 -2.3653 -0.3427 -0.2720
 3118TIP3   OH230912   2.414   0.312   0.932  0.0450 -0.6065  0.8565
 3118TIP3    H130913   2.345   0.378   0.934  0.0735 -0.5449  0.0003
 3118TIP3    H230914   2.400   0.265   0.850  1.3280 -0.2493  0.4080
 3119TIP3   OH230915   1.251   3.533  13.474 -0.1074  0.9538 -0.3276
 3119TIP3    H130916   1.158   3.517  13.464  0.2204 -2.0703  0.4931
 3119TIP3    H230917   1.258   3.586  13.554 -1.0433 -2.4360  2.2244
 3120TIP3   OH230918   3.470   0.543  31.897 -0.7048  0.1567  0.3482
 3120TIP3    H130919   3.498   0.613  31.956  1.5925  0.7775 -1.3225
 3120TIP3    H230920   3.489   0.462  31.944 -0.4919  0.6546  1.1255
 3121TIP3   OH230921   1.417   2.767   5.125 -0.1220  0.0757 -0.2933
 3121TIP3    H130922   1.342   2.824   5.143 -0.2071  0.2792 -1.2504
 3121TIP3    H230923   1.478   2.785   5.196  0.0442  1.7077 -0.7952
 3122TIP3   OH230924   1.308   2.675   1.199 -0.2561  0.2437 -0.2686
 3122TIP3    H130925   1.241   2.679   1.131 -0.0096  0.2558 -0.5137
 3122TIP3    H230926   1.368   2.746   1.178 -1.6112  2.0144  1.5284
 3123TIP3   OH230927   0.963   1.099   2.486 -0.2134 -0.1250  0.2535
 3123TIP3    H130928   0.973   1.005   2.471  2.3633  0.4248 -2.1576
 3123TIP3    H230929   1.004   1.114   2.571 -0.3355 -1.1046  0.4958
 3124TIP3   OH230930   0.369   0.762   3.772 -0.3014  0.4047  0.2915
 3124TIP3    H130931   0.418   0.803   3.700  0.1953 -0.0443  0.3659
 3124TIP3    H230932   0.416   0.681   3.790 -2.0900 -0.9414 -0.8171
 3125TIP3   OH230933   1.172   2.133  20.347 -0.1289  0.1967 -0.3885
 3125TIP3    H130934   1.214   2.195  20.288 -0.4890 -0.9870 -1.9623
 3125TIP3    H230935   1.226   2.133  20.426 -0.2862  2.6826 -0.2217
 3126TIP3   OH230936   3.516   1.669  31.920 -0.0741 -0.9884  0.0284
 3126TIP3    H130937   3.454   1.597  31.931 -0.3079 -0.7055  0.6228
 3126TIP3    H230938   3.597   1.627  31.891 -0.7930 -1.2733 -1.6709
 3127TIP3   OH230939   1.697   1.110   1.420  0.3181  0.1831  0.3904
 3127TIP3    H130940   1.623   1.095   1.361  0.5638  0.9829 -0.1381
 3127TIP3    H230941   1.698   1.205   1.433  0.1370 -0.0025  1.8730
 3128TIP3   OH230942   0.468   3.337  27.758  0.0344  0.0253 -0.7412
 3128TIP3    H130943   0.485   3.243  27.746  0.2173 -0.4554  2.3664
 3128TIP3    H230944   0.373   3.344  27.757 -0.0088 -0.3708 -0.1321
 3129TIP3   OH230945   2.407   2.793  29.283 -0.2003 -0.1896  0.4538
 3129TIP3    H130946   2.418   2.786  29.188  1.3323  0.4824  0.5593
 3129TIP3    H230947   2.462   2.724  29.320 -0.9929 -0.6218  0.8752
 3130TIP3   OH230948   1.476   1.018   5.207 -0.6178  0.3191  0.8451
 3130TIP3    H130949   1.488   0.947   5.270 -0.6455 -0.7891 -0.3371
 3130TIP3    H230950   1.485   1.098   5.258  0.1086 -0.5264  2.1017
 3131TIP3   OH230951   1.180   0.509   3.694 -0.0506 -0.3990  0.1395
 3131TIP3    H130952   1.233   0.555   3.758 -0.1930 -1.5102  1.0860
 3131TIP3    H230953   1.092   0.508   3.732 -0.2619 -0.5516 -0.3435
 3132TIP3   OH230954   0.107   1.629  27.261 -0.1751 -0.0189 -0.4502
 3132TIP3    H130955   0.061   1.572  27.200  0.0176 -0.1333 -0.4872
 3132TIP3    H230956   0.063   1.714  27.252 -0.9582 -0.3390  0.1413
 3133TIP3   OH230957   2.965   0.091   6.181 -0.9115  0.4188  0.0081
 3133TIP3    H130958   3.028   0.026   6.147 -0.6133  0.0072  1.2893
 3133TIP3    H230959   2.943   0.145   6.105 -0.5200 -0.6622 -0.9074
 3134TIP3   OH230960   1.507   0.981   5.702  0.5231 -0.0624  0.0414
 3134TIP3    H130961   1.536   1.006   5.790  1.3009  1.0453 -0.5074
 3134TIP3    H230962   1.423   0.938   5.716  0.8394 -0.3058  1.3649
 3135TIP3   OH230963   2.218   2.857   1.869 -0.4068 -0.0853 -0.1709
 3135TIP3    H130964   2.207   2.951   1.858 -2.5314 -0.2647 -0.0315
 3135TIP3    H230965   2.263   2.848   1.953 -0.2152  0.8087 -0.1697
 3136TIP3   OH230966   3.498   1.712  21.767  0.1782 -0.2815 -0.0151
 3136TIP3    H130967   3.415   1.701  21.720  0.1500 -0.2100  0.0192
 3136TIP3    H230968   3.473   1.719  21.859  0.4404 -4.5971  0.5963
 3137TIP3   OH230969   2.106   1.345  31.270 -0.0111 -0.3325  0.2804
 3137TIP3    H130970   2.026   1.393  31.290 -0.4324 -0.0980 -1.7129
 3137TIP3    H230971   2.167   1.370  31.339 -1.3025  0.3675  1.2082
 3138TIP3   OH230972   2.963   3.369  27.087 -0.1485  0.1956  0.2378
 3138TIP3    H130973   2.963   3.276  27.063  0.2299  0.4242 -0.7047
 3138TIP3    H230974   2.871   3.389  27.105 -0.4917  0.0288 -1.1985
 3139TIP3   OH230975   2.004   3.521   4.982  0.5037  0.3563 -0.4763
 3139TIP3    H130976   1.945   3.446   4.976 -1.4901  1.8273 -0.3404
 3139TIP3    H230977   2.041   3.530   4.893  1.9064 -1.5805 -0.1482
 3140TIP3   OH230978   0.330   1.725  31.272 -0.6226 -0.0897 -0.4388
 3140TIP3    H130979   0.395   1.711  31.341 -0.2163 -1.4866 -1.0554
 3140TIP3    H230980   0.263   1.778  31.313 -1.1762 -2.1648  1.5795
 3141TIP3   OH230981   0.461   0.268  27.851  0.1101 -0.2236  0.4438
 3141TIP3    H130982   0.507   0.185  27.866  1.5154  0.5020  0.2393
 3141TIP3    H230983   0.369   0.242  27.840  0.3758 -1.6465  1.3555
 3142TIP3   OH230984   0.874   1.088   7.205  0.2486  0.0173  0.0885
 3142TIP3    H130985   0.799   1.052   7.251 -1.4609  0.2352 -2.3397
 3142TIP3    H230986   0.862   1.183   7.209  0.4758  0.0607 -0.1783
 3143TIP3   OH230987   2.640   0.238   3.417 -0.3975  0.7307 -0.0226
 3143TIP3    H130988   2.558   0.201   3.450 -0.3475 -1.1133 -1.7583
 3143TIP3    H230989   2.615   0.292   3.343 -0.1773  1.6143  0.5358
 3144TIP3   OH230990   1.185   3.119  26.151 -0.0683 -0.2002 -0.4523
 3144TIP3    H130991   1.146   3.051  26.096 -0.4418 -0.8604  0.5864
 3144TIP3    H230992   1.110   3.167  26.187  0.1621  0.1019 -0.3722
 3145TIP3   OH230993   2.559   2.272   6.491 -0.0983 -0.5984  0.7967
 3145TIP3    H130994   2.478   2.321   6.506  0.6271  0.5194  1.2100
 3145TIP3    H230995   2.577   2.229   6.575  0.2991  0.0617  1.0682
 3146TIP3   OH230996   2.578   3.252   1.159 -0.4123  0.2067 -0.2140
 3146TIP3    H130997   2.634   3.175   1.170  0.6604  0.5224 -2.9240
 3146TIP3    H230998   2.512   3.224   1.096 -2.1071  0.5185  1.3372
 3147TIP3   OH230999   2.764   1.575  29.134 -0.2475 -0.4439  0.6021
 3147TIP3    H131000   2.698   1.599  29.070  1.2893 -0.1960 -0.9460
 3147TIP3    H231001   2.837   1.636  29.118  0.6292 -1.1245  1.8111
 3148TIP3   OH231002   2.484   1.041  32.030  0.3122 -0.3414 -0.2191
 3148TIP3    H131003   2.404   1.060  31.981 -0.2465  0.7692  1.0980
 3148TIP3    H231004   2.456   1.033  32.121  1.3724 -2.1781  0.0031
 3149TIP3   OH231005   1.441   1.585  21.887 -0.2567 -0.6696 -0.3762
 3149TIP3    H131006   1.491   1.509  21.858  2.6192  1.0196 -0.3072
 3149TIP3    H231007   1.500   1.659  21.871 -3.1073  1.6469 -1.0083
 3150TIP3   OH231008   2.836   1.901  26.476 -0.1747  0.1184 -0.2618
 3150TIP3    H131009   2.823   1.936  26.388 -0.3578  0.8479  0.0489
 3150TIP3    H231010   2.903   1.833  26.466 -0.5168 -0.1132 -1.0340
 3151TIP3   OH231011   2.228   0.231   6.175 -0.7205 -0.1891  0.0619
 3151TIP3    H131012   2.141   0.262   6.154 -1.8848 -2.1204  1.6170
 3151TIP3    H231013   2.236   0.148   6.128  1.1987  0.9290 -1.7857
 3152TIP3   OH231014   0.491   0.141   0.719  0.5481 -0.1589 -0.2596
 3152TIP3    H131015   0.428   0.097   0.776  0.3865  0.6944  0.2287
 3152TIP3    H231016   0.441   0.163   0.641  0.8602 -1.6610 -0.9151
 3153TIP3   OH231017   2.161   1.357  20.660 -0.8252 -0.7144  0.2980
 3153TIP3    H131018   2.225   1.305  20.612 -1.7335 -1.5018 -0.0780
 3153TIP3    H231019   2.213   1.403  20.727  0.4523  0.2838 -1.2985
 3154TIP3   OH231020   3.350   1.487  29.455 -0.2440  0.2934  0.3887
 3154TIP3    H131021   3.330   1.429  29.528  0.1893  0.2438  0.4676
 3154TIP3    H231022   3.357   1.574  29.494 -1.3404  0.4872  0.2091
 3155TIP3   OH231023   0.029   2.343  28.165  0.0908  0.2359 -0.1088
 3155TIP3    H131024  -0.064   2.355  28.180  0.4414  2.9452  0.2776
 3155TIP3    H231025   0.038   2.344  28.069 -0.2854 -0.5301 -0.1666
 3156TIP3   OH231026   2.087   2.698   2.527 -0.2712  0.2049  0.5742
 3156TIP3    H131027   2.079   2.776   2.581 -0.8939 -0.8805  2.1185
 3156TIP3    H231028   2.025   2.712   2.455  1.2146  2.0534 -0.4338
 3157TIP3   OH231029   0.610   0.210   1.628  0.5275  0.4187  0.1887
 3157TIP3    H131030   0.703   0.215   1.609  0.6113  1.9954  0.8079
 3157TIP3    H231031   0.582   0.302   1.635 -1.4006  0.0437 -1.4756
 3158TIP3   OH231032   2.727   3.444  32.466 -0.6720 -0.7330  0.3966
 3158TIP3    H131033   2.693   3.474  32.550 -0.3067  0.9107 -0.0030
 3158TIP3    H231034   2.737   3.349  32.476 -2.6777 -0.8863  1.4545
 3159TIP3   OH231035   1.747   0.667   2.280 -0.3226  0.0124  0.5633
 3159TIP3    H131036   1.780   0.714   2.356 -0.1611  1.6289 -0.4410
 3159TIP3    H231037   1.652   0.676   2.285 -0.2461  2.2528 -0.6229
 3160TIP3   OH231038   0.274   1.509   2.414 -0.3935 -0.4920 -0.1039
 3160TIP3    H131039   0.266   1.598   2.380  1.3507 -0.6805 -1.0935
 3160TIP3    H231040   0.309   1.520   2.502  1.1248 -0.2161 -0.7164
 3161TIP3   OH231041   1.199   3.433   3.426 -0.0615  0.3006 -0.5123
 3161TIP3    H131042   1.135   3.385   3.374  0.4880  0.4522 -1.3418
 3161TIP3    H231043   1.267   3.459   3.364  1.4588 -0.9274  0.5650
 3162TIP3   OH231044   2.894   2.214  28.038 -0.1598 -0.1952  1.0498
 3162TIP3    H131045   2.889   2.293  27.985 -1.5151 -1.9028 -1.5398
 3162TIP3    H231046   2.805   2.200  28.070  0.2145 -0.3335  2.1021
 3163TIP3   OH231047   1.542   3.170   2.253 -0.0488  0.1966  0.0258
 3163TIP3    H131048   1.595   3.147   2.330 -1.3352  1.1451  1.2504
 3163TIP3    H231049   1.588   3.244   2.213  1.1962 -0.9716 -0.7681
 3164TIP3   OH231050   2.243   2.596  32.787  0.4495 -0.3246 -0.1374
 3164TIP3    H131051   2.277   2.532  32.725  0.9165  0.2115 -0.4510
 3164TIP3    H231052   2.195   2.659  32.733  0.1514 -0.3109  0.1439
 3165TIP3   OH231053   2.137   0.837  28.287  0.2481 -0.5618 -0.2785
 3165TIP3    H131054   2.112   0.754  28.246  1.7126 -1.1735  0.0069
 3165TIP3    H231055   2.221   0.819  28.330  0.5037  1.0118 -0.0400
 3166TIP3   OH231056   0.780   2.202  26.448  0.0336  0.4244 -1.5592
 3166TIP3    H131057   0.867   2.185  26.411  2.5013 -0.8488  3.8198
 3166TIP3    H231058   0.779   2.297  26.464  0.8150  0.3553 -1.0141
 3167TIP3   OH231059   1.890   1.919   6.827  0.2495  0.1212  0.1797
 3167TIP3    H131060   1.818   1.880   6.778  0.5676  1.3349 -1.3506
 3167TIP3    H231061   1.860   2.008   6.845  0.2737 -0.2035  1.9802
 3168TIP3   OH231062   1.104   0.922   5.027 -0.3398  0.2938 -0.4343
 3168TIP3    H131063   1.064   1.001   4.991  0.0117  1.0302  0.7415
 3168TIP3    H231064   1.110   0.938   5.121  0.9299 -0.5987 -0.3287
 3169TIP3   OH231065   0.151   2.291  28.979 -0.0948  0.0113  0.3146
 3169TIP3    H131066   0.201   2.266  28.901 -0.0388  0.5981  0.1634
 3169TIP3    H231067   0.179   2.227  29.045 -1.0005 -1.2146 -0.4417
 3170TIP3   OH231068   0.492   2.569   6.111  0.0168 -0.3492 -0.2102
 3170TIP3    H131069   0.477   2.478   6.085 -1.5155  0.2713 -1.6509
 3170TIP3    H231070   0.468   2.572   6.204 -1.7865 -1.0268 -0.6175
 3171TIP3   OH231071   1.124   0.390   5.629  0.0169  0.1021  0.0755
 3171TIP3    H131072   1.119   0.365   5.721  1.2162  1.7141  0.6148
 3171TIP3    H231073   1.034   0.386   5.598 -0.3458 -0.8715  1.1886
 3172TIP3   OH231074   0.331   1.128   3.775  0.0905 -0.1101 -0.0907
 3172TIP3    H131075   0.327   1.062   3.844  1.3349 -0.0345  0.0825
 3172TIP3    H231076   0.288   1.205   3.813 -0.5481 -0.5265  0.0426
 3173TIP3   OH231077   0.900   3.469  27.551 -0.1013 -0.5713  0.7951
 3173TIP3    H131078   0.821   3.522  27.557 -1.0677 -1.7782 -0.6266
 3173TIP3    H231079   0.869   3.379  27.547  1.4305 -1.1796  1.5895
 3174TIP3   OH231080   0.920   1.499   6.021 -0.1106 -0.2888  0.1228
 3174TIP3    H131081   0.981   1.497   5.948  0.9345  1.1253  0.9009
 3174TIP3    H231082   0.961   1.446   6.089  1.6109  2.6119  1.5554
 3175TIP3   OH231083   2.437   1.971   4.374  0.4420  0.3057 -0.1504
 3175TIP3    H131084   2.346   1.950   4.353  0.8107 -0.1722 -1.3448
 3175TIP3    H231085   2.441   2.067   4.368  0.2870  0.2576 -1.3002
 3176TIP3   OH231086   0.580   0.865  26.954  0.1194  0.1581 -0.0492
 3176TIP3    H131087   0.548   0.948  26.920  0.2923 -0.0973 -0.8645
 3176TIP3    H231088   0.630   0.888  27.032 -1.5987  0.6072  0.9456
 3177TIP3   OH231089   3.265   3.448  31.259  0.0227 -0.2150 -0.0872
 3177TIP3    H131090   3.264   3.421  31.351 -0.1520  0.6089  0.1583
 3177TIP3    H231091   3.258   3.543  31.261 -0.7720 -0.2280 -0.9672
 3178TIP3   OH231092   1.783   1.095  30.930  0.3062  0.1086  0.0074
 3178TIP3    H131093   1.823   1.091  31.017 -2.0168  0.2202  1.1460
 3178TIP3    H231094   1.746   1.008  30.917  1.3876 -0.1969 -1.3100
 3179TIP3   OH231095   0.215   2.461  30.135 -0.4169 -0.4265  0.2684
 3179TIP3    H131096   0.161   2.432  30.061 -0.5958 -0.1275  0.2772
 3179TIP3    H231097   0.296   2.412  30.126 -1.1505 -1.8170  0.9609
 3180TIP3   OH231098   1.046   1.011   0.894 -0.5136  0.3226 -0.1117
 3180TIP3    H131099   1.034   0.918   0.875  1.0674  0.1519 -0.4200
 3180TIP3    H231100   1.105   1.042   0.825  0.3663  1.1453  0.9771
 3181TIP3   OH231101   1.664   1.394   5.094 -0.4403  0.0762 -0.1708
 3181TIP3    H131102   1.588   1.342   5.120 -0.3490  0.0701  0.0936
 3181TIP3    H231103   1.739   1.341   5.124 -0.2952 -0.4629 -1.4217
 3182TIP3   OH231104   0.887   0.063  31.324 -0.5175  0.3432  0.2751
 3182TIP3    H131105   0.882   0.052  31.419 -0.3907  0.8312  0.3449
 3182TIP3    H231106   0.936   0.144  31.312 -1.7624  1.0684 -0.1716
 3183TIP3   OH231107   0.858   2.262   1.956  0.0323 -0.0004 -0.3906
 3183TIP3    H131108   0.812   2.211   2.023 -1.4673  2.5417  0.6847
 3183TIP3    H231109   0.950   2.235   1.964 -0.3170 -0.7769  1.7547
 3184TIP3   OH231110   2.902   2.345  27.770  0.1902 -0.4792  0.1608
 3184TIP3    H131111   2.813   2.379  27.780 -0.2101 -1.9788  2.6268
 3184TIP3    H231112   2.957   2.423  27.760 -1.1178  0.6819  1.5549
 3185TIP3   OH231113   2.865   1.837  22.651  0.0212 -0.5384  0.2793
 3185TIP3    H131114   2.939   1.789  22.688 -0.2140 -0.6992  0.5480
 3185TIP3    H231115   2.798   1.835  22.720  0.0246  0.2214  0.3163
 3186TIP3   OH231116   1.692   3.463   0.678 -0.5469 -0.0996 -0.0124
 3186TIP3    H131117   1.671   3.501   0.593  0.8614 -0.5136 -0.5786
 3186TIP3    H231118   1.765   3.404   0.660 -0.4584 -0.4598  1.4280
 3187TIP3   OH231119   1.665   3.151  10.670 -0.3651 -0.2179 -0.2858
 3187TIP3    H131120   1.571   3.161  10.687 -0.2393 -1.4358  1.3696
 3187TIP3    H231121   1.705   3.225  10.714 -0.4053 -0.8924  0.9221
 3188TIP3   OH231122   0.857   0.511   3.364 -0.2467 -0.0594 -0.0589
 3188TIP3    H131123   0.826   0.557   3.286  0.1988 -0.2126 -0.3333
 3188TIP3    H231124   0.948   0.539   3.374 -0.0519 -0.6726 -0.0760
 3189TIP3   OH231125   1.908   1.137   2.390  0.3010 -0.4494 -0.1718
 3189TIP3    H131126   1.933   1.148   2.298  1.1928  1.2868  0.2288
 3189TIP3    H231127   1.969   1.193   2.438 -1.4253  0.2882  1.2867
 3190TIP3   OH231128   2.632   3.489   2.411  0.1983 -0.3484  0.2446
 3190TIP3    H131129   2.712   3.512   2.458  0.4287  0.4864 -0.5297
 3190TIP3    H231130   2.622   3.559   2.346 -1.3099 -0.2927  0.5158
 3191TIP3   OH231131   3.001   0.518  27.524  0.1469  0.0777  0.5547
 3191TIP3    H131132   3.070   0.544  27.584  0.3059 -1.6211  1.1533
 3191TIP3    H231133   3.041   0.524  27.437  0.6239  0.3621  0.7885
 3192TIP3   OH231134   0.868   3.531   2.703  0.5328 -0.4302  0.3354
 3192TIP3    H131135   0.919   3.462   2.746  1.2586 -0.6675 -0.8365
 3192TIP3    H231136   0.935   3.588   2.664 -0.0840  0.1187  0.0699
 3193TIP3   OH231137   1.286   2.684  23.514 -0.2832  0.0348  0.1681
 3193TIP3    H131138   1.342   2.613  23.546  0.0205  1.4216  2.9993
 3193TIP3    H231139   1.335   2.720  23.440  2.1602  0.5200  1.8742
 3194TIP3   OH231140   0.473   1.387  27.448 -0.0338  0.1909 -0.8227
 3194TIP3    H131141   0.467   1.457  27.513  2.3743  1.0432 -1.4201
 3194TIP3    H231142   0.540   1.327  27.482 -2.2097 -2.0647 -0.2005
 3195TIP3   OH231143   0.860   1.949  21.219 -0.2791 -0.5984 -0.4756
 3195TIP3    H131144   0.869   1.981  21.309 -3.4306 -1.2394  0.1915
 3195TIP3    H231145   0.867   2.028  21.165  2.1803 -0.2693  0.1783
 3196TIP3   OH231146   2.125   1.072   6.374 -0.3070 -0.5535  0.0067
 3196TIP3    H131147   2.197   1.093   6.313  1.9604 -0.3768  2.5590
 3196TIP3    H231148   2.068   1.149   6.370  0.5246  0.0475 -0.8959
 3197TIP3   OH231149   1.926   2.730  27.961  0.0893 -0.2720  0.1201
 3197TIP3    H131150   1.875   2.651  27.940  0.5062 -0.6834  0.6122
 3197TIP3    H231151   1.975   2.749  27.881 -1.0361  0.2983 -0.4613
 3198TIP3   OH231152   0.548   2.089  31.466  0.2919  0.3317 -0.2382
 3198TIP3    H131153   0.515   2.061  31.551 -0.3283  2.3336  0.2406
 3198TIP3    H231154   0.594   2.171  31.484  1.0573  0.2591 -1.6832
 3199TIP3   OH231155   2.120   1.558   3.352  0.1520  0.0008 -0.1505
 3199TIP3    H131156   2.138   1.491   3.417 -0.8416 -0.2643 -0.1428
 3199TIP3    H231157   2.039   1.531   3.310  1.5552 -0.7135 -2.6238
 3200TIP3   OH231158   3.184   3.367  27.296 -0.2242 -0.7458 -0.2257
 3200TIP3    H131159   3.183   3.420  27.375  1.9604 -0.8667 -0.0392
 3200TIP3    H231160   3.096   3.374  27.260 -0.4587  1.6660  0.6704
 3201TIP3   OH231161   0.458   1.177  32.118  0.1632 -0.0409  0.1482
 3201TIP3    H131162   0.415   1.130  32.046  0.5690 -1.3008  0.6998
 3201TIP3    H231163   0.388   1.194  32.181  0.2934 -1.4325  0.7083
 3202TIP3   OH231164   0.655   1.407   4.837  0.3349  0.7106  0.3294
 3202TIP3    H131165   0.665   1.318   4.871  0.9608  0.6743  0.0617
 3202TIP3    H231166   0.562   1.427   4.849 -0.1101 -0.5043 -0.9194
 3203TIP3   OH231167   1.226   1.981  20.708 -0.5647 -0.4775  0.1320
 3203TIP3    H131168   1.177   1.903  20.736 -1.2000 -0.0053  0.3705
 3203TIP3    H231169   1.158   2.045  20.687 -0.0527 -0.1524 -0.5479
 3204TIP3   OH231170   0.218   2.528   5.752  0.0343  0.2125 -0.7543
 3204TIP3    H131171   0.236   2.584   5.828  0.5338  0.9637 -1.4150
 3204TIP3    H231172   0.259   2.444   5.775 -1.2513 -0.1104  0.5071
 3205TIP3   OH231173   3.013   1.568  17.540 -0.2898 -0.0089 -0.9227
 3205TIP3    H131174   3.040   1.613  17.460 -1.5912  1.4754 -0.5861
 3205TIP3    H231175   2.925   1.535  17.521 -0.2943 -0.3387 -0.3659
 3206TIP3   OH231176   3.116   0.277   5.344  0.4171 -0.0494 -0.1179
 3206TIP3    H131177   3.171   0.353   5.325  0.1638  0.1768  0.0395
 3206TIP3    H231178   3.128   0.219   5.269  0.9287 -0.0384 -0.0461
 3207TIP3   OH231179   0.353   2.471  24.121  0.3629  0.8925  0.0200
 3207TIP3    H131180   0.273   2.524  24.112 -0.7410 -0.7252 -0.0629
 3207TIP3    H231181   0.424   2.532  24.103 -0.9884  1.6275 -3.4907
 3208TIP3   OH231182   3.201   2.266  19.890 -0.3601  0.4080 -0.5725
 3208TIP3    H131183   3.277   2.323  19.883 -1.9979  2.5284 -2.0834
 3208TIP3    H231184   3.226   2.187  19.841  0.1643  1.9250 -2.8884
 3209TIP3   OH231185   3.197   2.016  19.708  0.5569  0.1985 -0.0233
 3209TIP3    H131186   3.118   1.972  19.676 -0.0602  1.5033 -0.3544
 3209TIP3    H231187   3.219   2.080  19.640  1.2010  0.6763  0.6108
 3210TIP3   OH231188   2.640   2.200  21.819  0.3475  0.3403  0.2295
 3210TIP3    H131189   2.572   2.153  21.868  2.1064  0.1293  2.6139
 3210TIP3    H231190   2.680   2.134  21.763 -1.3762  0.4767 -1.2448
 3211TIP3   OH231191   3.330   1.155   1.211 -0.0096 -1.0017 -0.0529
 3211TIP3    H131192   3.261   1.104   1.169 -1.8328 -0.4922  2.1686
 3211TIP3    H231193   3.286   1.232   1.246  2.0188  0.2415 -0.0816
 3212TIP3   OH231194   1.434   2.153  30.333  0.4747  0.1641 -0.3595
 3212TIP3    H131195   1.430   2.071  30.284  1.8173  0.1708 -0.5056
 3212TIP3    H231196   1.429   2.221  30.265  0.8006  0.1898 -0.3571
 3213TIP3   OH231197   2.257   0.575   2.392  0.0453 -0.5734 -0.5749
 3213TIP3    H131198   2.319   0.582   2.319 -1.3944 -0.1019 -1.8050
 3213TIP3    H231199   2.181   0.532   2.354 -0.5500 -0.7930  0.8093
 3214TIP3   OH231200   1.540   3.536   5.342 -0.0811  0.2583 -0.0786
 3214TIP3    H131201   1.623   3.582   5.350  1.2020 -1.5871 -1.9536
 3214TIP3    H231202   1.487   3.592   5.285  0.7625  0.3334 -0.8038
 3215TIP3   OH231203   1.708   2.780  27.312 -0.0027 -0.0988 -0.4036
 3215TIP3    H131204   1.649   2.727  27.366  1.3011  1.1097  2.4013
 3215TIP3    H231205   1.786   2.792  27.366  1.3482  1.3919 -2.5210
 3216TIP3   OH231206   2.457   0.129  28.291 -0.7786  0.0904  0.4679
 3216TIP3    H131207   2.421   0.214  28.267 -1.4830 -0.5684 -0.9089
 3216TIP3    H231208   2.551   0.145  28.300 -0.5891  0.6464 -1.7920
 3217TIP3   OH231209   0.231   2.152  31.473  0.6969 -0.4862  0.1554
 3217TIP3    H131210   0.214   2.066  31.434  1.6826 -0.1077 -1.1508
 3217TIP3    H231211   0.249   2.209  31.399 -0.8003  1.0907  0.9268
 3218TIP3   OH231212   0.923   0.475  27.887  0.2288 -0.5940 -0.0142
 3218TIP3    H131213   0.845   0.479  27.832  0.3156 -0.6926 -0.1432
 3218TIP3    H231214   0.889   0.457  27.975 -0.0207  0.8340  0.2095
 3219TIP3   OH231215   2.301   2.553  27.404  0.2252 -0.5575  0.3016
 3219TIP3    H131216   2.277   2.645  27.413  1.5306 -0.1174 -0.3821
 3219TIP3    H231217   2.384   2.545  27.452  0.1488 -1.3646  0.3082
 3220TIP3   OH231218   1.939   2.801  30.599 -0.1316  0.0729  0.0191
 3220TIP3    H131219   1.866   2.744  30.575 -0.2287 -0.5178  1.6290
 3220TIP3    H231220   1.906   2.890  30.585 -0.5294 -0.2124 -0.9504
 3221TIP3   OH231221   2.591   1.798  29.958  0.3676 -0.3160  0.2062
 3221TIP3    H131222   2.622   1.769  29.872 -0.0691  1.5622 -0.6264
 3221TIP3    H231223   2.554   1.719  29.998  0.8471 -1.2864 -1.2000
 3222TIP3   OH231224   3.476   1.398  19.955 -0.4335  0.3465 -0.0843
 3222TIP3    H131225   3.403   1.445  19.915 -0.6525  1.2259  1.2689
 3222TIP3    H231226   3.498   1.329  19.892 -2.4911 -0.0129 -0.4758
 3223TIP3   OH231227   2.081   2.488  18.330 -0.0622  0.0507  0.4450
 3223TIP3    H131228   1.986   2.478  18.341 -0.0503 -0.6130 -0.0068
 3223TIP3    H231229   2.098   2.461  18.240  0.1036  3.5146 -0.6887
 3224TIP3   OH231230   1.524   1.350  29.396  0.3609 -0.3227 -0.1862
 3224TIP3    H131231   1.581   1.293  29.448 -0.3451 -1.1357 -0.2804
 3224TIP3    H231232   1.517   1.431  29.447 -1.3380 -1.5470  1.6746
 3225TIP3   OH231233   1.378   1.157  29.266  0.4285  0.3701  0.4505
 3225TIP3    H131234   1.296   1.138  29.312 -2.2328  3.0511 -2.7053
 3225TIP3    H231235   1.412   1.236  29.310 -0.7856  1.4604 -0.4809
 3226TIP3   OH231236   3.166   1.240   0.645 -0.0168  0.3449  0.6522
 3226TIP3    H131237   3.118   1.301   0.588  1.1091  0.5350 -0.1411
 3226TIP3    H231238   3.214   1.184   0.584  0.2692 -0.2499  1.4105
 3227TIP3   OH231239   2.009   1.939   2.430  0.2583  0.8269 -0.0115
 3227TIP3    H131240   1.968   1.880   2.493  0.8443  0.9842  0.5272
 3227TIP3    H231241   2.047   1.881   2.364 -1.0976  0.6912 -0.6920
 3228TIP3   OH231242   3.219   0.023   0.079  0.9658 -0.4329 -0.3181
 3228TIP3    H131243   3.299  -0.023   0.053  0.0049 -0.1033 -4.4974
 3228TIP3    H231244   3.214   0.098   0.020 -1.2197  0.9466  1.4704
 3229TIP3   OH231245   1.616   0.068   6.996 -0.3534 -0.5885  0.0179
 3229TIP3    H131246   1.659  -0.008   7.035  0.4367 -1.6761 -2.7143
 3229TIP3    H231247   1.523   0.052   7.009 -0.1398 -1.0551  1.0983
 3230TIP3   OH231248   2.791   3.136   7.512  0.0992 -0.3053 -0.7204
 3230TIP3    H131249   2.871   3.089   7.537 -0.6753 -1.7959 -0.9980
 3230TIP3    H231250   2.720   3.076   7.531 -1.0327  1.1858 -0.0183
 3231TIP3   OH231251   1.027   0.717  28.400  1.0012  0.3150  0.7824
 3231TIP3    H131252   1.088   0.664  28.349 -0.1886 -0.2748 -0.0747
 3231TIP3    H231253   1.082   0.782  28.443  2.2733 -0.4366  0.3506
 3232TIP3   OH231254   3.098   3.181   7.096 -0.2328 -0.3810 -0.0231
 3232TIP3    H131255   3.146   3.108   7.136 -1.3186 -1.2984 -0.3403
 3232TIP3    H231256   3.047   3.219   7.169  0.9226  0.5901  0.3128
 3233TIP3   OH231257   3.208   3.475   4.735  0.3965 -0.5702  0.2197
 3233TIP3    H131258   3.273   3.536   4.770  0.2636 -1.1998  1.6250
 3233TIP3    H231259   3.180   3.423   4.810 -0.6983 -1.2730 -0.6293
 3234TIP3   OH231260   1.509   2.288   4.915  0.0068 -0.1676  0.3632
 3234TIP3    H131261   1.524   2.345   4.990 -2.2668  1.3120 -0.2161
 3234TIP3    H231262   1.462   2.342   4.852 -1.7769 -2.4813 -0.4590
 3235TIP3   OH231263   2.057   0.609   3.344 -0.1352 -0.3303 -0.3649
 3235TIP3    H131264   2.149   0.631   3.332  0.1287 -1.6012 -0.7799
 3235TIP3    H231265   2.057   0.546   3.417 -0.7496  0.1404  0.0556
 3236TIP3   OH231266   1.652   1.400  31.100 -0.0170  0.3941 -0.2107
 3236TIP3    H131267   1.692   1.449  31.172 -0.7310  0.1810  0.3384
 3236TIP3    H231268   1.642   1.465  31.030  0.4843  0.6566 -0.0462
 3237TIP3   OH231269   3.261   1.972  32.479  0.0161  0.1321  0.2800
 3237TIP3    H131270   3.270   1.924  32.397 -0.4767  0.6010 -0.0542
 3237TIP3    H231271   3.257   1.904  32.546 -0.0340 -0.2755 -0.1293
 3238TIP3   OH231272   3.133   0.993  28.055 -0.1353  0.1058 -0.1772
 3238TIP3    H131273   3.174   1.073  28.024 -2.7910  1.1000 -1.4321
 3238TIP3    H231274   3.098   1.015  28.141 -0.9424  0.3505 -0.5597
 3239TIP3   OH231275   1.793   2.988   0.754  0.7846  0.0857  0.3761
 3239TIP3    H131276   1.713   3.022   0.794  0.9649 -0.1951  0.9731
 3239TIP3    H231277   1.765   2.909   0.708  0.5416  0.5162 -0.2409
 3240TIP3   OH231278   0.340   1.353  30.947  0.0482 -0.0501 -0.4626
 3240TIP3    H131279   0.288   1.396  31.016  0.6563  0.7383 -0.4713
 3240TIP3    H231280   0.359   1.424  30.885  2.1329  0.0002  0.1444
 3241TIP3   OH231281   1.359   0.695  31.836  0.4557  0.0372  0.4609
 3241TIP3    H131282   1.291   0.645  31.791  0.6513 -1.4146  1.7083
 3241TIP3    H231283   1.342   0.786  31.812 -0.4031 -0.5335 -1.2284
 3242TIP3   OH231284   3.277   1.444  26.609  0.1268  0.1765  0.1269
 3242TIP3    H131285   3.186   1.438  26.639  0.7568 -1.2081  1.9880
 3242TIP3    H231286   3.270   1.469  26.517 -2.1735 -0.7941 -0.0499
 3243TIP3   OH231287   0.845   2.482  20.878  0.2438 -0.1439  0.0894
 3243TIP3    H131288   0.937   2.464  20.896  0.2583  1.1406  1.5331
 3243TIP3    H231289   0.839   2.485  20.783  2.3055  2.4181 -0.0736
 3244TIP3   OH231290   1.563   2.836  26.260  0.0654  0.2240  0.0916
 3244TIP3    H131291   1.543   2.817  26.169  1.4713  0.4582 -0.2896
 3244TIP3    H231292   1.494   2.896  26.288  0.8459  1.9620 -1.5107
 3245TIP3   OH231293   1.911   0.902  30.571  0.1200 -0.4885  0.2228
 3245TIP3    H131294   1.962   0.836  30.618 -1.6192 -1.1526  1.2426
 3245TIP3    H231295   1.977   0.952  30.522  1.5657 -2.3775  0.1313
 3246TIP3   OH231296   1.853   3.314   1.516  0.1570 -0.1610  0.3518
 3246TIP3    H131297   1.824   3.225   1.536 -0.5323  0.1948  0.9677
 3246TIP3    H231298   1.928   3.329   1.574 -0.9576  0.3555  1.7240
 3247TIP3   OH231299   2.907   0.675   0.099 -0.7082  0.1707 -0.5116
 3247TIP3    H131300   2.984   0.687   0.044 -0.7599  2.4569 -0.1734
 3247TIP3    H231301   2.858   0.605   0.056  0.4040  0.2797 -2.0504
 3248TIP3   OH231302   1.982   2.111  32.303 -0.0365  0.3246  0.2427
 3248TIP3    H131303   2.009   2.046  32.238 -0.7525 -1.0493  1.2554
 3248TIP3    H231304   1.886   2.104  32.306 -0.0656  0.9086  0.8749
 3249TIP3   OH231305   2.979   1.065  18.863  0.7779 -0.0690 -0.1670
 3249TIP3    H131306   3.033   1.032  18.935 -1.1856 -1.5070  0.7283
 3249TIP3    H231307   2.932   1.139  18.900  0.7137 -0.0026 -0.3799
 3250TIP3   OH231308   2.058   0.181  26.926 -0.3709 -0.5518 -0.0815
 3250TIP3    H131309   1.964   0.192  26.936 -0.4819 -1.1572 -0.3700
 3250TIP3    H231310   2.069   0.147  26.837  0.3397  2.0004 -1.0392
 3251TIP3   OH231311   0.927   1.635  21.696 -0.5057  0.2957  0.3446
 3251TIP3    H131312   0.889   1.723  21.697 -0.9959  0.1002 -0.6748
 3251TIP3    H231313   0.852   1.576  21.705 -0.4139 -0.0713 -1.0673
 3252TIP3   OH231314   0.102   1.630  23.805 -0.0511 -0.7446  0.2313
 3252TIP3    H131315   0.053   1.711  23.788  0.2062 -0.5557  0.3897
 3252TIP3    H231316   0.188   1.645  23.765 -0.0690 -1.0177  0.0874
 3253TIP3   OH231317   0.897   2.101  18.883 -0.1604 -0.1712 -0.1366
 3253TIP3    H131318   0.861   2.160  18.817  0.2193 -0.5136 -0.6630
 3253TIP3    H231319   0.907   2.017  18.837 -0.7422 -0.6610  0.6106
 3254TIP3   OH231320   2.874   0.711   3.310  0.4622  0.2607 -0.0128
 3254TIP3    H131321   2.963   0.745   3.308  0.3473  0.5456 -1.2578
 3254TIP3    H231322   2.845   0.714   3.219 -0.8718  0.3076  0.3874
 3255TIP3   OH231323   2.013   0.334  27.274 -0.2337  0.0323 -0.2279
 3255TIP3    H131324   2.062   0.257  27.247  1.0317  0.9863 -0.7259
 3255TIP3    H231325   2.068   0.408  27.250 -1.9820  1.1699 -0.9777
 3256TIP3   OH231326   0.568   2.775   3.820  0.2844 -0.3072  0.0926
 3256TIP3    H131327   0.510   2.699   3.828  0.7158 -0.9227 -2.0925
 3256TIP3    H231328   0.537   2.820   3.742  0.7633  1.1619  0.7273
 3257TIP3   OH231329   0.691   2.031  30.023  0.4965  0.0545 -0.4889
 3257TIP3    H131330   0.661   1.940  30.021  0.5531 -0.0169  1.1228
 3257TIP3    H231331   0.786   2.026  30.016  0.4679  0.0339 -0.9162
 3258TIP3   OH231332   0.135   1.702  19.202  0.2861 -0.6288 -0.4838
 3258TIP3    H131333   0.152   1.761  19.128 -1.2679  0.8232  0.2702
 3258TIP3    H231334   0.213   1.709  19.256  0.0793  0.8484 -0.3484
 3259TIP3   OH231335   0.925   1.044  27.229  0.2408  0.0047  0.0807
 3259TIP3    H131336   0.990   1.081  27.289  1.4907  0.0820 -1.2408
 3259TIP3    H231337   0.886   1.120  27.186 -0.4442 -0.0585  0.5851
 3260TIP3   OH231338   2.690   0.286  30.879 -0.6625  0.3028 -0.1488
 3260TIP3    H131339   2.651   0.295  30.966 -0.2139 -2.0850  0.3722
 3260TIP3    H231340   2.638   0.216  30.837 -0.3429  0.8424 -1.5001
 3261TIP3   OH231341   0.296   2.973  28.859 -0.6635  0.2930 -0.0866
 3261TIP3    H131342   0.332   2.992  28.946  0.3785 -2.3211  0.1585
 3261TIP3    H231343   0.373   2.965  28.803 -1.2658  0.7814 -1.0001
 3262TIP3   OH231344   2.849   1.719  23.294  0.3751 -0.0730 -0.4390
 3262TIP3    H131345   2.853   1.810  23.322 -0.9174 -0.2011  0.2612
 3262TIP3    H231346   2.890   1.718  23.208  1.4714  0.9413  0.0459
 3263TIP3   OH231347   0.043   2.311  26.601  0.1885 -0.4405  0.3275
 3263TIP3    H131348   0.093   2.383  26.639  1.0238 -0.9153  0.1600
 3263TIP3    H231349   0.109   2.251  26.568 -0.5063 -0.7259 -0.5973
 3264TIP3   OH231350   2.966   1.860   4.312  0.4342 -0.7294  0.1277
 3264TIP3    H131351   2.957   1.811   4.231  1.9206  0.1556 -0.6326
 3264TIP3    H231352   3.058   1.847   4.338  0.4291  0.3378  0.7498
 3265TIP3   OH231353   1.768   3.170  30.281 -0.1147  0.0559  0.1215
 3265TIP3    H131354   1.701   3.155  30.215 -1.1724 -0.3351  1.2422
 3265TIP3    H231355   1.851   3.173  30.232 -0.7958 -0.7987 -1.1216
 3266TIP3   OH231356   1.136   1.756   6.274 -0.0643 -0.1939  0.1735
 3266TIP3    H131357   1.219   1.791   6.240 -0.2815  0.2685  0.1103
 3266TIP3    H231358   1.069   1.809   6.231 -0.3364  0.6525  1.5909
 3267TIP3   OH231359   1.639   1.787   2.522 -0.0438 -0.0109  0.0725
 3267TIP3    H131360   1.587   1.839   2.461 -0.1883  0.0233  0.2248
 3267TIP3    H231361   1.619   1.696   2.500  1.6650 -0.0809 -1.4912
 3268TIP3   OH231362   0.540   0.162  28.468  0.3629  0.3974  0.2074
 3268TIP3    H131363   0.588   0.156  28.385 -0.5070 -0.3606 -0.2485
 3268TIP3    H231364   0.464   0.215  28.448  0.8990  1.4750  0.8997
 3269TIP3   OH231365   2.914   2.018  29.403 -0.2653 -0.1179  0.1575
 3269TIP3    H131366   2.871   1.996  29.320 -0.2837  1.8717 -0.4280
 3269TIP3    H231367   2.906   2.114  29.409  0.9253 -0.0774  1.7984
 3270TIP3   OH231368   2.031   2.593  31.514 -0.3660 -0.3119  0.0288
 3270TIP3    H131369   1.974   2.589  31.437 -0.5280 -2.0973  0.1880
 3270TIP3    H231370   1.981   2.549  31.583  1.4619 -2.7685 -0.0636
 3271TIP3   OH231371   1.891   2.884  28.333  0.3623 -0.4343 -0.0435
 3271TIP3    H131372   1.861   2.937  28.259  0.2012  0.2817  0.5281
 3271TIP3    H231373   1.980   2.916  28.351  0.4623 -0.7173 -0.0281
 3272TIP3   OH231374   3.430   1.213  26.657  0.1744 -0.3256 -0.0063
 3272TIP3    H131375   3.397   1.297  26.627  0.8530  1.4765  3.6856
 3272TIP3    H231376   3.520   1.209  26.625 -0.6263 -0.9889 -2.3839
 3273TIP3   OH231377   0.796   3.443   1.025  0.0434  0.2314 -0.0931
 3273TIP3    H131378   0.831   3.400   1.103 -0.8662 -1.4107 -0.5538
 3273TIP3    H231379   0.861   3.510   1.004  1.4576 -0.8196  0.7526
 3274TIP3   OH231380   0.827   2.040  30.812  0.4026 -0.0363 -0.1367
 3274TIP3    H131381   0.890   2.102  30.850  0.6528  1.0802 -2.2312
 3274TIP3    H231382   0.749   2.048  30.868  1.2210  0.4626  0.9749
 3275TIP3   OH231383   0.569   3.268  11.265  0.4351 -0.3880  0.2583
 3275TIP3    H131384   0.638   3.242  11.204 -0.0443 -2.4747  0.5255
 3275TIP3    H231385   0.487   3.250  11.218  0.0356 -2.8916  1.7173
 3276TIP3   OH231386   3.120   2.470  30.043  0.1678 -0.4579  0.2584
 3276TIP3    H131387   3.095   2.518  29.964 -1.3308 -1.3502  0.1494
 3276TIP3    H231388   3.187   2.524  30.084 -0.6639  1.1600 -0.4328
 3277TIP3   OH231389   1.238   1.879   3.432  0.0653 -0.1776 -0.1652
 3277TIP3    H131390   1.320   1.835   3.455 -0.3876 -0.8428  0.1949
 3277TIP3    H231391   1.233   1.871   3.337  0.1889 -0.5475 -0.1425
 3278TIP3   OH231392   0.190   0.935   1.309 -0.3914  0.5104  0.2850
 3278TIP3    H131393   0.252   0.892   1.250 -1.4858  0.3592 -0.7745
 3278TIP3    H231394   0.224   1.025   1.317  0.1379  0.3421 -0.0266
 3279TIP3   OH231395   3.296   1.594   3.967 -0.0080 -0.6265  0.1995
 3279TIP3    H131396   3.350   1.529   4.012 -0.5042 -0.8049  0.5446
 3279TIP3    H231397   3.312   1.676   4.013  2.1309 -0.0422 -1.4372
 3280TIP3   OH231398   2.528   2.608  14.488 -0.3085 -0.1536 -0.2948
 3280TIP3    H131399   2.609   2.564  14.514 -0.2115 -0.0491 -0.4184
 3280TIP3    H231400   2.544   2.700  14.507 -0.1336 -0.0367 -0.9684
 3281TIP3   OH231401   2.343   2.059  29.980  0.3864  0.3259 -0.1725
 3281TIP3    H131402   2.395   2.078  30.058  2.3980 -0.7270 -1.1635
 3281TIP3    H231403   2.291   1.982  30.004 -0.1429  0.9170  0.5995
 3282TIP3   OH231404   2.448   1.370  28.732  0.3344  0.3623  0.4559
 3282TIP3    H131405   2.442   1.370  28.637 -0.3315  1.7435  0.4734
 3282TIP3    H231406   2.540   1.390  28.751  0.6182 -0.5692  0.1297
 3283TIP3   OH231407   3.233   2.861   3.400 -0.2486  0.3325  0.2511
 3283TIP3    H131408   3.232   2.917   3.322 -1.3960 -0.4297 -0.3173
 3283TIP3    H231409   3.326   2.848   3.420  0.0474  1.0871 -0.5936
 3284TIP3   OH231410   0.179   0.343  32.381  0.1213 -0.0839 -0.0011
 3284TIP3    H131411   0.239   0.276  32.349  0.0404 -0.6343  0.9638
 3284TIP3    H231412   0.093   0.302  32.378  0.0904 -0.0903  0.7245
 3285TIP3   OH231413   3.320   0.136   0.360 -0.1823  0.3707  0.7438
 3285TIP3    H131414   3.244   0.134   0.301 -0.5708  0.6190  1.2251
 3285TIP3    H231415   3.377   0.204   0.323 -0.0481 -0.0340  0.2045
 3286TIP3   OH231416   1.665   1.314  32.062 -0.0463  0.7538 -0.3729
 3286TIP3    H131417   1.583   1.361  32.049 -0.2071  1.1374  1.6249
 3286TIP3    H231418   1.640   1.235  32.110  0.6439  0.4781 -0.4487
 3287TIP3   OH231419   2.853   2.293   6.026 -0.8813 -0.4130 -0.4483
 3287TIP3    H131420   2.839   2.366   6.086  0.1010 -0.2284 -0.4373
 3287TIP3    H231421   2.888   2.333   5.947  0.2676 -0.9326 -0.2148
 3288TIP3   OH231422   2.254   0.755   7.414 -0.1723  0.0976  0.5035
 3288TIP3    H131423   2.281   0.798   7.333  0.1240  1.6899  1.4055
 3288TIP3    H231424   2.332   0.708   7.443  0.1347  0.6385  0.5610
 3289TIP3   OH231425   3.303   2.032   6.515  0.0932 -0.0844 -0.1182
 3289TIP3    H131426   3.310   2.005   6.424 -0.1413  0.2805 -0.2419
 3289TIP3    H231427   3.393   2.029   6.548 -0.0082 -2.0122  0.1568
 3290TIP3   OH231428   2.040   3.508  13.092  0.3876 -0.5660 -0.0780
 3290TIP3    H131429   1.945   3.516  13.099  0.3376  0.9924 -1.8141
 3290TIP3    H231430   2.064   3.566  13.020  2.6471 -1.0823  0.1790
 3291TIP3   OH231431   0.705   3.329  14.385  0.1059 -0.2520 -0.1749
 3291TIP3    H131432   0.695   3.363  14.296 -0.4621 -1.7111 -0.7020
 3291TIP3    H231433   0.640   3.259  14.391  0.6514 -0.6733  1.1378
 3292TIP3   OH231434   0.046   2.155   3.118  0.1496  0.4742 -0.4489
 3292TIP3    H131435   0.110   2.085   3.133 -1.2413 -0.9413 -0.8475
 3292TIP3    H231436  -0.035   2.109   3.095 -0.7340  2.2361 -1.0569
 3293TIP3   OH231437   2.572   1.594  31.250 -0.3450  0.2833  0.0314
 3293TIP3    H131438   2.614   1.612  31.166  0.5769  1.0029  0.6321
 3293TIP3    H231439   2.497   1.538  31.228 -0.9345  1.5816 -1.4288
 3294TIP3   OH231440   0.580   1.782  30.211  0.3887  0.4025 -0.7360
 3294TIP3    H131441   0.540   1.700  30.242 -2.0124  1.5229 -0.6341
 3294TIP3    H231442   0.595   1.833  30.290  1.9110  0.0891 -0.7952
 3295TIP3   OH231443   3.541   1.909  30.159 -0.0275 -0.2148 -0.1143
 3295TIP3    H131444   3.629   1.936  30.132 -0.2676 -0.3895 -1.0947
 3295TIP3    H231445   3.554   1.820  30.193  0.3230  0.1172  0.6579
 3296TIP3   OH231446   2.146   2.314  27.025  0.2256  0.0728 -0.1244
 3296TIP3    H131447   2.153   2.225  26.992  0.0020  0.7802 -2.2269
 3296TIP3    H231448   2.236   2.339  27.048  0.2829 -0.6714  0.5124
 3297TIP3   OH231449   2.454   0.442  29.356 -0.2021  0.4780  0.2483
 3297TIP3    H131450   2.508   0.504  29.406 -0.3018  0.1859  0.7190
 3297TIP3    H231451   2.456   0.362  29.407 -1.0198  0.4414  0.2299
 3298TIP3   OH231452   1.186   1.624  21.982 -0.2991  0.2461 -0.0941
 3298TIP3    H131453   1.271   1.595  21.950 -0.6265 -0.3962 -0.3904
 3298TIP3    H231454   1.171   1.571  22.061 -1.8433 -2.0319 -1.7657
 3299TIP3   OH231455   3.199   0.824   2.630  0.6049 -0.4711 -0.2504
 3299TIP3    H131456   3.150   0.791   2.705 -1.5131  0.2367 -1.2511
 3299TIP3    H231457   3.197   0.752   2.567  0.5736 -0.3187 -0.4233
 3300TIP3   OH231458   1.087   2.493  30.973 -0.3949  0.1030  0.4696
 3300TIP3    H131459   1.062   2.549  30.899 -1.2765  2.1407  2.1931
 3300TIP3    H231460   1.182   2.488  30.968 -0.4684 -0.4803 -1.2121
 3301TIP3   OH231461   2.077   0.232   5.849  0.2100 -0.1567 -0.0001
 3301TIP3    H131462   2.153   0.290   5.844  1.3267 -1.5211  0.5574
 3301TIP3    H231463   2.055   0.228   5.942  0.0185 -0.4688 -0.0546
 3302TIP3   OH231464   2.337   1.133   2.047 -0.0265 -0.3003  0.5404
 3302TIP3    H131465   2.302   1.147   1.958 -1.9536 -0.3573  1.2367
 3302TIP3    H231466   2.401   1.062   2.036  0.5052  0.3651 -0.9492
 3303TIP3   OH231467   0.895   2.054   3.512 -0.1991 -0.2523 -0.0522
 3303TIP3    H131468   0.837   2.113   3.559 -0.6076  0.1114 -0.9872
 3303TIP3    H231469   0.982   2.075   3.544 -0.4056  0.4550  0.0517
 3304TIP3   OH231470   2.631   1.494   2.333  0.1831  0.1300 -0.2473
 3304TIP3    H131471   2.721   1.463   2.326 -0.0531 -0.9367  0.9809
 3304TIP3    H231472   2.579   1.423   2.294 -0.1118  1.0499 -1.6076
 3305TIP3   OH231473   3.160   0.743   6.408 -0.1060  0.5624 -0.7236
 3305TIP3    H131474   3.139   0.745   6.314  0.6364 -1.0094 -0.9399
 3305TIP3    H231475   3.254   0.730   6.412 -0.1432  0.5198  0.2498
 3306TIP3   OH231476   2.190   1.708  23.105  0.2890 -0.0169 -0.1120
 3306TIP3    H131477   2.227   1.658  23.178 -1.1662 -0.9680  0.0290
 3306TIP3    H231478   2.218   1.661  23.027 -2.0645 -1.9006  0.0555
 3307TIP3   OH231479   3.489   1.639   6.622  0.2107 -0.4524 -0.8628
 3307TIP3    H131480   3.431   1.593   6.562 -0.2074 -1.1202  0.0227
 3307TIP3    H231481   3.433   1.705   6.664  0.4415 -0.1412 -1.0423
 3308TIP3   OH231482   3.488   0.300  32.270 -0.4722  0.1387  0.0208
 3308TIP3    H131483   3.415   0.361  32.260 -1.5237 -0.6416  2.1936
 3308TIP3    H231484   3.448   0.214  32.260  0.4392 -0.2745 -0.1625
 3309TIP3   OH231485   2.728   0.125  28.015  0.1778  0.1622  0.0642
 3309TIP3    H131486   2.755   0.067  28.086  1.1046  1.1519  0.5618
 3309TIP3    H231487   2.735   0.071  27.936  0.0401 -0.6869  0.6169
 3310TIP3   OH231488   1.458   0.495   4.131  0.6713 -0.2881  0.2618
 3310TIP3    H131489   1.407   0.442   4.192 -0.9300  0.3622 -0.4498
 3310TIP3    H231490   1.448   0.451   4.047  1.2564 -0.1332  0.1096
 3311TIP3   OH231491   3.276   2.276  17.901 -0.5913  0.5692  0.0542
 3311TIP3    H131492   3.278   2.189  17.860  1.3232 -0.2662  1.7413
 3311TIP3    H231493   3.184   2.290  17.922 -0.9236 -1.1169 -0.1243
 3312TIP3   OH231494   1.206   2.480  19.118 -0.0559 -0.3623 -0.4272
 3312TIP3    H131495   1.182   2.569  19.090  0.6118 -0.6577 -2.0338
 3312TIP3    H231496   1.290   2.491  19.163  0.3245 -0.2301 -1.1472
 3313TIP3   OH231497   1.792   0.870  19.675  0.0815 -0.2178 -0.4548
 3313TIP3    H131498   1.836   0.848  19.756  0.7744  0.3962 -0.6485
 3313TIP3    H231499   1.793   0.966  19.672  1.2122 -0.2377 -1.7820
 3314TIP3   OH231500   1.902   0.950   0.005 -0.8084  0.2452 -0.0221
 3314TIP3    H131501   1.992   0.983   0.002 -1.3227  2.0064  1.5253
 3314TIP3    H231502   1.895   0.906   0.090 -1.8655  1.7949  0.7610
 3315TIP3   OH231503   0.181   0.551   3.927 -0.1997  0.2581 -0.3717
 3315TIP3    H131504   0.244   0.501   3.978  1.1133  3.1059  1.0261
 3315TIP3    H231505   0.106   0.561   3.985 -0.2575  0.3355 -0.4605
 3316TIP3   OH231506   3.272   1.900  30.087 -0.4455 -0.6347 -0.1670
 3316TIP3    H131507   3.224   1.982  30.091 -0.8608 -0.8854  0.0352
 3316TIP3    H231508   3.363   1.924  30.106 -0.5231 -0.1885 -0.3630
 3317TIP3   OH231509   3.139   0.248   2.211 -0.1534 -0.0529 -0.1329
 3317TIP3    H131510   3.212   0.249   2.274 -0.8057  0.9520  0.6367
 3317TIP3    H231511   3.166   0.310   2.143  1.0160 -1.8981 -1.4476
 3318TIP3   OH231512   2.418   3.518   6.683 -0.5323  0.3501  0.2248
 3318TIP3    H131513   2.511   3.493   6.679 -0.8749 -0.8968 -0.4011
 3318TIP3    H231514   2.389   3.516   6.592 -1.0907  1.1440  0.3719
 3319TIP3   OH231515   1.192   0.268  27.301 -0.0386 -0.0864 -0.0839
 3319TIP3    H131516   1.209   0.293  27.392 -0.9157 -2.1960  0.7405
 3319TIP3    H231517   1.190   0.172  27.303  0.4740 -0.2041 -2.4558
 3320TIP3   OH231518   2.609   1.001  29.499 -0.0672  0.0269  0.8284
 3320TIP3    H131519   2.597   0.935  29.431 -1.0979 -0.5216  1.4931
 3320TIP3    H231520   2.534   0.987  29.558 -0.5249  2.0333  0.7969
 3321TIP3   OH231521   1.175   2.696   0.177  0.4088 -0.7719  0.9384
 3321TIP3    H131522   1.244   2.718   0.240 -1.1800  2.3846  1.7725
 3321TIP3    H231523   1.114   2.769   0.182 -1.6447 -2.1388 -1.7341
 3322TIP3   OH231524   3.364   1.165   2.369 -0.4334 -0.4113 -0.1580
 3322TIP3    H131525   3.312   1.099   2.325 -0.8092 -0.3070  0.1297
 3322TIP3    H231526   3.452   1.155   2.332 -0.5079 -1.0104 -0.1794
 3323TIP3   OH231527   0.713   3.067  29.468  0.6626  0.0988 -0.0989
 3323TIP3    H131528   0.744   2.978  29.488  1.6549  0.8405  2.0781
 3323TIP3    H231529   0.777   3.124  29.512 -0.2711  1.8829 -0.9647
 3324TIP3   OH231530   1.306   2.055  19.422 -0.0260  0.4109  0.2997
 3324TIP3    H131531   1.274   2.141  19.394 -1.3287  0.2146  1.1062
 3324TIP3    H231532   1.402   2.064  19.420 -0.1340  1.8785  0.3823
 3325TIP3   OH231533   1.400   1.988  32.509  0.3519 -0.8769  0.1693
 3325TIP3    H131534   1.467   2.055  32.524  1.0411 -0.8937 -2.4178
 3325TIP3    H231535   1.321   2.023  32.551  0.3461  2.2138 -2.1107
 3326TIP3   OH231536   3.258   1.837   1.252 -0.1505 -0.4560  0.8081
 3326TIP3    H131537   3.339   1.883   1.274 -1.2609  1.5018  1.0782
 3326TIP3    H231538   3.273   1.800   1.165  1.1816 -0.5737  1.0661
 3327TIP3   OH231539   2.861   2.016  29.684 -0.1344 -0.2551  0.1502
 3327TIP3    H131540   2.830   2.107  29.684  1.8538  0.5023  0.8847
 3327TIP3    H231541   2.896   2.003  29.596 -0.2542 -0.2268  0.0995
 3328TIP3   OH231542   3.536   3.078   3.638  0.3629  0.6988 -0.6206
 3328TIP3    H131543   3.444   3.052   3.631  0.5003  0.3771 -1.2525
 3328TIP3    H231544   3.583   2.995   3.650  0.7871  0.6314 -2.4711
 3329TIP3   OH231545   0.185   2.424  31.854 -0.3980  0.0413 -0.0617
 3329TIP3    H131546   0.253   2.464  31.800 -2.1806  0.9751 -1.7713
 3329TIP3    H231547   0.166   2.341  31.811 -0.4248 -0.1546  0.3246
 3330TIP3   OH231548   2.162   1.895   6.870 -0.2551 -0.2656 -0.0444
 3330TIP3    H131549   2.180   1.847   6.790 -1.9296 -0.7338 -0.1838
 3330TIP3    H231550   2.067   1.888   6.882 -0.3508  1.6571  0.8016
 3331TIP3   OH231551   0.252   1.698   7.366  0.0380 -0.1773 -0.2746
 3331TIP3    H131552   0.157   1.713   7.368  0.2167  0.9330  0.8711
 3331TIP3    H231553   0.264   1.619   7.418 -0.1491  0.4175  0.6898
 3332TIP3   OH231554   1.306   2.806  32.427  0.6530 -0.2491 -0.6456
 3332TIP3    H131555   1.287   2.747  32.500  2.8029 -1.1591 -0.7788
 3332TIP3    H231556   1.226   2.858  32.418 -0.0737 -0.8530  1.6314
 3333TIP3   OH231557   2.229   2.970   0.027 -0.5072  0.1047 -0.3337
 3333TIP3    H131558   2.302   3.020   0.063 -0.8728  0.7822 -0.5230
 3333TIP3    H231559   2.153   3.028   0.035 -1.1952 -0.8826  0.5880
 3334TIP3   OH231560   0.045   0.295   0.941  0.0891 -0.2893 -0.0416
 3334TIP3    H131561   0.089   0.290   0.857 -1.0269 -0.5782 -0.6349
 3334TIP3    H231562   0.115   0.293   1.006  1.0683  1.5665 -0.9808
 3335TIP3   OH231563   1.423   0.232   0.826 -0.2130  0.1170 -0.0107
 3335TIP3    H131564   1.452   0.323   0.835 -1.4851  0.4148  1.4009
 3335TIP3    H231565   1.460   0.187   0.902 -0.6094 -0.2596 -0.0363
 3336TIP3   OH231566   2.769   3.203  29.213 -0.1536 -0.1155 -0.0225
 3336TIP3    H131567   2.747   3.129  29.269  0.5929 -0.2997  0.0327
 3336TIP3    H231568   2.837   3.250  29.260  2.0570 -1.4565 -1.6868
 3337TIP3   OH231569   1.910   1.309   2.023  0.0674 -0.6574  0.2195
 3337TIP3    H131570   1.961   1.231   2.044 -1.0266 -1.4313  0.0351
 3337TIP3    H231571   1.972   1.366   1.976  1.0344 -1.1482  0.8659
 3338TIP3   OH231572   2.527   2.384   4.039  0.0688  0.2251 -0.6579
 3338TIP3    H131573   2.473   2.309   4.016  0.6598 -0.0056 -1.3201
 3338TIP3    H231574   2.580   2.355   4.113  0.7835 -0.2456 -1.3421
 3339TIP3   OH231575   1.721   0.329  15.164  0.3389  0.8553  0.0869
 3339TIP3    H131576   1.694   0.298  15.078 -0.7525 -0.8813  1.0053
 3339TIP3    H231577   1.687   0.418  15.169 -0.7998  0.4869 -0.7625
 3340TIP3   OH231578   1.285   2.243  26.690  0.0050 -0.2936  0.1620
 3340TIP3    H131579   1.264   2.312  26.628  0.8889  0.8078  1.0307
 3340TIP3    H231580   1.235   2.265  26.768 -1.4666 -1.9319 -0.2684
 3341TIP3   OH231581   1.164   0.311   3.992 -0.5243 -0.1515  0.3809
 3341TIP3    H131582   1.099   0.280   3.929  0.5811  0.9095 -1.3701
 3341TIP3    H231583   1.121   0.382   4.038 -1.6968 -1.5944  1.6084
 3342TIP3   OH231584   3.430   2.178  31.376 -0.2296 -0.1226  0.5664
 3342TIP3    H131585   3.478   2.252  31.412 -0.4854  1.7499 -2.6165
 3342TIP3    H231586   3.338   2.195  31.397 -0.7420  2.4231 -2.8545
 3343TIP3   OH231587   1.526   0.775  25.667 -0.8153  0.1257 -0.0512
 3343TIP3    H131588   1.561   0.834  25.734 -2.0435 -2.5428  3.2271
 3343TIP3    H231589   1.440   0.812  25.645 -1.4401 -0.1819  1.7298
 3344TIP3   OH231590   3.408   0.977  32.789 -0.1889  0.4295  0.1019
 3344TIP3    H131591   3.461   0.998  32.711 -1.8484  2.8049 -0.4704
 3344TIP3    H231592   3.395   1.061  32.833 -1.9485 -0.3749  1.2186
 3345TIP3   OH231593   1.221   2.171  28.480  0.7702  0.5600 -0.3048
 3345TIP3    H131594   1.236   2.164  28.575  0.1227  1.7190 -0.1077
 3345TIP3    H231595   1.141   2.222  28.472  0.9852  0.7264 -1.4985
 3346TIP3   OH231596   2.997   0.633  29.649  0.2545 -0.3801  0.0199
 3346TIP3    H131597   3.005   0.557  29.707 -2.5245 -0.6552  0.1802
 3346TIP3    H231598   3.048   0.609  29.572  0.7293 -1.7116  0.7096
 3347TIP3   OH231599   0.222   2.201   4.762  0.0066  0.3870 -0.2237
 3347TIP3    H131600   0.294   2.184   4.701 -1.2515  0.8705 -1.9113
 3347TIP3    H231601   0.230   2.294   4.783 -0.7594  0.7144 -1.3099
 3348TIP3   OH231602   0.948   0.372  31.370  0.5692  0.4050 -0.5210
 3348TIP3    H131603   0.906   0.456  31.351  1.8336  1.3685  0.7427
 3348TIP3    H231604   1.008   0.358  31.297 -0.6909 -0.1638 -1.4872
 3349TIP3   OH231605   0.846   1.939  19.934  0.2284 -0.5153  0.2564
 3349TIP3    H131606   0.892   2.014  19.896  0.7228 -0.7395  0.3953
 3349TIP3    H231607   0.813   1.891  19.858 -1.0902  0.4362  0.1914
 3350TIP3   OH231608   3.276   0.477   5.213  0.0144  0.4855  0.7446
 3350TIP3    H131609   3.240   0.536   5.280  0.3921  0.0905  1.3080
 3350TIP3    H231610   3.370   0.491   5.217  0.1200 -0.2802  1.0081
 3351TIP3   OH231611   1.411   2.990   2.085  0.4624 -0.3295  0.5728
 3351TIP3    H131612   1.344   2.939   2.130 -2.1758  2.1439 -0.2288
 3351TIP3    H231613   1.457   3.036   2.156  1.1339 -1.7929  1.1117
 3352TIP3   OH231614   0.492   1.969  31.211 -0.2258 -0.7262 -0.0748
 3352TIP3    H131615   0.520   2.013  31.291 -0.2945 -0.9765  0.0874
 3352TIP3    H231616   0.436   1.897  31.241 -1.0186 -0.2638 -0.3897
 3353TIP3   OH231617   2.347   0.164   4.625  0.1361 -0.2424 -0.1319
 3353TIP3    H131618   2.347   0.238   4.685  1.5074 -0.5283  0.2463
 3353TIP3    H231619   2.312   0.091   4.676 -0.0340 -0.1541 -0.1214
 3354TIP3   OH231620   1.137   2.395   0.427  0.2781 -0.3476 -0.3099
 3354TIP3    H131621   1.139   2.334   0.501 -2.4919  0.0278  0.2089
 3354TIP3    H231622   1.113   2.342   0.352 -2.5399  0.0181  0.2170
 3355TIP3   OH231623   0.984   1.332   4.733  0.7320 -0.2705 -0.1014
 3355TIP3    H131624   1.028   1.386   4.668  1.0769 -0.4303  0.0006
 3355TIP3    H231625   0.941   1.395   4.792 -1.5386 -0.1003 -1.7817
 3356TIP3   OH231626   2.860   2.397  28.944  0.2687 -0.6089  0.8281
 3356TIP3    H131627   2.938   2.366  28.989 -0.1217  1.1574  2.8750
 3356TIP3    H231628   2.798   2.419  29.014 -0.7884  1.2252 -0.5760
 3357TIP3   OH231629   2.730   0.655  29.272 -0.0730  0.5645  0.1215
 3357TIP3    H131630   2.750   0.666  29.365  0.0357  1.9361 -0.0391
 3357TIP3    H231631   2.680   0.733  29.249  0.6979  0.7022 -1.1779
 3358TIP3   OH231632   2.386   2.403  21.023 -0.3837  0.0356 -0.2653
 3358TIP3    H131633   2.455   2.364  21.077 -1.0041  0.4452  0.8552
 3358TIP3    H231634   2.342   2.465  21.082 -0.3900  1.3149 -1.5537
 3359TIP3   OH231635   3.142   1.510  21.450 -0.3480 -0.5942  0.7644
 3359TIP3    H131636   3.101   1.467  21.526 -0.1978  0.0723  1.2266
 3359TIP3    H231637   3.069   1.555  21.407 -0.1567  0.4708  1.5048
 3360TIP3   OH231638   1.619   1.581  29.168  0.1457 -0.0935  0.4854
 3360TIP3    H131639   1.615   1.510  29.103  2.3918 -0.9839  1.2158
 3360TIP3    H231640   1.575   1.544  29.245 -2.1890  0.8285 -0.3153
 3361TIP3   OH231641   0.732   1.291   6.643  0.1777 -0.7187 -0.0536
 3361TIP3    H131642   0.796   1.296   6.714 -0.3111 -0.2863  0.3645
 3361TIP3    H231643   0.776   1.329   6.567  1.3652 -2.7968 -0.4997
 3362TIP3   OH231644   3.544   3.175   5.218 -0.2044 -0.0000  0.5215
 3362TIP3    H131645   3.629   3.213   5.241 -0.2211  1.2601 -1.2670
 3362TIP3    H231646   3.514   3.227   5.143 -1.7566 -1.5401 -0.0010
 3363TIP3   OH231647   0.280   1.712   3.822  0.3075  0.0996 -0.0866
 3363TIP3    H131648   0.356   1.723   3.880  0.1433  0.5775  0.0472
 3363TIP3    H231649   0.206   1.703   3.882  0.3771 -1.4172 -0.1980
 3364TIP3   OH231650   1.077   2.498   1.517  0.3338  0.7559  0.2644
 3364TIP3    H131651   1.117   2.583   1.497  1.1060  0.2967 -0.1984
 3364TIP3    H231652   0.985   2.518   1.532  0.2437  1.5151 -1.0905
 3365TIP3   OH231653   3.343   0.515   0.219  0.0996 -0.0742 -0.3108
 3365TIP3    H131654   3.360   0.584   0.284 -3.2555  0.6285 -0.0230
 3365TIP3    H231655   3.290   0.450   0.265  1.5568 -1.9605 -1.1439
 3366TIP3   OH231656   0.079   2.392  28.534  0.5399  0.1041 -0.1949
 3366TIP3    H131657   0.038   2.478  28.537  0.1427 -0.1047  0.8661
 3366TIP3    H231658   0.006   2.331  28.523  0.7852 -0.1262 -0.5787
 3367TIP3   OH231659   1.992   0.704   0.148 -0.8229 -0.4951  0.1784
 3367TIP3    H131660   1.916   0.647   0.139 -2.0816  0.9835  0.9820
 3367TIP3    H231661   1.996   0.751   0.064 -1.0684 -0.2931  0.2747
 3368TIP3   OH231662   2.274   1.890   5.139  0.0563  0.0486 -0.1098
 3368TIP3    H131663   2.293   1.974   5.096 -0.9307  0.2826 -0.1375
 3368TIP3    H231664   2.190   1.863   5.101 -0.0918 -0.4870  0.5722
 3369TIP3   OH231665   0.349   0.052   0.061 -0.6141 -0.0299 -0.0958
 3369TIP3    H131666   0.406   0.060   0.138 -0.8725 -0.9112  0.1997
 3369TIP3    H231667   0.352   0.138   0.020 -2.9583  1.4983  2.6397
 3370TIP3   OH231668   3.102   0.785   7.531 -0.4215 -0.2556 -0.0088
 3370TIP3    H131669   3.047   0.859   7.557 -1.9124 -1.1112 -0.6477
 3370TIP3    H231670   3.061   0.708   7.570  1.9434 -0.6694  1.9070
 3371TIP3   OH231671   3.469   1.811   2.321 -0.5628 -0.4480  0.2653
 3371TIP3    H131672   3.459   1.827   2.227 -0.2122 -0.5319  0.2101
 3371TIP3    H231673   3.406   1.870   2.363 -0.3743 -0.0510 -0.0019
 3372TIP3   OH231674   1.124   0.579   5.081  0.0805 -0.3000 -0.4088
 3372TIP3    H131675   1.061   0.611   5.016  1.4617 -0.3545 -1.8313
 3372TIP3    H231676   1.210   0.603   5.046  0.9252 -1.2987  0.8662
 3373TIP3   OH231677   0.920   0.341   2.868 -0.1295 -0.7205 -0.2768
 3373TIP3    H131678   0.893   0.431   2.856 -0.2054 -0.7490 -0.3205
 3373TIP3    H231679   0.907   0.300   2.782 -1.3622 -1.1089  0.0696
 3374TIP3   OH231680   1.709   1.856   1.071  0.2523  0.6808 -0.4965
 3374TIP3    H131681   1.726   1.839   1.164  0.5386  1.1684 -0.4577
 3374TIP3    H231682   1.617   1.880   1.067 -0.3046 -1.2665 -0.6093
 3375TIP3   OH231683   2.757   1.222  19.768  0.5261  1.1643  0.4805
 3375TIP3    H131684   2.823   1.287  19.792  1.9612 -0.0985  0.0787
 3375TIP3    H231685   2.763   1.215  19.673 -0.7287  1.5714  0.3528
 3376TIP3   OH231686   0.305   1.543  31.854 -0.1556  0.0884 -0.1840
 3376TIP3    H131687   0.277   1.459  31.817  0.4642 -0.3006  0.1949
 3376TIP3    H231688   0.340   1.520  31.940  0.5134  0.6613 -0.2912
 3377TIP3   OH231689   1.572   1.668  26.319  0.1000  0.2391  0.0307
 3377TIP3    H131690   1.573   1.598  26.384 -0.4285  0.4153  0.2301
 3377TIP3    H231691   1.663   1.674  26.290  0.1955 -0.3638  0.1889
 3378TIP3   OH231692   3.046   1.823  25.709  0.0327 -0.6299  0.8745
 3378TIP3    H131693   2.983   1.858  25.646 -0.2568  0.4854  1.7521
 3378TIP3    H231694   3.124   1.805  25.657 -0.6009 -0.8859 -0.0116
 3379TIP3   OH231695   0.408   1.402  31.302  0.3127 -0.3454  0.0780
 3379TIP3    H131696   0.490   1.399  31.350  0.9496  0.1109 -0.9484
 3379TIP3    H231697   0.389   1.495  31.292 -1.2415 -0.4264  1.7752
 3380TIP3   OH231698   2.174   3.232  30.715  0.5040  0.2639  0.2109
 3380TIP3    H131699   2.134   3.309  30.755 -1.7284 -0.4394 -0.5302
 3380TIP3    H231700   2.120   3.159  30.745  1.0502 -0.7070 -1.0819
 3381TIP3   OH231701   2.844   0.312   1.207  0.5554 -0.1223  0.6603
 3381TIP3    H131702   2.922   0.365   1.191  1.2264 -1.9347 -3.7242
 3381TIP3    H231703   2.855   0.236   1.149 -3.1198 -1.9865  2.0779
 3382TIP3   OH231704   1.928   0.316  13.125  0.1106 -0.0561  0.4897
 3382TIP3    H131705   2.004   0.287  13.074  0.2156 -0.9303  1.1243
 3382TIP3    H231706   1.966   0.349  13.206 -0.0747  1.0959  0.1226
 3383TIP3   OH231707   1.194   3.458   2.963  0.2626  0.4043  0.3452
 3383TIP3    H131708   1.181   3.547   2.930 -2.0439  0.5982  1.5532
 3383TIP3    H231709   1.287   3.441   2.951  0.0594  1.1261 -4.4648
 3384TIP3   OH231710   3.082   0.197   3.259  0.2654  0.2188  0.2735
 3384TIP3    H131711   3.163   0.209   3.309  0.7373 -2.2759  0.2293
 3384TIP3    H231712   3.093   0.253   3.183  0.5869  2.2578  1.7354
 3385TIP3   OH231713   3.474   2.064  28.279 -1.0383  0.4400 -0.2853
 3385TIP3    H131714   3.507   2.079  28.367  1.1675 -1.7765 -0.6143
 3385TIP3    H231715   3.490   2.146  28.233 -1.0810  1.2159  1.0294
 3386TIP3   OH231716   2.394   2.427  20.019 -0.3668  0.8182 -0.0062
 3386TIP3    H131717   2.426   2.350  19.972 -1.0773  0.5231 -0.0222
 3386TIP3    H231718   2.418   2.501  19.963  0.6525  0.6445  0.1910
 3387TIP3   OH231719   3.053   2.999  27.828  0.0255  0.3343 -0.0929
 3387TIP3    H131720   3.098   2.917  27.852 -1.4181 -0.8140 -1.1092
 3387TIP3    H231721   3.032   3.040  27.912  0.4593 -0.5273  0.4537
 3388TIP3   OH231722   3.310   2.097  29.072  0.5161 -0.0830  0.0449
 3388TIP3    H131723   3.360   2.027  29.114  1.0366 -1.7128 -2.9725
 3388TIP3    H231724   3.236   2.052  29.032  0.6762  1.1209 -1.6978
 3389TIP3   OH231725   1.829   1.727  26.658 -0.0866 -0.0679  0.3359
 3389TIP3    H131726   1.736   1.749  26.668  0.1396  0.9454  0.3525
 3389TIP3    H231727   1.847   1.666  26.728 -1.1871 -1.7799 -0.7906
 3390TIP3   OH231728   3.134   3.342   5.260  0.3112  0.3103  0.0724
 3390TIP3    H131729   3.150   3.357   5.353  2.7832 -0.7843 -0.0984
 3390TIP3    H231730   3.059   3.283   5.259  0.0930  0.5203  1.3600
 3391TIP3   OH231731   0.390   0.223   3.130  0.8367  0.5470 -0.5388
 3391TIP3    H131732   0.430   0.182   3.054  0.0544 -0.2424 -0.5439
 3391TIP3    H231733   0.409   0.316   3.120  2.9026  0.1761 -0.3777
 3392TIP3   OH231734   1.599   1.331  28.764  0.4384 -0.0512 -0.4113
 3392TIP3    H131735   1.516   1.287  28.776  1.3468 -1.6222  0.3994
 3392TIP3    H231736   1.629   1.351  28.853  1.1229  0.1178 -0.6665
 3393TIP3   OH231737   2.193   3.480  10.352 -0.6695 -0.9891 -0.1886
 3393TIP3    H131738   2.180   3.386  10.344 -1.9712 -0.8657  0.1908
 3393TIP3    H231739   2.212   3.510  10.263  3.6136 -2.0619  0.1550
 3394TIP3   OH231740   0.303   1.827   5.921  0.2464  0.1358 -0.2847
 3394TIP3    H131741   0.254   1.904   5.892  2.1017  1.2858 -0.5472
 3394TIP3    H231742   0.238   1.757   5.921 -1.6491  1.7692  0.4786
 3395TIP3   OH231743   1.253   2.510  32.458  0.5180  0.1961 -0.8352
 3395TIP3    H131744   1.231   2.422  32.428  1.9786 -0.2452 -0.6854
 3395TIP3    H231745   1.173   2.561  32.443 -0.1384 -0.9877 -1.5314
 3396TIP3   OH231746   0.759   1.093   3.467 -0.2314 -0.7695  0.4372
 3396TIP3    H131747   0.805   1.160   3.417  1.5660 -1.2633  1.3828
 3396TIP3    H231748   0.667   1.106   3.444  0.2754  0.7169 -0.9308
 3397TIP3   OH231749   3.268   0.217  27.429  0.3473  0.1026 -0.3978
 3397TIP3    H131750   3.246   0.169  27.349  0.0833  1.2795 -1.0519
 3397TIP3    H231751   3.309   0.298  27.398  0.5262  0.4365  0.6716
 3398TIP3   OH231752   1.610   1.670   4.023  0.2969  0.1050 -0.4758
 3398TIP3    H131753   1.647   1.598   4.074 -0.5952  1.0968  1.7325
 3398TIP3    H231754   1.661   1.746   4.049 -1.3515  0.9678  0.4364
 3399TIP3   OH231755   0.205   1.519  19.941  0.3113 -0.5743  0.2551
 3399TIP3    H131756   0.135   1.467  19.979 -0.8769  0.8695  0.1103
 3399TIP3    H231757   0.219   1.481  19.855 -0.9070 -0.3446 -0.0599
 3400TIP3   OH231758   2.577   1.775   1.369  0.4883  0.7345  0.1735
 3400TIP3    H131759   2.614   1.705   1.314  1.2799  1.6717 -0.5296
 3400TIP3    H231760   2.490   1.790   1.333 -0.8210 -1.7140  2.0427
 3401TIP3   OH231761   1.185   2.109   3.562  0.5787 -0.3325  0.2948
 3401TIP3    H131762   1.193   2.033   3.505  3.4952 -1.0922  1.5038
 3401TIP3    H231763   1.242   2.175   3.522  0.7867 -0.0393  1.0475
 3402TIP3   OH231764   1.900   1.906  30.090  0.0014 -0.0211 -0.1406
 3402TIP3    H131765   1.919   1.996  30.115 -0.8891  0.6173 -1.6932
 3402TIP3    H231766   1.961   1.888  30.018  0.4285 -0.7996  0.4002
 3403TIP3   OH231767   1.474   3.437  31.541  0.0550 -0.7027  0.1002
 3403TIP3    H131768   1.504   3.498  31.474  2.6890  0.5753  2.2446
 3403TIP3    H231769   1.417   3.489  31.598 -1.4971 -1.5674 -0.5718
 3404TIP3   OH231770   1.597   2.583   2.341 -0.1253 -0.2056  0.0242
 3404TIP3    H131771   1.506   2.580   2.312 -0.7962  1.0096  1.8256
 3404TIP3    H231772   1.613   2.676   2.361  1.5161 -0.3858 -0.2464
 3405TIP3   OH231773   2.539   1.413   6.241  0.2409  0.1720  0.2849
 3405TIP3    H131774   2.541   1.397   6.335 -0.4656 -0.2072  0.2483
 3405TIP3    H231775   2.449   1.442   6.224  1.0335  2.7763  0.0976
 3406TIP3   OH231776   2.269   2.688  22.094 -0.2579  0.2321  0.5208
 3406TIP3    H131777   2.188   2.686  22.042 -0.8412 -0.2644  1.4240
 3406TIP3    H231778   2.281   2.598  22.123 -0.0059  0.5230  1.3444
 3407TIP3   OH231779   3.260   1.788   5.468  0.0317  0.6584  0.1157
 3407TIP3    H131780   3.229   1.836   5.392 -3.9855  0.2987  1.3266
 3407TIP3    H231781   3.207   1.709   5.471  2.2402 -0.9118  1.6220
 3408TIP3   OH231782   1.410   1.298  25.824 -0.0710 -0.3401  0.2061
 3408TIP3    H131783   1.365   1.336  25.749  0.6322 -1.0102 -0.5750
 3408TIP3    H231784   1.398   1.204  25.814  1.4998 -0.5309 -0.0251
 3409TIP3   OH231785   0.762   1.905  28.544  0.4400 -0.0248 -0.4396
 3409TIP3    H131786   0.700   1.965  28.502  0.3860  1.0721  1.1108
 3409TIP3    H231787   0.711   1.826  28.563 -0.5743  0.9135  0.9523
 3410TIP3   OH231788   0.281   0.411   5.775 -0.1073  0.4530  0.9886
 3410TIP3    H131789   0.306   0.332   5.727  0.0597 -0.5215  2.6178
 3410TIP3    H231790   0.223   0.458   5.715 -0.8122 -1.2682  0.2508
 3411TIP3   OH231791   0.075   2.226   4.430 -0.2379 -0.3991  0.4042
 3411TIP3    H131792   0.161   2.260   4.454 -0.7996  2.3127 -0.9845
 3411TIP3    H231793   0.019   2.248   4.505 -0.4704  1.3533 -0.2449
 3412TIP3   OH231794   2.714   2.285   1.264  0.0474  0.2116 -0.0678
 3412TIP3    H131795   2.707   2.190   1.255  1.7365 -0.0918  1.2594
 3412TIP3    H231796   2.702   2.319   1.175  1.1363 -1.3909 -0.8649
 3413TIP3   OH231797   1.495   1.296  25.007 -0.2104 -0.0166  0.7629
 3413TIP3    H131798   1.461   1.371  24.957  1.0669  0.4895  0.6091
 3413TIP3    H231799   1.588   1.293  24.984 -0.2197 -1.5821  0.8743
 3414TIP3   OH231800   1.811   2.795  28.980  0.1343  0.1890 -0.0975
 3414TIP3    H131801   1.839   2.840  29.060  2.0200 -0.4707 -0.3374
 3414TIP3    H231802   1.892   2.783  28.929 -0.8910 -0.1392 -1.7386
 3415TIP3   OH231803   1.825   0.959   4.153  0.3084 -0.3179  0.4776
 3415TIP3    H131804   1.791   0.966   4.064  2.5557  1.1367 -0.3511
 3415TIP3    H231805   1.752   0.990   4.208 -0.8201 -0.4008 -0.9014
 3416TIP3   OH231806   1.304   3.035  12.703 -0.1243  0.1074  0.1173
 3416TIP3    H131807   1.309   3.129  12.718 -0.2961  0.1141  0.1288
 3416TIP3    H231808   1.394   3.004  12.716  0.2344  0.4691 -1.3207
 3417TIP3   OH231809   1.805   1.460   5.556  0.0224 -0.2029 -0.4223
 3417TIP3    H131810   1.761   1.376   5.570 -2.3286  0.9223 -0.5766
 3417TIP3    H231811   1.897   1.443   5.576 -0.7133 -2.3247  1.5333
 3418TIP3   OH231812   1.019   3.296   2.850  0.0979  0.4605  0.5186
 3418TIP3    H131813   1.095   3.348   2.873  0.2766 -0.2386  1.5957
 3418TIP3    H231814   0.950   3.326   2.909  0.3780 -0.9183  1.5907
 3419TIP3   OH231815   2.830   2.232  27.414  0.0672  0.1306 -0.0670
 3419TIP3    H131816   2.839   2.296  27.344  1.8993  1.7632  1.5195
 3419TIP3    H231817   2.835   2.147  27.370  0.5515  1.0914 -1.9580
 3420TIP3   OH231818   3.309   3.312  32.675 -0.1762 -0.6077 -0.0131
 3420TIP3    H131819   3.309   3.368  32.753  0.2868 -0.8514  0.1663
 3420TIP3    H231820   3.337   3.226  32.707 -0.9327 -0.9643 -0.2801
 3421TIP3   OH231821   1.118   2.135  21.035  0.2279  0.1657 -0.5676
 3421TIP3    H131822   1.107   2.138  20.940 -1.6225 -0.2769 -0.4106
 3421TIP3    H231823   1.045   2.187  21.069  0.7931  0.2148  0.6246
 3422TIP3   OH231824   3.192   1.549   1.277  0.0194 -0.0654  0.6094
 3422TIP3    H131825   3.185   1.508   1.363  1.1390 -0.5181  0.5051
 3422TIP3    H231826   3.201   1.643   1.295  1.1758 -0.2410  1.0525
 3423TIP3   OH231827   3.412   1.550  25.601 -0.0701 -0.0686 -0.1715
 3423TIP3    H131828   3.502   1.576  25.623 -0.1091  0.2533 -0.4010
 3423TIP3    H231829   3.363   1.631  25.600 -0.7421 -0.3941  1.6401
 3424TIP3   OH231830   2.393   0.410  28.817 -0.0427  0.5112  0.2631
 3424TIP3    H131831   2.441   0.329  28.836  0.7456  0.7049 -0.8406
 3424TIP3    H231832   2.452   0.479  28.846 -0.3107  0.7193  0.3124
 3425TIP3   OH231833   2.349   1.249   7.201 -0.0242 -0.4085  0.4902
 3425TIP3    H131834   2.433   1.208   7.181  1.0310  0.9812  1.8054
 3425TIP3    H231835   2.285   1.199   7.150  1.8415 -0.0857 -2.4045
 3426TIP3   OH231836   1.812   0.242  30.203  0.2687  0.2011  0.2412
 3426TIP3    H131837   1.884   0.248  30.266 -0.2808 -0.1803  0.9287
 3426TIP3    H231838   1.847   0.278  30.122  1.6390 -1.1083  0.2072
 3427TIP3   OH231839   2.704   2.514   5.043 -0.1545 -0.0413  0.2162
 3427TIP3    H131840   2.631   2.454   5.026 -1.3019  0.6674  2.2327
 3427TIP3    H231841   2.676   2.563   5.120  2.4974  0.2579  1.0679
 3428TIP3   OH231842   2.026   1.777  27.862  0.2226 -0.0607  0.1874
 3428TIP3    H131843   1.986   1.699  27.824  0.1308 -0.1781  0.5176
 3428TIP3    H231844   2.053   1.749  27.950  2.3065 -0.4159 -0.4925
 3429TIP3   OH231845   2.963   0.441   0.284 -0.1892 -0.6902  0.3747
 3429TIP3    H131846   2.912   0.521   0.271  1.9907  0.8040  0.4677
 3429TIP3    H231847   2.962   0.398   0.199  0.9069  0.9098 -0.4933
 3430TIP3   OH231848   2.156   1.555  29.514 -0.3028  0.1222  0.6557
 3430TIP3    H131849   2.115   1.630  29.556  0.0143 -0.2090  1.5846
 3430TIP3    H231850   2.245   1.583  29.494 -0.2523  0.0629  0.8004
 3431TIP3   OH231851   2.160   2.226   3.488  0.2079  0.0191  0.2446
 3431TIP3    H131852   2.124   2.212   3.576  0.5368 -0.7234  0.2640
 3431TIP3    H231853   2.226   2.158   3.478  2.6900  2.1996  0.7571
 3432TIP3   OH231854   1.468   0.659  27.135  0.1799  1.0243  0.1431
 3432TIP3    H131855   1.407   0.677  27.063 -0.0567 -1.4102 -0.3577
 3432TIP3    H231856   1.536   0.604  27.095 -0.6701 -1.5453  1.9778
 3433TIP3   OH231857   1.447   1.381   2.761  0.0434 -0.2079 -0.5237
 3433TIP3    H131858   1.482   1.466   2.733 -0.9119  0.2849 -0.2752
 3433TIP3    H231859   1.450   1.326   2.682  0.1225  0.2450 -0.8394
 3434TIP3   OH231860   0.235   1.337   2.740  0.3634 -0.1481 -0.0183
 3434TIP3    H131861   0.196   1.334   2.827  0.3020  0.1580 -0.0315
 3434TIP3    H231862   0.324   1.369   2.755  0.7432 -1.2033  0.0518
 3435TIP3   OH231863   2.979   0.867   7.239  0.4882 -0.3111  0.0197
 3435TIP3    H131864   3.030   0.938   7.201  0.5882 -0.9714 -1.1042
 3435TIP3    H231865   2.915   0.843   7.172  0.3077 -1.1421  0.4651
 3436TIP3   OH231866   0.358   0.284  30.698 -0.0781 -0.3921 -0.2243
 3436TIP3    H131867   0.400   0.255  30.617 -0.1547  0.1377 -0.4569
 3436TIP3    H231868   0.390   0.374  30.710 -1.9563  0.4213 -0.9773
 3437TIP3   OH231869   2.812   1.246   4.435 -0.1237  0.1314 -0.4247
 3437TIP3    H131870   2.742   1.203   4.485 -0.6883  1.1942 -0.2773
 3437TIP3    H231871   2.885   1.184   4.439 -0.3028 -0.0299  1.3343
 3438TIP3   OH231872   3.089   1.390  28.093 -0.3547  0.3267 -0.1329
 3438TIP3    H131873   3.124   1.338  28.020 -3.0748  0.3354 -1.5645
 3438TIP3    H231874   3.015   1.339  28.126  0.0744  0.9262  1.8648
 3439TIP3   OH231875   2.676   2.065   5.954  0.2432  0.3067 -0.0832
 3439TIP3    H131876   2.731   2.141   5.967  1.4210 -0.5264 -0.0642
 3439TIP3    H231877   2.675   2.020   6.039 -2.4094  1.5165  0.6256
 3440TIP3   OH231878   3.349   2.363   1.852 -1.0651  0.8445 -0.3901
 3440TIP3    H131879   3.385   2.444   1.886 -0.5128 -0.0437  1.2601
 3440TIP3    H231880   3.424   2.316   1.816 -1.1114  0.4152  0.0572
 3441TIP3   OH231881   2.801   0.052   2.947 -0.1306 -0.2673 -0.0168
 3441TIP3    H131882   2.746   0.097   2.883 -2.3372 -0.0126  1.9128
 3441TIP3    H231883   2.804   0.112   3.022  0.8730 -1.3036  0.8115
 3442TIP3   OH231884   3.228   0.391  30.646  0.3455 -0.4915 -0.8529
 3442TIP3    H131885   3.177   0.450  30.591  1.0942  0.6524 -0.3658
 3442TIP3    H231886   3.314   0.432  30.652  0.5309 -1.0193  0.4787
 3443TIP3   OH231887   2.168   3.345   2.371 -0.0756  0.1429  0.3382
 3443TIP3    H131888   2.255   3.314   2.396  0.7160  2.3242  0.4759
 3443TIP3    H231889   2.116   3.336   2.451  0.2874 -0.2058  0.5409
 3444TIP3   OH231890   3.278   0.408  11.674  0.7735 -0.3852 -0.3171
 3444TIP3    H131891   3.256   0.315  11.663 -0.8399  0.0551 -1.0961
 3444TIP3    H231892   3.215   0.454  11.619  1.8921  1.1584 -0.3531
 3445TIP3   OH231893   2.708   1.571  32.544 -0.7034 -0.2177 -0.0969
 3445TIP3    H131894   2.674   1.648  32.498  0.1515  0.6222  0.6490
 3445TIP3    H231895   2.710   1.597  32.636  0.9033 -0.6332  0.0083
 3446TIP3   OH231896   2.061   1.265   0.471  0.9157 -0.0082 -0.3492
 3446TIP3    H131897   2.048   1.357   0.449  2.4500  0.3758  0.2170
 3446TIP3    H231898   2.064   1.263   0.566  2.7332 -0.3260 -0.3752
 3447TIP3   OH231899   0.018   1.259  27.585  0.0155 -0.4900  0.5892
 3447TIP3    H131900  -0.054   1.317  27.557  0.1974 -1.1928 -1.4891
 3447TIP3    H231901   0.097   1.309  27.566  0.1874 -1.4749 -1.5596
 3448TIP3   OH231902   3.336   3.063   5.398 -0.2182 -0.1559  0.3811
 3448TIP3    H131903   3.374   2.984   5.436 -0.9474 -0.2494  0.9280
 3448TIP3    H231904   3.409   3.105   5.351  0.4511 -0.5522  1.0557
 3449TIP3   OH231905   1.386   0.146   7.308 -0.3188 -0.3573  0.4812
 3449TIP3    H131906   1.398   0.114   7.218 -1.3251 -0.6287  0.4325
 3449TIP3    H231907   1.359   0.069   7.358  1.7462 -0.5661  1.3892
 3450TIP3   OH231908   1.057   3.021   4.425 -0.1296  0.3283 -0.3409
 3450TIP3    H131909   1.083   2.948   4.368  0.9395  0.8095 -0.4947
 3450TIP3    H231910   1.071   3.099   4.372  1.1842  0.8081  0.6449
 3451TIP3   OH231911   1.520   2.023  23.207 -0.0193 -0.0243  0.5109
 3451TIP3    H131912   1.579   2.071  23.149  0.5954  1.3974  2.2153
 3451TIP3    H231913   1.559   2.031  23.293 -1.2108 -1.5654  1.2422
 3452TIP3   OH231914   2.295   0.976  31.769  0.4328  0.0275 -0.0768
 3452TIP3    H131915   2.358   1.022  31.714  0.6752  0.8897  0.8853
 3452TIP3    H231916   2.256   1.044  31.823  0.2501 -0.7883  0.8561
 3453TIP3   OH231917   3.402   0.171  30.985 -0.4822 -0.1901  0.5317
 3453TIP3    H131918   3.489   0.209  30.993 -0.8380  0.7033  0.2677
 3453TIP3    H231919   3.377   0.186  30.894 -0.7035 -0.9243  0.4603
 3454TIP3   OH231920   1.724   2.920   6.475 -0.4039  0.5857 -0.1227
 3454TIP3    H131921   1.791   2.877   6.421 -0.4393 -0.0442  0.3272
 3454TIP3    H231922   1.743   3.014   6.466 -0.8437  0.5532 -1.8061
 3455TIP3   OH231923   1.504   3.448   0.886  0.2646 -0.0562 -0.6913
 3455TIP3    H131924   1.503   3.510   0.959 -0.6248 -1.6102  0.6828
 3455TIP3    H231925   1.574   3.480   0.828 -0.0051  2.0583  0.0633
 3456TIP3   OH231926   0.605   2.675   7.373 -0.2819 -0.1509  0.2423
 3456TIP3    H131927   0.528   2.719   7.409  0.7432  0.6588  1.5754
 3456TIP3    H231928   0.588   2.582   7.387 -0.1848  0.0979  2.4128
 3457TIP3   OH231929   3.376   1.826  29.142  0.1963  0.3149  0.2719
 3457TIP3    H131930   3.411   1.830  29.231 -0.8916 -0.6291  0.7629
 3457TIP3    H231931   3.325   1.746  29.139 -2.1147  1.6981 -0.3260
 3458TIP3   OH231932   2.369   2.445  10.154  0.8853  0.6153  0.2844
 3458TIP3    H131933   2.283   2.452  10.196  1.1132  1.6085  0.6297
 3458TIP3    H231934   2.351   2.415  10.065  0.0624  1.9310 -0.0207
 3459TIP3   OH231935   2.726   0.236   0.669  0.0790  0.0326  0.5535
 3459TIP3    H131936   2.764   0.148   0.672 -1.6000 -0.7032  1.0568
 3459TIP3    H231937   2.717   0.255   0.576 -0.8298 -0.9240  0.4278
 3460TIP3   OH231938   3.009   2.065   4.025 -0.1646  0.1703 -0.1159
 3460TIP3    H131939   2.962   2.105   4.098 -0.4883  0.2084 -0.3394
 3460TIP3    H231940   2.999   1.971   4.039  1.0510  0.1504  0.7013
 3461TIP3   OH231941   2.635   1.514   7.273  0.7726  0.3691  0.1695
 3461TIP3    H131942   2.603   1.466   7.350 -0.0921 -0.9693 -0.9824
 3461TIP3    H231943   2.725   1.483   7.262  0.0779 -1.4738 -0.8497
 3462TIP3   OH231944   0.190   2.986   2.767 -0.0052 -0.0935 -0.0425
 3462TIP3    H131945   0.197   3.082   2.767  0.3813 -0.1161 -1.1110
 3462TIP3    H231946   0.230   2.960   2.850  0.2117  0.6515  0.0974
 3463TIP3   OH231947   2.203   2.463  20.798  0.0752 -0.0630  0.2345
 3463TIP3    H131948   2.220   2.376  20.761  1.0113  0.3513 -0.3490
 3463TIP3    H231949   2.271   2.473  20.865 -0.1361  0.1534  0.4140
 3464TIP3   OH231950   0.216   2.244   3.902 -0.1424  0.5716 -0.1226
 3464TIP3    H131951   0.300   2.237   3.857 -0.0134 -1.1317  0.3128
 3464TIP3    H231952   0.224   2.321   3.958  1.0185  0.5893 -0.3018
 3465TIP3   OH231953   0.897   1.981  24.387  0.1092  0.0236  0.1716
 3465TIP3    H131954   0.805   1.979  24.364  0.2117 -0.5101 -0.1955
 3465TIP3    H231955   0.940   1.927  24.321  1.1123  2.7727 -1.5838
 3466TIP3   OH231956   0.985   2.675  11.562 -0.0664 -0.2103  0.0108
 3466TIP3    H131957   0.958   2.763  11.535  0.4761  0.0214  0.2089
 3466TIP3    H231958   1.025   2.637  11.483  1.3308  0.3909  0.3887
 3467TIP3   OH231959   0.228   3.263   2.769 -0.0910 -0.0372 -0.3296
 3467TIP3    H131960   0.147   3.293   2.810  0.3000  0.3641  0.1665
 3467TIP3    H231961   0.293   3.329   2.794  0.1666  0.1980 -1.5596
 3468TIP3   OH231962   2.715   2.200  19.435  0.5890  0.0230  0.3007
 3468TIP3    H131963   2.656   2.155  19.374  0.7147 -0.1615  0.3138
 3468TIP3    H231964   2.657   2.238  19.500  0.2878  1.8210 -0.9529
 3469TIP3   OH231965   1.478   3.034   5.565  0.1136 -0.1324 -0.2521
 3469TIP3    H131966   1.546   2.998   5.621 -0.6997 -0.9768  0.2271
 3469TIP3    H231967   1.493   3.128   5.566  0.8947 -0.2546  0.3323
 3470TIP3   OH231968   2.469   1.710   5.951 -0.1642  0.5243 -0.4772
 3470TIP3    H131969   2.463   1.790   5.899  2.1236  0.5105 -0.9030
 3470TIP3    H231970   2.463   1.740   6.041 -1.0209  0.9452 -0.6646
 3471TIP3   OH231971   2.939   1.522   7.484  0.4006 -0.7742 -0.4619
 3471TIP3    H131972   2.939   1.470   7.403  1.5607  1.4281 -1.9773
 3471TIP3    H231973   2.969   1.609   7.457 -2.4957  1.1039  1.7032
 3472TIP3   OH231974   0.613   1.201  31.574  0.2822  0.3350  0.1819
 3472TIP3    H131975   0.636   1.146  31.500  1.5756  1.0029  0.0624
 3472TIP3    H231976   0.597   1.139  31.646 -0.6817 -0.2949 -0.5606
 3473TIP3   OH231977   2.862   3.154  11.948  0.2919  0.3962 -0.2345
 3473TIP3    H131978   2.879   3.248  11.947 -0.2876  0.5040 -0.8585
 3473TIP3    H231979   2.773   3.146  11.913 -0.8604 -0.1386  2.5169
 3474TIP3   OH231980   1.105   2.094   1.615  0.0074 -0.2759  0.3018
 3474TIP3    H131981   1.120   2.176   1.663  0.7216  0.3983 -0.9865
 3474TIP3    H231982   1.192   2.054   1.610  0.0387 -0.1023 -0.7896
 3475TIP3   OH231983   2.947   3.336   2.750  0.6938 -0.1058  0.2058
 3475TIP3    H131984   2.957   3.406   2.685  1.3252 -2.6721 -2.6752
 3475TIP3    H231985   2.853   3.322   2.755  0.6631 -0.2292 -0.5870
 3476TIP3   OH231986   1.531   2.362  23.421  0.2935  0.0683 -0.6067
 3476TIP3    H131987   1.615   2.326  23.448  0.8103  1.6673  0.0194
 3476TIP3    H231988   1.531   2.354  23.326 -0.6016 -3.5859 -0.4486
 3477TIP3   OH231989   2.877   1.153   2.767 -0.3780  0.5871 -0.0369
 3477TIP3    H131990   2.905   1.230   2.817  1.2583 -0.6251  1.0284
 3477TIP3    H231991   2.938   1.148   2.694  0.4410 -0.4657  0.6913
 3478TIP3   OH231992   1.845   1.567   7.325  0.2719  0.1614  0.1414
 3478TIP3    H131993   1.759   1.533   7.347  0.1910 -1.0733 -1.7916
 3478TIP3    H231994   1.836   1.598   7.235  1.1914  2.4890  0.7789
 3479TIP3   OH231995   2.512   1.554   6.965 -0.0535 -0.0211 -0.1102
 3479TIP3    H131996   2.425   1.543   6.927 -0.8795 -2.1571  2.1125
 3479TIP3    H231997   2.558   1.473   6.944  1.1860  0.7832 -0.6269
 3480TIP3   OH231998   1.927   3.230   2.303  0.5344 -0.3456 -0.0724
 3480TIP3    H131999   1.931   3.185   2.219 -0.1795 -0.1500 -0.2165
 3480TIP3    H232000   2.014   3.267   2.315  0.5726 -0.1810 -0.8324
 3481TIP3   OH232001   0.511   0.066   6.252 -0.0244  0.1642  0.0639
 3481TIP3    H132002   0.603   0.091   6.244 -0.2859  0.4741 -3.1524
 3481TIP3    H232003   0.463   0.138   6.211 -1.4920 -1.0967 -0.5395
 3482TIP3   OH232004   3.099   3.505  29.962 -0.0624  0.3358  0.1133
 3482TIP3    H132005   3.161   3.543  29.901 -0.2812  1.0237  0.3070
 3482TIP3    H232006   3.147   3.498  30.044 -0.3153  1.1553  0.3454
 3483TIP3   OH232007   1.891   1.684  27.501 -1.1502  0.2042 -0.8481
 3483TIP3    H132008   1.842   1.613  27.543  0.3864  0.1205  0.9345
 3483TIP3    H232009   1.982   1.653  27.500 -0.7372  1.3759 -1.7782
 3484TIP3   OH232010   3.307   0.846   1.428  0.0200  0.3350 -0.3041
 3484TIP3    H132011   3.296   0.939   1.450 -0.5304  0.1335  0.3209
 3484TIP3    H232012   3.297   0.800   1.512  0.3945 -0.2843 -0.5901
 3485TIP3   OH232013   1.334   1.829  26.259  0.1838 -0.5541 -0.3295
 3485TIP3    H132014   1.403   1.793  26.314  0.1752 -0.3690 -0.1989
 3485TIP3    H232015   1.365   1.916  26.234 -0.1439 -0.3468 -0.0111
 3486TIP3   OH232016   1.428   0.592   3.163  0.2336  0.2166 -0.4264
 3486TIP3    H132017   1.507   0.564   3.210 -0.2102  0.5306  0.5208
 3486TIP3    H232018   1.425   0.535   3.085 -0.9430 -2.8438  1.6638
 3487TIP3   OH232019   0.759   3.063   6.376 -0.1321  0.5633  0.2120
 3487TIP3    H132020   0.771   3.118   6.298 -0.3405  1.2509  0.6565
 3487TIP3    H232021   0.831   3.086   6.434 -0.5212  0.7559  0.6246
 3488TIP3   OH232022   0.504   0.439   4.823 -0.8504 -0.1855  0.5699
 3488TIP3    H132023   0.576   0.378   4.839 -1.6401 -1.0454  0.9674
 3488TIP3    H232024   0.517   0.509   4.887  0.4610  0.4426 -0.3539
 3489TIP3   OH232025   0.551   1.063  27.590  0.1439 -0.0095  0.1378
 3489TIP3    H132026   0.482   1.082  27.526  0.6513  1.1961 -0.0886
 3489TIP3    H232027   0.592   0.983  27.559 -0.7463 -0.3924 -0.0731
 3490TIP3   OH232028   2.131   3.165   4.342 -0.4516  0.1670 -0.0714
 3490TIP3    H132029   2.178   3.097   4.295  0.5487  1.1971 -0.6074
 3490TIP3    H232030   2.159   3.247   4.301  0.4897  1.1222  2.2915
 3491TIP3   OH232031   2.542   0.645   1.051  0.4142  0.0890 -0.4760
 3491TIP3    H132032   2.458   0.627   1.009  0.2718 -0.7386  0.1454
 3491TIP3    H232033   2.594   0.565   1.037 -0.0861 -0.7653  1.9862
 3492TIP3   OH232034   1.023   0.767   3.646 -0.6678  0.3825  0.3880
 3492TIP3    H132035   0.961   0.785   3.575 -1.0461  1.7781  1.0453
 3492TIP3    H232036   1.078   0.844   3.650  1.1084 -0.8008 -0.1131
 3493TIP3   OH232037   1.526   2.809   5.368  0.1218  0.8407  0.2922
 3493TIP3    H132038   1.484   2.781   5.449  0.0532  1.6518  0.5404
 3493TIP3    H232039   1.557   2.898   5.385  0.6438  0.8019 -0.3725
 3494TIP3   OH232040   3.028   2.267  26.488 -0.0094  0.9330  0.6641
 3494TIP3    H132041   3.039   2.179  26.452  0.2579  1.7459 -1.3969
 3494TIP3    H232042   2.936   2.288  26.473  0.0402  1.1754  0.6829
 3495TIP3   OH232043   0.325   3.464   4.281 -0.1434  0.2022  0.3257
 3495TIP3    H132044   0.287   3.385   4.320  0.1038 -0.2331 -0.2933
 3495TIP3    H232045   0.314   3.452   4.186 -1.9815  1.8835  0.2795
 3496TIP3   OH232046   1.184   2.633   3.751  0.0055 -0.2939  0.0933
 3496TIP3    H132047   1.117   2.569   3.774 -1.0244  0.9746  0.7459
 3496TIP3    H232048   1.247   2.628   3.822 -0.5461  0.0414  0.6161
 3497TIP3   OH232049   2.955   1.895  28.303  0.0099  0.3669  0.7921
 3497TIP3    H132050   2.893   1.908  28.232 -1.2659  1.3156  2.0167
 3497TIP3    H232051   3.041   1.915  28.265 -0.6217  0.6777 -0.5047
 3498TIP3   OH232052   3.282   2.353  27.425  0.0580  0.5475  0.6248
 3498TIP3    H132053   3.335   2.314  27.356 -1.1698 -1.9274  0.9537
 3498TIP3    H232054   3.226   2.416  27.380  1.9248  1.8516  0.0176
 3499TIP3   OH232055   3.326   2.299   6.064 -0.0003 -0.0493 -0.4972
 3499TIP3    H132056   3.250   2.340   6.023 -0.3252 -0.9287 -0.7936
 3499TIP3    H232057   3.377   2.264   5.991 -1.2191 -2.7462 -0.1684
 3500TIP3   OH232058   1.261   0.646   4.708  0.1746 -0.3029  0.4499
 3500TIP3    H132059   1.231   0.647   4.617 -1.4570 -0.2424  0.9530
 3500TIP3    H232060   1.243   0.556   4.737  2.4274 -0.8876  0.2072
 3501TIP3   OH232061   3.456   0.877   0.922 -0.3765  0.3977  0.3916
 3501TIP3    H132062   3.375   0.827   0.932 -0.2545  0.2094  0.4341
 3501TIP3    H232063   3.480   0.901   1.012 -0.1788  0.1301  0.4074
 3502TIP3   OH232064   0.338   0.989   2.140  0.1217  0.3612  0.2622
 3502TIP3    H132065   0.329   0.897   2.163 -1.2905  0.8515  1.9188
 3502TIP3    H232066   0.385   1.027   2.214  0.4543  1.0133 -0.2782
 3503TIP3   OH232067   3.237   1.560  19.884  0.0848  0.2305  0.5458
 3503TIP3    H132068   3.184   1.635  19.912 -2.3944 -1.2782  0.2851
 3503TIP3    H232069   3.204   1.540  19.796 -0.4853 -2.0763  1.2290
 3504TIP3   OH232070   0.967   1.947   2.229 -0.2717  0.5695 -0.4953
 3504TIP3    H132071   0.902   1.924   2.296  0.5744 -0.3355  0.0407
 3504TIP3    H232072   0.927   1.918   2.147 -0.6468  0.2247 -0.2021
 3505TIP3   OH232073   1.155   1.442  32.793  0.3650 -0.3351 -0.5381
 3505TIP3    H132074   1.063   1.433  32.817  0.3614  0.3903 -0.2224
 3505TIP3    H232075   1.200   1.453  32.877  0.8147 -1.2367 -0.6529
 3506TIP3   OH232076   0.858   1.466  28.123 -0.0468 -0.2650  0.1530
 3506TIP3    H132077   0.873   1.372  28.124  2.3211  0.0325  2.6850
 3506TIP3    H232078   0.924   1.501  28.063  2.1950  0.0441  2.6052
 3507TIP3   OH232079   0.792   0.335  27.484 -0.0365 -0.8100  0.2514
 3507TIP3    H132080   0.751   0.376  27.408  0.7412  0.7131  0.6196
 3507TIP3    H232081   0.874   0.299  27.451  1.6049  2.1313  0.7635
 3508TIP3   OH232082   1.828   1.200  27.682  0.0495 -0.2163  0.2089
 3508TIP3    H132083   1.772   1.135  27.640 -0.7132  0.4511  0.1745
 3508TIP3    H232084   1.875   1.150  27.749  0.2087 -0.9938 -0.4646
 3509TIP3   OH232085   0.931   0.520   3.083  0.6012 -0.5341 -0.0452
 3509TIP3    H132086   1.009   0.567   3.113  1.1762 -1.5888  0.1355
 3509TIP3    H232087   0.951   0.495   2.993  0.6182 -1.1358  0.1280
 3510TIP3   OH232088   3.300   3.285   3.086  0.2500 -0.5277 -0.0965
 3510TIP3    H132089   3.372   3.225   3.102 -1.4871 -2.1664  2.4352
 3510TIP3    H232090   3.337   3.372   3.101  1.4908 -1.3755  2.3727
 3511TIP3   OH232091   0.811   0.075  32.471 -0.1617 -0.0616 -0.0730
 3511TIP3    H132092   0.829   0.098  32.380  0.4959  2.4353  0.6286
 3511TIP3    H232093   0.876   0.008  32.492  0.3323  0.0704 -1.1124
 3512TIP3   OH232094   0.645   2.864   2.247 -0.2747 -0.2686  0.0746
 3512TIP3    H132095   0.613   2.796   2.307  0.5398  0.2826  1.1703
 3512TIP3    H232096   0.571   2.924   2.238 -0.9382 -1.1678 -0.7478
 3513TIP3   OH232097   2.899   0.800  28.900  0.1001  0.7021 -0.1402
 3513TIP3    H132098   2.836   0.829  28.834  0.5315 -1.2263 -1.5041
 3513TIP3    H232099   2.902   0.705  28.888  1.2293  0.4706  1.7674
 3514TIP3   OH232100   1.775   2.914   3.854  0.1493 -0.3783 -0.2552
 3514TIP3    H132101   1.866   2.899   3.882  0.2613 -1.1243 -0.9744
 3514TIP3    H232102   1.740   2.826   3.840 -0.8853 -0.1124  0.6191
 3515TIP3   OH232103   2.429   2.739  11.800 -1.1223 -0.2430 -0.0436
 3515TIP3    H132104   2.508   2.707  11.756  1.5011  2.7207  2.0845
 3515TIP3    H232105   2.431   2.696  11.886  0.3225  2.4525  1.3790
 3516TIP3   OH232106   2.207   1.817  31.524  0.0481  0.3661  0.0603
 3516TIP3    H132107   2.201   1.760  31.600 -0.7930  1.0801  0.5399
 3516TIP3    H232108   2.288   1.789  31.480 -1.1984 -2.3750 -0.7087
 3517TIP3   OH232109   2.994   3.397  11.978  0.2295 -0.0542 -0.5077
 3517TIP3    H132110   3.035   3.401  12.065 -0.5281  0.2908 -0.1568
 3517TIP3    H232111   2.978   3.489  11.955  0.7519 -0.1242 -1.1764
 3518TIP3   OH232112   2.601   2.376   2.992 -0.4963  0.3264  0.0244
 3518TIP3    H132113   2.576   2.403   2.904  0.5469  0.7096 -0.1718
 3518TIP3    H232114   2.587   2.454   3.046 -1.5065 -0.0258  0.2766
 3519TIP3   OH232115   3.292   0.148  28.369  0.0469 -0.3002  0.3874
 3519TIP3    H132116   3.249   0.202  28.302 -1.6363 -0.0741  1.5986
 3519TIP3    H232117   3.334   0.212  28.427  0.6550 -0.4493  0.1156
 3520TIP3   OH232118   3.469   1.495   0.175  0.1216 -0.5001  0.4793
 3520TIP3    H132119   3.402   1.434   0.206 -1.0192 -0.3439 -1.4757
 3520TIP3    H232120   3.420   1.564   0.130  1.5728 -1.5238 -3.0145
 3521TIP3   OH232121   0.434   1.452  23.269  0.0554 -0.1680  0.3007
 3521TIP3    H132122   0.449   1.375  23.323  2.9065  0.3284  0.3735
 3521TIP3    H232123   0.450   1.526  23.328 -0.2926  0.4334 -0.3378
 3522TIP3   OH232124   0.995   2.898  10.775 -0.4314 -0.3219  0.5224
 3522TIP3    H132125   1.016   2.815  10.818 -0.3030 -0.7347 -0.3022
 3522TIP3    H232126   0.925   2.936  10.828 -0.6592 -1.0756  0.7748
 3523TIP3   OH232127   1.314   0.383   1.471  0.2657  0.1435 -0.1469
 3523TIP3    H132128   1.246   0.416   1.412 -0.3938 -0.5993  0.1789
 3523TIP3    H232129   1.278   0.302   1.506  0.8415  0.3292  0.9277
 3524TIP3   OH232130   3.445   2.896  28.835 -0.3180 -0.4389 -0.2588
 3524TIP3    H132131   3.499   2.886  28.756 -0.1062 -2.5979  0.0849
 3524TIP3    H232132   3.508   2.899  28.907 -0.4939  1.9161 -0.1457
 3525TIP3   OH232133   1.233   1.153   4.131 -0.4890 -0.4337  0.2006
 3525TIP3    H132134   1.262   1.134   4.042  0.0342 -0.8937  0.4639
 3525TIP3    H232135   1.207   1.068   4.166 -0.0349 -0.3572  0.7204
 3526TIP3   OH232136   1.321   3.509  32.830 -0.7768 -0.0558  0.5282
 3526TIP3    H132137   1.246   3.564  32.808 -1.5231 -1.4969 -0.7541
 3526TIP3    H232138   1.283   3.424  32.852  0.3842 -0.3093  1.6676
 3527TIP3   OH232139   3.127   2.544   5.597  0.0003 -0.1499 -0.2850
 3527TIP3    H132140   3.197   2.576   5.655 -2.0966  1.7342  1.3706
 3527TIP3    H232141   3.126   2.607   5.525 -1.7217  1.5426  1.1198
 3528TIP3   OH232142   1.346   3.461  10.258 -0.7137 -0.5502  0.4429
 3528TIP3    H132143   1.344   3.538  10.201  0.2409 -0.7825  0.0823
 3528TIP3    H232144   1.363   3.496  10.345  2.5536 -0.4729 -0.0846
 3529TIP3   OH232145   2.765   2.848   1.139 -0.3056 -0.2307  0.3865
 3529TIP3    H132146   2.685   2.835   1.087 -0.6375  1.9419  0.2603
 3529TIP3    H232147   2.742   2.816   1.226 -0.4436 -1.9472 -0.2311
 3530TIP3   OH232148   1.809   1.560  31.796 -0.1670 -0.0915 -0.0738
 3530TIP3    H132149   1.842   1.470  31.785 -0.6455 -0.2991  0.1628
 3530TIP3    H232150   1.735   1.551  31.855 -1.5178  0.1849 -1.6661
 3531TIP3   OH232151   1.563   2.684  21.711 -0.2706 -0.2696 -0.5482
 3531TIP3    H132152   1.502   2.744  21.753 -1.2883  0.2529 -2.6158
 3531TIP3    H232153   1.650   2.714  21.739 -0.8487  0.8429  0.1140
 3532TIP3   OH232154   2.457   1.027  26.979  0.7006 -0.3395  0.1107
 3532TIP3    H132155   2.443   1.103  27.036  1.0257 -0.2327  0.0459
 3532TIP3    H232156   2.487   0.958  27.038  0.5976 -0.3608  0.1380
 3533TIP3   OH232157   3.350   0.059   5.870 -0.1910  0.5501 -0.1274
 3533TIP3    H132158   3.255   0.066   5.864 -0.1068  0.6790 -1.7556
 3533TIP3    H232159   3.369   0.073   5.963 -1.9266 -1.6806  0.6706
 3534TIP3   OH232160   3.416   2.439   2.827  0.2248  0.4874  0.2862
 3534TIP3    H132161   3.479   2.479   2.887  0.8865 -0.6039  0.3272
 3534TIP3    H232162   3.450   2.460   2.740  0.0265  0.8532  0.2919
 3535TIP3   OH232163   0.118   2.644   1.201 -0.8801 -0.2862 -0.0604
 3535TIP3    H132164   0.211   2.664   1.198 -1.1507  1.1430 -3.0364
 3535TIP3    H232165   0.103   2.588   1.124 -2.3474 -1.2937  0.8994
 3536TIP3   OH232166   0.220   3.354  12.078 -0.3960 -0.3967  0.1656
 3536TIP3    H132167   0.183   3.429  12.124 -0.1937 -0.2261  0.0522
 3536TIP3    H232168   0.144   3.307  12.043 -0.4861  0.1824 -0.4258
 3537TIP3   OH232169   0.064   3.176   2.460  0.6509 -0.1524  0.5061
 3537TIP3    H132170   0.084   3.270   2.459 -0.6327  0.1367  1.1736
 3537TIP3    H232171   0.148   3.134   2.441  0.9665  1.1638 -1.2714
 3538TIP3   OH232172   0.026   3.179  29.195 -0.0165 -0.0191 -0.3480
 3538TIP3    H132173   0.024   3.176  29.291 -2.1228 -0.3307 -0.3505
 3538TIP3    H232174   0.069   3.097  29.170  0.5853  0.0785  0.3090
 3539TIP3   OH232175   1.863   2.845  14.090  0.0488  0.3356 -0.2282
 3539TIP3    H132176   1.852   2.932  14.051  0.4437  0.6005  0.2437
 3539TIP3    H232177   1.774   2.812  14.098  0.0060 -0.3026 -2.6085
 3540TIP3   OH232178   1.830   1.808   1.705  0.1163  0.4461 -0.3856
 3540TIP3    H132179   1.807   1.894   1.743  1.3522  0.4508  0.4001
 3540TIP3    H232180   1.892   1.828   1.635 -0.6275  0.2760 -1.1106
 3541TIP3   OH232181   1.475   1.014   1.715  0.2793 -0.0159  0.5733
 3541TIP3    H132182   1.452   1.061   1.635 -1.1682 -1.8294 -0.1447
 3541TIP3    H232183   1.433   1.064   1.785 -0.0731  0.5246 -0.0123
 3542TIP3   OH232184   3.275   3.314   7.387 -0.4002  0.0234 -0.7586
 3542TIP3    H132185   3.186   3.326   7.353 -0.0192  0.2747 -1.6803
 3542TIP3    H232186   3.279   3.221   7.410 -1.5457  0.3920  1.1900
 3543TIP3   OH232187   2.710   3.345   3.683 -0.0953 -0.5886  0.2184
 3543TIP3    H132188   2.728   3.438   3.700  0.4506 -0.8115  0.8923
 3543TIP3    H232189   2.741   3.331   3.594 -1.2323  0.1393 -0.3254
 3544TIP3   OH232190   1.202   2.780  13.337  0.2422  0.3638  0.4776
 3544TIP3    H132191   1.160   2.758  13.420  1.3943 -0.3176  0.9068
 3544TIP3    H232192   1.140   2.838  13.294 -0.0820  1.3290  2.1320
 3545TIP3   OH232193   1.405   3.196  10.564 -0.1299  0.3184 -0.0165
 3545TIP3    H132194   1.313   3.179  10.584 -0.2872  1.3941  0.2603
 3545TIP3    H232195   1.439   3.112  10.532 -1.6624  0.3236 -1.8302
 3546TIP3   OH232196   0.123   2.967   0.958  0.2575 -0.2515 -0.3567
 3546TIP3    H132197   0.035   2.931   0.943  0.1662 -0.6904  1.0871
 3546TIP3    H232198   0.179   2.890   0.964  0.3087 -0.1167  1.2546
 3547TIP3   OH232199   1.495   2.709  31.909 -0.0321 -0.1610  0.6986
 3547TIP3    H132200   1.492   2.691  31.815 -2.1506 -0.4481  0.7571
 3547TIP3    H232201   1.500   2.804  31.916  0.7645 -0.1695  0.3130
 3548TIP3   OH232202   1.623   0.250   2.872  0.0918 -1.0115  0.3454
 3548TIP3    H132203   1.589   0.320   2.817  1.1500  0.0402  1.0004
 3548TIP3    H232204   1.632   0.175   2.812  0.3313 -0.1672 -0.7104
 3549TIP3   OH232205   3.213   2.280   2.614  0.2670  0.2145  0.3745
 3549TIP3    H132206   3.257   2.270   2.529  3.0161 -0.3284  1.7302
 3549TIP3    H232207   3.182   2.370   2.615  0.7740  0.4262 -0.9449
 3550TIP3   OH232208   2.788   1.833   4.805 -0.9221  0.1354 -0.1956
 3550TIP3    H132209   2.789   1.742   4.774 -1.9499  0.1648 -0.3632
 3550TIP3    H232210   2.703   1.842   4.848 -0.2072  0.5764  1.1797
 3551TIP3   OH232211   1.750   2.616  30.477  0.2940 -0.0849  0.0653
 3551TIP3    H132212   1.706   2.540  30.515  0.0047  0.6160  1.1484
 3551TIP3    H232213   1.726   2.612  30.384 -1.3650 -0.2000  0.4640
 3552TIP3   OH232214   3.165   1.076   3.126 -0.5920  0.0495 -0.0781
 3552TIP3    H132215   3.190   1.168   3.121  0.3920 -0.2083 -0.0305
 3552TIP3    H232216   3.175   1.043   3.037  0.7551 -0.4247  0.2235
 3553TIP3   OH232217   0.020   1.595   5.808  0.0018  0.4785 -0.3461
 3553TIP3    H132218  -0.070   1.602   5.840 -0.3598 -2.3186 -0.5462
 3553TIP3    H232219   0.011   1.556   5.721  1.4666 -2.3304  0.6523
 3554TIP3   OH232220   1.743   1.517  20.230 -0.0675 -0.0485 -0.3144
 3554TIP3    H132221   1.735   1.456  20.303  0.0145 -0.2842 -0.5043
 3554TIP3    H232222   1.701   1.473  20.156  0.3466 -0.0472 -0.5546
 3555TIP3   OH232223   0.046   1.974   1.901  0.0073  0.0488  0.6666
 3555TIP3    H132224   0.130   1.974   1.948  0.3910  3.0105  0.2182
 3555TIP3    H232225   0.058   1.910   1.831  2.2892  0.9544  0.1053
 3556TIP3   OH232226   2.228   0.836   1.125  0.2079  0.5441 -0.2567
 3556TIP3    H132227   2.302   0.827   1.185 -0.2693  1.0789  0.4340
 3556TIP3    H232228   2.152   0.809   1.177  0.0951 -1.8205 -1.4987
 3557TIP3   OH232229   1.809   1.516  28.291  0.1687  1.2170 -0.1602
 3557TIP3    H132230   1.755   1.498  28.213 -0.4136 -0.5186  0.5841
 3557TIP3    H232231   1.745   1.522  28.362  0.8553  0.0851  0.5827
 3558TIP3   OH232232   2.362   0.351  28.089  0.0375  0.3720 -0.0849
 3558TIP3    H132233   2.300   0.405  28.041 -0.3109 -0.0472 -0.1100
 3558TIP3    H232234   2.392   0.286  28.026  0.8101  0.8138 -0.1857
 3559TIP3   OH232235   3.122   2.769  14.801 -0.7086  0.0215  0.0263
 3559TIP3    H132236   3.163   2.691  14.765  2.2278  1.1357  0.6948
 3559TIP3    H232237   3.171   2.789  14.881 -2.2394  1.8079  0.6301
 3560TIP3   OH232238   0.815   0.191  30.796  0.4463 -0.7416  0.0820
 3560TIP3    H132239   0.901   0.232  30.791 -0.0798  0.3881 -0.0865
 3560TIP3    H232240   0.770   0.238  30.867 -0.3221 -0.7423 -0.3964
 3561TIP3   OH232241   2.531   1.092   2.756 -0.0202 -0.6225  0.4089
 3561TIP3    H132242   2.496   1.127   2.838 -2.4942 -2.8097  0.4273
 3561TIP3    H232243   2.615   1.136   2.745 -0.3055  0.8972  3.3008
 3562TIP3   OH232244   2.568   3.302   0.237 -0.5503  0.1738 -0.0673
 3562TIP3    H132245   2.635   3.295   0.305  0.5184 -1.1113 -1.1871
 3562TIP3    H232246   2.494   3.252   0.271  0.3388 -1.3107 -0.2232
 3563TIP3   OH232247   0.743   3.341  32.249 -0.3136  0.6636 -0.3241
 3563TIP3    H132248   0.770   3.432  32.238  0.1950  0.6631  0.8519
 3563TIP3    H232249   0.656   3.337  32.208  0.4992  1.1741 -2.2069
 3564TIP3   OH232250   0.224   2.526   2.101 -0.2770 -0.2872  0.1274
 3564TIP3    H132251   0.228   2.522   2.006 -0.1061  1.1643  0.0595
 3564TIP3    H232252   0.168   2.601   2.120  0.7430  0.2516  1.1554
 3565TIP3   OH232253   1.152   3.088   5.064  0.2499  0.0423 -0.0442
 3565TIP3    H132254   1.062   3.055   5.062  0.6754 -1.1392 -2.3946
 3565TIP3    H232255   1.149   3.168   5.012  0.3604  0.7089  0.9351
 3566TIP3   OH232256   2.412   2.918   3.238  0.2259  0.0301  0.5566
 3566TIP3    H132257   2.384   2.881   3.322  0.8913  0.3119  0.9059
 3566TIP3    H232258   2.341   2.894   3.177 -0.0655 -0.5319  1.0987
 3567TIP3   OH232259   2.674   0.710  28.021 -0.3280  0.4513 -0.7388
 3567TIP3    H132260   2.579   0.709  28.008 -0.2964 -0.3866 -0.9299
 3567TIP3    H232261   2.707   0.641  27.964  0.3715  0.5168 -0.4233
 3568TIP3   OH232262   1.822   1.922  20.513  0.2497  0.7468  0.1876
 3568TIP3    H132263   1.901   1.869  20.524  0.0412  0.3855 -0.0427
 3568TIP3    H232264   1.854   2.012  20.503  0.5774  0.7451  1.1307
 3569TIP3   OH232265   0.697   2.634   2.821  0.6025  0.2252  0.2730
 3569TIP3    H132266   0.648   2.714   2.799 -0.7465 -0.1862  1.5872
 3569TIP3    H232267   0.666   2.569   2.759  1.0597  0.4847 -0.2392
 3570TIP3   OH232268   2.116   2.335  27.597  0.4056  0.2278  0.7695
 3570TIP3    H132269   2.136   2.338  27.503 -0.8683  0.8665  0.4999
 3570TIP3    H232270   2.171   2.404  27.635 -0.5223  1.3142  0.1878
 3571TIP3   OH232271   3.102   0.146  30.544  0.1476  0.1533  0.2634
 3571TIP3    H132272   3.149   0.063  30.536 -0.2031 -0.0886  0.6723
 3571TIP3    H232273   3.043   0.134  30.618 -1.0018  0.2180 -0.5946
 3572TIP3   OH232274   0.060   2.114  22.275 -0.1347 -0.4675  0.3474
 3572TIP3    H132275  -0.006   2.158  22.328  1.7840  2.1909  0.7758
 3572TIP3    H232276   0.063   2.165  22.194  0.4099 -1.4265 -0.2573
 3573TIP3   OH232277   2.487   2.496  30.890  0.3647  0.4336 -0.2108
 3573TIP3    H132278   2.413   2.461  30.839  0.7610  1.5893 -1.6487
 3573TIP3    H232279   2.467   2.471  30.980 -0.4219 -1.6001 -0.8894
 3574TIP3   OH232280   0.584   1.818  21.493  0.1918 -0.0268  0.0025
 3574TIP3    H132281   0.538   1.887  21.541  1.8032 -0.1194  1.8036
 3574TIP3    H232282   0.625   1.863  21.420  0.4482  0.7720  0.6246
 3575TIP3   OH232283   2.689   2.008   1.271 -0.2269 -0.2877  0.2995
 3575TIP3    H132284   2.651   1.956   1.342  2.2943 -3.0148 -0.1477
 3575TIP3    H232285   2.783   2.001   1.285  0.2803  1.8942 -1.4854
 3576TIP3   OH232286   3.530   0.281   4.870  0.1219 -0.3229  0.1068
 3576TIP3    H132287   3.602   0.340   4.891 -2.2878  2.1138  2.4033
 3576TIP3    H232288   3.496   0.314   4.787  1.0738 -0.9182 -0.5313
 3577TIP3   OH232289   2.060   2.494  31.213  0.1954  0.1598  0.2271
 3577TIP3    H132290   2.145   2.522  31.246  0.9209  0.4749 -1.7754
 3577TIP3    H232291   2.062   2.399  31.218  0.9945  0.1248 -0.5168
 3578TIP3   OH232292   1.548   2.406  19.775  0.4179  0.3756 -0.0405
 3578TIP3    H132293   1.478   2.342  19.788 -0.6086  1.6738  1.1789
 3578TIP3    H232294   1.614   2.383  19.840 -0.1465  0.7868  0.6961
 3579TIP3   OH232295   1.004   2.346   1.119 -0.4999  0.5519  0.5930
 3579TIP3    H132296   1.085   2.349   1.170  0.0412  0.2788 -0.2189
 3579TIP3    H232297   0.970   2.435   1.122  1.5726  1.5747 -1.7135
 3580TIP3   OH232298   0.469   1.859  24.691 -0.1990  0.1690 -0.1456
 3580TIP3    H132299   0.377   1.861  24.715  0.1947 -0.9235  1.6438
 3580TIP3    H232300   0.471   1.820  24.604 -1.4593  0.8823 -0.5081
 3581TIP3   OH232301   1.392   3.165  14.345 -0.5699  0.7853  0.3240
 3581TIP3    H132302   1.446   3.088  14.360 -1.2556 -0.0343 -1.2019
 3581TIP3    H232303   1.302   3.132  14.344 -0.7980  1.3628 -1.5341
 3582TIP3   OH232304   1.625   0.891  30.443  0.1615 -0.1031  0.1583
 3582TIP3    H132305   1.710   0.864  30.480  1.3620  3.2703  0.2356
 3582TIP3    H232306   1.641   0.895  30.349 -0.3305 -0.7176  0.0479
 3583TIP3   OH232307   3.300   0.993  27.170  0.4562  0.0914 -0.2444
 3583TIP3    H132308   3.247   1.061  27.128 -1.6644 -0.0209  2.0530
 3583TIP3    H232309   3.282   0.914  27.120  0.0467  0.4685 -0.7009
 3584TIP3   OH232310   3.076   1.951   2.848 -0.1376 -0.2010 -0.0912
 3584TIP3    H132311   3.093   1.998   2.766  0.1171  0.3028  0.2373
 3584TIP3    H232312   3.095   1.860   2.828  0.3569 -0.0218 -0.4759
 3585TIP3   OH232313   3.121   0.113   4.285  0.4161 -0.3043  0.0373
 3585TIP3    H132314   3.046   0.151   4.331 -0.4958  0.4934 -1.9868
 3585TIP3    H232315   3.148   0.040   4.340 -0.7037  0.4825  1.7295
 3586TIP3   OH232316   2.158   2.345   5.078 -0.3529 -0.5188  0.3624
 3586TIP3    H132317   2.126   2.434   5.064  0.9127  0.1681  1.5714
 3586TIP3    H232318   2.148   2.302   4.993 -0.7207  0.8652 -0.3185
 3587TIP3   OH232319   1.695   1.135   0.275  0.5940  0.2593 -0.5940
 3587TIP3    H132320   1.680   1.128   0.369 -0.1619  0.0633 -0.7244
 3587TIP3    H232321   1.612   1.110   0.235  0.7347  0.8757 -1.3057
 3588TIP3   OH232322   2.725   1.650  32.821  0.6322  0.5548  0.2900
 3588TIP3    H132323   2.757   1.588  32.888  1.4628  1.8684  1.1652
 3588TIP3    H232324   2.658   1.701  32.866 -1.7533 -1.1541 -1.1017
 3589TIP3   OH232325   1.672   1.620   3.627  0.4171 -0.0865 -0.3765
 3589TIP3    H132326   1.740   1.686   3.642  1.5209 -1.4957  1.2504
 3589TIP3    H232327   1.721   1.540   3.605 -0.9003 -0.3074 -2.7889
 3590TIP3   OH232328   2.779   2.861  28.975  0.0536  0.0914 -0.4247
 3590TIP3    H132329   2.839   2.827  28.909  2.0785  0.8949  0.9109
 3590TIP3    H232330   2.766   2.953  28.951 -0.6643 -0.0728 -0.6953
 3591TIP3   OH232331   3.250   1.183  19.003 -0.2082 -0.3549 -0.1360
 3591TIP3    H132332   3.328   1.221  18.964 -1.0330  0.1679 -1.3360
 3591TIP3    H232333   3.256   1.090  18.985  1.2243 -0.6815  1.7536
 3592TIP3   OH232334   1.175   0.205  30.099 -0.1338  0.4793 -0.1712
 3592TIP3    H132335   1.198   0.297  30.113  0.8202  0.7315 -2.8064
 3592TIP3    H232336   1.080   0.202  30.109 -0.0254  1.3822  1.5387
 3593TIP3   OH232337   2.678   3.520  30.458  0.4846  0.1814 -0.7536
 3593TIP3    H132338   2.706   3.558  30.374 -2.3508  1.5020 -1.2016
 3593TIP3    H232339   2.631   3.591  30.501 -0.8970 -1.4566  0.5332
 3594TIP3   OH232340   2.184   1.294  30.902 -0.3361 -0.4202 -0.5001
 3594TIP3    H132341   2.122   1.261  30.837 -0.8893  0.0514 -0.2307
 3594TIP3    H232342   2.203   1.219  30.958 -0.6378 -0.5855 -0.6155
 3595TIP3   OH232343   2.765   0.399   4.260 -0.3214 -0.0271 -0.4063
 3595TIP3    H132344   2.806   0.390   4.346  2.0380  0.6306 -1.3885
 3595TIP3    H232345   2.830   0.363   4.199 -1.5747  0.3194 -1.9950
 3596TIP3   OH232346   1.483   2.805   4.227  0.3437  0.4348 -0.6245
 3596TIP3    H132347   1.498   2.828   4.136  0.6285  1.0139 -0.4371
 3596TIP3    H232348   1.571   2.799   4.266  0.3313 -1.6586 -0.8106
 3597TIP3   OH232349   1.427   1.753   4.729 -0.0647  0.1514 -0.0978
 3597TIP3    H132350   1.429   1.768   4.634 -1.4102 -0.7957 -0.2986
 3597TIP3    H232351   1.481   1.824   4.765 -1.2188  1.8004 -1.4290
 3598TIP3   OH232352   1.660   0.558  28.336  0.2457  0.4708 -0.1183
 3598TIP3    H132353   1.581   0.587  28.291  0.3738 -1.3248 -1.6063
 3598TIP3    H232354   1.730   0.610  28.297  0.3424 -0.9874 -2.0621
 3599TIP3   OH232355   2.329   1.060  28.148 -0.8363  0.1194  0.2499
 3599TIP3    H132356   2.361   1.004  28.218  0.4229 -0.0131 -0.4020
 3599TIP3    H232357   2.253   1.014  28.113  0.8965 -1.8889 -1.1233
 3600TIP3   OH232358   0.291   1.196   4.328  0.6035  0.0712 -0.4628
 3600TIP3    H132359   0.364   1.169   4.384  0.3399  1.2709  0.5031
 3600TIP3    H232360   0.315   1.165   4.241  1.6721 -0.6473  0.0649
 3601TIP3   OH232361   2.861   3.204  31.578 -0.3671 -0.4338 -0.5751
 3601TIP3    H132362   2.957   3.202  31.581 -0.1296  2.5118 -2.0985
 3601TIP3    H232363   2.835   3.114  31.560  2.2121 -1.0607 -1.5268
 3602TIP3   OH232364   3.035   1.382   6.459  0.1021  0.5502  0.1213
 3602TIP3    H132365   2.972   1.336   6.404 -0.2805  1.0718  0.1176
 3602TIP3    H232366   3.054   1.463   6.411 -0.0580  0.9023  0.6383
 3603TIP3   OH232367   2.902   0.216   4.459  0.3505  0.1794 -0.3864
 3603TIP3    H132368   2.865   0.290   4.507 -4.1625  0.1662 -3.2393
 3603TIP3    H232369   2.845   0.142   4.482  0.9327 -0.8880 -2.2073
 3604TIP3   OH232370   2.503   0.969   4.344 -0.2869  0.3557 -0.0824
 3604TIP3    H132371   2.417   0.933   4.322 -1.1563  1.5478  1.2484
 3604TIP3    H232372   2.564   0.915   4.295 -1.7809 -0.5890 -0.9825
 3605TIP3   OH232373   1.725   1.334  26.770  0.3334 -0.0152 -0.0831
 3605TIP3    H132374   1.777   1.406  26.807 -0.9136  0.6871  0.3706
 3605TIP3    H232375   1.653   1.322  26.832  0.0752 -1.1195 -0.5769
 3606TIP3   OH232376   3.440   2.510   3.521 -0.2528 -0.4046  0.2635
 3606TIP3    H132377   3.362   2.463   3.492 -0.9426  2.7656 -4.0824
 3606TIP3    H232378   3.509   2.443   3.523 -1.9811 -2.3734 -1.2724
 3607TIP3   OH232379   0.685   2.513  28.758 -0.2300  0.1954  0.0008
 3607TIP3    H132380   0.672   2.418  28.769 -0.7887  0.3822  1.0686
 3607TIP3    H232381   0.596   2.548  28.748  0.0164  0.5309 -1.2809
 3608TIP3   OH232382   0.481   2.228  27.730 -0.4988  0.5233  0.4087
 3608TIP3    H132383   0.395   2.229  27.773 -0.4920 -2.1269  0.6252
 3608TIP3    H232384   0.530   2.161  27.777  0.9529  0.4655 -1.1074
 3609TIP3   OH232385   0.566   1.763  31.454  0.2035  0.4420 -0.0881
 3609TIP3    H132386   0.574   1.858  31.463 -2.0978  0.6143  0.9540
 3609TIP3    H232387   0.511   1.737  31.528  0.0565 -1.5839 -0.8516
 3610TIP3   OH232388   0.338   2.048  27.471 -0.6022  0.0411  0.4552
 3610TIP3    H132389   0.349   2.052  27.376  0.7665 -1.1713  0.5340
 3610TIP3    H232390   0.271   2.114  27.490 -0.9246  0.2769 -1.3452
 3611TIP3   OH232391   3.286   2.465   1.177  0.2855  0.7190  0.3061
 3611TIP3    H132392   3.293   2.533   1.110  0.1820 -0.1737 -0.6339
 3611TIP3    H232393   3.329   2.502   1.254 -1.9874  2.8800  0.6794
 3612TIP3   OH232394   3.032   0.023   2.586  0.2147  0.0131  0.5181
 3612TIP3    H132395   2.994   0.061   2.507 -0.6586 -0.9211  0.4733
 3612TIP3    H232396   3.067   0.098   2.634  1.7831  0.4946 -1.2641
 3613TIP3   OH232397   0.299   0.106   5.944  0.0356  0.2986  0.1228
 3613TIP3    H132398   0.337   0.172   6.001 -1.6257  1.0921  0.3714
 3613TIP3    H232399   0.237   0.058   5.999 -1.6284  1.1030 -0.9616
 3614TIP3   OH232400   2.835   0.491  31.086  0.0806 -0.2475 -0.4548
 3614TIP3    H132401   2.757   0.467  31.136 -0.4792 -0.3141 -1.3294
 3614TIP3    H232402   2.908   0.456  31.136 -0.4480 -0.1877  0.3763
 3615TIP3   OH232403   2.827   2.546  28.030  0.2184  0.1770  0.0575
 3615TIP3    H132404   2.767   2.609  28.071 -0.5381  0.1318 -0.9267
 3615TIP3    H232405   2.783   2.521  27.949  0.9419 -0.9237 -0.0218
 3616TIP3   OH232406   0.261   1.717   0.440  0.3609 -0.1975  0.0398
 3616TIP3    H132407   0.216   1.800   0.456  1.0079 -0.0376  1.1371
 3616TIP3    H232408   0.324   1.736   0.371  0.1984  0.1140 -0.0218
 3617TIP3   OH232409   2.127   2.267  29.909  0.3485 -0.3321  0.4146
 3617TIP3    H132410   2.187   2.312  29.969  0.7624  0.0224 -0.2570
 3617TIP3    H232411   2.163   2.283  29.822 -0.9677  0.2469 -0.0402
 3618TIP3   OH232412   0.526   1.596  24.536  0.3434 -0.2684 -0.6833
 3618TIP3    H132413   0.595   1.530  24.535 -1.1203 -1.8715 -1.6974
 3618TIP3    H232414   0.518   1.625  24.445  2.4230  3.0619  0.0039
 3619TIP3   OH232415   1.949   0.228  11.269 -0.1215 -0.3243  0.3406
 3619TIP3    H132416   1.907   0.309  11.240  1.6205  0.3926 -0.2937
 3619TIP3    H232417   1.949   0.233  11.365 -0.6252  0.0951  0.3192
 3620TIP3   OH232418   0.052   0.338   0.334  0.8849 -0.2132 -0.7702
 3620TIP3    H132419   0.090   0.364   0.250 -0.5959 -2.1032 -2.1192
 3620TIP3    H232420   0.095   0.395   0.398  2.5767  0.8379 -2.6956
 3621TIP3   OH232421   1.494   1.000  26.825  0.0245 -0.5960 -0.5015
 3621TIP3    H132422   1.557   0.941  26.867  1.0087  0.1007 -0.9325
 3621TIP3    H232423   1.546   1.044  26.757 -1.2267 -0.8480 -1.6577
 3622TIP3   OH232424   3.444   3.203   7.089 -0.0282 -0.2953 -0.6949
 3622TIP3    H132425   3.377   3.138   7.109 -0.4032 -0.3839 -2.1088
 3622TIP3    H232426   3.502   3.158   7.027 -0.3184  0.7067 -1.7253
 3623TIP3   OH232427   2.569   2.598   2.693 -0.1800  0.3371 -0.2130
 3623TIP3    H132428   2.507   2.613   2.621 -0.8938  0.0509  0.3236
 3623TIP3    H232429   2.532   2.648   2.766  1.0840  1.4611 -0.3227
 3624TIP3   OH232430   2.929   0.054  32.370 -0.7805  0.7600 -0.1920
 3624TIP3    H132431   2.989   0.090  32.436  0.5443 -0.8791 -0.4260
 3624TIP3    H232432   2.872  -0.004  32.420 -0.9531  0.8983 -0.2292
 3625TIP3   OH232433   3.545   2.607  26.034 -0.1107  0.2242 -0.0777
 3625TIP3    H132434   3.498   2.578  26.112 -2.5192 -1.2353 -1.9361
 3625TIP3    H232435   3.483   2.664  25.988  1.1442  0.8316 -1.0794
 3626TIP3   OH232436   3.036   1.384  31.481 -0.3919 -0.5130  0.7945
 3626TIP3    H132437   3.063   1.363  31.391  0.6099 -1.3185  1.2651
 3626TIP3    H232438   2.942   1.396  31.475 -0.6911 -2.7289 -0.0030
 3627TIP3   OH232439   0.686   0.814  29.951 -0.1085  0.2190  0.1854
 3627TIP3    H132440   0.655   0.750  30.015 -1.1783  0.4094 -0.1168
 3627TIP3    H232441   0.766   0.776  29.915 -1.5238 -1.7602 -1.1431
 3628TIP3   OH232442   0.982   2.928  11.761 -0.0210 -0.5219  0.5826
 3628TIP3    H132443   0.969   2.949  11.668 -1.7536  0.4422  0.9980
 3628TIP3    H232444   0.909   2.871  11.784  0.5863 -1.0377  1.2769
 3629TIP3   OH232445   3.335   3.202   4.230 -0.4395  0.0935  0.1180
 3629TIP3    H132446   3.244   3.233   4.226 -0.1434  0.8789 -1.4760
 3629TIP3    H232447   3.379   3.266   4.286 -0.9201 -0.4846  1.1851
 3630TIP3   OH232448   0.634   1.539  27.240  0.5412 -0.6842  0.2980
 3630TIP3    H132449   0.566   1.479  27.271  0.5320  0.4397  2.6450
 3630TIP3    H232450   0.596   1.580  27.162  0.3408 -3.2307 -1.0650
 3631TIP3   OH232451   0.995   1.845  31.827 -1.0039 -0.0410  0.2959
 3631TIP3    H132452   1.064   1.906  31.802  0.1314 -0.0756  3.0337
 3631TIP3    H232453   0.916   1.898  31.833 -0.9711  0.2749 -1.4356
 3632TIP3   OH232454   1.979   1.623  26.427 -0.1664  0.3469 -0.2456
 3632TIP3    H132455   1.981   1.545  26.482  1.0761  0.0413 -0.6851
 3632TIP3    H232456   1.905   1.674  26.460  0.5803  0.2276  1.7459
 3633TIP3   OH232457   1.190   3.490   5.073 -0.0445  0.4410 -0.2493
 3633TIP3    H132458   1.103   3.531   5.075 -0.1563  0.1880  1.1905
 3633TIP3    H232459   1.179   3.415   5.014 -1.2107 -0.3887  0.9598
 3634TIP3   OH232460   1.759   2.425  29.930 -0.3864  0.1716 -0.0903
 3634TIP3    H132461   1.701   2.486  29.883 -0.1715  0.2580 -0.2428
 3634TIP3    H232462   1.707   2.397  30.005 -0.6946  0.1211 -0.3168
 3635TIP3   OH232463   2.084   3.540  32.496  0.4978 -0.0311  0.4259
 3635TIP3    H132464   2.142   3.465  32.508 -1.3954 -1.5555  0.5434
 3635TIP3    H232465   2.126   3.612  32.544  2.6985 -0.7890 -0.2465
 3636TIP3   OH232466   1.228   2.144  21.446 -0.7756 -0.1724 -0.6539
 3636TIP3    H132467   1.133   2.145  21.450 -0.7415  0.0448  0.6247
 3636TIP3    H232468   1.253   2.236  21.434 -0.7007 -0.0192  0.5647
 3637TIP3   OH232469   3.150   0.435   0.490  0.1650 -0.4064  0.0136
 3637TIP3    H132470   3.098   0.449   0.411  0.9406  1.3929 -0.2384
 3637TIP3    H232471   3.098   0.475   0.560  1.0188  1.1693 -0.1996
 3638TIP3   OH232472   0.476   0.341  30.098  0.9421  0.0643  0.3240
 3638TIP3    H132473   0.404   0.383  30.051  1.6856 -0.1149 -1.0093
 3638TIP3    H232474   0.441   0.256  30.124  0.4656  0.2312  0.2355
 3639TIP3   OH232475   2.266   0.708   1.639  0.1513 -0.7341  0.2252
 3639TIP3    H132476   2.292   0.621   1.607  0.1612 -0.8152  0.4501
 3639TIP3    H232477   2.174   0.716   1.615 -0.0963 -1.1782  0.9915
 3640TIP3   OH232478   0.877   0.764  26.389 -0.4231 -0.0178  0.4751
 3640TIP3    H132479   0.898   0.821  26.316 -3.3301  0.7433  0.1230
 3640TIP3    H232480   0.781   0.759  26.389 -0.4002 -2.1702  2.5864
 3641TIP3   OH232481   2.280   1.243   1.790 -0.4199 -0.2615 -0.3933
 3641TIP3    H132482   2.289   1.202   1.704 -0.2676 -1.5918  0.2255
 3641TIP3    H232483   2.352   1.306   1.795 -0.4900 -0.1010 -1.2706
 3642TIP3   OH232484   1.810   3.272   3.847 -0.0907  0.0839 -0.3814
 3642TIP3    H132485   1.875   3.235   3.787  0.3387  1.1440 -0.5901
 3642TIP3    H232486   1.834   3.364   3.854 -0.6109  0.1414  0.8108
 3643TIP3   OH232487   1.491   0.681  32.259 -0.2321 -0.0537 -1.0676
 3643TIP3    H132488   1.503   0.766  32.299  1.0273 -0.4664 -0.5143
 3643TIP3    H232489   1.579   0.643  32.255 -0.8127 -1.5093 -0.8864
 3644TIP3   OH232490   1.339   1.391  32.164  0.2227  1.1614 -0.3558
 3644TIP3    H132491   1.375   1.448  32.231 -1.8442  2.8837 -0.5912
 3644TIP3    H232492   1.249   1.421  32.153 -0.1860 -0.5438 -2.3016
 3645TIP3   OH232493   0.253   3.279   5.321 -0.7630  0.0002  0.2069
 3645TIP3    H132494   0.260   3.223   5.398 -0.5104  0.0270  0.2044
 3645TIP3    H232495   0.258   3.368   5.356  1.0906  0.0090  0.0077
 3646TIP3   OH232496   2.618   0.213   2.444 -0.0566 -0.2118  0.1047
 3646TIP3    H132497   2.531   0.187   2.414  0.6697 -0.1528 -2.1813
 3646TIP3    H232498   2.600   0.280   2.511 -1.7649 -0.4306 -0.0761
 3647TIP3   OH232499   0.605   2.427  29.641  0.0507  0.1741  0.0446
 3647TIP3    H132500   0.660   2.359  29.682 -0.1090  0.0746  0.0937
 3647TIP3    H232501   0.549   2.458  29.712  0.0873  0.3209  0.0081
 3648TIP3   OH232502   2.708   0.072   3.689  0.6394 -0.0215 -0.2379
 3648TIP3    H132503   2.752   0.133   3.631 -1.2399  0.8906 -0.7662
 3648TIP3    H232504   2.626   0.050   3.644  1.1807 -2.9031 -0.0408
 3649TIP3   OH232505   2.777   3.451   6.398 -0.1987  0.3127  0.2470
 3649TIP3    H132506   2.755   3.464   6.306 -0.1692 -1.8750 -0.1276
 3649TIP3    H232507   2.837   3.522   6.419  0.5880  0.2777 -1.7164
 3650TIP3   OH232508   2.579   2.928  14.614  0.1152  0.8957 -0.2413
 3650TIP3    H132509   2.544   2.996  14.557 -0.6361  1.2317  0.5939
 3650TIP3    H232510   2.610   2.975  14.691  0.3453  0.3737 -0.0079
 3651TIP3   OH232511   2.823   0.838   3.912 -0.4078 -0.3230 -0.5476
 3651TIP3    H132512   2.783   0.919   3.880 -0.1805  0.0503  0.0839
 3651TIP3    H232513   2.750   0.789   3.951 -0.7532 -0.9527 -1.9479
 3652TIP3   OH232514   1.399   1.535  32.420 -0.8361  0.0246 -0.3776
 3652TIP3    H132515   1.433   1.459  32.467 -2.3542 -0.7353 -0.4356
 3652TIP3    H232516   1.469   1.600  32.425  0.1110 -1.0233  0.5293
 3653TIP3   OH232517   0.527   3.459  30.723  0.4393 -0.4974 -0.1628
 3653TIP3    H132518   0.617   3.485  30.703  0.5716 -0.2136  0.7769
 3653TIP3    H232519   0.510   3.495  30.810 -1.0154  0.5738 -0.8373
 3654TIP3   OH232520   2.748   1.254  29.217 -0.3567  0.8558  0.3533
 3654TIP3    H132521   2.729   1.180  29.159 -0.8383  1.4029 -0.2024
 3654TIP3    H232522   2.672   1.312  29.207 -0.7236  0.6885  1.9761
 3655TIP3   OH232523   0.474   2.281   3.803  0.6436  0.7794 -0.3459
 3655TIP3    H132524   0.486   2.234   3.720 -0.0149 -0.8169  0.4171
 3655TIP3    H232525   0.532   2.236   3.864  0.4899  1.3948  0.2571
 3656TIP3   OH232526   0.884   0.920   0.437  0.1954  0.4835  0.3772
 3656TIP3    H132527   0.816   0.853   0.435  1.2636 -0.6362  0.3209
 3656TIP3    H232528   0.965   0.872   0.455  1.2324  1.5638 -1.1066
 3657TIP3   OH232529   1.585   0.049  31.361 -0.3427  0.1066  0.2071
 3657TIP3    H132530   1.679   0.030  31.367 -0.3147 -0.4068 -1.3960
 3657TIP3    H232531   1.580   0.128  31.308 -0.7870  0.9558  1.4510
 3658TIP3   OH232532   0.909   3.310   6.945  0.2168 -0.3103 -0.1917
 3658TIP3    H132533   0.898   3.259   6.865  0.1740 -0.8159  0.1284
 3658TIP3    H232534   0.864   3.392   6.928 -0.3685 -0.6783 -0.4402
 3659TIP3   OH232535   3.023   3.243  31.274 -0.1248  0.4603  0.3208
 3659TIP3    H132536   3.061   3.329  31.293  1.4280  0.1785 -1.2447
 3659TIP3    H232537   2.940   3.262  31.231 -0.1863  1.1482  0.7276
 3660TIP3   OH232538   0.435   1.758   2.826 -0.7422 -0.7248  0.3866
 3660TIP3    H132539   0.341   1.766   2.806 -0.9293 -0.7213  1.2258
 3660TIP3    H232540   0.465   1.848   2.836 -0.5503 -0.7096 -0.3032
 3661TIP3   OH232541   2.540   3.087  31.217 -0.2621 -0.4365  0.2772
 3661TIP3    H132542   2.498   3.146  31.280 -0.4758  1.1175 -1.2170
 3661TIP3    H232543   2.582   3.020  31.270 -0.3977  0.8262  2.0594
 3662TIP3   OH232544   3.101   1.414   3.906  0.0503  0.0749  0.6718
 3662TIP3    H132545   3.181   1.464   3.924  0.1114  0.2510 -0.0569
 3662TIP3    H232546   3.031   1.465   3.946  0.3085 -0.1494  1.4343
 3663TIP3   OH232547   1.680   2.708   0.909  0.6932  0.2430 -0.3737
 3663TIP3    H132548   1.675   2.686   0.816 -0.4375  0.6790 -0.4318
 3663TIP3    H232549   1.773   2.725   0.925  1.1726 -1.6148 -0.9918
 3664TIP3   OH232550   1.018   2.854   3.860  0.6674 -0.4493  0.0924
 3664TIP3    H132551   1.021   2.938   3.816  0.4369 -1.1084 -1.2200
 3664TIP3    H232552   1.057   2.792   3.798 -0.8459 -1.6330  0.2556
 3665TIP3   OH232553   2.649   1.687   2.112  0.1619 -0.1390  0.6457
 3665TIP3    H132554   2.735   1.722   2.089  0.1100  0.9809  2.0159
 3665TIP3    H232555   2.666   1.626   2.184 -0.1238 -0.4824  0.4293
 3666TIP3   OH232556   1.357   1.245  26.819  0.0397  0.3034 -0.1571
 3666TIP3    H132557   1.332   1.303  26.748 -1.5092 -0.3838 -0.2057
 3666TIP3    H232558   1.381   1.163  26.776  0.4614  0.3157  0.0402
 3667TIP3   OH232559   1.972   1.607   3.772  0.4422  0.1662  0.3483
 3667TIP3    H132560   2.044   1.626   3.711  0.4471  1.4066  0.7084
 3667TIP3    H232561   1.956   1.690   3.816 -0.4777 -0.3783  1.0726
 3668TIP3   OH232562   0.569   1.997  21.288  0.5862 -0.7204 -0.3159
 3668TIP3    H132563   0.474   2.007  21.278  0.5812 -0.3428  0.1067
 3668TIP3    H232564   0.600   1.977  21.199 -0.0444 -2.2091 -0.2251
 3669TIP3   OH232565   0.876   1.740   5.267 -0.1871  0.2543  0.1824
 3669TIP3    H132566   0.808   1.782   5.214  0.3217  1.1020  0.1802
 3669TIP3    H232567   0.872   1.785   5.352 -0.8327 -0.9259  0.8029
 3670TIP3   OH232568   1.825   1.308  29.325  0.0487  0.8576 -0.1048
 3670TIP3    H132569   1.736   1.294  29.294 -0.5682  2.0675  1.0328
 3670TIP3    H232570   1.851   1.223  29.362 -0.2433  0.2253 -1.2942
 3671TIP3   OH232571   2.497   2.371  26.422  0.2801  0.0207 -0.0534
 3671TIP3    H132572   2.456   2.426  26.355  1.1847 -1.3764 -1.7987
 3671TIP3    H232573   2.437   2.297  26.432  0.9038 -0.5378 -0.4357
 3672TIP3   OH232574   2.121   2.777  10.420  0.6609  0.0672 -0.3953
 3672TIP3    H132575   2.180   2.847  10.392 -0.9533  1.5375 -0.2827
 3672TIP3    H232576   2.046   2.784  10.361  0.1285 -1.0945  0.1091
 3673TIP3   OH232577   0.514   2.404  19.689 -0.4494  0.4492  0.6735
 3673TIP3    H132578   0.596   2.433  19.729 -0.6186 -2.4010  3.4599
 3673TIP3    H232579   0.538   2.329  19.634 -1.0638  0.2285  0.6929
 3674TIP3   OH232580   2.701   0.396  27.979  0.1346  0.3998 -0.4871
 3674TIP3    H132581   2.614   0.398  28.018 -0.3415  0.6348 -1.5294
 3674TIP3    H232582   2.727   0.304  27.980 -0.3214  0.2701 -0.5913
 3675TIP3   OH232583   1.040   0.640  31.812  0.2549 -0.2703  0.7371
 3675TIP3    H132584   1.094   0.585  31.755  0.5739 -0.0991  0.8716
 3675TIP3    H232585   0.962   0.587  31.829 -0.2670  0.0239 -0.5946
 3676TIP3   OH232586   2.498   2.687  30.247  0.4257 -0.9398  0.7125
 3676TIP3    H132587   2.435   2.617  30.262  0.3834 -0.5016  2.8613
 3676TIP3    H232588   2.532   2.670  30.159 -1.0900 -2.4306  0.3631
 3677TIP3   OH232589   1.331   0.735   0.979  0.2352 -0.2319 -0.0269
 3677TIP3    H132590   1.299   0.744   1.069 -0.1090  0.7260 -0.2374
 3677TIP3    H232591   1.426   0.742   0.987  0.2872 -1.1821  0.3744
 3678TIP3   OH232592   0.419   3.388   2.926  0.1150 -0.4346  0.4394
 3678TIP3    H132593   0.424   3.477   2.893 -0.3400 -0.4335  0.3608
 3678TIP3    H232594   0.401   3.398   3.020  2.3251 -0.4285  0.8985
 3679TIP3   OH232595   1.490   0.839   2.173 -0.4671  0.1412  0.3930
 3679TIP3    H132596   1.472   0.781   2.248 -0.8217  0.4495  0.5481
 3679TIP3    H232597   1.503   0.779   2.100  1.9017 -0.2947  1.0623
 3680TIP3   OH232598   3.441   3.142  27.704 -0.3208 -0.4051  0.2381
 3680TIP3    H132599   3.483   3.217  27.661 -0.6900 -0.8676 -0.9834
 3680TIP3    H232600   3.376   3.181  27.762 -1.2945  0.2346 -1.2154
 3681TIP3   OH232601   1.383   2.828  30.433 -0.1245  0.2886 -0.2149
 3681TIP3    H132602   1.301   2.876  30.425 -0.1599  0.3475  0.4368
 3681TIP3    H232603   1.356   2.738  30.450 -0.0679 -0.1159 -2.0501
 3682TIP3   OH232604   1.508   1.389   5.859  0.1402 -0.2464  0.2144
 3682TIP3    H132605   1.490   1.483   5.865 -3.1107 -0.8021  1.1227
 3682TIP3    H232606   1.432   1.353   5.813  2.1007 -2.2956 -1.6660
 3683TIP3   OH232607   2.797   3.151  31.109  0.5876 -0.5901 -0.2447
 3683TIP3    H132608   2.726   3.132  31.171 -0.1078  0.0511 -0.8192
 3683TIP3    H232609   2.755   3.146  31.023  0.3968  2.9062 -0.5071
 3684TIP3   OH232610   2.100   2.508  14.921 -0.0444  0.1983 -0.1762
 3684TIP3    H132611   2.188   2.496  14.886  0.1922 -0.6272  0.6664
 3684TIP3    H232612   2.107   2.586  14.977  0.5167 -0.6800  1.0070
 3685TIP3   OH232613   1.807   1.722   7.084 -0.4344 -0.3474  0.6152
 3685TIP3    H132614   1.747   1.748   7.014  0.3871  1.6233  0.5841
 3685TIP3    H232615   1.793   1.787   7.153  0.9729 -0.4158  0.9894
 3686TIP3   OH232616   1.874   2.527   6.389 -0.4138  0.1304 -0.2356
 3686TIP3    H132617   1.841   2.438   6.405  1.2101 -0.5040 -0.1747
 3686TIP3    H232618   1.810   2.567   6.331 -1.2947 -1.0136 -0.0812
 3687TIP3   OH232619   2.571   2.074  26.877 -0.0873  0.0003  0.1004
 3687TIP3    H132620   2.520   2.088  26.958 -0.2293 -0.4566  0.0908
 3687TIP3    H232621   2.521   2.121  26.810  0.5221  1.1693  0.4432
 3688TIP3   OH232622   1.890   0.834  30.237  0.3162 -0.1852  0.4749
 3688TIP3    H132623   1.909   0.928  30.239  1.6471 -0.3578 -1.5261
 3688TIP3    H232624   1.805   0.828  30.194  1.0286  0.0658 -1.0483
 3689TIP3   OH232625   1.240   3.255  11.191  0.3031 -0.3027 -0.3873
 3689TIP3    H132626   1.147   3.250  11.215 -0.0699  0.0422 -1.6713
 3689TIP3    H232627   1.247   3.335  11.139  1.1717 -0.6969 -0.9005
 3690TIP3   OH232628   1.398   1.979  31.955  0.1657 -0.5283 -0.0910
 3690TIP3    H132629   1.407   2.031  32.034 -0.5592  1.1674 -1.0630
 3690TIP3    H232630   1.395   1.888  31.985  1.5696 -0.0319  1.6533
 3691TIP3   OH232631   3.217   1.212  27.903 -0.0290 -0.7116  0.2631
 3691TIP3    H132632   3.195   1.212  27.810 -2.4589 -1.3903  0.7737
 3691TIP3    H232633   3.295   1.267  27.909 -0.7345  0.6653 -1.9522
 3692TIP3   OH232634   2.238   1.783  27.108  0.4477 -0.2863 -0.2515
 3692TIP3    H132635   2.269   1.698  27.140 -0.8035 -1.0683 -1.0280
 3692TIP3    H232636   2.154   1.796  27.152  1.1843  1.1944  0.8468
 3693TIP3   OH232637   2.711   0.499  29.984 -0.7461 -0.3702 -0.2599
 3693TIP3    H132638   2.655   0.501  30.062 -1.0191  1.0667 -0.4662
 3693TIP3    H232639   2.767   0.576  29.992  0.1012 -0.9130 -0.8553
 3694TIP3   OH232640   1.159   2.548   5.400  0.1475 -0.5321 -0.4950
 3694TIP3    H132641   1.100   2.605   5.351  0.7302 -1.1551 -1.9923
 3694TIP3    H232642   1.216   2.608   5.449 -0.9369  0.0917  0.0344
 3695TIP3   OH232643   0.882   0.032   0.193 -0.8815 -1.0767 -0.0657
 3695TIP3    H132644   0.842  -0.053   0.173  0.1014 -1.8571  1.1426
 3695TIP3    H232645   0.877   0.039   0.288 -1.1431  0.3374 -0.1661
 3696TIP3   OH232646   3.291   1.118   5.814 -0.4444 -0.3582 -0.2388
 3696TIP3    H132647   3.335   1.189   5.860  1.6017 -1.7169  0.0598
 3696TIP3    H232648   3.198   1.140   5.817  0.1429  2.5073 -0.5693
 3697TIP3   OH232649   2.303   1.518  23.237 -0.2335  0.2903 -0.9168
 3697TIP3    H132650   2.363   1.496  23.166  1.1144 -1.3983  0.6675
 3697TIP3    H232651   2.306   1.443  23.296 -2.9526  0.7097 -0.1052
 3698TIP3   OH232652   1.138   1.654  21.144  0.1237  0.5996  0.3289
 3698TIP3    H132653   1.114   1.614  21.228 -0.7283 -0.0237 -0.1941
 3698TIP3    H232654   1.145   1.747  21.163 -1.2613  0.6178  0.8410
 3699TIP3   OH232655   3.323   2.222  23.038 -0.2188  0.2363  0.4239
 3699TIP3    H132656   3.273   2.157  23.088  0.8422 -1.1901 -0.2676
 3699TIP3    H232657   3.267   2.243  22.964 -0.2525 -0.5477  0.2106
 3700TIP3   OH232658   2.997   2.967  31.145  0.5339  0.2660 -0.2457
 3700TIP3    H132659   2.931   3.036  31.143  0.6369  0.4881  2.0088
 3700TIP3    H232660   3.075   3.009  31.182  0.9049 -0.8218  0.2507
 3701TIP3   OH232661   1.793   2.458  22.321  0.0236  0.7063 -0.1122
 3701TIP3    H132662   1.766   2.372  22.288  0.2994  0.2904  0.7268
 3701TIP3    H232663   1.784   2.516  22.245  0.3059 -0.1536 -0.8310
 3702TIP3   OH232664   0.443   2.016   1.888  0.1605  0.1011 -0.1445
 3702TIP3    H132665   0.452   1.985   1.798  1.4725 -1.1929  0.3951
 3702TIP3    H232666   0.364   1.971   1.921  0.7808 -0.9848 -0.0740
 3703TIP3   OH232667   2.850   2.645   0.653  0.1046  0.0956  0.4186
 3703TIP3    H132668   2.799   2.632   0.573 -1.1623 -1.6429  1.4391
 3703TIP3    H232669   2.890   2.731   0.642 -2.6074  1.3427 -0.7009
 3704TIP3   OH232670   2.877   1.499  27.370  0.1846  0.1556 -0.0476
 3704TIP3    H132671   2.870   1.491  27.465  0.9461 -2.4126 -0.1170
 3704TIP3    H232672   2.787   1.508  27.340 -0.3004 -1.4606  0.8111
 3705TIP3   OH232673   1.012   3.105  28.931 -0.2604  0.1665  0.4627
 3705TIP3    H132674   0.972   3.191  28.948 -0.3380  0.3738 -0.6867
 3705TIP3    H232675   1.094   3.126  28.886 -1.3433 -0.3798 -1.9388
 3706TIP3   OH232676   2.022   2.029  26.464 -0.3308 -0.1537 -0.1843
 3706TIP3    H132677   2.031   1.952  26.520 -0.7379  0.7235  1.1410
 3706TIP3    H232678   2.108   2.040  26.424 -0.2605 -1.2760 -0.3594
 3707TIP3   OH232679   0.937   1.382  26.258  0.4866  0.2081  0.0134
 3707TIP3    H132680   0.894   1.423  26.333  0.9625  0.7697 -0.0198
 3707TIP3    H232681   0.892   1.417  26.182  1.5527  1.4773 -0.0630
 3708TIP3   OH232682   0.749   0.779   3.906  0.2616 -0.5366 -0.2213
 3708TIP3    H132683   0.722   0.857   3.858 -0.7027 -1.3672 -1.0455
 3708TIP3    H232684   0.845   0.781   3.902  0.2279  0.2645 -0.7913
 3709TIP3   OH232685   1.774   0.083  14.449 -0.7746 -0.0919 -0.1432
 3709TIP3    H132686   1.797   0.085  14.356  0.0798  1.5127  0.0716
 3709TIP3    H232687   1.800  -0.005  14.479  0.1988 -0.1417 -1.1062
 3710TIP3   OH232688   0.701   0.256   4.888  0.0544  0.5101  0.1132
 3710TIP3    H132689   0.779   0.312   4.888 -0.3417  1.0809 -0.5013
 3710TIP3    H232690   0.733   0.170   4.863  0.7568  0.3195  1.5549
 3711TIP3   OH232691   3.064   1.683   5.879  0.0001 -1.1569 -0.0057
 3711TIP3    H132692   2.997   1.734   5.924  1.1461  0.4301 -0.0217
 3711TIP3    H232693   3.019   1.646   5.803 -0.0265  3.4103 -2.5136
 3712TIP3   OH232694   1.825   1.698  30.512  0.4790 -0.4253  0.1974
 3712TIP3    H132695   1.887   1.734  30.449  1.3547  2.8870  2.6784
 3712TIP3    H232696   1.739   1.715  30.474  0.9932  1.2449 -0.2809
 3713TIP3   OH232697   2.463   2.933  31.525  0.3120 -0.1436  0.2661
 3713TIP3    H132698   2.498   2.861  31.578 -1.4011 -1.5313 -0.3744
 3713TIP3    H232699   2.375   2.903  31.500 -0.0533  1.7518 -0.8874
 3714TIP3   OH232700   2.356   2.006  20.114  0.2158  0.9576  0.1295
 3714TIP3    H132701   2.377   2.090  20.074  0.5178  0.6290 -0.4145
 3714TIP3    H232702   2.387   1.941  20.051  0.1602  0.4365  0.6298
 3715TIP3   OH232703   2.450   3.016  30.109 -0.1259 -0.0014  0.3033
 3715TIP3    H132704   2.541   3.003  30.137 -0.1601 -0.9715 -0.0211
 3715TIP3    H232705   2.406   2.935  30.132 -0.3378 -0.5516 -1.8495
 3716TIP3   OH232706   2.977   2.464   5.053  0.0755 -0.0450 -0.3758
 3716TIP3    H132707   2.885   2.488   5.049  0.4435  1.3037 -1.3687
 3716TIP3    H232708   3.012   2.513   5.127 -0.0696 -0.8596  0.2461
 3717TIP3   OH232709   2.338   3.064  28.510 -0.1229 -0.2029  0.3428
 3717TIP3    H132710   2.413   3.048  28.453 -0.2945 -0.5850  0.2158
 3717TIP3    H232711   2.333   3.159  28.518  0.3032 -0.1734  0.2573
 3718TIP3   OH232712   2.263   3.111  26.719 -0.2189 -0.1205  0.5833
 3718TIP3    H132713   2.248   3.033  26.772 -0.1225 -1.6041 -1.4461
 3718TIP3    H232714   2.353   3.101  26.686 -0.4168  0.5010 -0.1811
 3719TIP3   OH232715   0.304   1.115  28.255 -0.0653 -0.0844 -0.0098
 3719TIP3    H132716   0.320   1.037  28.201 -0.0337  0.5151 -0.8773
 3719TIP3    H232717   0.298   1.187  28.193 -0.4840  0.5605  0.7552
 3720TIP3   OH232718   0.958   1.739   3.747 -0.0868  0.2750 -0.0988
 3720TIP3    H132719   0.893   1.772   3.809 -1.0932 -0.3561 -0.7865
 3720TIP3    H232720   1.041   1.772   3.780 -0.6842  0.6085  1.1431
 3721TIP3   OH232721   1.660   0.291  25.914 -0.1227 -0.2358  0.6032
 3721TIP3    H132722   1.702   0.375  25.897  0.6305 -0.9761 -1.5932
 3721TIP3    H232723   1.569   0.302  25.885 -0.1543 -0.0205  0.7914
 3722TIP3   OH232724   1.406   1.865  22.774  0.3486  0.3802  0.8410
 3722TIP3    H132725   1.340   1.844  22.839  0.5442  0.5525  1.0977
 3722TIP3    H232726   1.445   1.781  22.751 -0.0268  0.2665  0.6146
 3723TIP3   OH232727   2.330   1.011  29.170  0.6629  0.2136  0.2877
 3723TIP3    H132728   2.297   1.096  29.200  0.5051 -0.3259  1.7483
 3723TIP3    H232729   2.277   0.991  29.093  1.1854  1.7438 -0.5087
 3724TIP3   OH232730   3.120   0.147  31.650  0.5485  0.2183  0.0459
 3724TIP3    H132731   3.087   0.109  31.732 -1.2930  1.9676  0.1928
 3724TIP3    H232732   3.072   0.103  31.581 -1.2882  1.8673  0.1966
 3725TIP3   OH232733   1.534   2.421  27.868 -0.1644  0.1124 -0.1924
 3725TIP3    H132734   1.439   2.420  27.860 -0.2284  0.4790  0.5082
 3725TIP3    H232735   1.565   2.389  27.783 -0.9153 -0.5726 -0.2164
 3726TIP3   OH232736   0.230   1.880  18.996 -0.0439 -0.1410 -0.2171
 3726TIP3    H132737   0.213   1.867  18.902 -1.4447 -1.4749  0.1858
 3726TIP3    H232738   0.192   1.966  19.015 -0.5949 -0.2697 -0.6901
 3727TIP3   OH232739   2.528   2.846   4.972  0.1482 -0.0819  0.3793
 3727TIP3    H132740   2.483   2.930   4.973 -0.7043 -0.4261 -2.0247
 3727TIP3    H232741   2.585   2.850   4.895  2.3936 -0.6325  1.9080
 3728TIP3   OH232742   2.274   2.036  30.733 -0.2828  0.2185  0.1128
 3728TIP3    H132743   2.354   2.055  30.781  0.8395  0.8892 -1.9109
 3728TIP3    H232744   2.232   1.966  30.783  1.8431 -0.5395  0.9520
 3729TIP3   OH232745   1.870   2.211   7.112  0.0953 -0.7696 -0.0369
 3729TIP3    H132746   1.860   2.231   7.205  0.4502  1.0473 -0.3591
 3729TIP3    H232747   1.844   2.291   7.067  1.7924 -0.9485 -1.4333
 3730TIP3   OH232748   1.723   1.867   7.295  0.0979  0.4689 -0.1697
 3730TIP3    H132749   1.799   1.836   7.344  0.0991 -0.1198 -0.5363
 3730TIP3    H232750   1.712   1.958   7.323  1.4605  0.8364 -0.7424
 3731TIP3   OH232751   1.712   2.670   6.229 -0.0269 -0.3159  0.5415
 3731TIP3    H132752   1.763   2.725   6.170 -1.6609  1.3901  0.6083
 3731TIP3    H232753   1.631   2.719   6.242 -0.6504 -1.7389  2.3870
 3732TIP3   OH232754   1.505   2.899  30.166 -0.2230  0.2923 -0.6527
 3732TIP3    H132755   1.464   2.908  30.252 -0.6994  2.5639 -1.0456
 3732TIP3    H232756   1.594   2.870  30.184  0.1325  2.0739  0.7532
 3733TIP3   OH232757   2.256   2.852   5.875  0.1090  0.3828  0.3745
 3733TIP3    H132758   2.312   2.903   5.934 -2.4684  2.4194  1.2289
 3733TIP3    H232759   2.307   2.847   5.793  1.3026  2.6835  0.8836
 3734TIP3   OH232760   3.214   1.834   4.515  0.0760 -0.4653  0.0959
 3734TIP3    H132761   3.185   1.775   4.585 -0.8655 -1.8752 -1.4120
 3734TIP3    H232762   3.309   1.825   4.514  0.1461 -0.1115  1.4240
 3735TIP3   OH232763   0.027   0.407  29.184 -0.2468  0.3372 -0.2339
 3735TIP3    H132764   0.078   0.487  29.199  0.1656  0.0248  0.0608
 3735TIP3    H232765  -0.061   0.438  29.163  0.3934  0.9375 -2.2360
 3736TIP3   OH232766   3.534   0.079  31.327 -0.4069 -0.3955 -0.0885
 3736TIP3    H132767   3.526   0.106  31.235  1.3586 -0.7369 -0.3631
 3736TIP3    H232768   3.475   0.139  31.374 -1.8281 -0.6283 -1.4924
 3737TIP3   OH232769   0.075   1.562   3.021  0.0416 -0.6650  0.1734
 3737TIP3    H132770   0.034   1.647   3.005  0.0028 -0.2947  2.0889
 3737TIP3    H232771   0.001   1.501   3.028 -0.1597 -0.2630  2.0581
 3738TIP3   OH232772   0.099   2.630  26.943  0.3758 -0.0358  0.0491
 3738TIP3    H132773   0.126   2.550  26.988 -0.6041  0.2434  1.1770
 3738TIP3    H232774   0.065   2.600  26.859 -0.1304 -0.8412  0.5262
 3739TIP3   OH232775   0.335   2.010  26.311 -0.7415  0.7532 -0.2375
 3739TIP3    H132776   0.396   1.959  26.257 -0.7919  0.2801  0.1469
 3739TIP3    H232777   0.250   1.998  26.267 -1.0561 -0.8043  0.7039
 3740TIP3   OH232778   3.103   0.630   5.377  0.1628  0.3608 -0.0969
 3740TIP3    H132779   3.044   0.651   5.304  1.4166  1.6492 -0.7952
 3740TIP3    H232780   3.059   0.666   5.454 -0.7457 -0.1881 -0.3425
 3741TIP3   OH232781   0.025   2.383  21.430  0.0139 -0.0568  0.0504
 3741TIP3    H132782   0.070   2.387  21.515 -1.6874 -3.3962  1.2833
 3741TIP3    H232783  -0.055   2.334  21.448 -0.1367 -1.4445 -3.6169
 3742TIP3   OH232784   1.978   0.999   6.929 -0.0488 -0.4562  0.0939
 3742TIP3    H132785   1.956   1.009   6.836 -0.7022  0.7708  0.3529
 3742TIP3    H232786   1.948   0.911   6.952 -0.0053 -0.7188 -0.8168
 3743TIP3   OH232787   1.744   0.810   1.906  0.2544  0.2515 -0.7041
 3743TIP3    H132788   1.790   0.789   1.825 -0.9221  0.6016 -1.4722
 3743TIP3    H232789   1.668   0.752   1.907  0.6679 -0.3145  0.5505
 3744TIP3   OH232790   2.933   2.628   3.312  0.0992  0.0575 -0.1848
 3744TIP3    H132791   2.941   2.584   3.227 -0.2584 -1.3762  0.5072
 3744TIP3    H232792   2.939   2.721   3.290  1.7274 -0.3102 -1.5918
 3745TIP3   OH232793   1.179   1.768  21.729  0.3649 -0.5120 -0.0145
 3745TIP3    H132794   1.102   1.822  21.710  0.8662 -0.1029 -0.9661
 3745TIP3    H232795   1.163   1.734  21.817 -1.6545 -1.7722 -0.8090
 3746TIP3   OH232796   2.154   2.811  31.166  0.4351  0.6036 -0.2611
 3746TIP3    H132797   2.209   2.845  31.237 -0.2771  0.4493  0.3861
 3746TIP3    H232798   2.204   2.828  31.086  1.2086  0.8789  0.2673
 3747TIP3   OH232799   2.447   0.914  30.306 -0.0839  0.2055 -0.2843
 3747TIP3    H132800   2.418   0.944  30.392 -0.2309 -0.9899  0.1004
 3747TIP3    H232801   2.477   0.825  30.321  1.8498  0.6683 -1.0787
 3748TIP3   OH232802   0.983   2.924  14.704  0.8362  0.4505  0.6243
 3748TIP3    H132803   0.935   2.891  14.628  0.1694 -1.6482  1.8712
 3748TIP3    H232804   1.060   2.868  14.710  0.6399  0.2847  1.7548
 3749TIP3   OH232805   0.880   2.454  22.239  0.0046  0.0383  0.1185
 3749TIP3    H132806   0.823   2.408  22.178 -0.1696 -0.1298  0.4054
 3749TIP3    H232807   0.881   2.545  22.208  2.0329 -0.5219 -1.7382
 3750TIP3   OH232808   2.024   3.189   3.494  0.6146  0.3641 -0.7898
 3750TIP3    H132809   2.109   3.156   3.464  2.6579  2.9052  1.6341
 3750TIP3    H232810   2.015   3.155   3.583 -0.7002  0.5514 -0.8352
 3751TIP3   OH232811   1.144   0.495  32.749 -0.1255 -0.2045  0.4610
 3751TIP3    H132812   1.158   0.585  32.780 -0.9362  0.7303 -1.6248
 3751TIP3    H232813   1.066   0.466  32.796 -0.1981  0.4182  0.7420
 3752TIP3   OH232814   2.747   2.065  22.534 -0.4559 -0.5826  0.0648
 3752TIP3    H132815   2.673   2.084  22.592  1.1053 -0.1068  2.0169
 3752TIP3    H232816   2.800   2.002  22.583  2.3424  1.8894  0.4871
 3753TIP3   OH232817   2.172   2.131  32.022 -0.0352 -0.5887  0.7150
 3753TIP3    H132818   2.128   2.070  32.080  0.3243 -1.5127  0.0368
 3753TIP3    H232819   2.145   2.218  32.053  0.7691 -1.0183  2.7361
 3754TIP3   OH232820   0.343   3.437   6.384  0.4300 -0.3359 -0.1397
 3754TIP3    H132821   0.424   3.477   6.350 -0.6170  0.9442 -1.2906
 3754TIP3    H232822   0.307   3.503   6.443  0.4400 -1.0839  0.7109
 3755TIP3   OH232823   1.628   0.271  29.956  0.0165 -0.3069 -0.0560
 3755TIP3    H132824   1.536   0.262  29.931  0.4212 -1.6443 -1.1810
 3755TIP3    H232825   1.646   0.195  30.011 -0.1039  1.1273  2.0611
 3756TIP3   OH232826   2.929   0.377   0.779 -0.3628  0.5249 -0.2699
 3756TIP3    H132827   2.910   0.465   0.810 -3.5734 -0.0551 -0.2669
 3756TIP3    H232828   2.848   0.347   0.738  0.4902 -2.5621 -0.0159
 3757TIP3   OH232829   0.020   2.832  31.628 -0.3664 -0.8051 -0.3494
 3757TIP3    H132830   0.016   2.829  31.724  1.3515  1.0528 -0.1461
 3757TIP3    H232831   0.030   2.740  31.601 -1.4266 -1.4021  1.1976
 3758TIP3   OH232832   0.185   1.910   3.053  0.0994 -0.0998 -0.3175
 3758TIP3    H132833   0.182   1.850   2.978 -1.0485 -2.1258  1.2332
 3758TIP3    H232834   0.235   1.862   3.119 -1.0733  0.5285  1.0766
 3759TIP3   OH232835   0.188   3.194  30.025  0.8593  0.5917 -0.4361
 3759TIP3    H132836   0.169   3.277  29.981  1.8778  0.2286 -1.6041
 3759TIP3    H232837   0.259   3.156  29.974  0.9850 -0.6024  0.6041
 3760TIP3   OH232838   2.962   0.442   5.659  0.1901  0.7458  0.9040
 3760TIP3    H132839   2.872   0.414   5.674  0.1619 -0.7701 -1.5592
 3760TIP3    H232840   3.015   0.375   5.704  0.0785  0.3332  0.4325
 3761TIP3   OH232841   0.985   1.508  20.754 -0.2500  0.5909  0.0848
 3761TIP3    H132842   1.010   1.563  20.680 -0.9900  0.0387 -0.5895
 3761TIP3    H232843   1.027   1.424  20.738 -0.4268  0.4633  0.2790
 3762TIP3   OH232844   1.957   0.133  15.617  0.2635 -0.1007 -0.4470
 3762TIP3    H132845   2.009   0.176  15.686  0.7163 -0.6130 -0.4597
 3762TIP3    H232846   2.003   0.154  15.536  1.5979 -2.1506 -0.2853
 3763TIP3   OH232847   0.263   0.880  32.868 -0.0473  0.7204 -0.8199
 3763TIP3    H132848   0.318   0.840  32.935 -1.0303 -1.5072 -1.2516
 3763TIP3    H232849   0.321   0.938  32.820  1.0369  1.1822  0.9499
 3764TIP3   OH232850   1.052   0.561   0.238  0.7822 -0.8765  0.3036
 3764TIP3    H132851   1.117   0.491   0.232 -0.2153 -1.7234 -0.9770
 3764TIP3    H232852   0.969   0.518   0.222  0.1910  0.6818 -1.0187
 3765TIP3   OH232853   1.933   1.072  26.079  0.5997  0.1997  0.5053
 3765TIP3    H132854   2.009   1.051  26.133  1.3601  0.8028 -0.3102
 3765TIP3    H232855   1.908   0.989  26.040  0.7267 -0.0352  0.9147
 3766TIP3   OH232856   2.084   0.347   4.920  0.5235  0.3885 -0.1061
 3766TIP3    H132857   1.998   0.321   4.953  0.7035 -1.0231 -0.6484
 3766TIP3    H232858   2.142   0.338   4.995  0.6226 -1.1365 -0.3241
 3767TIP3   OH232859   0.996   0.089  10.894  0.2602 -0.4011  0.0665
 3767TIP3    H132860   1.041   0.005  10.900  0.7938 -0.0498  1.2483
 3767TIP3    H232861   0.968   0.108  10.984 -2.6138 -0.7795 -0.6727
 3768TIP3   OH232862   1.208   2.855  31.348  0.0671  0.3887  0.1009
 3768TIP3    H132863   1.128   2.897  31.319 -0.2948  0.7131  1.5070
 3768TIP3    H232864   1.205   2.859  31.443  0.6126 -1.7223  0.2670
 3769TIP3   OH232865   3.278   2.663  32.309 -0.4763  0.1233 -0.0096
 3769TIP3    H132866   3.288   2.569  32.323 -0.9459 -0.3484 -2.4076
 3769TIP3    H232867   3.185   2.674  32.288 -0.1573  0.9235 -1.0549
 3770TIP3   OH232868   2.155   1.707   6.417 -0.5403  0.1515  0.5391
 3770TIP3    H132869   2.226   1.742   6.363 -0.9219 -0.1458 -0.1689
 3770TIP3    H232870   2.184   1.721   6.507  0.6674 -0.4716  0.2670
 3771TIP3   OH232871   1.482   1.772   0.103  0.5018 -0.3070  0.1172
 3771TIP3    H132872   1.565   1.724   0.103  0.7310  0.0695 -0.6692
 3771TIP3    H232873   1.453   1.770   0.012 -0.4451 -0.5712  0.4096
 3772TIP3   OH232874   0.596   3.353   5.128 -0.4546  1.2407 -0.5805
 3772TIP3    H132875   0.565   3.417   5.193 -0.8700  1.0649 -0.6022
 3772TIP3    H232876   0.516   3.318   5.089 -0.2613  0.1784 -0.0562
 3773TIP3   OH232877   1.467   3.080   5.911  0.0778 -0.4414 -0.4262
 3773TIP3    H132878   1.454   3.175   5.919 -1.8394 -0.6507 -0.6344
 3773TIP3    H232879   1.412   3.042   5.979 -0.3789 -1.4525 -1.3280
 3774TIP3   OH232880   2.041   2.014  32.689 -0.5627  0.2200 -0.3320
 3774TIP3    H132881   2.082   1.930  32.668 -0.3019  0.9429 -3.2165
 3774TIP3    H232882   2.103   2.057  32.748  0.6587 -0.5302 -1.0086
 3775TIP3   OH232883   0.012   1.166  28.575  0.0072 -0.1912 -0.0349
 3775TIP3    H132884   0.018   1.134  28.485 -0.9628  2.4044 -1.1366
 3775TIP3    H232885  -0.060   1.116  28.614 -1.1204  0.2455 -1.4895
 3776TIP3   OH232886   1.976   1.824   5.626 -0.4429  0.2162 -0.9175
 3776TIP3    H132887   2.040   1.884   5.587  0.8721 -0.7350 -0.2868
 3776TIP3    H232888   1.973   1.750   5.566  1.0374 -0.9191  0.3335
 3777TIP3   OH232889   1.826   3.086  32.610  0.0842 -0.2654 -0.4706
 3777TIP3    H132890   1.763   3.039  32.557  0.4958 -0.0723 -1.1476
 3777TIP3    H232891   1.906   3.089  32.556 -0.2294  2.1401 -0.9496
 3778TIP3   OH232892   2.742   2.099  18.490 -0.2869 -0.7543 -0.3725
 3778TIP3    H132893   2.721   2.026  18.432 -0.8159 -1.2699  0.4451
 3778TIP3    H232894   2.657   2.132  18.519 -0.0730  0.6025 -1.2097
 3779TIP3   OH232895   2.401   1.237   4.677  0.3539 -0.3238  0.3823
 3779TIP3    H132896   2.327   1.226   4.737 -1.2237  1.1048 -1.2112
 3779TIP3    H232897   2.430   1.328   4.691  1.1398 -0.5396  0.2192
 3780TIP3   OH232898   2.061   0.504   3.623  0.1217 -0.1720 -0.0912
 3780TIP3    H132899   2.028   0.448   3.694 -0.1244 -0.7561 -0.6635
 3780TIP3    H232900   2.150   0.527   3.651 -0.2436  0.2322  0.7748
 3781TIP3   OH232901   0.470   1.754   6.128 -0.5792 -0.0340 -0.4967
 3781TIP3    H132902   0.544   1.754   6.067 -0.9649  1.4031 -0.9963
 3781TIP3    H232903   0.393   1.773   6.074 -0.7119  3.1328  0.6046
 3782TIP3   OH232904   3.288   1.475  31.924 -0.1060 -0.5082 -0.3356
 3782TIP3    H132905   3.219   1.497  31.862  0.7096  2.4179 -0.3685
 3782TIP3    H232906   3.242   1.448  32.003 -1.2366 -0.6947 -1.0433
 3783TIP3   OH232907   3.361   2.995  30.296 -0.4050 -0.0606 -0.4377
 3783TIP3    H132908   3.349   3.079  30.251 -0.2095 -0.5294 -1.3743
 3783TIP3    H232909   3.438   2.956  30.255 -0.4968 -0.7080 -0.0111
 3784TIP3   OH232910   0.935   3.276  27.170  0.4554  0.0381 -0.4985
 3784TIP3    H132911   0.903   3.357  27.131 -0.1504  0.2629  0.4248
 3784TIP3    H232912   0.856   3.228  27.195  0.7769  0.3921  1.3947
 3785TIP3   OH232913   1.178   0.245  31.212 -0.0450  0.2754  0.5334
 3785TIP3    H132914   1.229   0.321  31.239  1.6212 -0.0909 -1.3226
 3785TIP3    H232915   1.199   0.177  31.276  1.2627  0.3607  0.2223
 3786TIP3   OH232916   2.931   3.549  32.777 -0.1552 -0.4697  0.3264
 3786TIP3    H132917   2.917   3.520  32.868  0.2415  1.2501  0.9645
 3786TIP3    H232918   2.843   3.570  32.745 -0.2407 -0.6046  0.4669
 3787TIP3   OH232919   2.629   2.745  28.130 -0.4864  0.1339 -0.2106
 3787TIP3    H132920   2.565   2.772  28.065  0.4992  0.6761 -0.9809
 3787TIP3    H232921   2.589   2.770  28.214 -1.8834 -0.8094 -0.5593
 3788TIP3   OH232922   1.511   3.364  30.067  0.0818 -0.0018 -0.0242
 3788TIP3    H132923   1.533   3.401  30.152  0.3906  0.1303 -0.1594
 3788TIP3    H232924   1.568   3.288  30.057  0.2936  0.1822 -0.2564
 3789TIP3   OH232925   0.218   2.707  14.673 -0.2917  0.1675 -0.4181
 3789TIP3    H132926   0.141   2.764  14.667  0.7328  1.4959 -1.5874
 3789TIP3    H232927   0.257   2.729  14.757 -1.3371 -0.7770  0.3574
 3790TIP3   OH232928   2.261   0.893  30.122 -0.6981 -0.2092 -0.1591
 3790TIP3    H132929   2.312   0.819  30.089 -1.4842 -2.3076  2.9305
 3790TIP3    H232930   2.310   0.924  30.198 -1.0099  1.7379 -0.6933
 3791TIP3   OH232931   1.340   0.392  28.069  0.1060  0.2034  0.2340
 3791TIP3    H132932   1.394   0.408  27.991 -1.5697  0.6651 -0.8874
 3791TIP3    H232933   1.271   0.333  28.039 -1.5741  1.7266  0.8640
 3792TIP3   OH232934   2.063   0.214   3.259  0.2606 -0.6415  0.0552
 3792TIP3    H132935   2.122   0.146   3.228 -1.4478 -2.5888  0.7864
 3792TIP3    H232936   2.084   0.291   3.206  2.7873 -1.4867 -0.2876
 3793TIP3   OH232937   1.575   2.963  12.741 -0.7002 -0.0104 -0.1817
 3793TIP3    H132938   1.647   2.971  12.678 -0.9132  1.9000 -0.2398
 3793TIP3    H232939   1.608   2.901  12.807  0.7388  0.3168 -0.5495
 3794TIP3   OH232940   1.563   2.749  29.135 -0.1260  0.2442 -0.4007
 3794TIP3    H132941   1.634   2.778  29.077  1.3295 -2.1443  0.0253
 3794TIP3    H232942   1.544   2.825  29.190  0.3227  1.7227 -2.1697
 3795TIP3   OH232943   2.469   3.264  26.884 -0.4610  0.2534 -0.1020
 3795TIP3    H132944   2.387   3.313  26.873 -0.9442 -0.6814 -0.7624
 3795TIP3    H232945   2.444   3.189  26.938  0.4244  1.0639  1.5215
 3796TIP3   OH232946   0.442   2.451  32.188 -0.6648 -0.2085 -0.2809
 3796TIP3    H132947   0.512   2.421  32.245 -0.3807 -0.3604 -0.7107
 3796TIP3    H232948   0.485   2.501  32.119 -0.9675 -0.3827 -0.6025
 3797TIP3   OH232949   0.417   1.555  27.698 -0.1860  0.0871  0.1213
 3797TIP3    H132950   0.325   1.578  27.712 -0.1492  0.1012  0.3350
 3797TIP3    H232951   0.460   1.640  27.682 -0.4438 -0.0265 -1.3302
 3798TIP3   OH232952   2.804   3.461  26.865 -0.4973 -0.0192 -0.7071
 3798TIP3    H132953   2.858   3.539  26.877 -1.5477  0.6087  0.1130
 3798TIP3    H232954   2.842   3.396  26.925 -0.9805  0.6092  0.3090
 3799TIP3   OH232955   0.964   0.194   6.657 -0.1106 -0.1784 -0.0654
 3799TIP3    H132956   0.900   0.264   6.667 -0.5600 -0.6203  0.1960
 3799TIP3    H232957   0.946   0.134   6.730  0.7554 -0.1887  0.1539
 3800TIP3   OH232958   0.045   2.567  29.368  0.1417  0.1952  0.4867
 3800TIP3    H132959   0.036   2.527  29.282  1.1297  0.0146  0.4535
 3800TIP3    H232960  -0.041   2.557  29.409 -0.3316  0.2769 -0.4701
 3801TIP3   OH232961   0.784   2.318  20.279  0.0803 -0.5033  0.1600
 3801TIP3    H132962   0.710   2.344  20.334 -0.1438  1.5510 -0.9988
 3801TIP3    H232963   0.854   2.377  20.305  0.8983 -1.4920  0.2562
 3802TIP3   OH232964   1.275   0.652   7.606 -0.1156  0.1846  0.2649
 3802TIP3    H132965   1.234   0.660   7.520  1.9469 -2.5928 -1.1546
 3802TIP3    H232966   1.249   0.565   7.636 -0.8395  1.1166  2.5855
 3803TIP3   OH232967   2.026   2.657  12.005  0.0639 -0.4029 -0.7755
 3803TIP3    H132968   2.081   2.580  11.993 -1.1914 -1.3593 -0.6357
 3803TIP3    H232969   2.014   2.664  12.099 -1.0297 -0.9540 -0.8537
 3804TIP3   OH232970   0.752   0.377   1.002  0.1948  0.0130  0.1000
 3804TIP3    H132971   0.686   0.382   0.933 -0.8714 -2.6277  0.7870
 3804TIP3    H232972   0.703   0.389   1.084  1.0922  1.0131  0.5169
 3805TIP3   OH232973   1.012   0.528  26.509  0.2341  0.5303  0.3264
 3805TIP3    H132974   0.982   0.618  26.520 -0.0092  0.4579  0.2651
 3805TIP3    H232975   0.974   0.500  26.425  1.5736  0.8771 -0.4283
 3806TIP3   OH232976   2.408   0.672  30.973 -0.2657  0.3461 -0.1385
 3806TIP3    H132977   2.499   0.647  30.954 -0.6274 -1.0609 -0.0747
 3806TIP3    H232978   2.411   0.768  30.979  0.6212  0.6362 -3.4075
 3807TIP3   OH232979   0.101   0.198   3.068  0.1220 -0.5721  0.3310
 3807TIP3    H132980   0.176   0.229   3.016  0.3882 -2.9617 -0.8392
 3807TIP3    H232981   0.043   0.156   3.005 -1.4267 -0.2375  1.4721
 3808TIP3   OH232982   1.545   0.210  28.721 -0.1320 -0.1175 -0.5982
 3808TIP3    H132983   1.637   0.189  28.735  0.0545 -0.1148 -1.6861
 3808TIP3    H232984   1.544   0.305  28.707 -0.3433 -0.0698 -0.2509
 3809TIP3   OH232985   2.351   0.280   1.374 -0.8727  0.0500 -0.4359
 3809TIP3    H132986   2.329   0.264   1.282 -1.1646 -1.6990 -0.1103
 3809TIP3    H232987   2.305   0.210   1.422  0.0456  0.3468  0.9454
 3810TIP3   OH232988   1.801   1.444   0.997 -0.3753 -0.4557  0.1917
 3810TIP3    H132989   1.846   1.359   0.995 -0.8625 -0.7102 -0.2416
 3810TIP3    H232990   1.720   1.427   1.045  0.4280  0.2292  1.8567
 3811TIP3   OH232991   1.275   2.415  26.460 -0.1061 -0.0828  0.4981
 3811TIP3    H132992   1.369   2.399  26.445 -0.1290  0.1807  0.0269
 3811TIP3    H232993   1.236   2.405  26.373 -0.1127  2.5051  0.1096
 3812TIP3   OH232994   0.583   2.415   7.450  0.6252 -0.5687  0.0476
 3812TIP3    H132995   0.535   2.345   7.408  1.7532 -0.8527 -0.8109
 3812TIP3    H232996   0.659   2.372   7.490  1.6726  0.2234 -1.0346
 3813TIP3   OH232997   3.000   1.970  28.017  0.2352  0.0396  0.4957
 3813TIP3    H132998   2.977   2.063  28.021 -0.3825 -0.0938  0.1451
 3813TIP3    H232999   3.078   1.963  28.073  0.0677  0.6982  0.8339
 3814TIP3   OH233000   2.781   3.257  13.182  0.0862  0.7276  0.6420
 3814TIP3    H133001   2.861   3.280  13.228  0.7056  1.4085 -0.7151
 3814TIP3    H233002   2.710   3.291  13.236  0.8321  2.4492  0.5817
 3815TIP3   OH233003   2.044   2.049   6.465 -0.0316  0.0937 -0.2914
 3815TIP3    H133004   2.016   1.958   6.454 -1.0168  0.5917 -2.4629
 3815TIP3    H233005   2.120   2.058   6.408  0.8273  0.3487  0.8610
 3816TIP3   OH233006   0.405   0.796   6.793 -0.0808  0.5586  0.1926
 3816TIP3    H133007   0.317   0.826   6.814 -0.6824  0.2778 -1.7094
 3816TIP3    H233008   0.400   0.701   6.802 -0.0891  0.5113 -0.2967
 3817TIP3   OH233009   3.315   1.558   5.941 -0.4308 -0.1642  0.0808
 3817TIP3    H133010   3.265   1.504   6.002 -2.2183  0.7640 -0.5089
 3817TIP3    H233011   3.252   1.621   5.906  0.5383 -0.5934 -2.6959
 3818TIP3   OH233012   1.462   0.064  12.349 -0.2624  0.4756 -0.5997
 3818TIP3    H133013   1.508   0.147  12.335 -0.8121  0.5903 -1.8557
 3818TIP3    H233014   1.381   0.089  12.394  0.5346  0.3455  1.0038
 3819TIP3   OH233015   2.748   2.225   6.290 -0.3004 -0.6273  0.1896
 3819TIP3    H133016   2.703   2.272   6.361 -0.3053  0.5197 -0.5409
 3819TIP3    H233017   2.832   2.270   6.282 -0.7859  0.0734 -1.3273
 3820TIP3   OH233018   2.592   1.375   4.238  0.2832  0.3479  0.1547
 3820TIP3    H133019   2.637   1.349   4.319 -1.2016 -0.0257  0.8901
 3820TIP3    H233020   2.603   1.470   4.234  1.1207  0.2722  0.3055
 3821TIP3   OH233021   0.929   0.160   1.010 -0.2616  0.4484  0.3743
 3821TIP3    H133022   1.017   0.174   1.046 -0.4576 -1.5045  1.8040
 3821TIP3    H233023   0.882   0.241   1.029  1.0262  1.2750  0.1652
 3822TIP3   OH233024   0.278   2.799   5.264 -0.1483 -0.3587 -0.6338
 3822TIP3    H133025   0.267   2.705   5.247 -0.3545 -0.2555 -1.0772
 3822TIP3    H233026   0.333   2.830   5.192 -1.0333  0.0816 -1.1517
 3823TIP3   OH233027   1.005   2.851  27.367 -0.0046  0.1243  0.5116
 3823TIP3    H133028   1.094   2.869  27.397 -0.1659 -0.0262  1.0934
 3823TIP3    H233029   0.952   2.851  27.447 -0.1536 -2.1195  0.4751
 3824TIP3   OH233030   0.809   2.193  28.621  0.0190 -0.2111 -0.3023
 3824TIP3    H133031   0.843   2.115  28.665  0.2243 -1.7311 -2.9270
 3824TIP3    H233032   0.724   2.209  28.664  1.6576  0.6438  2.9507
 3825TIP3   OH233033   3.203   0.370   1.368  0.3205  0.9038 -0.2501
 3825TIP3    H133034   3.143   0.303   1.399 -0.2806  1.1087 -0.9607
 3825TIP3    H233035   3.167   0.398   1.284  1.7984  0.5065 -1.0492
 3826TIP3   OH233036   2.736   1.241  32.594 -0.0029 -0.4269 -0.0357
 3826TIP3    H133037   2.783   1.195  32.525 -0.3273  0.9116 -1.2136
 3826TIP3    H233038   2.777   1.328  32.597 -1.8905  0.5569 -0.6520
 3827TIP3   OH233039   0.514   2.823   4.289  0.3191 -0.0384  0.5865
 3827TIP3    H133040   0.528   2.893   4.226 -0.4534 -0.0899  0.3399
 3827TIP3    H233041   0.474   2.753   4.237 -0.9265  0.1582  1.2516
 3828TIP3   OH233042   1.650   0.109  30.411 -0.0007 -0.7157 -0.5222
 3828TIP3    H133043   1.563   0.135  30.379  0.0132  4.0963  2.3751
 3828TIP3    H233044   1.710   0.132  30.340 -0.7471  0.4598 -0.7984
 3829TIP3   OH233045   1.971   3.032   1.734 -0.2133  0.2907 -0.5392
 3829TIP3    H133046   1.956   3.051   1.826 -2.1397 -0.9301 -0.5564
 3829TIP3    H233047   1.887   3.048   1.692 -0.0327 -1.4581 -1.6645
 3830TIP3   OH233048   2.627   3.542  29.734 -0.1318  0.0961 -0.4615
 3830TIP3    H133049   2.616   3.450  29.707 -0.7000  0.5906 -2.0170
 3830TIP3    H233050   2.702   3.540  29.794  0.3615 -1.2756 -1.0718
 3831TIP3   OH233051   2.785   0.220   6.640  0.6220  0.0964  0.3523
 3831TIP3    H133052   2.844   0.215   6.715  1.2373  2.0128  0.0389
 3831TIP3    H233053   2.830   0.169   6.572  0.3709 -1.1018  1.0489
 3832TIP3   OH233054   2.146   2.143  20.647  0.5518  0.0476 -0.1486
 3832TIP3    H133055   2.220   2.115  20.592  1.7297 -0.4920  1.6171
 3832TIP3    H233056   2.186   2.165  20.731 -1.3247 -0.2571  0.8726
 3833TIP3   OH233057   2.345   2.096   4.992 -0.1495  0.4650  0.0989
 3833TIP3    H133058   2.266   2.141   4.962 -1.2208 -1.0750  0.4540
 3833TIP3    H233059   2.395   2.163   5.039 -1.5021  1.3575  0.3152
 3834TIP3   OH233060   1.140   0.037  26.491  0.6243  0.1060  0.1023
 3834TIP3    H133061   1.096   0.071  26.569  1.3028 -0.7609  0.8813
 3834TIP3    H233062   1.103   0.089  26.419  0.9689  1.8768  1.1247
 3835TIP3   OH233063   3.128   0.040  29.366 -0.0996  0.7803  0.1410
 3835TIP3    H133064   3.211   0.065  29.406  0.9051 -0.4921 -1.0644
 3835TIP3    H233065   3.065   0.042  29.438  1.5553 -1.0667  1.7521
 3836TIP3   OH233066   1.077   1.065   1.215  0.2265 -0.4538  0.2704
 3836TIP3    H133067   0.996   1.070   1.267 -0.6302  2.1192 -1.1747
 3836TIP3    H233068   1.047   1.051   1.125  1.4030  0.3097 -0.2527
 3837TIP3   OH233069   0.607   0.468  12.079 -0.2792 -0.4972 -0.5158
 3837TIP3    H133070   0.568   0.546  12.039 -0.1701 -1.4226 -2.5394
 3837TIP3    H233071   0.701   0.483  12.076 -0.2928  0.0063  0.7163
 3838TIP3   OH233072   1.947   0.340  29.387  0.2421  0.4193 -0.3108
 3838TIP3    H133073   2.004   0.325  29.312 -1.7384 -2.9792 -1.3327
 3838TIP3    H233074   1.865   0.370  29.350 -0.4009 -0.2037  0.5596
 3839TIP3   OH233075   1.596   0.568  26.480  0.1660 -0.2007  0.2630
 3839TIP3    H133076   1.672   0.570  26.422  1.1245  1.0820  1.4705
 3839TIP3    H233077   1.595   0.480  26.517  0.6722 -0.4186 -0.2319
 3840TIP3   OH233078   2.945   0.113  28.612 -0.8649  0.8342  0.1768
 3840TIP3    H133079   2.986   0.160  28.539 -0.0253 -0.5107 -0.2732
 3840TIP3    H233080   2.972   0.022  28.599 -1.2484  0.4587  1.8132
 3841TIP3   OH233081   1.145   1.654  31.214  0.4618  0.2946 -0.1857
 3841TIP3    H133082   1.217   1.655  31.151 -0.0584  0.0586 -0.8101
 3841TIP3    H233083   1.169   1.586  31.277  0.5406 -0.1638 -0.6978
 3842TIP3   OH233084   2.601   0.470  29.719  0.5049  0.4297  0.6455
 3842TIP3    H133085   2.505   0.474  29.729  0.5604  0.6179  1.1171
 3842TIP3    H233086   2.635   0.493  29.805  1.0506  3.5678 -0.2899
 3843TIP3   OH233087   0.517   2.769  29.105  0.1122 -0.1327 -0.0956
 3843TIP3    H133088   0.600   2.742  29.065  0.1672 -1.2451  0.7311
 3843TIP3    H233089   0.506   2.861  29.079  0.8461 -0.4128 -1.4665
 3844TIP3   OH233090   1.507   1.438  28.268  0.2400 -0.2991 -0.1130
 3844TIP3    H133091   1.540   1.359  28.223 -0.8697  0.7069 -2.9303
 3844TIP3    H233092   1.423   1.411  28.305  0.5341 -0.7935  0.2143
 3845TIP3   OH233093   2.607   1.786  32.428 -0.0209 -0.4570 -0.4258
 3845TIP3    H133094   2.522   1.755  32.460  0.2187 -0.6929 -0.0124
 3845TIP3    H233095   2.619   1.870  32.471 -0.5776  0.1329 -1.3937
 3846TIP3   OH233096   1.840   2.789   1.980 -0.4174 -0.1779 -0.4620
 3846TIP3    H133097   1.775   2.842   1.935  1.0329  1.2648 -0.9326
 3846TIP3    H233098   1.886   2.743   1.910 -0.6373 -0.8892 -0.1544
 3847TIP3   OH233099   1.804   0.737   7.033 -0.3349  0.6459  0.3822
 3847TIP3    H133100   1.866   0.679   6.987  0.3077  1.5547  0.0706
 3847TIP3    H233101   1.818   0.718   7.126 -1.1100 -0.6678  0.2576
 3848TIP3   OH233102   0.889   2.141   4.208  0.0374 -0.1911 -0.1511
 3848TIP3    H133103   0.873   2.078   4.137  0.9874 -0.3348 -0.2545
 3848TIP3    H233104   0.821   2.123   4.272  0.1213 -1.1458 -0.3135
 3849TIP3   OH233105   3.013   2.206   6.796 -0.3808  0.5898  0.5021
 3849TIP3    H133106   2.970   2.226   6.879 -0.4405  0.7933  0.4232
 3849TIP3    H233107   3.095   2.162   6.821 -0.8500 -0.2372  0.6394
 3850TIP3   OH233108   2.984   3.417   3.020 -0.2069 -0.2690  0.6705
 3850TIP3    H133109   2.911   3.478   3.008  0.4563  0.3015 -0.6114
 3850TIP3    H233110   2.983   3.362   2.942  0.5053 -0.5086  0.8207
 3851TIP3   OH233111   2.381   3.525   5.412 -0.3410 -0.2131 -0.0579
 3851TIP3    H133112   2.320   3.498   5.344  0.0921 -1.2249 -0.0574
 3851TIP3    H233113   2.363   3.466   5.485 -1.7875  1.7473  1.2872
 3852TIP3   OH233114   2.916   2.441   0.802  0.1626  0.3980  0.0910
 3852TIP3    H133115   2.878   2.515   0.755  2.3662  2.4298  1.3045
 3852TIP3    H233116   2.872   2.441   0.887 -0.2708 -0.0942 -0.1295
 3853TIP3   OH233117   1.076   2.303  26.882  0.0535  0.1266  0.3712
 3853TIP3    H133118   1.105   2.303  26.973 -1.1511  0.6723  0.7711
 3853TIP3    H233119   1.066   2.211  26.860  1.2055 -0.0502  0.4873
 3854TIP3   OH233120   1.016   2.014  32.335 -0.0398 -0.7673  0.3861
 3854TIP3    H133121   1.044   1.936  32.383  0.1857 -0.3490  0.9384
 3854TIP3    H233122   0.929   2.034  32.370 -0.6588 -1.5095 -0.6619
 3855TIP3   OH233123   2.094   0.214  14.496 -0.2505  0.8452  0.6569
 3855TIP3    H133124   2.150   0.282  14.533 -1.5362  2.2664  0.1372
 3855TIP3    H233125   2.077   0.154  14.568  1.2006  0.8714  1.0395
 3856TIP3   OH233126   2.574   1.643   4.232 -0.0549  0.3949 -0.4235
 3856TIP3    H133127   2.604   1.724   4.190 -0.6873  0.4651 -0.7600
 3856TIP3    H233128   2.516   1.673   4.302 -0.8516  0.2324 -0.9933
 3857TIP3   OH233129   2.760   1.220   3.662  0.6962  0.2025 -0.0489
 3857TIP3    H133130   2.831   1.162   3.688  1.4621  0.7525 -0.8548
 3857TIP3    H233131   2.755   1.285   3.732 -1.1988 -1.6351  1.6688
 3858TIP3   OH233132   2.694   1.536   3.577 -0.0181 -0.4585  0.2700
 3858TIP3    H133133   2.694   1.518   3.671  1.0310  0.0098  0.3745
 3858TIP3    H233134   2.762   1.602   3.566 -0.8871  0.3113 -0.6731
 3859TIP3   OH233135   2.616   0.512   3.559 -0.0318  0.2588  0.1605
 3859TIP3    H133136   2.679   0.584   3.560 -0.9510  1.0966 -0.0855
 3859TIP3    H233137   2.664   0.438   3.522  1.0452  0.6334  0.7812
 3860TIP3   OH233138   0.655   1.761  20.120 -0.4051 -0.9970  0.0958
 3860TIP3    H133139   0.745   1.730  20.114  0.4579  1.3211 -0.1566
 3860TIP3    H233140   0.630   1.779  20.030  0.3741  2.0681  0.3850
 3861TIP3   OH233141   1.912   1.812  25.811 -0.1932 -0.0674  0.3457
 3861TIP3    H133142   1.868   1.887  25.849 -0.1479 -0.4466  1.1585
 3861TIP3    H233143   1.975   1.850  25.749  1.4739  0.7225  2.3943
 3862TIP3   OH233144   2.231   1.136  27.775 -0.7340 -0.2230 -0.7147
 3862TIP3    H133145   2.156   1.078  27.761 -0.8851  0.3669 -2.8318
 3862TIP3    H233146   2.287   1.121  27.699 -0.7271  2.2452 -1.3072
 3863TIP3   OH233147   1.707   2.115  31.640 -0.2402  0.6027  0.0391
 3863TIP3    H133148   1.778   2.051  31.637 -0.4911  0.2793  0.7009
 3863TIP3    H233149   1.731   2.182  31.576  1.3591  1.2168  1.2146
 3864TIP3   OH233150   1.791   3.333   4.298 -0.0029  0.6577 -0.2114
 3864TIP3    H133151   1.755   3.414   4.260 -2.1302 -0.1068  0.0007
 3864TIP3    H233152   1.841   3.294   4.227 -2.5594  0.0600 -1.8355
 3865TIP3   OH233153   1.243   2.257  25.272  0.7824 -0.3202  0.2499
 3865TIP3    H133154   1.330   2.231  25.242  0.7342 -2.7119  1.9465
 3865TIP3    H233155   1.183   2.204  25.220  0.4078  0.0797  0.2683
 3866TIP3   OH233156   1.198   3.264   6.944  0.3580 -0.5220 -0.1910
 3866TIP3    H133157   1.219   3.351   6.912 -0.1205 -0.6991 -1.0011
 3866TIP3    H233158   1.164   3.278   7.032 -0.4953  0.1925 -0.6170
 3867TIP3   OH233159   2.567   0.286   3.817 -0.0156  0.9428 -0.4982
 3867TIP3    H133160   2.612   0.211   3.779  1.6068  1.7533 -0.2897
 3867TIP3    H233161   2.577   0.276   3.911  1.4750  2.0932 -0.4894
 3868TIP3   OH233162   0.669   3.449   3.797  0.0076 -0.1934 -0.2702
 3868TIP3    H133163   0.746   3.396   3.820 -0.5105 -1.3447 -1.0778
 3868TIP3    H233164   0.689   3.481   3.709 -0.5491 -0.7367 -0.5998
 3869TIP3   OH233165   2.177   2.497   0.992 -1.0001 -0.0675  0.3625
 3869TIP3    H133166   2.138   2.410   1.000 -1.8909  0.4302  1.9739
 3869TIP3    H233167   2.228   2.507   1.072 -0.2570  0.6028 -0.1825
 3870TIP3   OH233168   1.943   1.766   2.952  0.1927  0.4612 -0.2071
 3870TIP3    H133169   2.031   1.736   2.976  0.2537 -0.8198 -1.8209
 3870TIP3    H233170   1.889   1.688   2.958 -0.3533  0.7226 -1.3534
 3871TIP3   OH233171   2.889   0.338  31.733 -0.8989  0.1014  0.1987
 3871TIP3    H133172   2.904   0.248  31.764  0.4871  0.2019 -0.1439
 3871TIP3    H233173   2.830   0.376  31.798 -0.3561 -0.6084  1.1212
 3872TIP3   OH233174   3.484   3.265   0.934 -0.1891  0.1925  0.0772
 3872TIP3    H133175   3.509   3.348   0.895  2.2086 -0.3672  0.2426
 3872TIP3    H233176   3.464   3.208   0.860 -0.1161  0.4294 -0.1240
 3873TIP3   OH233177   0.238   2.015  28.829  0.0706  0.4261 -0.0323
 3873TIP3    H133178   0.167   1.955  28.807  0.9389 -0.6473  0.0064
 3873TIP3    H233179   0.253   2.001  28.922  1.1817 -0.3025 -0.3095
 3874TIP3   OH233180   0.279   1.758  30.998  0.5058 -0.0540 -0.2027
 3874TIP3    H133181   0.322   1.812  31.065 -1.0696 -1.7284  2.3304
 3874TIP3    H233182   0.348   1.699  30.967  1.4975  1.3834 -0.8379
 3875TIP3   OH233183   2.199   3.154   1.602  0.5209 -0.3752 -0.1831
 3875TIP3    H133184   2.117   3.140   1.650  0.7521  0.9204  0.6320
 3875TIP3    H233185   2.177   3.132   1.511 -1.0497  0.9797 -0.1716
 3876TIP3   OH233186   2.032   2.266  26.770 -0.5078 -0.1194 -0.0293
 3876TIP3    H133187   2.043   2.302  26.857  0.3873  0.5993 -0.4341
 3876TIP3    H233188   2.022   2.342  26.713  0.6829 -0.5113 -0.7940
 3877TIP3   OH233189   2.191   2.814   6.232  0.0702  0.1658 -0.2153
 3877TIP3    H133190   2.273   2.857   6.207  1.9604 -1.5307  2.4017
 3877TIP3    H233191   2.194   2.730   6.187 -0.4837  0.2992 -0.4977
 3878TIP3   OH233192   0.564   1.904  28.974  0.2815  0.2174  0.2270
 3878TIP3    H133193   0.566   1.810  28.993  0.6786  0.3709  0.9525
 3878TIP3    H233194   0.633   1.917  28.909  0.6344  0.1022  0.5758
 3879TIP3   OH233195   2.033   1.876  31.321 -0.0763 -0.0676  0.0029
 3879TIP3    H133196   1.963   1.921  31.367 -0.1976 -1.3187  1.0914
 3879TIP3    H233197   2.097   1.855  31.389 -0.3624 -2.1593 -0.3193
 3880TIP3   OH233198   1.866   3.100  26.931 -0.0424  0.1302  0.3823
 3880TIP3    H133199   1.776   3.079  26.955  0.5821 -0.8732  1.9878
 3880TIP3    H233200   1.918   3.030  26.969  1.4031  0.5034 -0.8174
 3881TIP3   OH233201   1.599   1.401  19.141  0.2889 -0.0986 -0.2974
 3881TIP3    H133202   1.546   1.329  19.174 -1.0924  0.3970 -1.3593
 3881TIP3    H233203   1.584   1.472  19.204 -2.1141  0.7503 -1.6937
 3882TIP3   OH233204   2.765   0.933   7.007  0.5654  0.5734  0.2725
 3882TIP3    H133205   2.853   0.907   6.981  0.6970  1.3787 -0.1083
 3882TIP3    H233206   2.721   0.851   7.029  1.5168  0.1937  0.8127
 3883TIP3   OH233207   2.281   3.238   3.898 -0.5383  0.2576 -0.2381
 3883TIP3    H133208   2.372   3.258   3.877 -1.3941  1.1058 -3.7524
 3883TIP3    H233209   2.250   3.315   3.947  0.4208  0.2013  0.4939
 3884TIP3   OH233210   3.012   0.300  31.224  0.1455 -0.0338  0.3371
 3884TIP3    H133211   2.934   0.251  31.197 -0.2633  0.4507  0.6246
 3884TIP3    H233212   2.990   0.333  31.311 -0.2905  2.1310 -0.5354
 3885TIP3   OH233213   1.213   2.823  28.389 -0.1639 -0.0610 -0.4339
 3885TIP3    H133214   1.193   2.730  28.382  1.5672 -0.4757 -0.1783
 3885TIP3    H233215   1.208   2.856  28.299 -0.6686 -0.4147 -0.5377
 3886TIP3   OH233216   1.211   1.446  20.992 -1.1254  0.5835  0.7418
 3886TIP3    H133217   1.136   1.395  20.961 -0.7953  0.3388  0.3388
 3886TIP3    H233218   1.173   1.512  21.051 -1.7203  0.8500  0.0657
 3887TIP3   OH233219   3.133   1.393  23.451 -0.5917 -0.0813  0.5377
 3887TIP3    H133220   3.192   1.351  23.388 -2.4178 -2.2384  0.1537
 3887TIP3    H233221   3.170   1.371  23.536 -0.4593 -0.8015  0.2987
 3888TIP3   OH233222   1.986   2.953  29.422 -0.0355  0.2625 -0.2475
 3888TIP3    H133223   2.032   3.026  29.382 -1.0749  1.9192  1.3765
 3888TIP3    H233224   2.053   2.887  29.438  0.9533  0.8820 -1.6561
 3889TIP3   OH233225   1.804   3.346  29.686 -0.3625 -0.5900 -0.1013
 3889TIP3    H133226   1.811   3.257  29.652 -0.4683 -0.9975  0.8842
 3889TIP3    H233227   1.715   3.373  29.666 -0.9637 -1.4454  1.2425
 3890TIP3   OH233228   0.940   3.314  26.223 -0.1088 -0.0646  0.4019
 3890TIP3    H133229   0.973   3.277  26.305 -0.2362 -0.3943  0.3075
 3890TIP3    H233230   0.846   3.321  26.236 -0.0313  0.6732  0.5921
 3891TIP3   OH233231   0.634   2.184  32.693  0.0891 -0.1111  0.0572
 3891TIP3    H133232   0.698   2.143  32.634 -1.4316  0.2930 -1.9662
 3891TIP3    H233233   0.634   2.276  32.668  0.9665  0.5412  2.2330
 3892TIP3   OH233234   0.430   1.566  27.040  0.6946  0.1258  0.1165
 3892TIP3    H133235   0.378   1.520  27.106  0.2887  0.4932  0.0594
 3892TIP3    H233236   0.367   1.619  26.992  0.9963 -0.0994 -0.5434
 3893TIP3   OH233237   3.077   0.055  11.739 -0.2988 -0.0562  0.1675
 3893TIP3    H133238   3.130   0.091  11.667  0.4603 -0.4503  0.5277
 3893TIP3    H233239   3.010   0.122  11.755  1.0298  1.1699  0.7550
 3894TIP3   OH233240   2.626   1.875  27.268  0.0905  0.5311  0.9236
 3894TIP3    H133241   2.568   1.914  27.333  0.5021 -1.0182  2.2902
 3894TIP3    H233242   2.710   1.867  27.312  0.7293  0.6168 -0.2408
 3895TIP3   OH233243   0.961   2.149   0.626  0.5220  0.5269 -0.3105
 3895TIP3    H133244   0.963   2.098   0.707 -2.2810 -0.0169 -0.4853
 3895TIP3    H233245   0.945   2.085   0.557 -0.6517  1.3376 -0.8353
 3896TIP3   OH233246   0.166   0.693   0.113  0.2428 -0.4144  0.7406
 3896TIP3    H133247   0.138   0.690   0.205  0.4032  2.2988  0.9598
 3896TIP3    H233248   0.095   0.740   0.068  1.9123  1.8553  0.2927
 3897TIP3   OH233249   0.814   0.748  30.596  0.7400  0.1747  0.2393
 3897TIP3    H133250   0.793   0.685  30.665  2.3466  0.2179  0.8125
 3897TIP3    H233251   0.899   0.784  30.621  1.1830  0.5026 -1.5428
 3898TIP3   OH233252   0.011   1.063  27.103 -0.3281  0.3045 -0.2104
 3898TIP3    H133253  -0.062   1.001  27.101  0.2917 -0.5342  1.3422
 3898TIP3    H233254  -0.010   1.123  27.174  1.1316 -0.8336  1.2600
 3899TIP3   OH233255   0.696   0.032  30.309  0.4974  0.5791  0.2045
 3899TIP3    H133256   0.616  -0.021  30.306 -0.0999  1.3855  1.2597
 3899TIP3    H233257   0.713   0.045  30.402  1.4775  1.0062 -0.0172
 3900TIP3   OH233258   3.149   2.521   1.736  0.2442  0.0060  0.3466
 3900TIP3    H133259   3.186   2.556   1.655 -1.2626 -1.1722 -0.9301
 3900TIP3    H233260   3.201   2.443   1.755 -0.8119 -1.0403 -0.8448
 3901TIP3   OH233261   2.364   1.022  32.304 -0.2166  0.0924  0.1320
 3901TIP3    H133262   2.335   1.027  32.396 -0.1249  1.9662  0.0959
 3901TIP3    H233263   2.286   0.991  32.257 -2.0082  3.8148  0.2269
 3902TIP3   OH233264   1.578   0.678   6.305 -0.5108 -0.1007 -0.1529
 3902TIP3    H133265   1.628   0.699   6.226  0.1496  1.0520  0.5541
 3902TIP3    H233266   1.638   0.629   6.360 -0.9658 -0.8852 -0.3324
 3903TIP3   OH233267   2.933   0.198   4.930  0.0555  0.0806  0.5054
 3903TIP3    H133268   2.891   0.140   4.994 -1.5968  0.0125 -0.5884
 3903TIP3    H233269   2.919   0.155   4.846  3.3706 -0.5245  0.1252
 3904TIP3   OH233270   2.575   2.164  18.080 -0.4210 -0.2184  0.1619
 3904TIP3    H133271   2.570   2.069  18.067  1.2597 -0.5333  1.4065
 3904TIP3    H233272   2.660   2.188  18.045 -1.3983  1.1125 -1.4156
 3905TIP3   OH233273   3.131   1.382  28.451 -0.5500  0.1740  0.4381
 3905TIP3    H133274   3.085   1.381  28.535 -1.1149  0.7125  0.1520
 3905TIP3    H233275   3.102   1.463  28.410 -0.9830 -0.5191 -0.6582
 3906TIP3   OH233276   3.205   2.691  31.953 -0.3435  0.3085  0.2741
 3906TIP3    H133277   3.292   2.678  31.991  0.1042  1.0341 -0.4783
 3906TIP3    H233278   3.144   2.670  32.024  0.4108 -1.4020  0.4461
 3907TIP3   OH233279   2.621   2.334  32.498  0.0784 -0.6971  0.3586
 3907TIP3    H133280   2.669   2.359  32.576  0.1148 -0.4483  0.2577
 3907TIP3    H233281   2.637   2.404  32.436  0.6453 -1.2463 -0.1272
 3908TIP3   OH233282   0.829   0.554   5.935 -0.1513 -0.4595 -0.6201
 3908TIP3    H133283   0.815   0.607   5.857  0.0128  0.1308 -0.2531
 3908TIP3    H233284   0.911   0.507   5.917  0.7767  0.9144 -0.1508
 3909TIP3   OH233285   0.432   1.334   6.616 -0.5799  0.0102 -0.1253
 3909TIP3    H133286   0.408   1.268   6.680 -1.2834 -0.6795 -1.0699
 3909TIP3    H233287   0.524   1.317   6.597 -0.1846  0.6234  1.1421
 3910TIP3   OH233288   1.516   0.698   4.645  0.2722 -0.7329  0.6227
 3910TIP3    H133289   1.490   0.615   4.606 -1.7232  1.0213 -2.0909
 3910TIP3    H233290   1.439   0.726   4.694  0.6403 -0.0674  0.8258
 3911TIP3   OH233291   0.087   1.072   5.916  0.6263 -0.6931  0.1515
 3911TIP3    H133292   0.065   0.990   5.960 -0.3841 -0.1385  0.7165
 3911TIP3    H233293   0.004   1.120   5.911  0.7863 -0.5618 -2.0478
 3912TIP3   OH233294   2.351   0.768  26.738  0.4055 -0.4521  0.0320
 3912TIP3    H133295   2.422   0.775  26.801 -0.7979  1.2999  1.3297
 3912TIP3    H233296   2.384   0.812  26.660  1.3375 -1.1551  0.0261
 3913TIP3   OH233297   3.095   2.172   2.254  0.0865 -0.3811  0.6772
 3913TIP3    H133298   3.163   2.213   2.307 -0.6995  0.0368  1.3931
 3913TIP3    H233299   3.104   2.212   2.167  1.4455 -1.1429  0.4369
 3914TIP3   OH233300   2.273   2.183  20.912  0.5067 -0.1622 -0.1838
 3914TIP3    H133301   2.325   2.232  20.975  0.7542 -0.2734 -0.3012
 3914TIP3    H233302   2.242   2.106  20.962 -0.7855  0.6417  0.3186
 3915TIP3   OH233303   2.880   1.506   2.240 -0.2744 -0.5530 -0.0482
 3915TIP3    H133304   2.893   1.559   2.161  2.2002 -1.4334 -0.3165
 3915TIP3    H233305   2.902   1.565   2.312 -1.2729 -0.1290 -0.0755
 3916TIP3   OH233306   1.434   0.033  26.773  0.1096  0.0838  0.6349
 3916TIP3    H133307   1.437   0.125  26.749 -1.3818  0.0917  0.3460
 3916TIP3    H233308   1.340   0.012  26.774  0.2687 -0.8204  3.0765
 3917TIP3   OH233309   0.169   0.107  11.100 -0.5164 -0.8380 -0.8472
 3917TIP3    H133310   0.184   0.020  11.063 -0.5561 -1.3173  0.2594
 3917TIP3    H233311   0.075   0.120  11.095 -0.6756 -1.4741  0.3457
 3918TIP3   OH233312   0.018   3.528   2.022 -0.1949  0.2341 -0.2497
 3918TIP3    H133313   0.111   3.534   2.003  0.5170  1.6809  3.1018
 3918TIP3    H233314  -0.013   3.456   1.967  3.4059 -1.9715  0.3209
 3919TIP3   OH233315   0.507   1.373  30.492 -0.2690  0.0593 -0.0067
 3919TIP3    H133316   0.563   1.406  30.421 -0.5083  2.2799  0.7438
 3919TIP3    H233317   0.561   1.312  30.540  0.3808 -0.3746 -1.2469
 3920TIP3   OH233318   3.355   1.752  30.976  0.5855  0.1062 -0.1336
 3920TIP3    H133319   3.342   1.818  30.908 -1.9922  0.0769  0.2482
 3920TIP3    H233320   3.372   1.671  30.927 -0.3370  0.2634 -0.7391
 3921TIP3   OH233321   0.904   1.099  31.356 -0.4958 -0.3305 -0.3024
 3921TIP3    H133322   0.847   1.057  31.291  0.8383 -1.6968 -0.6657
 3921TIP3    H233323   0.984   1.118  31.307 -0.2686  0.6501  0.4322
 3922TIP3   OH233324   1.504   2.023   4.790 -0.1339 -0.4476 -0.2128
 3922TIP3    H133325   1.483   2.086   4.858 -0.2316 -2.5033  1.7685
 3922TIP3    H233326   1.461   2.058   4.711 -3.4993  0.0400  1.6342
 3923TIP3   OH233327   1.066   1.187  26.079  0.0368 -0.3971 -0.0478
 3923TIP3    H133328   1.144   1.135  26.061  0.1257 -0.6666  1.0637
 3923TIP3    H233329   1.099   1.268  26.118 -0.0938  0.5704 -1.8493
 3924TIP3   OH233330   1.008   3.491  28.398  0.1231 -0.4384  0.0882
 3924TIP3    H133331   0.986   3.399  28.381 -0.2883 -0.4555  0.6755
 3924TIP3    H233332   1.078   3.487  28.463  1.1792 -0.3587 -1.0129
 3925TIP3   OH233333   2.302   3.277  31.962 -1.0724  0.4907  0.2593
 3925TIP3    H133334   2.292   3.215  31.890 -2.0461  1.8078 -0.7979
 3925TIP3    H233335   2.343   3.226  32.032 -0.9779 -1.0801 -0.8812
 3926TIP3   OH233336   2.294   1.203  26.689 -0.0191  0.2149  0.2075
 3926TIP3    H133337   2.213   1.162  26.657  0.4630 -1.6801  1.2507
 3926TIP3    H233338   2.268   1.247  26.770 -0.3262  1.0449 -0.3381
 3927TIP3   OH233339   0.115   1.090  26.573 -0.1107 -0.5553 -0.0447
 3927TIP3    H133340   0.188   1.045  26.617  0.3735 -0.2402 -0.5076
 3927TIP3    H233341   0.107   1.045  26.489  0.6649  0.4817 -0.6975
 3928TIP3   OH233342   0.456   1.907   5.567  0.4767  0.2699  0.4333
 3928TIP3    H133343   0.399   1.948   5.502  2.2582 -0.2192 -1.5451
 3928TIP3    H233344   0.524   1.972   5.583  1.1562 -0.3898  0.2650
 3929TIP3   OH233345   1.259   1.818   5.207 -0.4026  0.7526  0.0468
 3929TIP3    H133346   1.283   1.848   5.119 -1.6606 -0.0584 -0.6014
 3929TIP3    H233347   1.253   1.723   5.199 -0.4073  0.6618  1.0510
 3930TIP3   OH233348   0.128   1.417  25.784  0.6498  0.9023 -0.3226
 3930TIP3    H133349   0.191   1.489  25.789  1.6356  0.0337  0.1071
 3930TIP3    H233350   0.053   1.447  25.835  1.4855  1.1965  0.7536
 3931TIP3   OH233351   1.864   2.555  32.653 -0.3338  0.5178  0.0826
 3931TIP3    H133352   1.811   2.588  32.580  1.4933  1.9201 -0.6877
 3931TIP3    H233353   1.925   2.495  32.612  0.3393  0.8894  0.5347
 3932TIP3   OH233354   1.294   1.286  28.353  0.0196 -0.2584  0.2113
 3932TIP3    H133355   1.220   1.240  28.312 -0.7633  0.4704  0.7721
 3932TIP3    H233356   1.254   1.342  28.419  0.9041  1.4599 -0.6358
 3933TIP3   OH233357   1.763   2.879   0.498  0.1149  0.0573 -0.0127
 3933TIP3    H133358   1.827   2.831   0.447  0.9270 -1.5700  2.3856
 3933TIP3    H233359   1.784   2.971   0.483  3.3389 -0.3956  0.9610
 3934TIP3   OH233360   2.975   3.124   6.002  0.2628  0.2359  0.0498
 3934TIP3    H133361   2.879   3.125   6.008  0.2943  1.9140  0.6689
 3934TIP3    H233362   2.997   3.031   6.009 -1.1245 -0.0206  3.9527
 3935TIP3   OH233363   3.366   2.767  31.106 -0.6035 -0.3451 -0.4076
 3935TIP3    H133364   3.415   2.843  31.074  0.2016 -1.1371 -1.0884
 3935TIP3    H233365   3.374   2.702  31.037 -0.6341 -1.3361  0.4960
 3936TIP3   OH233366   0.022   0.013   5.192  0.7070 -0.1178  0.5101
 3936TIP3    H133367   0.112   0.030   5.219  1.0277  0.4797 -0.8588
 3936TIP3    H233368   0.030  -0.031   5.108 -0.2742 -0.4353  0.5742
 3937TIP3   OH233369   1.118   3.179  12.549  0.7964  0.2689  0.0429
 3937TIP3    H133370   1.127   3.144  12.637  1.7782  1.2363  0.3550
 3937TIP3    H233371   1.028   3.161  12.524  0.8910 -1.2066  0.7151
 3938TIP3   OH233372   3.330   0.121  27.803  0.1488  0.4703  0.3995
 3938TIP3    H133373   3.410   0.110  27.752 -0.4430  2.0686 -0.9875
 3938TIP3    H233374   3.285   0.036  27.796  0.2175  0.5461 -1.5774
 3939TIP3   OH233375   2.920   1.600   6.369  0.4214  0.0492 -0.1139
 3939TIP3    H133376   2.894   1.655   6.444  0.5960 -0.8784  0.6529
 3939TIP3    H233377   2.842   1.598   6.313 -0.0029  0.0741  0.4624
 3940TIP3   OH233378   0.659   1.005  31.243  0.4488 -0.2731 -0.8681
 3940TIP3    H133379   0.584   1.064  31.234  0.6641  0.0051 -0.8258
 3940TIP3    H233380   0.656   0.976  31.334  0.7921  0.2707 -0.6838
 3941TIP3   OH233381   2.669   1.854   1.015  0.1402 -0.4380  0.4055
 3941TIP3    H133382   2.682   1.941   0.977 -0.2986 -0.1523  0.9059
 3941TIP3    H233383   2.672   1.868   1.110 -1.5574 -0.6938  0.5345
 3942TIP3   OH233384   3.091   0.154   2.985  0.1828 -0.6279  0.4065
 3942TIP3    H133385   3.035   0.077   2.992 -0.0870 -0.7050 -1.8436
 3942TIP3    H233386   3.068   0.193   2.901  0.4474  1.8297  1.3984
 3943TIP3   OH233387   0.429   0.081   4.888  0.2136 -0.2131  0.0417
 3943TIP3    H133388   0.438   0.020   4.814  1.5246  0.8282 -0.6934
 3943TIP3    H233389   0.502   0.142   4.877 -0.6117  1.0134  1.2142
 3944TIP3   OH233390   0.280   3.303  27.019  0.2352  0.3534 -0.5709
 3944TIP3    H133391   0.277   3.280  27.112 -0.2437  2.0077 -0.1539
 3944TIP3    H233392   0.192   3.284  26.987  0.8202 -1.7543 -1.1300
 3945TIP3   OH233393   3.146   0.436   3.129 -0.1827  0.2364 -0.9177
 3945TIP3    H133394   3.228   0.408   3.089 -0.2881 -0.6688 -0.5214
 3945TIP3    H233395   3.083   0.435   3.057  0.0807  0.6502 -1.1613
 3946TIP3   OH233396   1.418   2.086  27.388  0.5139 -0.1038 -0.3807
 3946TIP3    H133397   1.385   2.176  27.394  0.0123 -0.3877  2.6472
 3946TIP3    H233398   1.495   2.085  27.444 -0.1221 -1.7849  0.5353
 3947TIP3   OH233399   2.936   1.846  23.608 -0.0827  0.0392 -0.1573
 3947TIP3    H133400   2.880   1.875  23.536  0.3452 -0.6894 -0.7929
 3947TIP3    H233401   2.939   1.751  23.599  0.4191 -0.0125  0.5032
 3948TIP3   OH233402   1.390   0.465  29.993  0.1389 -0.0857  0.3136
 3948TIP3    H133403   1.313   0.509  30.029 -0.6255 -0.1914 -1.1416
 3948TIP3    H233404   1.376   0.465  29.898  1.3537 -1.1797  0.1096
 3949TIP3   OH233405   0.503   1.847  27.026 -0.1981  0.4729  0.1497
 3949TIP3    H133406   0.410   1.857  27.009  0.0850  1.0072 -1.1652
 3949TIP3    H233407   0.509   1.766  27.078 -1.4296  0.7713  0.8008
 3950TIP3   OH233408   2.499   0.569   6.471 -0.0919  0.2354 -0.5631
 3950TIP3    H133409   2.451   0.486   6.467 -1.3054  0.8821 -0.1722
 3950TIP3    H233410   2.433   0.635   6.452  0.6764  1.1662 -0.0784
 3951TIP3   OH233411   2.214   1.903  20.994  0.3029  0.0360  0.0335
 3951TIP3    H133412   2.166   1.851  21.059 -1.8744  1.0539 -0.6357
 3951TIP3    H233413   2.260   1.838  20.941 -0.5773 -1.0562  0.5568
 3952TIP3   OH233414   1.290   0.522  26.894  0.8710  0.1352  0.1796
 3952TIP3    H133415   1.262   0.457  26.830  0.8689  0.2011  0.1145
 3952TIP3    H233416   1.244   0.602  26.870  0.1947 -0.0585  0.7783
 3953TIP3   OH233417   2.044   1.263  19.857 -0.3175 -0.5319 -0.3157
 3953TIP3    H133418   2.123   1.251  19.803  0.3335  0.0414  0.4675
 3953TIP3    H233419   1.994   1.330  19.810  0.1556 -0.1639 -0.3087
 3954TIP3   OH233420   1.617   1.863  28.107 -0.0685 -0.2913 -0.2405
 3954TIP3    H133421   1.643   1.954  28.103 -0.1367 -0.2626 -0.0453
 3954TIP3    H233422   1.521   1.865  28.117  0.0422 -0.3552  1.0267
 3955TIP3   OH233423   1.255   3.448   1.114 -0.3543  0.7698  0.2677
 3955TIP3    H133424   1.205   3.452   1.195 -0.2559  0.6068  0.3362
 3955TIP3    H233425   1.334   3.398   1.136 -0.5590  0.3066 -0.0510
 3956TIP3   OH233426   3.162   3.090   0.928  0.1026  0.1692  0.5745
 3956TIP3    H133427   3.111   3.009   0.940  0.8169 -0.7645 -2.1094
 3956TIP3    H233428   3.106   3.146   0.876  1.6378 -0.8612 -2.4028
 3957TIP3   OH233429   3.014   3.231  28.560  0.2341 -0.2011  0.5887
 3957TIP3    H133430   3.107   3.247  28.576 -0.1328  2.0500  0.7641
 3957TIP3    H233431   2.988   3.169  28.628  1.7326 -1.5189  0.0527
 3958TIP3   OH233432   1.022   3.261   0.279  0.3387 -0.2983  0.2342
 3958TIP3    H133433   0.939   3.308   0.278  0.7655  0.4671 -0.4426
 3958TIP3    H233434   1.084   3.322   0.318  0.6892 -0.6748  0.2773
 3959TIP3   OH233435   3.172   0.673   0.003  0.2301 -0.1266 -0.2487
 3959TIP3    H133436   3.210   0.658  -0.083  0.3532 -0.5250 -0.1286
 3959TIP3    H233437   3.212   0.606   0.059  0.1519  0.1288  0.1163
 3960TIP3   OH233438   1.650   0.514  10.553 -0.2036 -0.1049  0.3683
 3960TIP3    H133439   1.625   0.484  10.466  2.0735 -0.0665 -0.3448
 3960TIP3    H233440   1.691   0.599  10.539  0.2223 -0.1023  1.4760
 3961TIP3   OH233441   3.537   1.762   0.612  0.0118  0.1411  0.1797
 3961TIP3    H133442   3.541   1.672   0.645 -0.0280  0.2089  0.3727
 3961TIP3    H233443   3.565   1.756   0.521  1.8457  0.2156  0.7065
 3962TIP3   OH233444   2.368   2.050   1.100 -0.1056  0.5175 -0.4581
 3962TIP3    H133445   2.305   2.106   1.144  2.2080  1.9558  1.2801
 3962TIP3    H233446   2.452   2.072   1.141  1.3416 -2.2603 -1.6615
 3963TIP3   OH233447   3.175   0.492   4.948 -0.5002  0.3411  0.0274
 3963TIP3    H133448   3.250   0.514   5.004 -1.4617  0.9870  1.1081
 3963TIP3    H233449   3.119   0.569   4.952 -0.9181  0.1373 -1.3257
 3964TIP3   OH233450   3.216   2.973   6.598  0.1209 -0.0613  0.0128
 3964TIP3    H133451   3.125   2.963   6.571  0.3445  0.5874 -1.0274
 3964TIP3    H233452   3.214   3.042   6.665 -0.0085  0.8894 -0.9429
 3965TIP3   OH233453   1.223   0.403   2.680 -0.0170  0.2597  0.2797
 3965TIP3    H133454   1.142   0.353   2.671  0.7854 -0.9470 -0.5167
 3965TIP3    H233455   1.202   0.472   2.743 -1.3365 -0.6935  0.9271
 3966TIP3   OH233456   0.245   2.323  28.314 -0.5834 -0.1296  0.2419
 3966TIP3    H133457   0.209   2.351  28.398 -0.5523  4.2953 -0.9837
 3966TIP3    H233458   0.168   2.314  28.257 -0.5045 -2.0103  0.3584
 3967TIP3   OH233459   0.300   1.803  32.502 -1.0920 -0.0751  0.0322
 3967TIP3    H133460   0.324   1.863  32.572 -2.2535 -1.6599  1.9224
 3967TIP3    H233461   0.205   1.794  32.510 -1.0214 -1.7407 -0.4887
 3968TIP3   OH233462   0.068   1.103  32.289  0.5531  0.2649 -0.2340
 3968TIP3    H133463  -0.016   1.093  32.245  0.5475  1.9744 -0.6850
 3968TIP3    H233464   0.121   1.031  32.255 -0.4247 -0.2772 -0.6669
 3969TIP3   OH233465   2.438   3.278  26.293  0.6610  0.2515  0.1186
 3969TIP3    H133466   2.408   3.358  26.336  0.9922  0.8388 -0.7260
 3969TIP3    H233467   2.417   3.290  26.201  1.8972 -0.0692 -0.2255
 3970TIP3   OH233468   2.784   2.203  26.959 -0.3242  0.5755 -0.3672
 3970TIP3    H133469   2.731   2.130  26.929 -0.6638  0.0401  1.4481
 3970TIP3    H233470   2.746   2.280  26.915 -1.6449  0.0140 -0.2401
 3971TIP3   OH233471   1.322   2.825  31.046 -0.0413  0.5586  0.0585
 3971TIP3    H133472   1.327   2.729  31.040  0.8234  0.6098 -0.1234
 3971TIP3    H233473   1.290   2.842  31.135  1.5294  0.1323  0.7338
 3972TIP3   OH233474   1.528   3.478   4.309  0.0750 -0.1859 -0.0421
 3972TIP3    H133475   1.474   3.515   4.239  2.9796  0.4805 -2.1132
 3972TIP3    H233476   1.597   3.543   4.323  1.3408 -1.7268  1.2474
 3973TIP3   OH233477   1.082   3.246   5.667 -0.0621  0.5064  0.1919
 3973TIP3    H133478   1.054   3.156   5.653  1.3912 -0.2452  1.7255
 3973TIP3    H233479   1.130   3.269   5.588 -0.2511 -0.1400 -0.1133
 3974TIP3   OH233480   2.244   0.820  27.115 -0.2055  0.2636  0.3407
 3974TIP3    H133481   2.222   0.835  27.023 -1.5419  0.8686  0.7274
 3974TIP3    H233482   2.251   0.909  27.152 -0.0857  0.0224  0.9068
 3975TIP3   OH233483   3.220   2.632  22.149  0.2928 -0.0185  0.5987
 3975TIP3    H133484   3.220   2.538  22.133 -0.8091 -0.2195  1.6864
 3975TIP3    H233485   3.143   2.664  22.102 -0.9201 -0.0952  2.4501
 3976TIP3   OH233486   0.404   0.019  28.830  1.2334  0.1039  0.0366
 3976TIP3    H133487   0.488  -0.008  28.793  1.0362 -0.2339 -0.1746
 3976TIP3    H233488   0.375   0.092  28.774  1.1928 -0.0493 -0.1415
 3977TIP3   OH233489   1.013   2.053  19.440  0.4441 -0.1625 -0.1543
 3977TIP3    H133490   0.988   1.969  19.480  0.2357 -0.2505 -0.4607
 3977TIP3    H233491   1.107   2.045  19.425  0.3992 -0.3963 -0.3116
 3978TIP3   OH233492   0.546   2.281  31.187  0.3250  0.3003  0.1779
 3978TIP3    H133493   0.590   2.281  31.272 -0.5314  3.0923  0.7369
 3978TIP3    H233494   0.453   2.287  31.208  0.1541  2.5099 -0.8509
 3979TIP3   OH233495   2.134   2.479  32.384  0.3746 -0.0329  0.6027
 3979TIP3    H133496   2.054   2.483  32.332  0.2492 -1.1429  0.6946
 3979TIP3    H233497   2.162   2.570  32.392 -1.6751  0.5421  1.7925
 3980TIP3   OH233498   1.735   2.347  26.693 -0.1338  0.0543 -0.4683
 3980TIP3    H133499   1.811   2.316  26.643  2.7536 -1.2812  4.1236
 3980TIP3    H233500   1.679   2.270  26.701  1.3233 -0.8967  1.3480
 3981TIP3   OH233501   1.741   3.150  27.811 -0.2129  0.0709  0.5146
 3981TIP3    H133502   1.807   3.143  27.743 -0.0938  0.0081  0.6381
 3981TIP3    H233503   1.709   3.061  27.823 -0.1500  0.0639  0.6262
 3982TIP3   OH233504   1.024   0.054   1.732  0.1532  0.2228  0.0936
 3982TIP3    H133505   1.031  -0.014   1.800  0.6582 -0.6390 -0.7992
 3982TIP3    H233506   0.943   0.033   1.686 -0.5314  1.1927  0.8158
 3983TIP3   OH233507   1.260   0.035  31.419  0.7473  0.5390  0.1762
 3983TIP3    H133508   1.299   0.054  31.504  2.6168 -0.9879 -0.2607
 3983TIP3    H233509   1.181  -0.016  31.440  1.3065 -0.0165  1.0212
 3984TIP3   OH233510   3.144   2.597   4.174  0.1359  0.1204 -0.1469
 3984TIP3    H133511   3.093   2.637   4.103 -1.3290 -0.0006  0.7978
 3984TIP3    H233512   3.182   2.519   4.134 -0.6980  0.0310 -0.8011
 3985TIP3   OH233513   1.689   0.808  14.877 -0.4963 -0.2613  0.0767
 3985TIP3    H133514   1.687   0.876  14.810 -1.3986  0.2533  0.6084
 3985TIP3    H233515   1.770   0.824  14.926  0.0278 -0.4760 -0.7098
 3986TIP3   OH233516   1.248   0.206  30.935  0.1814 -0.3684  0.1765
 3986TIP3    H133517   1.284   0.118  30.945  2.5710  0.7590  2.3039
 3986TIP3    H233518   1.242   0.240  31.024 -1.4464  1.4007 -0.5417
 3987TIP3   OH233519   2.329   1.884  30.487 -0.3115 -0.3665 -0.0825
 3987TIP3    H133520   2.295   1.928  30.565 -2.9147 -0.7582 -0.8985
 3987TIP3    H233521   2.360   1.800  30.519  0.9030  0.4068  0.8594
 3988TIP3   OH233522   0.192   2.797  32.806  0.4507  0.2528  0.2612
 3988TIP3    H133523   0.239   2.723  32.768  0.2422  0.8803 -1.2824
 3988TIP3    H233524   0.256   2.869  32.805  0.5408  0.2164  1.4211
 3989TIP3   OH233525   0.841   1.874  28.155 -0.0076  0.2908 -0.4659
 3989TIP3    H133526   0.879   1.800  28.109  2.7209  2.0210 -1.2346
 3989TIP3    H233527   0.895   1.884  28.233  0.2289  1.9189 -0.8001
 3990TIP3   OH233528   0.963   1.948  32.873 -0.1794 -0.3599 -0.3195
 3990TIP3    H133529   0.913   1.892  32.813 -0.0084 -0.4103 -0.4173
 3990TIP3    H233530   0.978   1.893  32.950  1.3217 -0.9972 -1.0314
 3991TIP3   OH233531   2.772   0.097   5.906  0.7258  0.4423 -0.1419
 3991TIP3    H133532   2.711   0.152   5.857  0.6002 -0.4673 -1.0400
 3991TIP3    H233533   2.857   0.112   5.864  0.9868  1.0727  0.5774
 3992TIP3   OH233534   0.861   1.018  30.389 -0.1485 -0.3377 -0.1065
 3992TIP3    H133535   0.923   1.089  30.402 -1.1080  0.5104 -0.0591
 3992TIP3    H233536   0.868   0.965  30.468 -1.7387  1.5321  1.3885
 3993TIP3   OH233537   3.500   3.388   4.409  0.2598 -0.5156  0.5100
 3993TIP3    H133538   3.554   3.389   4.488 -1.2998  0.0143  1.6052
 3993TIP3    H233539   3.563   3.375   4.337  2.0290  1.7426  1.5474
 3994TIP3   OH233540   1.992   0.828   0.418 -0.1089 -0.1681  0.1507
 3994TIP3    H133541   1.997   0.790   0.331  0.1316 -0.1820  0.1696
 3994TIP3    H233542   1.979   0.922   0.402  0.0151 -0.1598  0.1002
 3995TIP3   OH233543   0.359   0.499  29.353 -0.3906  0.0412  0.2691
 3995TIP3    H133544   0.417   0.437  29.397  0.0431  0.6257  0.5463
 3995TIP3    H233545   0.373   0.483  29.259  1.7719  1.5016  0.2660
 3996TIP3   OH233546   1.018   2.062   2.783 -0.6393 -0.1417  0.5559
 3996TIP3    H133547   1.089   2.064   2.847  1.8124  0.1271 -1.9584
 3996TIP3    H233548   1.024   1.974   2.745 -0.6843  0.3688 -0.6625
 3997TIP3   OH233549   0.928   3.135  30.082 -0.0686  0.0710  0.0921
 3997TIP3    H133550   0.878   3.216  30.095 -0.1643  0.2145 -1.0920
 3997TIP3    H233551   0.924   3.092  30.167  1.8482  2.3151  1.4375
 3998TIP3   OH233552   1.241   3.234  32.888 -0.0381  0.2799 -0.4072
 3998TIP3    H133553   1.235   3.174  32.814 -1.6927 -1.5411  1.0698
 3998TIP3    H233554   1.294   3.186  32.953 -1.4466  0.3156  0.8233
 3999TIP3   OH233555   3.176   1.081  26.107 -0.2222  0.4181 -0.3107
 3999TIP3    H133556   3.084   1.065  26.129 -0.2950  1.3029  0.0560
 3999TIP3    H233557   3.216   0.994  26.107 -0.9124  0.0905  0.1803
 4000TIP3   OH233558   1.580   0.924  28.438  0.1389 -0.3839 -0.9582
 4000TIP3    H133559   1.631   0.938  28.358  2.5341  1.0536  0.6863
 4000TIP3    H233560   1.595   1.003  28.490 -2.9317 -0.4169  0.1664
 4001TIP3   OH233561   1.107   1.726  25.324 -0.1861 -0.4148 -0.2551
 4001TIP3    H133562   1.098   1.730  25.229 -0.0426  1.0553 -0.2250
 4001TIP3    H233563   1.082   1.813  25.354  0.9400 -0.4850  0.9572
 4002TIP3   OH233564   1.393   3.143  31.689  0.7393  0.3489 -0.3667
 4002TIP3    H133565   1.397   3.071  31.627 -0.9331 -0.1435  0.0527
 4002TIP3    H233566   1.324   3.200  31.656  0.3770  0.4897  0.5971
 4003TIP3   OH233567   1.643   3.110   6.132  0.3217 -0.6371  0.3635
 4003TIP3    H133568   1.584   3.093   6.059  1.4009  1.3057 -1.0522
 4003TIP3    H233569   1.710   3.042   6.125 -0.5806 -1.6093  0.7558
 4004TIP3   OH233570   2.520   2.119  22.673  0.2547  0.4105 -0.3259
 4004TIP3    H133571   2.510   2.212  22.696  1.8879  0.5605 -0.1420
 4004TIP3    H233572   2.449   2.103  22.610 -2.5547  0.7246  2.5073
 4005TIP3   OH233573   1.043   0.913  31.823  0.1899  0.0251  0.6920
 4005TIP3    H133574   1.034   0.824  31.856  1.5682  0.4392  2.3117
 4005TIP3    H233575   1.135   0.919  31.796  0.5262  1.3918  2.0398
 4006TIP3   OH233576   2.073   2.138   4.409 -0.0516  0.6541 -0.2783
 4006TIP3    H133577   2.105   2.083   4.481  1.5618  2.2843  0.3422
 4006TIP3    H233578   2.046   2.076   4.341 -0.3415 -0.9087  1.1925
 4007TIP3   OH233579   3.308   2.107   7.817  0.0148 -0.0909  0.2810
 4007TIP3    H133580   3.345   2.195   7.827 -1.1055  0.6838 -1.7317
 4007TIP3    H233581   3.382   2.052   7.793  0.4197  0.7716 -0.5163
 4008TIP3   OH233582   1.175   0.262   1.107  0.1889 -0.8642 -0.2757
 4008TIP3    H133583   1.198   0.354   1.092 -0.3461 -0.6954 -0.1062
 4008TIP3    H233584   1.259   0.217   1.119  0.4128 -0.1828  0.8682
 4009TIP3   OH233585   1.140   2.264  32.398  0.2566 -0.5488 -0.4907
 4009TIP3    H133586   1.139   2.170  32.382  0.9237 -0.4711 -1.0126
 4009TIP3    H233587   1.160   2.272  32.491  0.8022 -0.9169 -0.5704
 4010TIP3   OH233588   3.402   2.010   7.124  0.5709 -0.2315  0.9230
 4010TIP3    H133589   3.415   2.092   7.170 -1.0207 -0.2998  1.5585
 4010TIP3    H233590   3.330   1.967   7.170  1.7724 -2.2987  1.0251
 4011TIP3   OH233591   1.254   2.941   5.742 -0.0829 -0.3306 -0.0841
 4011TIP3    H133592   1.230   2.950   5.649  0.6691  0.8266 -0.1965
 4011TIP3    H233593   1.299   3.023   5.762  1.1647 -1.2175  0.8797
 4012TIP3   OH233594   1.208   2.574  23.773  0.4090  0.4920  0.7718
 4012TIP3    H133595   1.241   2.495  23.817 -2.2807 -0.4457  1.2698
 4012TIP3    H233596   1.267   2.587  23.699  0.0817 -2.8999 -0.2270
 4013TIP3   OH233597   1.777   1.596  32.536 -0.2025  0.4555  0.6303
 4013TIP3    H133598   1.814   1.638  32.459 -0.0434 -2.0852 -0.7877
 4013TIP3    H233599   1.853   1.563  32.584 -0.3647 -1.5732 -0.3804
 4014TIP3   OH233600   2.530   1.464   4.757  0.9817  0.2115  0.0736
 4014TIP3    H133601   2.473   1.499   4.826  2.2422 -0.8859  1.7684
 4014TIP3    H233602   2.547   1.538   4.700  0.7796  1.4695  1.5812
 4015TIP3   OH233603   2.075   3.336  28.905  0.8791  0.1341 -0.0247
 4015TIP3    H133604   2.111   3.255  28.942  0.2066  0.6633  1.8828
 4015TIP3    H233605   2.076   3.321  28.810  3.9699 -0.7387  0.0350
 4016TIP3   OH233606   1.964   1.071   0.300  0.0093  0.1705  0.0731
 4016TIP3    H133607   1.993   1.127   0.372 -0.7327  0.8044 -0.1121
 4016TIP3    H233608   1.872   1.093   0.288 -0.1262 -0.6292 -0.4348
 4017TIP3   OH233609   2.595   1.732  28.402  0.4039 -0.0149  0.0040
 4017TIP3    H133610   2.577   1.668  28.471 -1.4314  1.5387  1.0681
 4017TIP3    H233611   2.579   1.817  28.443 -0.8043  0.9836 -2.3230
 4018TIP3   OH233612   3.094   3.352   3.960 -0.2385  0.2873 -0.6821
 4018TIP3    H133613   3.092   3.386   3.871  2.1816 -0.4771 -1.1133
 4018TIP3    H233614   3.132   3.265   3.952  0.3184  0.3145  1.1155
 4019TIP3   OH233615   2.450   2.303   2.103  0.7257 -0.5581  0.2087
 4019TIP3    H133616   2.516   2.372   2.105  2.0628 -1.6116 -2.3440
 4019TIP3    H233617   2.454   2.269   2.014 -1.2372 -2.6447  0.8238
 4020TIP3   OH233618   1.156   1.476   2.615  0.1146 -0.2786  0.4186
 4020TIP3    H133619   1.203   1.446   2.693 -2.0128  0.0865  1.9192
 4020TIP3    H233620   1.121   1.562   2.638  0.3077  0.3244 -1.3428
 4021TIP3   OH233621   0.242   3.494  29.687  0.3312 -0.7822 -0.1099
 4021TIP3    H133622   0.332   3.512  29.661 -0.1397  1.7742 -0.2172
 4021TIP3    H233623   0.225   3.405  29.655  2.6910 -1.2258 -0.3060
 4022TIP3   OH233624   0.815   1.021   1.485 -0.1633 -0.1977 -0.1939
 4022TIP3    H133625   0.781   0.934   1.504  0.8113 -0.6711 -0.5627
 4022TIP3    H233626   0.889   1.032   1.545  0.5548 -0.1773 -1.0626
 4023TIP3   OH233627   2.509   2.411   1.408  0.1350 -0.7869 -0.3122
 4023TIP3    H133628   2.483   2.341   1.468  1.7190  0.4187  1.9242
 4023TIP3    H233629   2.587   2.379   1.364  0.4791 -0.7011  0.2267
 4024TIP3   OH233630   2.933   0.858  29.786 -0.0825 -0.1169  0.4306
 4024TIP3    H133631   2.931   0.838  29.880  0.9079 -0.1342  0.4619
 4024TIP3    H233632   2.991   0.792  29.749 -1.0796 -0.5852 -0.3334
 4025TIP3   OH233633   0.963   1.062   3.078  0.1765  0.1238 -0.5796
 4025TIP3    H133634   1.019   1.082   3.153 -2.1484  0.2900  1.2269
 4025TIP3    H233635   0.941   1.147   3.041 -0.5635  0.2185  0.0493
 4026TIP3   OH233636   2.728   0.438  28.472 -0.2545 -0.2156 -0.3239
 4026TIP3    H133637   2.811   0.397  28.447  0.3258 -0.1324  1.3926
 4026TIP3    H233638   2.673   0.429  28.393  1.2165 -0.6479 -1.3476
 4027TIP3   OH233639   2.356   0.061  26.250 -0.2326 -0.0441 -0.4297
 4027TIP3    H133640   2.434   0.102  26.214  2.4083 -3.6945  0.5159
 4027TIP3    H233641   2.318   0.013  26.176 -1.4703  1.4892 -0.8190
 4028TIP3   OH233642   3.124   2.281  28.205 -0.7697 -0.3884  0.9821
 4028TIP3    H133643   3.047   2.330  28.234 -0.3021  1.5188 -0.7168
 4028TIP3    H233644   3.106   2.260  28.113  0.5614 -0.2473  0.6646
 4029TIP3   OH233645   3.434   2.214  32.005  0.6200  0.3384 -0.4007
 4029TIP3    H133646   3.501   2.207  32.073  1.4843  1.0739 -1.1592
 4029TIP3    H233647   3.440   2.132  31.956 -0.5785 -0.5758  0.8688
 4030TIP3   OH233648   3.419   3.450   0.342 -0.1370  0.0725  0.1031
 4030TIP3    H133649   3.410   3.545   0.333  1.3665  0.3278  1.0259
 4030TIP3    H233650   3.483   3.426   0.274  1.3465  0.1143  1.4305
 4031TIP3   OH233651   1.918   2.277   2.820  0.0384  0.1376  0.0158
 4031TIP3    H133652   1.986   2.215   2.846  1.1367  1.1362 -0.3768
 4031TIP3    H233653   1.842   2.222   2.800  0.7516 -1.0130  0.3474
 4032TIP3   OH233654   3.293   1.832   6.731 -0.4045  0.2548  0.5359
 4032TIP3    H133655   3.234   1.902   6.759 -0.5368  0.5862 -0.5047
 4032TIP3    H233656   3.278   1.825   6.636  2.1436  1.2564 -0.0189
 4033TIP3   OH233657   2.189   2.282  20.190 -0.2802  0.0190  0.3267
 4033TIP3    H133658   2.228   2.357  20.146  0.2932 -0.1017  0.6091
 4033TIP3    H233659   2.255   2.255  20.254 -1.3663  0.6291  1.7623
 4034TIP3   OH233660   2.803   1.928   5.551  0.0063  0.0865  0.3796
 4034TIP3    H133661   2.712   1.934   5.524  1.0959  1.2183 -3.8643
 4034TIP3    H233662   2.820   1.834   5.560 -1.4712 -0.1470  0.8406
 4035TIP3   OH233663   0.082   0.999  27.519  0.0500 -0.4577  0.1356
 4035TIP3    H133664   0.040   1.069  27.569 -2.1853  1.0414 -3.4438
 4035TIP3    H233665   0.165   1.037  27.490 -0.1007 -0.1293  0.1268
 4036TIP3   OH233666   1.774   3.170   1.145  0.1204  0.4600  0.6845
 4036TIP3    H133667   1.843   3.106   1.162  2.0161  2.2726  0.2720
 4036TIP3    H233668   1.814   3.254   1.167 -2.5563  1.4800  2.0754
 4037TIP3   OH233669   2.412   3.199  31.430 -0.2299  0.2993 -0.1360
 4037TIP3    H133670   2.415   3.253  31.509 -0.5751  0.1569 -0.0218
 4037TIP3    H233671   2.424   3.109  31.463  1.9440  0.4117 -0.4727
 4038TIP3   OH233672   1.948   0.558  30.304  0.7263  0.2865  0.0637
 4038TIP3    H133673   1.987   0.640  30.274 -0.9857  1.0550 -0.2120
 4038TIP3    H233674   1.896   0.583  30.381  0.8405 -0.6947  0.4659
 4039TIP3   OH233675   2.677   0.144  31.233  0.2005  0.0716 -0.8534
 4039TIP3    H133676   2.650   0.108  31.318 -0.0889  0.6617 -0.6892
 4039TIP3    H233677   2.597   0.178  31.194  0.5821  1.3215 -0.6125
 4040TIP3   OH233678   1.419   0.143   1.363 -0.4613  0.1315  0.3284
 4040TIP3    H133679   1.433   0.118   1.454 -0.1620 -1.8890 -0.2249
 4040TIP3    H233680   1.403   0.237   1.366 -0.0902  0.1696  2.4162
 4041TIP3   OH233681   2.661   3.281  26.467  0.0866  0.4462 -0.2025
 4041TIP3    H133682   2.598   3.260  26.398  1.2901 -0.0128 -1.2054
 4041TIP3    H233683   2.641   3.220  26.538 -1.1616  0.9149 -0.1214
 4042TIP3   OH233684   3.024   1.331   2.929 -0.0803 -0.1087 -0.2990
 4042TIP3    H133685   3.001   1.378   2.849 -3.0201  0.1005  0.5619
 4042TIP3    H233686   2.977   1.376   2.998 -0.4400 -2.3776  1.0392
 4043TIP3   OH233687   0.824   1.464  22.105 -0.1247  0.8716  0.1042
 4043TIP3    H133688   0.915   1.492  22.121  0.6844 -1.6237  0.3130
 4043TIP3    H233689   0.803   1.501  22.019  1.4208  0.7768 -0.3592
 4044TIP3   OH233690   2.436   0.479  25.996  0.5264 -0.3925  0.2830
 4044TIP3    H133691   2.480   0.486  25.912  0.1857 -1.8670 -0.0637
 4044TIP3    H233692   2.454   0.389  26.025  1.4412  0.3821  2.2624
 4045TIP3   OH233693   1.987   2.776  32.880 -0.2019  0.2320 -0.0697
 4045TIP3    H133694   2.032   2.860  32.886  0.0387  0.1517 -0.7499
 4045TIP3    H233695   1.990   2.753  32.788 -1.1510 -0.0471 -0.0402
 4046TIP3   OH233696   1.440   3.523  12.918  0.0409  0.5072 -0.0018
 4046TIP3    H133697   1.386   3.448  12.892 -0.0388  0.7251 -0.4836
 4046TIP3    H233698   1.408   3.546  13.005  1.4536 -1.2888  1.0468
 4047TIP3   OH233699   2.320   2.994  31.053 -0.3076 -0.2166  0.3191
 4047TIP3    H133700   2.329   3.024  30.963 -1.5222 -0.2577  0.1762
 4047TIP3    H233701   2.398   3.028  31.097  2.0843 -2.9378 -1.4398
 4048TIP3   OH233702   0.410   1.508   4.897  0.1212 -0.3445  0.1623
 4048TIP3    H133703   0.340   1.478   4.956  2.4726  0.7747  3.7964
 4048TIP3    H233704   0.372   1.584   4.853 -0.6963  1.0289  2.9761
 4049TIP3   OH233705   2.312   0.134  26.505  0.1380  0.0923 -0.1059
 4049TIP3    H133706   2.337   0.073  26.436  0.5599  1.1151 -0.8865
 4049TIP3    H233707   2.267   0.205  26.459  1.3955  1.3303  0.5120
 4050TIP3   OH233708   1.304   3.441   3.983  0.2201  0.1317 -0.2086
 4050TIP3    H133709   1.300   3.480   3.896 -0.3562 -1.3619 -0.8844
 4050TIP3    H233710   1.214   3.419   4.005  0.1142  2.0206  1.5374
 4051TIP3   OH233711   3.487   1.134  19.776  0.4160 -0.1665 -0.9679
 4051TIP3    H133712   3.497   1.100  19.687 -0.3809 -0.7830 -0.8289
 4051TIP3    H233713   3.437   1.067  19.822 -0.1550  0.6572 -0.3646
 4052TIP3   OH233714   1.388   2.263   6.085  0.4726  0.1504 -0.5231
 4052TIP3    H133715   1.441   2.301   6.155  1.5087  0.8269 -1.6339
 4052TIP3    H233716   1.301   2.299   6.099  1.0475  1.6049 -0.5236
 4053TIP3   OH233717   1.708   1.800  23.485 -0.0768 -0.5488 -0.6958
 4053TIP3    H133718   1.651   1.755  23.548  0.6682 -0.0730  0.3546
 4053TIP3    H233719   1.688   1.759  23.401 -0.7785 -1.5199 -0.0815
 4054TIP3   OH233720   1.906   1.802  21.459 -0.3411  0.1695  0.1960
 4054TIP3    H133721   1.819   1.788  21.421 -0.2541  2.3330 -1.0037
 4054TIP3    H233722   1.890   1.815  21.552 -1.1823 -0.4439  0.1456
 4055TIP3   OH233723   0.155   1.604   3.619  0.5914 -0.7393 -0.8207
 4055TIP3    H133724   0.203   1.649   3.689  0.4745 -0.4511 -0.9257
 4055TIP3    H233725   0.221   1.552   3.574  0.4678 -1.8623  0.2482
 4056TIP3   OH233726   2.702   3.074   7.197  0.3063 -0.5601 -0.7657
 4056TIP3    H133727   2.735   3.136   7.262 -4.0509 -0.4373  1.6824
 4056TIP3    H233728   2.689   2.993   7.246 -0.4604 -1.3388 -2.1933
 4057TIP3   OH233729   1.510   2.713  28.004 -0.0388  0.1657  0.3154
 4057TIP3    H133730   1.584   2.684  28.058 -0.3664  0.1653  0.7692
 4057TIP3    H233731   1.470   2.631  27.975 -1.1027  0.1285  1.7852
 4058TIP3   OH233732   2.204   2.768  28.103  0.0177 -0.4399  0.5393
 4058TIP3    H133733   2.114   2.741  28.082  0.0904 -1.0922  1.0361
 4058TIP3    H233734   2.257   2.690  28.086  1.0441  0.8503 -3.0107
 4059TIP3   OH233735   0.745   3.280   0.473 -0.0716 -0.9156 -0.2132
 4059TIP3    H133736   0.689   3.237   0.408 -0.1434 -1.5160  0.2339
 4059TIP3    H233737   0.691   3.351   0.507 -0.1520 -0.7980 -0.5817
 4060TIP3   OH233738   2.157   1.843   0.715 -0.1151  1.1566 -0.4290
 4060TIP3    H133739   2.148   1.880   0.627  0.5289  1.0289 -0.5516
 4060TIP3    H233740   2.085   1.780   0.722 -0.1826  1.1878 -0.8518
 4061TIP3   OH233741   3.069   2.619  27.109 -0.0301 -0.6431  0.0428
 4061TIP3    H133742   3.162   2.627  27.090  0.0363 -1.8848 -0.2322
 4061TIP3    H233743   3.028   2.685  27.053  0.5789 -0.9731 -0.8173
 4062TIP3   OH233744   1.674   2.572   5.577 -0.5426 -0.1037 -0.8335
 4062TIP3    H133745   1.697   2.586   5.486 -0.9802 -2.0258 -1.2887
 4062TIP3    H233746   1.608   2.503   5.575 -1.7944  0.9714  0.8484
 4063TIP3   OH233747   3.445   0.083  28.114  0.2495 -0.0751  0.5463
 4063TIP3    H133748   3.398   0.082  28.197 -1.7029 -0.3117 -0.4867
 4063TIP3    H233749   3.418   0.165  28.072  1.2355  0.0586  0.1510
 4064TIP3   OH233750   0.005   1.693  31.586 -0.8976 -0.0395  0.1106
 4064TIP3    H133751  -0.067   1.640  31.621  0.0096 -1.3941  0.0100
 4064TIP3    H233752   0.067   1.628  31.551  0.8646  1.0420  1.1255
 4065TIP3   OH233753   0.014   3.010   0.293 -0.2511 -0.6591 -0.1497
 4065TIP3    H133754   0.072   3.015   0.369 -0.5813  0.0913  0.0595
 4065TIP3    H233755  -0.043   2.936   0.311 -0.3923 -0.4245  0.3840
 4066TIP3   OH233756   2.603   3.108  13.651 -0.3442 -0.3006 -0.0014
 4066TIP3    H133757   2.675   3.090  13.591  0.8457  1.1660  0.9173
 4066TIP3    H233758   2.611   3.042  13.719  0.2179 -0.0445  0.1773
 4067TIP3   OH233759   2.351   0.339   4.829 -0.7033 -0.3902  0.4462
 4067TIP3    H133760   2.402   0.324   4.909 -1.3092  0.0558  0.9208
 4067TIP3    H233761   2.260   0.340   4.859 -1.0029 -1.2813 -0.4088
 4068TIP3   OH233762   0.064   2.060  28.509  0.0192  0.1969  0.2686
 4068TIP3    H133763   0.148   2.093  28.539  1.7049 -2.1375 -1.5623
 4068TIP3    H233764   0.046   1.984  28.565  0.2518 -0.6137 -0.7250
 4069TIP3   OH233765   0.287   0.203   2.050 -0.4083 -0.1332 -0.1871
 4069TIP3    H133766   0.266   0.131   1.991 -0.2117 -0.2996 -0.0519
 4069TIP3    H233767   0.287   0.164   2.137 -1.8336  0.3287  0.0528
 4070TIP3   OH233768   0.671   3.423  31.348 -0.0388  0.1867  0.0785
 4070TIP3    H133769   0.588   3.462  31.319  0.6646  1.4539 -0.3525
 4070TIP3    H233770   0.733   3.496  31.345  1.6398 -1.1921 -1.9140
 4071TIP3   OH233771   3.305   0.946   7.418  0.0670  0.1320 -0.2268
 4071TIP3    H133772   3.247   0.956   7.342 -0.6417  3.0272  0.5541
 4071TIP3    H233773   3.257   0.889   7.477 -1.3680  1.2476 -0.2506
 4072TIP3   OH233774   0.646   1.282   0.241  0.1222  0.3264  0.4357
 4072TIP3    H133775   0.689   1.364   0.265  0.0386  0.3167  0.6184
 4072TIP3    H233776   0.654   1.277   0.145 -0.2465  0.7586  0.3802
 4073TIP3   OH233777   2.637   2.874   4.700 -0.2596  0.0872 -0.0152
 4073TIP3    H133778   2.726   2.908   4.708 -0.2042 -0.3496  1.4339
 4073TIP3    H233779   2.647   2.779   4.705 -0.6256 -0.0901 -1.9334
 4074TIP3   OH233780   2.558   3.220   5.484  0.5601  0.2333  0.0040
 4074TIP3    H133781   2.636   3.254   5.529  0.2848  1.0286 -0.1085
 4074TIP3    H233782   2.546   3.132   5.521  0.4128  0.8171  1.4196
 4075TIP3   OH233783   0.901   0.105  28.204  0.1069  0.2047  0.3108
 4075TIP3    H133784   0.932   0.049  28.276 -0.6878 -1.1876 -0.3868
 4075TIP3    H233785   0.974   0.165  28.188  0.4085  0.3627  2.0745
 4076TIP3   OH233786   0.124   3.543   6.139 -0.4363  0.5420  0.2249
 4076TIP3    H133787   0.163   3.502   6.216 -0.1092  1.3573  0.5013
 4076TIP3    H233788   0.098   3.630   6.168 -0.8896  0.6347 -0.4240
 4077TIP3   OH233789   2.552   3.311  28.006  0.0802 -0.0955 -0.3031
 4077TIP3    H133790   2.567   3.338  28.097  1.2403 -0.2356 -0.4347
 4077TIP3    H233791   2.638   3.281  27.976  0.0209  1.1778 -1.8606
 4078TIP3   OH233792   2.747   3.214   4.130  0.3867 -0.1785  0.1392
 4078TIP3    H133793   2.693   3.136   4.118  0.1427  0.0369 -0.1623
 4078TIP3    H233794   2.795   3.198   4.211 -0.4212 -0.2006  0.6176
 4079TIP3   OH233795   1.786   3.326   3.376  0.2726 -0.6478  0.0676
 4079TIP3    H133796   1.826   3.255   3.426 -0.9155  0.4243  2.7928
 4079TIP3    H233797   1.730   3.283   3.312 -1.7144 -2.3058  2.7024
 4080TIP3   OH233798   0.024   2.604  28.284 -0.5700  0.2015  0.4521
 4080TIP3    H133799  -0.014   2.516  28.289  2.4131 -1.2128  0.6190
 4080TIP3    H233800   0.072   2.614  28.367 -0.4243  1.7916  0.2038
 4081TIP3   OH233801   0.312   0.281  27.125 -0.0793 -0.0507 -0.3606
 4081TIP3    H133802   0.401   0.261  27.152 -0.1650 -0.8892 -0.6541
 4081TIP3    H233803   0.297   0.223  27.050 -0.4146  1.0216 -1.1435
 4082TIP3   OH233804   0.516   2.328  26.580 -0.6594 -0.0704  0.0713
 4082TIP3    H133805   0.534   2.248  26.629  1.4186  1.8952  2.8857
 4082TIP3    H233806   0.598   2.348  26.534 -1.9470 -0.7810 -2.7258
 4083TIP3   OH233807   0.557   2.813   6.065 -0.5547  0.6767 -0.2197
 4083TIP3    H133808   0.533   2.723   6.089 -2.8614  1.3014  0.0010
 4083TIP3    H233809   0.555   2.814   5.970 -0.9499  0.5852 -0.2147
 4084TIP3   OH233810   1.042   3.437   6.626  0.0885  0.3662 -0.4634
 4084TIP3    H133811   0.953   3.406   6.640  0.1815  1.0761  2.4740
 4084TIP3    H233812   1.097   3.365   6.655  0.4427  0.4989 -0.7969
 4085TIP3   OH233813   0.016   1.881  28.945 -0.1512  0.0097  0.8523
 4085TIP3    H133814  -0.046   1.869  28.873  0.1529 -0.4013  0.6589
 4085TIP3    H233815  -0.037   1.868  29.024  0.1065 -2.5091  0.6749
 4086TIP3   OH233816   3.296   1.456  22.975 -0.3577 -0.3251 -0.3477
 4086TIP3    H133817   3.246   1.534  22.996 -0.9417 -0.5333 -0.9335
 4086TIP3    H233818   3.235   1.383  22.986 -0.3992 -0.5304 -1.6819
 4087TIP3   OH233819   1.875   0.451   3.999  0.1265  0.0616 -0.6592
 4087TIP3    H133820   1.871   0.415   4.087  2.0957 -0.9680 -0.9310
 4087TIP3    H233821   1.800   0.414   3.953  0.7774 -1.8581 -0.2480
 4088TIP3   OH233822   2.137   0.883  31.570  0.0668 -1.2230 -0.1100
 4088TIP3    H133823   2.201   0.908  31.637  0.2329 -1.7100 -0.0857
 4088TIP3    H233824   2.053   0.904  31.610  0.2173  0.0971 -0.4175
 4089TIP3   OH233825   1.943   2.326   5.560 -0.3259 -0.0564  0.3532
 4089TIP3    H133826   1.996   2.260   5.515 -0.0996  0.7105 -0.5653
 4089TIP3    H233827   1.863   2.281   5.584  0.0944 -0.8342  0.3423
 4090TIP3   OH233828   2.179   2.948   5.026  0.0143  0.0069 -0.6902
 4090TIP3    H133829   2.101   3.004   5.036 -1.6089 -2.0135 -1.2284
 4090TIP3    H233830   2.163   2.875   5.086  1.2550 -0.7324 -1.2266
 4091TIP3   OH233831   0.038   1.361  23.837  0.0680 -0.5767  0.1792
 4091TIP3    H133832   0.127   1.337  23.811  0.1051 -0.8976  0.6015
 4091TIP3    H233833   0.040   1.457  23.844  0.6210 -0.6405  1.0671
 4092TIP3   OH233834   3.062   0.085  28.011 -0.2552 -0.6826 -0.0400
 4092TIP3    H133835   2.979   0.048  28.042 -1.1607  0.2725 -1.1849
 4092TIP3    H233836   3.110   0.011  27.975 -1.0044 -1.1154 -0.1618
 4093TIP3   OH233837   1.968   1.503  27.785  0.3233 -0.6224  0.2262
 4093TIP3    H133838   1.935   1.427  27.832 -1.3245 -0.3822 -0.4833
 4093TIP3    H233839   2.057   1.478  27.759 -0.1945 -2.3467 -0.0305
 4094TIP3   OH233840   0.709   1.323   0.577  0.0051  0.4048  0.3688
 4094TIP3    H133841   0.796   1.358   0.561  0.6640 -1.3678 -0.1891
 4094TIP3    H233842   0.658   1.350   0.500  0.8033 -0.7207 -0.6015
 4095TIP3   OH233843   3.222   0.611  27.345  0.3821  0.2588 -0.1747
 4095TIP3    H133844   3.288   0.568  27.398  0.4661  0.8623  0.2179
 4095TIP3    H233845   3.258   0.611  27.256 -0.0900 -1.4355 -0.4032
 4096TIP3   OH233846   1.407   2.280  10.585 -0.2359 -0.3181 -0.1457
 4096TIP3    H133847   1.346   2.342  10.624 -0.7208 -1.3310  0.7540
 4096TIP3    H233848   1.410   2.206  10.646  2.3078 -0.0864  0.1392
 4097TIP3   OH233849   2.716   2.442  32.740 -0.2376 -0.0419 -0.3265
 4097TIP3    H133850   2.675   2.516  32.785 -0.9058 -0.4111 -0.3120
 4097TIP3    H233851   2.742   2.383  32.810 -1.3574 -0.6577 -0.4053
 4098TIP3   OH233852   1.934   1.835   7.459 -0.2681 -0.4966 -0.1748
 4098TIP3    H133853   1.955   1.770   7.526 -0.3108  0.0177  0.3479
 4098TIP3    H233854   1.985   1.809   7.383  0.3867 -0.6486  0.3083
 4099TIP3   OH233855   1.359   2.533   0.719  0.2259  0.0543 -0.1764
 4099TIP3    H133856   1.334   2.440   0.719 -0.4553  0.2031  1.3433
 4099TIP3    H233857   1.387   2.551   0.629  3.3020 -2.3706  0.1219
 4100TIP3   OH233858   2.021   3.386  29.335  0.1924  0.0109 -0.4396
 4100TIP3    H133859   1.998   3.440  29.259 -0.3792 -0.1454 -0.3800
 4100TIP3    H233860   2.043   3.448  29.403 -0.0794  0.1645 -0.4920
 4101TIP3   OH233861   1.456   3.261   1.180 -0.1709 -0.5330 -0.0557
 4101TIP3    H133862   1.407   3.213   1.113  0.9616 -1.8725  0.0266
 4101TIP3    H233863   1.524   3.200   1.208 -0.0149  0.3479  1.6346
 4102TIP3   OH233864   2.897   3.276  31.883  0.3442 -0.6694  0.2824
 4102TIP3    H133865   2.934   3.199  31.840  0.7248 -0.5893  0.4559
 4102TIP3    H233866   2.969   3.309  31.937  0.1798 -0.2049  0.2229
 4103TIP3   OH233867   1.229   0.682  28.866  0.4652 -0.5890  0.1246
 4103TIP3    H133868   1.158   0.738  28.895 -0.0759 -0.0101 -2.1250
 4103TIP3    H233869   1.296   0.743  28.834  1.3137 -1.1652  0.7636
 4104TIP3   OH233870   1.950   0.799  27.132 -0.3315 -0.0709 -0.3782
 4104TIP3    H133871   1.903   0.869  27.176 -0.2910 -0.6638  0.6316
 4104TIP3    H233872   2.038   0.834  27.118  0.1198 -0.4139  1.4242
 4105TIP3   OH233873   1.015   1.127  32.900 -0.4578  0.4034 -0.1228
 4105TIP3    H133874   1.088   1.106  32.958 -0.2416  1.7822  0.1269
 4105TIP3    H233875   1.056   1.164  32.822 -0.6652 -2.4229 -1.7172
 4106TIP3   OH233876   1.222   2.734   6.712 -0.1806  0.1657 -0.0334
 4106TIP3    H133877   1.227   2.670   6.641 -2.3785  0.2145 -0.2948
 4106TIP3    H233878   1.313   2.760   6.726  0.5138 -1.1825 -1.5838
 4107TIP3   OH233879   0.007   1.546  22.773 -0.2576  0.0406  0.1002
 4107TIP3    H133880   0.004   1.511  22.684 -0.6643 -0.1131  0.1710
 4107TIP3    H233881   0.060   1.626  22.765  0.9071 -0.7279 -0.0078
 4108TIP3   OH233882   0.729   2.801  29.500 -0.2410 -0.2314  0.2650
 4108TIP3    H133883   0.645   2.762  29.524 -1.1194  0.3281 -1.7035
 4108TIP3    H233884   0.771   2.822  29.584 -2.2385 -0.1454  1.2923
 4109TIP3   OH233885   0.864   1.193  28.531  0.3153  0.2692  0.3796
 4109TIP3    H133886   0.821   1.116  28.568  0.9729 -0.0580  0.4773
 4109TIP3    H233887   0.928   1.157  28.470  0.8004  0.7312  0.6140
 4110TIP3   OH233888   0.315   0.737   2.224  0.0188 -0.7513 -0.0096
 4110TIP3    H133889   0.234   0.727   2.274  0.6089  1.1531  1.4627
 4110TIP3    H233890   0.380   0.686   2.273  1.0122  2.4898  2.4346
 4111TIP3   OH233891   3.538   1.681  30.671  0.2509  0.2152 -0.0520
 4111TIP3    H133892   3.611   1.742  30.667  0.6035  0.0098  2.0993
 4111TIP3    H233893   3.466   1.727  30.629  1.4800  0.5551 -1.9256
 4112TIP3   OH233894   2.652   0.142  29.336  0.0842 -0.2571 -0.8746
 4112TIP3    H133895   2.636   0.079  29.265  1.2441  0.3315 -1.6763
 4112TIP3    H233896   2.740   0.123  29.366 -0.3733 -0.4610  0.4045
 4113TIP3   OH233897   1.636   1.218  28.127 -0.6141 -0.9642 -0.2108
 4113TIP3    H133898   1.705   1.242  28.064  0.5525 -0.9245  1.0406
 4113TIP3    H233899   1.567   1.180  28.073  0.4294 -1.1154 -1.4982
 4114TIP3   OH233900   3.525   0.473  17.772  0.5733 -0.4079  0.8194
 4114TIP3    H133901   3.529   0.566  17.795 -0.9945  0.0009 -0.3783
 4114TIP3    H233902   3.432   0.456  17.758  1.0990 -1.0965 -2.9592
 4115TIP3   OH233903   1.624   0.247   7.588 -0.7343 -0.0869  0.1681
 4115TIP3    H133904   1.674   0.263   7.669  1.1907 -2.6112 -0.3848
 4115TIP3    H233905   1.590   0.158   7.599 -0.4444 -0.4697 -1.7735
 4116TIP3   OH233906   0.125   3.198  30.943  0.2794 -0.0130 -0.3338
 4116TIP3    H133907   0.195   3.134  30.928  0.5390  0.0140  0.6814
 4116TIP3    H233908   0.127   3.214  31.037  0.0768  1.3361 -0.5392
 4117TIP3   OH233909   0.606   2.187   5.781 -0.3691 -0.2956 -0.3014
 4117TIP3    H133910   0.622   2.114   5.842 -2.8105 -1.7602 -1.2740
 4117TIP3    H233911   0.685   2.189   5.726  0.8892 -0.4305  1.3870
 4118TIP3   OH233912   1.642   2.314  28.846  0.1598 -0.5728 -0.8240
 4118TIP3    H133913   1.698   2.391  28.853 -2.3840  1.5021 -1.5921
 4118TIP3    H233914   1.669   2.258  28.918 -0.4580  2.8763  2.4004
 4119TIP3   OH233915   3.217   1.095   2.864 -0.0030 -0.3203  0.5654
 4119TIP3    H133916   3.235   1.184   2.833  2.0696 -0.5478  0.9704
 4119TIP3    H233917   3.134   1.072   2.823 -0.8965  2.0001  0.9210
 4120TIP3   OH233918   0.047   2.729   2.133  0.1313 -0.3050  0.1361
 4120TIP3    H133919  -0.019   2.681   2.083 -2.4570 -0.0489  3.0012
 4120TIP3    H233920   0.020   2.820   2.127  0.4878 -0.1353  0.9516
 4121TIP3   OH233921   0.565   2.907  31.274  0.1839 -0.1072  0.4335
 4121TIP3    H133922   0.563   2.997  31.241  1.0056  0.0090  0.6764
 4121TIP3    H233923   0.518   2.856  31.208 -1.3211  0.6630  0.8597
 4122TIP3   OH233924   3.221   2.366   3.589 -0.7494  0.0686  0.4051
 4122TIP3    H133925   3.143   2.416   3.564 -0.5576  0.1065 -0.1431
 4122TIP3    H233926   3.204   2.338   3.679 -1.7438 -0.5931  0.0301
 4123TIP3   OH233927   1.852   1.435  19.057 -0.0730  0.1049  0.2264
 4123TIP3    H133928   1.834   1.505  18.994 -1.0124  0.9460  1.3857
 4123TIP3    H233929   1.765   1.408  19.087  0.3530 -0.5562  0.8758
 4124TIP3   OH233930   0.181   1.728  27.723 -0.3815  0.2250  0.0718
 4124TIP3    H133931   0.165   1.725  27.818 -1.5241 -0.3509 -0.1160
 4124TIP3    H233932   0.095   1.715  27.684 -0.0396  1.1921 -1.0640
 4125TIP3   OH233933   2.121   3.220   0.831  0.3951  0.2576  0.4259
 4125TIP3    H133934   2.030   3.216   0.801  1.1450  2.2609 -2.5704
 4125TIP3    H233935   2.123   3.296   0.890  0.2575  0.7850 -0.2282
 4126TIP3   OH233936   1.532   1.078  30.151 -0.6191  0.2820  0.2719
 4126TIP3    H133937   1.490   1.115  30.074  0.1959 -0.8494 -0.7542
 4126TIP3    H233938   1.606   1.136  30.168  0.6226 -0.7354 -1.2973
 4127TIP3   OH233939   0.126   0.261  27.364 -0.6127  0.2557  0.3662
 4127TIP3    H133940   0.200   0.291  27.311 -0.1143  0.5731  1.2353
 4127TIP3    H233941   0.062   0.230  27.299  1.0622 -1.9799 -0.3611
 4128TIP3   OH233942   0.863   2.143   1.257  0.1596 -0.6903 -0.3350
 4128TIP3    H133943   0.934   2.201   1.230 -1.8766  1.6839 -1.0051
 4128TIP3    H233944   0.840   2.095   1.178 -0.1109 -0.1699 -0.5755
 4129TIP3   OH233945   1.958   1.529  20.785  0.4881  0.0142 -0.8703
 4129TIP3    H133946   2.038   1.486  20.755  2.3597  0.9174  2.2847
 4129TIP3    H233947   1.987   1.586  20.857 -2.8020  1.5677 -0.5769
 4130TIP3   OH233948   1.619   3.446  11.767  0.5035  0.2091 -0.0252
 4130TIP3    H133949   1.696   3.392  11.787  0.9137  0.9507  0.4163
 4130TIP3    H233950   1.549   3.382  11.753  1.0271 -0.4493  0.2833
 4131TIP3   OH233951   1.933   0.430   2.926  0.1091 -0.3330  0.1993
 4131TIP3    H133952   1.841   0.455   2.939  0.3952  0.5931  0.5253
 4131TIP3    H233953   1.973   0.441   3.013  0.7591  0.2930 -0.1716
 4132TIP3   OH233954   2.937   2.115   1.082  0.4229 -0.2388  0.1918
 4132TIP3    H133955   3.011   2.067   1.045  0.7961  0.0077  0.6199
 4132TIP3    H233956   2.975   2.170   1.150  0.1488  1.2925 -0.8194
 4133TIP3   OH233957   0.915   2.175  20.093 -0.1949  0.3882 -0.0932
 4133TIP3    H133958   0.859   2.224  20.154  0.5931  0.7394  0.3711
 4133TIP3    H233959   0.860   2.104  20.060 -1.4628  1.7349 -0.9918
 4134TIP3   OH233960   2.011   2.042  21.702  1.1514  0.1086  0.5441
 4134TIP3    H133961   1.968   1.957  21.697  2.0454 -0.2994 -0.4753
 4134TIP3    H233962   1.954   2.101  21.653  1.2753 -0.2325 -0.0173
 4135TIP3   OH233963   2.671   2.189   0.007 -0.1765  0.1684  0.4479
 4135TIP3    H133964   2.620   2.156  -0.066  0.1882  0.8283 -0.1156
 4135TIP3    H233965   2.734   2.118   0.026 -0.3470 -0.0499  0.2051
 4136TIP3   OH233966   2.746   0.561   2.778  0.1399 -0.2065  0.1775
 4136TIP3    H133967   2.786   0.622   2.716 -1.4627  0.9463  0.1984
 4136TIP3    H233968   2.671   0.524   2.730 -0.8379  0.3351  1.2324
 4137TIP3   OH233969   0.782   0.310  10.855  0.8377  0.1469  0.3018
 4137TIP3    H133970   0.785   0.370  10.929 -1.6964 -1.4417  1.8807
 4137TIP3    H233971   0.842   0.239  10.879 -0.2093 -0.5163  1.0529
 4138TIP3   OH233972   1.812   2.079   1.790  0.1520 -0.0067  0.1542
 4138TIP3    H133973   1.807   2.095   1.884 -1.2572 -0.8887  0.2592
 4138TIP3    H233974   1.893   2.122   1.763  0.1929  0.9204  1.6263
 4139TIP3   OH233975   1.369   1.365  31.321 -0.1946 -0.2321 -0.5468
 4139TIP3    H133976   1.377   1.271  31.303  1.3501  0.0459 -1.5449
 4139TIP3    H233977   1.286   1.374  31.367  1.1004 -2.5574  2.6271
 4140TIP3   OH233978   2.964   0.978   4.237 -0.3702 -0.0722 -0.0819
 4140TIP3    H133979   3.005   0.930   4.165 -0.2093 -0.2601  0.1362
 4140TIP3    H233980   2.890   0.924   4.264 -0.2160 -0.1794  0.1325
 4141TIP3   OH233981   1.013   2.076   6.312  0.1638  0.6164  1.0230
 4141TIP3    H133982   0.963   2.142   6.265  0.2321  0.3275  0.5362
 4141TIP3    H233983   0.987   2.086   6.404 -0.8135  0.4451  0.7762
 4142TIP3   OH233984   1.695   3.264  31.530 -0.0617 -0.5830  0.3762
 4142TIP3    H133985   1.634   3.336  31.515  0.3257 -0.1074  1.0364
 4142TIP3    H233986   1.642   3.185  31.520 -0.3708 -0.2285 -0.9050
 4143TIP3   OH233987   0.884   1.705   3.151  0.6364  0.2768 -1.2042
 4143TIP3    H133988   0.849   1.784   3.110  0.1917  0.6331 -0.1858
 4143TIP3    H233989   0.806   1.657   3.180  0.9280  0.9888  0.9308
 4144TIP3   OH233990   2.756   0.490   6.564 -0.1311 -0.1422  0.0618
 4144TIP3    H133991   2.780   0.397   6.568  0.9887 -0.2235 -3.9967
 4144TIP3    H233992   2.671   0.491   6.520  0.7739  0.7374 -1.7699
 4145TIP3   OH233993   2.307   2.275  18.752 -0.1320  0.2935 -0.1105
 4145TIP3    H133994   2.292   2.322  18.671 -0.5891 -1.9775 -1.4359
 4145TIP3    H233995   2.258   2.324  18.818 -0.6932  1.5581 -1.4208
 4146TIP3   OH233996   0.104   3.481   1.658 -0.0461 -0.0532  0.0366
 4146TIP3    H133997   0.148   3.471   1.742  0.6318  0.3255 -0.2619
 4146TIP3    H233998   0.139   3.563   1.622  1.4758 -1.3344 -1.6541
 4147TIP3   OH233999   2.823   1.968  26.207 -0.5382  0.0006  0.2808
 4147TIP3    H134000   2.894   1.939  26.150  2.1674  0.9834  2.9047
 4147TIP3    H234001   2.799   2.055  26.173 -0.8313 -0.5061 -0.8650
 4148TIP3   OH234002   2.771   3.479  28.822  0.0914 -0.4247  0.3379
 4148TIP3    H134003   2.841   3.433  28.868  0.6700  0.5166  0.4030
 4148TIP3    H234004   2.747   3.419  28.750  2.4276  0.1383 -0.9918
 4149TIP3   OH234005   3.473   0.027   0.921  0.0985 -0.4331 -0.2804
 4149TIP3    H134006   3.489   0.121   0.922 -2.0057 -0.0324  0.1165
 4149TIP3    H234007   3.491  -0.002   1.011 -0.7261 -0.1262 -0.0150
 4150TIP3   OH234008   3.174   2.280   4.493 -0.7133  0.0258 -0.6956
 4150TIP3    H134009   3.233   2.256   4.421  1.0587 -2.0607  1.3216
 4150TIP3    H234010   3.232   2.306   4.564 -2.0695 -2.8992  1.6699
 4151TIP3   OH234011   0.473   2.471  27.631 -0.2648 -0.1697 -0.6381
 4151TIP3    H134012   0.567   2.491  27.631 -0.2140 -0.4064 -0.6930
 4151TIP3    H234013   0.468   2.378  27.654 -0.3572 -0.7285 -2.7152
 4152TIP3   OH234014   1.401   3.048  26.303  0.2385 -0.1604 -0.6137
 4152TIP3    H134015   1.317   3.072  26.264 -0.0521 -0.4024 -0.1439
 4152TIP3    H234016   1.441   3.131  26.327 -0.4459 -0.0856  0.3452
 4153TIP3   OH234017   0.401   2.183  24.120  0.2572 -0.3482 -0.0307
 4153TIP3    H134018   0.414   2.133  24.201  2.4824  0.3767  0.1056
 4153TIP3    H234019   0.395   2.274  24.148  4.6626  0.3840 -0.7808
 4154TIP3   OH234020   1.506   3.019  29.267  0.0940  0.9026 -0.4715
 4154TIP3    H134021   1.591   3.053  29.293  0.4644  0.0243 -0.5059
 4154TIP3    H234022   1.444   3.086  29.296  0.4281 -0.1013  3.0140
 4155TIP3   OH234023   2.578   0.232   5.008 -0.0370 -0.3139  0.1816
 4155TIP3    H134024   2.586   0.215   5.102  2.9366  2.9592  0.7185
 4155TIP3    H234025   2.619   0.156   4.967 -0.2291 -1.1923  1.5423
 4156TIP3   OH234026   3.166   0.235   2.702  0.5509  0.4180 -0.3304
 4156TIP3    H134027   3.231   0.185   2.751  2.0074  0.6603 -1.8917
 4156TIP3    H234028   3.212   0.316   2.678 -0.7959  1.2027 -0.3388
 4157TIP3   OH234029   0.203   1.520  30.418 -0.2209 -0.2897 -0.0203
 4157TIP3    H134030   0.183   1.429  30.395 -0.3916 -0.3449  0.3340
 4157TIP3    H234031   0.258   1.513  30.496 -0.1824 -0.0906 -0.0280
 4158TIP3   OH234032   1.963   1.972  20.788  0.0539 -0.2206 -0.4909
 4158TIP3    H134033   2.009   2.023  20.721 -1.9250 -1.1210 -2.6483
 4158TIP3    H234034   2.030   1.914  20.824  0.8349 -0.9381 -2.9427
 4159TIP3   OH234035   0.549   1.894  28.177  0.3190 -0.0625 -0.3366
 4159TIP3    H134036   0.572   1.949  28.252  0.4458 -1.2171  0.5088
 4159TIP3    H234037   0.633   1.868  28.140  0.2560  0.4893 -0.8750
 4160TIP3   OH234038   0.684   1.893   1.916 -0.0560 -0.6261 -0.0934
 4160TIP3    H134039   0.752   1.951   1.880 -0.4462  0.3973  0.7639
 4160TIP3    H234040   0.607   1.950   1.924 -0.4448 -1.2578  0.7853
 4161TIP3   OH234041   2.773   0.426   3.029 -0.1231 -0.5932 -0.1165
 4161TIP3    H134042   2.781   0.503   3.084  0.8271 -1.4127  0.9415
 4161TIP3    H234043   2.783   0.458   2.940  1.2487  0.3720  0.3639
 4162TIP3   OH234044   0.229   2.629  27.693 -0.0526  0.1639  0.7070
 4162TIP3    H134045   0.315   2.599  27.665  1.0460  1.6578  2.3279
 4162TIP3    H234046   0.208   2.574  27.769 -0.0997  0.4558  0.9054
 4163TIP3   OH234047   1.145   0.140  12.394  0.8285  0.0877  0.0637
 4163TIP3    H134048   1.136   0.046  12.409  1.6337  0.0632  0.4601
 4163TIP3    H234049   1.090   0.157  12.317  2.6155 -1.1877 -1.6125
 4164TIP3   OH234050   2.873   0.105   2.386 -0.2122  0.6184 -0.2762
 4164TIP3    H134051   2.856   0.071   2.298 -0.3839 -0.0504  0.0059
 4164TIP3    H234052   2.800   0.164   2.403  0.4932  1.7469 -1.0738
 4165TIP3   OH234053   1.727   2.378  29.365  0.4465  0.4191  0.0509
 4165TIP3    H134054   1.791   2.378  29.436  0.8532  0.4802 -0.3106
 4165TIP3    H234055   1.668   2.306  29.385  0.9285  0.0406  0.1231
 4166TIP3   OH234056   0.590   0.085   1.852 -0.0852  0.1942 -0.7159
 4166TIP3    H134057   0.522   0.019   1.838  0.9349 -0.6886 -1.8676
 4166TIP3    H234058   0.604   0.124   1.765 -0.4070  1.6791 -0.1185
 4167TIP3   OH234059   3.134   2.289  29.030 -0.7896  0.4225 -0.1968
 4167TIP3    H134060   3.108   2.284  29.122  1.3250 -1.3486  0.3992
 4167TIP3    H234061   3.210   2.231  29.024  1.0361  2.8091 -2.3970
 4168TIP3   OH234062   1.358   1.686  29.827 -0.0572 -0.2520 -0.3044
 4168TIP3    H134063   1.442   1.691  29.782  0.1251 -1.2204 -0.0973
 4168TIP3    H234064   1.293   1.689  29.757  0.2318 -2.0567 -0.7039
 4169TIP3   OH234065   1.260   3.375   4.581 -0.6311 -0.3218  0.1671
 4169TIP3    H134066   1.305   3.340   4.504 -1.1190 -0.7589  0.0723
 4169TIP3    H234067   1.294   3.324   4.654 -0.3701 -0.0947  0.2030
 4170TIP3   OH234068   0.234   1.831   6.516 -0.0631 -0.2043 -0.4020
 4170TIP3    H134069   0.168   1.847   6.449 -0.4218 -1.4755 -0.3783
 4170TIP3    H234070   0.315   1.814   6.468  0.1778  0.9599 -0.4402
 4171TIP3   OH234071   0.532   0.507   7.379 -0.1934  0.2880 -0.4837
 4171TIP3    H134072   0.566   0.443   7.317  1.0302 -0.5657  0.9849
 4171TIP3    H234073   0.580   0.490   7.460 -1.7805  1.2837  0.7477
 4172TIP3   OH234074   1.478   2.717  26.999  0.1116  0.0797  0.8301
 4172TIP3    H134075   1.522   2.671  26.928  0.3869 -2.1002  2.3117
 4172TIP3    H234076   1.387   2.687  26.994  0.4784 -1.4617  2.3500
 4173TIP3   OH234077   0.100   1.151   5.250  0.7574 -0.3140 -0.4916
 4173TIP3    H134078   0.145   1.125   5.169  0.1466  0.2485 -1.0260
 4173TIP3    H234079   0.047   1.227   5.224  1.2985  0.4821  0.6672
 4174TIP3   OH234080   0.635   3.211  27.026  0.8376 -0.1693  0.2477
 4174TIP3    H134081   0.682   3.185  26.947  0.1901  1.7034 -0.8180
 4174TIP3    H234082   0.551   3.165  27.021  1.4988 -1.4920  0.8283
 4175TIP3   OH234083   1.398   0.112   4.122 -0.2170 -0.0971 -0.1476
 4175TIP3    H134084   1.358   0.188   4.079 -0.2818  0.3357  0.6443
 4175TIP3    H234085   1.380   0.039   4.064  0.7230  0.6650 -1.4332
 4176TIP3   OH234086   2.522   1.417  29.606 -0.4412 -0.5304  0.1417
 4176TIP3    H134087   2.594   1.393  29.548  0.5741  2.5055 -0.0395
 4176TIP3    H234088   2.454   1.452  29.548 -1.3377 -1.6923  0.4590
 4177TIP3   OH234089   0.476   0.752  28.164  0.2894 -0.0426  0.3863
 4177TIP3    H134090   0.528   0.779  28.239  1.9140 -0.7975 -0.4257
 4177TIP3    H234091   0.413   0.688  28.199  1.6291 -1.0798  0.9743
 4178TIP3   OH234092   1.916   0.534  27.051 -0.4933  0.2037  1.0320
 4178TIP3    H134093   1.833   0.531  27.004 -0.3434  0.4974  0.7404
 4178TIP3    H234094   1.929   0.626  27.072 -0.1050  0.2046  0.8161
 4179TIP3   OH234095   0.770   0.536   1.790 -0.1499 -0.3682 -0.0726
 4179TIP3    H134096   0.678   0.552   1.810  0.4169  0.2010  2.3055
 4179TIP3    H234097   0.779   0.440   1.792 -0.8332 -0.4712 -1.1932
 4180TIP3   OH234098   1.698   2.452   5.991 -0.0135  0.2239  0.0785
 4180TIP3    H134099   1.694   2.361   5.962  0.3015  0.3684 -0.4293
 4180TIP3    H234100   1.666   2.449   6.081 -1.0670 -0.2211 -0.2883
 4181TIP3   OH234101   1.227   0.075   0.695 -1.0755  0.0372  0.0857
 4181TIP3    H134102   1.204   0.133   0.623 -0.4403 -2.7286 -2.5314
 4181TIP3    H234103   1.288   0.125   0.748 -0.8265  1.8819 -1.8352
 4182TIP3   OH234104   3.469   0.549   3.378 -0.4654 -0.0899  0.2221
 4182TIP3    H134105   3.531   0.568   3.448  1.4750 -0.5950 -1.2418
 4182TIP3    H234106   3.520   0.497   3.315 -2.5694 -1.0154 -0.8050
 4183TIP3   OH234107   3.189   0.924  18.957  0.4647  0.0026 -0.1051
 4183TIP3    H134108   3.126   0.952  19.024  1.2183 -1.2239  1.1676
 4183TIP3    H234109   3.162   0.834  18.935  0.7402  0.0908 -0.8359
 4184TIP3   OH234110   0.266   2.453   4.882  0.2448  0.3207  0.2767
 4184TIP3    H134111   0.203   2.523   4.868 -0.3554 -0.6982 -3.0637
 4184TIP3    H234112   0.351   2.492   4.862  0.0559  0.4148 -0.3476
 4185TIP3   OH234113   3.525   3.065   6.422 -0.0376  0.2121  0.6324
 4185TIP3    H134114   3.553   3.086   6.511  0.6985 -0.8681  0.6726
 4185TIP3    H234115   3.585   2.997   6.393 -1.6933 -1.1125  0.1507
 4186TIP3   OH234116   3.531   2.566   5.647 -0.1961  0.6464  0.1349
 4186TIP3    H134117   3.557   2.631   5.582 -1.5108  1.3602  0.2876
 4186TIP3    H234118   3.604   2.564   5.709  0.8792  0.2734 -1.1004
 4187TIP3   OH234119   2.337   2.630  26.850  0.4599 -0.0345 -0.3055
 4187TIP3    H134120   2.368   2.545  26.820  0.8703  0.2264 -0.6438
 4187TIP3    H234121   2.356   2.632  26.944  0.0403 -0.4887 -0.2091
 4188TIP3   OH234122   2.145   2.285   4.629  0.3177  0.1844  0.5624
 4188TIP3    H134123   2.202   2.355   4.597 -0.4497 -0.0336 -1.4095
 4188TIP3    H234124   2.096   2.256   4.552 -0.5974 -1.3953  1.6692
 4189TIP3   OH234125   0.161   3.487   0.486 -0.0579 -0.3434  0.6472
 4189TIP3    H134126   0.144   3.552   0.418  1.7826  1.8304  2.1297
 4189TIP3    H234127   0.103   3.414   0.464  0.4501  0.1970 -3.2218
 4190TIP3   OH234128   3.084   1.397   0.442 -0.1023  0.4167  0.3526
 4190TIP3    H134129   3.140   1.474   0.429 -0.1478  0.3101 -0.5178
 4190TIP3    H234130   3.037   1.388   0.359 -0.0280 -0.6037  0.4151
 4191TIP3   OH234131   0.055   2.500  32.385 -0.0831 -0.1657  0.5064
 4191TIP3    H134132   0.004   2.431  32.426 -2.2967  1.2091  0.2232
 4191TIP3    H234133   0.086   2.462  32.303 -0.1784 -1.2108  0.9434
 4192TIP3   OH234134   0.320   1.136  27.441  0.2083 -0.5171 -0.1017
 4192TIP3    H134135   0.340   1.229  27.424  1.4691 -0.9284 -1.0488
 4192TIP3    H234136   0.298   1.101  27.354 -0.4914 -1.0650  0.2920
 4193TIP3   OH234137   0.838   0.804  32.131 -0.0652 -0.0003 -0.6937
 4193TIP3    H134138   0.751   0.822  32.096  0.7302 -0.0096 -2.8645
 4193TIP3    H234139   0.853   0.711  32.113  0.3053 -0.0553 -0.1350
 4194TIP3   OH234140   1.426   3.158   1.616 -0.3255  0.0947 -0.0728
 4194TIP3    H134141   1.413   3.126   1.527 -0.8194 -1.3426  0.4804
 4194TIP3    H234142   1.399   3.085   1.672 -1.5314  1.4918  1.2860
 4195TIP3   OH234143   2.650   2.606  30.479 -0.8341  0.3258 -0.2271
 4195TIP3    H134144   2.601   2.619  30.398  0.8528  3.7485 -0.8961
 4195TIP3    H234145   2.596   2.645  30.548 -0.4725  1.2996 -0.4702
 4196TIP3   OH234146   2.230   1.561  21.594  0.5934 -0.5621  0.0432
 4196TIP3    H134147   2.270   1.532  21.676 -0.2014 -1.4511  0.1370
 4196TIP3    H234148   2.142   1.522  21.595  0.8399 -1.2468 -1.5758
 4197TIP3   OH234149   1.751   0.120   7.324  0.8284  0.5566 -0.1793
 4197TIP3    H134150   1.828   0.139   7.378 -0.1582  0.0451  1.5160
 4197TIP3    H234151   1.724   0.032   7.352 -1.6763  1.5998  1.0048
 4198TIP3   OH234152   3.063   0.736   5.010 -0.4344  0.0031 -0.0586
 4198TIP3    H134153   3.040   0.813   4.958  2.1338  0.5677 -0.4785
 4198TIP3    H234154   3.131   0.767   5.070 -0.2028 -1.6739  0.5942
 4199TIP3   OH234155   2.309   1.390   7.682 -0.1815  0.2480  0.2572
 4199TIP3    H134156   2.286   1.312   7.632 -1.7914 -0.1927  1.6089
 4199TIP3    H234157   2.368   1.439   7.624  1.2827 -2.1752 -0.4190
 4200TIP3   OH234158   1.919   1.093   4.472 -0.0944  0.2509  0.1684
 4200TIP3    H134159   1.951   1.005   4.492 -0.0314  0.3022  0.2976
 4200TIP3    H234160   1.837   1.079   4.425 -2.1441  0.1018  3.4395
 4201TIP3   OH234161   0.746   2.470  30.779 -0.3693 -0.3391 -0.2075
 4201TIP3    H134162   0.777   2.560  30.770  0.8105 -0.9386 -3.5184
 4201TIP3    H234163   0.793   2.422  30.711 -2.7311 -2.9701 -0.1524
 4202TIP3   OH234164   1.014   1.754  20.029  0.1934  0.4697 -0.6192
 4202TIP3    H134165   0.958   1.827  20.002 -1.8445 -1.2313 -1.2675
 4202TIP3    H234166   1.028   1.703  19.949  0.5924 -0.4881  0.0290
 4203TIP3   OH234167   2.372   1.112  29.896  0.4064  0.1947  0.5704
 4203TIP3    H134168   2.282   1.105  29.927  0.0663  3.0715  0.5098
 4203TIP3    H234169   2.426   1.103  29.974 -0.0428  0.2741  0.8896
 4204TIP3   OH234170   1.457   3.458   0.287 -0.2926  0.5271  0.0627
 4204TIP3    H134171   1.403   3.532   0.316  1.7790  1.4745  1.8805
 4204TIP3    H234172   1.429   3.385   0.341 -2.5422 -0.2175 -1.9286
 4205TIP3   OH234173   1.256   2.624   3.475 -0.3949 -0.3414  0.2123
 4205TIP3    H134174   1.214   2.620   3.561  1.1006 -0.1577  0.9813
 4205TIP3    H234175   1.338   2.670   3.491 -0.4221  0.3496 -1.4680
 4206TIP3   OH234176   3.141   2.834  27.451 -0.0240  0.0562  0.1679
 4206TIP3    H134177   3.123   2.865  27.362  0.0546  1.3510  0.5964
 4206TIP3    H234178   3.159   2.913  27.501 -1.5161 -0.5102  1.6864
 4207TIP3   OH234179   0.242   0.876   0.690  0.0541  0.2092  0.3004
 4207TIP3    H134180   0.317   0.838   0.736 -0.3012 -1.3265 -0.3454
 4207TIP3    H234181   0.168   0.860   0.747 -0.3489 -1.4871 -0.6441
 4208TIP3   OH234182   2.557   2.274   2.635  0.0210  0.0297  0.7646
 4208TIP3    H134183   2.607   2.355   2.646  1.0424 -0.2943 -1.0070
 4208TIP3    H234184   2.502   2.291   2.559 -1.4083 -0.2118  1.7063
 4209TIP3   OH234185   1.750   1.658   0.850 -0.4238 -0.4912  0.2566
 4209TIP3    H134186   1.753   1.584   0.911  0.7003  0.2676  1.1761
 4209TIP3    H234187   1.736   1.734   0.906  1.2924  0.2979 -0.3133
 4210TIP3   OH234188   0.358   3.208   6.210 -0.2449 -0.5459  0.4259
 4210TIP3    H134189   0.346   3.292   6.255 -2.0440  0.2707 -1.3777
 4210TIP3    H234190   0.298   3.149   6.254  0.9974 -0.9244  1.6768
 4211TIP3   OH234191   2.299   2.478   1.755  0.8259 -0.6799  0.0814
 4211TIP3    H134192   2.215   2.457   1.796  1.4380  1.3669  2.6344
 4211TIP3    H234193   2.364   2.437   1.811  1.6313 -0.1522 -0.4543
 4212TIP3   OH234194   2.433   2.636   2.310  0.0660  0.2306  0.1266
 4212TIP3    H134195   2.416   2.676   2.395 -1.6338 -1.7764  0.7971
 4212TIP3    H234196   2.389   2.551   2.313  1.3604 -0.6223 -2.1598
 4213TIP3   OH234197   1.536   1.398   0.770 -0.3252 -0.3587 -0.1485
 4213TIP3    H134198   1.549   1.322   0.826 -0.4981 -0.6778 -0.5370
 4213TIP3    H234199   1.526   1.471   0.831 -0.4132 -0.6847  0.2342
 4214TIP3   OH234200   2.780   2.851   2.222 -0.1556  0.0614  0.3227
 4214TIP3    H134201   2.710   2.837   2.159  1.6528 -1.9180 -1.4168
 4214TIP3    H234202   2.762   2.938   2.259 -4.0500 -0.7809  0.8177
 4215TIP3   OH234203   2.068   2.426  28.048  0.1136 -0.1814  0.3135
 4215TIP3    H134204   2.045   2.449  28.138  1.0909 -0.8155  0.7414
 4215TIP3    H234205   1.990   2.449  27.997  0.5493  2.9698  0.8478
 4216TIP3   OH234206   0.267   3.275   1.531  0.9915  0.3145  0.9164
 4216TIP3    H134207   0.206   3.330   1.580 -1.2156 -0.0270 -1.2558
 4216TIP3    H234208   0.230   3.187   1.537 -0.4250  0.5142 -2.6619
 4217TIP3   OH234209   1.962   0.751  31.968  0.2492 -0.2524 -0.0046
 4217TIP3    H134210   2.021   0.677  31.980 -0.6816 -1.0564 -0.3247
 4217TIP3    H234211   1.899   0.744  32.039 -0.6600 -0.5702 -0.8285
 4218TIP3   OH234212   3.545   2.819   5.871 -0.5312  0.3849  0.5774
 4218TIP3    H134213   3.482   2.818   5.943 -0.5011  0.3903  0.6035
 4218TIP3    H234214   3.624   2.778   5.907 -0.6136  0.1218  0.4621
 4219TIP3   OH234215   2.064   1.444  29.291  0.2825  0.5982  0.4402
 4219TIP3    H134216   2.082   1.489  29.373 -1.9854  2.0389  0.2462
 4219TIP3    H234217   1.983   1.395  29.308  0.4998 -0.1522 -0.5776
 4220TIP3   OH234218   2.940   2.889   4.675  0.4763  0.4483  0.3452
 4220TIP3    H134219   3.001   2.918   4.743 -1.1871  0.3203  2.0016
 4220TIP3    H234220   2.992   2.833   4.618  2.2871  1.7029  0.6679
 4221TIP3   OH234221   2.987   2.959  31.793  0.0570  0.1428 -0.0796
 4221TIP3    H134222   3.045   2.888  31.763 -1.3818 -1.4485  0.7766
 4221TIP3    H234223   2.931   2.977  31.717  0.6504  0.6400 -0.4113
 4222TIP3   OH234224   0.029   2.992   3.946 -0.3603  0.0369  0.1093
 4222TIP3    H134225  -0.054   2.983   3.993 -1.0680  1.0797 -0.8992
 4222TIP3    H234226   0.031   3.084   3.917  1.7068  0.3882  1.1346
 4223TIP3   OH234227   1.644   1.519  28.041  0.4115  0.3183 -0.2540
 4223TIP3    H134228   1.618   1.607  28.014  0.9562  0.8618  0.9146
 4223TIP3    H234229   1.599   1.506  28.125  1.5185  0.0951  0.3278
 4224TIP3   OH234230   0.187   2.617   4.564 -0.7446  0.1465 -0.2411
 4224TIP3    H134231   0.140   2.669   4.630 -0.4369  1.0953 -0.7462
 4224TIP3    H234232   0.120   2.593   4.500 -1.1395 -1.1804  0.6377
 4225TIP3   OH234233   0.973   1.234   6.095 -0.5226  0.1817 -0.0026
 4225TIP3    H134234   0.949   1.153   6.052  0.3169 -0.0012 -0.1232
 4225TIP3    H234235   0.960   1.216   6.189 -2.5871  0.6589 -0.1425
 4226TIP3   OH234236   3.453   2.243   6.319 -0.9447 -0.0354 -0.0996
 4226TIP3    H134237   3.522   2.302   6.347 -0.5012 -1.2280  1.4111
 4226TIP3    H234238   3.430   2.274   6.231 -0.3558  2.0129  0.4113
 4227TIP3   OH234239   2.089   3.302  31.390 -0.0529  0.4078 -0.4016
 4227TIP3    H134240   2.001   3.268  31.371  0.4159 -1.8727  1.0685
 4227TIP3    H234241   2.140   3.281  31.312 -0.0390 -1.4315  0.0616
 4228TIP3   OH234242   2.973   1.844  21.972  0.3266  0.0921  0.7073
 4228TIP3    H134243   2.923   1.915  22.012 -0.5246  0.2150 -0.5206
 4228TIP3    H234244   3.054   1.885  21.942 -0.3611  0.6799 -0.4209
 4229TIP3   OH234245   3.448   0.800  27.518  0.0107 -0.3496  0.1819
 4229TIP3    H134246   3.526   0.856  27.510  0.1459 -0.6633 -0.8815
 4229TIP3    H234247   3.382   0.857  27.556 -0.0210  0.7475 -1.3776
 4230TIP3   OH234248   2.801   3.261  27.883  0.0118 -0.2177  0.8092
 4230TIP3    H134249   2.808   3.347  27.843  0.4753 -1.0324 -0.9484
 4230TIP3    H234250   2.888   3.242  27.917  0.5311 -0.8953 -0.8138
 4231TIP3   OH234251   0.781   1.756  25.923 -0.5508 -0.5526 -0.5397
 4231TIP3    H134252   0.705   1.714  25.883 -0.5877 -0.6056 -0.4152
 4231TIP3    H234253   0.752   1.846  25.939 -0.9973 -0.8878  0.6056
 4232TIP3   OH234254   1.495   1.356  27.527  0.0657 -0.0275 -0.1828
 4232TIP3    H134255   1.505   1.329  27.436 -1.7874 -0.7728 -0.2027
 4232TIP3    H234256   1.508   1.276  27.578  1.9817  0.5471  0.3140
 4233TIP3   OH234257   1.948   0.408  31.529  0.5698 -0.7855 -0.7783
 4233TIP3    H134258   1.901   0.479  31.572  1.0360 -0.5177 -0.6937
 4233TIP3    H234259   1.933   0.331  31.584  0.3775 -0.6609 -0.6587
 4234TIP3   OH234260   0.898   1.061  29.834 -0.0229 -0.2970  0.0102
 4234TIP3    H134261   0.945   0.984  29.801  1.6417 -0.6449  2.8825
 4234TIP3    H234262   0.919   1.130  29.772  3.2569 -0.8117  0.3828
 4235TIP3   OH234263   1.169   1.111  32.177 -0.0932  0.2922 -0.4999
 4235TIP3    H134264   1.091   1.061  32.202  0.2179  0.9851  2.0883
 4235TIP3    H234265   1.215   1.053  32.116 -1.7014 -0.8823 -0.6944
 4236TIP3   OH234266   2.255   0.009   3.769  0.5420  0.6426  0.4228
 4236TIP3    H134267   2.208   0.092   3.780  1.2463  0.9689  1.1443
 4236TIP3    H234268   2.214  -0.050   3.833 -1.9807 -0.5493 -2.1064
 4237TIP3   OH234269   0.810   1.714  31.589 -0.2631 -0.1340 -0.2307
 4237TIP3    H134270   0.723   1.725  31.551 -1.4655 -0.1273  2.3066
 4237TIP3    H234271   0.856   1.795  31.568 -0.6654 -0.3411 -2.0291
 4238TIP3   OH234272   0.093   2.800   6.251 -0.0824 -0.5123 -0.0272
 4238TIP3    H134273   0.115   2.711   6.222  0.0527 -0.2882 -0.6288
 4238TIP3    H234274   0.012   2.820   6.204 -0.1613 -0.3489  0.1789
 4239TIP3   OH234275   3.145   1.516  29.843  0.7318  0.2753 -0.1095
 4239TIP3    H134276   3.100   1.581  29.789 -0.4944  1.0862  1.7649
 4239TIP3    H234277   3.215   1.482  29.787 -0.6149  0.8510 -2.2453
 4240TIP3   OH234278   0.874   1.376   1.206 -0.0023  0.1757  0.5412
 4240TIP3    H134279   0.807   1.377   1.138 -0.6757 -0.5854  1.1778
 4240TIP3    H234280   0.957   1.369   1.158 -0.4376  0.0316 -0.2073
 4241TIP3   OH234281   0.733   2.604  30.091 -0.5941 -0.2908 -0.4705
 4241TIP3    H134282   0.745   2.570  30.003  1.3479 -0.0647 -0.3467
 4241TIP3    H234283   0.783   2.545  30.147  1.0492  1.4315  0.0067
 4242TIP3   OH234284   0.880   3.408  31.792  0.6216  0.0271 -0.0610
 4242TIP3    H134285   0.923   3.435  31.873 -0.1598 -1.4867  0.9081
 4242TIP3    H234286   0.926   3.327  31.767 -0.4779 -0.6408  0.0262
 4243TIP3   OH234287   0.547   2.019  21.703  0.3890  0.1555 -0.4523
 4243TIP3    H134288   0.613   2.088  21.700  0.1755  0.3933  0.0573
 4243TIP3    H234289   0.593   1.943  21.738  0.2948  0.4501  0.3404
 4244TIP3   OH234290   2.618   1.006   5.858 -0.1046 -0.6480  0.0772
 4244TIP3    H134291   2.712   0.995   5.851 -0.1642 -0.9540 -0.2952
 4244TIP3    H234292   2.586   0.923   5.895 -0.1825 -0.3860  0.6022
 4245TIP3   OH234293   1.018   3.077  32.511  0.4973 -0.3258 -0.8663
 4245TIP3    H134294   0.993   3.057  32.421 -1.2493 -1.2057 -0.2366
 4245TIP3    H234295   0.937   3.070  32.561  1.5498 -0.6444  0.9095
 4246TIP3   OH234296   1.195   1.974  24.122 -0.1795 -0.1373  0.2460
 4246TIP3    H134297   1.125   1.908  24.119  1.4264 -1.9384  0.1885
 4246TIP3    H234298   1.238   1.959  24.206 -0.3461  1.5424  0.6728
 4247TIP3   OH234299   0.938   2.789  27.060  0.4738 -0.3628  0.1353
 4247TIP3    H134300   0.974   2.832  26.982 -0.7709 -1.9488 -1.4045
 4247TIP3    H234301   0.893   2.859  27.107  0.2120  0.4227 -1.2157
 4248TIP3   OH234302   1.889   0.524  29.070 -0.0232 -0.3476 -0.0506
 4248TIP3    H134303   1.899   0.549  29.162  2.6668 -1.0748 -0.0793
 4248TIP3    H234304   1.966   0.472  29.051  0.6574  1.5843 -3.3091
 4249TIP3   OH234305   0.128   1.831  26.543 -0.2672 -0.1949 -0.3909
 4249TIP3    H134306   0.056   1.775  26.572  0.8795 -2.5532 -1.8721
 4249TIP3    H234307   0.159   1.791  26.462  2.4353  0.9915 -0.0484
 4250TIP3   OH234308   2.467   3.065   7.570  0.1220  0.0797 -0.0257
 4250TIP3    H134309   2.540   3.024   7.617  0.9418  2.8166  1.2726
 4250TIP3    H234310   2.433   3.131   7.630 -0.3849  2.1015 -2.3712
 4251TIP3   OH234311   2.651   1.094   3.014 -0.3491  0.2691  0.2705
 4251TIP3    H134312   2.651   1.184   2.981 -0.3211  0.1957  0.0662
 4251TIP3    H234313   2.734   1.086   3.062  0.0699  0.0860 -0.4646
 4252TIP3   OH234314   2.739   0.980   5.028 -0.4895 -0.1828 -0.1539
 4252TIP3    H134315   2.764   0.964   4.937 -1.5165 -0.9662 -0.3192
 4252TIP3    H234316   2.695   0.899   5.055 -2.0372  0.8055  0.3879
 4253TIP3   OH234317   2.325   1.571  21.858 -0.5877  0.3622  0.3630
 4253TIP3    H134318   2.390   1.626  21.903 -0.8274  1.7937 -0.9735
 4253TIP3    H234319   2.241   1.601  21.890 -0.7720  1.5135 -1.0829
 4254TIP3   OH234320   3.219   2.701   7.875  0.0806  0.6538  0.0187
 4254TIP3    H134321   3.161   2.676   7.946 -2.3547  0.6667 -1.8376
 4254TIP3    H234322   3.187   2.653   7.799  2.6262  0.5715 -1.1260
 4255TIP3   OH234323   0.136   2.010  29.866  0.6493  0.5614  0.2579
 4255TIP3    H134324   0.112   1.937  29.923  0.1938  1.1755  0.8746
 4255TIP3    H234325   0.216   1.981  29.822  0.1451 -0.5376  0.0358
 4256TIP3   OH234326   2.425   0.694   4.551  0.1389  0.2325  0.1870
 4256TIP3    H134327   2.347   0.735   4.512 -0.0505  0.2402  0.5774
 4256TIP3    H234328   2.489   0.695   4.480  0.3945  1.9015  0.3829
 4257TIP3   OH234329   3.442   3.347  29.759 -0.9569 -0.0060  0.0084
 4257TIP3    H134330   3.397   3.363  29.676 -1.3433  0.1538  0.2484
 4257TIP3    H234331   3.388   3.283  29.804 -2.2409  1.9242  1.3262
 4258TIP3   OH234332   0.249   2.768   2.332 -0.2205  0.3274  0.0179
 4258TIP3    H134333   0.201   2.746   2.253  2.0316  0.4705 -1.4947
 4258TIP3    H234334   0.267   2.684   2.373  0.5137  0.0284 -0.8673
 4259TIP3   OH234335   2.280   2.084  19.790  0.6377  0.1822  0.5288
 4259TIP3    H134336   2.259   2.111  19.700  0.0252  1.3960  1.0131
 4259TIP3    H234337   2.349   2.143  19.817  2.2231 -1.4419  0.2268
 4260TIP3   OH234338   1.696   0.202  13.036  0.0965  0.7563  0.3652
 4260TIP3    H134339   1.771   0.262  13.045 -0.5216  1.4511  1.0282
 4260TIP3    H234340   1.624   0.247  13.080  0.0667 -1.3274  2.6354
 4261TIP3   OH234341   3.502   1.947  31.663 -0.2254 -0.0623  0.1156
 4261TIP3    H134342   3.415   1.973  31.631 -0.6552 -0.2632  1.1009
 4261TIP3    H234343   3.513   1.857  31.633 -0.8259 -0.4100  0.9340
 4262TIP3   OH234344   3.207   0.100  32.054  0.1823 -0.0692 -0.1229
 4262TIP3    H134345   3.194   0.195  32.053  1.5558  0.1923  1.3238
 4262TIP3    H234346   3.127   0.064  32.018 -1.6440  1.5436  2.0046
 4263TIP3   OH234347   2.010   2.947   5.932  0.2103  0.0813 -0.5514
 4263TIP3    H134348   2.053   2.995   6.003 -1.2336 -0.1592  0.5113
 4263TIP3    H234349   2.076   2.883   5.904 -0.4786 -2.7748  3.4446
 4264TIP3   OH234350   1.504   0.636  30.529  0.5741 -0.0402 -0.3965
 4264TIP3    H134351   1.448   0.570  30.488 -0.0498  0.4863 -0.4124
 4264TIP3    H234352   1.514   0.704  30.462  3.4393 -1.2856 -1.4251
 4265TIP3   OH234353   0.264   2.988   4.669 -0.6364 -0.2928  0.0659
 4265TIP3    H134354   0.290   2.957   4.582  0.4423 -1.0030  0.6130
 4265TIP3    H234355   0.215   2.915   4.706 -1.9822  0.3950 -0.3102
 4266TIP3   OH234356   3.344   1.753  29.529  0.4027 -0.2341  0.0164
 4266TIP3    H134357   3.406   1.808  29.480  0.2330 -0.8765 -0.9363
 4266TIP3    H234358   3.319   1.807  29.605  0.6702  0.7789 -0.5969
 4267TIP3   OH234359   0.336   0.370  28.430  0.4970  0.4326  0.4581
 4267TIP3    H134360   0.361   0.427  28.358  0.4746  0.4693  0.4788
 4267TIP3    H234361   0.250   0.336  28.405 -0.0462  1.3509  0.9999
 4268TIP3   OH234362   2.534   0.671  26.182 -0.2658  0.4598 -0.2429
 4268TIP3    H134363   2.493   0.744  26.136  0.1401  0.2749 -0.9109
 4268TIP3    H234364   2.554   0.607  26.114  1.3885  0.6653 -0.0032
 4269TIP3   OH234365   2.025   1.664  19.221 -1.1504  0.2212 -0.0899
 4269TIP3    H134366   1.954   1.699  19.166 -0.8908  0.9347  0.0211
 4269TIP3    H234367   2.093   1.638  19.158 -1.6461 -0.8136 -0.2200
 4270TIP3   OH234368   0.126   0.278  28.926 -0.4426  0.2460 -0.2450
 4270TIP3    H134369   0.113   0.326  29.008 -0.5415  0.7400 -0.5504
 4270TIP3    H234370   0.209   0.232  28.939  1.9016  3.7450 -1.4656
 4271TIP3   OH234371   2.308   3.167  27.868  0.5823 -0.9326  0.3086
 4271TIP3    H134372   2.377   3.234  27.863  0.6215 -1.0310 -2.4119
 4271TIP3    H234373   2.279   3.157  27.777 -2.6262 -1.3602  1.2720
 4272TIP3   OH234374   0.159   3.185  31.209 -0.0001 -0.0167 -0.4502
 4272TIP3    H134375   0.234   3.239  31.233 -0.2783 -0.2428  0.9584
 4272TIP3    H234376   0.102   3.186  31.286 -3.2572  3.0737 -2.5629
 4273TIP3   OH234377   1.605   2.693  12.291  0.1409 -0.8339  0.6986
 4273TIP3    H134378   1.515   2.688  12.259  0.0947  0.4877  0.5705
 4273TIP3    H234379   1.597   2.676  12.385 -0.7354  2.5042  1.3380
 4274TIP3   OH234380   2.587   2.485   1.895  0.4088  0.3051  0.1368
 4274TIP3    H134381   2.634   2.406   1.923  0.6458  0.4210  0.0697
 4274TIP3    H234382   2.655   2.552   1.889  0.2366  0.4691  0.0207
 4275TIP3   OH234383   1.195   3.047  12.195  0.0347 -0.4930  0.7154
 4275TIP3    H134384   1.115   3.080  12.155  0.0336 -0.3282  0.8513
 4275TIP3    H234385   1.164   2.987  12.264  0.0263 -0.3500  0.8358
 4276TIP3   OH234386   3.506   0.718  29.498  0.2165 -0.7690 -0.3663
 4276TIP3    H134387   3.562   0.777  29.548 -0.4695  0.9215 -1.4905
 4276TIP3    H234388   3.442   0.686  29.561  1.0828 -0.9724  0.4373
 4277TIP3   OH234389   2.015   1.691  31.960 -0.1206  0.4855 -0.0674
 4277TIP3    H134390   1.938   1.634  31.961  2.0887 -2.8159  1.2402
 4277TIP3    H234391   2.069   1.656  31.889  1.0978  1.2750  0.4344
 4278TIP3   OH234392   2.944   1.772   0.974  0.7746 -0.1776 -0.1536
 4278TIP3    H134393   2.850   1.755   0.968  0.5758  1.1282 -1.2011
 4278TIP3    H234394   2.952   1.841   1.040  0.8809  0.4457 -0.8053
 4279TIP3   OH234395   1.162   2.171  20.008  0.1700 -0.4847 -0.6481
 4279TIP3    H134396   1.222   2.199  20.077 -0.2790 -1.8979  0.3462
 4279TIP3    H234397   1.075   2.186  20.044 -0.1046  0.6004 -1.6955
 4280TIP3   OH234398   2.138   1.981  26.920 -0.0621  0.0743 -0.4062
 4280TIP3    H134399   2.193   1.920  26.969  1.2853  0.6007 -1.2103
 4280TIP3    H234400   2.127   1.941  26.834  0.0426  0.5135 -0.6298
 4281TIP3   OH234401   1.269   0.579  32.126 -0.1658 -0.0009 -0.3860
 4281TIP3    H134402   1.308   0.528  32.055  0.1497 -0.9272  0.4440
 4281TIP3    H234403   1.343   0.610  32.177 -0.2647  2.3224 -1.5160
 4282TIP3   OH234404   3.157   3.330  11.710 -0.0675  0.6493 -0.1804
 4282TIP3    H134405   3.098   3.362  11.778 -0.4505 -0.0885 -0.1653
 4282TIP3    H234406   3.170   3.406  11.653 -2.2828  0.4288 -1.0750
 4283TIP3   OH234407   2.337   2.110  29.068  0.2811  0.2722  0.2914
 4283TIP3    H134408   2.316   2.099  29.161  0.0645 -0.7846  0.1225
 4283TIP3    H234409   2.430   2.133  29.067  0.6878 -1.2582  0.6942
 4284TIP3   OH234410   1.387   3.015   1.330  0.0062 -0.3858 -0.4361
 4284TIP3    H134411   1.313   3.069   1.357  0.9152  1.7996 -1.9797
 4284TIP3    H234412   1.363   2.982   1.243 -0.0534 -1.5164 -0.0003
 4285TIP3   OH234413   3.450   0.015  27.014  0.4217  0.1355 -0.0119
 4285TIP3    H134414   3.545   0.008  27.008  0.6661  0.6596  2.3183
 4285TIP3    H234415   3.424  -0.056  27.073 -0.8051 -0.7347 -1.5174
 4286TIP3   OH234416   1.445   0.391   1.198  0.1399 -0.3983 -0.1845
 4286TIP3    H134417   1.387   0.452   1.242 -2.1855 -1.8416 -1.0481
 4286TIP3    H234418   1.460   0.430   1.112 -2.1939 -1.4073 -1.1285
 4287TIP3   OH234419   2.803   3.457   0.101  0.2911  0.1966 -0.6685
 4287TIP3    H134420   2.776   3.506   0.179 -0.3595  0.0799 -0.8136
 4287TIP3    H234421   2.725   3.408   0.075  1.0414 -1.3084 -0.2364
 4288TIP3   OH234422   0.996   1.479  25.385  0.0558  0.3329  0.1150
 4288TIP3    H134423   1.028   1.458  25.473 -0.6656 -0.1080  0.2790
 4288TIP3    H234424   1.050   1.553  25.357  1.5276 -0.6601  0.2006
 4289TIP3   OH234425   0.126   2.055  32.497 -0.1559  0.1743 -0.0210
 4289TIP3    H134426   0.088   1.967  32.488  0.8667 -0.2380 -0.5257
 4289TIP3    H234427   0.164   2.074  32.411  0.9120  0.4794  0.4968
 4290TIP3   OH234428   2.056   0.396  15.462 -0.0588  0.4259  0.2427
 4290TIP3    H134429   2.111   0.436  15.529  0.4875 -0.6943  0.4923
 4290TIP3    H234430   2.112   0.331  15.420 -0.8707 -0.0011 -0.2148
 4291TIP3   OH234431   0.149   2.795  27.400  0.4046  0.4434 -0.3196
 4291TIP3    H134432   0.058   2.786  27.371  1.2665 -0.3385 -3.0044
 4291TIP3    H234433   0.146   2.867  27.463 -2.2240 -0.2678  0.5164
 4292TIP3   OH234434   0.293   0.561  28.223 -0.2579 -0.1871 -0.5571
 4292TIP3    H134435   0.243   0.494  28.176 -2.1320 -1.2222  2.6375
 4292TIP3    H234436   0.234   0.636  28.229 -0.7829 -0.7182  1.5923
 4293TIP3   OH234437   3.309   0.989  26.444  1.2282  0.1415  0.1244
 4293TIP3    H134438   3.306   1.079  26.411  0.1418 -0.6919 -2.2382
 4293TIP3    H234439   3.380   0.948  26.394  1.8322 -0.3119  1.3162
 4294TIP3   OH234440   2.574   1.455   5.262  0.0371 -0.0474  0.0800
 4294TIP3    H134441   2.526   1.383   5.221  2.5087 -1.5739 -0.3615
 4294TIP3    H234442   2.582   1.430   5.354 -0.4605  0.4818  0.2749
 4295TIP3   OH234443   2.109   0.325  29.605 -0.2012 -0.2867  0.1051
 4295TIP3    H134444   2.055   0.343  29.528 -0.3518  0.4861  0.3829
 4295TIP3    H234445   2.047   0.320  29.677  0.1824  2.2380  0.7009
 4296TIP3   OH234446   2.427   2.353   2.397 -0.0826 -0.3236 -0.1675
 4296TIP3    H134447   2.356   2.290   2.402 -1.1782  0.8660 -0.1169
 4296TIP3    H234448   2.496   2.309   2.346 -0.5732 -1.7365  0.3487
 4297TIP3   OH234449   0.327   0.158  32.262  0.3208 -0.4844 -0.1440
 4297TIP3    H134450   0.313   0.186  32.171  0.9153  0.5058  0.0479
 4297TIP3    H234451   0.288   0.071  32.267 -1.8991  0.4244 -0.7163
 4298TIP3   OH234452   1.364   2.635  31.413 -0.4604 -0.6756 -0.4231
 4298TIP3    H134453   1.306   2.619  31.338 -0.2715  0.3905 -0.8092
 4298TIP3    H234454   1.332   2.716  31.452 -2.9707 -3.0040  3.0037
 4299TIP3   OH234455   2.827   0.315   2.611 -0.0257  0.2181  0.7241
 4299TIP3    H134456   2.851   0.408   2.610 -0.0949  0.2419 -1.4101
 4299TIP3    H234457   2.897   0.272   2.563 -1.8214 -0.3225 -1.5583
 4300TIP3   OH234458   0.190   3.067  31.788 -0.7157 -0.2869 -0.5695
 4300TIP3    H134459   0.276   3.092  31.822 -1.2102 -0.9634  1.3390
 4300TIP3    H234460   0.207   3.001  31.721  0.2623 -0.1142 -0.4920
 4301TIP3   OH234461   0.305   2.981  32.286 -0.7244  0.1903  0.3469
 4301TIP3    H134462   0.321   3.023  32.370  0.4313 -0.8007  0.6471
 4301TIP3    H234463   0.387   2.989  32.238 -1.1285  0.0604 -0.3941
 4302TIP3   OH234464   2.134   1.572   4.503  0.2818 -0.0487 -0.1556
 4302TIP3    H134465   2.213   1.614   4.537  1.3848  0.2127 -2.7966
 4302TIP3    H234466   2.153   1.478   4.507 -0.1462 -0.0965  1.1132
 4303TIP3   OH234467   3.355   2.777   4.876  0.2893  0.2897 -0.0999
 4303TIP3    H134468   3.311   2.834   4.813 -1.1006  0.9654  1.4025
 4303TIP3    H234469   3.292   2.708   4.893  0.5171  0.2900  0.7722
 4304TIP3   OH234470   0.242   3.517  28.437  0.0316 -0.9334  0.8360
 4304TIP3    H134471   0.252   3.422  28.447  0.5476 -0.8199  1.4684
 4304TIP3    H234472   0.305   3.541  28.369  0.4732 -0.9358  1.2394
 4305TIP3   OH234473   2.344   1.842  18.054  0.5014 -0.1842 -0.3991
 4305TIP3    H134474   2.399   1.854  18.132  1.3776  0.2759 -1.0660
 4305TIP3    H234475   2.315   1.751  18.058  1.4875 -0.4965 -0.1281
 4306TIP3   OH234476   1.940   2.672  26.056  0.0869  0.2768  0.3641
 4306TIP3    H134477   1.867   2.621  26.022  0.8566  0.2212 -1.2871
 4306TIP3    H234478   1.914   2.694  26.146 -1.8365  0.0786 -0.1025
 4307TIP3   OH234479   2.162   0.453   6.669 -0.1786 -0.3615 -0.2040
 4307TIP3    H134480   2.154   0.382   6.734 -3.7557 -0.8310 -0.9545
 4307TIP3    H234481   2.214   0.414   6.598  1.4845 -0.7441  1.1556
 4308TIP3   OH234482   1.311   2.262  31.828 -0.2270 -0.1357 -0.0171
 4308TIP3    H134483   1.224   2.243  31.792 -0.1124 -1.0637  0.1952
 4308TIP3    H234484   1.339   2.181  31.869  0.1203  0.5741  1.2201
 4309TIP3   OH234485   1.529   2.886   3.970  0.3021 -0.1129  0.0700
 4309TIP3    H134486   1.609   2.897   3.919  0.4599  0.5014  0.4441
 4309TIP3    H234487   1.488   2.972   3.969  0.1216 -0.1867  0.6643
 4310TIP3   OH234488   1.245   1.591  26.419  0.6554 -0.3029 -0.4397
 4310TIP3    H134489   1.271   1.661  26.359 -0.3224 -0.0065 -0.5329
 4310TIP3    H234490   1.230   1.635  26.502  0.7268 -0.5104 -0.3156
 4311TIP3   OH234491   1.126   0.300  27.875 -0.1319 -0.0909  0.6134
 4311TIP3    H134492   1.063   0.371  27.860  0.9743  0.7713 -0.1008
 4311TIP3    H234493   1.096   0.229  27.817 -0.5612  0.2349  0.4311
 4312TIP3   OH234494   1.920   2.296  26.466 -0.4412  0.4428 -0.6135
 4312TIP3    H134495   1.889   2.341  26.388 -0.1816  1.0661 -0.3675
 4312TIP3    H234496   1.947   2.209  26.435  0.0152  0.8131 -1.2886
 4313TIP3   OH234497   0.017   1.142  28.312  0.2545  0.4538 -0.1100
 4313TIP3    H134498   0.090   1.197  28.285  2.0138 -1.5157  0.4173
 4313TIP3    H234499   0.018   1.068  28.250  0.1048 -0.6895  1.2019
 4314TIP3   OH234500   1.195   2.367  10.714  0.3960  0.2610 -0.7045
 4314TIP3    H134501   1.212   2.420  10.791  2.4210 -1.0989 -0.1319
 4314TIP3    H234502   1.108   2.394  10.684 -1.9147 -1.2707  3.7983
 4315TIP3   OH234503   1.093   1.015  25.810  0.1724  0.1101 -0.2541
 4315TIP3    H134504   1.022   1.047  25.755 -0.9998 -1.7986  0.0366
 4315TIP3    H234505   1.084   1.065  25.892 -1.0012 -0.2494 -0.1409
 4316TIP3   OH234506   0.179   2.223   1.542  0.4011 -0.3626 -0.6487
 4316TIP3    H134507   0.173   2.296   1.480 -1.3703 -0.9463 -1.2140
 4316TIP3    H234508   0.273   2.218   1.564  0.8369  0.8296 -2.0732
 4317TIP3   OH234509   1.726   1.978  20.973 -0.0764  0.6510 -0.4984
 4317TIP3    H134510   1.812   1.957  20.936  1.2314 -0.0273  2.5859
 4317TIP3    H234511   1.692   1.894  21.002 -1.1566  1.1147 -0.3789
 4318TIP3   OH234512   2.605   0.537  28.943  0.0931  0.1703  0.2818
 4318TIP3    H134513   2.677   0.499  28.892 -0.2860 -0.3310  0.1052
 4318TIP3    H234514   2.607   0.489  29.026 -0.4494 -0.3254  0.0196
 4319TIP3   OH234515   1.767   2.907   6.945 -0.3795 -0.1149 -0.3679
 4319TIP3    H134516   1.842   2.899   6.887 -0.3954  0.3621 -0.4557
 4319TIP3    H234517   1.776   2.834   7.006 -1.0303 -1.3629 -1.7135
 4320TIP3   OH234518   2.609   1.587   0.913 -0.0158  0.7742  0.8372
 4320TIP3    H134519   2.585   1.679   0.918 -0.4574  0.6179  1.7157
 4320TIP3    H234520   2.643   1.576   0.824 -0.5742  1.6285  0.5065
 4321TIP3   OH234521   0.594   1.154   1.618  0.0928  0.0807  0.0910
 4321TIP3    H134522   0.652   1.098   1.565 -0.2749  0.5803 -0.8719
 4321TIP3    H234523   0.571   1.226   1.559 -0.5584  0.5135  0.8598
 4322TIP3   OH234524   0.644   3.426  27.260  0.0436  0.1975  0.4748
 4322TIP3    H134525   0.630   3.338  27.295 -1.4295  0.3472  0.3041
 4322TIP3    H234526   0.698   3.470  27.326 -0.0669 -0.5097  1.0399
 4323TIP3   OH234527   0.106   2.828  30.358  0.6922  0.3412 -0.2982
 4323TIP3    H134528   0.075   2.869  30.438  1.3220  0.0650  0.0886
 4323TIP3    H234529   0.147   2.899  30.309 -0.5802  0.7287 -0.8500
 4324TIP3   OH234530   3.146   2.712   1.228  0.2961  0.6819 -0.3650
 4324TIP3    H134531   3.069   2.679   1.274  2.2491 -0.9004  2.0612
 4324TIP3    H234532   3.135   2.682   1.138 -0.6398 -1.9847  0.5427
 4325TIP3   OH234533   1.345   2.225  19.794  0.7206 -0.2280  0.3028
 4325TIP3    H134534   1.258   2.206  19.828  0.1332 -0.5502 -1.3164
 4325TIP3    H234535   1.405   2.177  19.852 -0.0175  1.2977  2.4362
 4326TIP3   OH234536   2.130   2.864   2.879 -0.1979 -0.0085 -0.5785
 4326TIP3    H134537   2.068   2.886   2.948 -0.2068 -0.5338 -0.4146
 4326TIP3    H234538   2.176   2.786   2.911  1.6147  1.2157 -0.0325
 4327TIP3   OH234539   3.356   2.343   5.579  0.1578  0.2485  0.2024
 4327TIP3    H134540   3.423   2.324   5.513 -1.6996 -0.2861 -1.6415
 4327TIP3    H234541   3.365   2.437   5.594  0.7016  0.3665 -0.7435
 4328TIP3   OH234542   3.540   0.486   5.171  0.3842 -0.1329 -0.2874
 4328TIP3    H134543   3.569   0.483   5.079 -2.8097  0.9954 -1.4436
 4328TIP3    H234544   3.526   0.395   5.194  1.2466 -0.4374 -0.9016
 4329TIP3   OH234545   3.107   0.857  27.399 -0.3182  0.4955 -0.1442
 4329TIP3    H134546   3.147   0.774  27.374 -0.1034  0.3334  0.6821
 4329TIP3    H234547   3.038   0.872  27.335  0.9076  0.6526 -1.4600
 4330TIP3   OH234548   1.026   3.461   3.992  0.4662  0.1903 -0.2456
 4330TIP3    H134549   1.034   3.480   3.899 -3.3778 -1.3229 -1.1003
 4330TIP3    H234550   0.971   3.532   4.026  3.2557  1.7172  1.4110
 4331TIP3   OH234551   0.336   1.233  28.512  0.2545  0.5270  0.1654
 4331TIP3    H134552   0.305   1.191  28.431  0.6220  1.1213 -0.2964
 4331TIP3    H234553   0.256   1.254  28.560 -0.1693  2.7122 -1.3483
 4332TIP3   OH234554   2.112   0.858   2.058 -0.2268  0.8921  0.1418
 4332TIP3    H134555   2.160   0.777   2.042  1.6440  1.8616  0.4976
 4332TIP3    H234556   2.071   0.845   2.144  0.2260  0.3958  0.2895
 4333TIP3   OH234557   1.405   0.923  32.126 -0.2180 -0.0581 -0.7472
 4333TIP3    H134558   1.329   0.865  32.132  0.3913 -0.7443  0.9837
 4333TIP3    H234559   1.480   0.866  32.144  0.4138  1.2232  0.9295
 4334TIP3   OH234560   3.064   1.607   5.451 -0.1499  0.2428 -0.6398
 4334TIP3    H134561   3.055   1.514   5.473  0.4866  0.0799 -1.0405
 4334TIP3    H234562   2.975   1.635   5.430 -0.2740 -0.4003 -1.0062
 4335TIP3   OH234563   0.528   0.757   3.352 -0.1619 -0.0520  0.1835
 4335TIP3    H134564   0.566   0.669   3.357  1.7023  0.7805  1.4499
 4335TIP3    H234565   0.526   0.788   3.443  0.8374  1.8641 -0.3948
 4336TIP3   OH234566   0.863   2.533  31.481  0.2898 -0.2810  0.0320
 4336TIP3    H134567   0.914   2.560  31.406 -0.9091  0.7456 -0.4515
 4336TIP3    H234568   0.858   2.611  31.537 -0.4546 -0.4572  0.2257
 4337TIP3   OH234569   1.261   1.370  26.606 -0.6162  0.1258 -0.3586
 4337TIP3    H134570   1.170   1.358  26.634 -0.6890  0.7883 -0.2909
 4337TIP3    H234571   1.254   1.414  26.521 -0.3529  0.2328 -0.3252
 4338TIP3   OH234572   2.289   2.419   9.894 -0.0426 -0.3838 -0.1450
 4338TIP3    H134573   2.203   2.462   9.888  0.3697  0.6613  0.9721
 4338TIP3    H234574   2.338   2.454   9.819  0.0272  0.5393  0.3098
 4339TIP3   OH234575   1.517   2.184  29.365 -0.1623  0.1362 -0.0399
 4339TIP3    H134576   1.429   2.189  29.328 -0.2820 -0.9014  0.0622
 4339TIP3    H234577   1.576   2.186  29.290 -0.2635  0.9595 -0.1006
 4340TIP3   OH234578   0.334   2.773   0.345  0.2431 -0.4376 -0.0796
 4340TIP3    H134579   0.382   2.712   0.290  0.3617 -0.6745  0.2839
 4340TIP3    H234580   0.247   2.734   0.355 -0.2853  0.3490 -1.3429
 4341TIP3   OH234581   3.036   0.451  30.912  0.2659 -0.0124 -0.6162
 4341TIP3    H134582   3.006   0.437  30.822  0.0788 -1.0622 -0.4024
 4341TIP3    H234583   2.961   0.428  30.967  0.9279 -1.1441 -0.1372
 4342TIP3   OH234584   1.098   3.287   6.119  0.0556  0.1892  0.4887
 4342TIP3    H134585   1.112   3.331   6.035  1.1646 -0.6369  0.2169
 4342TIP3    H234586   1.180   3.300   6.167 -0.4970  0.4922  1.3907
 4343TIP3   OH234587   0.017   2.366  27.891 -0.4538  0.1949  0.1726
 4343TIP3    H134588  -0.030   2.365  27.808 -0.0179  1.9581 -0.1366
 4343TIP3    H234589   0.035   2.459  27.907  0.6740 -0.2297  1.5549
 4344TIP3   OH234590   0.634   0.247  28.895 -0.0257 -0.1416 -0.3925
 4344TIP3    H134591   0.708   0.186  28.906  0.2208 -0.0584 -1.4475
 4344TIP3    H234592   0.641   0.276  28.804 -1.2022  0.0815 -0.4248
 4345TIP3   OH234593   2.950   2.939   6.630  0.6407  0.2610 -0.4236
 4345TIP3    H134594   2.905   3.024   6.630  0.0083 -0.0609  0.9422
 4345TIP3    H234595   2.883   2.875   6.607  0.5540 -0.1341  0.8836
 4346TIP3   OH234596   1.937   0.997  28.555 -0.4620 -0.4549  0.7211
 4346TIP3    H134597   1.868   1.048  28.598  0.6106  0.4489  1.4111
 4346TIP3    H234598   1.924   1.013  28.462 -2.0658 -1.4693  0.7276
 4347TIP3   OH234599   2.671   3.412  11.850 -0.0420 -0.3044 -0.2762
 4347TIP3    H134600   2.628   3.342  11.801 -1.9141  1.7284 -1.7279
 4347TIP3    H234601   2.699   3.474  11.783  0.0761  1.1260  1.0528
 4348TIP3   OH234602   0.762   2.825  32.249 -0.0391  0.2144  0.2918
 4348TIP3    H134603   0.746   2.767  32.324  0.8452 -0.4635 -0.0330
 4348TIP3    H234604   0.852   2.808  32.224  0.1752  1.5828  0.0401
 4349TIP3   OH234605   0.028   1.965  30.487 -0.6123 -0.0625  0.0231
 4349TIP3    H134606   0.106   1.913  30.469 -0.0075  1.0237 -0.5920
 4349TIP3    H234607  -0.044   1.913  30.451  0.0020 -0.3977 -0.7679
 4350TIP3   OH234608   1.582   2.226  29.640 -0.7474 -0.3239 -0.5949
 4350TIP3    H134609   1.568   2.204  29.548 -0.2789  2.0004 -1.2974
 4350TIP3    H234610   1.496   2.253  29.672 -0.7949 -0.5498 -0.5339
 4351TIP3   OH234611   3.397   1.354   2.935 -0.3617 -0.0516 -0.1152
 4351TIP3    H134612   3.463   1.285   2.949  0.1110  0.1153 -1.3798
 4351TIP3    H234613   3.392   1.363   2.840 -1.0461  1.0786  0.0117
 4352TIP3   OH234614   3.119   0.831   6.151 -0.1926  0.5715 -0.1337
 4352TIP3    H134615   3.087   0.895   6.214  0.2502 -1.1378  1.9521
 4352TIP3    H234616   3.211   0.854   6.139 -0.2675  0.8763 -0.1368
 4353TIP3   OH234617   1.421   0.325  26.349  0.1875  0.4723  0.1749
 4353TIP3    H134618   1.369   0.259  26.304  1.0197 -0.8115  1.0187
 4353TIP3    H234619   1.493   0.344  26.289  0.7162 -0.4591  0.4801
 4354TIP3   OH234620   1.286   1.482   2.359 -0.4949  0.2819 -0.0456
 4354TIP3    H134621   1.288   1.387   2.353 -1.7752  0.2671 -0.4915
 4354TIP3    H234622   1.251   1.500   2.446  1.3001  0.3754  0.6868
 4355TIP3   OH234623   0.198   1.360  26.522 -0.6143  0.6102  0.3152
 4355TIP3    H134624   0.201   1.273  26.561  1.4341 -0.3879 -1.7983
 4355TIP3    H234625   0.120   1.358  26.465 -0.8980  0.3678  0.7115
 4356TIP3   OH234626   3.186   0.669  27.670  0.4864  0.2458 -0.0803
 4356TIP3    H134627   3.177   0.762  27.650 -1.8019 -0.0057 -0.4049
 4356TIP3    H234628   3.206   0.667  27.764  2.6496  1.0865 -0.4502
 4357TIP3   OH234629   2.691   0.392  29.196 -0.6181 -0.6410  0.0870
 4357TIP3    H134630   2.623   0.345  29.244 -0.8032 -0.9015 -0.4172
 4357TIP3    H234631   2.707   0.471  29.247 -2.6499  0.3870 -0.7549
 4358TIP3   OH234632   2.778   0.488  32.833  0.0288 -0.0878 -0.7425
 4358TIP3    H134633   2.725   0.552  32.786 -1.6098 -1.1036 -0.3444
 4358TIP3    H234634   2.735   0.404  32.817  0.8729 -0.7925  0.5148
 4359TIP3   OH234635   2.107   1.778  17.829 -0.1359 -0.0487 -0.9500
 4359TIP3    H134636   2.137   1.752  17.916 -2.3499  0.1806 -0.0455
 4359TIP3    H234637   2.143   1.711  17.770 -2.7030 -3.3149  0.8278
 4360TIP3   OH234638   0.147   1.155   1.544 -0.1355 -0.3228 -0.1630
 4360TIP3    H134639   0.178   1.239   1.578  0.1212 -0.2626 -0.5340
 4360TIP3    H234640   0.081   1.126   1.607  0.0157 -0.0039  0.1457
 4361TIP3   OH234641   0.997   2.814   2.784 -1.1261  0.1031 -0.1432
 4361TIP3    H134642   0.938   2.796   2.710  0.2250  1.3695 -1.5848
 4361TIP3    H234643   1.054   2.737   2.788 -1.1422  0.0711 -0.4885
 4362TIP3   OH234644   0.240   0.450   1.982  0.1309  0.1061 -0.2757
 4362TIP3    H134645   0.189   0.434   1.903  0.1724 -0.4373 -0.1976
 4362TIP3    H234646   0.255   0.363   2.019 -0.8553  0.4129  0.9324
 4363TIP3   OH234647   0.538   1.040  28.747 -0.0392 -0.7392 -0.1868
 4363TIP3    H134648   0.539   1.080  28.660  1.7295  0.7817  0.4802
 4363TIP3    H234649   0.445   1.037  28.770 -0.4380  0.1314 -1.5491
 4364TIP3   OH234650   1.893   0.985  25.608 -0.1029 -0.1733 -0.0203
 4364TIP3    H134651   1.865   1.062  25.657 -1.2993  1.1445 -2.5855
 4364TIP3    H234652   1.844   0.989  25.526  2.3656 -1.7845 -1.7208
 4365TIP3   OH234653   2.708   2.325   2.348  0.3271  0.0131 -0.1564
 4365TIP3    H134654   2.778   2.304   2.409  0.5084 -0.9045 -0.6517
 4365TIP3    H234655   2.700   2.420   2.351  1.5285  0.1231 -0.0191
 4366TIP3   OH234656   0.852   3.247   5.069 -0.1765  0.1795 -0.6155
 4366TIP3    H134657   0.759   3.266   5.069  0.0381  1.3003 -0.5048
 4366TIP3    H234658   0.859   3.160   5.031 -1.4617 -1.0269  1.7547
 4367TIP3   OH234659   2.904   0.062   1.882 -0.1033  0.3888 -0.2874
 4367TIP3    H134660   2.898   0.156   1.897 -1.1805  0.0720  1.6324
 4367TIP3    H234661   2.903   0.052   1.787  0.1722  2.3002 -0.5289
 4368TIP3   OH234662   3.052   0.867   4.702  0.5769  0.7011  0.3600
 4368TIP3    H134663   2.957   0.869   4.716  0.4283  0.9375 -0.5847
 4368TIP3    H234664   3.067   0.932   4.634  0.8911 -1.9627 -2.3540
 4369TIP3   OH234665   0.562   0.152  27.216 -0.2051  0.5053  0.1380
 4369TIP3    H134666   0.644   0.191  27.187 -0.1046 -0.8280 -1.5284
 4369TIP3    H234667   0.577   0.057  27.209 -1.3429  0.1974  1.4124
 4370TIP3   OH234668   0.695   1.460  31.473  0.6140 -0.1150  0.8420
 4370TIP3    H134669   0.630   1.397  31.504  1.0715 -0.7611  0.5282
 4370TIP3    H234670   0.772   1.443  31.528  1.0131 -0.4139  0.2093
 4371TIP3   OH234671   3.523   1.888   1.344  0.3146 -0.1284 -0.1894
 4371TIP3    H134672   3.578   1.875   1.267  0.2596  0.7027 -0.3808
 4371TIP3    H234673   3.556   1.968   1.384  1.1266 -1.2059  1.3521
 4372TIP3   OH234674   1.682   3.386   2.180  0.1416  0.0883  0.4411
 4372TIP3    H134675   1.681   3.422   2.268 -1.8468  1.5378 -0.1090
 4372TIP3    H234676   1.724   3.453   2.126  0.7303 -0.4886  0.1683
 4373TIP3   OH234677   2.706   0.172   1.418  0.2463 -0.0200 -0.5288
 4373TIP3    H134678   2.659   0.120   1.353  0.7649  1.4172 -2.0991
 4373TIP3    H234679   2.755   0.236   1.368 -0.8683  2.4663  1.3307
 4374TIP3   OH234680   2.292   1.201   5.883  0.2682 -0.0319 -0.2359
 4374TIP3    H134681   2.217   1.239   5.840 -0.5126 -0.4870  0.6756
 4374TIP3    H234682   2.343   1.275   5.916 -0.6925  0.2624  0.6250
 4375TIP3   OH234683   0.779   1.857  31.144 -0.1953 -0.3398  0.6539
 4375TIP3    H134684   0.707   1.876  31.084  0.3509 -1.4493 -0.3936
 4375TIP3    H234685   0.858   1.865  31.090  0.3927 -0.2539  1.5068
 4376TIP3   OH234686   0.753   0.404  32.301  0.4157  0.4079 -0.3157
 4376TIP3    H134687   0.686   0.385  32.235  0.5136 -0.8910 -0.0684
 4376TIP3    H234688   0.826   0.442  32.251  0.8714 -1.4490 -1.1337
 4377TIP3   OH234689   1.130   3.123   0.729 -0.1497 -0.1416  0.2540
 4377TIP3    H134690   1.210   3.174   0.740  0.8860 -0.8110 -3.1102
 4377TIP3    H234691   1.060   3.188   0.739  0.9483  1.1175  0.0813
 4378TIP3   OH234692   3.454   2.261  23.475  0.8360 -0.0662 -0.0332
 4378TIP3    H134693   3.488   2.345  23.444  0.5811 -0.9366 -2.9653
 4378TIP3    H234694   3.524   2.199  23.457 -0.3782 -1.0735 -1.4792
 4379TIP3   OH234695   2.827   1.468  26.356 -0.2399 -0.0016  0.4191
 4379TIP3    H134696   2.799   1.532  26.290 -1.6939 -0.3204  0.6921
 4379TIP3    H234697   2.781   1.495  26.436  0.9121 -0.0655  1.1194
 4380TIP3   OH234698   1.113   3.310   5.355 -0.2822 -0.5909  0.5026
 4380TIP3    H134699   1.182   3.355   5.404 -2.2004  3.1199  0.2048
 4380TIP3    H234700   1.142   3.313   5.264  0.3444 -1.5378  0.6596
 4381TIP3   OH234701   1.201   0.917   0.113  0.1980  0.0193 -0.2561
 4381TIP3    H134702   1.222   0.824   0.102 -1.9564 -0.5220 -0.1181
 4381TIP3    H234703   1.211   0.933   0.206  0.6088 -0.0576 -0.2852
 4382TIP3   OH234704   3.482   3.503   1.180 -0.1511  0.4033  0.2954
 4382TIP3    H134705   3.523   3.543   1.257 -1.0729  0.4512  0.7710
 4382TIP3    H234706   3.389   3.505   1.198 -0.4842  1.4549 -1.3234
 4383TIP3   OH234707   0.821   0.592   2.783  0.5804  0.0759 -0.1998
 4383TIP3    H134708   0.896   0.652   2.787  0.2429  0.4856  0.1395
 4383TIP3    H234709   0.751   0.643   2.742 -0.0453  0.2981  1.0938
 4384TIP3   OH234710   0.106   2.045  23.335 -0.0207 -0.0143  0.5092
 4384TIP3    H134711   0.141   1.958  23.317 -0.5403 -0.5206  1.7696
 4384TIP3    H234712   0.158   2.105  23.281 -1.0467 -1.2891 -2.0389
 4385TIP3   OH234713   0.459   0.840  28.518 -0.1945 -0.3613 -0.0715
 4385TIP3    H134714   0.376   0.812  28.479 -0.2801  0.1984 -0.2971
 4385TIP3    H234715   0.491   0.762  28.564 -0.6128 -0.7173 -0.3745
 4386TIP3   OH234716   0.083   3.527  30.837  0.1565  0.0331  0.7116
 4386TIP3    H134717   0.064   3.485  30.921  0.9126  0.3071  1.0286
 4386TIP3    H234718   0.003   3.575  30.816 -1.2905 -2.6280 -0.3593
 4387TIP3   OH234719   2.870   0.015  29.485 -0.5336 -0.2233 -0.4109
 4387TIP3    H134720   2.877   0.040  29.577 -3.3687  0.4841 -0.2945
 4387TIP3    H234721   2.826  -0.069  29.487  2.8957 -2.2329 -1.0932
 4388TIP3   OH234722   3.197   3.299  12.152 -0.0403  0.0189  0.1110
 4388TIP3    H134723   3.269   3.283  12.090  1.3293  0.6520  1.4648
 4388TIP3    H234724   3.236   3.280  12.237 -1.6766 -0.1631  0.8373
 4389TIP3   OH234725   2.974   2.705  28.838 -0.2431  0.5631 -0.5283
 4389TIP3    H134726   2.993   2.629  28.892 -1.3417 -0.9678 -2.1767
 4389TIP3    H234727   3.058   2.726  28.795  0.0417  0.2242 -0.1343
 4390TIP3   OH234728   2.065   0.911  27.613  0.1040 -0.2152  0.3193
 4390TIP3    H134729   2.138   0.848  27.619  0.0111 -0.2983  0.5632
 4390TIP3    H234730   1.996   0.863  27.567 -0.5949 -0.8762  1.9907
 4391TIP3   OH234731   0.338   0.732  26.751  0.2977  0.0311  0.9370
 4391TIP3    H134732   0.365   0.733  26.659 -2.1795  0.2333  0.1480
 4391TIP3    H234733   0.361   0.644  26.781  2.2395  0.3519  0.5307
 4392TIP3   OH234734   1.360   0.806  29.498  0.4445 -0.1941 -0.3490
 4392TIP3    H134735   1.443   0.835  29.461 -0.3116  1.9532 -0.5446
 4392TIP3    H234736   1.379   0.790  29.591  1.1894 -0.3271 -0.5156
 4393TIP3   OH234737   1.950   0.802   1.178  0.1144  0.2383 -0.3678
 4393TIP3    H134738   1.951   0.894   1.206  1.9397  0.1244  0.1143
 4393TIP3    H234739   1.864   0.770   1.204  0.2590  1.2160  1.5677
 4394TIP3   OH234740   1.426   3.245   5.033 -0.0993 -0.1047 -0.3327
 4394TIP3    H134741   1.345   3.233   4.984  0.8176 -0.6875 -1.7718
 4394TIP3    H234742   1.420   3.334   5.068 -1.4221 -0.2004 -0.2602
 4395TIP3   OH234743   0.297   2.997   1.182 -0.1087  0.1124 -0.1331
 4395TIP3    H134744   0.358   3.052   1.133 -0.0513  1.9229  1.8309
 4395TIP3    H234745   0.221   2.988   1.124  0.1099  1.8418 -0.7462
 4396TIP3   OH234746   2.818   0.077   1.085 -0.7985 -0.3141 -0.1713
 4396TIP3    H134747   2.908   0.050   1.071 -0.5520  0.2676  0.2221
 4396TIP3    H234748   2.770   0.041   1.011  0.0362  0.6804 -1.2330
 4397TIP3   OH234749   0.481   2.412  30.810  0.3514  0.4307 -0.0852
 4397TIP3    H134750   0.462   2.426  30.903 -0.5099  0.8475 -0.3109
 4397TIP3    H234751   0.575   2.394  30.807  0.4434  0.6968  0.8339
 4398TIP3   OH234752   2.170   0.918  28.928 -0.2179  0.5660  0.2809
 4398TIP3    H134753   2.236   0.849  28.934  0.1942  0.8799 -0.5155
 4398TIP3    H234754   2.167   0.940  28.834 -1.6731  0.3337  0.2390
 4399TIP3   OH234755   2.489   2.073  27.134 -0.6037  0.3841 -0.6521
 4399TIP3    H134756   2.554   2.012  27.170  0.0427  0.3750 -1.7737
 4399TIP3    H234757   2.415   2.069  27.195 -0.5656 -1.4996 -0.6753
 4400TIP3   OH234758   1.316   0.285  13.346  0.4275 -0.3137 -0.3862
 4400TIP3    H134759   1.404   0.321  13.340  0.6844 -1.1325 -1.7258
 4400TIP3    H234760   1.276   0.333  13.419  1.0882  1.9588 -1.4298
 4401TIP3   OH234761   2.224   2.523  27.832 -0.0382 -0.2217 -0.0855
 4401TIP3    H134762   2.314   2.550  27.850 -0.4092  0.9286  0.1651
 4401TIP3    H234763   2.192   2.490  27.916 -0.1100  0.1885  0.0542
 4402TIP3   OH234764   2.237   2.348   5.334 -0.0276 -0.0524 -0.2046
 4402TIP3    H134765   2.231   2.324   5.242 -1.3460  0.1244 -0.1763
 4402TIP3    H234766   2.253   2.443   5.333  1.7993 -0.3216 -0.2557
 4403TIP3   OH234767   3.268   1.485  31.025  0.3081 -0.5145 -0.1216
 4403TIP3    H134768   3.317   1.536  31.089 -0.6576  0.1900  0.0872
 4403TIP3    H234769   3.335   1.448  30.967  1.0788  0.5404  0.0547
 4404TIP3   OH234770   2.737   2.717  31.832 -0.3626  0.0405 -0.0371
 4404TIP3    H134771   2.769   2.668  31.907  3.1042 -0.4816 -1.6199
 4404TIP3    H234772   2.803   2.786  31.819 -0.6008 -0.1102 -2.7227
 4405TIP3   OH234773   0.103   3.520  32.040 -0.0346 -0.2286  0.8371
 4405TIP3    H134774   0.027   3.514  31.981  0.6525  0.5171 -0.1521
 4405TIP3    H234775   0.089   3.450  32.103 -1.3851 -0.3218  0.4794
 4406TIP3   OH234776   0.481   2.511  30.039  0.2635  0.3347 -0.0357
 4406TIP3    H134777   0.549   2.565  30.079 -0.5790  1.8285 -0.5470
 4406TIP3    H234778   0.514   2.422  30.049  2.6087  1.0161 -0.8241
 4407TIP3   OH234779   3.361   0.276   4.021 -0.1295 -0.6712  0.1230
 4407TIP3    H134780   3.322   0.312   3.941  2.0829 -1.1148 -1.2322
 4407TIP3    H234781   3.453   0.302   4.017  0.6234 -2.9114  1.1945
 4408TIP3   OH234782   3.147   1.680  30.147 -0.8367 -0.1816 -0.0150
 4408TIP3    H134783   3.195   1.614  30.198  0.7264  1.3447  0.5909
 4408TIP3    H234784   3.207   1.754  30.142 -0.9910 -0.1297 -3.8988
 4409TIP3   OH234785   2.767   2.546  32.041  0.1470 -0.2027  0.0029
 4409TIP3    H134786   2.682   2.503  32.031  0.0057  0.3936 -1.7399
 4409TIP3    H234787   2.831   2.479  32.017  0.2952 -0.9892  2.3556
 4410TIP3   OH234788   1.931   2.592  12.430 -0.4895 -0.2449  0.7356
 4410TIP3    H134789   1.853   2.542  12.408 -0.7407 -0.0966  1.2665
 4410TIP3    H234790   1.913   2.629  12.517  0.3097 -0.5180  1.0354
 4411TIP3   OH234791   0.937   3.461  12.812  0.0939  0.4052  0.4772
 4411TIP3    H134792   0.898   3.495  12.893  0.2035  1.8190 -0.0417
 4411TIP3    H234793   0.874   3.394  12.783 -1.6186  2.0929  0.0739
 4412TIP3   OH234794   3.219   1.395   3.142  0.1210 -0.0566 -0.0577
 4412TIP3    H134795   3.133   1.383   3.102  0.9465 -0.2612 -1.8480
 4412TIP3    H234796   3.277   1.415   3.069  1.5290  0.5025  1.1730
 4413TIP3   OH234797   2.736   3.184   6.302  0.1144 -0.0003  1.1800
 4413TIP3    H134798   2.752   3.270   6.341  1.7817  0.5803 -0.6263
 4413TIP3    H234799   2.791   3.124   6.352  1.0079  0.4764  0.8087
 4414TIP3   OH234800   0.577   1.616   1.636 -0.0096 -0.2830  0.2447
 4414TIP3    H134801   0.553   1.545   1.576 -0.4703  0.1028 -0.0358
 4414TIP3    H234802   0.665   1.642   1.609 -1.4708  2.2973 -2.6804
 4415TIP3   OH234803   0.067   2.733  29.725  0.0844 -0.3849 -0.2803
 4415TIP3    H134804   0.097   2.670  29.660  1.9706 -0.0622  0.2096
 4415TIP3    H234805   0.104   2.816  29.697  0.5769 -0.1646  0.9388
 4416TIP3   OH234806   1.057   3.375  12.342  0.1595  0.9537  0.5522
 4416TIP3    H134807   1.084   3.305  12.401 -3.3092 -2.0930 -1.0662
 4416TIP3    H234808   0.969   3.399  12.373 -1.7104 -0.6288 -2.9178
 4417TIP3   OH234809   3.089   3.016  32.409  0.1656 -0.2803  0.6173
 4417TIP3    H134810   3.072   3.109  32.425 -1.6358 -0.5166  0.3960
 4417TIP3    H234811   3.021   2.991  32.345  0.3036 -1.8524  1.0501
 4418TIP3   OH234812   0.558   2.639   2.375  0.1970  0.0568 -0.1676
 4418TIP3    H134813   0.505   2.573   2.420  1.2583 -0.0315  1.0116
 4418TIP3    H234814   0.635   2.591   2.344  0.5439  0.5529 -0.0927
 4419TIP3   OH234815   3.532   3.452  30.475 -0.0000  0.1252 -0.3731
 4419TIP3    H134816   3.551   3.364  30.506 -0.6839  0.3032  0.6113
 4419TIP3    H234817   3.549   3.450  30.381  0.4583 -0.9156 -0.2710
 4420TIP3   OH234818   2.769   1.588  28.198  0.5016  0.4631 -0.4454
 4420TIP3    H134819   2.727   1.518  28.148 -1.2606  1.7870 -0.9046
 4420TIP3    H234820   2.832   1.627  28.137  3.4506 -2.2449  0.5843
 4421TIP3   OH234821   2.824   0.010   2.148  0.2969 -0.1682 -0.1736
 4421TIP3    H134822   2.746  -0.039   2.122  0.0059  0.6007 -0.7971
 4421TIP3    H234823   2.879   0.011   2.070  1.4887 -1.6970  0.5909
 4422TIP3   OH234824   1.378   0.850   4.907 -0.3165  0.2162  0.0870
 4422TIP3    H134825   1.289   0.885   4.909  0.1536  1.4741 -0.1080
 4422TIP3    H234826   1.366   0.755   4.910 -1.6179  0.3798  1.3028
 4423TIP3   OH234827   0.978   2.151  20.719 -0.5055 -0.1760  0.1410
 4423TIP3    H134828   0.945   2.095  20.788  0.8387  2.0529  2.7990
 4423TIP3    H234829   0.900   2.192  20.681 -1.2904 -1.7446  0.0151
 4424TIP3   OH234830   3.376   0.127   6.137  0.2050  0.0872 -0.1668
 4424TIP3    H134831   3.348   0.217   6.116 -1.3338 -0.5578 -1.0401
 4424TIP3    H234832   3.319   0.101   6.209 -0.2374 -0.6237 -0.7591
 4425TIP3   OH234833   2.312   3.378   4.238 -0.6564 -0.0038 -0.2734
 4425TIP3    H134834   2.317   3.347   4.147 -2.0664  0.5040 -0.5486
 4425TIP3    H234835   2.328   3.472   4.232  1.0231 -0.2131  0.2533
 4426TIP3   OH234836   2.216   1.351   2.849  0.4338 -0.5380  0.1822
 4426TIP3    H134837   2.187   1.356   2.940 -3.0591  2.0171 -0.8266
 4426TIP3    H234838   2.225   1.443   2.822 -0.0831 -1.1603 -2.3693
 4427TIP3   OH234839   0.485   1.060   3.439  0.0161  0.4076  0.2736
 4427TIP3    H134840   0.398   1.097   3.454 -0.6948 -0.9926 -0.1949
 4427TIP3    H234841   0.489   1.047   3.344  0.8879  0.7987  0.2553
 4428TIP3   OH234842   2.273   1.832  30.179 -0.1289  0.2248 -0.0682
 4428TIP3    H134843   2.367   1.831  30.199 -0.0186  0.9326 -0.4906
 4428TIP3    H234844   2.261   1.760  30.118  0.2535  0.4763 -0.4488
 4429TIP3   OH234845   0.042   2.180  29.646 -0.2056  0.4930  0.8267
 4429TIP3    H134846   0.078   2.115  29.707 -0.1758  1.6975  2.1471
 4429TIP3    H234847   0.005   2.248  29.703 -0.2948  1.6039 -0.5144
 4430TIP3   OH234848   2.195   2.893   5.397 -0.4018  0.5799 -0.0516
 4430TIP3    H134849   2.156   2.938   5.322  0.3466 -0.3599 -1.0290
 4430TIP3    H234850   2.267   2.842   5.360  1.3396  1.6897  1.5777
 4431TIP3   OH234851   0.237   1.586  23.003 -0.6379 -0.1622  0.1008
 4431TIP3    H134852   0.264   1.519  23.066 -0.2224 -0.1746 -0.0873
 4431TIP3    H234853   0.220   1.663  23.056  1.0568  0.2428  0.1034
 4432TIP3   OH234854   1.039   0.000  32.035  0.2787 -0.7608 -0.0859
 4432TIP3    H134855   1.082   0.086  32.033  1.0089 -1.1110  0.2069
 4432TIP3    H234856   1.111  -0.063  32.035 -0.1961 -1.3449  1.2183
 4433TIP3   OH234857   1.091   2.831  28.013  0.3353 -0.1939 -0.4462
 4433TIP3    H134858   1.051   2.797  28.094  1.6102 -3.1268 -0.9199
 4433TIP3    H234859   1.182   2.846  28.036  0.1357  1.5648 -0.6935
 4434TIP3   OH234860   0.073   1.916   3.708 -0.3757  0.0504  0.5240
 4434TIP3    H134861   0.145   1.934   3.648 -1.1607  0.1244 -0.4358
 4434TIP3    H234862   0.107   1.851   3.769  0.0248 -1.1368 -0.9062
 4435TIP3   OH234863   0.976   1.445   3.772  0.0065 -0.0840  1.0917
 4435TIP3    H134864   0.994   1.536   3.747  1.4659 -0.7570 -0.5291
 4435TIP3    H234865   0.903   1.451   3.834 -2.6281  1.9387 -1.8731
 4436TIP3   OH234866   1.221   1.620  32.590  0.1454  0.1200  0.3064
 4436TIP3    H134867   1.206   1.557  32.661 -0.6934 -2.3248 -1.8709
 4436TIP3    H234868   1.246   1.566  32.515  1.2550  2.5936 -1.2339
 4437TIP3   OH234869   2.660   1.701  30.997  0.2042  0.1456  0.2269
 4437TIP3    H134870   2.751   1.694  31.024  0.4920 -2.5500 -1.0905
 4437TIP3    H234871   2.663   1.702  30.902 -1.1463 -1.3245  0.1279
 4438TIP3   OH234872   0.116   1.563   0.974  0.0499 -0.4893  0.6534
 4438TIP3    H134873   0.042   1.552   1.034 -0.6179 -0.4411 -0.1458
 4438TIP3    H234874   0.085   1.525   0.892  0.3610  0.8843 -0.1191
 4439TIP3   OH234875   0.355   0.108  30.176 -0.2450 -0.4854  0.0891
 4439TIP3    H134876   0.388   0.018  30.180 -1.7262 -1.0573  0.4486
 4439TIP3    H234877   0.319   0.124  30.263  0.3047  0.5989  0.1385
 4440TIP3   OH234878   0.561   1.182   2.069 -0.2766 -0.3583 -0.4741
 4440TIP3    H134879   0.539   1.096   2.105  1.4531 -0.2911  0.8474
 4440TIP3    H234880   0.620   1.221   2.132  0.1525  1.2253 -1.7675
 4441TIP3   OH234881   3.379   1.242   2.077  0.3141  0.0549  0.2311
 4441TIP3    H134882   3.444   1.210   2.139 -0.0133 -0.3287  0.3853
 4441TIP3    H234883   3.317   1.292   2.130 -1.1621 -2.0502  0.6103
 4442TIP3   OH234884   2.955   0.162  30.805 -0.7854  0.2401  0.0925
 4442TIP3    H134885   2.888   0.172  30.873 -0.3739 -0.2135  0.5705
 4442TIP3    H234886   3.036   0.145  30.853 -0.6583 -1.0402 -0.5257
 4443TIP3   OH234887   3.346   2.966  28.425 -0.6281 -0.0720  0.1309
 4443TIP3    H134888   3.419   2.999  28.477 -1.4489  0.9311  0.6731
 4443TIP3    H234889   3.388   2.925  28.349  0.5123  0.0238  0.6839
 4444TIP3   OH234890   2.722   1.682  26.190 -0.1760 -0.1500 -0.6343
 4444TIP3    H134891   2.751   1.773  26.187 -0.6106  0.2553  2.7647
 4444TIP3    H234892   2.630   1.686  26.218 -0.1898 -1.6254 -0.3419
 4445TIP3   OH234893   0.800   1.984  23.604  0.0540  0.4657 -0.1230
 4445TIP3    H134894   0.857   2.015  23.534  1.6984 -0.9913  0.5014
 4445TIP3    H234895   0.769   1.898  23.575 -2.6324  1.5570 -0.8409
 4446TIP3   OH234896   1.813   2.185  28.200 -0.1627 -0.0632  0.7499
 4446TIP3    H134897   1.784   2.140  28.279 -2.1234  0.8669  0.6170
 4446TIP3    H234898   1.871   2.122  28.156 -1.8448 -2.0045  1.1583
 4447TIP3   OH234899   2.465   1.198   1.259 -0.4117  0.3418  0.0020
 4447TIP3    H134900   2.381   1.163   1.226 -0.1132  0.2976 -0.7267
 4447TIP3    H234901   2.497   1.254   1.189  0.4363 -0.0740  0.0385
 4448TIP3   OH234902   2.493   2.075   2.267  0.1047 -0.0162  0.3509
 4448TIP3    H134903   2.476   2.143   2.202  0.3433  2.3886  2.6170
 4448TIP3    H234904   2.583   2.047   2.249 -0.3005 -0.4075 -1.1684
 4449TIP3   OH234905   1.798   3.522  12.794 -0.3852 -0.2321  0.8676
 4449TIP3    H134906   1.869   3.459  12.808 -0.2223 -0.3446 -0.3146
 4449TIP3    H234907   1.783   3.519  12.700 -0.3145  1.5599  0.7689
 4450TIP3   OH234908   0.680   2.046  20.181  0.0198  0.6392 -0.5366
 4450TIP3    H134909   0.627   2.076  20.254  1.8770  1.2922  0.6123
 4450TIP3    H234910   0.667   1.951  20.179 -0.9328  0.7529 -0.0899
 4451TIP3   OH234911   0.388   1.107   0.669 -0.6046  0.1354  0.0248
 4451TIP3    H134912   0.326   1.036   0.649 -1.6842  0.7526  1.0411
 4451TIP3    H234913   0.411   1.143   0.583 -3.5670  1.4284 -0.3645
 4452TIP3   OH234914   2.698   2.147   6.715  0.7116  0.0285  0.0698
 4452TIP3    H134915   2.782   2.187   6.697  1.6816 -1.1823  1.6549
 4452TIP3    H234916   2.682   2.165   6.807 -1.8781  2.1229 -0.6483
 4453TIP3   OH234917   1.751   0.367  28.908 -0.2795 -0.2570  0.1716
 4453TIP3    H134918   1.663   0.404  28.902 -0.1854 -0.1560 -0.8313
 4453TIP3    H234919   1.803   0.433  28.954 -0.0953  0.9295 -1.6312
 4454TIP3   OH234920   3.042   1.749  29.712  0.1591 -0.5874 -0.7964
 4454TIP3    H134921   2.986   1.769  29.787  0.9127 -3.5295  0.7207
 4454TIP3    H234922   2.998   1.676  29.668  1.2028 -0.8246 -1.4839
 4455TIP3   OH234923   1.638   0.100  28.269 -0.1075  0.0265 -0.3074
 4455TIP3    H134924   1.572   0.141  28.325 -0.9874  0.9905 -1.9940
 4455TIP3    H234925   1.672   0.028  28.322 -1.0360  0.7692  1.3900
 4456TIP3   OH234926   2.743   0.639  26.534 -0.8161 -0.5877  0.5150
 4456TIP3    H134927   2.772   0.609  26.620  1.7316  1.2178  0.4015
 4456TIP3    H234928   2.781   0.577  26.472  1.6833  0.8491  0.4761
 4457TIP3   OH234929   1.714   3.327   7.544 -0.2360 -0.1596  0.0222
 4457TIP3    H134930   1.723   3.365   7.457  2.0954  1.2412  0.7674
 4457TIP3    H234931   1.777   3.254   7.544 -0.7029 -0.5663  0.3343
 4458TIP3   OH234932   2.105   0.741   6.543  0.3701  0.3463 -0.4208
 4458TIP3    H134933   2.153   0.823   6.532 -0.0055  0.4635 -1.2803
 4458TIP3    H234934   2.116   0.719   6.635  1.1247  0.9564 -0.3536
 4459TIP3   OH234935   0.370   0.056  26.947 -0.3082  0.1012  0.5209
 4459TIP3    H134936   0.307  -0.012  26.970  1.0576 -1.8627 -1.2006
 4459TIP3    H234937   0.350   0.077  26.855  2.5136 -1.9209 -0.7205
 4460TIP3   OH234938   0.494   1.608   6.693  0.3335 -0.0441 -0.9655
 4460TIP3    H134939   0.558   1.643   6.631 -0.0453  0.1759 -1.2367
 4460TIP3    H234940   0.453   1.535   6.646  0.4382 -0.2322 -0.7640
 4461TIP3   OH234941   0.077   0.027  25.929  0.5843 -0.1937 -0.0528
 4461TIP3    H134942   0.154  -0.025  25.951  0.8942 -0.8287 -2.3982
 4461TIP3    H234943   0.106   0.118  25.939  0.5654 -0.3953  2.3609
 4462TIP3   OH234944   0.947   3.542  27.075 -0.1563 -0.1079 -0.9827
 4462TIP3    H134945   0.878   3.608  27.084 -0.4431 -0.5351  0.0824
 4462TIP3    H234946   0.942   3.514  26.984 -1.1414  0.1550 -1.0188
 4463TIP3   OH234947   2.643   2.424  28.342  0.1978 -0.2004 -0.3729
 4463TIP3    H134948   2.593   2.483  28.286 -0.9310 -1.7126 -1.0536
 4463TIP3    H234949   2.595   2.422  28.425  0.3836  0.0362 -0.2594
 4464TIP3   OH234950   1.979   2.975  10.571 -0.2627  0.0520  0.0533
 4464TIP3    H134951   2.020   3.044  10.623 -0.0792 -0.4576  0.5975
 4464TIP3    H234952   2.052   2.931  10.527 -0.2743 -0.4130  0.4809
 4465TIP3   OH234953   1.645   3.383   5.717 -0.3248 -0.0405  0.5229
 4465TIP3    H134954   1.730   3.339   5.722 -0.6791 -0.6730  1.1329
 4465TIP3    H234955   1.618   3.372   5.626  0.6572  0.9666  0.0901
 4466TIP3   OH234956   2.229   2.117  18.012  0.4194  0.4957  0.3683
 4466TIP3    H134957   2.266   2.032  18.039 -0.9464  0.0033  0.7650
 4466TIP3    H234958   2.259   2.128  17.922 -0.0603 -0.8386  0.0166
 4467TIP3   OH234959   2.816   0.713  28.500  0.3906  0.0287  0.2606
 4467TIP3    H134960   2.909   0.731  28.514  0.2192  1.0619  0.1620
 4467TIP3    H234961   2.807   0.619  28.511  1.1324  0.1400  2.1560
 4468TIP3   OH234962   1.289   0.553   2.378 -0.3420 -0.0478  0.0498
 4468TIP3    H134963   1.317   0.461   2.385 -1.8781 -0.4614  1.6376
 4468TIP3    H234964   1.197   0.547   2.350  0.3494  1.1726 -2.8519
 4469TIP3   OH234965   1.685   1.145  20.086  0.4316 -0.0825 -0.2183
 4469TIP3    H134966   1.675   1.236  20.060  1.4422  0.6438  1.7348
 4469TIP3    H234967   1.758   1.113  20.034  0.4175  0.3777 -0.5284
 4470TIP3   OH234968   3.262   1.315   1.796 -0.0251  0.7454  0.2566
 4470TIP3    H134969   3.192   1.379   1.811 -0.6534 -0.1914  1.5823
 4470TIP3    H234970   3.244   1.245   1.860  0.5369 -0.8232 -1.2293
 4471TIP3   OH234971   0.320   1.746   0.847 -0.7559 -0.6567  0.7942
 4471TIP3    H134972   0.244   1.698   0.877 -1.0065 -1.0876 -0.4561
 4471TIP3    H234973   0.289   1.836   0.835 -0.8694 -0.6681  1.0040
 4472TIP3   OH234974   1.047   1.586   4.351  0.1089 -0.4644 -0.2065
 4472TIP3    H134975   1.075   1.536   4.275  0.5434 -1.4157  0.5612
 4472TIP3    H234976   1.088   1.542   4.425 -0.6986  0.1519  0.6247
 4473TIP3   OH234977   1.273   1.187   2.294 -0.4321  0.1885 -0.6585
 4473TIP3    H134978   1.189   1.163   2.255  0.3513  0.5629 -2.6671
 4473TIP3    H234979   1.290   1.117   2.358 -2.5597  0.4687  0.3308
 4474TIP3   OH234980   2.452   3.296  31.698 -0.5026 -0.0519 -0.3778
 4474TIP3    H134981   2.395   3.223  31.718 -3.9370  2.0495 -1.6515
 4474TIP3    H234982   2.426   3.365  31.758  0.4278  1.1157 -1.2591
 4475TIP3   OH234983   1.982   0.475   2.310  0.0720  0.0189  0.1905
 4475TIP3    H134984   1.952   0.514   2.228  0.3576 -1.4852 -0.6529
 4475TIP3    H234985   1.912   0.494   2.372 -0.8235 -0.0585 -0.7641
 4476TIP3   OH234986   1.684   2.376  31.952 -0.3787  0.6636  0.2804
 4476TIP3    H134987   1.762   2.365  31.898 -0.4834  0.1369  0.2344
 4476TIP3    H234988   1.640   2.292  31.948 -0.2591  0.5353  1.3946
 4477TIP3   OH234989   0.092   0.170  30.060  1.2378  0.8241  0.5340
 4477TIP3    H134990   0.054   0.122  29.986  0.2175  0.7701  1.0761
 4477TIP3    H234991   0.152   0.108  30.101  1.4010  0.6755  0.0754
 4478TIP3   OH234992   1.171   2.551  11.404 -0.4207 -0.1239  0.2799
 4478TIP3    H134993   1.246   2.516  11.451 -0.0799 -1.5495 -1.2442
 4478TIP3    H234994   1.182   2.521  11.314 -1.2596  2.1675 -0.6645
 4479TIP3   OH234995   3.520   1.308   6.712 -0.5303  0.3121 -0.0551
 4479TIP3    H134996   3.548   1.335   6.624  0.2473 -1.4823 -0.3991
 4479TIP3    H234997   3.472   1.227   6.698  1.4434 -1.1885  1.3339
 4480TIP3   OH234998   0.869   3.012   2.920 -0.0644  0.1910 -0.3319
 4480TIP3    H134999   0.798   3.058   2.874 -1.7326 -1.5152  0.4038
 4480TIP3    H235000   0.906   2.953   2.854  1.4201  1.7814 -0.9990
 4481TIP3   OH235001   1.615   2.178   5.960 -0.0122 -0.0459 -0.2003
 4481TIP3    H135002   1.649   2.124   6.031 -1.4241 -1.7393 -0.7401
 4481TIP3    H235003   1.529   2.207   5.990 -0.0308  0.3841 -0.6530
 4482TIP3   OH235004   0.443   2.715  25.976  0.0378 -0.0436 -0.0048
 4482TIP3    H135005   0.469   2.632  25.935 -0.5994  0.2185 -0.9489
 4482TIP3    H235006   0.525   2.750  26.011  0.8519  0.2977 -2.1045
 4483TIP3   OH235007   2.879   2.071  27.731 -0.7646  0.1283  0.2808
 4483TIP3    H135008   2.831   2.146  27.765 -0.6190  0.6449 -0.6148
 4483TIP3    H235009   2.906   2.098  27.643  2.5192  0.5305  1.2480
 4484TIP3   OH235010   3.226   0.365   4.243 -0.2174 -0.1536  0.6672
 4484TIP3    H135011   3.281   0.365   4.165  0.2584  1.1268  0.9738
 4484TIP3    H235012   3.217   0.272   4.266  0.0368 -0.5137 -0.6181
 4485TIP3   OH235013   2.339   1.609   5.226  0.4403  0.3630 -0.0887
 4485TIP3    H135014   2.427   1.571   5.228  0.2968 -0.0262 -0.8712
 4485TIP3    H235015   2.351   1.696   5.190  0.3474 -0.2006 -1.5664
 4486TIP3   OH235016   1.466   3.377   7.897  0.0547  0.3273 -0.2016
 4486TIP3    H135017   1.446   3.381   7.991 -1.7849 -0.2306 -0.5305
 4486TIP3    H235018   1.380   3.370   7.855  0.9435 -2.3884 -1.7732
 4487TIP3   OH235019   2.953   2.041   3.393  0.2297  0.0732 -0.6674
 4487TIP3    H135020   2.929   2.113   3.334 -0.7406  1.7591  1.6088
 4487TIP3    H235021   2.875   1.986   3.396  0.0143  0.3850 -0.4358
 4488TIP3   OH235022   1.042   1.124   2.760 -0.0344 -0.2529  0.4384
 4488TIP3    H135023   1.040   1.191   2.828 -0.3223 -0.3720  0.5488
 4488TIP3    H235024   1.136   1.105   2.748 -0.0210 -1.1559  1.7226
 4489TIP3   OH235025   0.005   0.846   3.344 -0.0872 -0.0560  0.0104
 4489TIP3    H135026   0.091   0.825   3.307 -0.2888  1.4209 -1.4208
 4489TIP3    H235027  -0.003   0.789   3.420  2.4676  0.2721  0.6223
 4490TIP3   OH235028   1.247   1.821   4.452 -0.5998 -0.2882  0.1837
 4490TIP3    H135029   1.340   1.844   4.444 -1.0150  1.0912 -1.1314
 4490TIP3    H235030   1.238   1.743   4.396 -0.2067 -0.5580  0.4857
 4491TIP3   OH235031   0.865   3.343  28.954  0.4411  0.3569 -0.3065
 4491TIP3    H135032   0.907   3.407  28.897  2.1600 -0.9416 -0.5871
 4491TIP3    H235033   0.889   3.371  29.043 -1.9414  2.1737 -0.1434
 4492TIP3   OH235034   2.467   2.534  22.263  0.1107 -0.4395  0.2076
 4492TIP3    H135035   2.389   2.480  22.275  0.0878 -0.0525  2.3323
 4492TIP3    H235036   2.535   2.488  22.312  0.5070  0.5853  0.6497
 4493TIP3   OH235037   1.764   1.497  30.741  0.2002 -0.2563 -0.2754
 4493TIP3    H135038   1.772   1.540  30.827 -0.0439 -0.8777  0.0640
 4493TIP3    H235039   1.790   1.565  30.678 -0.6691  0.5629  0.2119
 4494TIP3   OH235040   2.467   3.354  13.655 -0.2656  0.1506  0.7039
 4494TIP3    H135041   2.526   3.280  13.644  1.5468  1.5938  0.1714
 4494TIP3    H235042   2.413   3.330  13.730  1.4526 -0.9698  1.6572
 4495TIP3   OH235043   2.014   1.952  28.464  0.3599 -0.4770 -0.0665
 4495TIP3    H135044   2.006   1.905  28.547  1.1742 -0.3984  0.0685
 4495TIP3    H235045   1.933   2.003  28.458  0.7749  0.3951  1.2509
 4496TIP3   OH235046   0.224   1.046  30.268 -0.0190 -0.5080  0.5952
 4496TIP3    H135047   0.317   1.046  30.245 -0.7655 -2.8489 -3.5154
 4496TIP3    H235048   0.200   0.953  30.271 -2.3540  0.0306  0.7205
 4497TIP3   OH235049   1.065   2.596  28.864 -0.0078 -0.2354  0.0804
 4497TIP3    H135050   1.073   2.668  28.801 -0.5081  0.5881  0.9341
 4497TIP3    H235051   1.091   2.518  28.814  1.6002  0.6618 -0.5593
 4498TIP3   OH235052   1.147   2.781   1.401 -0.2022  0.9323  0.0875
 4498TIP3    H135053   1.060   2.820   1.409 -1.0513 -0.7372 -0.4709
 4498TIP3    H235054   1.159   2.769   1.306 -0.4148 -0.9758  0.2491
 4499TIP3   OH235055   0.929   1.325   3.001 -0.3675  0.1642 -0.5681
 4499TIP3    H135056   0.840   1.354   3.021  0.1924  1.4937  0.1046
 4499TIP3    H235057   0.960   1.387   2.935  0.6497  0.7969  0.4702
 4500TIP3   OH235058   1.759   0.079  30.963 -0.2076  0.1033  0.2002
 4500TIP3    H135059   1.825   0.062  31.030 -2.1212  0.6276  2.3191
 4500TIP3    H235060   1.703   0.002  30.963 -2.1491  1.4253  1.6505
 4501TIP3   OH235061   3.094   2.874   6.038  0.5613  0.2936  0.3664
 4501TIP3    H135062   3.135   2.813   6.099 -0.3110  0.9210  1.6261
 4501TIP3    H235063   3.163   2.939   6.020  0.7074  0.3394  1.0420
 4502TIP3   OH235064   1.313   0.779   6.671  0.0571 -0.1084  0.4060
 4502TIP3    H135065   1.329   0.783   6.577  0.8567  0.5959  0.5489
 4502TIP3    H235066   1.325   0.870   6.701 -0.6186 -0.2424  1.1188
 4503TIP3   OH235067   1.962   1.664   0.628 -0.2849 -0.1249 -0.1304
 4503TIP3    H135068   1.893   1.664   0.695  0.0484  1.2280  0.2460
 4503TIP3    H235069   1.994   1.575   0.627 -1.5253 -0.6035  0.2277
 4504TIP3   OH235070   0.607   1.983  18.914  0.0961  0.1962  0.1139
 4504TIP3    H135071   0.636   2.030  18.835 -0.4537 -0.5918 -0.5759
 4504TIP3    H235072   0.686   1.939  18.945 -0.0410 -1.0064 -1.1030
 4505TIP3   OH235073   0.844   1.690  28.918 -0.5587 -0.5954 -0.4240
 4505TIP3    H135074   0.840   1.646  29.003 -0.8671 -0.9424 -0.6141
 4505TIP3    H235075   0.886   1.774  28.936  0.6947 -1.2478 -0.1719
 4506TIP3   OH235076   1.154   0.172  26.944  0.1659 -0.7519  0.1288
 4506TIP3    H135077   1.098   0.155  26.868  0.7709 -0.4776 -0.3942
 4506TIP3    H235078   1.107   0.135  27.018 -0.2806 -1.3265 -0.4351
 4507TIP3   OH235079   2.208   0.778   6.017 -0.7086 -0.3152  0.2804
 4507TIP3    H135080   2.135   0.818   6.065 -0.0227 -0.7495  1.7526
 4507TIP3    H235081   2.245   0.850   5.966  0.4032  1.0196  2.7649
 4508TIP3   OH235082   2.692   3.457  30.781 -0.4969 -0.3691  0.4263
 4508TIP3    H135083   2.710   3.494  30.695  0.4131 -0.5025  0.5563
 4508TIP3    H235084   2.773   3.414  30.807 -0.9344 -0.7991  1.1203
 4509TIP3   OH235085   3.347   3.153   0.710  0.7406 -0.2484 -0.0508
 4509TIP3    H135086   3.301   3.204   0.643  0.3898  0.5084  0.7467
 4509TIP3    H235087   3.278   3.121   0.767  1.1349  0.3352  0.7717
 4510TIP3   OH235088   2.473   3.290  30.772 -0.3797 -0.7242 -0.0469
 4510TIP3    H135089   2.502   3.226  30.838 -0.7151 -1.1676 -0.3300
 4510TIP3    H235090   2.553   3.339  30.751  0.2992 -2.2461 -1.1664
 4511TIP3   OH235091   2.768   0.645   0.354  0.4091 -0.4566 -0.0104
 4511TIP3    H135092   2.800   0.720   0.303 -0.7132 -0.5783 -0.9240
 4511TIP3    H235093   2.729   0.684   0.432  0.8401 -0.1716  0.0675
 4512TIP3   OH235094   2.623   2.695   5.235  0.4831  0.0347 -0.3289
 4512TIP3    H135095   2.595   2.764   5.176 -0.4826  2.0224  2.2770
 4512TIP3    H235096   2.689   2.736   5.291 -0.2685 -1.0136  1.4303
 4513TIP3   OH235097   3.164   1.088  32.557 -0.3204  0.3228  0.3162
 4513TIP3    H135098   3.247   1.045  32.579  0.9628  2.5836  0.2190
 4513TIP3    H235099   3.100   1.017  32.554  2.1548 -2.1084 -2.8190
 4514TIP3   OH235100   2.241   2.327   0.699 -0.2239 -0.1559  0.4362
 4514TIP3    H135101   2.224   2.238   0.731 -2.0164  0.7623  2.2994
 4514TIP3    H235102   2.177   2.381   0.745  3.3565  2.7621  2.5385
 4515TIP3   OH235103   0.079   0.198  26.865  0.0368 -0.6605  0.5927
 4515TIP3    H135104   0.071   0.290  26.839 -1.1061 -1.1395 -0.8480
 4515TIP3    H235105  -0.010   0.172  26.888  0.0103 -1.9129 -0.8393
 4516TIP3   OH235106   1.582   2.726  14.014  0.1254  0.4059  0.4238
 4516TIP3    H135107   1.609   2.642  14.052 -0.4346  0.2886  0.5778
 4516TIP3    H235108   1.554   2.704  13.925 -1.7325  0.1042  1.0385
 4517TIP3   OH235109   1.570   0.872  29.338 -0.0250  0.0812 -0.5535
 4517TIP3    H135110   1.607   0.885  29.425 -1.1558  0.7501 -0.1509
 4517TIP3    H235111   1.624   0.926  29.280  0.6146 -0.2166 -0.2439
 4518TIP3   OH235112   1.199   3.320  12.806 -0.0551 -0.5067 -0.2072
 4518TIP3    H135113   1.239   3.287  12.888  0.2435 -1.4071 -0.6972
 4518TIP3    H235114   1.105   3.319  12.823  0.0312  3.0065  1.4935
 4519TIP3   OH235115   2.478   1.787  29.289 -0.5238 -0.3593  0.3951
 4519TIP3    H135116   2.464   1.702  29.332  0.9361  0.1086  1.9134
 4519TIP3    H235117   2.414   1.845  29.330 -0.6994 -0.4444  0.2428
 4520TIP3   OH235118   2.973   3.052  28.761  0.5209  0.7928  0.0599
 4520TIP3    H135119   3.022   3.023  28.838 -0.4499 -1.5238 -0.1245
 4520TIP3    H235120   2.967   2.975  28.705 -2.4740  1.2099 -0.3809
 4521TIP3   OH235121   1.966   2.001   0.939 -0.0571  0.4179 -0.0741
 4521TIP3    H135122   1.941   2.087   0.974 -0.5572 -0.4924  1.9827
 4521TIP3    H235123   1.892   1.944   0.960 -0.3345 -0.2840 -2.6321
 4522TIP3   OH235124   1.133   3.415  27.696 -0.2616 -0.8547 -0.3125
 4522TIP3    H135125   1.056   3.456  27.656 -0.7334 -0.8366  0.6001
 4522TIP3    H235126   1.101   3.377  27.778  0.3042 -2.4614 -0.7803
 4523TIP3   OH235127   1.460   1.072   4.746 -0.4795 -0.1451  0.9070
 4523TIP3    H135128   1.477   0.980   4.726 -1.4114  0.0067 -0.7356
 4523TIP3    H235129   1.519   1.120   4.688  0.7584  0.3349  2.4793
 4524TIP3   OH235130   3.330   2.683   3.734 -0.0968 -0.0505  0.1590
 4524TIP3    H135131   3.404   2.698   3.793  0.2162  0.3991 -0.3537
 4524TIP3    H235132   3.362   2.617   3.673  0.4690  1.3492 -1.1030
 4525TIP3   OH235133   0.528   2.299   6.243 -0.0252 -0.1904 -0.0458
 4525TIP3    H135134   0.615   2.338   6.229 -0.4884  0.2309 -2.1137
 4525TIP3    H235135   0.536   2.210   6.208 -0.2860 -0.3369  0.2637
 4526TIP3   OH235136   2.514   3.102  14.421  0.6695 -0.3563 -0.6813
 4526TIP3    H135137   2.420   3.121  14.420  0.6178 -0.6139 -0.7648
 4526TIP3    H235138   2.556   3.188  14.412  0.4652 -0.0286  0.9874
 4527TIP3   OH235139   0.825   3.089  28.548 -0.9616  0.3890  0.7067
 4527TIP3    H135140   0.802   3.006  28.588 -0.3072 -0.7646 -1.1910
 4527TIP3    H235141   0.812   3.154  28.618 -0.8537 -1.3537  2.4192
 4528TIP3   OH235142   1.645   2.615  26.449 -0.0133 -0.5257 -0.0114
 4528TIP3    H135143   1.607   2.647  26.367  1.5981  2.0429  0.1250
 4528TIP3    H235144   1.570   2.595  26.504 -1.1966  1.8176 -0.6548
 4529TIP3   OH235145   0.881   2.834  12.818  0.1242 -0.2738  0.3461
 4529TIP3    H135146   0.794   2.811  12.785  0.7764 -1.6065 -0.5083
 4529TIP3    H235147   0.873   2.825  12.913 -0.9341  0.6071  0.3554
 4530TIP3   OH235148   0.792   1.722   4.394  0.0076  0.0358  0.0471
 4530TIP3    H135149   0.816   1.725   4.486 -0.3334 -0.4585  0.1554
 4530TIP3    H235150   0.860   1.667   4.354 -1.2703 -1.9501  0.4762
 4531TIP3   OH235151   1.919   2.983   3.041  0.6510  0.1444  0.1795
 4531TIP3    H135152   1.831   2.961   3.072 -0.0798  1.5551 -0.8003
 4531TIP3    H235153   1.976   2.917   3.081 -1.2999 -3.4214 -2.3463
 4532TIP3   OH235154   1.371   0.644  27.404 -0.7084 -0.0857 -0.0683
 4532TIP3    H135155   1.435   0.640  27.333  0.0282  0.7038  0.5362
 4532TIP3    H235156   1.293   0.683  27.364  0.2594  1.9586 -0.0797
 4533TIP3   OH235157   3.217   1.549   3.608  0.3150 -0.3945  0.3734
 4533TIP3    H135158   3.249   1.495   3.681 -0.4761  0.2241  1.2106
 4533TIP3    H235159   3.286   1.613   3.593  1.6325 -2.0872 -1.1780
 4534TIP3   OH235160   2.159   2.518  10.289  0.3411  0.0736  0.2195
 4534TIP3    H135161   2.178   2.579  10.360  1.0152 -0.4255  0.4793
 4534TIP3    H235162   2.094   2.458  10.326 -0.1452  0.4739  0.0394
 4535TIP3   OH235163   0.673   3.442   2.520 -0.0872  0.2466  0.0534
 4535TIP3    H135164   0.591   3.419   2.563 -0.2197 -2.4130 -1.3663
 4535TIP3    H235165   0.737   3.445   2.590 -1.2601  1.9005  1.1300
 4536TIP3   OH235166   2.731   1.663   5.173  0.2713 -0.2055 -0.8221
 4536TIP3    H135167   2.672   1.600   5.213  2.0149 -1.2235  0.2726
 4536TIP3    H235168   2.698   1.748   5.201 -1.4114 -0.6580 -1.3309
 4537TIP3   OH235169   0.674   1.216  30.610 -0.6880 -0.7751  0.4299
 4537TIP3    H135170   0.718   1.197  30.527 -0.7859 -0.7206  0.3650
 4537TIP3    H235171   0.742   1.253  30.666 -0.2750 -2.1619  0.8705
 4538TIP3   OH235172   3.453   3.378  31.068  0.4237  0.2203 -0.3859
 4538TIP3    H135173   3.520   3.347  31.130  0.7487  0.9816 -0.3478
 4538TIP3    H235174   3.385   3.416  31.124  0.2640  0.0386 -0.4559
 4539TIP3   OH235175   3.440   0.152   0.628  0.1611  0.3992 -0.3878
 4539TIP3    H135176   3.398   0.077   0.670  2.4100 -0.0592  1.2232
 4539TIP3    H235177   3.439   0.130   0.535  0.5865 -1.5889  0.0138
 4540TIP3   OH235178   3.091   2.651  22.786 -1.0235 -0.3784 -0.2742
 4540TIP3    H135179   3.041   2.711  22.841  1.1785 -0.7826  2.3805
 4540TIP3    H235180   3.142   2.707  22.727 -1.0239  0.2239  0.2948
 4541TIP3   OH235181   2.688   2.861  29.859 -0.3820  0.1631  0.2208
 4541TIP3    H135182   2.734   2.945  29.860  0.8696 -0.5056  0.1333
 4541TIP3    H235183   2.632   2.865  29.782  0.5859  0.4411 -0.4806
 4542TIP3   OH235184   2.126   0.092  31.944 -0.0520  0.4128 -0.1357
 4542TIP3    H135185   2.201   0.043  31.911 -0.6279 -0.6653  0.1165
 4542TIP3    H235186   2.154   0.184  31.942  1.7104 -0.0500  1.0675
 4543TIP3   OH235187   0.503   1.035   1.373  0.2006 -0.3636  0.6225
 4543TIP3    H135188   0.579   1.077   1.332 -0.8515 -1.0188 -2.2443
 4543TIP3    H235189   0.433   1.101   1.367 -0.5324 -1.2131 -0.7126
 4544TIP3   OH235190   0.696   0.071   1.240 -0.3647  0.8580 -0.1638
 4544TIP3    H135191   0.710   0.014   1.164  0.0191  2.8674 -1.6798
 4544TIP3    H235192   0.603   0.061   1.260 -0.2570 -0.4725 -0.2261
 4545TIP3   OH235193   0.967   3.129   1.189  0.4222 -0.0352  0.2005
 4545TIP3    H135194   0.914   3.083   1.124  0.0008  0.2073  0.3645
 4545TIP3    H235195   0.905   3.188   1.233  0.7112 -0.1636  0.7889
 4546TIP3   OH235196   0.892   3.514   0.451  0.3425  0.0144 -0.4596
 4546TIP3    H135197   0.841   3.442   0.488  0.0585  0.9214  0.9611
 4546TIP3    H235198   0.983   3.486   0.461  0.2558  0.1040  0.6676
 4547TIP3   OH235199   1.429   2.003   6.692  0.0121  0.7899 -0.6302
 4547TIP3    H135200   1.476   1.932   6.650 -0.4392 -0.6225  1.1477
 4547TIP3    H235201   1.387   1.963   6.768 -0.8023  2.8201  0.0620
 4548TIP3   OH235202   0.675   3.473   0.686  0.1119 -0.1229  0.1191
 4548TIP3    H135203   0.764   3.508   0.686  0.6537 -1.3668 -1.3017
 4548TIP3    H235204   0.620   3.545   0.655  0.7633  0.3521  0.0577
 4549TIP3   OH235205   0.180   1.364   0.186 -0.1152 -0.3584 -0.3302
 4549TIP3    H135206   0.095   1.408   0.186 -0.2259 -0.5676 -0.7549
 4549TIP3    H235207   0.164   1.281   0.142  0.4207 -0.1851 -0.8756
 4550TIP3   OH235208   1.769   0.347  28.195  0.0918 -0.0847  0.0417
 4550TIP3    H135209   1.734   0.264  28.226  0.4165  0.2546  1.3480
 4550TIP3    H235210   1.724   0.413  28.248 -0.2739  0.6068 -1.0763
 4551TIP3   OH235211   0.281   2.048   6.262 -0.5311 -0.0967 -0.0795
 4551TIP3    H135212   0.355   2.069   6.205 -1.1201 -0.9380 -1.2092
 4551TIP3    H235213   0.281   1.952   6.266  0.8176 -0.0607  3.1679
 4552TIP3   OH235214   1.522   0.562  32.826  0.3629  0.3867 -0.1952
 4552TIP3    H135215   1.573   0.498  32.877  0.0768  0.8593  0.7088
 4552TIP3    H235216   1.563   0.646  32.846  0.9416  0.4749 -1.6341
 4553TIP3   OH235217   1.010   0.654  11.524  0.8958 -0.2288 -0.1524
 4553TIP3    H135218   1.062   0.696  11.593  0.7169 -0.2377 -0.0109
 4553TIP3    H235219   0.986   0.568  11.561 -2.1978  1.0910  1.2451
 4554TIP3   OH235220   0.988   0.262   0.081  0.3557 -0.0171 -0.8196
 4554TIP3    H135221   1.083   0.265   0.098  0.4424 -0.3075 -1.2461
 4554TIP3    H235222   0.955   0.194   0.139  0.7903 -1.6552 -2.4189
 4555TIP3   OH235223   3.528   0.579  27.656  0.0442  0.6645  0.4216
 4555TIP3    H135224   3.449   0.524  27.658  0.2798  0.2423 -0.7031
 4555TIP3    H235225   3.503   0.655  27.604  0.4061  0.4708 -0.0438
 4556TIP3   OH235226   1.284   3.036   6.118 -0.2833 -0.0036  0.3397
 4556TIP3    H135227   1.229   2.973   6.073  0.4890 -0.7938  0.4804
 4556TIP3    H235228   1.223   3.095   6.162 -1.0251 -0.0186 -0.6391
 4557TIP3   OH235229   0.346   0.251   3.860 -0.3099  0.1235  0.0098
 4557TIP3    H135230   0.436   0.223   3.878 -0.6046 -0.6471  0.3418
 4557TIP3    H235231   0.298   0.170   3.847 -0.4873  0.5596 -2.6835
 4558TIP3   OH235232   2.274   1.242  27.349 -0.3124 -0.3554  0.2726
 4558TIP3    H135233   2.204   1.223  27.412  0.5970 -1.7281  0.9078
 4558TIP3    H235234   2.343   1.282  27.401 -1.0666  2.3519 -0.5805
 4559TIP3   OH235235   2.176   1.260   4.866 -0.2174  0.0462 -0.0422
 4559TIP3    H135236   2.133   1.344   4.882  0.6529  0.5884 -0.4571
 4559TIP3    H235237   2.141   1.202   4.933 -0.1763  0.9725  0.7969
 4560TIP3   OH235238   3.187   2.799   5.284  0.5850  0.3994  0.1977
 4560TIP3    H135239   3.147   2.885   5.270 -0.2505  0.1802  1.1380
 4560TIP3    H235240   3.274   2.806   5.243  0.3062  1.4956 -0.2366
 4561TIP3   OH235241   1.264   1.975   4.969 -0.2061 -0.0770 -0.0531
 4561TIP3    H135242   1.265   2.045   4.904  1.1900  0.8766  0.9287
 4561TIP3    H235243   1.187   1.993   5.022 -1.2605 -0.7662 -1.2922
 4562TIP3   OH235244   3.258   0.566  30.210  0.5370  0.5510  0.3616
 4562TIP3    H135245   3.273   0.491  30.152 -0.7122 -0.6402  1.5208
 4562TIP3    H235246   3.167   0.591  30.194 -0.4110 -0.8810  2.9269
 4563TIP3   OH235247   2.693   0.632  30.245 -0.3000 -0.2404  0.4036
 4563TIP3    H135248   2.669   0.700  30.308 -0.6625 -1.0359  1.1410
 4563TIP3    H235249   2.732   0.563  30.298 -0.4752 -0.8630 -0.2698
 4564TIP3   OH235250   2.997   3.305  29.811 -0.0326  0.0771 -0.4508
 4564TIP3    H135251   2.991   3.394  29.846 -1.4045  1.5815 -3.9303
 4564TIP3    H235252   3.091   3.289  29.801  0.2552  0.8739  0.7916
 4565TIP3   OH235253   0.111   2.280  24.238 -0.4052  0.5028  0.3858
 4565TIP3    H135254   0.109   2.375  24.230  0.3104  0.6665  1.8981
 4565TIP3    H235255   0.196   2.260  24.277 -0.7312 -0.7131  0.5293
 4566TIP3   OH235256   2.526   0.720   3.177 -0.1533 -0.0352 -0.4574
 4566TIP3    H135257   2.545   0.809   3.207 -0.8222  0.8398 -2.4542
 4566TIP3    H235258   2.587   0.705   3.105  0.3976 -1.4881  0.2630
 4567TIP3   OH235259   0.073   1.344   4.114 -0.2337 -0.2606  0.1011
 4567TIP3    H135260   0.140   1.363   4.179 -0.2852  1.3478 -0.2871
 4567TIP3    H235261   0.058   1.249   4.123  0.7103 -0.3141  1.4857
 4568TIP3   OH235262   1.270   0.658   0.055 -0.0116  0.1427 -0.0177
 4568TIP3    H135263   1.253   0.573   0.095  0.2778  0.3429  0.5514
 4568TIP3    H235264   1.357   0.649   0.016  0.5276  0.5125  1.0403
 4569TIP3   OH235265   0.459   2.386  28.135  0.2746  0.0170  0.2559
 4569TIP3    H135266   0.380   2.376  28.187 -1.2920  1.1371 -1.7627
 4569TIP3    H235267   0.531   2.380  28.198 -1.5012  2.3441  2.7308
 4570TIP3   OH235268   0.909   0.791  30.244  0.0052 -0.3409  0.2732
 4570TIP3    H135269   0.881   0.878  30.271  0.3640 -0.1768  0.1175
 4570TIP3    H235270   0.846   0.732  30.286  1.4648 -0.2245  2.8390
 4571TIP3   OH235271   1.959   1.339   6.387  0.3543 -0.1319 -0.7172
 4571TIP3    H135272   1.947   1.390   6.307  0.7537 -0.4548 -0.9827
 4571TIP3    H235273   1.949   1.403   6.458  1.4289  0.4327 -1.0610
 4572TIP3   OH235274   3.310   1.135   4.514  0.2895 -0.3725 -0.5744
 4572TIP3    H135275   3.341   1.119   4.603 -0.0281 -0.7095 -0.5220
 4572TIP3    H235276   3.353   1.216   4.488 -0.1626  0.1088  0.1453
 4573TIP3   OH235277   1.811   0.835   0.619 -0.1066  0.0594 -0.1226
 4573TIP3    H135278   1.900   0.832   0.582  0.7849 -0.2165  1.9138
 4573TIP3    H235279   1.788   0.928   0.616  1.5544  0.6249  2.0997
 4574TIP3   OH235280   3.423   3.200  31.286 -0.5697  0.4182 -0.1073
 4574TIP3    H135281   3.364   3.264  31.245 -2.2627  0.5309  2.3012
 4574TIP3    H235282   3.365   3.128  31.312  0.5516 -0.0400  1.2367
 4575TIP3   OH235283   0.761   2.351   2.503 -0.0999  0.4428  0.2452
 4575TIP3    H135284   0.749   2.382   2.413  0.6172 -2.8405 -1.1472
 4575TIP3    H235285   0.846   2.384   2.529  1.0143 -0.8865 -1.4727
 4576TIP3   OH235286   0.093   3.058  25.953  0.0148  0.6555  0.0101
 4576TIP3    H135287  -0.002   3.052  25.946  0.1003 -0.7317 -0.4053
 4576TIP3    H235288   0.122   2.967  25.968  1.3575  0.8356 -1.2078
 4577TIP3   OH235289   0.886   2.109  29.170 -0.1123  0.3751  0.0522
 4577TIP3    H135290   0.796   2.130  29.195  0.0352  2.2786 -0.8231
 4577TIP3    H235291   0.937   2.184  29.202  1.0697 -0.3784 -0.0265
 4578TIP3   OH235292   0.797   3.260  12.647 -0.1384 -0.4759  0.1721
 4578TIP3    H135293   0.836   3.209  12.575  0.7349  0.2819  0.0961
 4578TIP3    H235294   0.707   3.227  12.653 -0.1852 -0.6521 -1.1822
 4579TIP3   OH235295   1.029   2.860   1.680 -0.0856 -0.0025 -0.0960
 4579TIP3    H135296   0.982   2.942   1.668 -0.5318 -0.2041  0.2393
 4579TIP3    H235297   0.962   2.797   1.707  0.2591 -0.4626 -0.2817
 4580TIP3   OH235298   2.685   2.546  32.330  0.4150 -0.0338  0.4046
 4580TIP3    H135299   2.683   2.585  32.243 -0.9486 -0.9058  0.0118
 4580TIP3    H235300   2.775   2.515  32.340  0.2919 -1.0865 -1.2614
 4581TIP3   OH235301   1.355   0.422   6.114  0.1410 -0.2001  0.0269
 4581TIP3    H135302   1.349   0.357   6.045  1.4175 -0.1054 -0.1888
 4581TIP3    H235303   1.370   0.372   6.194  2.4574 -0.1538 -0.3218
 4582TIP3   OH235304   2.229   2.584  12.323 -0.6977 -0.4873 -0.4636
 4582TIP3    H135305   2.146   2.622  12.351 -1.3282 -2.0929 -0.0344
 4582TIP3    H235306   2.294   2.653  12.340 -1.7428  0.3190  0.4367
 4583TIP3   OH235307   2.989   1.275   1.612 -0.2371 -0.3231 -0.1906
 4583TIP3    H135308   2.908   1.293   1.660  0.3399 -0.0032  0.6824
 4583TIP3    H235309   2.963   1.275   1.520 -1.5571 -1.9395  0.1506
 4584TIP3   OH235310   0.457   2.226   3.314 -0.0932 -0.5691 -0.0858
 4584TIP3    H135311   0.459   2.230   3.218 -1.3576 -2.4909 -0.2387
 4584TIP3    H235312   0.365   2.209   3.335 -0.0148  0.7867  1.5476
 4585TIP3   OH235313   2.692   2.133  32.062  0.0317 -0.1011  0.0324
 4585TIP3    H135314   2.635   2.210  32.055 -0.0632 -0.1413  0.3401
 4585TIP3    H235315   2.733   2.141  32.148 -2.3684 -1.9903  1.4902
 4586TIP3   OH235316   1.504   2.480  25.598 -0.0692 -0.1901  0.1625
 4586TIP3    H135317   1.474   2.499  25.509  1.5959 -0.8981 -0.6011
 4586TIP3    H235318   1.515   2.566  25.639 -2.4644  0.1166  0.3145
 4587TIP3   OH235319   3.069   2.420  23.705  0.0761  0.1887 -0.1446
 4587TIP3    H135320   3.014   2.351  23.743 -2.6969  2.5475  0.5375
 4587TIP3    H235321   3.052   2.414  23.611 -1.1561  0.6563  0.0246
 4588TIP3   OH235322   0.177   3.405  28.902  0.0777 -0.2898 -0.2059
 4588TIP3    H135323   0.261   3.452  28.906  0.2726 -0.6952  0.6904
 4588TIP3    H235324   0.163   3.390  28.808  0.7112  0.2997 -0.4075
 4589TIP3   OH235325   2.214   0.972  26.890 -0.3052 -0.6459 -0.3148
 4589TIP3    H135326   2.293   1.019  26.919 -1.3397  1.8488 -1.2359
 4589TIP3    H235327   2.246   0.914  26.821  0.7858  0.0452 -0.4275
 4590TIP3   OH235328   1.322   0.287  32.705  0.2292 -0.0405 -0.1917
 4590TIP3    H135329   1.264   0.219  32.671 -0.6639  0.4396  0.3189
 4590TIP3    H235330   1.263   0.354  32.739  1.0904  0.9181 -0.5300
 4591TIP3   OH235331   1.121   0.126  12.777 -0.5151  0.0194 -0.1591
 4591TIP3    H135332   1.076   0.043  12.797 -0.1406  0.0706  0.9529
 4591TIP3    H235333   1.073   0.192  12.828 -0.0571  0.2913 -0.0777
 4592TIP3   OH235334   2.965   3.293   7.338  0.4148  0.6139 -0.3711
 4592TIP3    H135335   2.953   3.217   7.394 -0.3892 -0.2173 -1.6182
 4592TIP3    H235336   2.894   3.352   7.361  0.1410  0.3152 -0.4460
 4593TIP3   OH235337   1.762   0.067   6.258 -0.3422 -0.3733 -0.4052
 4593TIP3    H135338   1.678   0.032   6.228 -0.0759 -1.7578  0.3252
 4593TIP3    H235339   1.748   0.161   6.268 -1.4168 -0.3965 -1.5117
 4594TIP3   OH235340   2.566   2.955  30.854  0.6618  0.0884 -0.1576
 4594TIP3    H135341   2.635   3.009  30.816  0.6563 -0.5638 -1.1340
 4594TIP3    H235342   2.610   2.900  30.918  1.1484 -0.7105 -1.1686
 4595TIP3   OH235343   2.007   0.475  31.976  0.5839  0.3737  0.7635
 4595TIP3    H135344   2.070   0.423  32.026  0.1306 -2.0215 -1.0014
 4595TIP3    H235345   1.926   0.423  31.978 -0.0303  1.2297 -0.7068
 4596TIP3   OH235346   2.138   3.397  14.518  0.1280 -0.5559 -0.5176
 4596TIP3    H135347   2.088   3.446  14.453 -0.3430  0.1513  0.3622
 4596TIP3    H235348   2.091   3.410  14.600  1.0941 -0.8741  0.1085
 4597TIP3   OH235349   1.032   2.935   4.740  0.0426 -0.2207 -0.0727
 4597TIP3    H135350   1.068   3.016   4.704 -1.2430  0.0571 -0.8107
 4597TIP3    H235351   0.967   2.907   4.676 -1.9270 -0.0322  1.7303
 4598TIP3   OH235352   0.491   0.497   4.554 -0.4502 -0.1491 -0.1360
 4598TIP3    H135353   0.575   0.459   4.526 -0.3607  0.3418 -0.5465
 4598TIP3    H235354   0.488   0.482   4.648 -0.3230 -0.9956 -0.2590
 4599TIP3   OH235355   0.764   2.519   6.703 -0.9124 -0.4387  0.0628
 4599TIP3    H135356   0.694   2.576   6.672  1.1448  0.4963 -3.4320
 4599TIP3    H235357   0.832   2.579   6.733 -0.0228 -1.1465 -0.4890
 4600TIP3   OH235358   2.397   2.171  20.394  0.4014  0.2452 -0.3845
 4600TIP3    H135359   2.405   2.214  20.479  0.1096  1.6395 -1.0310
 4600TIP3    H235360   2.343   2.094  20.410 -1.6515  1.7402  0.2958
 4601TIP3   OH235361   2.288   1.367  30.191 -0.1357 -0.1034  0.2717
 4601TIP3    H135362   2.357   1.412  30.142  0.3754 -0.3395  0.7561
 4601TIP3    H235363   2.321   1.278  30.201 -0.9877 -0.5021 -0.3872
 4602TIP3   OH235364   2.979   0.920  32.694  0.1184 -0.6236 -0.5876
 4602TIP3    H135365   2.897   0.967  32.711  0.1041 -0.6893 -0.4718
 4602TIP3    H235366   3.020   0.911  32.779  0.1582 -0.7484 -0.6189
 4603TIP3   OH235367   2.055   0.172  12.912 -0.4403 -0.0065  0.1553
 4603TIP3    H135368   2.094   0.137  12.832  1.1181  2.7488 -0.4306
 4603TIP3    H235369   1.974   0.214  12.884 -1.6893 -1.9718  0.6592
 4604TIP3   OH235370   1.193   0.875   2.212  0.2566 -0.0061 -0.8054
 4604TIP3    H135371   1.287   0.887   2.213  0.3530 -0.6185 -1.4789
 4604TIP3    H235372   1.169   0.876   2.119 -0.0836 -1.9910 -0.8005
 4605TIP3   OH235373   2.044   3.130   3.775 -0.0099 -0.7901 -0.0972
 4605TIP3    H135374   2.036   3.042   3.812 -0.3123 -0.5501  0.4210
 4605TIP3    H235375   2.134   3.155   3.794  0.3057 -1.2731 -0.9044
 4606TIP3   OH235376   2.503   2.725  26.588  1.0738  0.0823 -0.5642
 4606TIP3    H135377   2.423   2.672  26.585  0.6033  0.6009  1.4344
 4606TIP3    H235378   2.538   2.720  26.499 -0.3370 -1.4364 -1.0933
 4607TIP3   OH235379   1.170   1.037  26.860 -0.1634  0.2839 -0.1656
 4607TIP3    H135380   1.078   1.064  26.856 -0.1294  1.0229  2.0876
 4607TIP3    H235381   1.219   1.119  26.861  0.3678 -0.0248  0.4640
 4608TIP3   OH235382   2.963   1.953  32.707  0.6051 -0.0538  0.3559
 4608TIP3    H135383   3.002   1.987  32.626 -1.0627  1.2291  0.0148
 4608TIP3    H235384   2.872   1.983  32.703  0.1533 -1.0628  2.1184
 4609TIP3   OH235385   0.701   0.279  11.163 -0.3122  0.1867 -0.0347
 4609TIP3    H135386   0.681   0.249  11.251  0.6842 -1.9832 -0.4752
 4609TIP3    H235387   0.783   0.328  11.173  0.2752 -0.8023  0.1605
 4610TIP3   OH235388   2.844   3.495   6.837 -0.6357 -0.1445  0.0801
 4610TIP3    H135389   2.826   3.479   6.930 -2.3015 -1.0596 -0.3735
 4610TIP3    H235390   2.899   3.574   6.837 -1.5831  0.5703  1.7889
 4611TIP3   OH235391   0.173   2.407  27.141 -0.3501 -0.7062  0.1737
 4611TIP3    H135392   0.261   2.411  27.104 -1.0190  1.3747 -1.3725
 4611TIP3    H235393   0.162   2.489  27.189 -1.2696 -1.1658  0.7960
 4612TIP3   OH235394   3.053   2.689  28.073  0.2294 -0.1624 -0.4654
 4612TIP3    H135395   3.004   2.769  28.093 -0.2040 -1.1398  3.1434
 4612TIP3    H235396   2.986   2.626  28.047  0.2558 -0.0689 -0.7662
 4613TIP3   OH235397   1.149   1.325   1.645 -0.3611 -0.0032  0.0982
 4613TIP3    H135398   1.235   1.366   1.643 -0.6183  0.5658  0.5870
 4613TIP3    H235399   1.088   1.394   1.618 -0.7837 -0.0742  0.8247
 4614TIP3   OH235400   2.844   3.480  28.169  0.1500 -0.2755  0.0517
 4614TIP3    H135401   2.861   3.485  28.263 -1.1715  0.6114  0.2697
 4614TIP3    H235402   2.845   3.386  28.149  0.7192 -0.4542  0.8940
 4615TIP3   OH235403   1.692   0.867   4.534 -0.0461 -0.5265 -0.1178
 4615TIP3    H135404   1.636   0.940   4.507  1.4710  1.0450  0.8262
 4615TIP3    H235405   1.632   0.803   4.573 -1.1969  1.0915  0.8583
 4616TIP3   OH235406   0.560   1.657  28.424  0.2032  0.2675 -0.1582
 4616TIP3    H135407   0.565   1.614  28.338 -0.4912  1.3057 -0.7323
 4616TIP3    H235408   0.566   1.585  28.486  0.7263 -0.5083 -1.0705
 4617TIP3   OH235409   1.210   0.098  28.264 -0.0380 -0.0813 -0.2276
 4617TIP3    H135410   1.262   0.168  28.303  1.8586 -1.6088  0.1667
 4617TIP3    H235411   1.165   0.057  28.338  1.4585 -1.2947  0.0661
 4618TIP3   OH235412   0.114   2.182  31.713  0.1807  0.6590 -0.1173
 4618TIP3    H135413   0.059   2.104  31.719 -0.7913  1.3136 -0.3436
 4618TIP3    H235414   0.154   2.176  31.626  0.1890  0.3671 -0.0960
 4619TIP3   OH235415   2.251   1.126   3.908 -0.6216 -0.0451  0.2482
 4619TIP3    H135416   2.202   1.060   3.859  0.2574 -1.0386  0.6672
 4619TIP3    H235417   2.252   1.093   3.998 -2.2628  1.7768  1.0090
 4620TIP3   OH235418   0.257   3.550   3.841 -0.1087  0.7155  0.8741
 4620TIP3    H135419   0.310   3.499   3.903  0.5195 -0.8710 -0.8825
 4620TIP3    H235420   0.168   3.541   3.875 -0.0572 -1.8323  0.5132
 4621TIP3   OH235421   3.146   2.601   7.416  0.7492  0.2084  0.3323
 4621TIP3    H135422   3.210   2.545   7.371 -0.3833 -0.0959 -0.9680
 4621TIP3    H235423   3.151   2.684   7.368  1.7070  0.9472  1.6249
 4622TIP3   OH235424   2.367   0.915   1.841 -0.0090  0.0856  0.1026
 4622TIP3    H135425   2.296   0.872   1.794 -2.1194  2.5456  0.7716
 4622TIP3    H235426   2.384   0.994   1.790 -0.0250  1.1185  1.6262
 4623TIP3   OH235427   2.901   0.769   1.448 -0.0899 -0.2878  0.4832
 4623TIP3    H135428   2.877   0.690   1.400 -0.7351 -0.5423  1.1883
 4623TIP3    H235429   2.956   0.819   1.388 -0.5672 -0.7643 -0.3688
 4624TIP3   OH235430   2.187   2.523   6.959  0.7312  0.2586 -0.2389
 4624TIP3    H135431   2.145   2.602   6.994  0.9953  0.3309 -0.0850
 4624TIP3    H235432   2.149   2.513   6.871 -1.5357 -1.0958  0.7838
 4625TIP3   OH235433   1.550   0.065  32.206  0.1496  0.0797 -0.6608
 4625TIP3    H135434   1.489   0.080  32.278 -0.5497 -0.2604 -1.1682
 4625TIP3    H235435   1.495   0.069  32.128  0.7336 -0.4932 -1.1085
 4626TIP3   OH235436   1.881   0.117   6.944 -0.3232  0.1215  0.5808
 4626TIP3    H135437   1.791   0.099   6.970  0.6892 -0.8349  3.8853
 4626TIP3    H235438   1.897   0.207   6.973 -0.1977  0.3309 -0.0997
 4627TIP3   OH235439   3.023   3.092   0.207  0.0304  0.1087 -0.0854
 4627TIP3    H135440   3.109   3.086   0.164 -0.6952  2.7532 -2.2006
 4627TIP3    H235441   3.014   3.185   0.230 -0.2075 -0.8814  4.9505
 4628TIP3   OH235442   1.466   0.603   5.913  0.3055  0.0464  0.4201
 4628TIP3    H135443   1.420   0.537   5.965 -0.3633 -0.0897 -0.3209
 4628TIP3    H235444   1.423   0.600   5.827  2.0956 -0.5490 -0.5234
 4629TIP3   OH235445   3.493   1.741   7.394 -0.2312  0.1671 -0.4491
 4629TIP3    H135446   3.523   1.650   7.402 -0.4393  0.2172  1.5061
 4629TIP3    H235447   3.412   1.744   7.445  0.9826  1.9086  1.5747
 4630TIP3   OH235448   1.657   3.261   4.524 -0.1508 -0.2116  0.0516
 4630TIP3    H135449   1.716   3.325   4.565 -1.1961  1.0252 -0.3115
 4630TIP3    H235450   1.649   3.291   4.434 -1.5863 -0.1654  0.1771
 4631TIP3   OH235451   1.376   0.075   4.866 -0.5813  0.2147 -0.4712
 4631TIP3    H135452   1.426   0.136   4.919  2.0080 -2.2758  0.1631
 4631TIP3    H235453   1.439   0.038   4.805 -2.0076 -1.8830 -0.7896
 4632TIP3   OH235454   1.150   2.357  20.547  0.6472 -0.1699  0.0743
 4632TIP3    H135455   1.242   2.375  20.566  1.0386 -0.4234 -1.4402
 4632TIP3    H235456   1.127   2.285  20.606  2.2138 -1.8981 -1.2788
 4633TIP3   OH235457   0.505   0.546   2.055 -0.4606 -0.7033 -0.1764
 4633TIP3    H135458   0.518   0.601   2.132  0.5947 -0.8729 -0.2265
 4633TIP3    H235459   0.429   0.492   2.077 -2.1721  1.4229 -0.5113
 4634TIP3   OH235460   0.854   2.861  31.090  0.3421  0.4236 -0.0149
 4634TIP3    H135461   0.863   2.956  31.097  1.7723  0.1982  2.3480
 4634TIP3    H235462   0.939   2.827  31.119 -0.6189 -1.6022  0.6032
 4635TIP3   OH235463   3.504   2.990  31.010 -0.1510  0.1195  0.5073
 4635TIP3    H135464   3.470   3.067  31.056  0.6545  0.6312  0.2560
 4635TIP3    H235465   3.533   3.022  30.925 -1.7985 -0.8559 -0.4911
 4636TIP3   OH235466   0.562   0.056   0.265 -0.6558  0.6614 -0.7016
 4636TIP3    H135467   0.524  -0.024   0.302  0.9224 -0.4486 -1.3325
 4636TIP3    H235468   0.634   0.024   0.211  0.3894  2.5651 -0.5017
 4637TIP3   OH235469   3.418   0.320   2.200  0.0166  0.0525  0.1116
 4637TIP3    H135470   3.503   0.364   2.196 -0.0698  0.1318 -1.5786
 4637TIP3    H235471   3.358   0.387   2.230  0.0733  0.8579 -1.4422
 4638TIP3   OH235472   3.236   3.036   4.485 -0.2446 -0.3246 -0.0002
 4638TIP3    H135473   3.182   3.060   4.410 -2.2024 -1.1876  1.0488
 4638TIP3    H235474   3.317   3.085   4.473 -1.1045  0.7573 -1.8430
 4639TIP3   OH235475   0.099   1.819   1.127  0.0548 -0.1488  0.2360
 4639TIP3    H135476   0.143   1.835   1.043  1.4446  1.3798  1.2181
 4639TIP3    H235477   0.066   1.730   1.119 -1.4481  0.5060 -2.6343
 4640TIP3   OH235478   2.985   2.723   6.277  0.0725  0.7584  0.6138
 4640TIP3    H135479   2.937   2.642   6.289  0.2442  0.9362  3.1723
 4640TIP3    H235480   2.918   2.788   6.255 -0.0822  0.0221 -1.2682
 4641TIP3   OH235481   1.861   3.116  14.732 -0.0790  0.2222  0.2560
 4641TIP3    H135482   1.951   3.149  14.730 -0.2588  0.6964 -1.0387
 4641TIP3    H235483   1.833   3.128  14.823  1.7354 -1.5714  1.1420
 4642TIP3   OH235484   0.925   2.197   6.060 -0.0697 -0.3201 -0.2746
 4642TIP3    H135485   1.004   2.249   6.071 -0.3135  0.0174 -0.1206
 4642TIP3    H235486   0.854   2.253   6.091 -0.4931 -0.2284 -1.3820
 4643TIP3   OH235487   2.050   0.642   1.489  0.3684 -0.1104 -0.7758
 4643TIP3    H135488   1.988   0.579   1.455  1.1850 -0.3251 -1.9424
 4643TIP3    H235489   2.132   0.622   1.444  0.9898  0.9037 -0.1504
 4644TIP3   OH235490   0.527   0.393   0.843 -0.0059 -0.2169  0.9383
 4644TIP3    H135491   0.511   0.428   0.755 -1.1218  1.7043  1.8395
 4644TIP3    H235492   0.529   0.298   0.831 -1.0986 -0.0542 -1.0164
 4645TIP3   OH235493   0.759   2.416  14.250  0.0128  0.9913  0.1149
 4645TIP3    H135494   0.680   2.397  14.302 -0.0405 -0.8694 -0.5713
 4645TIP3    H235495   0.762   2.511  14.247 -3.9860  1.2907 -2.3630
 4646TIP3   OH235496   1.070   1.984   1.859  0.0485  1.2241  0.0436
 4646TIP3    H135497   1.117   1.901   1.858 -2.4661 -0.3038  0.7206
 4646TIP3    H235498   1.064   2.009   1.767  0.4091  0.4260 -0.2077
 4647TIP3   OH235499   3.408   0.997  31.115  0.3844  0.0346 -0.3524
 4647TIP3    H135500   3.503   1.008  31.114  0.3398  0.6064  0.3567
 4647TIP3    H235501   3.382   0.993  31.023  0.9128  1.6411 -0.5948
 4648TIP3   OH235502   1.393   0.424  29.233 -0.3850 -0.1442  0.1457
 4648TIP3    H135503   1.305   0.458  29.250 -0.2036 -0.0809  1.0555
 4648TIP3    H235504   1.385   0.330  29.245 -0.2193 -0.0823  0.7781
 4649TIP3   OH235505   1.379   0.675  30.782  0.1176  0.1441 -0.6705
 4649TIP3    H135506   1.438   0.674  30.707  0.2810  1.4850 -0.5813
 4649TIP3    H235507   1.398   0.594  30.828 -0.1678 -0.8524 -2.2066
 4650TIP3   OH235508   2.213   2.123  32.874 -0.6585 -0.3875 -0.3137
 4650TIP3    H135509   2.229   2.217  32.889  2.7058 -0.5432 -1.9704
 4650TIP3    H235510   2.175   2.092  32.956 -2.2140  2.4270  0.1833
 4651TIP3   OH235511   2.262   3.345   3.573 -0.4611 -0.2092 -0.3698
 4651TIP3    H135512   2.249   3.410   3.642  0.4530  1.0994 -1.3751
 4651TIP3    H235513   2.231   3.388   3.494 -0.9295 -1.4555 -0.8810
 4652TIP3   OH235514   2.820   2.026  21.720  0.1715  0.2324 -0.5809
 4652TIP3    H135515   2.864   1.944  21.743 -0.1133  0.3053  0.2875
 4652TIP3    H235516   2.841   2.040  21.628  1.0743 -0.2840 -0.4669
 4653TIP3   OH235517   1.809   3.183   6.484 -0.1889 -0.2043 -0.1493
 4653TIP3    H135518   1.851   3.231   6.413  0.3914 -0.8790 -0.2721
 4653TIP3    H235519   1.733   3.236   6.507  1.6126  1.9769  1.2403
 4654TIP3   OH235520   3.183   3.056   3.871  0.1251  0.2290  0.1287
 4654TIP3    H135521   3.103   3.005   3.885  1.8846 -2.3169  1.6105
 4654TIP3    H235522   3.196   3.055   3.777 -0.6155 -0.9385  0.0159
 4655TIP3   OH235523   0.055   3.273   6.038 -0.0052 -0.1180  0.8392
 4655TIP3    H135524   0.109   3.348   6.063  1.4711 -0.1178 -1.8836
 4655TIP3    H235525  -0.032   3.294   6.071  1.0253  1.2881  2.8442
 4656TIP3   OH235526   2.278   3.144  30.366 -0.6700 -0.3460 -0.1838
 4656TIP3    H135527   2.227   3.089  30.305 -1.1240 -1.0105  0.7695
 4656TIP3    H235528   2.225   3.223  30.376  0.3649  0.6693 -2.1788
 4657TIP3   OH235529   3.491   0.830   0.067  0.3797 -0.3458 -0.5843
 4657TIP3    H135530   3.411   0.778   0.080 -0.0317  0.3084 -0.4343
 4657TIP3    H235531   3.489   0.855  -0.025  0.6756 -0.7388 -0.7033
 4658TIP3   OH235532   1.104   1.425  25.147 -0.1412 -0.1859  0.2112
 4658TIP3    H135533   1.040   1.421  25.218  0.4298  0.0934  0.7498
 4658TIP3    H235534   1.188   1.410  25.190 -0.0014 -2.8863 -0.7849
 4659TIP3   OH235535   2.003   3.474   4.402  0.3009  0.2920 -0.2562
 4659TIP3    H135536   1.971   3.386   4.380  0.8621 -0.0629  0.3246
 4659TIP3    H235537   2.011   3.474   4.497  0.5603  0.8869 -0.2736
 4660TIP3   OH235538   0.799   0.981  28.267  0.2474  0.4641 -0.2008
 4660TIP3    H135539   0.791   1.018  28.179  1.4234 -0.3209 -0.6709
 4660TIP3    H235540   0.740   1.033  28.321  0.6509  1.9628 -1.1565
 4661TIP3   OH235541   0.584   3.175  31.183  0.1276  0.5515 -0.2650
 4661TIP3    H135542   0.638   3.253  31.198  0.9820  0.0560 -0.7216
 4661TIP3    H235543   0.496   3.209  31.169 -0.1704  1.2803  2.6156
 4662TIP3   OH235544   3.188   2.273  29.742  0.1608  0.6245  0.0603
 4662TIP3    H135545   3.140   2.195  29.769  2.8880 -0.5451  2.1058
 4662TIP3    H235546   3.136   2.347  29.773 -0.1573 -0.5796  2.5920
 4663TIP3   OH235547   3.310   0.006   4.040 -0.6799  0.4811  0.3407
 4663TIP3    H135548   3.316   0.100   4.052 -2.1326  0.4062  2.1467
 4663TIP3    H235549   3.226  -0.018   4.079 -0.4308 -1.5401 -0.2362
 4664TIP3   OH235550   0.537   1.400   1.467  0.0849 -0.5595 -0.2155
 4664TIP3    H135551   0.441   1.405   1.467  0.1118  0.7439 -1.1865
 4664TIP3    H235552   0.559   1.367   1.380  0.5225  0.4000 -0.4885
 4665TIP3   OH235553   0.903   2.560   3.039  1.0656  0.4812  0.4172
 4665TIP3    H135554   0.829   2.585   2.983  0.8920  0.2932  0.5582
 4665TIP3    H235555   0.978   2.605   3.002  0.5535  2.2674  1.4129
 4666TIP3   OH235556   3.244   1.581  30.403  0.1409  0.0179 -0.0009
 4666TIP3    H135557   3.213   1.539  30.483  0.5746  1.2832  0.8595
 4666TIP3    H235558   3.293   1.657  30.433  0.8883  0.1516 -1.4576
 4667TIP3   OH235559   0.280   2.901   4.418 -0.4081  0.1687  0.0744
 4667TIP3    H135560   0.336   2.973   4.391  0.7573 -0.6108  0.3534
 4667TIP3    H235561   0.308   2.827   4.364 -0.0476 -0.6488  1.3191
 4668TIP3   OH235562   3.395   2.375  27.670  0.1793 -0.6233  0.0560
 4668TIP3    H135563   3.331   2.335  27.728 -0.4908  0.9412  0.4533
 4668TIP3    H235564   3.356   2.368  27.583 -0.4003  0.0284  0.2547
 4669TIP3   OH235565   0.035   1.614   1.499  0.3629  0.4004 -0.2356
 4669TIP3    H135566  -0.033   1.574   1.553  0.3505  0.8114  0.0685
 4669TIP3    H235567  -0.006   1.694   1.465  1.0419  1.2525  0.8823
 4670TIP3   OH235568   1.585   3.053   4.950  0.2879 -0.2281  0.3706
 4670TIP3    H135569   1.533   3.128   4.981  1.1694 -0.1398  1.7522
 4670TIP3    H235570   1.522   2.983   4.939 -0.4460  0.5004 -0.1946
 4671TIP3   OH235571   1.336   2.340   3.445 -0.0455  0.4351  0.7685
 4671TIP3    H135572   1.281   2.418   3.449 -0.4961  0.4113 -2.2866
 4671TIP3    H235573   1.425   2.374   3.430 -0.1278  0.4098  0.1836
 4672TIP3   OH235574   2.264   1.516   6.220  0.0178 -0.4338 -0.0196
 4672TIP3    H135575   2.224   1.559   6.296 -1.4283 -4.5040  1.8400
 4672TIP3    H235576   2.216   1.550   6.145 -0.1572  1.9947  1.1091
 4673TIP3   OH235577   1.023   2.586  26.549  0.2007 -0.0687 -0.0151
 4673TIP3    H135578   1.108   2.541  26.550 -0.3182 -1.0989 -0.1686
 4673TIP3    H235579   0.960   2.518  26.574 -0.7023  0.3928 -0.9616
 4674TIP3   OH235580   2.352   1.957  32.347  0.0877 -0.1348 -0.0530
 4674TIP3    H135581   2.439   1.980  32.379 -0.8106  0.4628  2.0895
 4674TIP3    H235582   2.321   2.037  32.303  0.7058 -0.4557 -1.1177
 4675TIP3   OH235583   0.797   3.032   1.671  0.4780 -0.2532  0.5061
 4675TIP3    H135584   0.793   2.964   1.738  1.7542  1.1302  2.0813
 4675TIP3    H235585   0.710   3.032   1.631  0.2883 -2.3963  0.8346
 4676TIP3   OH235586   0.767   1.598   6.566  0.4637  0.5518 -0.0093
 4676TIP3    H135587   0.773   1.600   6.662 -3.0267  2.5185  0.3479
 4676TIP3    H235588   0.816   1.675   6.537  1.9521 -0.3255  0.0981
 4677TIP3   OH235589   2.255   0.890  25.907 -0.1259 -0.3511 -0.2556
 4677TIP3    H135590   2.342   0.923  25.885  1.0319 -2.3538  0.9835
 4677TIP3    H235591   2.195   0.959  25.878  1.9705  2.0096  0.6467
 4678TIP3   OH235592   2.368   2.823  12.647 -0.0555  0.5813 -0.1465
 4678TIP3    H135593   2.382   2.784  12.561 -0.1710  1.2264 -0.4642
 4678TIP3    H235594   2.332   2.910  12.629  2.1332  1.6850  0.4858
 4679TIP3   OH235595   2.906   2.535  26.588  0.3986  0.4496 -0.0022
 4679TIP3    H135596   2.983   2.590  26.599  0.7675 -0.2778  1.2996
 4679TIP3    H235597   2.941   2.447  26.574 -0.1639  0.0433  1.0015
 4680TIP3   OH235598   0.415   0.028   1.304  0.1572 -0.0376  0.0806
 4680TIP3    H135599   0.400  -0.067   1.302  0.9807 -0.1741 -0.4396
 4680TIP3    H235600   0.377   0.057   1.386 -1.2791 -0.6051 -0.3669
 4681TIP3   OH235601   3.333   2.968   3.182  0.1882 -0.0308  0.3671
 4681TIP3    H135602   3.405   3.013   3.139 -1.2779  1.8071 -0.3291
 4681TIP3    H235603   3.255   2.994   3.132 -0.8614 -3.0471  0.2038
 4682TIP3   OH235604   0.597   0.814  27.402 -0.0706 -0.0322 -0.3420
 4682TIP3    H135605   0.570   0.726  27.375  0.6189  0.6478 -3.6308
 4682TIP3    H235606   0.644   0.849  27.327 -0.3155  3.1878  0.8519
 4683TIP3   OH235607   3.474   0.835   3.643  0.3458 -0.8416  0.3493
 4683TIP3    H135608   3.565   0.859   3.625 -0.1246 -0.3590 -1.7043
 4683TIP3    H235609   3.434   0.914   3.678  0.4575 -0.6944  0.1478
 4684TIP3   OH235610   3.386   0.056  29.531 -0.2978 -0.4137 -0.3392
 4684TIP3    H135611   3.387  -0.038  29.515 -0.6594 -0.3508 -0.7657
 4684TIP3    H235612   3.476   0.078  29.556 -0.0640 -0.7662 -0.8580
 4685TIP3   OH235613   1.366   0.087  28.876 -0.2232  0.2772 -0.6593
 4685TIP3    H135614   1.425   0.024  28.916 -1.0555 -0.3721 -0.4160
 4685TIP3    H235615   1.415   0.123  28.803 -0.2566 -1.7941 -1.7661
 4686TIP3   OH235616   0.303   3.262  29.476 -0.2481  0.1091 -0.1044
 4686TIP3    H135617   0.345   3.195  29.424 -0.1289 -0.3792  0.6056
 4686TIP3    H235618   0.288   3.334  29.415 -0.2383 -0.4958 -0.8392
 4687TIP3   OH235619   1.522   3.505   6.386 -0.1575 -0.1203 -0.3195
 4687TIP3    H135620   1.430   3.521   6.363  0.0250  0.0254 -0.9487
 4687TIP3    H235621   1.563   3.592   6.384  0.1372 -0.2661 -0.6703
 4688TIP3   OH235622   1.574   3.174   3.255  0.5819 -0.4059  0.4572
 4688TIP3    H135623   1.559   3.218   3.172  2.5449 -1.7001 -0.6640
 4688TIP3    H235624   1.487   3.161   3.292 -0.2675  0.9058 -0.9993
 4689TIP3   OH235625   0.979   1.944  28.987  0.5250 -0.1974  0.3812
 4689TIP3    H135626   0.957   2.016  29.045  1.5502  0.3229  0.1483
 4689TIP3    H235627   1.061   1.909  29.022  0.6383 -0.5119 -0.1820
 4690TIP3   OH235628   1.712   2.038  28.452 -0.5272 -0.0582 -0.2004
 4690TIP3    H135629   1.632   2.068  28.495  0.2217 -0.8779  1.9442
 4690TIP3    H235630   1.697   1.945  28.437 -0.2721 -0.0561 -0.4661
 4691TIP3   OH235631   0.874   0.036  31.591  0.3745  0.1461 -0.5324
 4691TIP3    H135632   0.779   0.041  31.586  0.3368  1.5465  0.8862
 4691TIP3    H235633   0.892  -0.040  31.646  0.0515  0.2978 -0.2186
 4692TIP3   OH235634   2.332   2.667  32.434 -0.5228  0.3312  0.0830
 4692TIP3    H135635   2.392   2.717  32.379  0.2930 -0.7113 -0.0180
 4692TIP3    H235636   2.372   2.580  32.439 -1.9922 -0.3715  0.0810
 4693TIP3   OH235637   3.011   0.866   6.879  0.2406 -0.4814  0.1377
 4693TIP3    H135638   2.997   0.780   6.918  0.8287 -0.9592 -0.6838
 4693TIP3    H235639   3.106   0.877   6.879  0.2268 -0.2976 -0.7353
 4694TIP3   OH235640   2.575   0.988   6.796 -0.0966 -0.0196  0.2632
 4694TIP3    H135641   2.623   0.917   6.755  2.0655  1.8028 -0.5675
 4694TIP3    H235642   2.613   0.997   6.884 -1.7614 -1.1124  1.1661
 4695TIP3   OH235643   1.067   3.366   3.194  0.5505  0.0504  0.2080
 4695TIP3    H135644   1.099   3.409   3.115 -1.8431  0.4377 -0.6551
 4695TIP3    H235645   1.068   3.273   3.174  1.8345 -0.0270  0.5243
 4696TIP3   OH235646   0.718   1.408   6.363  0.6238  0.2607 -0.0719
 4696TIP3    H135647   0.645   1.444   6.312  0.0270 -0.0244  0.5654
 4696TIP3    H235648   0.731   1.471   6.434  0.2545 -0.2361  0.4525
 4697TIP3   OH235649   0.457   1.030   5.358  0.4906  0.0168 -0.7331
 4697TIP3    H135650   0.474   1.091   5.286 -0.3111 -0.8902 -1.7219
 4697TIP3    H235651   0.364   1.042   5.379  0.8749  0.8096  0.6987
 4698TIP3   OH235652   0.289   1.253   4.646 -0.3927 -0.9980 -0.4042
 4698TIP3    H135653   0.360   1.265   4.583 -0.4958  0.1864 -0.3207
 4698TIP3    H235654   0.218   1.214   4.596 -0.9050  1.0277 -1.3614
 4699TIP3   OH235655   1.527   2.539   0.197 -0.0086 -0.0941  0.1187
 4699TIP3    H135656   1.507   2.597   0.123  1.2920  1.0610  0.6395
 4699TIP3    H235657   1.622   2.535   0.200 -0.0500 -2.2566  0.1464
 4700TIP3   OH235658   1.862   0.274  31.302 -0.2198 -0.3404  0.0016
 4700TIP3    H135659   1.916   0.206  31.341 -1.2303 -1.7587 -0.9810
 4700TIP3    H235660   1.861   0.344  31.368 -0.3434 -1.8634  1.7010
 4701TIP3   OH235661   1.552   1.478  18.794 -0.5847  0.0479  0.2008
 4701TIP3    H135662   1.639   1.510  18.818 -0.7968  1.7655 -1.1128
 4701TIP3    H235663   1.561   1.383  18.796  2.1685  0.0627 -2.4551
 4702TIP3   OH235664   2.312   2.626   4.994 -0.3490  0.4807 -0.1600
 4702TIP3    H135665   2.352   2.713   4.989 -0.7945  0.7376  0.5857
 4702TIP3    H235666   2.359   2.574   4.928  2.1693  0.3616  1.5944
 4703TIP3   OH235667   1.379   2.120  30.745  0.5292  0.1230 -0.5767
 4703TIP3    H135668   1.465   2.155  30.768  1.2190 -1.5451 -0.4496
 4703TIP3    H235669   1.347   2.080  30.826  0.0487 -0.0658 -0.8548
 4704TIP3   OH235670   0.836   2.710   1.142 -0.3287  0.1356  0.2459
 4704TIP3    H135671   0.916   2.727   1.093 -1.3477 -0.1757 -1.6243
 4704TIP3    H235672   0.826   2.787   1.199  0.7461  0.6511 -0.2273
 4705TIP3   OH235673   0.736   1.922   6.283 -0.4211  0.0482  0.2899
 4705TIP3    H135674   0.796   1.868   6.335  0.0777  0.0982 -0.2163
 4705TIP3    H235675   0.745   2.010   6.320  0.0392  0.1118  0.0437
 4706TIP3   OH235676   0.508   2.064  20.401 -0.1695 -0.0925  0.4159
 4706TIP3    H135677   0.448   2.133  20.429  1.1735  0.6951  1.4606
 4706TIP3    H235678   0.523   2.011  20.479 -0.4581 -1.0307 -0.1465
 4707TIP3   OH235679   3.550   1.158  30.616 -0.2186  0.3883  0.2327
 4707TIP3    H135680   3.570   1.248  30.593  0.2955  0.1831 -0.1376
 4707TIP3    H235681   3.468   1.139  30.570 -1.7461  1.4659  2.3561
 4708TIP3   OH235682   0.237   1.192   6.807  0.2905  0.8078 -0.2132
 4708TIP3    H135683   0.283   1.187   6.891 -2.1744 -2.3256  1.1562
 4708TIP3    H235684   0.161   1.249   6.825 -0.2254  0.1547 -0.2945
 4709TIP3   OH235685   2.720   0.735  31.643  0.2800 -0.1658  0.1219
 4709TIP3    H135686   2.676   0.788  31.710  2.3011  0.6541  0.8642
 4709TIP3    H235687   2.755   0.659  31.690 -0.3418 -0.8337 -0.4670
 4710TIP3   OH235688   2.844   2.276   5.529  0.0120  0.3929 -0.2693
 4710TIP3    H135689   2.804   2.189   5.531  0.3076  0.2240  2.5722
 4710TIP3    H235690   2.936   2.261   5.550  0.3054  1.3137 -0.8151
 4711TIP3   OH235691   3.453   2.264  30.938  0.1824  0.5688 -0.2438
 4711TIP3    H135692   3.460   2.222  30.852  1.2192  1.8270 -0.8228
 4711TIP3    H235693   3.419   2.196  30.996 -1.6769  0.0172 -1.8925
 4712TIP3   OH235694   2.168   2.813  30.472 -0.8470  0.1519  1.0746
 4712TIP3    H135695   2.187   2.895  30.517 -1.8858  0.9020  0.1905
 4712TIP3    H235696   2.081   2.789  30.502 -1.2037  0.2183  0.1299
 4713TIP3   OH235697   1.586   3.232  29.028 -0.1526  0.5717 -0.2115
 4713TIP3    H135698   1.621   3.160  29.080 -1.0539  1.4903  1.7602
 4713TIP3    H235699   1.652   3.247  28.960  1.0311 -0.7412  0.6043
 4714TIP3   OH235700   2.764   0.968   7.444 -0.2520  0.9024  0.1446
 4714TIP3    H135701   2.816   0.940   7.369 -0.9477  0.8783 -0.3459
 4714TIP3    H235702   2.822   0.958   7.519  1.2079  2.9807 -0.6199
 4715TIP3   OH235703   0.493   2.536   4.753  0.6874  0.0319  0.0346
 4715TIP3    H135704   0.498   2.550   4.658  0.1158  3.3724  0.3684
 4715TIP3    H235705   0.583   2.515   4.778  0.7999 -1.1710 -1.2219
 4716TIP3   OH235706   2.263   3.260  32.929 -0.3832 -0.2116 -0.5519
 4716TIP3    H135707   2.347   3.220  32.953 -0.9054 -1.0036  0.0002
 4716TIP3    H235708   2.247   3.229  32.840 -1.0448 -1.7297  0.0610
 4717TIP3   OH235709   2.812   2.663  14.198  0.0318  0.2015  0.5866
 4717TIP3    H135710   2.748   2.726  14.232 -0.6252 -0.5670  0.8136
 4717TIP3    H235711   2.773   2.629  14.118  1.0509  1.1415 -0.3443
 4718TIP3   OH235712   2.949   0.052   4.696  0.4143 -0.1012  0.4233
 4718TIP3    H135713   2.906  -0.027   4.728  0.8832 -0.7493 -0.4866
 4718TIP3    H235714   3.038   0.025   4.675  0.3857  0.4939 -0.5572
 4719TIP3   OH235715   0.773   0.972  27.798 -0.4754  0.0019 -0.0348
 4719TIP3    H135716   0.776   0.917  27.719  1.7754  0.3281 -0.2489
 4719TIP3    H235717   0.746   0.913  27.868  1.6639 -1.3957 -0.3020
 4720TIP3   OH235718   0.292   3.063  28.227 -0.0778  0.1026 -0.0052
 4720TIP3    H135719   0.288   2.993  28.161 -1.2083  1.0511 -0.9805
 4720TIP3    H235720   0.241   3.134  28.189  0.1349  1.0638  1.4601
 4721TIP3   OH235721   0.334   2.510  11.311  0.0445  0.2725  0.0149
 4721TIP3    H135722   0.263   2.555  11.356 -1.4759 -1.4058 -0.5925
 4721TIP3    H235723   0.294   2.477  11.231  1.4760 -0.8744 -0.2618
 4722TIP3   OH235724   0.234   1.912  31.818 -0.0074  0.1777 -0.2293
 4722TIP3    H135725   0.139   1.910  31.801 -0.2683 -0.1890  1.1240
 4722TIP3    H235726   0.244   1.862  31.899  0.9823  2.5397  1.2178
 4723TIP3   OH235727   2.757   0.570  27.207 -0.4350 -0.3664  0.5497
 4723TIP3    H135728   2.740   0.475  27.212 -0.6700 -0.4321 -1.0432
 4723TIP3    H235729   2.693   0.602  27.144  1.0523  0.4776 -0.6059
 4724TIP3   OH235730   1.370   2.431   4.070 -0.1137  0.3599  0.1922
 4724TIP3    H135731   1.406   2.503   4.018 -0.5267 -0.4980 -1.3563
 4724TIP3    H235732   1.442   2.368   4.075 -0.8510 -0.6863 -1.5965
 4725TIP3   OH235733   2.009   1.081   5.352  0.3333 -0.4842 -0.4677
 4725TIP3    H135734   2.096   1.102   5.385 -0.0330 -0.3484  0.4443
 4725TIP3    H235735   2.024   1.016   5.283  1.3505  1.4559 -2.1601
 4726TIP3   OH235736   2.403   2.300   0.261 -0.6540 -0.1556  0.0594
 4726TIP3    H135737   2.370   2.338   0.180  1.4899  1.7421 -0.0323
 4726TIP3    H235738   2.498   2.312   0.256 -0.4433 -0.1400  2.7448
 4727TIP3   OH235739   3.036   1.296  30.245 -0.0456 -0.0117 -0.1492
 4727TIP3    H135740   3.122   1.327  30.217  0.1443  0.5683  1.0377
 4727TIP3    H235741   2.975   1.358  30.207 -0.0434 -0.8991 -1.7105
 4728TIP3   OH235742   3.398   1.394   4.498 -0.0870  0.0212  0.4137
 4728TIP3    H135743   3.361   1.469   4.451  1.2185 -1.5885 -3.5434
 4728TIP3    H235744   3.491   1.398   4.480  0.2250 -1.7171  1.4204
 4729TIP3   OH235745   3.283   3.511  30.539 -0.0438 -0.2498  0.1177
 4729TIP3    H135746   3.371   3.513  30.501 -0.5749 -0.9377 -1.2042
 4729TIP3    H235747   3.260   3.418  30.543  1.0618 -0.5526  4.8474
 4730TIP3   OH235748   1.927   3.264  27.259  0.0038 -0.0095  0.4827
 4730TIP3    H135749   1.845   3.223  27.230 -0.0842 -0.1161  0.8618
 4730TIP3    H235750   1.929   3.349  27.215 -0.0410 -0.2321  0.0466
 4731TIP3   OH235751   3.032   3.348  30.345  0.1960 -0.2169 -0.1304
 4731TIP3    H135752   2.979   3.281  30.302 -1.2937  1.0146 -0.2863
 4731TIP3    H235753   3.059   3.307  30.427 -2.0209 -0.5042  0.5301
 4732TIP3   OH235754   1.881   2.495   4.563  0.2904  0.5460  0.2274
 4732TIP3    H135755   1.923   2.475   4.479  1.1733  0.8703  0.5813
 4732TIP3    H235756   1.943   2.551   4.609 -0.0780  0.1963  1.1937
 4733TIP3   OH235757   1.451   0.286   6.368  0.0190 -0.4090 -0.2384
 4733TIP3    H135758   1.543   0.294   6.343  0.3034 -1.1748  0.5510
 4733TIP3    H235759   1.436   0.358   6.429  1.6276 -3.2594  4.0159
 4734TIP3   OH235760   1.273   1.711  22.387  0.1576 -0.9504  0.1751
 4734TIP3    H135761   1.346   1.722  22.325 -0.2826  0.2423 -0.1651
 4734TIP3    H235762   1.236   1.625  22.365  0.6104 -0.9652 -0.5807
 4735TIP3   OH235763   2.322   1.224   1.521  0.2075  0.0446 -0.1905
 4735TIP3    H135764   2.360   1.149   1.567 -0.7962 -1.1534 -1.2752
 4735TIP3    H235765   2.363   1.222   1.434  1.1607  1.5649  0.1760
 4736TIP3   OH235766   1.942   1.411  27.327 -0.0426  0.2149  0.5146
 4736TIP3    H135767   2.014   1.428  27.388 -1.0835 -0.2542  1.9247
 4736TIP3    H235768   1.863   1.410  27.382 -1.1735  0.9760 -1.0295
 4737TIP3   OH235769   0.583   0.480   3.369  0.5524 -0.4860 -0.5065
 4737TIP3    H135770   0.550   0.403   3.414  2.0821 -1.3506 -0.7802
 4737TIP3    H235771   0.678   0.478   3.384  0.7298  0.8596 -1.2405
 4738TIP3   OH235772   2.707   2.483   7.182  0.0288 -0.2989  0.1473
 4738TIP3    H135773   2.741   2.524   7.262 -0.7721  0.8833 -0.1018
 4738TIP3    H235774   2.782   2.433   7.149  0.7376  0.1437  1.0046
 4739TIP3   OH235775   2.928   0.314  32.558 -0.4880 -0.0240  0.2228
 4739TIP3    H135776   2.837   0.314  32.587 -0.4041 -1.3740  0.5497
 4739TIP3    H235777   2.929   0.370  32.480 -1.4272  0.6458  0.6779
 4740TIP3   OH235778   1.298   2.892   1.600 -0.0832  0.2825  0.2174
 4740TIP3    H135779   1.296   2.856   1.511 -0.6998  2.6601 -0.8156
 4740TIP3    H235780   1.207   2.905   1.624  0.0612 -0.6968  1.3928
 4741TIP3   OH235781   0.262   3.110  27.704 -0.0480 -0.5493  0.9289
 4741TIP3    H135782   0.354   3.086  27.717  0.6544  0.9396 -0.9030
 4741TIP3    H235783   0.215   3.027  27.714  1.9396 -2.2559 -2.1132
 4742TIP3   OH235784   0.976   2.493  20.375  0.5466 -0.0895 -0.0772
 4742TIP3    H135785   1.053   2.542  20.348 -0.5433  1.3397 -0.7303
 4742TIP3    H235786   1.000   2.453  20.458  1.2642  2.1702  0.8719
 4743TIP3   OH235787   2.782   2.514  14.560 -0.2652  0.8543  0.4153
 4743TIP3    H135788   2.871   2.483  14.545 -1.1945 -1.3041 -1.1734
 4743TIP3    H235789   2.784   2.551  14.648  2.4074  1.8172  0.0369
 4744TIP3   OH235790   1.661   1.058   2.387 -0.1491 -0.2202  0.1485
 4744TIP3    H135791   1.642   1.052   2.294 -0.1140  0.4135  0.0973
 4744TIP3    H235792   1.747   1.099   2.391  0.2617 -1.0752  0.4407
 4745TIP3   OH235793   0.034   1.837  31.126 -0.0543  0.4358 -0.3065
 4745TIP3    H135794  -0.033   1.769  31.120  1.3301 -0.9026 -1.3831
 4745TIP3    H235795   0.093   1.820  31.052  1.6303  1.3863  0.7470
 4746TIP3   OH235796   1.823   0.793   6.638 -0.0728 -0.0773 -0.1573
 4746TIP3    H135797   1.753   0.858   6.642  0.5390  0.5776  0.1521
 4746TIP3    H235798   1.902   0.844   6.623  0.1632 -0.9298 -2.1819
 4747TIP3   OH235799   2.796   1.413  19.114  0.2347 -0.8893  0.5032
 4747TIP3    H135800   2.804   1.343  19.178  2.2856 -0.6428  0.5722
 4747TIP3    H235801   2.847   1.384  19.039 -0.6531 -0.3825 -0.3268
 4748TIP3   OH235802   0.605   2.453   3.082  0.0284 -0.3573 -0.4593
 4748TIP3    H135803   0.548   2.522   3.047  0.3648  0.0167 -0.2712
 4748TIP3    H235804   0.563   2.371   3.053 -0.3096 -0.0766 -0.7795
 4749TIP3   OH235805   0.418   1.807   5.264 -0.2012 -0.0751 -0.3013
 4749TIP3    H135806   0.398   1.882   5.320  1.5868  1.5342 -1.6815
 4749TIP3    H235807   0.422   1.844   5.175 -2.9010 -2.4967 -1.6031
 4750TIP3   OH235808   1.111   2.420  20.843 -0.4071  0.3710 -0.1894
 4750TIP3    H135809   1.186   2.420  20.903 -0.8528 -1.8911  0.4401
 4750TIP3    H235810   1.147   2.449  20.760  1.0827 -0.2706  0.2059
 4751TIP3   OH235811   0.967   3.280  11.221 -0.1142 -0.3647 -0.2966
 4751TIP3    H135812   0.970   3.194  11.264 -0.0982 -0.6653 -0.8966
 4751TIP3    H235813   0.898   3.273  11.156 -0.2968  0.1684 -0.1655
 4752TIP3   OH235814   0.162   0.161  29.213 -0.3014 -0.3914  0.2776
 4752TIP3    H135815   0.240   0.187  29.164 -2.6581  0.3955 -3.4038
 4752TIP3    H235816   0.113   0.242  29.224 -2.4017 -1.4032 -1.0816
 4753TIP3   OH235817   1.250   2.590  20.379  0.0927 -0.0302  0.3207
 4753TIP3    H135818   1.283   2.658  20.438  0.0360 -1.1694  1.7246
 4753TIP3    H235819   1.315   2.520  20.385  0.7128  0.2738 -1.9425
 4754TIP3   OH235820   1.240   2.597  32.016  0.3254  0.5059 -0.5325
 4754TIP3    H135821   1.320   2.617  31.966  0.3988 -0.1269 -0.6812
 4754TIP3    H235822   1.177   2.571  31.949  0.8405 -1.7365 -0.2366
 4755TIP3   OH235823   2.626   1.086   4.574 -0.3259 -0.0892 -0.2029
 4755TIP3    H135824   2.552   1.133   4.612 -0.0260  0.2623 -0.0565
 4755TIP3    H235825   2.586   1.031   4.506 -0.6507  0.5359 -0.5324
 4756TIP3   OH235826   2.608   1.865   0.029 -0.0903 -0.1026  0.1606
 4756TIP3    H135827   2.625   1.807   0.103  0.2002 -0.5408 -0.2367
 4756TIP3    H235828   2.537   1.922   0.058  1.4873  1.2387  1.5879
 4757TIP3   OH235829   0.642   2.289  21.828  0.3013  0.0556 -0.2037
 4757TIP3    H135830   0.699   2.283  21.904  0.7216 -1.7867 -0.6077
 4757TIP3    H235831   0.693   2.251  21.757 -0.6968  0.2102 -1.0303
 4758TIP3   OH235832   1.027   3.481  30.573 -0.1995  0.4956  1.5119
 4758TIP3    H135833   1.077   3.556  30.539 -0.0253 -0.8971 -1.5849
 4758TIP3    H235834   1.093   3.425  30.613  0.4050 -0.1058 -0.2436
 4759TIP3   OH235835   2.056   1.278   2.601  0.1950  0.1338  0.1573
 4759TIP3    H135836   2.022   1.197   2.639  0.0596  0.2019  0.1799
 4759TIP3    H235837   2.106   1.319   2.671  1.9735 -0.9223 -0.4240
 4760TIP3   OH235838   1.058   2.254  24.868  0.2196  0.6603  0.5785
 4760TIP3    H135839   1.025   2.333  24.827  1.7424  1.2043  0.3531
 4760TIP3    H235840   1.150   2.248  24.841  0.0165 -1.4894  0.1253
 4761TIP3   OH235841   2.077   0.115  26.670  0.0131  0.0546 -0.5629
 4761TIP3    H135842   2.043   0.064  26.596 -0.4352 -1.6916  0.7702
 4761TIP3    H235843   2.167   0.136  26.646  0.0765 -1.0362 -1.3366
 4762TIP3   OH235844   0.719   0.162  12.316  0.2896  0.2000  0.2448
 4762TIP3    H135845   0.707   0.154  12.222 -0.1742  0.4977  0.2736
 4762TIP3    H235846   0.749   0.075  12.344  0.5677  0.1522 -0.1915
 4763TIP3   OH235847   3.506   0.993   1.717 -0.0977 -0.8047  0.0856
 4763TIP3    H135848   3.450   0.953   1.783 -1.3850 -0.3351 -0.6741
 4763TIP3    H235849   3.446   1.046   1.664  1.0634 -0.3362 -0.8060
 4764TIP3   OH235850   0.686   1.673  26.900  0.0592 -0.0056 -0.1940
 4764TIP3    H135851   0.623   1.732  26.944  0.4193  0.9984 -0.9885
 4764TIP3    H235852   0.659   1.675  26.808  0.3477 -0.7561 -0.2933
 4765TIP3   OH235853   0.911   1.496   2.775 -0.0882 -0.2419  0.0431
 4765TIP3    H135854   0.882   1.581   2.809 -1.1865 -0.4298 -0.3900
 4765TIP3    H235855   0.846   1.474   2.709 -0.1657 -1.7235  0.5868
 4766TIP3   OH235856   1.777   2.191  30.251 -0.4998 -0.5246 -0.1968
 4766TIP3    H135857   1.765   2.138  30.329  0.7878 -0.4569  0.0664
 4766TIP3    H235858   1.869   2.180  30.228  0.5607  3.4343  1.2575
 4767TIP3   OH235859   2.230   3.390  11.755 -0.3358 -0.4231  0.6042
 4767TIP3    H135860   2.148   3.431  11.727  0.1846 -1.1310 -2.1904
 4767TIP3    H235861   2.293   3.462  11.757 -0.1196 -0.5252 -1.3025
 4768TIP3   OH235862   0.972   0.843   6.111 -0.2881 -0.0494 -0.0374
 4768TIP3    H135863   1.035   0.789   6.063 -1.1573 -1.6811  0.5625
 4768TIP3    H235864   1.025   0.891   6.174  0.5306 -0.1220 -0.6454
 4769TIP3   OH235865   1.096   1.110   2.039  0.5404 -0.5720  0.2000
 4769TIP3    H135866   1.020   1.052   2.048 -0.5737  0.8883  0.7350
 4769TIP3    H235867   1.057   1.197   2.032  2.2125  0.2860  1.1478
 4770TIP3   OH235868   3.393   2.630   2.321  1.3271  0.2210 -0.2185
 4770TIP3    H135869   3.473   2.594   2.282  0.9717 -0.3766 -0.4022
 4770TIP3    H235870   3.358   2.688   2.254  1.5777  0.4415 -0.1600
 4771TIP3   OH235871   1.596   0.841  32.850  0.0394 -0.3441 -0.3391
 4771TIP3    H135872   1.635   0.928  32.846 -3.1935  1.3095  0.9338
 4771TIP3    H235873   1.533   0.839  32.778 -0.7864 -1.1512  0.3859
 4772TIP3   OH235874   2.223   3.144  29.943  0.1344 -0.3483  0.0337
 4772TIP3    H135875   2.218   3.102  29.857  3.2018  1.1273 -1.0026
 4772TIP3    H235876   2.300   3.106  29.984  0.6432  1.3431  0.7286
 4773TIP3   OH235877   3.249   0.620  29.146  0.1404  0.5024  0.1126
 4773TIP3    H135878   3.301   0.665  29.213  0.9430  1.3906 -1.0600
 4773TIP3    H235879   3.230   0.688  29.081 -0.7801 -0.2941 -0.4820
 4774TIP3   OH235880   1.486   1.096  29.007 -0.4324  0.1094 -0.0173
 4774TIP3    H135881   1.475   1.120  29.099 -0.7116  0.5150 -0.1528
 4774TIP3    H235882   1.536   1.015  29.009  1.2668  1.0993  0.4575
 4775TIP3   OH235883   3.333   1.985  28.720 -0.5029  0.3741  1.1527
 4775TIP3    H135884   3.415   2.033  28.723 -0.1541 -0.2882  3.1379
 4775TIP3    H235885   3.336   1.938  28.636  0.4348  1.5125  0.5229
 4776TIP3   OH235886   0.099   0.336  26.526  0.1804  0.0509 -0.6008
 4776TIP3    H135887   0.096   0.398  26.453 -0.8960  0.5121 -0.1907
 4776TIP3    H235888   0.183   0.291  26.517 -1.4786 -2.7765 -4.4909
 4777TIP3   OH235889   3.326   1.520  31.492  0.0683 -0.0322  0.0009
 4777TIP3    H135890   3.278   1.507  31.574  0.0913 -0.4183 -0.0479
 4777TIP3    H235891   3.333   1.433  31.454  1.8404 -0.1600  0.5758
 4778TIP3   OH235892   1.325   0.149  29.889 -0.5512  0.4182  0.3936
 4778TIP3    H135893   1.331   0.054  29.898 -0.5884  0.2773 -0.8160
 4778TIP3    H235894   1.279   0.179  29.967  0.0242 -0.4857  1.0868
 4779TIP3   OH235895   1.396   0.412  30.924  0.2879  0.2974  0.2908
 4779TIP3    H135896   1.477   0.420  30.875  1.1760 -3.1830  0.9003
 4779TIP3    H235897   1.337   0.364  30.866 -0.8188  1.4549  0.4240
 4780TIP3   OH235898   1.543   2.722  14.492 -0.3487 -0.4436  0.2336
 4780TIP3    H135899   1.606   2.656  14.463 -0.9818 -0.3468 -1.4598
 4780TIP3    H235900   1.497   2.681  14.566  0.0475 -1.4352 -0.0581
 4781TIP3   OH235901   3.200   1.435   1.024 -0.0921  0.2027 -0.0701
 4781TIP3    H135902   3.265   1.415   0.957 -0.0314  2.0975 -0.6373
 4781TIP3    H235903   3.233   1.514   1.067 -1.2770  0.3433  0.6269
 4782TIP3   OH235904   2.933   2.055   4.842 -0.1058  0.5640 -0.0410
 4782TIP3    H135905   2.872   1.981   4.845  0.9916 -0.3280  0.8831
 4782TIP3    H235906   2.970   2.052   4.754 -0.8776  0.7085 -0.3851
 4783TIP3   OH235907   1.707   2.140  18.900 -0.0050  0.1630  0.2061
 4783TIP3    H135908   1.691   2.167  18.810  0.8277 -1.7131 -0.5638
 4783TIP3    H235909   1.802   2.148  18.911  0.2917 -2.2755 -0.0675
 4784TIP3   OH235910   0.809   1.931  22.209  0.1062 -0.0549 -0.3451
 4784TIP3    H135911   0.856   1.860  22.253 -1.6567 -1.7467 -1.0611
 4784TIP3    H235912   0.763   1.976  22.279 -0.8516 -1.2887 -0.1445
 4785TIP3   OH235913   3.237   3.335   0.546 -1.1061 -0.0227 -0.1436
 4785TIP3    H135914   3.293   3.379   0.482  0.3142 -1.1738  0.2578
 4785TIP3    H235915   3.233   3.395   0.621 -1.0249  0.3828 -0.4639
 4786TIP3   OH235916   0.945   1.511  28.419 -0.1798 -0.3501  0.4160
 4786TIP3    H135917   0.981   1.515  28.330  3.1594 -1.0363  1.5925
 4786TIP3    H235918   0.871   1.451  28.413 -1.4281  1.2576 -2.2345
 4787TIP3   OH235919   0.859   1.562  30.530  1.1406  0.0625  0.0708
 4787TIP3    H135920   0.944   1.601  30.549  0.6551  0.9442  0.4596
 4787TIP3    H235921   0.805   1.634  30.499 -0.6107  0.3606  3.3753
 4788TIP3   OH235922   1.688   2.029  19.269  0.4743 -0.2326 -0.1970
 4788TIP3    H135923   1.758   2.094  19.262  0.0511  0.5072  1.9077
 4788TIP3    H235924   1.642   2.051  19.350 -1.6205 -1.2932 -1.0200
 4789TIP3   OH235925   3.246   3.196  29.844 -0.0647 -0.0560  0.1265
 4789TIP3    H135926   3.260   3.181  29.937 -0.6611 -0.0953  0.2178
 4789TIP3    H235927   3.204   3.117  29.813  0.3369 -0.1307 -0.2258
 4790TIP3   OH235928   2.707   0.494  26.801 -0.1352  0.6214  0.4154
 4790TIP3    H135929   2.642   0.442  26.847  1.3877 -0.5397  1.3531
 4790TIP3    H235930   2.787   0.486  26.854  1.0770  1.0855 -1.2381
 4791TIP3   OH235931   1.609   2.277  19.130 -0.0493 -0.1240  0.0819
 4791TIP3    H135932   1.628   2.234  19.047  0.3078 -1.8291  1.0064
 4791TIP3    H235933   1.692   2.273  19.179 -0.7236 -0.8590  1.2251
 4792TIP3   OH235934   0.955   3.543  14.368  0.4968 -0.7057 -0.2228
 4792TIP3    H135935   0.960   3.637  14.353  1.5822 -0.7052  0.0699
 4792TIP3    H235936   0.957   3.504  14.280  1.2313 -0.4935 -0.3081
 4793TIP3   OH235937   1.429   0.560  32.559  0.0290 -0.2660  0.6504
 4793TIP3    H135938   1.434   0.531  32.650  0.0124 -1.1143  0.3918
 4793TIP3    H235939   1.520   0.559  32.528 -0.0964 -1.3836  0.2500
 4794TIP3   OH235940   2.261   2.117  30.351  0.3675  0.1539 -0.8538
 4794TIP3    H135941   2.272   2.025  30.375 -0.7160 -0.0920 -1.2699
 4794TIP3    H235942   2.286   2.165  30.430  1.0226 -0.4888 -0.6607
 4795TIP3   OH235943   0.731   3.393   3.431  0.4787 -0.2788  0.5455
 4795TIP3    H135944   0.720   3.300   3.413 -2.7004 -0.5036  2.9580
 4795TIP3    H235945   0.688   3.437   3.357 -1.0364 -0.8517  1.0564
 4796TIP3   OH235946   2.369   2.275  30.565 -0.1010  0.2209 -0.8002
 4796TIP3    H135947   2.337   2.344  30.623 -0.1800  1.0386 -1.7920
 4796TIP3    H235948   2.397   2.205  30.625 -2.7664 -0.1441  0.1506
 4797TIP3   OH235949   3.177   3.451  28.377  0.1996 -0.0548  0.5388
 4797TIP3    H135950   3.224   3.534  28.383  0.9496 -0.5093  1.1101
 4797TIP3    H235951   3.227   3.391  28.433  0.3355 -1.2016 -0.7647
 4798TIP3   OH235952   2.689   2.284  20.723  0.1203  0.0020 -0.2763
 4798TIP3    H135953   2.700   2.367  20.769 -1.2002  0.0425  0.0104
 4798TIP3    H235954   2.773   2.268  20.682  0.7226  0.9558  0.5359
 4799TIP3   OH235955   0.470   0.657  31.306  0.1490  0.1028 -0.3870
 4799TIP3    H135956   0.392   0.620  31.264 -0.8455  2.6746 -0.9381
 4799TIP3    H235957   0.519   0.698  31.234  1.4420 -0.4382  0.1441
 4800TIP3   OH235958   3.420   3.391  28.014  0.3504 -0.3632 -0.0978
 4800TIP3    H135959   3.414   3.482  28.041  1.9899 -0.4466  0.6093
 4800TIP3    H235960   3.368   3.387  27.933 -0.1136  1.0712  0.0988
 4801TIP3   OH235961   2.297   2.138  17.629 -0.7244 -0.0755  0.8472
 4801TIP3    H135962   2.345   2.071  17.678  0.5292  1.3666  1.6990
 4801TIP3    H235963   2.364   2.185  17.580 -1.7472 -0.2751 -0.8298
 4802TIP3   OH235964   1.634   0.008   5.032 -0.1024 -0.3972  0.1445
 4802TIP3    H135965   1.607   0.072   5.097 -0.9958 -0.9204  0.3124
 4802TIP3    H235966   1.557  -0.005   4.977 -0.3422 -2.2029  0.8445
 4803TIP3   OH235967   1.868   0.381   7.012 -0.3652 -0.1607 -0.1152
 4803TIP3    H135968   1.948   0.422   7.044 -0.2238 -0.0817 -0.5643
 4803TIP3    H235969   1.850   0.423   6.928 -1.9259  1.1616  0.8137
 4804TIP3   OH235970   0.046   2.163  21.117  0.1390  0.3774  0.4710
 4804TIP3    H135971  -0.035   2.149  21.068 -0.0115  1.8873  0.2445
 4804TIP3    H235972   0.026   2.131  21.205  0.6623 -3.1334 -0.5177
 4805TIP3   OH235973   1.461   2.795   0.503 -0.1534 -0.4324  0.2493
 4805TIP3    H135974   1.426   2.714   0.466 -0.6809 -1.2852  2.4758
 4805TIP3    H235975   1.385   2.839   0.539  0.2109  0.8448 -0.4695
 4806TIP3   OH235976   0.157   1.279   5.722 -0.1717 -0.2650  0.0910
 4806TIP3    H135977   0.086   1.309   5.779 -0.8647 -0.8367 -0.4515
 4806TIP3    H235978   0.160   1.344   5.652  1.4245  1.0613  1.3215
 4807TIP3   OH235979   0.075   0.312  28.363  0.5043 -0.3854 -0.6655
 4807TIP3    H135980  -0.005   0.338  28.408 -0.4095 -2.5165 -0.9277
 4807TIP3    H235981   0.064   0.345  28.274  0.2012 -0.1139 -0.5295
 4808TIP3   OH235982   2.518   1.049   7.447  0.3113  0.5300  0.1698
 4808TIP3    H135983   2.476   0.993   7.381 -0.3195 -1.3818  2.0939
 4808TIP3    H235984   2.603   1.009   7.462 -0.7257 -0.9310  2.6532
 4809TIP3   OH235985   1.699   2.361  28.529  0.1139  0.0246 -0.1271
 4809TIP3    H135986   1.747   2.279  28.541  1.4248  0.8706  0.6536
 4809TIP3    H235987   1.753   2.427  28.572 -1.1796  1.2259 -0.2722
 4810TIP3   OH235988   2.183   0.618   1.971 -0.2584  0.2569  0.3135
 4810TIP3    H135989   2.093   0.600   2.000 -0.9273  0.2183 -1.6506
 4810TIP3    H235990   2.195   0.561   1.895  1.7181 -0.2812  0.9856
 4811TIP3   OH235991   0.666   2.100   3.948 -0.2576  0.3377  0.4693
 4811TIP3    H135992   0.743   2.053   3.977  1.1194  1.4679 -1.1365
 4811TIP3    H235993   0.649   2.165   4.016 -0.4616 -0.6174  1.3369
 4812TIP3   OH235994   2.714   0.972  29.031 -0.1554  0.0971  0.3181
 4812TIP3    H135995   2.768   0.897  29.007 -0.2320  0.0712  0.2282
 4812TIP3    H235996   2.695   1.017  28.949 -0.4255  0.0008  0.3250
 4813TIP3   OH235997   1.050   0.318  30.780 -0.2264 -0.0210  0.1291
 4813TIP3    H135998   1.126   0.276  30.820 -1.1136  0.6323  2.6865
 4813TIP3    H235999   1.073   0.411  30.777 -1.1348  0.2856  1.6011
 4814TIP3   OH236000   1.937   1.397  27.034 -0.8224  0.1046 -0.2652
 4814TIP3    H136001   1.877   1.322  27.033 -0.4171 -0.2317  0.1714
 4814TIP3    H236002   1.948   1.417  27.127 -1.6001  1.2594 -0.3907
 4815TIP3   OH236003   1.147   0.987   6.294 -0.1446 -0.5892  0.4270
 4815TIP3    H136004   1.181   1.076   6.308  1.5719 -1.0656 -0.4776
 4815TIP3    H236005   1.133   0.952   6.382  0.1438  0.2051  0.7968
 4816TIP3   OH236006   0.392   1.901   3.647  0.2848  0.0078  1.2270
 4816TIP3    H136007   0.434   1.839   3.587 -1.5945 -0.3467  0.1905
 4816TIP3    H236008   0.374   1.849   3.725  1.0623 -0.0311  1.3898
 4817TIP3   OH236009   2.995   3.412   0.436 -0.0613 -0.0850 -0.3000
 4817TIP3    H136010   2.990   3.385   0.345 -0.5354 -0.6424 -0.1174
 4817TIP3    H236011   3.071   3.366   0.471 -0.4812 -0.6736 -0.1568
 4818TIP3   OH236012   2.710   1.782  18.485  0.2812  0.3675  0.2991
 4818TIP3    H136013   2.733   1.724  18.558 -1.0861 -1.4063 -0.5795
 4818TIP3    H236014   2.750   1.741  18.408  2.8828  2.9417  0.1006
 4819TIP3   OH236015   0.815   0.457  12.645  0.1362  0.0473 -0.0631
 4819TIP3    H136016   0.842   0.386  12.588  2.3661  2.0838 -1.7242
 4819TIP3    H236017   0.787   0.527  12.586 -2.4933  0.4705  1.5141
 4820TIP3   OH236018   1.582   2.901  28.779 -0.1617  0.5265  0.1657
 4820TIP3    H136019   1.491   2.907  28.808 -0.3487  1.0685 -0.5095
 4820TIP3    H236020   1.631   2.876  28.858 -0.8923  0.1839  0.5227
 4821TIP3   OH236021   3.244   2.364  22.163  0.5623 -0.0056 -0.3951
 4821TIP3    H136022   3.297   2.324  22.094 -0.6930  0.3653 -1.6070
 4821TIP3    H236023   3.299   2.357  22.242  2.0805 -0.3369 -1.4283
 4822TIP3   OH236024   3.371   3.250  28.261 -0.1018  0.0383 -0.0462
 4822TIP3    H136025   3.290   3.208  28.289  0.7556 -1.6499  0.0158
 4822TIP3    H236026   3.343   3.319  28.200 -1.6996  1.0311  1.7302
 4823TIP3   OH236027   1.132   1.142  32.634 -0.0706  0.5457  0.3579
 4823TIP3    H136028   1.145   1.198  32.557 -2.6399 -0.2779 -0.7821
 4823TIP3    H236029   1.113   1.056  32.598 -2.4487  0.3800  1.8069
 4824TIP3   OH236030   1.526   2.455  14.816 -0.2353 -0.1931  0.2795
 4824TIP3    H136031   1.472   2.461  14.895  2.9387  0.7916  2.5494
 4824TIP3    H236032   1.503   2.532  14.765 -0.4333  0.6072  1.5445
 4825TIP3   OH236033   1.346   1.940   6.227  0.0830 -0.1271  0.2605
 4825TIP3    H136034   1.365   1.879   6.298  1.7308  0.6926  0.5847
 4825TIP3    H236035   1.326   2.023   6.272 -0.8298 -0.0910 -0.1958
 4826TIP3   OH236036   2.739   1.261  31.663 -0.5348  0.0637 -0.8215
 4826TIP3    H136037   2.730   1.292  31.753 -4.3273  0.0275 -1.0134
 4826TIP3    H236038   2.725   1.339  31.609 -1.5960 -0.4243 -1.3054
 4827TIP3   OH236039   3.158   0.374  32.028  0.8291 -0.0212  0.2191
 4827TIP3    H136040   3.095   0.435  31.991  1.1452 -0.5636 -1.2753
 4827TIP3    H236041   3.220   0.429  32.077  1.4510  0.9582 -1.5701
 4828TIP3   OH236042   0.484   3.318   3.590  0.0930  0.4647 -0.6775
 4828TIP3    H136043   0.413   3.380   3.571 -1.5051 -0.7942  0.8552
 4828TIP3    H236044   0.557   3.374   3.617 -0.9355  1.7481 -0.3944
 4829TIP3   OH236045   0.330   1.758  19.930 -0.0366  0.5775  0.5440
 4829TIP3    H136046   0.409   1.774  19.878  1.3139  1.4049  2.6868
 4829TIP3    H236047   0.306   1.668  19.910  1.7031  0.1661  0.0879
 4830TIP3   OH236048   3.047   2.398   6.585 -0.2593  0.0690  0.2647
 4830TIP3    H136049   3.094   2.348   6.517  0.3730 -0.4906  1.0833
 4830TIP3    H236050   3.061   2.347   6.665  0.1214  1.3928  1.0721
 4831TIP3   OH236051   2.638   2.254  27.590  0.2405 -0.1645  0.3679
 4831TIP3    H136052   2.644   2.347  27.609  0.8215 -0.2085  0.4177
 4831TIP3    H236053   2.688   2.243  27.508 -0.5898 -0.2848 -0.1315
 4832TIP3   OH236054   3.129   3.208  32.026 -0.4087  0.3261 -0.5564
 4832TIP3    H136055   3.219   3.207  31.995  0.2359  0.9986  1.1719
 4832TIP3    H236056   3.091   3.126  31.995  1.1075 -0.4386 -0.4437
 4833TIP3   OH236057   2.329   2.563   2.565 -0.4222  0.3299 -0.0928
 4833TIP3    H136058   2.247   2.603   2.537 -0.3010  0.4891 -0.2246
 4833TIP3    H236059   2.355   2.509   2.490 -0.0365  0.8475 -0.3393
 4834TIP3   OH236060   0.256   3.219  32.125 -0.4734  0.2772 -0.0073
 4834TIP3    H136061   0.217   3.284  32.182  4.1049  1.0661  2.7236
 4834TIP3    H236062   0.218   3.136  32.154 -1.3607  1.0934  1.2676
 4835TIP3   OH236063   1.819   0.533   0.445 -0.0588  0.2946 -0.3733
 4835TIP3    H136064   1.812   0.501   0.355 -0.2506  1.0026 -0.6192
 4835TIP3    H236065   1.788   0.623   0.440 -0.9470  0.0449  0.5902
 4836TIP3   OH236066   0.972   0.689  27.138 -0.0270  0.4195  0.0566
 4836TIP3    H136067   0.979   0.595  27.149 -1.8191  0.0201 -1.6688
 4836TIP3    H236068   1.031   0.709  27.065 -1.1043  0.3032 -0.8618
 4837TIP3   OH236069   3.492   1.011   5.608 -0.1529  0.8065  0.1484
 4837TIP3    H136070   3.419   1.041   5.663  0.0568  0.3164  0.7120
 4837TIP3    H236071   3.492   1.071   5.534 -0.3438  1.5898  0.7629
 4838TIP3   OH236072   2.415   2.229  31.871 -0.0187  0.3347  0.5124
 4838TIP3    H136073   2.428   2.183  31.789 -1.2370 -0.2302  0.6213
 4838TIP3    H236074   2.329   2.200  31.903  1.0882 -0.7108  2.7844
 4839TIP3   OH236075   0.209   1.291   1.053 -0.9140  0.3206 -0.8250
 4839TIP3    H136076   0.128   1.270   1.007 -0.9315  0.3448 -0.8055
 4839TIP3    H236077   0.279   1.265   0.993 -0.9015 -1.3506 -0.1277
 4840TIP3   OH236078   3.293   1.255  26.318 -0.1521 -0.2799  0.0085
 4840TIP3    H136079   3.228   1.321  26.343  0.0621  0.3673 -1.0694
 4840TIP3    H236080   3.262   1.223  26.233 -0.2382 -1.5743  0.4935
 4841TIP3   OH236081   0.449   2.133   1.583  0.3139  0.6439  0.0768
 4841TIP3    H136082   0.509   2.142   1.509  0.8193 -1.0270  0.2502
 4841TIP3    H236083   0.417   2.043   1.578 -2.0242  1.3937  0.1360
 4842TIP3   OH236084   2.437   2.652  31.185 -0.4087  0.1418  0.0077
 4842TIP3    H136085   2.432   2.558  31.206 -1.5787  0.2438  0.2504
 4842TIP3    H236086   2.363   2.691  31.232  0.5055  1.3218  0.5265
 4843TIP3   OH236087   3.265   0.823  26.100 -0.3019  0.2950  0.8038
 4843TIP3    H136088   3.351   0.847  26.134 -0.9538  1.0432  2.0097
 4843TIP3    H236089   3.269   0.728  26.090  1.4759  0.5137 -1.5884
 4844TIP3   OH236090   0.031   0.836  29.751 -0.1014 -0.1112  0.6233
 4844TIP3    H136091  -0.009   0.805  29.832  0.5041  0.7337  1.2635
 4844TIP3    H236092   0.021   0.931  29.754  0.7941  0.0099  0.1824
 4845TIP3   OH236093   0.180   0.967   2.776  0.6293  0.5711  0.3625
 4845TIP3    H136094   0.109   0.904   2.784  1.4743 -0.2023  2.2947
 4845TIP3    H236095   0.138   1.045   2.738 -1.2887  0.2242  1.6260
 4846TIP3   OH236096   2.937   0.027  31.825  0.2708 -0.2151 -0.2057
 4846TIP3    H136097   2.937   0.031  31.921  1.4426 -0.0303 -0.1977
 4846TIP3    H236098   2.857  -0.020  31.804  0.0838 -0.4272  0.8778
 4847TIP3   OH236099   1.007   0.709   4.876 -0.3158  0.7870  0.1751
 4847TIP3    H136100   1.058   0.776   4.920  1.8996  0.5103 -1.7436
 4847TIP3    H236101   1.014   0.731   4.783  0.3620 -1.9305 -0.5070
 4848TIP3   OH236102   0.006   0.244   5.777  0.1217 -0.5189 -0.4157
 4848TIP3    H136103  -0.054   0.170   5.785 -1.3008  0.3492 -2.1923
 4848TIP3    H236104  -0.048   0.321   5.797  1.6241  0.0886  1.6341
 4849TIP3   OH236105   1.804   0.398   5.787 -0.1724  0.1080  0.3747
 4849TIP3    H136106   1.785   0.489   5.764 -1.3669  0.1816  1.5851
 4849TIP3    H236107   1.900   0.394   5.791 -0.1064  1.2993  0.2527
 4850TIP3   OH236108   1.954   2.200   5.259 -0.0545  0.2967  0.1053
 4850TIP3    H136109   2.022   2.260   5.227  0.3279 -0.3911 -0.4012
 4850TIP3    H236110   1.873   2.251   5.257  0.2924  0.8365 -0.1951
 4851TIP3   OH236111   3.340   0.903  28.362 -0.0445  0.1625  0.2878
 4851TIP3    H136112   3.370   0.906  28.452  2.4047  0.6064 -0.4559
 4851TIP3    H236113   3.267   0.965  28.358 -0.2224  0.0894  1.9500
 4852TIP3   OH236114   1.039   0.538   4.118 -0.3811  0.3070 -0.0734
 4852TIP3    H136115   1.077   0.585   4.192  0.3320  0.0992 -0.2959
 4852TIP3    H236116   0.979   0.601   4.078 -1.0558  0.2860  0.9010
 4853TIP3   OH236117   3.188   0.561   3.368  0.2513 -0.0145 -0.1775
 4853TIP3    H136118   3.283   0.566   3.359  0.1590 -0.0193 -1.3575
 4853TIP3    H236119   3.159   0.515   3.290 -0.7371  0.1076  0.1020
 4854TIP3   OH236120   0.012   0.719  27.953 -0.3151 -0.1401  0.3166
 4854TIP3    H136121   0.102   0.717  27.921  0.3337 -1.1629  2.0533
 4854TIP3    H236122  -0.024   0.801  27.918  0.4636 -0.8813 -2.4233
 4855TIP3   OH236123   3.327   3.060  26.887  0.5074 -0.0762 -0.2627
 4855TIP3    H136124   3.303   3.077  26.796  1.6841  0.0125 -0.5724
 4855TIP3    H236125   3.407   3.008  26.881  0.0270 -0.9620  0.7229
 4856TIP3   OH236126   0.022   1.805  32.449  0.4371 -0.0798 -0.3218
 4856TIP3    H136127  -0.058   1.823  32.499  0.0894 -0.4205 -0.7412
 4856TIP3    H236128  -0.010   1.786  32.360  0.8691 -1.5108 -0.1923
 4857TIP3   OH236129   3.294   0.617   3.790  0.5600  0.0955  0.2853
 4857TIP3    H136130   3.337   0.676   3.727  0.2854  1.0537  0.9670
 4857TIP3    H236131   3.360   0.602   3.858  1.3254 -2.0006 -0.8254
 4858TIP3   OH236132   3.324   0.415  27.677 -0.5948 -0.0643 -0.2975
 4858TIP3    H136133   3.267   0.489  27.698 -0.9722 -1.2063  3.3945
 4858TIP3    H236134   3.278   0.339  27.711  1.9730 -1.3339  0.6280
 4859TIP3   OH236135   1.986   3.404   0.356 -0.3250 -0.7985  0.1935
 4859TIP3    H136136   1.905   3.453   0.370  0.3370  0.1864  0.6634
 4859TIP3    H236137   1.986   3.338   0.426 -1.1197 -1.3600 -0.3190
 4860TIP3   OH236138   1.515   2.976   6.665 -0.3112 -0.3423  0.0419
 4860TIP3    H136139   1.591   2.977   6.607 -1.0032 -0.0965 -0.8648
 4860TIP3    H236140   1.443   2.944   6.611 -1.3769  1.5993  0.2320
 4861TIP3   OH236141   2.576   3.087  29.753 -0.0225  0.0913 -0.1199
 4861TIP3    H136142   2.549   3.144  29.825  1.1281  0.0800  0.3355
 4861TIP3    H236143   2.599   3.147  29.682 -3.3315  0.0839 -1.3624
 4862TIP3   OH236144   2.166   0.825   5.271 -0.1210  0.1743 -0.4552
 4862TIP3    H136145   2.237   0.763   5.289  0.4988  1.4002  1.7155
 4862TIP3    H236146   2.088   0.786   5.310 -0.3694 -0.4977 -1.5717
 4863TIP3   OH236147   1.148   1.882  31.348 -0.0949  0.7697 -0.5284
 4863TIP3    H136148   1.110   1.805  31.307 -0.4034  0.8751 -0.4406
 4863TIP3    H236149   1.225   1.849  31.395 -1.5287  0.0770  1.4989
 4864TIP3   OH236150   0.580   0.596   0.332 -0.4493 -0.1859 -0.1072
 4864TIP3    H136151   0.567   0.680   0.288  0.7232  0.0395 -0.0494
 4864TIP3    H236152   0.643   0.550   0.277  0.6765 -0.0980  1.0738
 4865TIP3   OH236153   0.160   2.832  32.111  0.2256 -0.3208  0.1751
 4865TIP3    H136154   0.192   2.906  32.164 -0.3165  0.4388 -0.5282
 4865TIP3    H236155   0.239   2.783  32.089  0.5302 -0.2911  1.1472
 4866TIP3   OH236156   1.123   0.802  32.163 -0.2602 -0.0645 -0.2438
 4866TIP3    H136157   1.157   0.715  32.143 -0.0284 -0.6327  2.2871
 4866TIP3    H236158   1.030   0.798  32.139  0.2513 -0.1760 -2.3783
 4867TIP3   OH236159   0.052   2.636  27.939 -0.7732 -0.5530  0.0889
 4867TIP3    H136160   0.074   2.649  28.032 -1.3133  0.4892  0.0849
 4867TIP3    H236161  -0.044   2.641  27.936 -0.8796 -2.1356 -0.3191
 4868TIP3   OH236162   0.673   2.088  27.008  0.2227  0.3214 -0.3677
 4868TIP3    H136163   0.648   2.021  26.944  2.6028 -0.9215 -0.1092
 4868TIP3    H236164   0.663   2.046  27.093 -0.2766  1.0182 -0.0763
 4869TIP3   OH236165   1.968   0.392   1.395 -0.5213 -0.2294 -0.0518
 4869TIP3    H136166   2.030   0.416   1.326 -0.1637  0.6293  0.5525
 4869TIP3    H236167   1.890   0.362   1.348 -0.1846  0.0817 -0.8253
 4870TIP3   OH236168   1.643   1.665  20.501 -0.2975  0.1239 -0.1265
 4870TIP3    H136169   1.718   1.726  20.499 -0.8432  0.7906 -0.8828
 4870TIP3    H236170   1.680   1.584  20.536  0.9516  0.2185 -1.1276
 4871TIP3   OH236171   3.272   0.226  30.317 -0.5304  0.1186 -0.0403
 4871TIP3    H136172   3.230   0.234  30.403 -1.5986  2.1254 -0.6708
 4871TIP3    H236173   3.365   0.243  30.334 -0.5856 -0.3731  0.8195
 4872TIP3   OH236174   2.045   2.330  28.750 -0.4134  0.5791  0.6069
 4872TIP3    H136175   2.099   2.380  28.812 -1.7184  0.2215  2.0980
 4872TIP3    H236176   2.010   2.397  28.690  0.4984  0.9898  0.5079
 4873TIP3   OH236177   0.594   1.297  29.275 -0.5970 -0.1925 -0.7328
 4873TIP3    H136178   0.620   1.329  29.189  3.1035 -0.8367 -0.0455
 4873TIP3    H236179   0.539   1.221  29.257 -0.2940 -0.0289 -2.5342
 4874TIP3   OH236180   1.132   2.644  27.195  0.5739 -0.5358 -0.3723
 4874TIP3    H136181   1.144   2.662  27.102 -0.0053 -0.7706 -0.4968
 4874TIP3    H236182   1.065   2.707  27.222  2.3901  1.1806  0.4461
 4875TIP3   OH236183   0.025   1.501   0.695 -0.1480 -0.2895  0.1975
 4875TIP3    H136184   0.063   1.424   0.653 -1.1378  1.1803 -3.9310
 4875TIP3    H236185  -0.066   1.476   0.714 -0.1955 -0.4654 -0.2453
 4876TIP3   OH236186   2.500   2.240  31.127  0.1456  0.8701 -0.4088
 4876TIP3    H136187   2.554   2.164  31.104 -1.5006 -0.9814  1.4167
 4876TIP3    H236188   2.535   2.270  31.210  0.0584  1.3787 -0.5529
 4877TIP3   OH236189   0.833   0.425  30.272  0.0416  0.2225  0.3088
 4877TIP3    H136190   0.748   0.454  30.304 -0.1682  0.2408 -0.2613
 4877TIP3    H236191   0.896   0.472  30.328 -0.3115  0.5206  0.4667
 4878TIP3   OH236192   2.001   2.559   3.852 -0.4377  0.4431 -1.1599
 4878TIP3    H136193   1.960   2.502   3.787 -0.2064  1.2531 -2.0356
 4878TIP3    H236194   1.995   2.647   3.815  0.1022  0.8649 -0.2881
 4879TIP3   OH236195   1.477   2.608  27.269  0.3387  0.3831  0.2208
 4879TIP3    H136196   1.552   2.549  27.273 -0.2995 -0.4699  0.0237
 4879TIP3    H236197   1.485   2.651  27.184  0.4165  0.0293  0.0468
 4880TIP3   OH236198   3.011   2.481   2.291 -0.6782  0.3348 -0.2578
 4880TIP3    H136199   2.991   2.508   2.201 -1.6477 -1.7688 -0.7424
 4880TIP3    H236200   2.989   2.557   2.344  0.4318  1.8298 -1.8049
 4881TIP3   OH236201   1.636   3.314  10.426 -0.7712  0.2354 -0.1288
 4881TIP3    H136202   1.541   3.297  10.425 -1.0315  1.5340 -1.5982
 4881TIP3    H236203   1.643   3.407  10.404  0.8154  0.4303  1.0962
 4882TIP3   OH236204   1.913   1.128   4.758 -0.1074 -0.1127  0.5218
 4882TIP3    H136205   1.922   1.116   4.664 -0.7191  0.0175  0.4428
 4882TIP3    H236206   1.988   1.083   4.795  0.4236  0.2792 -0.0544
 4883TIP3   OH236207   0.586   3.090  30.767  0.1521 -0.8157 -1.2072
 4883TIP3    H136208   0.677   3.094  30.739 -0.1069 -3.2107 -2.6942
 4883TIP3    H236209   0.537   3.132  30.696  0.1327  2.5234  0.5913
 4884TIP3   OH236210   0.207   1.222  18.695  0.0847  0.3159  0.0073
 4884TIP3    H136211   0.280   1.258  18.645  0.3589 -1.2933 -0.8128
 4884TIP3    H236212   0.130   1.242  18.642 -0.0137  1.3911  0.5279
 4885TIP3   OH236213   1.062   2.356  32.066  0.2090  0.0626  0.0826
 4885TIP3    H136214   1.065   2.262  32.048 -0.3675  0.1952 -0.8138
 4885TIP3    H236215   1.152   2.386  32.054  0.3440 -0.3341  0.0940
 4886TIP3   OH236216   2.420   1.703   1.742  0.1255 -0.4620  0.3181
 4886TIP3    H136217   2.344   1.751   1.774 -0.2631 -1.2230  0.5806
 4886TIP3    H236218   2.402   1.691   1.648  0.7777  0.8861  0.0081
 4887TIP3   OH236219   0.683   0.488  26.988  0.1582  0.5761  0.6523
 4887TIP3    H136220   0.735   0.552  26.941  0.7090  0.4846  1.1338
 4887TIP3    H236221   0.612   0.466  26.927 -0.3102  1.9673  0.6586
 4888TIP3   OH236222   2.287   0.839   3.983  0.1832  0.2164  0.2029
 4888TIP3    H136223   2.214   0.815   3.927  1.4037  0.2670 -1.4881
 4888TIP3    H236224   2.249   0.846   4.071 -1.4985 -1.3309 -0.3429
 4889TIP3   OH236225   0.663   3.180  26.466 -0.0342  0.4587  0.5169
 4889TIP3    H136226   0.667   3.255  26.407 -1.4008 -0.0046 -0.2107
 4889TIP3    H236227   0.737   3.192  26.525  0.8389  1.4078 -0.7266
 4890TIP3   OH236228   2.407   3.018   2.617 -0.3199 -0.0328 -0.2528
 4890TIP3    H136229   2.382   3.110   2.607  0.1038  0.3095  1.6171
 4890TIP3    H236230   2.502   3.020   2.623 -0.3689 -0.4839  0.7744
 4891TIP3   OH236231   3.421   0.828  32.012  0.6922 -0.4832  0.0141
 4891TIP3    H136232   3.380   0.777  32.082 -0.9774  0.6257 -0.0992
 4891TIP3    H236233   3.425   0.917  32.046 -0.4346  0.1418 -1.3513
 4892TIP3   OH236234   2.849   3.405  28.429  0.0421  0.4047  0.4579
 4892TIP3    H136235   2.790   3.332  28.442  0.6125 -0.3794 -1.1061
 4892TIP3    H236236   2.934   3.374  28.460  0.0878  0.7392  0.6751
 4893TIP3   OH236237   3.208   3.513  30.220  0.2412  0.1685 -0.0651
 4893TIP3    H136238   3.138   3.472  30.271  1.0655 -0.8139  0.3206
 4893TIP3    H236239   3.232   3.590  30.272  0.4389 -0.3076  0.5668
 4894TIP3   OH236240   0.496   2.060  26.719 -0.4334  0.1340  0.6827
 4894TIP3    H136241   0.426   2.049  26.654 -0.7271 -1.5782  1.2154
 4894TIP3    H236242   0.450   2.074  26.802 -0.1044  0.5588  0.7961
 4895TIP3   OH236243   0.521   1.017  32.731 -0.7370  0.3509  0.7449
 4895TIP3    H136244   0.616   1.023  32.734 -0.6820 -0.0701  0.1042
 4895TIP3    H236245   0.492   1.105  32.706 -0.2870 -0.3332 -2.6313
 4896TIP3   OH236246   1.167   1.593  27.217  0.1880  0.0853 -0.2921
 4896TIP3    H136247   1.259   1.617  27.229 -0.3280  2.0373  0.2458
 4896TIP3    H236248   1.119   1.655  27.273 -1.6213  1.1014 -2.7796
 4897TIP3   OH236249   1.477   2.511  28.378 -0.1118  0.1644 -0.4519
 4897TIP3    H136250   1.545   2.464  28.427 -0.2988 -1.0040 -1.2829
 4897TIP3    H236251   1.489   2.484  28.287 -0.6209  1.2639 -0.8601
 4898TIP3   OH236252   0.465   1.984   5.030 -0.3402  0.1767 -0.4448
 4898TIP3    H136253   0.478   2.079   5.019 -1.4441  0.5490  1.1210
 4898TIP3    H236254   0.403   1.961   4.961  0.9763  0.2936 -1.7126
 4899TIP3   OH236255   3.152   0.310  28.183 -0.0333 -0.2502 -0.0147
 4899TIP3    H136256   3.082   0.369  28.154  0.2653  0.5888  0.9180
 4899TIP3    H236257   3.215   0.312  28.110  0.8458  2.0697  0.7029
 4900TIP3   OH236258   0.729   2.281   0.011 -0.4472 -0.0393 -0.5594
 4900TIP3    H136259   0.696   2.369  -0.008 -4.2345 -0.2014  3.4784
 4900TIP3    H236260   0.705   2.230  -0.066  1.6031  2.2159 -2.9078
 4901TIP3   OH236261   2.300   2.071  22.480  0.5109  0.6059 -0.1777
 4901TIP3    H136262   2.260   2.099  22.397 -0.7073  1.2788  0.6060
 4901TIP3    H236263   2.255   1.989  22.501  0.4344  0.7056  0.0601
 4902TIP3   OH236264   1.140   3.424   5.885  0.2994 -0.5328  0.2410
 4902TIP3    H136265   1.080   3.498   5.890  0.5610 -0.3819  1.4961
 4902TIP3    H236266   1.103   3.367   5.817 -1.1191 -0.3311  0.8167
 4903TIP3   OH236267   1.576   0.806   1.060 -0.1438  0.1363 -0.1178
 4903TIP3    H136268   1.611   0.758   1.135  0.1567  0.9193  0.2527
 4903TIP3    H236269   1.554   0.892   1.095  0.8754  0.8316 -1.1233
 4904TIP3   OH236270   2.412   2.345  28.778 -0.0577  0.1663  0.8585
 4904TIP3    H136271   2.366   2.418  28.820 -2.0458 -1.5856  1.8993
 4904TIP3    H236272   2.347   2.276  28.772  1.1555 -0.8834 -2.0366
 4905TIP3   OH236273   0.586   1.545  28.149 -0.6656 -0.7110  0.2531
 4905TIP3    H136274   0.572   1.522  28.057 -1.5113 -1.0927  0.4675
 4905TIP3    H236275   0.681   1.540  28.161 -0.6679 -2.4011 -0.1501
 4906TIP3   OH236276   1.566   3.148   2.801  0.2602  0.2079  0.1846
 4906TIP3    H136277   1.520   3.176   2.880  0.4632  0.0759  0.3502
 4906TIP3    H236278   1.601   3.229   2.763 -0.9509  0.4416 -0.4839
 4907TIP3   OH236279   0.736   1.250  29.953 -0.3475  0.2927 -0.3236
 4907TIP3    H136280   0.716   1.229  30.044 -1.4962  1.1521 -0.3522
 4907TIP3    H236281   0.782   1.173  29.920  0.2738  0.0591  1.0365
 4908TIP3   OH236282   1.837   3.093  13.954  0.7721  0.0490 -0.1663
 4908TIP3    H136283   1.828   3.174  14.005  0.9629 -0.8724  1.3729
 4908TIP3    H236284   1.926   3.097  13.919  0.2615  1.2317 -1.4528
 4909TIP3   OH236285   1.031   2.905   0.832 -0.3386 -0.1484 -0.0230
 4909TIP3    H136286   1.077   2.983   0.802 -0.9652 -0.5457 -2.2948
 4909TIP3    H236287   0.963   2.891   0.766 -0.1680 -2.6743  0.2073
 4910TIP3   OH236288   3.279   3.040   0.115 -0.4349  0.6765  0.8581
 4910TIP3    H136289   3.354   3.027   0.057  1.5778 -0.7551  3.5558
 4910TIP3    H236290   3.214   2.977   0.085  1.0348 -0.9083  0.8452
 4911TIP3   OH236291   2.433   0.025  11.682  0.5218  0.2958 -0.3324
 4911TIP3    H136292   2.354   0.065  11.645  0.8246  0.8456 -0.3892
 4911TIP3    H236293   2.504   0.056  11.627  0.7318 -0.5533 -0.5456
 4912TIP3   OH236294   0.392   0.754   4.049 -0.4620  0.5038  0.1189
 4912TIP3    H136295   0.381   0.762   3.955 -2.3140 -0.5053  0.2017
 4912TIP3    H236296   0.486   0.737   4.061 -0.2330  0.4385 -1.5434
 4913TIP3   OH236297   0.580   2.775  27.708  0.4624 -0.3137 -0.8262
 4913TIP3    H136298   0.570   2.726  27.790  1.5786  0.6744 -0.0537
 4913TIP3    H236299   0.666   2.750  27.675  1.5353  1.7908  0.1341
 4914TIP3   OH236300   3.327   2.671  28.022 -0.0284  0.4470  0.4176
 4914TIP3    H136301   3.352   2.735  28.089 -0.9518 -0.1996  1.4208
 4914TIP3    H236302   3.244   2.636  28.053 -0.7650  0.5124 -1.3619
 4915TIP3   OH236303   3.345   1.722  28.087  0.1208  0.4043  0.0465
 4915TIP3    H136304   3.431   1.759  28.108  1.0293 -2.1052  1.2086
 4915TIP3    H236305   3.302   1.712  28.172 -0.5596 -0.0744 -0.3434
 4916TIP3   OH236306   1.441   1.671  25.202  0.1485  0.2544  0.3458
 4916TIP3    H136307   1.415   1.591  25.249  0.3481 -0.4703 -0.7404
 4916TIP3    H236308   1.369   1.688  25.142 -0.8362  2.0820  1.9441
 4917TIP3   OH236309   1.172   0.275   6.417 -0.1794  0.4457 -0.1761
 4917TIP3    H136310   1.258   0.253   6.382  0.0519  0.4021  0.4056
 4917TIP3    H236311   1.169   0.371   6.417 -0.4066  0.4427 -0.8453
 4918TIP3   OH236312   1.167   0.489  30.136  0.1921  0.1735 -0.0932
 4918TIP3    H136313   1.158   0.531  30.221  0.1459 -0.0150 -0.0031
 4918TIP3    H236314   1.086   0.511  30.090 -1.3613 -2.4504  1.1234
 4919TIP3   OH236315   2.405   3.520  10.641 -0.7079  0.2045 -0.2501
 4919TIP3    H136316   2.449   3.531  10.557 -1.9585  0.9230 -0.8527
 4919TIP3    H236317   2.313   3.506  10.618 -0.9836 -0.1404  0.9827
 4920TIP3   OH236318   2.155   0.907   7.604  0.1332  0.4525  0.1147
 4920TIP3    H136319   2.169   0.836   7.542  0.6417  2.0266 -1.6524
 4920TIP3    H236320   2.069   0.888   7.643 -0.5238 -0.2247 -1.5809
 4921TIP3   OH236321   2.487   1.121   3.691 -0.0719 -0.2357 -0.2716
 4921TIP3    H136322   2.452   1.199   3.733 -1.9133  0.4454 -2.8353
 4921TIP3    H236323   2.570   1.150   3.653  0.0830 -0.0148  0.2238
 4922TIP3   OH236324   2.094   2.653  27.205  0.1147 -0.0272  0.1599
 4922TIP3    H136325   2.027   2.600  27.162  0.6468 -0.1541 -0.5323
 4922TIP3    H236326   2.058   2.671  27.292 -0.8222 -0.0799 -0.1993
 4923TIP3   OH236327   1.800   2.000  22.600 -0.0067  0.1138 -0.6103
 4923TIP3    H136328   1.788   2.055  22.678 -1.0136  1.2384 -1.5137
 4923TIP3    H236329   1.880   2.034  22.560  3.1199 -3.2629  2.0775
 4924TIP3   OH236330   2.947   0.322   0.040 -0.3927 -0.3047  0.3989
 4924TIP3    H136331   2.924   0.364  -0.043  0.4783 -0.2493  0.1726
 4924TIP3    H236332   3.036   0.290   0.026 -0.6172 -1.2053  0.9670
 4925TIP3   OH236333   2.450   1.778   2.490  0.3170 -0.6343  0.3449
 4925TIP3    H136334   2.451   1.837   2.415 -1.5943  0.3370  0.9903
 4925TIP3    H236335   2.469   1.834   2.565 -0.5014 -1.0179  0.8592
 4926TIP3   OH236336   1.199   3.423  30.988  0.3660 -0.7741  0.1084
 4926TIP3    H136337   1.259   3.476  31.040  2.3668 -1.5002 -1.3600
 4926TIP3    H236338   1.112   3.445  31.023  1.3602  1.0777  1.6187
 4927TIP3   OH236339   3.191   2.692   3.174 -0.1180 -0.5217 -0.1534
 4927TIP3    H136340   3.171   2.736   3.257  0.3504  0.4387 -0.5308
 4927TIP3    H236341   3.285   2.705   3.162 -0.0076 -1.4676 -0.3889
 4928TIP3   OH236342   2.515   2.970  12.236  0.4850 -0.0260 -0.3605
 4928TIP3    H136343   2.464   2.998  12.312  1.0389 -0.5583  0.2126
 4928TIP3    H236344   2.540   3.052  12.193  0.2610  0.2859  0.0903
 4929TIP3   OH236345   0.484   1.948   2.228 -0.1540  0.1796 -0.0731
 4929TIP3    H136346   0.457   1.976   2.316 -2.4879 -0.1840 -0.5938
 4929TIP3    H236347   0.490   1.853   2.233  3.3481  0.3132  0.5465
 4930TIP3   OH236348   0.716   3.220  28.757  0.6357 -0.6038  0.0149
 4930TIP3    H136349   0.621   3.208  28.766  0.3975  1.2944  0.3237
 4930TIP3    H236350   0.740   3.279  28.828  1.9263 -0.4489 -0.5278
 4931TIP3   OH236351   1.157   1.518  30.865  0.0952  0.0712  0.4685
 4931TIP3    H136352   1.208   1.555  30.937 -0.1725  0.7926  0.2927
 4931TIP3    H236353   1.068   1.509  30.901  0.3098 -1.0637  0.7368
 4932TIP3   OH236354   2.476   1.136  30.153  0.0650 -0.0750 -0.4381
 4932TIP3    H136355   2.533   1.189  30.209 -0.7912  1.1659 -0.6875
 4932TIP3    H236356   2.489   1.047  30.183  0.1442  0.4816  1.3021
 4933TIP3   OH236357   2.269   0.923   5.021  0.0389 -0.2850  0.4092
 4933TIP3    H136358   2.256   0.852   5.083  1.3931 -1.7825 -0.9167
 4933TIP3    H236359   2.188   0.973   5.023 -1.0323 -1.9879  1.2435
 4934TIP3   OH236360   1.700   2.416   2.877  0.1230  0.6042 -0.9620
 4934TIP3    H136361   1.759   2.343   2.895 -0.9604 -0.3695 -1.2196
 4934TIP3    H236362   1.616   2.375   2.856 -0.9545  1.9656  0.4193
 4935TIP3   OH236363   0.428   0.613  27.320 -0.5009 -0.4973 -0.0871
 4935TIP3    H136364   0.415   0.653  27.234  0.4068 -1.0065 -0.4757
 4935TIP3    H236365   0.342   0.577  27.342 -0.6323 -0.7656 -0.9891
 4936TIP3   OH236366   3.022   1.701   2.437 -0.6474  0.0052  0.1722
 4936TIP3    H136367   2.967   1.764   2.483 -0.1922  0.1711  0.4999
 4936TIP3    H236368   3.054   1.747   2.360 -2.0350 -0.5225 -0.7396
 4937TIP3   OH236369   2.147   1.705   0.108  0.4866  0.2543  0.2694
 4937TIP3    H136370   2.187   1.658   0.034  0.3103 -0.4751  0.6320
 4937TIP3    H236371   2.220   1.750   0.150  0.4810  1.3501 -0.8155
 4938TIP3   OH236372   1.374   3.311  26.939 -0.0595 -0.3194 -0.0764
 4938TIP3    H136373   1.326   3.313  27.022  0.3806 -1.8855  0.2412
 4938TIP3    H236374   1.313   3.350  26.876 -1.5758 -1.7912  0.4045
 4939TIP3   OH236375   3.372   2.310   3.321  0.5537 -0.1204 -0.3764
 4939TIP3    H136376   3.286   2.347   3.302  0.0776 -1.4112 -0.7911
 4939TIP3    H236377   3.390   2.251   3.249  0.4388 -2.1798  1.1963
 4940TIP3   OH236378   0.332   2.364   0.720 -0.2015  0.1227  0.2500
 4940TIP3    H136379   0.267   2.434   0.729 -0.5823 -0.3340  1.1733
 4940TIP3    H236380   0.378   2.362   0.804  1.3841  0.7731 -0.5613
 4941TIP3   OH236381   1.149   1.518   4.597 -0.6830 -0.1653 -1.0886
 4941TIP3    H136382   1.181   1.567   4.673  0.2576  0.2980 -1.7617
 4941TIP3    H236383   1.215   1.452   4.581 -0.3998  0.3304 -2.0518
 4942TIP3   OH236384   1.027   2.299  29.325  0.1405  0.2500  0.1954
 4942TIP3    H136385   1.064   2.361  29.262  2.0068 -1.0156 -0.0502
 4942TIP3    H236386   1.043   2.339  29.411  1.5169  0.0449  0.0546
 4943TIP3   OH236387   1.531   1.932  30.621  0.1350  0.8752 -0.3631
 4943TIP3    H136388   1.463   1.898  30.563  0.6363  3.8209 -2.9277
 4943TIP3    H236389   1.488   2.002  30.670  1.0691  2.3629 -1.5754
 4944TIP3   OH236390   2.977   1.273  29.525 -0.1938  0.4090  0.0211
 4944TIP3    H136391   2.956   1.347  29.468 -1.2324  0.4000  0.3665
 4944TIP3    H236392   2.896   1.256  29.573 -0.1784 -1.3128 -0.4646
 4945TIP3   OH236393   2.499   2.510  28.566 -0.3314 -0.4481  0.3780
 4945TIP3    H136394   2.476   2.453  28.639 -0.5875  0.2540  0.8544
 4945TIP3    H236395   2.569   2.565  28.599  0.2920 -0.8417 -0.2584
 4946TIP3   OH236396   0.525   1.254  28.276 -0.5566 -0.6577 -0.1077
 4946TIP3    H136397   0.441   1.209  28.273 -0.6788 -0.5520  1.2355
 4946TIP3    H236398   0.505   1.339  28.314 -0.2514  0.4047 -2.1676
 4947TIP3   OH236399   1.755   2.200  22.225  0.5947  0.4351 -0.5443
 4947TIP3    H136400   1.830   2.176  22.279  0.4434  1.5114  0.1672
 4947TIP3    H236401   1.782   2.180  22.135  1.6646  0.6607 -0.2775
 4948TIP3   OH236402   1.360   0.794   0.467 -0.0005  0.2821 -0.2229
 4948TIP3    H136403   1.415   0.759   0.397 -0.3848  0.4519 -0.6167
 4948TIP3    H236404   1.345   0.719   0.526 -0.1069  0.0023 -0.6006
 4949TIP3   OH236405   2.545   0.834  31.855 -0.5895  0.1754  0.0821
 4949TIP3    H136406   2.459   0.851  31.815 -0.7065  0.1117  0.3072
 4949TIP3    H236407   2.560   0.910  31.912 -0.3693  0.3236 -0.1709
 4950TIP3   OH236408   1.594   1.524  31.372  0.1864 -0.7094  0.4495
 4950TIP3    H136409   1.519   1.467  31.355  0.5149 -1.4986  1.5402
 4950TIP3    H236410   1.570   1.572  31.451  1.1884 -1.6705  1.3803
 4951TIP3   OH236411   1.369   1.047   6.745 -0.4610 -0.4287  0.0287
 4951TIP3    H136412   1.295   1.077   6.694  0.3279  0.4459 -0.6320
 4951TIP3    H236413   1.358   1.089   6.831 -2.1499 -2.4263  0.8906
 4952TIP3   OH236414   2.430   0.599  31.624 -0.3629 -0.2364 -0.3231
 4952TIP3    H136415   2.349   0.629  31.665  0.2391  0.4663  0.3746
 4952TIP3    H236416   2.416   0.505  31.610 -1.4953 -0.0269 -0.6953
 4953TIP3   OH236417   2.786   2.979  14.074 -0.0115 -0.1208 -0.2172
 4953TIP3    H136418   2.768   2.962  13.982 -0.0556 -0.5757 -0.1254
 4953TIP3    H236419   2.797   3.074  14.079  2.6337 -0.2798 -1.1685
 4954TIP3   OH236420   3.511   1.896   6.903  0.7239  0.0223 -0.7545
 4954TIP3    H136421   3.434   1.901   6.846  0.1091 -1.0257 -0.0428
 4954TIP3    H236422   3.486   1.941   6.983  1.9742  2.4965 -1.6600
 4955TIP3   OH236423   3.169   1.237   3.525 -0.2994  0.3742  0.4106
 4955TIP3    H136424   3.214   1.300   3.469 -0.9587  2.4690  2.0902
 4955TIP3    H236425   3.082   1.228   3.486 -0.5617  1.3725  0.7389
 4956TIP3   OH236426   1.095   0.468  11.340 -0.1075  0.4289  0.7887
 4956TIP3    H136427   1.062   0.472  11.250  0.0864 -0.2501  0.6845
 4956TIP3    H236428   1.062   0.548  11.381 -2.0426 -0.3183  0.7470
 4957TIP3   OH236429   2.079   3.120   1.345 -0.0597  0.1770  0.3284
 4957TIP3    H136430   2.053   3.205   1.311 -1.6577 -0.6530 -0.6695
 4957TIP3    H236431   2.021   3.058   1.300  0.1840 -1.3142  1.9678
 4958TIP3   OH236432   0.972   2.847  26.451  0.1331  0.2366  0.5072
 4958TIP3    H136433   0.891   2.842  26.399 -0.7446 -0.7710  1.9018
 4958TIP3    H236434   0.975   2.763  26.498  0.8548  1.1259  2.1221
 4959TIP3   OH236435   2.357   0.408  31.079 -0.3576 -0.4009 -0.3473
 4959TIP3    H136436   2.365   0.416  31.174 -2.2844 -0.8181 -0.1058
 4959TIP3    H236437   2.347   0.498  31.048  0.4183 -0.2528 -0.1871
 4960TIP3   OH236438   1.145   1.436   4.139  0.1958 -0.2403 -0.0725
 4960TIP3    H136439   1.188   1.469   4.060  1.2381  0.5983  0.8172
 4960TIP3    H236440   1.150   1.341   4.130  0.1020 -0.1672 -1.1066
 4961TIP3   OH236441   2.201   2.614  28.571 -0.2609  0.0354  0.2614
 4961TIP3    H136442   2.181   2.689  28.515 -1.1042  0.6614  1.3439
 4961TIP3    H236443   2.290   2.632  28.603  0.5865 -0.7648 -1.4935
 4962TIP3   OH236444   1.644   1.678   6.856  0.0968 -0.0939 -0.0597
 4962TIP3    H136445   1.676   1.716   6.774 -1.3594  0.0571 -0.5791
 4962TIP3    H236446   1.550   1.665   6.841 -0.5306  1.4347  2.1468
 4963TIP3   OH236447   0.967   0.780  31.531 -0.3707  0.1379 -0.5240
 4963TIP3    H136448   1.054   0.789  31.492  0.0753  1.2014  0.6664
 4963TIP3    H236449   0.983   0.738  31.616 -1.1932 -1.0274 -0.9167
 4964TIP3   OH236450   1.832   2.196   4.141 -0.8139 -0.5579  0.3652
 4964TIP3    H136451   1.857   2.289   4.143 -0.5912 -0.6357  1.5762
 4964TIP3    H236452   1.916   2.150   4.132 -0.8192 -0.6884  0.9903
 4965TIP3   OH236453   2.553   3.351   4.706  0.1323  0.7973 -0.1396
 4965TIP3    H136454   2.549   3.255   4.706  2.1531  0.6736 -0.9596
 4965TIP3    H236455   2.498   3.377   4.632  0.8242  0.1781 -0.8843
 4966TIP3   OH236456   1.205   1.257  32.397 -0.1145  0.3570 -0.0659
 4966TIP3    H136457   1.209   1.326  32.331  1.4151  0.3634 -0.0069
 4966TIP3    H236458   1.215   1.176  32.348 -0.1222  0.2868  0.0481
 4967TIP3   OH236459   1.125   1.110  28.712 -0.1545 -0.1028 -0.5201
 4967TIP3    H136460   1.070   1.043  28.754  0.2678 -0.3983 -0.4376
 4967TIP3    H236461   1.066   1.152  28.649 -0.6938  0.1240  0.1341
 4968TIP3   OH236462   2.057   0.763   0.895 -0.8075 -0.6242 -0.0210
 4968TIP3    H136463   2.098   0.812   0.966 -0.7875 -0.7119  0.0286
 4968TIP3    H236464   2.089   0.804   0.815  0.2068 -1.3447 -0.0095
 4969TIP3   OH236465   1.334   0.583   6.877 -0.3753 -0.0652  0.2451
 4969TIP3    H136466   1.414   0.543   6.841 -0.5763 -0.3081  0.0638
 4969TIP3    H236467   1.302   0.640   6.807 -1.5090 -1.5641 -0.5080
 4970TIP3   OH236468   0.642   2.370  23.070 -0.0451 -0.2872 -0.0425
 4970TIP3    H136469   0.717   2.311  23.081  1.0227  0.8413 -0.8751
 4970TIP3    H236470   0.570   2.313  23.043  0.2972 -1.4968  1.5154
 4971TIP3   OH236471   3.136   3.522   2.196 -0.4309 -0.3271 -0.0349
 4971TIP3    H136472   3.173   3.508   2.108 -1.5416  1.5703 -0.8566
 4971TIP3    H236473   3.125   3.617   2.202  1.5390 -0.1595  2.9989
 4972TIP3   OH236474   0.211   1.310  19.463  0.1979  0.1640 -0.2371
 4972TIP3    H136475   0.281   1.357  19.417 -0.4459 -0.9785 -2.5661
 4972TIP3    H236476   0.133   1.326  19.410 -0.9035 -0.2171  1.2032
 4973TIP3   OH236477   2.759   3.230   5.704 -0.0822  0.0757 -0.0484
 4973TIP3    H136478   2.781   3.190   5.788 -1.2384 -1.0009 -0.2329
 4973TIP3    H236479   2.698   3.301   5.726 -3.4232 -2.5388 -0.1679
 4974TIP3   OH236480   3.118   1.382  32.139 -0.2147  0.2140 -0.6585
 4974TIP3    H136481   3.105   1.290  32.117 -0.7663 -0.3139  1.5959
 4974TIP3    H236482   3.036   1.408  32.182  0.7326  1.1098  0.6950
 4975TIP3   OH236483   1.358   1.279   3.568  0.7204  0.0263 -0.3841
 4975TIP3    H136484   1.359   1.374   3.557 -0.1298 -0.0395 -1.0613
 4975TIP3    H236485   1.266   1.255   3.568  0.9063 -0.7568  0.2735
 4976TIP3   OH236486   2.743   0.765   3.529  0.0454 -0.1952  0.1695
 4976TIP3    H136487   2.810   0.821   3.568  1.2597 -2.1177  0.9561
 4976TIP3    H236488   2.752   0.780   3.435  3.0692 -1.8883  0.0644
 4977TIP3   OH236489   1.628   3.375   6.583 -0.6322  0.2953  0.2153
 4977TIP3    H136490   1.581   3.419   6.513 -0.6324 -1.6260 -1.0531
 4977TIP3    H236491   1.692   3.439   6.612  0.4435  0.6531 -2.6366
 4978TIP3   OH236492   2.573   1.365  19.351 -0.1090 -0.0511 -0.0337
 4978TIP3    H136493   2.554   1.371  19.257 -3.2268  4.0169  0.5730
 4978TIP3    H236494   2.513   1.298  19.383  0.3752 -0.8617 -0.7548
 4979TIP3   OH236495   2.066   2.548  29.855  0.8498  0.6311 -0.0923
 4979TIP3    H136496   2.065   2.453  29.840  0.0610  0.8756 -1.7825
 4979TIP3    H236497   1.991   2.564  29.912  0.3199  0.3571 -0.6979
 4980TIP3   OH236498   0.201   1.352   3.884 -0.2137  0.1349  0.1170
 4980TIP3    H136499   0.274   1.404   3.917  0.8807 -1.4913  0.3415
 4980TIP3    H236500   0.136   1.354   3.954 -0.1906  1.1626  0.1253
 4981TIP3   OH236501   0.274   1.892   2.066 -0.0684 -0.0712  0.2598
 4981TIP3    H136502   0.258   1.801   2.040 -2.0643  0.3293 -0.0427
 4981TIP3    H236503   0.335   1.885   2.139  0.8606 -1.5710 -0.5909
 4982TIP3   OH236504   0.055   1.816  28.224  0.0396  0.1678  0.0884
 4982TIP3    H136505   0.017   1.899  28.255 -1.1727 -0.4246  0.2777
 4982TIP3    H236506   0.144   1.816  28.258  0.4881  1.9411 -0.9613
 4983TIP3   OH236507   1.064   2.127  25.123  0.0596 -0.6989 -0.4227
 4983TIP3    H136508   1.056   2.177  25.041 -1.0714 -1.0007 -0.5096
 4983TIP3    H236509   1.132   2.062  25.105 -1.3659 -1.9094 -1.7476
 4984TIP3   OH236510   1.333   2.888  28.830  0.9860 -0.1758 -0.3136
 4984TIP3    H136511   1.338   2.894  28.926  2.7627  0.5645 -0.4224
 4984TIP3    H236512   1.246   2.851  28.814  1.0192 -1.2445  1.6116
 4985TIP3   OH236513   2.136   2.979   2.616  0.0122 -0.2843 -0.4723
 4985TIP3    H136514   2.225   3.014   2.609  0.0652 -0.5120 -1.0095
 4985TIP3    H236515   2.133   2.937   2.702  0.3467 -0.0574 -0.3492
 4986TIP3   OH236516   3.238   1.052  30.887 -0.3370  0.3037 -0.1033
 4986TIP3    H136517   3.324   1.057  30.845 -0.3421 -1.2084 -0.3455
 4986TIP3    H236518   3.180   1.017  30.819 -0.8168 -0.0989  0.5017
 4987TIP3   OH236519   1.539   0.959  31.137 -0.2219  0.1347 -0.1150
 4987TIP3    H136520   1.525   0.976  31.043  1.1441 -0.0428 -0.3652
 4987TIP3    H236521   1.615   1.012  31.160  0.6476 -1.2976  0.4376
 4988TIP3   OH236522   3.544   0.145   3.330  0.6249  0.0398  0.2735
 4988TIP3    H136523   3.610   0.095   3.377 -0.2662  0.4944  2.0790
 4988TIP3    H236524   3.577   0.149   3.240  3.1046  0.3844  1.1352
 4989TIP3   OH236525   2.741   1.938   2.817  1.0240  0.5373  0.6393
 4989TIP3    H136526   2.683   1.987   2.875  1.2804  1.9503 -0.2373
 4989TIP3    H236527   2.775   1.867   2.871 -1.7375 -0.5736  1.0798
 4990TIP3   OH236528   2.249   2.356  18.487  0.5306  0.3101  0.0257
 4990TIP3    H136529   2.201   2.417  18.431  0.9419 -0.5373 -1.2948
 4990TIP3    H236530   2.298   2.301  18.426 -0.5107 -1.9353  1.0990
 4991TIP3   OH236531   2.560   3.452   5.093 -0.0445  1.2348 -0.0481
 4991TIP3    H136532   2.475   3.480   5.059 -0.9015  0.1330  1.1150
 4991TIP3    H236533   2.540   3.379   5.152  1.7760  0.4910 -0.2845
 4992TIP3   OH236534   1.662   1.789  30.225 -0.1298 -0.5164 -0.1604
 4992TIP3    H136535   1.733   1.813  30.165 -0.3853  1.0999  0.1282
 4992TIP3    H236536   1.600   1.741  30.171  0.6906 -1.0446 -0.6580
 4993TIP3   OH236537   2.266   1.125   0.396 -0.2020  0.0309  0.3096
 4993TIP3    H136538   2.191   1.180   0.418  0.1137  0.7619 -0.3884
 4993TIP3    H236539   2.313   1.114   0.478 -0.3568  0.6776  0.4892
 4994TIP3   OH236540   1.169   2.573   4.372 -0.0515  0.3734  0.7810
 4994TIP3    H136541   1.259   2.540   4.374 -0.2017 -0.0392  0.8749
 4994TIP3    H236542   1.168   2.635   4.299  0.4947  0.9366  1.2412
 4995TIP3   OH236543   2.534   1.362  21.564  0.5057 -0.4556  0.1642
 4995TIP3    H136544   2.587   1.398  21.635 -0.8996  1.1936  0.4408
 4995TIP3    H236545   2.456   1.327  21.607 -1.1254  1.9997 -0.5893
 4996TIP3   OH236546   0.889   0.837  29.546 -0.2634  0.1387  0.0311
 4996TIP3    H136547   0.902   0.742  29.548  0.9986  0.2770  2.8132
 4996TIP3    H236548   0.954   0.871  29.607 -0.3124  2.8832 -1.3097
 4997TIP3   OH236549   2.165   3.089   6.108 -0.4141  0.0795  0.1940
 4997TIP3    H136550   2.151   3.036   6.186  0.0781 -0.4025 -0.0383
 4997TIP3    H236551   2.253   3.125   6.117  0.8492 -2.2894 -1.4192
 4998TIP3   OH236552   1.386   2.224  31.103  0.4086 -0.2976  0.2817
 4998TIP3    H136553   1.371   2.315  31.079  0.4876 -0.2197  0.5234
 4998TIP3    H236554   1.475   2.206  31.072 -0.1497 -0.7463 -1.1156
 4999TIP3   OH236555   0.505   3.390  32.612 -0.0017 -0.5530 -0.3887
 4999TIP3    H136556   0.466   3.345  32.537 -1.1474 -0.4300  0.1181
 4999TIP3    H236557   0.586   3.342  32.630  0.1652 -0.7303 -1.5496
 5000TIP3   OH236558   1.760   1.163   6.182 -0.7231 -0.1194  0.2775
 5000TIP3    H136559   1.776   1.157   6.276 -0.8863 -0.0697  0.3102
 5000TIP3    H236560   1.664   1.163   6.175 -0.7257  0.8156  0.1753
 5001TIP3   OH236561   1.768   0.863   3.147  0.0566  0.2930  0.4816
 5001TIP3    H136562   1.847   0.819   3.115  0.8880  1.3864  0.9429
 5001TIP3    H236563   1.794   0.898   3.233 -0.8992  0.7542  0.5938
 5002TIP3   OH236564   1.318   2.456  29.407 -0.4520  0.0994 -0.2164
 5002TIP3    H136565   1.340   2.373  29.450 -1.3806  0.0867  0.2429
 5002TIP3    H236566   1.388   2.467  29.342 -0.3906 -1.1184 -0.3953
 5003TIP3   OH236567   2.777   1.266  19.493  0.5590 -0.6835 -0.0817
 5003TIP3    H136568   2.707   1.319  19.453  0.1723 -0.6533  0.6184
 5003TIP3    H236569   2.805   1.206  19.424 -1.2739 -1.8001  0.0959
 5004TIP3   OH236570   2.712   1.247  29.489  0.5128 -0.6520 -0.4085
 5004TIP3    H136571   2.682   1.156  29.489 -1.4744 -0.0529  0.7715
 5004TIP3    H236572   2.744   1.262  29.400 -0.0259 -2.2155 -0.8935
 5005TIP3   OH236573   2.086   0.182  30.749  0.0403 -0.0115 -0.0317
 5005TIP3    H136574   2.101   0.276  30.734  0.0840  0.2499  1.4663
 5005TIP3    H236575   2.113   0.140  30.667 -0.7838  1.3427 -1.0403
 5006TIP3   OH236576   2.370   2.830   4.535  0.2590  0.4732 -0.1521
 5006TIP3    H136577   2.360   2.735   4.540 -0.9481  0.6009  0.1326
 5006TIP3    H236578   2.315   2.864   4.606 -0.2583  1.4303 -0.9948
 5007TIP3   OH236579   1.392   1.078  31.334  0.1360 -0.3595  0.0548
 5007TIP3    H136580   1.448   1.042  31.403  0.7052  0.0355 -0.1844
 5007TIP3    H236581   1.421   1.034  31.254 -0.7724 -1.0854  0.1189
 5008TIP3   OH236582   0.268   2.400  26.331  0.2157  0.3051 -0.1453
 5008TIP3    H136583   0.180   2.372  26.305  0.2831 -0.4092  0.3525
 5008TIP3    H236584   0.254   2.452  26.410  0.2305  0.2837 -0.1292
 5009TIP3   OH236585   1.922   1.341  28.483  0.3246  0.4342 -0.4525
 5009TIP3    H136586   1.881   1.407  28.427 -0.9358  0.4985  0.5051
 5009TIP3    H236587   1.952   1.274  28.422 -1.7047  0.1329 -1.1964
 5010TIP3   OH236588   0.972   1.886  30.426 -0.6817 -0.6482 -0.1650
 5010TIP3    H136589   1.024   1.967  30.422 -0.9747 -0.4371  0.1819
 5010TIP3    H236590   1.032   1.817  30.401  0.1593 -0.5863  1.5433
 5011TIP3   OH236591   2.545   1.421   1.933  0.0998  0.1829 -0.3016
 5011TIP3    H136592   2.597   1.487   1.887  0.0768 -1.3081 -2.6792
 5011TIP3    H236593   2.475   1.470   1.975  1.1207  1.8318 -0.4385
 5012TIP3   OH236594   2.483   2.320  19.600 -0.5498 -0.0494  0.7644
 5012TIP3    H136595   2.443   2.406  19.617 -0.6053 -0.4768  3.2745
 5012TIP3    H236596   2.415   2.271  19.554 -1.4975  0.4888  1.5371
 5013TIP3   OH236597   2.544   1.542  27.463  0.0821 -0.4041  0.1225
 5013TIP3    H136598   2.592   1.613  27.506 -0.4233  0.0758 -0.0940
 5013TIP3    H236599   2.505   1.493  27.536 -0.2181  0.0090  0.2462
 5014TIP3   OH236600   3.361   1.384   6.279  0.0328 -0.4423  0.3504
 5014TIP3    H136601   3.303   1.316   6.313  0.2383 -0.1206  1.3955
 5014TIP3    H236602   3.418   1.339   6.216 -0.8373 -0.9113 -0.1141
 5015TIP3   OH236603   2.659   0.644  32.632 -0.3195 -0.2146  0.2954
 5015TIP3    H136604   2.605   0.581  32.585  0.3758 -0.8099  0.2648
 5015TIP3    H236605   2.736   0.657  32.576  0.2658 -0.5257  0.9956
 5016TIP3   OH236606   0.999   0.801   5.511  0.7845 -0.0877 -0.0355
 5016TIP3    H136607   1.044   0.727   5.469  1.2886  0.3682 -0.3109
 5016TIP3    H236608   1.059   0.829   5.580  1.4293  1.1927 -1.0753
 5017TIP3   OH236609   0.498   1.797   6.396 -0.4307  0.5075 -0.1431
 5017TIP3    H136610   0.580   1.838   6.369  0.3866 -0.7090  0.4298
 5017TIP3    H236611   0.463   1.759   6.315 -0.0732  0.4198 -0.2587
 5018TIP3   OH236612   1.887   2.504  32.231  0.7901  0.2782 -0.3793
 5018TIP3    H136613   1.837   2.542  32.158  2.0442  2.9894  0.0461
 5018TIP3    H236614   1.832   2.517  32.308  0.6515  0.0230 -0.4385
 5019TIP3   OH236615   0.946   0.519   0.877  0.8777 -0.0076  0.3952
 5019TIP3    H136616   0.881   0.467   0.924 -0.3601  1.7049  0.6835
 5019TIP3    H236617   0.945   0.485   0.788 -0.1236 -0.3013  0.5030
 5020TIP3   OH236618   0.983   1.058  26.590  0.3240  0.2102  0.0081
 5020TIP3    H136619   0.937   1.115  26.651  0.7014  0.8084 -0.2585
 5020TIP3    H236620   0.940   1.074  26.506  1.1437  0.9260 -0.2838
 5021TIP3   OH236621   3.272   1.816   0.668 -0.6591 -0.7998 -0.1658
 5021TIP3    H136622   3.361   1.795   0.641 -0.2026 -0.9458  1.3239
 5021TIP3    H236623   3.246   1.890   0.613  1.3280  0.8551  0.9632
 5022TIP3   OH236624   3.493   2.015  32.878  0.4406  0.0487  0.6489
 5022TIP3    H136625   3.441   1.944  32.842 -1.1629  0.2212  2.4692
 5022TIP3    H236626   3.436   2.092  32.873  0.7791  0.4152  2.0086
 5023TIP3   OH236627   0.782   0.685   4.213  0.4127 -0.7286 -0.4049
 5023TIP3    H136628   0.832   0.626   4.268 -0.3652 -2.7664 -1.7464
 5023TIP3    H236629   0.846   0.748   4.181  1.5006 -1.4350  0.2999
 5024TIP3   OH236630   1.637   3.361  28.166 -0.1351  0.1567 -0.8107
 5024TIP3    H136631   1.658   3.405  28.084 -1.8068  0.2650 -1.2244
 5024TIP3    H236632   1.620   3.431  28.229 -2.2826  0.1841 -1.3318
 5025TIP3   OH236633   0.181   2.306   2.953 -0.2708 -0.2932  0.3186
 5025TIP3    H136634   0.114   2.274   3.013 -0.9828  0.1805 -0.2173
 5025TIP3    H236635   0.167   2.401   2.949  0.3995 -0.1939  0.1562
 5026TIP3   OH236636   1.287   2.275  18.881 -0.5955  0.5841 -0.6994
 5026TIP3    H136637   1.208   2.314  18.918  0.2388  2.3360 -0.6590
 5026TIP3    H236638   1.358   2.304  18.938  0.2627  0.3119 -1.5893
 5027TIP3   OH236639   2.836   0.635  28.220  0.4201 -0.1082 -0.5454
 5027TIP3    H136640   2.820   0.685  28.300 -0.5342 -0.4687 -0.4956
 5027TIP3    H236641   2.767   0.663  28.160  0.4632 -0.6497 -0.8595
 5028TIP3   OH236642   0.505   2.515   1.400  0.1397  0.1899 -0.0740
 5028TIP3    H136643   0.543   2.513   1.488  1.5937  2.6495 -0.5697
 5028TIP3    H236644   0.546   2.441   1.355  0.9658  0.1396  0.7206
 5029TIP3   OH236645   0.070   2.690  30.649 -0.5337 -0.2678 -0.1521
 5029TIP3    H136646  -0.010   2.637  30.653 -0.0237 -1.1269 -1.0795
 5029TIP3    H236647   0.111   2.666  30.566  0.2071  0.8761 -0.1346
 5030TIP3   OH236648   3.359   2.969  32.411 -0.3533 -0.3451 -0.0934
 5030TIP3    H136649   3.269   2.995  32.392  0.2822  0.1223 -2.8319
 5030TIP3    H236650   3.365   2.878  32.380  0.4878  0.1159 -1.3428
 5031TIP3   OH236651   0.369   3.279  28.434 -0.0507  0.5715  0.2398
 5031TIP3    H136652   0.399   3.198  28.394 -0.0994 -0.4748  2.1836
 5031TIP3    H236653   0.447   3.333  28.442 -0.0384  0.8038 -1.1708
 5032TIP3   OH236654   3.519   0.501  26.929  0.0037  0.6476 -0.0985
 5032TIP3    H136655   3.581   0.499  27.002  0.2603  1.6647 -0.2722
 5032TIP3    H236656   3.520   0.592  26.899  1.1219 -0.0473 -2.3949
 5033TIP3   OH236657   2.647   1.620   0.505  0.2381 -0.2892 -0.1857
 5033TIP3    H136658   2.614   1.541   0.548  0.1687  0.7020  1.6660
 5033TIP3    H236659   2.721   1.648   0.559  0.1852  0.9729 -0.7340
 5034TIP3   OH236660   0.386   2.303   6.786 -0.4137  0.5852  0.0536
 5034TIP3    H136661   0.383   2.359   6.708  0.1968 -0.4987 -0.7764
 5034TIP3    H236662   0.295   2.280   6.803 -0.6203  1.4236  0.1017
 5035TIP3   OH236663   0.663   0.459  26.245 -0.4060  0.2523  0.0771
 5035TIP3    H136664   0.676   0.526  26.178 -0.2750 -1.1381 -1.3622
 5035TIP3    H236665   0.752   0.435  26.272 -0.3748 -0.4403 -0.5935
 5036TIP3   OH236666   2.454   2.761  32.870  0.2784  0.0045  0.9511
 5036TIP3    H136667   2.407   2.838  32.903 -0.2766  0.1344 -0.0793
 5036TIP3    H236668   2.388   2.691  32.870  0.7634 -0.4604  1.8161
 5037TIP3   OH236669   2.249   2.262  30.992  0.2827 -0.6710 -0.5073
 5037TIP3    H136670   2.338   2.230  31.005  0.0165 -1.4555 -0.5350
 5037TIP3    H236671   2.200   2.225  31.065  0.2711  0.9819  0.3479
 5038TIP3   OH236672   0.349   1.896  29.733 -0.0042 -0.0854  0.5861
 5038TIP3    H136673   0.360   1.815  29.682  2.2354  2.2741 -3.1675
 5038TIP3    H236674   0.420   1.894  29.797  0.2851 -0.8917  0.2614
 5039TIP3   OH236675   0.199   1.392   7.088  0.4068 -0.3462  0.1776
 5039TIP3    H136676   0.143   1.357   7.158  0.8690  0.2013  0.8333
 5039TIP3    H236677   0.254   1.318   7.063  0.4840 -0.4514  0.6438
 5040TIP3   OH236678   2.322   2.447  14.583 -0.6465  0.3567 -0.2954
 5040TIP3    H136679   2.349   2.438  14.674 -1.2052  1.9788  0.0559
 5040TIP3    H236680   2.397   2.488  14.540  0.5735 -2.4960 -1.1585
 5041TIP3   OH236681   0.666   0.287   2.010 -0.3966 -0.3519  0.5763
 5041TIP3    H136682   0.632   0.207   1.971 -1.4915 -0.4551  1.7115
 5041TIP3    H236683   0.602   0.354   1.987 -0.8670 -0.3386  1.8558
 5042TIP3   OH236684   0.047   1.836  28.659 -0.1344 -0.2813  0.3450
 5042TIP3    H136685  -0.005   1.756  28.662 -0.3544 -0.1391  0.3697
 5042TIP3    H236686   0.136   1.806  28.638 -0.0765 -0.5962  1.0047
 5043TIP3   OH236687   0.727   1.379  32.561 -0.7374 -0.4449  0.7696
 5043TIP3    H136688   0.802   1.339  32.606 -0.7241 -1.5787 -0.2046
 5043TIP3    H236689   0.753   1.380  32.469 -1.9641 -0.9655  0.4019
 5044TIP3   OH236690   2.055   1.545   5.195  0.1713 -0.0218  0.3711
 5044TIP3    H136691   2.147   1.544   5.224  0.1135  0.2234  0.5689
 5044TIP3    H236692   2.051   1.616   5.132  0.5902 -1.3770 -1.2501
 5045TIP3   OH236693   1.556   3.217   3.570  0.2328  0.0048  0.0739
 5045TIP3    H136694   1.549   3.204   3.476 -1.0109 -0.4531  0.2023
 5045TIP3    H236695   1.638   3.175   3.595 -0.9818 -2.8293 -0.3332
 5046TIP3   OH236696   2.495   2.264   5.150 -0.5263 -0.2662  0.9026
 5046TIP3    H136697   2.478   2.315   5.229  0.4828 -0.3602  1.1921
 5046TIP3    H236698   2.581   2.224   5.165  0.6484  1.3506 -1.0756
 5047TIP3   OH236699   3.134   1.684   2.859 -1.1587  0.4407 -0.0154
 5047TIP3    H136700   3.046   1.686   2.896 -0.9707 -0.6302  0.5209
 5047TIP3    H236701   3.146   1.593   2.830  0.4115  0.1195  1.5253
 5048TIP3   OH236702   1.766   3.334  27.480 -0.4814  0.1992 -0.3040
 5048TIP3    H136703   1.842   3.340  27.421  1.0456 -2.3437  1.1921
 5048TIP3    H236704   1.717   3.414  27.465  1.2578  0.8656 -3.0578
 5049TIP3   OH236705   0.799   1.678   1.462 -0.4132  0.3239 -0.4113
 5049TIP3    H136706   0.761   1.662   1.376  0.2649  0.5430 -0.7570
 5049TIP3    H236707   0.799   1.774   1.471 -0.8904  0.2908  0.0231
 5050TIP3   OH236708   0.200   3.542   5.445  0.5223 -0.6747 -0.4246
 5050TIP3    H136709   0.202   3.602   5.519 -0.1308 -0.8544 -0.2610
 5050TIP3    H236710   0.108   3.531   5.425  0.7155 -0.1913 -1.6331
 5051TIP3   OH236711   2.674   0.260   0.053  0.6828 -0.3618 -0.4680
 5051TIP3    H136712   2.667   0.208   0.133 -0.1387  1.3454  0.6407
 5051TIP3    H236713   2.759   0.303   0.059  0.8060 -0.5599 -0.7471
 5052TIP3   OH236714   3.138   2.140  18.736  0.4825 -0.2808  0.3837
 5052TIP3    H136715   3.175   2.224  18.763 -1.2031  0.5978  0.1293
 5052TIP3    H236716   3.173   2.127  18.647 -0.0737  0.7142 -0.0050
 5053TIP3   OH236717   0.388   2.634  28.015 -0.4601 -0.3552 -0.5253
 5053TIP3    H136718   0.350   2.553  28.048  0.1362 -0.2965  0.3362
 5053TIP3    H236719   0.482   2.615  28.006 -0.2141  0.4218  0.2905
 5054TIP3   OH236720   1.974   2.422   0.679  0.1243  0.2025 -0.1512
 5054TIP3    H136721   1.938   2.337   0.703 -3.6076  1.5716 -0.2786
 5054TIP3    H236722   2.009   2.409   0.591 -1.5388 -0.9795 -0.6964
 5055TIP3   OH236723   0.426   1.216   1.849  0.1880 -0.2379  0.0542
 5055TIP3    H136724   0.487   1.175   1.787  0.1036  0.6867 -0.6658
 5055TIP3    H236725   0.470   1.212   1.933  1.5040  0.8928 -0.5431
 5056TIP3   OH236726   3.477   0.333   1.306  1.0916  0.8383  0.5430
 5056TIP3    H136727   3.488   0.420   1.266  0.0120  0.6518 -0.1962
 5056TIP3    H236728   3.387   0.332   1.337  0.4183 -0.7178 -1.2748
 5057TIP3   OH236729   1.971   2.372  14.041  1.1375  0.1419  0.3013
 5057TIP3    H136730   1.964   2.276  14.037 -0.0852  0.2300  0.0166
 5057TIP3    H236731   1.920   2.397  14.118  2.3290  0.5067  1.0013
 5058TIP3   OH236732   1.306   0.868  27.845 -0.1345 -0.0586 -0.0889
 5058TIP3    H136733   1.237   0.898  27.904  0.9528 -1.7635  2.2283
 5058TIP3    H236734   1.262   0.848  27.763 -2.3234 -0.7142  1.1850
 5059TIP3   OH236735   3.286   2.544   4.591  0.0187  0.0272 -0.1593
 5059TIP3    H136736   3.240   2.625   4.568  0.0907  0.3752  0.8928
 5059TIP3    H236737   3.243   2.513   4.670  1.0831 -0.0526  0.4025
 5060TIP3   OH236738   0.540   0.895  25.840 -0.1464 -0.3388  0.2808
 5060TIP3    H136739   0.461   0.946  25.859 -0.0073 -0.1366  0.3169
 5060TIP3    H236740   0.528   0.813  25.888  0.5617  0.4709  1.9447
 5061TIP3   OH236741   0.186   1.732  26.299  0.2777 -0.4900 -0.2997
 5061TIP3    H136742   0.129   1.719  26.223  1.4598 -0.8945 -1.1430
 5061TIP3    H236743   0.269   1.761  26.262  0.5695  0.3312  0.9235
 5062TIP3   OH236744   1.914   2.479  10.711 -0.2781  0.0688  0.1863
 5062TIP3    H136745   1.873   2.482  10.624 -0.3750  0.4065  0.2406
 5062TIP3    H236746   1.997   2.525  10.700  1.1113 -2.4004 -0.4381
 5063TIP3   OH236747   1.995   2.380   1.412 -0.4334  0.0873 -0.4991
 5063TIP3    H136748   1.949   2.458   1.441  0.2159  0.1799  0.3169
 5063TIP3    H236749   1.926   2.317   1.392 -0.9394  0.6359 -0.4886
 5064TIP3   OH236750   1.884   3.356  30.977 -0.1203 -0.5123 -0.1917
 5064TIP3    H136751   1.834   3.372  31.057 -0.8849 -0.5338 -0.6604
 5064TIP3    H236752   1.962   3.309  31.006 -0.9075 -1.4681  0.4080
 5065TIP3   OH236753   2.844   0.811   1.085 -0.0842 -0.3137  0.8153
 5065TIP3    H136754   2.876   0.877   1.146 -2.4376  0.2043  1.5598
 5065TIP3    H236755   2.761   0.845   1.052 -0.1868 -1.8134 -0.6473
 5066TIP3   OH236756   2.012   2.292   0.411  0.0491 -0.3030  0.0812
 5066TIP3    H136757   2.088   2.234   0.416  0.9611  0.7893 -0.6742
 5066TIP3    H236758   1.973   2.274   0.326  0.9985  0.9478 -0.6523
 5067TIP3   OH236759   0.020   3.272  26.930  0.7469 -0.1810 -0.4215
 5067TIP3    H136760  -0.066   3.307  26.953  0.8066  0.9096 -1.7536
 5067TIP3    H236761   0.007   3.233  26.843  1.4256 -0.6750 -0.3069
 5068TIP3   OH236762   3.036   0.491   4.117  0.0512  0.0058 -0.1771
 5068TIP3    H136763   3.006   0.406   4.084  2.2102 -0.4770 -1.0572
 5068TIP3    H236764   3.098   0.470   4.187  1.1312  0.7954 -0.8630
 5069TIP3   OH236765   1.888   3.464   5.554  0.1424 -0.0267 -0.2105
 5069TIP3    H136766   1.927   3.489   5.637 -0.2764  1.2834 -0.3769
 5069TIP3    H236767   1.918   3.375   5.539  0.6867 -0.0786  1.0604
 5070TIP3   OH236768   0.118   0.071   0.274 -0.5569 -0.1809 -0.1286
 5070TIP3    H136769   0.119   0.166   0.283 -1.5140 -0.1198 -0.6021
 5070TIP3    H236770   0.170   0.054   0.196  0.7568 -0.1579  0.7018
 5071TIP3   OH236771   1.154   2.052  18.915  0.7731  0.0018 -0.0171
 5071TIP3    H136772   1.065   2.085  18.925 -0.0579 -2.3412  1.0833
 5071TIP3    H236773   1.205   2.128  18.884 -1.3422  1.6889  0.4104
 5072TIP3   OH236774   2.535   2.705  29.035  0.2932 -0.7044 -0.0075
 5072TIP3    H136775   2.489   2.690  28.953 -0.2030  1.3577 -0.1620
 5072TIP3    H236776   2.614   2.752  29.011 -0.1643  0.4883  0.7057
 5073TIP3   OH236777   1.385   1.078   2.751  0.4251 -0.1030  0.3619
 5073TIP3    H136778   1.457   1.015   2.746  0.6236  0.0651  0.9217
 5073TIP3    H236779   1.370   1.089   2.845 -0.0907  0.1385  0.2532
 5074TIP3   OH236780   2.636   3.391   2.009  0.2234 -0.3459 -0.4204
 5074TIP3    H136781   2.552   3.356   1.979  0.2055  0.2208 -1.0524
 5074TIP3    H236782   2.694   3.315   2.013 -0.3023 -0.7370 -0.0036
 5075TIP3   OH236783   2.556   1.402   5.960 -0.5739 -0.0702  0.0216
 5075TIP3    H136784   2.521   1.491   5.961  1.6260  0.8373  0.2029
 5075TIP3    H236785   2.556   1.375   6.052  2.4183  1.3317  0.5439
 5076TIP3   OH236786   1.070   3.202  31.730  0.2099 -0.2763 -1.1617
 5076TIP3    H136787   1.144   3.240  31.777  1.3527 -1.3794 -1.9707
 5076TIP3    H236788   1.083   3.230  31.639 -0.5669 -0.1974 -1.2522
 5077TIP3   OH236789   2.427   0.397  27.264 -0.5322 -0.0030  0.4212
 5077TIP3    H136790   2.394   0.456  27.333 -0.6765 -0.2739  0.5839
 5077TIP3    H236791   2.376   0.420  27.187 -0.5132  0.1617  0.4573
 5078TIP3   OH236792   2.397   1.504  29.359  0.2433 -0.1928  0.2943
 5078TIP3    H136793   2.321   1.457  29.323  0.0033  0.8977 -0.6900
 5078TIP3    H236794   2.471   1.471  29.308 -0.2933  2.5198 -2.5741
 5079TIP3   OH236795   1.613   3.482   1.382  0.1155 -0.4898 -0.6674
 5079TIP3    H136796   1.539   3.537   1.358  0.4006  0.8957  1.3273
 5079TIP3    H236797   1.593   3.396   1.345 -2.3054 -0.0715 -0.4971
 5080TIP3   OH236798   1.768   2.438  12.164  0.1350 -0.5843  0.0390
 5080TIP3    H136799   1.714   2.394  12.230  0.5424 -0.8038  0.2257
 5080TIP3    H236800   1.708   2.452  12.091 -1.0518  1.9139  1.3363
 5081TIP3   OH236801   3.482   0.185  29.807  1.0437  0.0439  0.4071
 5081TIP3    H136802   3.525   0.176  29.722  0.5673 -1.2960  0.2775
 5081TIP3    H236803   3.488   0.278  29.828  0.0460  0.6365 -1.6890
 5082TIP3   OH236804   0.926   2.918   1.354 -0.1693 -0.5906  0.4322
 5082TIP3    H136805   0.853   2.952   1.406  0.0501  0.2321  0.2159
 5082TIP3    H236806   0.954   2.992   1.300  0.1695 -1.1919 -0.2262
 5083TIP3   OH236807   0.964   3.045  32.905 -0.1046  0.6218  0.4770
 5083TIP3    H136808   0.964   3.058  33.000  0.6209  0.7557  0.4619
 5083TIP3    H236809   0.922   3.123  32.870 -2.8310 -0.5898  0.8089
 5084TIP3   OH236810   0.192   2.518  29.618 -0.8053  0.4229 -0.2600
 5084TIP3    H136811   0.213   2.529  29.525  1.5758 -0.8811  0.0414
 5084TIP3    H236812   0.274   2.488  29.658 -1.5663  1.5098  2.3955
 5085TIP3   OH236813   2.121   0.179  27.719  0.2763 -0.1255  0.0777
 5085TIP3    H136814   2.035   0.147  27.693 -0.0169 -0.3761  1.2845
 5085TIP3    H236815   2.152   0.114  27.782  1.4571 -0.1538 -0.5052
 5086TIP3   OH236816   1.507   0.653  14.567 -0.3665 -0.6987  0.6457
 5086TIP3    H136817   1.437   0.607  14.519 -1.9201  2.3613 -0.2615
 5086TIP3    H236818   1.493   0.628  14.658 -2.6236 -0.2791  0.4769
 5087TIP3   OH236819   3.498   1.271  29.319  0.6974 -0.2651  0.3187
 5087TIP3    H136820   3.480   1.340  29.383  0.7812 -0.5054  0.6059
 5087TIP3    H236821   3.433   1.284  29.250  0.8912  0.2712  0.2356
 5088TIP3   OH236822   0.107   0.557  28.815  0.2159 -0.4220 -0.1547
 5088TIP3    H136823   0.059   0.475  28.829 -0.4624 -0.3890 -2.0003
 5088TIP3    H236824   0.168   0.537  28.744 -1.7400  1.2737 -2.4792
 5089TIP3   OH236825   1.079   2.389   5.016  0.1786 -0.2003  0.8526
 5089TIP3    H136826   1.034   2.345   4.944 -0.1194  2.0848 -0.4399
 5089TIP3    H236827   1.033   2.358   5.095  0.4041 -2.6165  0.1311
 5090TIP3   OH236828   1.228   0.361  12.950  0.0557 -0.8334 -0.1338
 5090TIP3    H136829   1.240   0.455  12.942 -1.6149 -0.6147 -0.4970
 5090TIP3    H236830   1.139   0.351  12.986  0.9014 -2.2374  1.7432
 5091TIP3   OH236831   1.005   3.146  31.110  0.1733  0.1155  0.0681
 5091TIP3    H136832   1.003   3.155  31.015  0.4474  2.8151  0.2262
 5091TIP3    H236833   1.021   3.235  31.142 -2.8569 -0.1166  2.7487
 5092TIP3   OH236834   0.537   1.223  29.688 -0.0712 -0.2125  0.1716
 5092TIP3    H136835   0.579   1.245  29.771 -0.2100  0.0544  0.1726
 5092TIP3    H236836   0.565   1.133  29.670  0.0198 -0.2450  0.4690
 5093TIP3   OH236837   1.360   0.934  28.809  0.2998 -0.4228  0.8492
 5093TIP3    H136838   1.398   0.981  28.883 -0.1135  0.3041  0.6078
 5093TIP3    H236839   1.365   0.995  28.736  0.9247 -1.2171  0.1990
 5094TIP3   OH236840   1.356   0.148   0.371  0.1803  0.1851  0.4673
 5094TIP3    H136841   1.385   0.209   0.438 -1.3445 -0.8588  2.1495
 5094TIP3    H236842   1.267   0.174   0.350  0.8184  0.8846 -1.7094
 5095TIP3   OH236843   3.321   2.424  27.092 -0.0840 -0.3097  0.1653
 5095TIP3    H136844   3.329   2.330  27.106  0.0994 -0.1309  1.4687
 5095TIP3    H236845   3.375   2.463  27.161  1.5949  0.7377 -1.6288
 5096TIP3   OH236846   0.862   0.112   7.324  0.5998  0.0751  0.4737
 5096TIP3    H136847   0.798   0.051   7.288  0.4016  1.5120 -1.8014
 5096TIP3    H236848   0.946   0.069   7.311  0.4006 -0.0808 -0.3773
 5097TIP3   OH236849   0.787   3.478  12.430 -0.2584 -0.3626 -0.3146
 5097TIP3    H136850   0.753   3.445  12.514 -1.4975  1.0143 -0.2389
 5097TIP3    H236851   0.769   3.408  12.368  0.6339 -1.3914  0.5293
 5098TIP3   OH236852   2.226   0.434   1.752 -0.0838 -0.1068 -0.5923
 5098TIP3    H136853   2.296   0.458   1.693  0.5330 -1.3059 -0.3792
 5098TIP3    H236854   2.256   0.354   1.794 -1.8488 -1.0279 -0.9694
 5099TIP3   OH236855   0.509   2.838   2.738 -0.3073  0.2911 -0.2323
 5099TIP3    H136856   0.446   2.839   2.665  0.2043  3.7921 -0.8044
 5099TIP3    H236857   0.463   2.882   2.809  0.3652 -0.1662  0.5017
 5100TIP3   OH236858   1.795   1.302   5.905 -0.3596 -0.2160 -0.2908
 5100TIP3    H136859   1.714   1.340   5.871  0.0280  0.5166 -0.4024
 5100TIP3    H236860   1.770   1.268   5.992 -0.7100  0.2899 -0.1864
 5101TIP3   OH236861   2.594   2.477  11.477  0.3072 -0.0998  0.1417
 5101TIP3    H136862   2.681   2.448  11.448  0.6503 -0.1481  1.1933
 5101TIP3    H236863   2.608   2.567  11.507 -0.1796  0.1778 -0.4362
 5102TIP3   OH236864   2.794   2.695  22.057 -0.0915  0.7112  0.1589
 5102TIP3    H136865   2.889   2.703  22.048 -0.0351  0.3301  0.3755
 5102TIP3    H236866   2.775   2.723  22.146  0.1004 -1.3421  0.8951
 5103TIP3   OH236867   0.893   0.083   6.349 -0.0313 -0.1907 -0.4493
 5103TIP3    H136868   0.842   0.004   6.331 -0.7414  0.5922 -2.1144
 5103TIP3    H236869   0.834   0.138   6.401  0.6947 -0.9878  1.2556
 5104TIP3   OH236870   1.116   3.102   6.750  0.1250 -0.2081 -0.0178
 5104TIP3    H136871   1.159   3.162   6.811 -0.9303  0.4142  0.1389
 5104TIP3    H236872   1.180   3.033   6.735  0.8941  0.3155  0.7715
 5105TIP3   OH236873   2.685   1.287   6.923  0.5332  0.5358 -0.2962
 5105TIP3    H136874   2.696   1.267   6.830  0.8066  1.5218 -0.4857
 5105TIP3    H236875   2.771   1.318   6.951  1.1458 -2.0331  0.9064
 5106TIP3   OH236876   2.796   3.185  26.708 -0.8260 -0.4582  0.6359
 5106TIP3    H136877   2.809   3.236  26.788  0.2194  0.5553 -0.1396
 5106TIP3    H236878   2.787   3.095  26.737 -1.0641 -0.0311  1.9309
 5107TIP3   OH236879   0.241   1.258  28.038  0.0950 -0.3228 -0.1036
 5107TIP3    H136880   0.293   1.241  27.959 -1.0136 -0.9012 -0.7492
 5107TIP3    H236881   0.151   1.264  28.006 -0.4211 -0.9131  1.1573
 5108TIP3   OH236882   2.058   2.070   0.185 -0.2130 -0.4069 -0.0979
 5108TIP3    H136883   1.997   2.143   0.196  0.7529  0.3068  0.7192
 5108TIP3    H236884   2.002   1.996   0.162 -1.1719  0.6950 -1.5256
 5109TIP3   OH236885   1.710   1.994  30.433 -0.1676 -0.1764 -0.0340
 5109TIP3    H136886   1.676   1.933  30.367 -2.9667  2.0731 -0.9164
 5109TIP3    H236887   1.647   1.987  30.505  0.6009  0.2600  0.6836
 5110TIP3   OH236888   0.494   2.305  31.761  0.1898  0.1213  0.0955
 5110TIP3    H136889   0.441   2.370  31.715 -1.6325 -0.8366  0.7078
 5110TIP3    H236890   0.561   2.278  31.698 -1.6352 -0.4668 -1.6905
 5111TIP3   OH236891   0.108   0.845  28.710  0.6186  0.0426  0.0797
 5111TIP3    H136892   0.122   0.759  28.749 -1.6966  0.3068  1.6762
 5111TIP3    H236893   0.014   0.849  28.693  0.6521  2.2738  0.0618
 5112TIP3   OH236894   3.314   2.898   0.347  0.2203  0.4829 -0.1373
 5112TIP3    H136895   3.220   2.897   0.368  0.2841  0.2363  0.1415
 5112TIP3    H236896   3.321   2.956   0.272 -0.1391  0.6240 -0.0638
 5113TIP3   OH236897   0.687   0.325   7.224  0.3257 -0.1810  0.2928
 5113TIP3    H136898   0.683   0.268   7.147 -0.3736 -1.4671  1.2358
 5113TIP3    H236899   0.751   0.283   7.281 -0.9550 -0.6222  1.4478
 5114TIP3   OH236900   2.002   0.667  31.159 -0.4002 -0.4019 -0.1567
 5114TIP3    H136901   1.962   0.585  31.188 -0.1007 -0.1247  1.0888
 5114TIP3    H236902   1.970   0.733  31.221 -0.9494  0.5117 -1.3767
 5115TIP3   OH236903   1.070   2.639   4.926  0.4271  0.0547  0.2387
 5115TIP3    H136904   1.132   2.649   4.853 -0.4587  0.9342 -0.4158
 5115TIP3    H236905   1.070   2.545   4.944  1.4772 -0.0400 -0.1658
 5116TIP3   OH236906   0.054   2.538   6.186 -0.0519  0.0341 -0.3363
 5116TIP3    H136907   0.085   2.475   6.121 -2.8987 -0.8822 -0.9776
 5116TIP3    H236908   0.078   2.499   6.270  3.0107  0.8660 -0.7030
 5117TIP3   OH236909   0.316   2.784   0.951 -0.1694 -0.0898  0.3371
 5117TIP3    H136910   0.391   2.840   0.929 -0.1085 -0.4937 -0.5254
 5117TIP3    H236911   0.338   2.747   1.036  0.0005  0.8311  0.7114
 5118TIP3   OH236912   2.445   2.499   9.670 -0.0059 -0.6687  0.3022
 5118TIP3    H136913   2.517   2.527   9.727 -0.0633 -0.8114  0.4475
 5118TIP3    H236914   2.403   2.580   9.643 -0.9641 -0.6393  1.7516
 5119TIP3   OH236915   0.075   0.820   3.922  0.2820  0.2785 -0.3207
 5119TIP3    H136916   0.033   0.811   3.836 -0.5744  0.8165  0.0170
 5119TIP3    H236917   0.152   0.764   3.917  0.2683  0.3219 -1.4517
 5120TIP3   OH236918   0.958   0.104  29.509  0.3941  0.3427 -0.2741
 5120TIP3    H136919   0.997   0.082  29.594 -2.3197 -0.3375  0.8945
 5120TIP3    H236920   0.890   0.038  29.496 -0.4664  1.5110 -2.1152
 5121TIP3   OH236921   1.328   2.092   2.697  0.1062  0.1616 -0.4717
 5121TIP3    H136922   1.301   2.086   2.605  0.6613  1.2250 -0.7231
 5121TIP3    H236923   1.271   2.031   2.743  0.3033 -0.9298 -1.6269
 5122TIP3   OH236924   3.406   2.732   6.107 -0.0895  1.0971 -0.4568
 5122TIP3    H136925   3.350   2.768   6.176 -0.8393 -1.5088  0.4348
 5122TIP3    H236926   3.413   2.639   6.128  1.0002  0.4960 -3.0197
 5123TIP3   OH236927   1.881   3.131   7.436 -0.7555  0.3386 -0.0545
 5123TIP3    H136928   1.950   3.064   7.427  0.0903  1.1826 -0.0665
 5123TIP3    H236929   1.825   3.119   7.360 -1.2201 -1.0091  0.4605
 5124TIP3   OH236930   0.650   3.473   6.636  0.1812 -0.5659 -0.2671
 5124TIP3    H136931   0.692   3.499   6.554  0.4821  0.1731  0.1130
 5124TIP3    H236932   0.703   3.514   6.704 -1.0703  0.2808  0.2249
 5125TIP3   OH236933   0.717   0.433   4.149 -0.2183  0.4883  0.0404
 5125TIP3    H136934   0.785   0.399   4.207 -1.1000  1.5609  1.7993
 5125TIP3    H236935   0.730   0.528   4.150 -1.1175  0.6305 -0.3755
 5126TIP3   OH236936   2.486   2.790  29.647 -0.3905  0.2070 -0.0426
 5126TIP3    H136937   2.412   2.752  29.694 -1.6195  2.2960 -0.1513
 5126TIP3    H236938   2.446   2.839  29.575  1.0926  1.2701 -0.1904
 5127TIP3   OH236939   1.683   3.457  28.456  0.1348 -0.1990  0.1272
 5127TIP3    H136940   1.620   3.433  28.524  0.2602  0.7443  0.5974
 5127TIP3    H236941   1.768   3.443  28.496  0.2087  0.4459  0.2091
 5128TIP3   OH236942   0.098   2.266   6.807  0.2447 -0.6881  0.1938
 5128TIP3    H136943   0.077   2.214   6.730  1.5318  0.6020 -1.0923
 5128TIP3    H236944   0.066   2.354   6.786 -2.4542 -0.9655  2.5633
 5129TIP3   OH236945   2.744   3.184   6.940 -0.1746  0.3162 -0.0880
 5129TIP3    H136946   2.807   3.255   6.956 -1.2167  1.2754 -0.0598
 5129TIP3    H236947   2.732   3.143   7.026 -0.3759  0.8122  0.1242
 5130TIP3   OH236948   2.159   0.122  27.166  0.3115 -0.0251 -0.2132
 5130TIP3    H136949   2.143   0.144  27.074  0.0975 -0.1003 -0.1951
 5130TIP3    H236950   2.084   0.068  27.190 -0.0312  0.6290  0.2271
 5131TIP3   OH236951   2.841   0.398   5.348  0.7748 -0.0403  0.4649
 5131TIP3    H136952   2.857   0.426   5.258 -2.3696 -2.5374 -1.0801
 5131TIP3    H236953   2.926   0.367   5.379  1.7748 -0.0000 -2.0188
 5132TIP3   OH236954   1.288   1.516  27.637 -0.1672  0.1458 -0.4873
 5132TIP3    H136955   1.238   1.449  27.684 -1.9783  0.6088 -1.6915
 5132TIP3    H236956   1.353   1.466  27.586 -1.1905 -0.6753 -1.0228
 5133TIP3   OH236957   1.117   0.592  30.750  0.4319  0.6452  0.0990
 5133TIP3    H136958   1.071   0.651  30.809  1.4660  0.4219  1.1704
 5133TIP3    H236959   1.209   0.617  30.757  0.7314 -0.2429 -0.4056
 5134TIP3   OH236960   2.542   1.000   2.278 -0.0418 -0.2860 -0.2338
 5134TIP3    H136961   2.493   0.998   2.361  0.1870 -0.0888 -0.0928
 5134TIP3    H236962   2.562   1.093   2.264 -0.1232 -0.3116 -0.5370
 5135TIP3   OH236963   3.185   1.102   4.965  1.0419  0.1909  0.1249
 5135TIP3    H136964   3.135   1.033   4.922  0.2666  0.3502  0.7316
 5135TIP3    H236965   3.268   1.105   4.918  1.1876 -1.3080  0.2322
 5136TIP3   OH236966   2.476   0.782  18.144  0.1806  0.4866 -0.3850
 5136TIP3    H136967   2.419   0.859  18.155 -0.4410  0.3387 -2.2084
 5136TIP3    H236968   2.420   0.717  18.103  1.0887 -0.4715 -0.1454
 5137TIP3   OH236969   1.397   0.325  31.929 -0.5960  0.0455 -0.4405
 5137TIP3    H136970   1.448   0.399  31.897 -1.7370  0.0739 -2.3342
 5137TIP3    H236971   1.409   0.256  31.864 -0.8533 -0.8820  0.4533
 5138TIP3   OH236972   3.207   0.161   1.102  0.4377  0.0767  0.3374
 5138TIP3    H136973   3.173   0.078   1.135  1.7237 -0.4812  0.3143
 5138TIP3    H236974   3.292   0.171   1.146  0.1709  1.5296  0.5720
 5139TIP3   OH236975   3.404   0.391  28.487  0.2560  0.9006  0.2224
 5139TIP3    H136976   3.402   0.464  28.549  0.5470  0.9403  0.1875
 5139TIP3    H236977   3.395   0.432  28.401  2.1615  1.0803  0.0626
 5140TIP3   OH236978   2.068   3.364  31.825 -0.2018 -0.0326  0.2289
 5140TIP3    H136979   2.136   3.333  31.884  0.1562  0.1252 -0.0935
 5140TIP3    H236980   2.015   3.424  31.878 -0.4527 -0.6164  0.6449
 5141TIP3   OH236981   1.191   0.504  31.635  0.2575  0.0688  0.5370
 5141TIP3    H136982   1.156   0.417  31.651  1.4431 -0.8072 -1.2331
 5141TIP3    H236983   1.226   0.500  31.545  1.0617  2.1193  0.6886
 5142TIP3   OH236984   3.129   1.350   4.302 -0.3029 -0.1440  0.7430
 5142TIP3    H136985   3.129   1.418   4.370  1.0575 -1.0295  1.6974
 5142TIP3    H236986   3.205   1.371   4.248 -2.4493  1.6954 -1.8191
 5143TIP3   OH236987   2.084   3.032  31.562  0.5311 -1.0347  0.0046
 5143TIP3    H136988   2.079   3.107  31.504 -1.6940 -1.6776 -0.7342
 5143TIP3    H236989   2.009   3.041  31.620  1.9104 -1.1582  1.9166
 5144TIP3   OH236990   1.962   1.952  22.017 -0.2509 -0.0441  0.4468
 5144TIP3    H136991   1.905   2.029  22.014  0.8848  0.7655 -0.9761
 5144TIP3    H236992   1.904   1.879  21.992 -1.2527  0.3610  1.4955
 5145TIP3   OH236993   1.082   2.466   4.102 -0.1106 -0.2348 -0.3400
 5145TIP3    H136994   1.053   2.431   4.185 -2.6613 -2.2516 -1.9286
 5145TIP3    H236995   1.177   2.454   4.102 -0.2022 -1.3630  1.7042
 5146TIP3   OH236996   2.858   0.039   1.606 -0.2322 -0.0626 -0.4244
 5146TIP3    H136997   2.819  -0.044   1.634 -0.6633  0.8407  1.8845
 5146TIP3    H236998   2.797   0.072   1.540 -0.2518 -1.3767 -1.1045
 5147TIP3   OH236999   1.696   2.910  32.467 -0.7392  0.0440 -0.0842
 5147TIP3    H137000   1.690   2.867  32.552 -1.3669  1.5935  0.7043
 5147TIP3    H237001   1.657   2.849  32.405 -0.2578 -1.1134  0.7270
 5148TIP3   OH237002   0.684   2.369   6.002  0.5579 -0.3065  0.3046
 5148TIP3    H137003   0.643   2.314   5.935 -1.2643 -0.0961  1.1918
 5148TIP3    H237004   0.690   2.455   5.961  0.7111 -0.4825 -0.0498
 5149TIP3   OH237005   3.151   2.754   4.455 -0.6292  0.2681 -0.1855
 5149TIP3    H137006   3.169   2.721   4.367 -0.8818  0.6094 -0.3669
 5149TIP3    H237007   3.197   2.838   4.459  0.6268 -0.4133  0.5287
 5150TIP3   OH237008   1.612   1.147  26.038  0.6716 -0.5470 -0.3215
 5150TIP3    H137009   1.557   1.225  26.046  0.7155 -0.5899  0.3971
 5150TIP3    H237010   1.614   1.110  26.126 -0.4690 -2.1201 -0.9119
 5151TIP3   OH237011   0.331   2.306   6.064 -0.3013 -0.4714  0.1997
 5151TIP3    H137012   0.383   2.290   6.143 -1.7152 -1.5859  0.9699
 5151TIP3    H237013   0.248   2.262   6.082 -1.4636  1.1183 -1.0269
 5152TIP3   OH237014   3.334   0.574  26.159  0.2450  0.8262  0.2413
 5152TIP3    H137015   3.356   0.526  26.079 -3.2011 -0.0832 -0.3207
 5152TIP3    H237016   3.355   0.514  26.230  0.3342  0.3337 -0.1997
 5153TIP3   OH237017   1.457   0.762  28.629  0.2457 -0.0813 -0.2040
 5153TIP3    H137018   1.520   0.788  28.561 -1.1687  0.3220 -1.4125
 5153TIP3    H237019   1.465   0.829  28.696  0.6485  0.3261 -0.6477
 5154TIP3   OH237020   2.789   2.739   4.048  0.1534 -0.4043 -0.0850
 5154TIP3    H137021   2.788   2.777   4.136 -1.6557  1.6501 -0.9089
 5154TIP3    H237022   2.697   2.729   4.025  0.5401  0.3207 -2.2261
 5155TIP3   OH237023   1.065   1.448   5.790  0.1155  0.6793 -0.5387
 5155TIP3    H137024   0.989   1.423   5.738  0.7821  0.2020 -1.3085
 5155TIP3    H237025   1.140   1.429   5.733  0.8769 -0.1068  0.6822
 5156TIP3   OH237026   1.565   2.159  26.740 -0.1327 -0.1307  0.6301
 5156TIP3    H137027   1.477   2.176  26.707 -0.3134  1.4002  1.7876
 5156TIP3    H237028   1.552   2.123  26.828  0.3955 -1.6414  0.1346
 5157TIP3   OH237029   0.904   1.293  30.382  0.3968  0.0914  0.3502
 5157TIP3    H137030   0.955   1.302  30.301 -1.7331 -1.0720 -1.2251
 5157TIP3    H237031   0.874   1.382  30.401 -0.5214  0.1678 -1.2208
 5158TIP3   OH237032   0.663   2.605  27.905  0.3928  0.2294  0.4111
 5158TIP3    H137033   0.705   2.642  27.983 -1.1366 -0.7256  1.7798
 5158TIP3    H237034   0.691   2.514  27.904 -1.0282 -0.2525  0.9753
 5159TIP3   OH237035   2.551   1.514  28.523 -0.6183 -0.0505 -0.5165
 5159TIP3    H137036   2.616   1.460  28.567 -2.1970 -1.4756  0.1474
 5159TIP3    H237037   2.525   1.463  28.446 -0.6853  0.6962 -1.0075
 5160TIP3   OH237038   2.874   0.586  31.861 -0.3873  0.2740 -0.0525
 5160TIP3    H137039   2.925   0.533  31.799 -1.9956 -0.4152 -0.8628
 5160TIP3    H237040   2.939   0.624  31.920  1.0659 -0.2984 -1.2249
 5161TIP3   OH237041   2.299   2.081  27.340  0.1695  0.3924 -0.5510
 5161TIP3    H137042   2.215   2.051  27.306 -0.9555  0.2716  2.0792
 5161TIP3    H237043   2.285   2.174  27.360  0.8309  0.5072 -0.5856
 5162TIP3   OH237044   2.397   2.837  13.460 -0.4426  0.1403  0.3130
 5162TIP3    H137045   2.416   2.820  13.552  0.2791 -1.5881 -0.1199
 5162TIP3    H237046   2.303   2.819  13.451 -0.4699  0.1081  0.6743
 5163TIP3   OH237047   2.402   2.602  28.288 -0.0160 -0.0945 -0.6700
 5163TIP3    H137048   2.341   2.541  28.329 -0.5991  0.4731 -0.6860
 5163TIP3    H237049   2.435   2.656  28.359  0.5928 -0.4936 -0.6384
 5164TIP3   OH237050   1.737   1.789  28.336  0.1282 -0.0812  0.0565
 5164TIP3    H137051   1.765   1.701  28.311  1.5428  0.3477  0.0522
 5164TIP3    H237052   1.680   1.818  28.265 -0.1527 -0.8905 -0.0575
 5165TIP3   OH237053   0.372   2.430  32.898 -1.0552 -0.3124 -0.4218
 5165TIP3    H137054   0.425   2.465  32.827  0.3711 -0.8476  0.3298
 5165TIP3    H237055   0.335   2.349  32.862 -1.1992 -0.0371 -0.8943
 5166TIP3   OH237056   1.347   1.600   1.224  0.3308 -0.1853 -0.2257
 5166TIP3    H137057   1.285   1.561   1.285  1.5090 -0.1181  1.0583
 5166TIP3    H237058   1.354   1.691   1.251 -0.2584  0.2509 -1.4361
 5167TIP3   OH237059   0.753   0.226   3.083 -0.1681  0.1749 -0.0203
 5167TIP3    H137060   0.812   0.219   3.008 -1.3375 -1.0773 -0.8904
 5167TIP3    H237061   0.778   0.307   3.126  1.1601  0.4505 -1.2302
 5168TIP3   OH237062   2.046   2.527   9.860 -0.7611  0.3348 -0.1638
 5168TIP3    H137063   2.000   2.562   9.936 -0.5179  1.0448 -0.3319
 5168TIP3    H237064   1.988   2.459   9.826  0.2463 -1.7796  2.1010
 5169TIP3   OH237065   0.363   1.526  29.880 -0.2931  0.4185 -0.1352
 5169TIP3    H137066   0.301   1.490  29.944 -0.6260  1.9993  0.4929
 5169TIP3    H237067   0.316   1.524  29.797 -1.2593  1.6758  0.3507
 5170TIP3   OH237068   2.744   1.443  28.703  0.1052 -0.3404 -0.1190
 5170TIP3    H137069   2.793   1.376  28.657 -0.1777  0.5140 -1.7249
 5170TIP3    H237070   2.797   1.463  28.780  0.5826 -1.7940 -0.0406
 5171TIP3   OH237071   0.275   0.177  30.427 -0.1202 -0.1119  0.4848
 5171TIP3    H137072   0.290   0.091  30.466  0.1668  0.6150  2.0178
 5171TIP3    H237073   0.188   0.202  30.456 -0.2105  0.1226  0.0307
 5172TIP3   OH237074   1.638   3.427   2.462 -0.0276  0.7111 -0.9352
 5172TIP3    H137075   1.565   3.392   2.513 -0.5097 -1.6370 -3.0572
 5172TIP3    H237076   1.716   3.404   2.513 -0.5539 -0.6575 -0.7173
 5173TIP3   OH237077   2.644   2.887  30.333  1.0198 -0.1743  0.7691
 5173TIP3    H137078   2.581   2.815  30.331 -0.3300  0.9885  0.5923
 5173TIP3    H237079   2.727   2.847  30.306  0.4831 -1.8227  1.4543
 5174TIP3   OH237080   0.046   0.549  32.507 -0.6099 -0.4698  0.1531
 5174TIP3    H137081   0.090   0.564  32.590  0.2013 -2.1334  0.0689
 5174TIP3    H237082   0.106   0.494  32.457 -1.6508 -0.6029 -1.0169
 5175TIP3   OH237083   0.748   2.801   5.279 -0.1916  0.2353 -0.3321
 5175TIP3    H137084   0.816   2.822   5.343  0.9838 -0.5858 -1.2744
 5175TIP3    H237085   0.695   2.881   5.274  1.1313  1.1583 -0.1024
 5176TIP3   OH237086   0.130   1.136  29.014 -0.9809 -0.2545 -0.0320
 5176TIP3    H137087   0.055   1.133  28.955  0.3012 -0.3413 -1.7303
 5176TIP3    H237088   0.158   1.228  29.012 -0.7240 -0.3278  0.1506
 5177TIP3   OH237089   0.157   0.589  27.381  0.8230  0.3539 -0.1222
 5177TIP3    H137090   0.090   0.647  27.342 -0.1454 -0.6151  0.0578
 5177TIP3    H237091   0.151   0.605  27.475  1.0034  0.4319 -0.1239
 5178TIP3   OH237092   0.142   0.781   0.441 -0.0042  0.1897 -0.0236
 5178TIP3    H137093   0.166   0.821   0.525 -0.0694  0.2642 -0.0410
 5178TIP3    H237094   0.128   0.854   0.382  0.8708  0.1178 -0.3297
 5179TIP3   OH237095   0.987   1.106  29.214 -0.3950 -0.2011 -0.2649
 5179TIP3    H137096   1.072   1.077  29.246  0.3675 -0.4819 -2.3575
 5179TIP3    H237097   0.931   1.028  29.219  0.4845 -1.0016 -2.0540
 5180TIP3   OH237098   1.885   2.824  10.244 -0.1077  0.0332 -0.7600
 5180TIP3    H137099   1.898   2.908  10.200  1.4443  0.0929 -0.2475
 5180TIP3    H237100   1.805   2.836  10.295  1.3818  2.1031  1.2698
 5181TIP3   OH237101   3.107   2.206   5.547 -0.0186 -0.2995  0.5655
 5181TIP3    H137102   3.169   2.266   5.588 -1.7649  1.6782  0.4312
 5181TIP3    H237103   3.147   2.119   5.559  2.0030  0.7217  1.8110
 5182TIP3   OH237104   1.074   3.180  11.557  0.5690 -0.2997 -0.5786
 5182TIP3    H137105   1.018   3.212  11.628 -0.2288  0.2834 -1.4616
 5182TIP3    H237106   1.023   3.111  11.515  0.7251 -0.1144 -1.0755
 5183TIP3   OH237107   2.057   2.939  31.947  0.2063  0.5333 -0.0837
 5183TIP3    H137108   2.146   2.928  31.981  0.8658  2.3910 -1.0547
 5183TIP3    H237109   2.001   2.894  32.010  1.8814 -1.4040  0.1334
 5184TIP3   OH237110   3.361   1.265  31.680  0.2953 -0.3802  0.0295
 5184TIP3    H137111   3.287   1.235  31.627  0.1608 -1.5044  0.8241
 5184TIP3    H237112   3.326   1.269  31.769  1.2288 -1.0927  0.4426
 5185TIP3   OH237113   0.432   2.725   2.078  0.2743 -0.1354  0.5301
 5185TIP3    H137114   0.461   2.634   2.088 -1.3700 -0.8809 -0.9196
 5185TIP3    H237115   0.402   2.749   2.166  1.0165 -0.8676  1.0091
 5186TIP3   OH237116   0.240   0.183  11.929  0.2231 -0.8001 -0.0938
 5186TIP3    H137117   0.280   0.214  12.010 -0.5412 -0.1541  0.0444
 5186TIP3    H237118   0.157   0.144  11.956 -1.6826  2.3824 -0.8051
 5187TIP3   OH237119   2.589   1.372   0.698  0.0221  0.0428 -0.0297
 5187TIP3    H137120   2.622   1.318   0.626 -2.0382 -0.0056 -1.0001
 5187TIP3    H237121   2.605   1.320   0.776  1.0129 -0.5264 -0.5941
 5188TIP3   OH237122   3.499   3.083   2.998 -0.1254  0.2762 -0.7209
 5188TIP3    H137123   3.574   3.108   3.052 -1.1430  0.3111  0.7367
 5188TIP3    H237124   3.496   3.150   2.929  1.8455 -0.3908 -1.5486
 5189TIP3   OH237125   0.860   2.974   6.728  0.0641  0.2758 -0.0863
 5189TIP3    H137126   0.837   2.931   6.810  0.0000  1.0940  0.3333
 5189TIP3    H237127   0.949   3.007   6.742 -0.3739  1.4122  0.0721
 5190TIP3   OH237128   3.476   0.840   4.772  0.3057  0.2334 -0.6307
 5190TIP3    H137129   3.396   0.796   4.743  0.7027  0.3100 -1.9500
 5190TIP3    H237130   3.545   0.774   4.762  0.4782  0.2936  0.0981
 5191TIP3   OH237131   0.521   2.143   3.575 -0.0198 -0.8807  0.0271
 5191TIP3    H137132   0.468   2.065   3.593 -0.3551 -0.9354 -1.1009
 5191TIP3    H237133   0.492   2.171   3.488  0.5886  0.1032  0.1340
 5192TIP3   OH237134   2.893   3.292   4.518 -0.3536 -0.0010 -0.8034
 5192TIP3    H137135   2.958   3.321   4.454  1.1858 -0.8037  0.3155
 5192TIP3    H237136   2.848   3.219   4.475  1.1722 -1.0240 -0.7533
 5193TIP3   OH237137   1.608   0.774  30.165 -0.1443  0.4730 -0.6604
 5193TIP3    H137138   1.605   0.679  30.173  0.5923  0.4697 -0.2680
 5193TIP3    H237139   1.524   0.805  30.199 -1.0636 -0.1142 -2.2948
 5194TIP3   OH237140   2.995   1.156   5.859 -0.1773 -0.4891 -0.3780
 5194TIP3    H137141   2.937   1.080   5.853 -2.2378  0.9438  0.4608
 5194TIP3    H237142   2.984   1.189   5.948 -0.4745  1.6534 -1.1596
 5195TIP3   OH237143   0.892   1.900   6.784  0.3302  0.4531  0.6107
 5195TIP3    H137144   0.960   1.877   6.847 -0.0383  0.9340  1.1959
 5195TIP3    H237145   0.818   1.927   6.837 -1.1586 -2.2261  0.0762
 5196TIP3   OH237146   2.439   3.063   5.796  0.8852  0.3470  0.1636
 5196TIP3    H137147   2.520   3.016   5.813  0.7854 -0.0513 -0.4134
 5196TIP3    H237148   2.408   3.028   5.712  0.7338  1.3336 -0.2156
 5197TIP3   OH237149   0.781   1.227  27.088 -0.3695 -0.0111  0.2943
 5197TIP3    H137150   0.842   1.300  27.100  0.1598 -0.5640  1.0231
 5197TIP3    H237151   0.697   1.269  27.068 -0.3561  0.8548  1.8785
 5198TIP3   OH237152   0.119   1.341   6.085  0.0002 -0.3875  0.5128
 5198TIP3    H137153   0.186   1.374   6.025 -0.3791  0.3575  0.4863
 5198TIP3    H237154   0.157   1.261   6.121  1.3292  0.5218  1.2289
 5199TIP3   OH237155   2.480   1.997   3.573 -0.1982 -0.1596 -0.9776
 5199TIP3    H137156   2.440   1.925   3.622 -0.1113  0.2804 -0.2458
 5199TIP3    H237157   2.440   1.992   3.486 -0.8138 -0.5713 -0.6784
 5200TIP3   OH237158   0.421   1.847   2.507 -0.2444 -0.4370  0.1005
 5200TIP3    H137159   0.439   1.892   2.589 -1.5235  1.2163 -0.4634
 5200TIP3    H237160   0.326   1.837   2.505 -0.3440  0.4424 -1.5874
 5201TIP3   OH237161   1.457   2.300   3.031 -0.2905 -0.4908 -0.2649
 5201TIP3    H137162   1.471   2.291   2.937  1.4181  0.1443 -0.1124
 5201TIP3    H237163   1.535   2.261   3.071  0.8573  2.4981  0.7255
 5202TIP3   OH237164   0.576   2.073  28.386 -0.3937 -0.1882 -0.0351
 5202TIP3    H137165   0.505   2.049  28.446 -0.1666  1.3029  0.8886
 5202TIP3    H237166   0.596   2.164  28.408  1.6685 -0.4975 -0.4208
 5203TIP3   OH237167   0.995   2.217   5.420  0.6651  0.3801  0.1254
 5203TIP3    H137168   0.954   2.264   5.347  0.4480  1.5496  0.9720
 5203TIP3    H237169   1.051   2.151   5.377 -0.0866  0.4821 -1.0733
 5204TIP3   OH237170   2.460   1.087  31.599  0.0409 -0.3503  0.5373
 5204TIP3    H137171   2.399   1.160  31.597 -0.4264 -0.6777  1.7952
 5204TIP3    H237172   2.547   1.128  31.595 -0.1971  0.0562 -2.5893
 5205TIP3   OH237173   2.972   1.832   3.148 -0.1662 -0.0524  0.3024
 5205TIP3    H137174   2.938   1.823   3.237 -0.1503  2.0576  0.5897
 5205TIP3    H237175   2.916   1.776   3.094 -1.3870  0.0886  1.3830
 5206TIP3   OH237176   0.737   0.262   0.606  0.3444 -0.4884 -0.4158
 5206TIP3    H137177   0.813   0.211   0.637  0.6850 -0.0430 -0.5032
 5206TIP3    H237178   0.664   0.229   0.658  0.6368 -0.7847 -0.1838
 5207TIP3   OH237179   1.957   0.858   6.347  0.7372 -0.3457 -0.6702
 5207TIP3    H137180   1.993   0.814   6.424  1.7160 -0.4420 -1.1597
 5207TIP3    H237181   2.015   0.934   6.334 -0.9093  1.1123  0.1503
 5208TIP3   OH237182   1.256   2.755  27.463 -0.1573 -0.3024 -0.1162
 5208TIP3    H137183   1.325   2.705  27.507 -0.6441 -0.1353  0.8639
 5208TIP3    H237184   1.251   2.717  27.375 -0.9417 -2.4165  0.7851
 5209TIP3   OH237185   0.697   1.606   4.639 -0.5114  0.6628  0.3062
 5209TIP3    H137186   0.781   1.635   4.675  0.2625  0.9383 -1.6135
 5209TIP3    H237187   0.674   1.529   4.691 -0.3316  1.9780  2.4817
 5210TIP3   OH237188   1.816   0.547   5.156  0.4860 -0.0835 -0.2032
 5210TIP3    H137189   1.880   0.480   5.183 -0.6777 -0.2366  2.5303
 5210TIP3    H237190   1.734   0.518   5.194 -1.1792  0.4529 -3.0710
 5211TIP3   OH237191   0.209   3.209   4.821  0.5342 -0.0695  0.2979
 5211TIP3    H137192   0.247   3.146   4.759  1.0777 -0.0721  0.6321
 5211TIP3    H237193   0.118   3.179   4.831  0.2135  0.3688 -1.0639
 5212TIP3   OH237194   0.558   2.871  29.944  0.4130  0.4234  0.1188
 5212TIP3    H137195   0.496   2.844  29.876  1.6608 -0.6113 -0.6541
 5212TIP3    H237196   0.519   2.949  29.983 -0.2500  1.1760 -1.9327
 5213TIP3   OH237197   0.410   1.080   5.710 -0.6212 -0.0864  0.2046
 5213TIP3    H137198   0.480   1.051   5.651  0.4374  0.9713  0.8798
 5213TIP3    H237199   0.446   1.066   5.798 -1.1447  0.6985  0.5589
 5214TIP3   OH237200   2.290   2.066   2.474 -0.2688 -0.1822  0.4400
 5214TIP3    H137201   2.358   2.077   2.407 -1.1197  0.1491 -0.3810
 5214TIP3    H237202   2.231   2.001   2.437  0.9085 -2.4182  2.2265
 5215TIP3   OH237203   1.618   1.134  21.560 -0.2250 -0.0143  0.3070
 5215TIP3    H137204   1.695   1.139  21.503 -0.4485  1.1165  0.0833
 5215TIP3    H237205   1.639   1.191  21.634 -0.3806 -0.6210  0.8297
 5216TIP3   OH237206   2.874   3.071  29.902  0.2036  0.2280  0.9655
 5216TIP3    H137207   2.888   3.145  29.842  1.9244 -0.3032  0.6533
 5216TIP3    H237208   2.953   3.018  29.893 -0.8034 -1.4483  1.4986
 5217TIP3   OH237209   3.177   0.746  29.945  0.1511  0.8847  0.4988
 5217TIP3    H137210   3.139   0.661  29.921  1.1021  0.9626 -1.3857
 5217TIP3    H237211   3.112   0.784  30.005 -0.9111 -0.5954  0.3585
 5218TIP3   OH237212   0.766   2.379   4.355 -0.3290  0.3908 -0.7883
 5218TIP3    H137213   0.854   2.359   4.387 -0.5668 -0.4848 -0.6734
 5218TIP3    H237214   0.760   2.475   4.362  0.5772  0.4548 -0.7155
 5219TIP3   OH237215   2.671   3.355   6.648 -0.5035  0.0988 -0.0846
 5219TIP3    H137216   2.712   3.377   6.732  0.3280  1.0725 -0.7154
 5219TIP3    H237217   2.725   3.399   6.583  0.1413 -2.3035 -1.3247
 5220TIP3   OH237218   2.662   0.288  32.664 -0.2328 -0.1092  0.2701
 5220TIP3    H137219   2.654   0.208  32.714 -1.2568  0.2801  0.7587
 5220TIP3    H237220   2.594   0.281  32.596  0.8254 -0.4226 -0.7944
 5221TIP3   OH237221   0.121   1.257   0.596  0.0160  0.3283 -0.2638
 5221TIP3    H137222   0.067   1.203   0.654  0.5292  2.0216  1.9233
 5221TIP3    H237223   0.142   1.200   0.522 -2.5696 -1.2134  0.0731
 5222TIP3   OH237224   3.133   2.276  29.313  0.3752  0.1465 -0.5873
 5222TIP3    H137225   3.188   2.200  29.333 -0.5720 -1.0535 -2.2906
 5222TIP3    H237226   3.163   2.344  29.374  2.3274 -1.0818 -0.0877
 5223TIP3   OH237227   1.714   1.239   3.120  0.3837 -0.1459 -0.1122
 5223TIP3    H137228   1.643   1.192   3.162  2.5420 -1.4825  2.3651
 5223TIP3    H237229   1.708   1.216   3.028 -0.5954 -2.7003  0.5190
 5224TIP3   OH237230   2.111   0.256   6.877 -0.0429 -0.4036 -0.4481
 5224TIP3    H137231   2.141   0.258   6.968 -0.4865  0.4435 -0.3178
 5224TIP3    H237232   2.057   0.177   6.872  1.5548 -1.5420 -0.4903
 5225TIP3   OH237233   2.807   1.857   6.875 -0.0614  0.1337 -0.3833
 5225TIP3    H137234   2.869   1.919   6.914 -1.1050  0.0581  1.5357
 5225TIP3    H237235   2.861   1.800   6.820  1.7212 -0.3141  1.6632
 5226TIP3   OH237236   2.230   2.886  26.859 -0.4600 -0.8676 -0.5218
 5226TIP3    H137237   2.239   2.800  26.819  2.4305 -0.6409 -0.5678
 5226TIP3    H237238   2.231   2.869  26.954 -2.5573 -1.0350 -0.4923
 5227TIP3   OH237239   3.258   3.274   3.456  0.2741 -0.4218  0.6024
 5227TIP3    H137240   3.309   3.350   3.429  0.6546 -0.7237  0.4751
 5227TIP3    H237241   3.172   3.287   3.415  0.0218  0.4229  1.3608
 5228TIP3   OH237242   1.640   1.513   0.037 -0.5319  0.1748 -0.1064
 5228TIP3    H137243   1.647   1.578  -0.034 -1.0929 -0.2035 -0.5159
 5228TIP3    H237244   1.729   1.506   0.071 -0.5728  1.6325  0.3732
 5229TIP3   OH237245   1.930   3.039  11.556 -0.6716  0.0071  0.4412
 5229TIP3    H137246   1.919   2.971  11.622 -1.0319  0.3314  0.7189
 5229TIP3    H237247   1.881   3.007  11.481  1.2878 -1.2762 -0.3898
 5230TIP3   OH237248   3.497   2.794  11.338  0.4229 -0.3174  0.1424
 5230TIP3    H137249   3.500   2.822  11.430  0.8546  1.2983 -0.3215
 5230TIP3    H237250   3.584   2.815  11.304  0.7378 -2.1779 -0.3198
 5231TIP3   OH237251   2.130   0.323  28.871 -0.1851  0.2225 -0.5024
 5231TIP3    H137252   2.095   0.260  28.808 -1.2074 -0.3412  0.5814
 5231TIP3    H237253   2.211   0.354  28.832 -0.6113 -0.3721 -1.9219
 5232TIP3   OH237254   1.726   0.846  31.516  0.1455  0.3904  0.5965
 5232TIP3    H137255   1.748   0.841  31.423 -1.4008  3.4742 -0.0507
 5232TIP3    H237256   1.805   0.882  31.557  0.6473 -0.4865  0.4403
 5233TIP3   OH237257   2.453   3.000   4.344  0.7429 -0.0189  0.1764
 5233TIP3    H137258   2.404   2.947   4.407 -2.0946  0.5907 -1.3701
 5233TIP3    H237259   2.465   3.084   4.389  1.6639 -0.6095  1.0878
 5234TIP3   OH237260   2.290   1.049   5.387 -0.0087 -0.3603  0.1172
 5234TIP3    H137261   2.286   0.964   5.343  0.1630  0.6936 -2.1038
 5234TIP3    H237262   2.337   1.032   5.468  2.1993 -2.0050 -1.3726
 5235TIP3   OH237263   3.141   0.506   0.902 -0.0138  0.2096  0.0786
 5235TIP3    H137264   3.236   0.508   0.892 -0.1151  0.5816 -0.8535
 5235TIP3    H237265   3.113   0.428   0.854 -0.2944  0.7880 -0.7105
 5236TIP3   OH237266   0.292   2.067   0.727  0.3890  0.1556 -0.1480
 5236TIP3    H137267   0.283   2.162   0.718  1.2718  0.7523  3.4528
 5236TIP3    H237268   0.387   2.053   0.728  0.2764 -0.5926  0.5002
 5237TIP3   OH237269   2.801   3.087   0.550 -0.1259 -0.6728 -0.1859
 5237TIP3    H137270   2.739   3.062   0.619  0.7881 -1.6198  0.3282
 5237TIP3    H237271   2.755   3.153   0.499 -1.2946 -0.8524  0.5942
 5238TIP3   OH237272   0.717   1.010  28.940 -0.1798  0.2681 -0.6438
 5238TIP3    H137273   0.742   0.919  28.955  0.1623  0.3870 -0.4723
 5238TIP3    H237274   0.658   1.007  28.865  1.2745  0.0862 -1.8354
 5239TIP3   OH237275   1.595   1.645  22.404 -0.4672 -0.4622  0.2265
 5239TIP3    H137276   1.552   1.661  22.321  0.8628 -1.1177 -0.6411
 5239TIP3    H237277   1.529   1.602  22.458 -1.0786 -0.9084 -0.8453
 5240TIP3   OH237278   0.583   0.317  31.824 -0.9138  0.2600 -0.1883
 5240TIP3    H137279   0.497   0.350  31.798 -0.3566  1.9885  0.0576
 5240TIP3    H237280   0.642   0.347  31.755 -0.3523 -0.0607  0.1448
 5241TIP3   OH237281   3.215   0.570  32.512 -0.0664 -0.1364 -1.0749
 5241TIP3    H137282   3.254   0.568  32.425  1.0021 -1.2524 -0.6192
 5241TIP3    H237283   3.154   0.643  32.511  1.4429  1.1552 -2.1240
 5242TIP3   OH237284   1.975   1.195  30.782  0.1101 -0.2643  0.1726
 5242TIP3    H137285   1.925   1.275  30.797  1.0058  0.3601 -0.1337
 5242TIP3    H237286   1.930   1.129  30.835 -1.6281  0.0394 -0.8381
 5243TIP3   OH237287   3.431   2.831   5.180 -0.0158 -0.4936  0.0600
 5243TIP3    H137288   3.450   2.894   5.111  0.2246  2.3207  2.4674
 5243TIP3    H237289   3.507   2.833   5.237 -0.9073 -1.3373  1.3500
 5244TIP3   OH237290   2.498   0.373   5.568  0.2627  0.4367  0.5544
 5244TIP3    H137291   2.509   0.399   5.477 -0.1493  0.2051  0.4356
 5244TIP3    H237292   2.564   0.306   5.583  1.4539  1.6592  0.9124
 5245TIP3   OH237293   0.207   2.560  32.606  0.1275  0.3297  0.5844
 5245TIP3    H137294   0.167   2.565  32.519 -0.9554 -0.3379  1.0197
 5245TIP3    H237295   0.142   2.514  32.659  0.3374  1.6074  2.0027
 5246TIP3   OH237296   1.707   0.640   5.496 -0.7491 -0.4738  0.0762
 5246TIP3    H137297   1.705   0.545   5.483  1.1118 -0.5197 -0.1991
 5246TIP3    H237298   1.718   0.651   5.590 -1.7381 -0.4976  0.2010
 5247TIP3   OH237299   2.366   3.364  29.354 -0.0376  0.1241  0.1264
 5247TIP3    H137300   2.358   3.361  29.449 -1.9574 -0.5912 -0.0221
 5247TIP3    H237301   2.371   3.458  29.334  0.2523  0.2867  0.9184
 5248TIP3   OH237302   1.767   0.085   1.160  1.1006 -0.0756  0.1122
 5248TIP3    H137303   1.787   0.177   1.146 -0.9285  0.4041  0.0935
 5248TIP3    H237304   1.763   0.048   1.072 -1.4357  0.6286 -0.1360
 5249TIP3   OH237305   0.439   2.939  26.893  0.0281  0.6601  0.3655
 5249TIP3    H137306   0.372   2.946  26.961 -0.0886  1.2715  0.1886
 5249TIP3    H237307   0.416   3.006  26.829  1.6745  1.9542  1.0513
 5250TIP3   OH237308   0.529   2.926   0.816  0.2786  0.4569 -0.5497
 5250TIP3    H137309   0.612   2.877   0.817 -1.4090 -2.6905 -1.1865
 5250TIP3    H237310   0.502   2.925   0.724 -0.3564  1.7005 -0.3940
 5251TIP3   OH237311   0.054   3.221  30.658  0.2816 -0.0477 -0.5428
 5251TIP3    H137312   0.019   3.135  30.633  0.4866 -0.4717  0.5962
 5251TIP3    H237313   0.065   3.217  30.753 -0.1962  1.4183 -0.3836
 5252TIP3   OH237314   0.849   1.499  31.725 -0.0142 -0.4875 -0.1373
 5252TIP3    H137315   0.790   1.497  31.801  0.9624 -1.4339  0.6224
 5252TIP3    H237316   0.832   1.584  31.685 -1.4406 -0.4728  0.4206
 5253TIP3   OH237317   2.381   1.804  32.634  0.0459  0.4076 -0.8756
 5253TIP3    H137318   2.318   1.758  32.690  1.0694 -1.1555 -0.9493
 5253TIP3    H237319   2.379   1.894  32.666  1.0216 -0.5126  2.1376
 5254TIP3   OH237320   1.026   0.403  32.436  0.1597 -0.0383 -0.1608
 5254TIP3    H137321   1.095   0.468  32.446 -1.4223  1.5589  0.9534
 5254TIP3    H237322   0.972   0.413  32.514 -0.8314 -1.8814 -0.5443
 5255TIP3   OH237323   1.345   2.995   2.371  0.1395 -0.2473  0.8610
 5255TIP3    H137324   1.393   3.068   2.333 -0.0067 -0.9867 -0.8262
 5255TIP3    H237325   1.392   2.975   2.452  0.9838  0.8414  0.6614
 5256TIP3   OH237326   2.548   2.426   3.739 -0.3211 -0.2712 -0.5598
 5256TIP3    H137327   2.612   2.411   3.809 -1.1951  1.1145  0.5903
 5256TIP3    H237328   2.570   2.361   3.672  0.0149 -2.2478  1.3541
 5257TIP3   OH237329   3.472   2.491  29.625  0.6310  0.1713  0.6794
 5257TIP3    H137330   3.567   2.495  29.617  0.8080 -3.4166 -1.2223
 5257TIP3    H237331   3.457   2.448  29.710  0.8844 -1.1365  0.0958
 5258TIP3   OH237332   1.831   0.065  32.238 -0.1056 -0.7734  0.1332
 5258TIP3    H137333   1.736   0.063  32.225 -0.2777  0.4836  0.9729
 5258TIP3    H237334   1.867   0.031  32.156 -1.2736 -3.6803  0.7097
 5259TIP3   OH237335   3.054   2.215   0.756 -0.0811 -0.2920  0.5229
 5259TIP3    H137336   2.995   2.290   0.768  0.1814  0.3541 -1.8069
 5259TIP3    H237337   3.123   2.229   0.822 -0.3009  1.2578  0.4780
 5260TIP3   OH237338   2.496   0.267  31.817  0.3108  0.0280  0.0506
 5260TIP3    H137339   2.440   0.285  31.742  0.2139 -0.1773  0.0698
 5260TIP3    H237340   2.538   0.350  31.837 -0.0662  0.2080  0.0992
 5261TIP3   OH237341   3.446   1.366   5.328 -0.3202  0.1526  0.3041
 5261TIP3    H137342   3.392   1.291   5.354 -3.6035  2.6121  1.2146
 5261TIP3    H237343   3.392   1.414   5.265  1.6604  1.8221 -0.2297
 5262TIP3   OH237344   1.287   0.367   4.309  0.0032 -0.3062  0.4018
 5262TIP3    H137345   1.223   0.436   4.327  0.0696 -0.4767  1.3044
 5262TIP3    H237346   1.234   0.292   4.280 -0.1100 -0.0764 -0.0025
 5263TIP3   OH237347   2.091   1.239  28.073  0.6733  0.3622 -0.5333
 5263TIP3    H137348   2.171   1.240  28.020  0.6398  3.9938 -0.7534
 5263TIP3    H237349   2.020   1.252  28.010  0.1459 -0.0622 -0.0424
 5264TIP3   OH237350   3.271   0.163  31.229 -0.3737 -0.2329 -0.1609
 5264TIP3    H137351   3.211   0.237  31.223  0.5282  0.7024  1.5174
 5264TIP3    H237352   3.328   0.171  31.153  1.0929  2.1114  1.0962
 5265TIP3   OH237353   1.756   0.973  28.233  0.6459  0.5747 -0.3744
 5265TIP3    H137354   1.736   0.925  28.153  2.6273  1.0007 -1.1907
 5265TIP3    H237355   1.743   1.065  28.211 -0.1964  0.6240  0.2611
 5266TIP3   OH237356   2.910   1.690   7.102  0.4895 -0.9705  0.3046
 5266TIP3    H137357   2.945   1.716   7.187 -1.3633 -0.5422  0.9971
 5266TIP3    H237358   2.821   1.726   7.101  1.0404  0.6628 -2.5776
 5267TIP3   OH237359   0.375   3.367  31.659  0.0725  0.8100 -0.5042
 5267TIP3    H137360   0.405   3.277  31.670  0.2072  0.8384 -0.6260
 5267TIP3    H237361   0.285   3.367  31.692  0.8790  1.2065  1.9104
 5268TIP3   OH237362   2.120   0.479  26.874  0.0653 -0.4225  0.4940
 5268TIP3    H137363   2.115   0.386  26.852 -1.6967 -0.3987  0.6305
 5268TIP3    H237364   2.041   0.495  26.927  0.8514  0.9335  1.3116
 5269TIP3   OH237365   2.096   1.508   7.403  0.4358  0.1291  0.1743
 5269TIP3    H137366   2.010   1.542   7.379 -0.0644 -1.9649 -1.2954
 5269TIP3    H237367   2.108   1.533   7.495 -1.7525  0.4362  0.4107
 5270TIP3   OH237368   0.808   2.415  28.191 -0.1632 -0.2513  0.2688
 5270TIP3    H137369   0.855   2.370  28.121  1.3163  0.5576  0.7083
 5270TIP3    H237370   0.781   2.344  28.250 -2.0384 -1.0316 -1.3660
 5271TIP3   OH237371   2.427   2.821   2.787  0.2405  0.0768  0.1765
 5271TIP3    H137372   2.375   2.897   2.814 -0.8766 -0.2006 -1.1022
 5271TIP3    H237373   2.443   2.835   2.693  1.3976 -0.4956  0.2641
 5272TIP3   OH237374   0.912   3.356   2.154 -0.1465 -0.4909 -0.1643
 5272TIP3    H137375   0.826   3.314   2.162 -0.9042  0.7516 -1.4777
 5272TIP3    H237376   0.894   3.439   2.110  1.4472  0.7788  1.4311
 5273TIP3   OH237377   0.597   3.110   2.598 -0.1120 -0.2862  0.2637
 5273TIP3    H137378   0.553   3.025   2.595  1.2612 -1.0959  1.5504
 5273TIP3    H237379   0.679   3.096   2.550 -0.1458  0.4942 -0.0378
 5274TIP3   OH237380   0.765   2.212  22.071 -0.5955 -0.0098  0.4390
 5274TIP3    H137381   0.693   2.210  22.134  0.3263  0.3439  1.5409
 5274TIP3    H237382   0.819   2.137  22.094 -0.5096 -0.1707 -0.2724
 5275TIP3   OH237383   1.698   2.925   3.214 -0.2259 -0.0351  0.5368
 5275TIP3    H137384   1.623   2.867   3.221  0.8526 -1.3883  1.3195
 5275TIP3    H237385   1.666   3.010   3.243 -0.8205 -1.1606  3.4594
 5276TIP3   OH237386   3.405   2.454   0.149 -0.1289  0.7120 -0.4334
 5276TIP3    H137387   3.499   2.442   0.134 -0.3507  0.9530 -2.2485
 5276TIP3    H237388   3.390   2.548   0.139 -1.0549  0.3254 -3.8421
 5277TIP3   OH237389   2.073   2.806  28.896  0.3805 -0.0669  0.0165
 5277TIP3    H137390   2.128   2.827  28.821 -0.0224 -1.0892 -0.5870
 5277TIP3    H237391   2.123   2.836  28.972  1.8108 -1.0326 -0.5102
 5278TIP3   OH237392   1.110   1.468  29.044 -0.3669  0.3503 -0.5407
 5278TIP3    H137393   1.122   1.393  28.985  0.5942  0.6541 -0.7398
 5278TIP3    H237394   1.151   1.541  28.998 -0.8497  0.8974 -0.1123
 5279TIP3   OH237395   2.330   1.166   6.722  0.0970  0.3475 -0.7617
 5279TIP3    H137396   2.274   1.090   6.731 -0.4291  0.8319  0.2109
 5279TIP3    H237397   2.418   1.134   6.741  0.2256 -0.4791 -2.5936
 5280TIP3   OH237398   0.167   2.164  29.390  0.1477 -0.0245 -0.1464
 5280TIP3    H137399   0.130   2.164  29.478 -0.7819  3.0405 -0.4459
 5280TIP3    H237400   0.228   2.237  29.389  1.8528 -1.3728 -1.4490
 5281TIP3   OH237401   2.565   2.986  28.710 -0.5793  0.1230 -0.2901
 5281TIP3    H137402   2.586   3.058  28.651  0.2745  1.0664  1.0957
 5281TIP3    H237403   2.565   3.026  28.797  0.5408 -1.6716  0.5867
 5282TIP3   OH237404   2.736   2.590   0.414 -0.2152 -0.1380 -0.1684
 5282TIP3    H137405   2.667   2.638   0.366 -1.1947 -0.2559  1.0692
 5282TIP3    H237406   2.717   2.498   0.397 -0.1525 -0.1606 -0.1140
 5283TIP3   OH237407   1.737   0.396   3.755  0.2159 -0.1517 -0.8080
 5283TIP3    H137408   1.762   0.320   3.703 -1.2136 -1.4558  0.2827
 5283TIP3    H237409   1.641   0.395   3.754  0.1285  0.0648  1.3601
 5284TIP3   OH237410   0.565   0.413  29.103  0.1479 -0.2036 -0.4496
 5284TIP3    H137411   0.620   0.386  29.029 -0.1529 -1.3675 -0.2827
 5284TIP3    H237412   0.624   0.417  29.177  0.4437  0.9260 -0.7357
 5285TIP3   OH237413   0.946   0.913   4.639  0.2756 -0.1603  0.0674
 5285TIP3    H137414   1.013   0.854   4.604  0.6389  0.1675  0.2049
 5285TIP3    H237415   0.971   0.999   4.606 -0.7762 -0.2010 -0.9120
 5286TIP3   OH237416   0.977   0.158  27.677  0.2159 -0.0341 -0.1809
 5286TIP3    H137417   0.954   0.084  27.620 -0.8230 -1.3568  1.8506
 5286TIP3    H237418   0.894   0.204  27.689  0.2993 -0.1203  0.7311
 5287TIP3   OH237419   1.210   1.648   5.908  0.3809  0.2025 -0.1318
 5287TIP3    H137420   1.210   1.619   5.999 -2.2011 -0.1095 -0.1822
 5287TIP3    H237421   1.197   1.569   5.856  2.2422  0.3122 -0.8727
 5288TIP3   OH237422   0.779   1.500  24.559 -0.1316  0.7760 -0.6905
 5288TIP3    H137423   0.856   1.490  24.616  0.1532 -2.2492 -1.4672
 5288TIP3    H237424   0.815   1.534  24.477  0.0524  1.3289 -0.3873
 5289TIP3   OH237425   3.087   3.268  32.509  0.0667  0.1358 -0.4035
 5289TIP3    H137426   3.179   3.278  32.533 -0.4506 -2.0557  3.4262
 5289TIP3    H237427   3.054   3.202  32.570 -2.9691 -2.8606 -4.6472
 5290TIP3   OH237428   0.027   0.889   2.032 -0.1250  0.5566 -0.3295
 5290TIP3    H137429  -0.061   0.854   2.016 -0.9280  1.3083  1.9941
 5290TIP3    H237430   0.071   0.821   2.083  0.4067  0.4746 -0.8909
 5291TIP3   OH237431   1.470   1.178   3.297  0.4022 -0.2799  0.0735
 5291TIP3    H137432   1.461   1.196   3.390  0.0218 -2.3494  0.4907
 5291TIP3    H237433   1.420   1.247   3.254  1.7448  1.5290  1.3035
 5292TIP3   OH237434   2.990   2.277  18.517  0.7504 -0.2644  0.3011
 5292TIP3    H137435   2.920   2.308  18.460 -0.0935  1.5730  2.2211
 5292TIP3    H237436   3.067   2.273  18.460 -0.7919 -2.2482 -1.8398
 5293TIP3   OH237437   1.604   0.964  26.227  0.0856 -0.1998  0.2732
 5293TIP3    H137438   1.615   0.873  26.201 -0.0803  0.0140 -0.5707
 5293TIP3    H237439   1.525   0.964  26.282 -0.0067 -0.5332  0.1401
 5294TIP3   OH237440   2.093   1.059  26.554 -0.0804 -0.0451  0.3504
 5294TIP3    H137441   2.047   1.054  26.470 -0.0655 -0.2190  0.3519
 5294TIP3    H237442   2.071   0.978  26.599 -0.6369  0.3533  0.8039
 5295TIP3   OH237443   0.567   1.391  28.537  0.1671 -0.0049 -0.2651
 5295TIP3    H137444   0.649   1.355  28.570 -1.3606 -1.2889  2.4748
 5295TIP3    H237445   0.507   1.316  28.534 -1.3907  1.1893 -0.5075
 5296TIP3   OH237446   0.968   1.418   5.382 -0.1770 -0.5496 -0.2640
 5296TIP3    H137447   0.873   1.414   5.393 -0.1453  0.5206  0.7039
 5296TIP3    H237448   0.993   1.500   5.427  1.2463 -1.0525 -0.0963
 5297TIP3   OH237449   0.445   1.676  29.126  0.4594 -0.1096  0.2174
 5297TIP3    H137450   0.368   1.692  29.072 -0.2579 -0.0808  1.2074
 5297TIP3    H237451   0.489   1.602  29.084 -0.3164 -0.3680 -0.1713
 5298TIP3   OH237452   0.042   3.283  26.137 -0.1171 -0.1982 -0.4854
 5298TIP3    H137453   0.042   3.216  26.068 -0.2329  1.1413 -1.8259
 5298TIP3    H237454   0.131   3.318  26.136 -1.3002  3.4731 -3.7447
 5299TIP3   OH237455   0.342   2.756  30.265 -0.3801 -0.4478 -0.0257
 5299TIP3    H137456   0.261   2.764  30.315 -0.1167 -2.6092  0.8385
 5299TIP3    H237457   0.332   2.677  30.213  0.2283  0.5934 -1.8423
 5300TIP3   OH237458   3.098   0.844   3.238  0.0771  0.1382  0.3023
 5300TIP3    H137459   3.124   0.845   3.330  0.2983 -1.4994  0.2813
 5300TIP3    H237460   3.120   0.931   3.206  2.9521 -0.2400  1.0096
 5301TIP3   OH237461   1.983   0.680   5.440  0.4021 -0.4736 -0.6065
 5301TIP3    H137462   1.997   0.591   5.474 -1.4903 -0.8061 -0.5675
 5301TIP3    H237463   1.888   0.691   5.442  0.6257  1.7645 -0.1235
 5302TIP3   OH237464   2.688   0.604   6.258 -0.0483 -0.0331  0.0932
 5302TIP3    H137465   2.645   0.655   6.327  0.5770  1.2126 -0.4046
 5302TIP3    H237466   2.693   0.515   6.293 -0.4419  0.4156  1.3252
 5303TIP3   OH237467   2.243   2.579   5.933  0.4129 -0.0827  0.1763
 5303TIP3    H137468   2.232   2.671   5.909  0.2006  0.0065  0.6053
 5303TIP3    H237469   2.194   2.531   5.866 -0.0291  0.1518  0.3272
 5304TIP3   OH237470   3.332   3.101  27.407 -0.0393 -0.5534  0.1869
 5304TIP3    H137471   3.280   3.130  27.332  0.5794 -0.2564 -0.1266
 5304TIP3    H237472   3.280   3.127  27.483  0.1839  0.8028 -0.0976
 5305TIP3   OH237473   2.350   1.805   1.237  0.2420 -0.0126 -0.0479
 5305TIP3    H137474   2.367   1.877   1.176  0.2062  0.3695  0.3834
 5305TIP3    H237475   2.300   1.741   1.186 -1.8403  1.3272  0.1701
 5306TIP3   OH237476   3.484   2.859   0.616 -0.3180  0.0676 -0.0812
 5306TIP3    H137477   3.543   2.926   0.582  0.5367 -0.7891 -0.2947
 5306TIP3    H237478   3.439   2.825   0.539 -0.9063  0.5302  0.0510
 5307TIP3   OH237479   1.427   0.310  28.303  0.1516  0.9896  0.0665
 5307TIP3    H137480   1.394   0.326  28.214  2.4450 -1.4704 -1.3841
 5307TIP3    H237481   1.396   0.385  28.354 -0.1559  3.2181 -3.0812
 5308TIP3   OH237482   1.116   2.358  22.333 -0.2628  0.3791 -0.2859
 5308TIP3    H137483   1.043   2.395  22.285 -0.6841  0.9528  0.7559
 5308TIP3    H237484   1.109   2.397  22.420  2.4110  2.0139 -0.6840
 5309TIP3   OH237485   0.554   0.452   5.519  0.6178  0.4650 -0.7841
 5309TIP3    H137486   0.639   0.486   5.489  0.1833  0.4791 -2.0651
 5309TIP3    H237487   0.561   0.357   5.508  1.0620  0.2891  0.7601
 5310TIP3   OH237488   1.882   1.425   3.283  0.1864  0.0644 -0.5335
 5310TIP3    H137489   1.830   1.365   3.230  0.0643  0.6531 -1.0946
 5310TIP3    H237490   1.861   1.402   3.373 -2.0435  1.1023 -0.7217
 5311TIP3   OH237491   2.041   1.786  30.346 -0.3466  0.1390  0.3850
 5311TIP3    H137492   2.125   1.790  30.299 -0.5948  1.6484  0.0236
 5311TIP3    H237493   1.976   1.807  30.279 -0.8037  1.1879  1.1332
 5312TIP3   OH237494   0.225   1.823  26.974  0.0112 -0.1740 -0.6133
 5312TIP3    H137495   0.197   1.852  26.887 -0.0624 -1.5085 -1.0578
 5312TIP3    H237496   0.144   1.813  27.023  0.0463  0.4792 -0.4095
 5313TIP3   OH237497   3.380   2.567   5.105 -0.3771 -0.2530  0.2763
 5313TIP3    H137498   3.325   2.532   5.176 -0.4843 -1.7249 -0.4990
 5313TIP3    H237499   3.407   2.653   5.137 -1.3538 -0.3988  1.6150
 5314TIP3   OH237500   0.496   1.709  21.176 -0.0993 -0.0611 -0.5565
 5314TIP3    H137501   0.513   1.774  21.108 -3.3143 -0.4663 -1.9593
 5314TIP3    H237502   0.514   1.625  21.134  0.2596 -0.2347 -0.0677
 5315TIP3   OH237503   1.711   2.108   2.760  0.2814 -0.3332  0.0274
 5315TIP3    H137504   1.619   2.129   2.777 -0.1141 -0.3272 -1.9112
 5315TIP3    H237505   1.713   2.081   2.668  2.1765 -0.6564  0.1232
 5316TIP3   OH237506   1.198   1.650  29.613  0.6035 -0.1225 -0.0792
 5316TIP3    H137507   1.253   1.581  29.577 -0.7307 -1.4178  0.2545
 5316TIP3    H237508   1.146   1.680  29.538  0.7664  0.0980 -0.1028
 5317TIP3   OH237509   2.712   0.294   6.282  0.3554  0.4971  0.1915
 5317TIP3    H137510   2.802   0.326   6.285  0.0262  1.4472  0.0921
 5317TIP3    H237511   2.674   0.336   6.205 -0.1937  0.1484  0.2664
 5318TIP3   OH237512   0.827   0.372  13.678 -0.1329 -0.0965  0.1683
 5318TIP3    H137513   0.907   0.323  13.697 -1.2248 -1.3086  1.9723
 5318TIP3    H237514   0.791   0.393  13.764 -0.8424  2.0580 -0.5793
 5319TIP3   OH237515   3.220   1.149  28.332 -0.9124  0.4083 -0.4301
 5319TIP3    H137516   3.308   1.177  28.307 -0.4602  0.6539  1.3572
 5319TIP3    H237517   3.170   1.231  28.338 -0.5835  0.5309  1.0173
 5320TIP3   OH237518   1.310   2.578   2.242  0.1440 -0.2391  0.3442
 5320TIP3    H137519   1.343   2.568   2.152  1.5024 -0.0261  0.7933
 5320TIP3    H237520   1.293   2.671   2.252  5.2530  0.8443  1.9285
 5321TIP3   OH237521   2.082   1.472   5.560 -0.0601 -0.7413 -0.1142
 5321TIP3    H137522   2.176   1.485   5.551 -0.5312  2.5953 -2.1990
 5321TIP3    H237523   2.073   1.393   5.613  3.8586 -1.7886 -0.7056
 5322TIP3   OH237524   1.843   2.190  32.768  0.3063 -0.0162  0.1187
 5322TIP3    H137525   1.807   2.122  32.825  1.3691 -0.9441 -0.2825
 5322TIP3    H237526   1.916   2.147  32.723  0.5058  1.1711 -0.7273
 5323TIP3   OH237527   0.941   1.652  32.018  0.2888 -0.1626 -0.5133
 5323TIP3    H137528   0.971   1.702  31.942 -2.1243 -0.1305 -1.5048
 5323TIP3    H237529   0.849   1.635  32.001  0.3489 -2.6137  1.0875
 5324TIP3   OH237530   0.414   2.097  32.861 -0.0590  0.1961  0.0932
 5324TIP3    H137531   0.475   2.094  32.787 -1.3987  0.4484 -1.0680
 5324TIP3    H237532   0.470   2.092  32.938  1.3315 -1.0401 -0.9279
 5325TIP3   OH237533   1.285   1.410   5.655  0.1317 -0.2373 -0.2636
 5325TIP3    H137534   1.261   1.334   5.601 -1.2681  0.0361 -0.0776
 5325TIP3    H237535   1.367   1.442   5.617 -0.7342 -0.1385 -2.1583
 5326TIP3   OH237536   0.235   0.335  25.985  0.1782  0.0603 -0.1089
 5326TIP3    H137537   0.301   0.352  26.052  0.3927  0.2282 -0.3601
 5326TIP3    H237538   0.162   0.392  26.008  0.1335 -0.0953  0.1453
 5327TIP3   OH237539   2.640   1.160  30.803  0.6169  0.0013  0.3810
 5327TIP3    H137540   2.576   1.231  30.804 -1.5722 -1.8562  1.5860
 5327TIP3    H237541   2.696   1.177  30.879 -1.9599 -1.1739  2.7109
 5328TIP3   OH237542   0.274   1.357  27.170 -0.4727  0.1957 -0.0643
 5328TIP3    H137543   0.200   1.296  27.179 -0.3561  0.1246  0.4976
 5328TIP3    H237544   0.351   1.300  27.174 -0.2876  0.5116  2.3490
 5329TIP3   OH237545   1.831   3.142  28.849 -0.3073 -0.2840  0.2342
 5329TIP3    H137546   1.898   3.111  28.910 -0.3068  0.1881  0.4821
 5329TIP3    H237547   1.827   3.076  28.781 -0.6264 -1.0490  0.9811
 5330TIP3   OH237548   1.041   0.833   6.515  0.0822  0.2128 -0.5288
 5330TIP3    H137549   0.948   0.850   6.530  0.3093 -0.2605  1.8522
 5330TIP3    H237550   1.072   0.795   6.598  1.8235 -2.1272 -2.1017
 5331TIP3   OH237551   0.511   1.736   3.431 -0.5944  0.0613 -0.3274
 5331TIP3    H137552   0.561   1.803   3.384 -1.0220  2.7465  2.6566
 5331TIP3    H237553   0.423   1.741   3.394 -0.4747  0.7634 -0.5297
 5332TIP3   OH237554   3.033   0.494   1.146 -0.0491  0.1880 -0.5817
 5332TIP3    H137555   3.061   0.576   1.186 -1.3245  0.3642  0.0137
 5332TIP3    H237556   3.075   0.492   1.061  2.0922  0.2100  0.4179
 5333TIP3   OH237557   1.581   3.022  29.779 -0.1448 -0.0085 -0.4176
 5333TIP3    H137558   1.532   2.964  29.721  2.3272 -1.3227 -1.3745
 5333TIP3    H237559   1.642   3.067  29.720  1.5625 -0.4236  0.9540
 5334TIP3   OH237560   0.618   0.301   5.215  0.0276  0.6663 -0.5397
 5334TIP3    H137561   0.577   0.245   5.281  0.8125  0.6066 -0.0904
 5334TIP3    H237562   0.560   0.297   5.140  0.6563 -1.7230 -0.9605
 5335TIP3   OH237563   0.480   0.482  29.820 -0.1444 -0.1751  0.3968
 5335TIP3    H137564   0.385   0.467  29.823 -0.2613  0.5727  0.4550
 5335TIP3    H237565   0.491   0.574  29.842  0.4491  0.3206 -1.7230
 5336TIP3   OH237566   3.163   1.532   2.602 -0.5922  0.3212  0.5777
 5336TIP3    H137567   3.083   1.584   2.600 -0.0927  1.0827 -0.7646
 5336TIP3    H237568   3.176   1.504   2.512 -1.1440 -2.6985  1.3010
 5337TIP3   OH237569   1.349   0.833   4.057  0.2212  0.5810  0.0398
 5337TIP3    H137570   1.330   0.872   3.972  1.1466  0.3238 -0.2977
 5337TIP3    H237571   1.442   0.810   4.053  0.0759 -0.2053  0.8131
 5338TIP3   OH237572   2.350   1.686   4.621 -0.4936  0.0588  0.3019
 5338TIP3    H137573   2.442   1.702   4.603 -0.4331  1.7148  1.7957
 5338TIP3    H237574   2.318   1.769   4.657 -2.9563  0.0428 -1.5590
 5339TIP3   OH237575   1.155   0.325   5.200  0.0485  1.0872 -0.6109
 5339TIP3    H137576   1.153   0.408   5.153  1.4495  0.6434 -1.5131
 5339TIP3    H237577   1.068   0.287   5.188 -0.5680  2.3483 -0.2848
 5340TIP3   OH237578   3.209   1.335  30.560 -0.0230  0.3907  0.3089
 5340TIP3    H137579   3.188   1.326  30.653 -0.9486  0.6746  0.1365
 5340TIP3    H237580   3.177   1.254  30.520  3.2143 -1.2539  0.6555
 5341TIP3   OH237581   0.695   0.541  27.760 -0.4047  0.0999 -0.6791
 5341TIP3    H137582   0.689   0.453  27.722  0.2130  0.4207 -1.5482
 5341TIP3    H237583   0.604   0.563  27.781 -0.8625  0.1060 -2.4701
 5342TIP3   OH237584   0.800   0.453   4.645 -0.4669 -0.3584 -0.1822
 5342TIP3    H137585   0.824   0.365   4.673 -0.0670  0.2236  1.3766
 5342TIP3    H237586   0.847   0.465   4.563  0.1559 -1.2808  0.0216
 5343TIP3   OH237587   0.743   0.391  30.594 -0.1937 -0.2618 -0.0548
 5343TIP3    H137588   0.654   0.377  30.561 -0.4941  0.3821  0.4613
 5343TIP3    H237589   0.778   0.303  30.608 -1.1449 -0.5173  0.7894
 5344TIP3   OH237590   2.885   1.691   0.110 -0.6374 -0.2858  0.2325
 5344TIP3    H137591   2.940   1.761   0.075 -0.1307  0.2199  1.9720
 5344TIP3    H237592   2.915   1.612   0.063  0.2591  0.2957 -0.2050
 5345TIP3   OH237593   0.829   3.141  29.845  0.1474 -0.1988 -0.4915
 5345TIP3    H137594   0.862   3.098  29.924  0.8120 -0.0242 -0.6708
 5345TIP3    H237595   0.884   3.107  29.774 -0.4900 -0.4094 -0.8964
 5346TIP3   OH237596   3.039   3.304  14.275 -0.0971  0.4268  0.0243
 5346TIP3    H137597   2.999   3.391  14.283 -1.1582 -0.1092  0.7738
 5346TIP3    H237598   3.064   3.280  14.364  0.3524  0.0368 -0.2015
 5347TIP3   OH237599   0.324   2.386   4.510 -0.2960 -0.1717  0.0044
 5347TIP3    H137600   0.261   2.449   4.546 -0.4028 -0.2899  0.0239
 5347TIP3    H237601   0.403   2.401   4.562  0.3186  1.3227 -1.2834
 5348TIP3   OH237602   2.366   0.502  28.541 -0.1989 -0.3756 -0.4282
 5348TIP3    H137603   2.392   0.463  28.625 -1.4289 -0.6825 -0.1724
 5348TIP3    H237604   2.335   0.590  28.564 -0.6044 -0.4862 -0.5483
 5349TIP3   OH237605   2.567   2.991   4.085  0.3035 -0.1778  0.6686
 5349TIP3    H137606   2.548   3.016   4.175  1.0149 -0.0333  0.7767
 5349TIP3    H237607   2.550   2.896   4.082  1.2914 -0.3768  1.2175
 5350TIP3   OH237608   0.310   2.363  31.272  0.1041 -0.0815  0.3470
 5350TIP3    H137609   0.225   2.357  31.229 -1.3851  0.8409  2.9640
 5350TIP3    H237610   0.311   2.449  31.313  2.1841 -0.1928  0.6439
 5351TIP3   OH237611   2.111   1.432  26.256 -0.3979 -0.0715 -0.3064
 5351TIP3    H137612   2.027   1.387  26.250 -0.0028 -0.8092 -0.4762
 5351TIP3    H237613   2.095   1.507  26.313 -1.7231  1.0838 -2.1059
 5352TIP3   OH237614   1.228   2.213   3.203  0.7000 -0.0160 -0.0420
 5352TIP3    H137615   1.301   2.231   3.144  1.2536 -0.9603  0.3311
 5352TIP3    H237616   1.265   2.226   3.291 -0.2883  2.0335  0.1203
 5353TIP3   OH237617   2.103   1.748   2.229 -0.0208  0.7914  0.1971
 5353TIP3    H137618   2.176   1.693   2.258 -0.4748 -0.5562 -1.0526
 5353TIP3    H237619   2.142   1.809   2.167 -0.0893 -0.9014 -1.6440
 5354TIP3   OH237620   1.356   1.769  32.152  0.2361 -0.5969  0.2179
 5354TIP3    H137621   1.420   1.698  32.146  0.7097 -0.2172  0.7420
 5354TIP3    H237622   1.360   1.797  32.243  1.1768  1.1536 -0.3228
 5355TIP3   OH237623   1.114   1.923  28.002 -0.3687  0.5172 -0.4734
 5355TIP3    H137624   1.101   1.961  28.088 -0.4704 -0.3969 -0.0661
 5355TIP3    H237625   1.193   1.965  27.968  1.2571 -0.9873  1.1982
 5356TIP3   OH237626   2.350   0.506  32.781  0.2438  0.2815  0.3538
 5356TIP3    H137627   2.263   0.467  32.782  0.7414 -0.8402  0.9879
 5356TIP3    H237628   2.351   0.561  32.702 -0.6997 -0.4690 -0.1934
 5357TIP3   OH237629   1.620   2.681  30.816  0.0934  0.1414  0.7104
 5357TIP3    H137630   1.568   2.640  30.885 -1.6764  1.3437  0.1852
 5357TIP3    H237631   1.676   2.611  30.782  0.3469 -0.6931  2.7112
 5358TIP3   OH237632   0.219   1.060   7.762 -0.6044 -0.2751  0.2919
 5358TIP3    H137633   0.290   1.117   7.733 -0.2446  0.3828  2.2921
 5358TIP3    H237634   0.188   1.017   7.682  1.1140  0.4562 -0.8255
 5359TIP3   OH237635   2.780   0.616   1.258 -0.2406 -0.7678 -0.0983
 5359TIP3    H137636   2.792   0.524   1.235 -0.7633 -0.9137  0.1774
 5359TIP3    H237637   2.779   0.662   1.175 -1.3779 -1.1934 -0.3445
 5360TIP3   OH237638   3.142   2.319   2.030 -0.1506  0.5494 -0.5052
 5360TIP3    H137639   3.209   2.343   1.967  2.4469  2.0217  2.5289
 5360TIP3    H237640   3.075   2.387   2.023 -0.0698  0.5049 -1.8230
 5361TIP3   OH237641   2.135   2.073   2.871 -1.1469  0.1479 -0.1598
 5361TIP3    H137642   2.110   1.999   2.927 -0.2266  1.1025  1.6165
 5361TIP3    H237643   2.226   2.056   2.848 -0.5622  1.2445  1.2214
 5362TIP3   OH237644   1.841   1.923   5.282  0.1869  0.3184  0.7105
 5362TIP3    H137645   1.886   2.001   5.315 -1.5222  1.1315  1.2612
 5362TIP3    H237646   1.879   1.851   5.333  0.7049  0.9925  1.3178
 5363TIP3   OH237647   1.699   1.079  32.765  0.9079  0.2804  0.3411
 5363TIP3    H137648   1.773   1.049  32.818  0.4793 -1.0314  0.2316
 5363TIP3    H237649   1.649   1.137  32.824  0.2533 -1.4174  1.5340
 5364TIP3   OH237650   2.388   2.111   1.862  0.3645  0.3923 -0.1699
 5364TIP3    H137651   2.322   2.084   1.798  1.2610  1.3143 -1.5394
 5364TIP3    H237652   2.403   2.032   1.915 -1.3365 -0.0163 -0.2332
 5365TIP3   OH237653   1.526   0.102   1.650 -0.7636 -0.0902 -0.2003
 5365TIP3    H137654   1.510   0.179   1.705 -3.5623 -0.1563 -0.7879
 5365TIP3    H237655   1.445   0.052   1.654  0.3933 -2.2003 -1.1855
 5366TIP3   OH237656   1.287   2.904   4.842 -0.0693  0.3448 -0.5718
 5366TIP3    H137657   1.294   2.838   4.911  0.3780 -0.0305 -0.9729
 5366TIP3    H237658   1.200   2.890   4.804 -0.3344  0.5801 -0.0619
 5367TIP3   OH237659   2.197   2.193   7.108  0.2856 -0.4392 -0.2572
 5367TIP3    H137660   2.102   2.206   7.108  0.4027  0.5507 -1.5814
 5367TIP3    H237661   2.217   2.170   7.199 -1.0231  0.9472  0.4371
 5368TIP3   OH237662   2.488   3.276  30.198  0.2943  0.9750 -0.2320
 5368TIP3    H137663   2.581   3.260  30.182  0.1253  1.6411 -2.0472
 5368TIP3    H237664   2.447   3.191  30.184  0.8205  0.0557  2.9407
 5369TIP3   OH237665   2.002   1.043  32.392  0.8639 -0.1701 -0.2081
 5369TIP3    H137666   2.027   1.042  32.300  0.2128  0.8759 -0.4151
 5369TIP3    H237667   1.913   1.079  32.392  1.2134  0.7508  0.9010
 5370TIP3   OH237668   1.810   2.679   6.606  0.0607 -0.0666  0.2497
 5370TIP3    H137669   1.761   2.759   6.589 -0.9086 -0.5450  0.7176
 5370TIP3    H237670   1.830   2.643   6.519  1.2302  1.0916  0.0132
 5371TIP3   OH237671   0.808   2.155  30.334  0.3927  0.4323  0.3107
 5371TIP3    H137672   0.760   2.076  30.311 -1.3656  1.2020  1.1523
 5371TIP3    H237673   0.897   2.140  30.301 -0.5438 -0.8135 -1.8599
 5372TIP3   OH237674   3.535   2.953   0.005  0.1606  0.1105  0.0175
 5372TIP3    H137675   3.603   2.901  -0.037  0.5554  1.3494 -0.9712
 5372TIP3    H237676   3.575   2.985   0.086  0.7096  0.6728 -0.4640
 5373TIP3   OH237677   1.621   1.404  20.006 -0.0401 -0.2332 -0.0824
 5373TIP3    H137678   1.658   1.487  19.978 -1.4052  0.4394  0.0114
 5373TIP3    H237679   1.549   1.389  19.945 -1.5147  0.0256  1.5175
 5374TIP3   OH237680   0.904   1.084  26.283 -0.2188  0.0887 -0.2800
 5374TIP3    H137681   0.951   1.165  26.262 -2.0649  0.9398 -1.3587
 5374TIP3    H237682   0.918   1.028  26.206  0.3070 -0.2939  0.0815
 5375TIP3   OH237683   1.969   1.312  31.724 -0.0632 -0.2156 -0.0311
 5375TIP3    H137684   2.060   1.339  31.732 -0.2841  0.5282  0.0863
 5375TIP3    H237685   1.966   1.262  31.642  0.2625  0.5949 -0.5576
 5376TIP3   OH237686   1.796   1.143  31.845  0.8707 -0.2410 -0.2852
 5376TIP3    H137687   1.748   1.186  31.915  0.3353 -1.3736  0.0613
 5376TIP3    H237688   1.863   1.207  31.819  1.6458 -0.1384  1.8422
 5377TIP3   OH237689   2.949   2.487  32.398  0.4002  0.2361 -0.3969
 5377TIP3    H137690   3.017   2.543  32.436  0.0456  0.3180  0.1129
 5377TIP3    H237691   2.962   2.402  32.438 -0.6085  0.5700  0.6978
 5378TIP3   OH237692   1.810   0.029  26.895 -0.4957  0.2131 -0.5119
 5378TIP3    H137693   1.719   0.016  26.922 -0.3606 -0.3483 -0.3316
 5378TIP3    H237694   1.850  -0.057  26.900  0.0134  0.4311 -0.7344
 5379TIP3   OH237695   3.151   0.383  29.018 -0.1935 -0.1204  0.8404
 5379TIP3    H137696   3.169   0.471  29.051 -0.2315 -0.4701  1.8448
 5379TIP3    H237697   3.143   0.330  29.097 -0.6192 -0.9393  0.2582
 5380TIP3   OH237698   3.193   1.751  31.402 -0.4849 -0.4793 -0.0508
 5380TIP3    H137699   3.105   1.729  31.432  0.2871 -1.2719  1.7706
 5380TIP3    H237700   3.247   1.677  31.429  0.7898  0.0919 -0.9330
 5381TIP3   OH237701   1.401   2.903  29.625  0.2358 -0.3109 -0.0218
 5381TIP3    H137702   1.359   2.984  29.596  0.0781  0.1970  1.5269
 5381TIP3    H237703   1.373   2.837  29.561 -1.1066  0.4755 -0.2828
 5382TIP3   OH237704   0.605   1.986  30.408 -0.1798  0.1839 -0.1681
 5382TIP3    H137705   0.672   1.957  30.470 -1.6352 -1.4379  0.7407
 5382TIP3    H237706   0.545   2.039  30.461  0.5143  1.9322 -1.0514
 5383TIP3   OH237707   2.730   2.894  31.276  0.4216 -0.0324 -0.0025
 5383TIP3    H137708   2.805   2.879  31.217 -1.5432  0.4929 -2.8187
 5383TIP3    H237709   2.682   2.811  31.275 -0.1363  0.2877  0.1190
 5384TIP3   OH237710   3.406   1.761   2.908  0.3659 -0.5509 -0.1572
 5384TIP3    H137711   3.319   1.723   2.906  0.9861 -2.1098  0.3896
 5384TIP3    H237712   3.401   1.832   2.972 -0.6486 -0.1779 -0.6394
 5385TIP3   OH237713   3.378   2.301   0.642  0.2182 -0.0049 -0.4796
 5385TIP3    H137714   3.373   2.209   0.617 -0.6438  0.2062 -1.1246
 5385TIP3    H237715   3.334   2.307   0.727 -0.4424 -0.0637 -0.8115
 5386TIP3   OH237716   2.711   0.838   4.201 -0.2249 -0.1850 -0.1048
 5386TIP3    H137717   2.655   0.876   4.133 -1.1595  1.1901  1.3533
 5386TIP3    H237718   2.663   0.761   4.232 -1.4114  1.0052  1.1612
 5387TIP3   OH237719   2.988   0.043  26.392  0.5316 -0.3566 -0.0292
 5387TIP3    H137720   3.073   0.085  26.379  0.5475 -0.1947  0.5397
 5387TIP3    H237721   2.925   0.116  26.392  0.4441 -0.4315 -0.0279
 5388TIP3   OH237722   2.746   1.300   1.455 -0.3719  0.3429 -0.0286
 5388TIP3    H137723   2.705   1.225   1.500  1.2175  0.5545  1.9105
 5388TIP3    H237724   2.727   1.285   1.362 -1.4041 -1.6352  0.4339
 5389TIP3   OH237725   0.864   0.800  29.077  0.5114  0.1337 -0.1554
 5389TIP3    H137726   0.954   0.785  29.106  1.1045  1.7756 -0.9655
 5389TIP3    H237727   0.825   0.852  29.147  0.9808  1.4743 -0.8539
 5390TIP3   OH237728   3.246   2.525  28.972 -0.0013  0.5404 -0.0293
 5390TIP3    H137729   3.207   2.439  28.960  0.5133  0.2850  0.0974
 5390TIP3    H237730   3.331   2.508  29.013  0.1901  1.0929 -0.1784
 5391TIP3   OH237731   2.468   0.813  32.446  0.2756  0.1798 -0.2439
 5391TIP3    H137732   2.491   0.737  32.393 -0.5274  0.2127 -0.6502
 5391TIP3    H237733   2.454   0.884  32.382  0.3150  0.4840  0.0800
 5392TIP3   OH237734   1.650   0.423   6.035 -0.7302 -0.3648  0.0495
 5392TIP3    H137735   1.596   0.495   6.002 -0.7320 -0.2460  0.3143
 5392TIP3    H237736   1.652   0.361   5.963 -2.4042 -1.0344  0.5384
 5393TIP3   OH237737   0.670   1.453  30.278 -0.2399 -0.5212 -0.4921
 5393TIP3    H137738   0.670   1.360  30.256  1.7309 -0.6193 -0.2817
 5393TIP3    H237739   0.734   1.491  30.218  1.3333  0.1188  1.4644
 5394TIP3   OH237740   2.438   1.280  32.276 -0.7274 -0.4874  0.1813
 5394TIP3    H137741   2.346   1.288  32.299 -0.3222 -0.1597  1.7995
 5394TIP3    H237742   2.455   1.186  32.274 -1.0927 -0.5498 -0.1739
 5395TIP3   OH237743   1.807   0.118  29.541  0.0945 -0.5393 -0.2377
 5395TIP3    H137744   1.828   0.130  29.634 -2.0183  1.3420  0.0827
 5395TIP3    H237745   1.859   0.185  29.496  1.0194 -1.3671 -0.4477
 5396TIP3   OH237746   1.709   2.597  32.409  0.2706 -0.3726 -0.5135
 5396TIP3    H137747   1.663   2.664  32.358 -0.0609 -0.6142 -0.5302
 5396TIP3    H237748   1.641   2.558  32.465  0.4407 -0.7698 -0.5809
 5397TIP3   OH237749   0.288   0.308  11.250 -0.3487  0.2656  0.0548
 5397TIP3    H137750   0.382   0.296  11.232 -0.4695 -1.7707  0.5854
 5397TIP3    H237751   0.244   0.249  11.190 -1.3144  1.1560 -0.1354
 5398TIP3   OH237752   1.044   3.306  27.933 -0.3377 -0.0328 -0.4578
 5398TIP3    H137753   1.113   3.244  27.957 -0.2675  0.3675  0.3981
 5398TIP3    H237754   0.968   3.251  27.914 -0.2301 -0.4046  0.1446
 5399TIP3   OH237755   2.042   0.860   2.856 -0.2959  0.5547 -0.7650
 5399TIP3    H137756   2.093   0.805   2.796  0.5229  1.2155 -0.6946
 5399TIP3    H237757   2.001   0.798   2.916 -0.4630 -0.0645 -1.4986
 5400TIP3   OH237758   0.115   1.498   6.855 -0.0660 -0.1607  0.1465
 5400TIP3    H137759   0.052   1.439   6.813 -0.8989 -0.1411  1.3032
 5400TIP3    H237760   0.149   1.448   6.929  1.1173 -0.0788 -0.3301
 5401TIP3   OH237761   0.692   2.010  27.274 -0.0798  0.0841 -0.3128
 5401TIP3    H137762   0.717   2.060  27.352  1.2267 -0.2944 -0.4796
 5401TIP3    H237763   0.682   1.920  27.306  0.5138 -0.0806 -0.5939
 5402TIP3   OH237764   1.654   2.856  13.373  0.7186 -0.8373  0.2986
 5402TIP3    H137765   1.613   2.775  13.345  2.6993 -0.7450 -3.5674
 5402TIP3    H237766   1.748   2.841  13.361  1.3008  1.3563  1.5449
 5403TIP3   OH237767   1.315   0.797   1.683  0.0721  0.0165 -0.6831
 5403TIP3    H137768   1.376   0.871   1.693  1.7089 -1.3831  0.1970
 5403TIP3    H237769   1.365   0.731   1.635 -0.5108 -1.4096  0.5950
 5404TIP3   OH237770   3.486   2.533   0.761 -0.1906 -0.5419 -0.3341
 5404TIP3    H137771   3.412   2.512   0.704  0.9878  0.4769 -2.3847
 5404TIP3    H237772   3.557   2.556   0.700  1.8261 -1.4677  1.5183
 5405TIP3   OH237773   0.230   3.071  30.295  0.9606  0.3065 -0.1743
 5405TIP3    H137774   0.242   3.150  30.347 -0.0874  1.3253 -1.4251
 5405TIP3    H237775   0.236   3.101  30.204 -1.8771 -0.5992 -0.7408
 5406TIP3   OH237776   0.011   0.417   6.504  0.1913  0.1889 -0.6087
 5406TIP3    H137777   0.029   0.456   6.589 -1.3789  1.0551 -0.6356
 5406TIP3    H237778  -0.055   0.350   6.522  1.3027 -1.0294 -0.8827
 5407TIP3   OH237779   2.948   1.586  23.536 -0.1411 -0.1758  0.2776
 5407TIP3    H137780   2.931   1.620  23.449  0.6765 -0.8015 -0.1423
 5407TIP3    H237781   3.011   1.515  23.522 -1.5987 -1.7188  1.1308
 5408TIP3   OH237782   1.313   1.687  22.972  0.3439 -0.0444 -0.3480
 5408TIP3    H137783   1.218   1.676  22.958  0.2829  0.7316 -0.5780
 5408TIP3    H237784   1.320   1.738  23.052  0.6800 -3.4133  1.9962
 5409TIP3   OH237785   0.123   0.040   4.730  0.0406 -0.4879  0.1815
 5409TIP3    H137786   0.183   0.115   4.733 -0.9781  0.3324  0.3364
 5409TIP3    H237787   0.077   0.042   4.814 -1.1081 -0.3442 -0.4317
 5410TIP3   OH237788   2.381   3.310  26.031  0.2379 -0.0973 -0.5564
 5410TIP3    H137789   2.304   3.362  26.010 -1.8420 -1.0917  3.6632
 5410TIP3    H237790   2.356   3.220  26.010  0.2708 -0.4162  0.7239
 5411TIP3   OH237791   2.708   2.302  31.341 -0.0740  0.3405  0.2124
 5411TIP3    H137792   2.781   2.248  31.311 -0.6327 -0.0103 -0.5572
 5411TIP3    H237793   2.712   2.297  31.437  0.5471 -0.1573  0.1654
 5412TIP3   OH237794   2.896   1.304  27.146  0.0055  0.3185  0.1710
 5412TIP3    H137795   2.831   1.342  27.087  0.9043 -0.4441 -1.4025
 5412TIP3    H237796   2.899   1.363  27.221 -0.4915  1.8911 -0.9974
 5413TIP3   OH237797   2.122   0.552   1.204  0.9384 -0.3059 -0.8156
 5413TIP3    H137798   2.199   0.545   1.149  1.6117 -1.5291  0.2267
 5413TIP3    H237799   2.061   0.606   1.154  1.5082 -1.3565 -2.7407
 5414TIP3   OH237800   2.872   1.010   3.159  0.1134  0.5807  0.2141
 5414TIP3    H137801   2.802   0.962   3.203  0.4548 -0.0726  0.0447
 5414TIP3    H237802   2.896   1.079   3.220  0.9172 -0.6055  1.2883
 5415TIP3   OH237803   2.193   1.477  32.554  0.4611 -0.5898 -0.0498
 5415TIP3    H137804   2.158   1.421  32.485  0.4654 -0.4180 -0.1940
 5415TIP3    H237805   2.281   1.443  32.570  0.1145 -1.2302  0.5465
 5416TIP3   OH237806   1.209   3.017   2.800 -0.0405  0.0402  0.6081
 5416TIP3    H137807   1.155   2.938   2.795  2.4532 -1.6977 -3.2842
 5416TIP3    H237808   1.146   3.089   2.799 -2.3382 -1.8158  1.3633
 5417TIP3   OH237809   1.753   3.040   3.617  0.3341  0.3018  0.1866
 5417TIP3    H137810   1.768   2.978   3.547 -4.0246 -0.3593 -0.4069
 5417TIP3    H237811   1.748   2.987   3.697 -0.1676  0.3288  0.1734
 5418TIP3   OH237812   2.639   0.666   6.778  0.2348  0.4104 -0.3986
 5418TIP3    H137813   2.608   0.636   6.693 -0.0691 -0.2242 -0.0674
 5418TIP3    H237814   2.725   0.705   6.759  1.4415 -2.1262 -0.6499
 5419TIP3   OH237815   0.282   1.348  29.259  0.2932 -0.2970 -0.3932
 5419TIP3    H137816   0.329   1.341  29.342 -1.3851 -0.3164  0.6111
 5419TIP3    H237817   0.308   1.271  29.209  0.2931 -1.0113  0.6867
 5420TIP3   OH237818   1.014   2.626  32.469 -0.1111 -0.5097 -0.1944
 5420TIP3    H137819   0.932   2.598  32.509 -0.0718  1.4716  1.4520
 5420TIP3    H237820   0.989   2.653  32.380 -1.7606  1.9428  0.8770
 5421TIP3   OH237821   1.559   3.097  15.279  0.6491 -0.1352 -0.3602
 5421TIP3    H137822   1.641   3.142  15.259  1.0483 -0.7678 -0.2026
 5421TIP3    H237823   1.575   3.006  15.253 -0.9710  0.2324 -2.9927
 5422TIP3   OH237824   1.485   0.341   3.657 -0.3140  0.2165 -0.4607
 5422TIP3    H137825   1.441   0.395   3.591 -1.6158  0.6180  0.6972
 5422TIP3    H237826   1.478   0.252   3.622  2.1265  0.7189 -2.5402
 5423TIP3   OH237827   2.750   2.163   5.073 -0.2154  0.3060 -0.2949
 5423TIP3    H137828   2.829   2.119   5.041 -0.8072 -0.5676 -0.5942
 5423TIP3    H237829   2.783   2.242   5.116  0.9595 -0.8477  1.0293
 5424TIP3   OH237830   2.460   2.098  29.710 -0.3560 -0.0684  0.0902
 5424TIP3    H137831   2.446   2.051  29.792  1.0403 -0.3609  0.1815
 5424TIP3    H237832   2.553   2.123  29.712 -0.0379 -0.9060 -1.8072
 5425TIP3   OH237833   0.920   2.631   5.157  0.1198  0.0510  0.0232
 5425TIP3    H137834   0.979   2.653   5.085 -0.7275  0.3813 -0.5887
 5425TIP3    H237835   0.855   2.700   5.156  0.0726  0.0381  1.0973
 5426TIP3   OH237836   2.505   3.093   4.631  0.1456 -0.3429  0.8049
 5426TIP3    H137837   2.420   3.082   4.673  0.4192 -3.4902  0.7676
 5426TIP3    H237838   2.546   3.007   4.635  1.2773 -0.2614 -3.5491
 5427TIP3   OH237839   3.135   0.689   2.876  0.4198  0.7357 -0.2381
 5427TIP3    H137840   3.071   0.753   2.905  0.6795  0.8807  0.0207
 5427TIP3    H237841   3.207   0.696   2.939  0.0737 -0.4178  0.3220
 5428TIP3   OH237842   1.636   1.357  21.735 -0.3946 -0.1737  0.2190
 5428TIP3    H137843   1.693   1.433  21.728 -0.8707  0.0803 -1.1074
 5428TIP3    H237844   1.609   1.355  21.827  1.4009 -0.0633  0.7799
 5429TIP3   OH237845   1.309   2.723  29.430 -0.2248  0.3310 -0.9452
 5429TIP3    H137846   1.360   2.736  29.350  0.6631 -0.8739 -0.6012
 5429TIP3    H237847   1.305   2.628  29.441  0.5304  0.4766  0.9681
 5430TIP3   OH237848   1.939   2.470   4.108 -0.0096 -0.0926 -0.0466
 5430TIP3    H137849   1.948   2.495   4.016 -0.8333  1.0283  0.1624
 5430TIP3    H237850   2.029   2.450   4.136  0.3773  0.5045 -0.8285
 5431TIP3   OH237851   2.866   2.112   0.400 -0.2322  0.0270  0.1764
 5431TIP3    H137852   2.850   2.123   0.494 -2.1506  0.4994 -0.1487
 5431TIP3    H237853   2.871   2.017   0.388 -2.1170 -0.1621  0.5113
 5432TIP3   OH237854   3.057   2.918   4.213 -0.5767 -0.1394 -0.0324
 5432TIP3    H137855   3.010   2.946   4.134  1.6245 -0.1156 -1.4303
 5432TIP3    H237856   3.144   2.895   4.181  0.4448  0.0280  2.4538
 5433TIP3   OH237857   1.211   2.145   2.473 -0.4627 -0.5624  0.4633
 5433TIP3    H137858   1.229   2.217   2.413 -2.2264 -1.0352 -0.7072
 5433TIP3    H237859   1.149   2.181   2.536  2.2585  0.2985  2.8958
 5434TIP3   OH237860   3.374   1.964   3.389 -0.3285  0.2311  0.0122
 5434TIP3    H137861   3.312   2.036   3.405  0.6877  1.3010 -0.6394
 5434TIP3    H237862   3.350   1.931   3.302 -0.4797  0.1169  0.0971
 5435TIP3   OH237863   2.979   2.975   2.664  0.3554 -0.0257  0.0731
 5435TIP3    H137864   3.031   2.920   2.605 -0.0425 -1.6239  1.1388
 5435TIP3    H237865   3.043   3.035   2.704  0.9542 -0.3031 -0.4608
 5436TIP3   OH237866   0.235   2.133  26.557 -0.7382 -0.1008  0.2827
 5436TIP3    H137867   0.156   2.082  26.542 -0.4544 -0.5068  0.1715
 5436TIP3    H237868   0.292   2.114  26.482 -0.2764 -0.3061  0.6788
 5437TIP3   OH237869   1.904   2.337  25.994 -0.3073 -0.1058  0.2335
 5437TIP3    H137870   1.810   2.323  25.985 -0.1872 -0.0925 -1.3475
 5437TIP3    H237871   1.929   2.383  25.914  1.2676 -1.3044 -0.0237
 5438TIP3   OH237872   2.635   1.333  20.000 -0.0963 -0.4857  0.3544
 5438TIP3    H137873   2.670   1.412  20.040  0.2186  0.4451 -1.6448
 5438TIP3    H237874   2.692   1.316  19.925 -1.7822 -1.0013 -0.8876
 5439TIP3   OH237875   2.770   3.038   4.488 -0.1931  0.2289  0.2753
 5439TIP3    H137876   2.786   2.964   4.547  0.0344  1.1293  1.3788
 5439TIP3    H237877   2.698   3.086   4.530 -0.4750  0.5216 -0.5345
 5440TIP3   OH237878   0.168   0.095   7.062 -0.1861  0.4884  0.5294
 5440TIP3    H137879   0.242   0.110   7.003  0.3132 -1.1531  0.6880
 5440TIP3    H237880   0.119   0.024   7.022 -2.1669  2.0280  0.0432
 5441TIP3   OH237881   0.315   2.130  26.975 -0.2893 -0.5084 -0.7601
 5441TIP3    H137882   0.381   2.139  27.044 -0.4998  2.1809 -0.8262
 5441TIP3    H237883   0.241   2.088  27.018 -0.0572  0.2432  0.3908
 5442TIP3   OH237884   1.671   0.433   1.363  0.1440 -0.0017 -0.4600
 5442TIP3    H137885   1.626   0.421   1.279 -1.5633  2.1829  0.0573
 5442TIP3    H237886   1.660   0.349   1.408  0.8753 -1.1332 -2.2467
 5443TIP3   OH237887   3.431   1.387  28.450  0.3162 -0.1188  0.0435
 5443TIP3    H137888   3.464   1.298  28.459  4.6557  1.2426 -0.2395
 5443TIP3    H237889   3.340   1.382  28.479  0.5721 -4.4323  0.7246
 5444TIP3   OH237890   1.162   0.777   1.916 -0.1185  0.1380  0.9256
 5444TIP3    H137891   1.234   0.765   1.854 -0.0372  0.6937  0.9060
 5444TIP3    H237892   1.113   0.695   1.912 -1.8395  1.1728 -2.0657
 5445TIP3   OH237893   2.061   0.224   4.506  0.2782  0.5755 -0.3384
 5445TIP3    H137894   2.069   0.129   4.492  0.2158  0.7479 -1.6420
 5445TIP3    H237895   2.133   0.245   4.566 -0.1202 -0.3898  0.5203
 5446TIP3   OH237896   0.529   2.628   6.635  0.2321  0.4172  0.3344
 5446TIP3    H137897   0.465   2.639   6.706  1.7054 -2.2584  2.2367
 5446TIP3    H237898   0.513   2.540   6.602  0.3340  1.2028 -2.0067
 5447TIP3   OH237899   0.704   3.128   3.371 -0.5367 -0.6309  0.3379
 5447TIP3    H137900   0.731   3.063   3.436  0.1743 -1.5208 -0.8284
 5447TIP3    H237901   0.714   3.084   3.287  0.1536  1.0494 -0.4984
 5448TIP3   OH237902   1.410   1.177   7.782 -0.1312 -0.5187  0.2150
 5448TIP3    H137903   1.380   1.101   7.733 -0.6315 -0.2615  0.1234
 5448TIP3    H237904   1.410   1.148   7.873 -1.6646 -0.2035  0.3330
 5449TIP3   OH237905   1.504   3.063   0.400  0.5270 -0.7648  0.3492
 5449TIP3    H137906   1.535   3.001   0.466  0.7254 -1.0300  0.0076
 5449TIP3    H237907   1.429   3.019   0.359  0.5776 -0.7210  0.2080
 5450TIP3   OH237908   1.351   0.865  32.693  0.1221  0.2937  0.1758
 5450TIP3    H137909   1.295   0.826  32.626  1.1993  0.0287 -0.6138
 5450TIP3    H237910   1.364   0.955  32.663  0.1303  0.3489  0.3447
 5451TIP3   OH237911   1.340   2.995  11.938 -0.0833 -0.8215  0.8297
 5451TIP3    H137912   1.343   3.091  11.945  2.1000 -0.9167  1.9739
 5451TIP3    H237913   1.368   2.977  11.848 -0.1675 -0.4069  0.7169
 5452TIP3   OH237914   3.040   3.420   5.018  0.0808 -0.1127  0.1657
 5452TIP3    H137915   3.071   3.415   5.109  1.1948 -1.1871 -0.2323
 5452TIP3    H237916   2.947   3.438   5.025  0.4713  1.5789  1.4757
 5453TIP3   OH237917   2.242   2.655  26.595 -0.2352 -0.1496  0.3183
 5453TIP3    H137918   2.265   2.638  26.686 -0.2495 -2.3268 -0.0360
 5453TIP3    H237919   2.147   2.642  26.592 -0.4061  0.9970  0.1795
 5454TIP3   OH237920   1.376   2.558   0.412 -0.0367  0.3963 -0.4426
 5454TIP3    H137921   1.306   2.493   0.413 -0.0320  0.3912 -0.4354
 5454TIP3    H237922   1.430   2.535   0.336 -1.4346  1.9022 -1.9781
 5455TIP3   OH237923   2.079   0.639  28.034 -0.1886 -0.2093  0.2465
 5455TIP3    H137924   2.012   0.594  27.983 -1.0374  0.2727  0.9254
 5455TIP3    H237925   2.161   0.616  27.990 -0.8850  0.1656 -1.3153
 5456TIP3   OH237926   3.122   1.923  32.000  0.6832  0.0245  0.5987
 5456TIP3    H137927   3.032   1.892  31.990 -0.0017  2.0378  0.0209
 5456TIP3    H237928   3.148   1.949  31.911  1.3348  0.7345  0.9933
 5457TIP3   OH237929   0.832   1.085   0.674 -0.1755  0.3677  0.1464
 5457TIP3    H137930   0.869   1.046   0.594  0.4891 -0.9656  1.0678
 5457TIP3    H237931   0.788   1.165   0.643  0.7193  0.2971 -1.4398
 5458TIP3   OH237932   3.405   1.930  22.256 -0.2790 -0.3660  0.0831
 5458TIP3    H137933   3.316   1.962  22.248 -0.1806  0.0200  0.4752
 5458TIP3    H237934   3.459   2.009  22.259 -0.0073 -0.5675  0.7597
 5459TIP3   OH237935   2.104   0.873   5.634  0.3905  0.3028  0.0346
 5459TIP3    H137936   2.194   0.866   5.665  0.6593  0.1730 -0.7713
 5459TIP3    H237937   2.092   0.799   5.575 -0.5185 -0.1738  0.7871
 5460TIP3   OH237938   0.869   2.699  31.714 -0.9016 -0.3892  0.3496
 5460TIP3    H137939   0.903   2.783  31.745 -0.2910 -0.1251 -0.9688
 5460TIP3    H237940   0.776   2.716  31.696 -0.7685  0.0349  0.0316
 5461TIP3   OH237941   2.607   1.016   6.183  0.0168 -0.0919  0.2246
 5461TIP3    H137942   2.657   1.090   6.149  0.5052  0.6037  2.3491
 5461TIP3    H237943   2.660   0.939   6.162  0.6559  0.3772  0.1027
 5462TIP3   OH237944   2.529   1.426  32.915  0.2076  0.1937 -0.0387
 5462TIP3    H137945   2.509   1.396  32.826 -0.3394  1.3359 -0.3192
 5462TIP3    H237946   2.476   1.370  32.972  0.4600 -0.4559 -0.4319
 5463TIP3   OH237947   1.624   3.028   0.021 -0.0333 -0.1175  0.5637
 5463TIP3    H137948   1.601   3.035  -0.072  0.5288 -1.0456  0.3441
 5463TIP3    H237949   1.719   3.024   0.022 -0.0678 -1.1929  1.0912
 5464TIP3   OH237950   1.716   3.095   2.434 -0.2977  0.4396 -0.4416
 5464TIP3    H137951   1.731   3.122   2.524 -0.1536 -0.1322 -0.2911
 5464TIP3    H237952   1.786   3.138   2.384 -0.0197  0.2806 -0.1923
 5465TIP3   OH237953   1.645   2.833  31.426  0.0725 -0.2221 -0.2080
 5465TIP3    H137954   1.658   2.871  31.340 -0.1621 -0.5584 -0.3936
 5465TIP3    H237955   1.675   2.742  31.417 -1.1115 -0.6228 -0.2817
 5466TIP3   OH237956   0.608   1.293  32.890  0.5517  0.1094  0.1533
 5466TIP3    H137957   0.571   1.343  32.817 -1.8066 -0.0152  1.1894
 5466TIP3    H237958   0.681   1.244  32.851  0.7140  1.6731 -1.6252
 5467TIP3   OH237959   1.095   0.746   0.443  0.1826 -0.2811  0.0029
 5467TIP3    H137960   1.091   0.684   0.371 -0.5007  0.6090 -0.7492
 5467TIP3    H237961   1.180   0.790   0.432 -0.9644  1.6714 -1.8687
 5468TIP3   OH237962   2.459   2.376   6.234 -0.0389  0.0175 -0.5402
 5468TIP3    H137963   2.427   2.355   6.321 -0.0360 -2.3928 -1.0550
 5468TIP3    H237964   2.554   2.369   6.240  0.0517  1.1128 -0.4660
 5469TIP3   OH237965   2.236   1.463   6.983 -0.4351 -0.3164  0.2199
 5469TIP3    H137966   2.143   1.486   6.984 -0.7000 -1.3017  1.4221
 5469TIP3    H237967   2.240   1.381   7.032  1.2751  0.4999  1.5473
 5470TIP3   OH237968   2.467   0.745  27.343  0.4850 -0.1671  0.3229
 5470TIP3    H137969   2.407   0.686  27.390 -1.3058  0.5672 -0.9148
 5470TIP3    H237970   2.493   0.695  27.265  1.9791 -0.6884  1.1199
 5471TIP3   OH237971   0.941   3.089   1.917  0.0850 -0.3182  0.2520
 5471TIP3    H137972   1.037   3.096   1.922 -0.0704  1.3132  2.2337
 5471TIP3    H237973   0.919   3.023   1.982 -0.2098  0.6483  1.1686
 5472TIP3   OH237974   1.862   2.945  28.638  0.1559  0.3383  0.1026
 5472TIP3    H137975   1.885   2.918  28.548 -0.3260 -1.0047  0.3538
 5472TIP3    H237976   1.768   2.930  28.644  0.0419  1.1943  0.5949
 5473TIP3   OH237977   0.179   0.607   2.783 -0.2678  0.4413  0.4193
 5473TIP3    H137978   0.091   0.575   2.768 -0.3567  0.8145  0.1310
 5473TIP3    H237979   0.177   0.645   2.871 -0.6482  1.2962  0.0498
 5474TIP3   OH237980   2.542   1.404   6.524  0.2203 -0.2346 -0.3502
 5474TIP3    H137981   2.491   1.421   6.602  0.0460 -1.4117 -0.1919
 5474TIP3    H237982   2.632   1.392   6.556  1.0582  3.5469 -0.7829
 5475TIP3   OH237983   0.852   3.126   4.581  0.1384 -0.2137  0.8710
 5475TIP3    H137984   0.934   3.103   4.537  0.5367  1.3769  0.7358
 5475TIP3    H237985   0.789   3.062   4.548  0.6818  0.2177 -1.1582
 5476TIP3   OH237986   1.533   3.502  29.111  0.8252 -0.3345  0.1727
 5476TIP3    H137987   1.577   3.418  29.103  1.5069  0.0360 -0.0895
 5476TIP3    H237988   1.604   3.565  29.123  0.2623  0.0787  1.4585
 5477TIP3   OH237989   3.510   1.749  32.178 -0.1186 -0.1534 -0.5225
 5477TIP3    H137990   3.524   1.714  32.090 -0.9716 -2.1852  0.0945
 5477TIP3    H237991   3.417   1.734  32.195  0.0336  0.2030  0.7132
 5478TIP3   OH237992   0.691   0.124   4.525  0.0746 -0.3081 -0.1043
 5478TIP3    H137993   0.675   0.053   4.462  0.1322 -0.2139 -0.2254
 5478TIP3    H237994   0.671   0.204   4.476 -1.2532 -0.2958  0.4064
 5479TIP3   OH237995   0.205   2.837  29.313  0.5778 -0.2441  0.1358
 5479TIP3    H137996   0.226   2.749  29.281 -1.0329 -0.1173 -1.4665
 5479TIP3    H237997   0.117   2.829  29.350  1.0885  0.3648  1.5455
 5480TIP3   OH237998   3.538   1.879  23.799 -0.0529 -0.0260  0.2492
 5480TIP3    H137999   3.555   1.931  23.878  0.2663  0.4856 -0.1451
 5480TIP3    H238000   3.451   1.906  23.770  0.3304  0.7003 -0.2551
 5481TIP3   OH238001   2.683   0.705  30.892  0.4310  0.0485 -0.0821
 5481TIP3    H138002   2.738   0.660  30.956 -2.3928 -0.3220  2.2952
 5481TIP3    H238003   2.721   0.793  30.885  1.1892 -0.0987  1.6603
 5482TIP3   OH238004   1.160   1.587  30.404  0.3684 -0.2118 -0.1732
 5482TIP3    H138005   1.234   1.527  30.391  0.6294  0.2037 -0.6357
 5482TIP3    H238006   1.086   1.543  30.361  0.3689 -0.5774  0.1960
 5483TIP3   OH238007   1.095   0.183  32.298  0.2373 -0.0157 -0.5794
 5483TIP3    H138008   1.057   0.246  32.360 -0.4182 -1.2795  0.3527
 5483TIP3    H238009   1.019   0.144  32.254  0.4044 -2.1386  0.8645
 5484TIP3   OH238010   1.439   2.490  23.632  1.0252  0.3276  0.5746
 5484TIP3    H138011   1.410   2.419  23.689 -2.3266 -0.2089 -1.5046
 5484TIP3    H238012   1.474   2.445  23.555 -2.6776  0.6019 -1.5252
 5485TIP3   OH238013   3.082   2.034  20.503  0.6966  0.4508  0.1268
 5485TIP3    H138014   3.170   2.026  20.469  0.7760 -1.0085  0.6206
 5485TIP3    H238015   3.059   1.946  20.532 -0.8430  0.8457  0.1966
 5486TIP3   OH238016   0.354   0.659   7.243  0.2071 -0.5895 -0.4446
 5486TIP3    H138017   0.413   0.601   7.292  0.5772 -1.8491 -2.2361
 5486TIP3    H238018   0.272   0.659   7.293  1.1997 -0.0578  1.2683
 5487TIP3   OH238019   2.866   1.830   5.992 -0.1168  0.4175 -0.3362
 5487TIP3    H138020   2.860   1.871   6.078 -1.1771 -0.5785  0.0861
 5487TIP3    H238021   2.821   1.890   5.933  2.8981  2.4640 -0.7778
 5488TIP3   OH238022   2.965   1.750  31.563 -0.2961 -0.3148  0.2651
 5488TIP3    H138023   2.885   1.725  31.610 -1.1099 -1.2566 -1.5068
 5488TIP3    H238024   2.971   1.845  31.574 -1.4903 -0.2703  0.7159
 5489TIP3   OH238025   1.255   0.875  25.661 -0.0072 -0.5732 -0.0771
 5489TIP3    H138026   1.202   0.938  25.710  2.5822  1.6196  0.1526
 5489TIP3    H238027   1.254   0.907  25.571  0.8156 -0.5125 -0.0782
 5490TIP3   OH238028   0.208   2.564  30.454  0.5939  0.1839 -0.4573
 5490TIP3    H138029   0.200   2.517  30.371  1.6704 -3.1373  1.1671
 5490TIP3    H238030   0.295   2.542  30.486  0.1581  1.2615  1.6309
 5491TIP3   OH238031   0.663   2.236   1.432 -0.2732  0.5856 -0.0169
 5491TIP3    H138032   0.733   2.224   1.368 -1.5749 -0.1513 -1.3506
 5491TIP3    H238033   0.708   2.236   1.517  1.1938 -1.3823 -0.7282
 5492TIP3   OH238034   1.577   2.363   6.272  0.3211 -0.4579 -0.3124
 5492TIP3    H138035   1.579   2.379   6.366 -1.4453  1.2168 -0.4837
 5492TIP3    H238036   1.587   2.269   6.263 -1.6116 -0.9574  1.7329
 5493TIP3   OH238037   3.460   2.647   3.262  0.2325 -0.0649  0.0395
 5493TIP3    H138038   3.456   2.598   3.344  0.9121 -0.8522 -0.3853
 5493TIP3    H238039   3.496   2.732   3.287  1.7115 -0.7653  0.3580
 5494TIP3   OH238040   2.972   0.450  26.939 -0.2104 -0.5335  0.3500
 5494TIP3    H138041   2.913   0.381  26.971 -0.0148  0.0140  1.9716
 5494TIP3    H238042   3.049   0.402  26.908 -1.0796 -1.1904 -0.9044
 5495TIP3   OH238043   1.122   0.030   4.771 -0.3618  0.0190 -0.0318
 5495TIP3    H138044   1.197   0.030   4.829 -0.9389 -0.3148  0.7255
 5495TIP3    H238045   1.159   0.023   4.683  0.4406 -2.4125  0.4175
 5496TIP3   OH238046   2.432   3.238   5.243 -0.3997  0.0751 -0.3941
 5496TIP3    H138047   2.487   3.222   5.319 -1.6440  0.5817  0.6374
 5496TIP3    H238048   2.350   3.272   5.278 -0.9604  0.4646 -1.9654
 5497TIP3   OH238049   0.893   2.993   5.006  0.5207  0.0977  0.2105
 5497TIP3    H138050   0.943   2.947   4.939 -1.2949 -1.0069 -0.4633
 5497TIP3    H238051   0.815   2.939   5.019  0.9171  0.0956  3.4558
 5498TIP3   OH238052   1.798   2.441   6.991  0.2184 -0.6540  0.3251
 5498TIP3    H138053   1.805   2.441   6.895 -3.6170  0.6342 -0.1385
 5498TIP3    H238054   1.783   2.533   7.013 -0.6596 -1.1592  1.9580
 5499TIP3   OH238055   0.271   2.214  20.400 -0.3978 -0.0545  0.4352
 5499TIP3    H138056   0.277   2.190  20.493  0.3474  0.9508  0.6726
 5499TIP3    H238057   0.202   2.281  20.397  0.1275  0.5044  0.4182
 5500TIP3   OH238058   2.433   2.807  22.266 -0.3397  0.0742  0.1606
 5500TIP3    H138059   2.354   2.829  22.217 -1.6478 -0.8469  1.7478
 5500TIP3    H238060   2.455   2.718  22.239  0.2973  0.4010 -0.4288
 5501TIP3   OH238061   2.046   2.032  18.691  0.0404  0.5114  0.5133
 5501TIP3    H138062   2.018   1.969  18.758  1.7934 -0.7208  0.1748
 5501TIP3    H238063   2.128   2.067  18.724  1.4345 -0.7985 -1.3189
 5502TIP3   OH238064   1.102   0.392   5.902 -0.1045 -0.2643 -0.5771
 5502TIP3    H138065   1.130   0.452   5.971 -0.5167 -0.0787 -0.5706
 5502TIP3    H238066   1.065   0.317   5.949 -2.9201  1.0168 -0.5474
 5503TIP3   OH238067   2.104   2.194   4.869 -0.2311 -0.0191  0.2344
 5503TIP3    H138068   2.039   2.141   4.823 -0.0853 -1.3277  1.4323
 5503TIP3    H238069   2.144   2.248   4.802 -3.9712  2.4629 -0.2644
 5504TIP3   OH238070   0.786   3.352   1.317  0.4713  0.8756 -0.2210
 5504TIP3    H138071   0.759   3.406   1.391  1.5510  0.3942  0.5611
 5504TIP3    H238072   0.709   3.297   1.298  0.0970  1.1785  0.3862
 5505TIP3   OH238073   1.460   1.865   3.009 -0.0894 -0.2061 -0.1710
 5505TIP3    H138074   1.496   1.784   3.045  0.4208 -0.1104 -0.4575
 5505TIP3    H238075   1.469   1.856   2.915  0.4016  0.3781 -0.1834
 5506TIP3   OH238076   1.555   2.038  30.043 -0.0162  0.5709 -0.1253
 5506TIP3    H138077   1.605   1.977  29.990 -0.5617 -0.3544  0.4093
 5506TIP3    H238078   1.620   2.100  30.076  1.3076 -2.0030  2.5599
 5507TIP3   OH238079   2.745   2.493  21.009  0.0042 -0.2688  0.5514
 5507TIP3    H138080   2.799   2.510  21.087 -1.5077  0.1555  1.5391
 5507TIP3    H238081   2.656   2.483  21.043 -1.0351  1.8740 -1.2973
 5508TIP3   OH238082   2.551   0.086  32.331 -0.3507 -0.6459  0.5668
 5508TIP3    H138083   2.617   0.018  32.348 -0.5653 -0.8651  0.5165
 5508TIP3    H238084   2.561   0.147  32.404 -1.2567 -1.5661  1.5001
 5509TIP3   OH238085   2.508   0.835  31.455  0.1634 -0.4794 -0.3186
 5509TIP3    H138086   2.505   0.889  31.533 -0.9836 -1.0963  0.0899
 5509TIP3    H238087   2.535   0.748  31.487  4.8916  0.3409 -1.3152
 5510TIP3   OH238088   2.244   2.909   0.369 -0.7396 -0.2671 -0.0434
 5510TIP3    H138089   2.292   2.856   0.432 -1.7930  0.6442  1.6239
 5510TIP3    H238090   2.208   2.847   0.306  1.4345 -1.0861 -0.5783
 5511TIP3   OH238091   2.515   2.034  31.442 -0.0639  0.2638 -0.7194
 5511TIP3    H138092   2.599   1.998  31.413 -0.5881 -1.2883 -0.3776
 5511TIP3    H238093   2.451   1.967  31.422 -0.8131  0.1594  1.6615
 5512TIP3   OH238094   3.365   1.442  28.897  0.1371 -0.2265  0.6254
 5512TIP3    H138095   3.447   1.411  28.860  1.0448  3.1769 -0.5151
 5512TIP3    H238096   3.384   1.454  28.990  1.9754  3.0601 -0.0170
 5513TIP3   OH238097   0.789   0.661  32.898 -0.4426  0.2446  0.2801
 5513TIP3    H138098   0.802   0.611  32.979 -0.2198  0.5485  0.4355
 5513TIP3    H238099   0.819   0.602  32.829  1.4051  0.7548  0.5990
 5514TIP3   OH238100   1.810   2.438  30.868 -0.2609  0.7514 -0.3085
 5514TIP3    H138101   1.873   2.386  30.818 -1.5647 -1.2742  0.0126
 5514TIP3    H238102   1.864   2.496  30.922  1.3687 -1.0447  0.1078
 5515TIP3   OH238103   3.203   3.519  27.523  0.0600 -0.5015 -0.0148
 5515TIP3    H138104   3.182   3.519  27.617 -0.3917 -0.1751 -0.1096
 5515TIP3    H238105   3.235   3.608  27.506 -3.3546  0.7235 -0.8863
 5516TIP3   OH238106   3.450   0.745  26.842  0.1258 -0.0107  0.2924
 5516TIP3    H138107   3.427   0.832  26.811 -1.3021 -0.0804  1.1123
 5516TIP3    H238108   3.514   0.713  26.778  0.6688  1.6130 -0.0222
 5517TIP3   OH238109   3.061   0.936   6.611  0.8885 -0.1295  0.6083
 5517TIP3    H138110   3.081   0.848   6.579 -0.8519 -0.6272  0.7666
 5517TIP3    H238111   3.042   0.923   6.704 -1.6479 -0.0263  0.1665
 5518TIP3   OH238112   1.786   0.331   0.635 -0.7416 -0.1849 -0.6391
 5518TIP3    H138113   1.800   0.379   0.553 -0.7027 -1.7953 -1.6250
 5518TIP3    H238114   1.701   0.289   0.623 -0.8660 -0.2102  0.2791
 5519TIP3   OH238115   0.090   1.078   4.555 -0.6200 -0.4873 -0.3215
 5519TIP3    H138116   0.160   1.015   4.572  0.7290  1.4246  1.7194
 5519TIP3    H238117   0.015   1.046   4.605 -0.5392 -1.4008 -0.7736
 5520TIP3   OH238118   0.384   2.706   6.874  0.0722  0.1629 -0.4835
 5520TIP3    H138119   0.371   2.785   6.927 -0.8167 -1.9472  2.7140
 5520TIP3    H238120   0.296   2.681   6.847  0.4676  0.8818 -2.5871
 5521TIP3   OH238121   2.386   0.704   6.861  0.2382 -0.4165  0.1515
 5521TIP3    H138122   2.475   0.682   6.832  0.5248  0.2532  0.5155
 5521TIP3    H238123   2.380   0.669   6.949  0.1796 -0.3582  0.1708
 5522TIP3   OH238124   3.297   1.205  32.865 -0.0966  0.1485 -0.6809
 5522TIP3    H138125   3.347   1.286  32.874  1.7252 -1.1270  1.7748
 5522TIP3    H238126   3.238   1.204  32.941 -0.7727 -0.4244 -1.1964
 5523TIP3   OH238127   2.150   0.637  32.354 -0.5345 -0.3473 -0.0693
 5523TIP3    H138128   2.174   0.634  32.447 -1.0797 -1.7723  0.0449
 5523TIP3    H238129   2.148   0.546  32.327 -0.9425  0.0259 -1.3543
 5524TIP3   OH238130   2.422   2.191  20.666 -0.2485  0.1168  0.1172
 5524TIP3    H138131   2.390   2.167  20.753  0.3648 -0.2647  0.2449
 5524TIP3    H238132   2.512   2.220  20.681 -0.0756 -0.1445 -0.4132
 5525TIP3   OH238133   3.332   2.035   4.955  0.0050 -0.0708  0.0345
 5525TIP3    H138134   3.264   2.101   4.963  0.1646  0.2775 -1.3188
 5525TIP3    H238135   3.384   2.061   4.879 -1.1104 -2.7551 -1.8277
 5526TIP3   OH238136   2.070   0.562   7.357 -0.3613 -0.0692  0.4058
 5526TIP3    H138137   2.132   0.634   7.373 -0.9371  0.7040 -0.7253
 5526TIP3    H238138   1.988   0.606   7.335 -0.5431 -1.0620 -0.9956
 5527TIP3   OH238139   3.181   2.282  27.847  0.0493  0.0326 -0.2386
 5527TIP3    H138140   3.173   2.189  27.869  0.1714  0.1825  0.4662
 5527TIP3    H238141   3.093   2.317  27.856  0.3510  0.4224  1.6132
 5528TIP3   OH238142   2.481   3.483  28.880 -0.1650 -0.1138  0.0589
 5528TIP3    H138143   2.434   3.433  28.947 -2.9438 -0.1248 -1.7208
 5528TIP3    H238144   2.541   3.420  28.841 -0.8206 -0.9873  0.4167
 5529TIP3   OH238145   2.444   1.060   0.607  0.0027 -0.2815 -0.0494
 5529TIP3    H138146   2.501   0.983   0.601 -0.1666 -0.5986  1.7551
 5529TIP3    H238147   2.455   1.092   0.696  0.3701  2.0790 -0.8699
 5530TIP3   OH238148   2.629   1.715   0.263  0.0445  0.0758  0.1038
 5530TIP3    H138149   2.722   1.719   0.242  0.6080 -1.1705  2.0742
 5530TIP3    H238150   2.627   1.706   0.358 -2.2415  4.0879  0.6310
 5531TIP3   OH238151   0.610   3.504  28.650 -0.2495 -0.3964 -0.5446
 5531TIP3    H138152   0.584   3.579  28.596  0.5673  0.0113 -0.3995
 5531TIP3    H238153   0.619   3.432  28.588 -1.0177 -0.3747 -0.6945
 5532TIP3   OH238154   2.263   2.372  30.108  0.1851 -0.1504 -0.0403
 5532TIP3    H138155   2.358   2.365  30.112  0.2229  0.8009  1.2006
 5532TIP3    H238156   2.240   2.435  30.176 -1.4222 -1.0850  0.3382
 5533TIP3   OH238157   1.115   2.676  32.757  0.0896  0.0508 -0.1452
 5533TIP3    H138158   1.069   2.663  32.674  0.5435 -0.8174 -0.2733
 5533TIP3    H238159   1.074   2.614  32.818 -3.1012  3.4382  1.5368
 5534TIP3   OH238160   0.650   0.905  30.839  0.0416  0.1297 -0.5910
 5534TIP3    H138161   0.688   0.918  30.752 -0.1972 -0.1854 -0.7487
 5534TIP3    H238162   0.570   0.958  30.838 -0.4752 -0.6170 -0.9234
 5535TIP3   OH238163   2.897   1.873  31.123  0.2647  0.6182  0.0178
 5535TIP3    H138164   2.896   1.822  31.042  0.2850  1.0165 -0.2358
 5535TIP3    H238165   2.989   1.879  31.147  0.1103 -2.1182  1.7590
 5536TIP3   OH238166   0.161   2.476  32.122 -0.0777 -0.9493  1.1751
 5536TIP3    H138167   0.251   2.475  32.153 -0.1791  2.2745  1.9714
 5536TIP3    H238168   0.168   2.478  32.027  0.7998  0.3071  1.2396
 5537TIP3   OH238169   3.198   1.873  19.290  0.5474  0.2207 -0.4980
 5537TIP3    H138170   3.114   1.916  19.275  1.3364  1.9748 -0.1459
 5537TIP3    H238171   3.175   1.785  19.321 -1.1248  0.2608 -1.5219
 5538TIP3   OH238172   0.654   1.224   6.126 -0.5761 -0.3714 -0.3883
 5538TIP3    H138173   0.598   1.273   6.186  0.8257 -0.4023  1.0169
 5538TIP3    H238174   0.728   1.282   6.108  1.2199 -1.9004  1.4587
 5539TIP3   OH238175   2.554   0.358   3.186 -0.6257 -0.3428 -0.2541
 5539TIP3    H138176   2.637   0.375   3.142 -0.9197  1.0178 -0.3436
 5539TIP3    H238177   2.490   0.354   3.115 -0.5828 -1.9663 -0.2359
 5540TIP3   OH238178   3.326   2.301  23.703 -0.0012  0.2808  0.2633
 5540TIP3    H138179   3.250   2.357  23.716 -0.8669 -0.4265 -1.5511
 5540TIP3    H238180   3.349   2.312  23.611  1.5269 -0.2448  0.5529
 5541TIP3   OH238181   2.046   0.692  29.972 -0.6752  0.0979  0.0613
 5541TIP3    H138182   1.989   0.767  29.991  1.8027  2.1988 -0.3045
 5541TIP3    H238183   2.129   0.713  30.016  1.2991 -0.6191 -3.0397
 5542TIP3   OH238184   0.973   3.136   7.156 -0.0631  0.6721 -0.0616
 5542TIP3    H138185   0.961   3.203   7.088  2.0069 -0.4791 -1.6881
 5542TIP3    H238186   1.053   3.162   7.201  1.4650 -1.2401 -1.5095
 5543TIP3   OH238187   0.883   2.941   2.554 -0.5646 -0.0904  0.5000
 5543TIP3    H138188   0.924   3.028   2.556  0.6621 -0.6600  1.6851
 5543TIP3    H238189   0.919   2.899   2.475 -1.3088  0.5300 -0.1812
 5544TIP3   OH238190   0.141   2.408  21.166 -0.1833 -0.1214  0.2996
 5544TIP3    H138191   0.084   2.426  21.241 -1.4602 -1.1758 -0.3834
 5544TIP3    H238192   0.099   2.335  21.120  0.5000  0.5477 -1.4978
 5545TIP3   OH238193   1.651   3.014  26.595  0.6669  0.1190 -0.2620
 5545TIP3    H138194   1.565   3.056  26.602  0.2432 -0.5284 -1.3457
 5545TIP3    H238195   1.644   2.935  26.649  0.5936  0.0853 -0.3208
 5546TIP3   OH238196   0.230   0.123   5.686  0.1692  0.9130 -0.3751
 5546TIP3    H138197   0.252   0.101   5.777 -0.4837 -1.1016 -0.6492
 5546TIP3    H238198   0.146   0.166   5.691  0.8528  2.2358  0.0858
 5547TIP3   OH238199   1.759   0.489  29.726 -0.1182 -0.1261 -1.0065
 5547TIP3    H138200   1.698   0.440  29.671 -0.2972 -0.9299 -0.1189
 5547TIP3    H238201   1.721   0.486  29.814  1.3420 -0.9540 -0.3618
 5548TIP3   OH238202   2.690   2.948  27.165  0.2206 -0.2848 -0.4130
 5548TIP3    H138203   2.757   2.955  27.233 -0.4912 -0.2691  0.3034
 5548TIP3    H238204   2.703   2.861  27.127  1.1579  0.0330 -0.8348
 5549TIP3   OH238205   2.276   1.673  31.210 -0.6017  0.1412  0.7764
 5549TIP3    H138206   2.277   1.589  31.256  0.8805  0.4985  1.4435
 5549TIP3    H238207   2.201   1.719  31.247 -0.7366 -0.4308  1.2446
 5550TIP3   OH238208   2.315   2.801  27.109  0.1213 -0.0127  0.1964
 5550TIP3    H138209   2.396   2.751  27.118 -0.0381 -0.2534  0.3087
 5550TIP3    H238210   2.246   2.739  27.134 -0.2711 -0.4091 -1.7220
 5551TIP3   OH238211   2.995   2.598  29.805 -0.0793  0.4507  0.2422
 5551TIP3    H138212   2.911   2.565  29.774 -1.4124  0.6377  3.3523
 5551TIP3    H238213   3.023   2.659  29.736 -2.0506 -0.2151 -1.2476
 5552TIP3   OH238214   1.328   2.740  29.894  0.3843  0.2946 -0.1564
 5552TIP3    H138215   1.389   2.684  29.847  1.3071  0.8240  0.3677
 5552TIP3    H238216   1.363   2.829  29.881  1.2903  0.3781  2.3548
 5553TIP3   OH238217   2.849   2.917  26.723  0.2657 -0.1845  0.2503
 5553TIP3    H138218   2.804   2.836  26.700  1.8792 -1.0793  0.1099
 5553TIP3    H238219   2.887   2.948  26.641 -1.7395  1.6887 -0.0615
 5554TIP3   OH238220   0.047   3.385  30.209 -0.1492 -0.2042 -0.5771
 5554TIP3    H138221   0.082   3.298  30.194 -0.2369  0.0651 -2.6435
 5554TIP3    H238222   0.075   3.436  30.133 -1.0244  1.2770  0.0439
 5555TIP3   OH238223   0.474   0.477   0.557 -0.1805  0.6664 -0.2679
 5555TIP3    H138224   0.503   0.490   0.467 -0.3653  2.5445 -0.0972
 5555TIP3    H238225   0.379   0.483   0.553 -0.2194  0.2621 -0.0080
 5556TIP3   OH238226   1.052   0.203   4.322  0.0513  0.0226 -0.7571
 5556TIP3    H138227   1.043   0.118   4.366 -1.3882  0.5387 -0.0015
 5556TIP3    H238228   1.014   0.189   4.235 -1.6184  0.2767 -0.0929
 5557TIP3   OH238229   1.312   0.471   2.035  0.3674 -0.0975  0.1712
 5557TIP3    H138230   1.252   0.511   1.971 -0.3532 -3.5189 -1.5373
 5557TIP3    H238231   1.256   0.449   2.110  0.2516 -0.0696  0.0939
 5558TIP3   OH238232   3.328   1.407  23.273 -0.5922  0.1833 -0.1214
 5558TIP3    H138233   3.310   1.444  23.186 -0.6111  1.2862  0.3317
 5558TIP3    H238234   3.344   1.483  23.328 -0.3387 -0.5184  0.7986
 5559TIP3   OH238235   2.023   2.443   6.683 -0.3916  0.2882  0.7842
 5559TIP3    H138236   2.057   2.502   6.616 -0.2166 -0.4869  0.1676
 5559TIP3    H238237   1.928   2.445   6.670 -0.4129  0.7123  1.0058
 5560TIP3   OH238238   0.414   0.848  31.533  0.8290  0.1826 -0.4297
 5560TIP3    H138239   0.432   0.780  31.469 -0.9258 -0.8123  0.0649
 5560TIP3    H238240   0.496   0.898  31.539  1.4607 -0.5046 -2.4206
 5561TIP3   OH238241   3.154   2.420  20.171  0.1352 -0.2564  0.2810
 5561TIP3    H138242   3.185   2.363  20.101 -0.8651 -0.1576 -0.2685
 5561TIP3    H238243   3.066   2.388  20.191 -0.5144  1.1599 -0.1414
 5562TIP3   OH238244   2.666   2.153   7.040 -0.3478 -0.1553 -0.0762
 5562TIP3    H138245   2.581   2.110   7.048  0.5468 -1.8568  0.6807
 5562TIP3    H238246   2.721   2.111   7.107  0.7555  1.7569  0.2957
 5563TIP3   OH238247   0.964   0.521  32.108 -0.0649 -0.0201 -0.1931
 5563TIP3    H138248   0.947   0.439  32.061 -1.4533 -0.4217  0.9296
 5563TIP3    H238249   1.055   0.513  32.138 -0.1080 -1.0524 -0.2931
 5564TIP3   OH238250   2.826   0.126   5.370 -0.3856 -0.1422 -0.3158
 5564TIP3    H138251   2.842   0.219   5.386  0.3956  0.0361 -1.9874
 5564TIP3    H238252   2.869   0.082   5.443 -1.0796  0.7914  0.7014
 5565TIP3   OH238253   2.946   1.233   3.361 -0.1402  0.6248 -0.0697
 5565TIP3    H138254   2.856   1.200   3.371  0.3289 -0.6173  0.2344
 5565TIP3    H238255   2.936   1.328   3.349 -1.4552  0.5718  0.4959
 5566TIP3   OH238256   1.854   0.203   5.033 -0.2474  0.0128 -0.4169
 5566TIP3    H138257   1.897   0.119   5.051  0.0152  0.3827  0.7794
 5566TIP3    H238258   1.761   0.182   5.028 -0.1336 -0.4378 -0.7646
 5567TIP3   OH238259   2.723   1.900  29.196 -0.7552  0.0753 -0.4070
 5567TIP3    H138260   2.643   1.871  29.240 -0.0397  0.6527  1.3502
 5567TIP3    H238261   2.766   1.819  29.169 -1.3705 -0.2862 -0.3280
 5568TIP3   OH238262   2.338   1.556  26.877 -0.4419 -0.4866  0.2985
 5568TIP3    H138263   2.419   1.576  26.922 -0.0846  1.4605 -1.0730
 5568TIP3    H238264   2.300   1.483  26.926  2.5207 -2.0541  0.4773
 5569TIP3   OH238265   0.697   3.261   5.549  0.4508  0.1132 -0.6895
 5569TIP3    H138266   0.735   3.313   5.478  1.6226  2.4164  1.4583
 5569TIP3    H238267   0.611   3.301   5.564  1.0585  1.0344  0.4948
 5570TIP3   OH238268   1.814   0.356   4.254 -0.2001  0.3514 -0.1885
 5570TIP3    H138269   1.738   0.413   4.264 -0.5511 -0.4527  2.4673
 5570TIP3    H238270   1.853   0.353   4.341  2.3135 -0.0863 -1.2485
 5571TIP3   OH238271   2.922   0.875  30.967  0.2910 -0.1121 -0.3139
 5571TIP3    H138272   2.995   0.835  31.014  0.4802 -0.9321 -1.2686
 5571TIP3    H238273   2.957   0.892  30.879 -1.1319 -2.1035 -1.3391
 5572TIP3   OH238274   0.598   1.716  19.842  0.4799 -0.2376  0.1148
 5572TIP3    H138275   0.631   1.628  19.855  0.0048 -1.0560 -3.1508
 5572TIP3    H238276   0.641   1.746  19.762 -0.0727  2.1364  0.6218
 5573TIP3   OH238277   0.090   2.674   1.572 -0.9141 -0.4508  0.4345
 5573TIP3    H138278   0.168   2.726   1.590 -0.7587 -0.3232 -0.5533
 5573TIP3    H238279   0.018   2.737   1.572 -0.4434  0.3716 -3.3397
 5574TIP3   OH238280   1.056   0.921   5.796  0.0771 -0.1841 -0.5404
 5574TIP3    H138281   1.117   0.926   5.869  0.1920  1.6453 -0.7030
 5574TIP3    H238282   0.974   0.956   5.831 -0.6569 -1.8043 -0.5694
 5575TIP3   OH238283   1.169   0.812  25.995  0.7182  0.1876 -0.2518
 5575TIP3    H138284   1.150   0.892  25.946  1.2036  0.1424 -0.5247
 5575TIP3    H238285   1.147   0.834  26.086 -2.2509 -0.4074 -0.7201
 5576TIP3   OH238286   2.656   2.946   3.097  0.4414 -0.3064  0.4259
 5576TIP3    H138287   2.723   2.924   3.161  0.6125 -1.8217 -0.2456
 5576TIP3    H238288   2.573   2.933   3.144  0.5708 -1.2642  0.4150
 5577TIP3   OH238289   2.869   0.009   3.911  0.4587 -0.9393 -0.1176
 5577TIP3    H138290   2.901  -0.079   3.891 -0.3289 -1.2727  0.0534
 5577TIP3    H238291   2.831   0.040   3.829  0.2729 -0.9649 -0.0418
 5578TIP3   OH238292   2.149   0.391  30.184  0.0089  0.0390  0.1835
 5578TIP3    H138293   2.125   0.307  30.223  1.5420  0.2879  1.8178
 5578TIP3    H238294   2.108   0.456  30.241 -2.1594  0.4755 -1.7419
 5579TIP3   OH238295   1.333   1.133  29.589 -0.3879 -0.1107 -0.4566
 5579TIP3    H138296   1.327   1.061  29.652  0.0520  0.8675  0.7588
 5579TIP3    H238297   1.424   1.163  29.596 -0.6392  0.7468 -0.7026
 5580TIP3   OH238298   2.023   1.527  29.047  0.5778  0.0535  0.4412
 5580TIP3    H138299   2.043   1.479  29.127  0.3951 -2.4080 -0.8683
 5580TIP3    H238300   2.086   1.493  28.983 -1.0049 -0.1001 -1.1240
 5581TIP3   OH238301   1.877   1.975  17.467  0.1693  0.3781 -0.1049
 5581TIP3    H138302   1.863   1.967  17.561  0.2076  0.8117 -0.0634
 5581TIP3    H238303   1.944   2.042  17.458  1.7733 -1.1751 -0.3350
 5582TIP3   OH238304   3.393   3.368  29.112 -0.4953  0.1257 -0.1792
 5582TIP3    H138305   3.474   3.321  29.128 -0.7485 -0.5269 -0.7460
 5582TIP3    H238306   3.421   3.456  29.086  0.0161  0.0323  0.0494
 5583TIP3   OH238307   1.597   0.944  31.866  0.6093  0.3576  0.0899
 5583TIP3    H138308   1.663   0.875  31.870 -1.4818 -1.8043 -0.6304
 5583TIP3    H238309   1.648   1.025  31.855  3.0847 -1.3954 -3.0474
 5584TIP3   OH238310   0.867   1.493   6.857 -0.6339  0.5500  0.0412
 5584TIP3    H138311   0.943   1.489   6.799 -0.9460 -1.2537 -0.3167
 5584TIP3    H238312   0.895   1.549   6.930  1.1635 -0.3498  0.0942
 5585TIP3   OH238313   2.393   2.859   1.095 -0.2157 -0.3456  1.0597
 5585TIP3    H138314   2.379   2.919   1.169  2.5470  1.0980  0.5636
 5585TIP3    H238315   2.355   2.904   1.020 -0.3634 -0.3918  1.1072
 5586TIP3   OH238316   0.816   3.332   5.789 -0.1904 -0.2580  0.5557
 5586TIP3    H138317   0.902   3.329   5.747 -1.3101 -0.8430 -1.8605
 5586TIP3    H238318   0.756   3.296   5.724 -2.4919  1.3993  1.6222
 5587TIP3   OH238319   0.572   2.145   7.349 -0.6800 -0.0732 -0.1537
 5587TIP3    H138320   0.513   2.071   7.359 -1.2795  0.4752  0.4600
 5587TIP3    H238321   0.586   2.151   7.254 -1.4133 -0.3626 -0.2888
 5588TIP3   OH238322   0.785   0.472  29.867 -0.5417  0.2539  0.7024
 5588TIP3    H138323   0.799   0.423  29.786  0.1395  1.5258  0.0173
 5588TIP3    H238324   0.690   0.471  29.880 -0.8859  1.6846 -1.2266
 5589TIP3   OH238325   1.926   1.920   6.133  0.1753  0.4932 -0.2717
 5589TIP3    H138326   1.932   1.865   6.055 -0.0329 -1.8984  1.2785
 5589TIP3    H238327   2.015   1.953   6.146  0.2683  0.6951 -1.3304
 5590TIP3   OH238328   2.603   0.507  31.884  0.2730  0.5438  0.1294
 5590TIP3    H138329   2.546   0.577  31.851  0.4317  0.3122 -0.6489
 5590TIP3    H238330   2.691   0.545  31.881  0.4900 -0.0384 -1.2940
 5591TIP3   OH238331   2.767   2.346  26.360 -0.0412  0.3606  0.1732
 5591TIP3    H138332   2.764   2.265  26.309  0.2526  1.2442 -1.3124
 5591TIP3    H238333   2.675   2.371  26.371 -0.2104 -0.7713  1.7090
 5592TIP3   OH238334   1.154   2.981  32.046 -0.4234 -0.3023 -0.1754
 5592TIP3    H138335   1.232   3.025  32.013 -0.2365 -0.6823 -0.2403
 5592TIP3    H238336   1.106   3.050  32.092  0.4368 -0.2807  0.7180
 5593TIP3   OH238337   2.511   0.506   0.290  0.4808  0.2286 -0.6056
 5593TIP3    H138338   2.584   0.563   0.265 -1.4158  2.7026 -0.8822
 5593TIP3    H238339   2.441   0.529   0.228 -1.3363 -0.2043  1.1784
 5594TIP3   OH238340   2.319   0.071  28.664  0.0944  0.4851  0.4093
 5594TIP3    H138341   2.347   0.035  28.747 -0.1951 -0.4065  0.1301
 5594TIP3    H238342   2.226   0.089  28.675 -0.1714 -0.5598 -0.0247
 5595TIP3   OH238343   0.127   2.437   4.177 -0.3409 -0.1559 -0.1177
 5595TIP3    H138344   0.093   2.476   4.258  0.3652  2.8598 -1.1180
 5595TIP3    H238345   0.064   2.463   4.110 -0.3202 -1.6334 -0.7426
 5596TIP3   OH238346   1.577   1.550  31.938  0.5813 -0.2052 -0.3314
 5596TIP3    H138347   1.488   1.578  31.920  0.7325 -0.1420 -0.9968
 5596TIP3    H238348   1.600   1.596  32.019  0.4189  0.7082 -0.7831
 5597TIP3   OH238349   0.665   3.117  11.612  0.0274 -0.1306  0.0912
 5597TIP3    H138350   0.681   3.182  11.681  0.5153 -0.5075  0.3364
 5597TIP3    H238351   0.751   3.078  11.596  0.1192  0.5820 -1.3732
 5598TIP3   OH238352   0.828   0.074  32.191  0.4063  0.2633 -0.2010
 5598TIP3    H138353   0.881   0.052  32.114 -0.1930  0.0043 -0.5515
 5598TIP3    H238354   0.749   0.115  32.155  0.0995  0.0962  0.2707
 5599TIP3   OH238355   2.344   2.216  28.186 -0.3037 -0.2038 -0.6853
 5599TIP3    H138356   2.275   2.239  28.248  0.4521  0.6493 -0.1312
 5599TIP3    H238357   2.398   2.153  28.234  0.3793  0.5844 -0.3936
 5600TIP3   OH238358   1.219   1.365   2.924 -0.3552  0.6013  0.3893
 5600TIP3    H138359   1.307   1.359   2.888  0.0325  2.5459  0.8825
 5600TIP3    H238360   1.221   1.314   3.004  0.3008  0.5799  0.3611
 5601TIP3   OH238361   0.599   1.588  25.087 -0.5571  0.0946 -0.0288
 5601TIP3    H138362   0.631   1.587  24.997 -0.8884  0.6492 -0.1618
 5601TIP3    H238363   0.655   1.527  25.134 -0.8547 -0.7671 -0.7717
 5602TIP3   OH238364   1.537   1.542   3.303 -0.0314 -0.2797  0.6511
 5602TIP3    H138365   1.485   1.479   3.252  0.8844 -0.1459 -0.4969
 5602TIP3    H238366   1.628   1.522   3.279  0.3070  1.0775  0.7459
 5603TIP3   OH238367   2.496   0.502  14.807  0.0560  0.1899 -0.0645
 5603TIP3    H138368   2.533   0.507  14.718  0.1656  0.0289 -0.0283
 5603TIP3    H238369   2.425   0.567  14.807  0.5173  0.6957 -0.0478
 5604TIP3   OH238370   1.358   1.559   4.328  0.4124 -0.4077 -0.4533
 5604TIP3    H138371   1.453   1.550   4.316  0.4870 -1.2490  0.6211
 5604TIP3    H238372   1.325   1.469   4.329 -0.6924 -0.1118 -2.7020
 5605TIP3   OH238373   0.939   3.524   4.979 -0.5241 -0.0203 -0.4929
 5605TIP3    H138374   0.906   3.435   4.987 -2.4209  0.6517 -0.2843
 5605TIP3    H238375   0.974   3.529   4.890 -0.5587 -0.9191 -0.5630
 5606TIP3   OH238376   0.128   0.660   0.892 -0.0272  0.1471  0.7664
 5606TIP3    H138377   0.203   0.710   0.924 -0.0759  0.3495  0.5634
 5606TIP3    H238378   0.057   0.680   0.953  0.1830 -0.3473  1.1896
 5607TIP3   OH238379   0.200   0.397   1.478 -0.0693 -0.1304  0.2367
 5607TIP3    H138380   0.254   0.321   1.459 -0.2859 -0.1958 -0.1235
 5607TIP3    H238381   0.132   0.396   1.410  0.1520  0.6052 -0.0009
 5608TIP3   OH238382   2.610   2.984  32.764 -0.1194  0.3619  0.1083
 5608TIP3    H138383   2.671   2.999  32.692 -1.6311 -0.1584 -1.3639
 5608TIP3    H238384   2.589   2.891  32.759 -2.5532  0.8718 -0.7847
 5609TIP3   OH238385   0.467   0.968  30.101  0.6215 -0.2531 -0.5329
 5609TIP3    H138386   0.546   0.946  30.051  0.0893 -1.1933 -0.9946
 5609TIP3    H238387   0.472   0.912  30.178  1.7405  1.6223  0.8164
 5610TIP3   OH238388   1.695   0.358   6.289  0.0853 -0.5766 -0.1657
 5610TIP3    H138389   1.673   0.387   6.200 -3.3308 -2.2648 -0.0269
 5610TIP3    H238390   1.712   0.439   6.336 -2.2051  0.7549 -1.4309
 5611TIP3   OH238391   0.210   0.502   0.512 -0.2835 -0.1172 -0.0970
 5611TIP3    H138392   0.194   0.595   0.496 -2.3009 -0.4372 -0.1559
 5611TIP3    H238393   0.205   0.492   0.607  0.9285 -0.0240 -0.0080
 5612TIP3   OH238394   1.094   0.532  26.146  0.1739 -0.4061  0.1940
 5612TIP3    H138395   1.164   0.584  26.186  0.6635 -0.2509 -0.8508
 5612TIP3    H238396   1.070   0.580  26.067  1.5907 -2.3974 -1.5672
 5613TIP3   OH238397   1.103   2.799  28.677  0.2869 -0.7506 -0.4417
 5613TIP3    H138398   1.150   2.831  28.600  1.8256 -1.4797  0.1536
 5613TIP3    H238399   1.013   2.784  28.647  0.5540  0.1558 -1.7593
 5614TIP3   OH238400   2.137   1.982  22.230  0.1945  0.2466 -0.2100
 5614TIP3    H138401   2.212   1.931  22.201  0.8885  0.7861  0.5897
 5614TIP3    H238402   2.071   1.969  22.162  0.1481 -2.1260  0.2119
 5615TIP3   OH238403   0.632   3.215  31.538  0.0426 -0.4456  0.0620
 5615TIP3    H138404   0.643   3.284  31.472  0.6167 -1.1974 -0.6375
 5615TIP3    H238405   0.692   3.145  31.511 -1.3509 -1.7060  0.1155
 5616TIP3   OH238406   0.393   2.019  30.240  0.0255 -0.6614  0.1118
 5616TIP3    H138407   0.472   1.980  30.278  0.2434 -1.0212 -0.6946
 5616TIP3    H238408   0.363   1.956  30.176 -0.2518  0.0037 -0.4255
 5617TIP3   OH238409   3.141   0.321  29.597  0.6134 -1.0332 -0.4927
 5617TIP3    H138410   3.078   0.317  29.525  1.6321 -1.6734 -1.3812
 5617TIP3    H238411   3.100   0.377  29.662 -0.4648 -0.6749 -1.4559
 5618TIP3   OH238412   2.647   0.010  32.713 -0.5965 -0.0438 -0.1880
 5618TIP3    H138413   2.649  -0.018  32.805 -0.4999  1.0158  0.1407
 5618TIP3    H238414   2.555   0.026  32.695 -0.6963 -0.8731 -0.4858
 5619TIP3   OH238415   2.793   2.501  30.211 -0.0860 -0.1460  0.1819
 5619TIP3    H138416   2.881   2.499  30.174  0.7244  2.0110  1.7890
 5619TIP3    H238417   2.805   2.531  30.301 -2.1586 -3.2306  1.6692
 5620TIP3   OH238418   1.144   0.195  28.977  0.0737 -0.6569  0.6966
 5620TIP3    H138419   1.225   0.172  28.931  0.1139 -0.3424  0.6095
 5620TIP3    H238420   1.131   0.288  28.958 -0.7051 -0.8771  0.1115
 5621TIP3   OH238421   0.922   0.827  26.734  0.7539  0.0763  0.5636
 5621TIP3    H138422   0.962   0.871  26.659 -1.2047  1.7934  0.4446
 5621TIP3    H238423   0.875   0.896  26.781 -0.7875 -1.5225  1.5239
 5622TIP3   OH238424   0.454   0.690  32.245  0.3108 -0.2409 -0.3135
 5622TIP3    H138425   0.406   0.617  32.205 -0.7616  0.4705 -0.3665
 5622TIP3    H238426   0.502   0.650  32.317 -1.3245 -0.7991  0.5146
 5623TIP3   OH238427   2.338   1.358   0.224 -0.7094  0.3123 -0.8881
 5623TIP3    H138428   2.329   1.268   0.255 -1.2547  0.1331 -1.5290
 5623TIP3    H238429   2.333   1.412   0.303 -1.7093 -0.1469 -0.6277
 5624TIP3   OH238430   2.290   2.850  14.631 -0.5757 -0.1281 -0.2164
 5624TIP3    H138431   2.373   2.803  14.623 -1.2367 -1.1233 -1.6202
 5624TIP3    H238432   2.301   2.905  14.709  1.0051 -1.0165  0.2303
 5625TIP3   OH238433   2.657   1.803  29.673  0.0924  0.2759 -0.3213
 5625TIP3    H138434   2.727   1.740  29.656  0.9448  1.2521 -0.5431
 5625TIP3    H238435   2.701   1.888  29.678 -0.5887  0.5840  2.8526
 5626TIP3   OH238436   2.167   2.213  31.312  0.5575 -0.5197  0.0377
 5626TIP3    H138437   2.254   2.221  31.272  1.1791 -1.0293  1.2240
 5626TIP3    H238438   2.131   2.133  31.276  0.3798 -0.0784 -0.7978
 5627TIP3   OH238439   2.056   0.687   6.809  0.0187  0.3436  0.2995
 5627TIP3    H138440   2.035   0.601   6.772  1.1874  0.3504 -0.4503
 5627TIP3    H238441   2.110   0.667   6.886  1.0111  0.4079 -0.3660
 5628TIP3   OH238442   0.898   0.032  32.843 -0.0176  0.5339  0.3465
 5628TIP3    H138443   0.898   0.031  32.939  0.0312  0.7386  0.3490
 5628TIP3    H238444   0.825   0.090  32.821 -2.4519 -2.3454  0.2104
 5629TIP3   OH238445   0.844   2.474  11.289 -0.0935 -0.7377  0.2351
 5629TIP3    H138446   0.923   2.450  11.337 -0.0519  0.0035  0.5577
 5629TIP3    H238447   0.848   2.423  11.208  1.1161 -0.1226 -0.1147
 5630TIP3   OH238448   2.168   1.803   0.988 -0.2808 -0.7973  0.2214
 5630TIP3    H138449   2.203   1.817   0.900  2.4121  0.8751  1.4463
 5630TIP3    H238450   2.089   1.857   0.991 -0.8319 -1.4565 -1.3554
 5631TIP3   OH238451   1.641   0.239  11.013  0.1872 -0.1264  0.4324
 5631TIP3    H138452   1.592   0.291  11.077 -0.6970 -0.3775 -0.0093
 5631TIP3    H238453   1.678   0.303  10.953 -0.7386  0.0322  0.0021
 5632TIP3   OH238454   2.400   1.070  19.106 -0.2768  0.3257  0.4745
 5632TIP3    H138455   2.314   1.040  19.078  0.2861  1.0360 -2.2531
 5632TIP3    H238456   2.389   1.163  19.123 -0.2532  0.2162  1.1146
 5633TIP3   OH238457   0.461   3.007   5.109 -0.1985 -0.4496 -0.3863
 5633TIP3    H138458   0.535   3.036   5.162 -0.2304 -1.0096 -0.0319
 5633TIP3    H238459   0.411   3.087   5.091 -0.8103 -0.3854  1.3756
 5634TIP3   OH238460   1.428   1.098   6.327 -0.4812  0.4498  0.1945
 5634TIP3    H138461   1.387   1.182   6.346 -2.3859  0.2723 -2.4978
 5634TIP3    H238462   1.452   1.104   6.234  5.0332  0.1921  1.2124
 5635TIP3   OH238463   2.145   0.382  32.207 -0.3640 -0.3689 -0.1582
 5635TIP3    H138464   2.055   0.405  32.233 -0.6689 -0.8200 -0.7818
 5635TIP3    H238465   2.165   0.305  32.259  0.1856  0.5178  0.9948
 5636TIP3   OH238466   1.226   2.566  25.660 -0.6494 -0.1119  0.4747
 5636TIP3    H138467   1.232   2.478  25.623  0.7968 -0.2944  1.1048
 5636TIP3    H238468   1.313   2.603  25.649 -0.7786  0.6142  1.7465
 5637TIP3   OH238469   2.239   1.659   3.754  0.5162 -0.5571  0.0642
 5637TIP3    H138470   2.196   1.713   3.820  0.4002 -1.6516  0.8855
 5637TIP3    H238471   2.315   1.711   3.727 -0.0196  0.3574  0.2802
 5638TIP3   OH238472   0.394   1.728  22.277  0.0368 -0.0484 -0.2052
 5638TIP3    H138473   0.340   1.705  22.202 -0.0854  0.9969 -0.4637
 5638TIP3    H238474   0.416   1.645  22.318 -1.8123 -0.5038 -0.0625
 5639TIP3   OH238475   1.560   2.256   4.191  0.1816 -0.0374 -0.0730
 5639TIP3    H138476   1.593   2.329   4.244 -1.0656  0.4868  0.0308
 5639TIP3    H238477   1.637   2.218   4.150  0.9415  0.8320  0.5249
 5640TIP3   OH238478   0.457   0.800   1.501  0.1098  0.1367  0.3786
 5640TIP3    H138479   0.409   0.769   1.424  1.7426 -2.8204  0.4069
 5640TIP3    H238480   0.506   0.876   1.470  1.4633 -1.5348 -1.8495
 5641TIP3   OH238481   3.275   0.425   1.644  0.3542  0.0840  0.1746
 5641TIP3    H138482   3.274   0.439   1.550 -0.7530  0.6932  0.2563
 5641TIP3    H238483   3.192   0.380   1.662  0.9893 -0.9078  0.7447
 5642TIP3   OH238484   3.297   2.932  31.321 -0.7569 -0.4671  0.3465
 5642TIP3    H138485   3.317   2.878  31.398 -1.1896 -0.0340  0.7727
 5642TIP3    H238486   3.303   2.871  31.247 -1.6649 -1.2195  0.8599
 5643TIP3   OH238487   2.638   3.017  32.097 -0.0759 -0.0870 -0.3332
 5643TIP3    H138488   2.661   3.108  32.112  0.3592 -0.2325 -0.0811
 5643TIP3    H238489   2.659   3.002  32.004  1.5376 -0.3909  0.0356
 5644TIP3   OH238490   1.557   0.514  31.812  0.7787 -0.0247 -1.2822
 5644TIP3    H138491   1.640   0.545  31.776  0.5806  1.2757 -0.6959
 5644TIP3    H238492   1.505   0.594  31.822  0.7853 -0.3107  1.7521
 5645TIP3   OH238493   0.210   2.164  27.845 -0.5301 -0.4241 -0.0282
 5645TIP3    H138494   0.152   2.229  27.884  2.7139  2.3542  0.6511
 5645TIP3    H238495   0.243   2.114  27.919  1.9203  1.6492  0.4292
 5646TIP3   OH238496   2.040   3.268  28.639  0.1985 -0.3362 -0.0419
 5646TIP3    H138497   1.972   3.331  28.617  0.0651 -0.5601 -0.2713
 5646TIP3    H238498   2.037   3.202  28.569 -0.0659 -0.9212  0.5084
 5647TIP3   OH238499   0.796   1.368  28.715 -0.2362  0.3531 -0.5315
 5647TIP3    H138500   0.859   1.343  28.782 -0.4512 -0.8958 -0.7677
 5647TIP3    H238501   0.828   1.324  28.635 -0.5238  1.0210 -1.0237
 5648TIP3   OH238502   2.721   0.335  14.612 -0.3527  0.0530  0.3143
 5648TIP3    H138503   2.802   0.363  14.570  0.6690 -1.1015  1.4528
 5648TIP3    H238504   2.747   0.264  14.671 -2.6778 -3.1583 -2.1218
 5649TIP3   OH238505   2.774   1.473  31.493  0.1279  0.2538  0.2662
 5649TIP3    H138506   2.746   1.552  31.540 -2.6906 -1.0985  1.1186
 5649TIP3    H238507   2.773   1.499  31.401  0.6460  1.5796  0.6124
 5650TIP3   OH238508   1.156   2.303   6.659 -0.2135 -0.5667 -0.4173
 5650TIP3    H138509   1.230   2.363   6.667 -0.3339 -0.4897  0.1381
 5650TIP3    H238510   1.145   2.266   6.747 -1.0273 -0.3513 -0.4166
 5651TIP3   OH238511   0.864   2.532   6.441 -0.0372  0.1070  0.4478
 5651TIP3    H138512   0.841   2.625   6.450  0.7894  0.2741  0.8951
 5651TIP3    H238513   0.908   2.510   6.522 -0.7291 -0.8434  0.5770
 5652TIP3   OH238514   3.282   1.006  31.366  0.0765  0.3229  0.5225
 5652TIP3    H138515   3.354   0.970  31.418  1.0020  1.8444  0.3419
 5652TIP3    H238516   3.303   0.984  31.276  0.3744  0.8412  0.4616
 5653TIP3   OH238517   1.259   3.355  26.460 -0.0775 -0.1808 -0.2269
 5653TIP3    H138518   1.244   3.449  26.455  1.1366  0.0906  0.8984
 5653TIP3    H238519   1.327   3.338  26.395  3.3651  0.6040  2.8791
 5654TIP3   OH238520   3.432   0.415  27.396  0.8128 -0.0732 -0.2127
 5654TIP3    H138521   3.423   0.389  27.487 -0.4884 -0.7920 -0.5213
 5654TIP3    H238522   3.521   0.450  27.389  0.7115  0.5918  1.4610
 5655TIP3   OH238523   0.201   1.824   6.834 -0.0263 -0.1467  0.2448
 5655TIP3    H138524   0.119   1.843   6.880 -0.2118 -0.1379 -0.0919
 5655TIP3    H238525   0.258   1.898   6.857 -0.6383  0.6817 -0.8036
 5656TIP3   OH238526   1.537   2.114   7.234  0.1405  0.0876  0.4182
 5656TIP3    H138527   1.454   2.154   7.209  1.4304  1.8321 -1.3151
 5656TIP3    H238528   1.584   2.182   7.283  0.4942 -0.9596  1.6081
 5657TIP3   OH238529   2.361   2.498   0.461 -0.8179 -0.5018  0.2044
 5657TIP3    H138530   2.320   2.418   0.428 -1.0258  0.0218 -0.8324
 5657TIP3    H238531   2.431   2.467   0.518  0.0081 -1.4495 -1.2662
 5658TIP3   OH238532   2.244   2.990   4.748 -0.0437  0.0971 -0.2964
 5658TIP3    H138533   2.178   3.056   4.727 -1.2133 -1.5790 -2.3343
 5658TIP3    H238534   2.225   2.965   4.839 -1.0890  0.8907 -0.2813
 5659TIP3   OH238535   0.280   0.798  30.444  0.3920 -0.2322  0.1560
 5659TIP3    H138536   0.228   0.758  30.375  1.7942 -0.9419 -0.5320
 5659TIP3    H238537   0.221   0.803  30.519 -1.0297  0.1358 -0.9393
 5660TIP3   OH238538   2.632   1.629   7.714  0.4756  0.0064 -0.3448
 5660TIP3    H138539   2.572   1.618   7.640  0.6852  0.2117 -0.5456
 5660TIP3    H238540   2.604   1.710   7.756 -0.2084 -0.5705  0.3320
 5661TIP3   OH238541   0.999   0.247  28.624  0.3926 -0.8317  0.0181
 5661TIP3    H138542   0.968   0.317  28.567  1.1200 -1.1815 -0.8268
 5661TIP3    H238543   1.026   0.291  28.705 -0.1173 -0.2668 -0.1149
 5662TIP3   OH238544   2.877   2.234   7.719 -0.6894  0.5451  0.2147
 5662TIP3    H138545   2.858   2.321   7.685 -0.4292 -0.0514 -1.5497
 5662TIP3    H238546   2.946   2.248   7.785  1.0812  1.4851 -1.7197
 5663TIP3   OH238547   2.628   0.464  31.271 -0.1092  0.1740 -0.1857
 5663TIP3    H138548   2.641   0.454  31.365  0.4997  0.5087 -0.2297
 5663TIP3    H238549   2.549   0.517  31.263 -0.8375 -0.8433  0.1071
 5664TIP3   OH238550   2.982   1.837  26.004  0.8892 -0.5652  0.2985
 5664TIP3    H138551   3.002   1.851  25.911  2.3737 -3.0328  0.1686
 5664TIP3    H238552   2.926   1.760  26.005 -0.2073  0.2107  1.4142
 5665TIP3   OH238553   1.060   0.214  14.593 -0.5276 -0.1891  0.1993
 5665TIP3    H138554   1.043   0.213  14.499 -0.4123  0.3773  0.1665
 5665TIP3    H238555   1.056   0.307  14.617 -0.0226 -0.2767  0.6544
 5666TIP3   OH238556   1.477   2.382  10.989 -0.2854 -0.0728 -0.1077
 5666TIP3    H138557   1.389   2.412  10.966 -0.0680  2.1612  1.5731
 5666TIP3    H238558   1.511   2.451  11.046  1.8182 -1.8202  0.8869
 5667TIP3   OH238559   1.255   0.982  30.533 -0.1143  0.1598 -0.0944
 5667TIP3    H138560   1.270   1.048  30.466 -0.3155 -0.9693 -1.2775
 5667TIP3    H238561   1.338   0.978  30.581  0.8061 -0.5625 -1.6873
 5668TIP3   OH238562   0.388   2.172  29.635 -0.2592  0.5790  0.0027
 5668TIP3    H138563   0.308   2.185  29.686  0.0190 -1.2582  1.0306
 5668TIP3    H238564   0.455   2.223  29.681 -0.8904  2.6011 -1.1942
 5669TIP3   OH238565   2.597   2.708  12.189 -0.1504  0.0950 -0.1340
 5669TIP3    H138566   2.582   2.802  12.197  0.4956  0.1660  0.2831
 5669TIP3    H238567   2.692   2.699  12.182 -0.1439 -0.5926  0.7694
 5670TIP3   OH238568   1.686   2.414  32.870  0.7892 -0.1490 -0.1154
 5670TIP3    H138569   1.733   2.330  32.874 -0.1903 -0.6669  1.1243
 5670TIP3    H238570   1.739   2.468  32.811  2.3670 -1.0598  0.4015
 5671TIP3   OH238571   3.483   2.816   3.484  1.0567 -0.0645  0.0645
 5671TIP3    H138572   3.475   2.722   3.502  1.7695 -0.3931 -1.2370
 5671TIP3    H238573   3.573   2.837   3.512  0.9756  0.1803  0.1413
 5672TIP3   OH238574   0.475   3.098   2.170 -0.0724 -0.0326 -0.5501
 5672TIP3    H138575   0.534   3.121   2.098 -0.1671  0.8817 -0.3495
 5672TIP3    H238576   0.390   3.133   2.144 -0.0263  0.6294  0.1586
 5673TIP3   OH238577   2.694   1.622   2.563 -0.0947 -0.0740  0.9795
 5673TIP3    H138578   2.666   1.563   2.493  0.8147 -0.4265  0.9058
 5673TIP3    H238579   2.618   1.679   2.577 -0.6828 -0.7053  0.4703
 5674TIP3   OH238580   1.189   3.265   2.474 -0.0379 -0.0210 -0.1207
 5674TIP3    H138581   1.164   3.273   2.382 -2.5451  0.8152  0.5482
 5674TIP3    H238582   1.132   3.198   2.509 -0.5226  1.0501  1.2403
 5675TIP3   OH238583   3.373   2.631   0.991 -0.3536 -0.3570  0.2061
 5675TIP3    H138584   3.409   2.584   0.916 -0.2010 -0.4795  0.3554
 5675TIP3    H238585   3.372   2.723   0.963 -1.7491 -0.5541 -0.5356
 5676TIP3   OH238586   0.643   1.468  21.888 -0.2499 -0.0722 -0.3213
 5676TIP3    H138587   0.664   1.512  21.805  1.2093 -0.6333 -0.2873
 5676TIP3    H238588   0.560   1.507  21.916  0.7498  2.3670 -0.4848
 5677TIP3   OH238589   2.772   0.889   4.740 -0.0290 -0.2547  0.1243
 5677TIP3    H138590   2.737   0.800   4.748 -1.8393  0.5766  2.6365
 5677TIP3    H238591   2.700   0.940   4.703  1.5206 -0.0227 -2.8637
 5678TIP3   OH238592   1.353   2.934   3.611 -0.2883  0.2323 -0.1073
 5678TIP3    H138593   1.318   2.956   3.525  0.7480  1.6608 -0.2112
 5678TIP3    H238594   1.313   2.997   3.670 -0.1637 -0.0464  0.2796
 5679TIP3   OH238595   0.158   3.243   4.311 -0.6362  0.1892  0.4939
 5679TIP3    H138596   0.100   3.181   4.356  1.5819 -1.3058  1.4256
 5679TIP3    H238597   0.233   3.190   4.283  0.4735  2.1211 -0.3613
 5680TIP3   OH238598   1.143   2.597   3.204  0.2132  0.1183 -0.7140
 5680TIP3    H138599   1.177   2.572   3.290  0.6271  0.9994 -0.6094
 5680TIP3    H238600   1.061   2.549   3.196  1.4691 -2.1213 -1.0031
 5681TIP3   OH238601   0.449   2.895  31.514  0.3913  0.1981 -0.7610
 5681TIP3    H138602   0.491   2.903  31.429  0.3415 -0.6493 -0.8761
 5681TIP3    H238603   0.356   2.884  31.494  0.5448 -1.4615 -0.6873
 5682TIP3   OH238604   3.084   1.625  19.011 -0.1296  0.8377 -0.2110
 5682TIP3    H138605   3.170   1.648  18.977  0.7709 -0.2291  1.2504
 5682TIP3    H238606   3.099   1.599  19.101 -1.8424 -0.2893 -0.1963
 5683TIP3   OH238607   0.123   1.919  31.362  0.3179  0.1526  0.4836
 5683TIP3    H138608   0.080   1.923  31.276 -0.6367  1.0289  0.9735
 5683TIP3    H238609   0.060   1.873  31.418  1.3684 -1.3249  0.4977
 5684TIP3   OH238610   1.701   2.204   5.636 -0.0634  0.1026 -0.0195
 5684TIP3    H138611   1.650   2.230   5.713  1.3833 -0.2184  1.0741
 5684TIP3    H238612   1.699   2.109   5.637 -2.6455 -0.0019 -2.2080
 5685TIP3   OH238613   3.077   2.727   1.922  0.6026 -0.5957  0.1819
 5685TIP3    H138614   3.164   2.764   1.904 -0.6164  2.0325 -0.9550
 5685TIP3    H238615   3.071   2.652   1.863  1.5481  0.1419 -0.9209
 5686TIP3   OH238616   1.028   1.666   5.498 -0.3899  0.1077  0.3395
 5686TIP3    H138617   1.012   1.701   5.410  0.2466 -2.5934 -0.9602
 5686TIP3    H238618   1.098   1.720   5.533  0.0596  0.5966 -1.2314
 5687TIP3   OH238619   0.042   3.083  28.486  0.3148 -0.0057 -1.3711
 5687TIP3    H138620  -0.011   3.162  28.472 -2.8338 -1.7918 -0.3371
 5687TIP3    H238621   0.062   3.052  28.398 -3.2331 -0.9723 -1.9728
 5688TIP3   OH238622   1.214   1.135  31.523  0.3765  0.2651  0.0693
 5688TIP3    H138623   1.255   1.082  31.454 -0.9139 -0.5555 -0.1025
 5688TIP3    H238624   1.147   1.186  31.478 -0.8620 -0.6912  0.7534
 5689TIP3   OH238625   0.171   1.543  32.884  0.3587 -0.7183 -0.5392
 5689TIP3    H138626   0.183   1.490  32.962 -0.0144  1.1174  0.8350
 5689TIP3    H238627   0.086   1.515  32.849 -0.8119  0.3029  1.3274
 5690TIP3   OH238628   1.198   1.387  26.254 -0.0317  0.4770 -0.3777
 5690TIP3    H138629   1.221   1.465  26.304  0.5146  0.2859 -0.3236
 5690TIP3    H238630   1.102   1.384  26.256 -0.0684  1.3865 -0.7617
 5691TIP3   OH238631   1.134   2.463  29.099 -0.2888  0.6857 -0.2065
 5691TIP3    H138632   1.119   2.536  29.159  0.2021  1.3953 -0.9135
 5691TIP3    H238633   1.111   2.499  29.013  0.1665  0.0715 -0.5905
 5692TIP3   OH238634   1.143   3.116  27.708  0.0740 -0.0844 -0.2922
 5692TIP3    H138635   1.150   3.199  27.661  1.1506 -1.1652 -2.1770
 5692TIP3    H238636   1.233   3.096  27.734  0.1727 -1.6396 -1.7043
 5693TIP3   OH238637   1.671   2.349  20.734 -0.3878 -0.0863 -0.3730
 5693TIP3    H138638   1.764   2.369  20.738 -0.6024  0.7029  1.3568
 5693TIP3    H238639   1.655   2.290  20.807 -1.4477  0.7642  0.1182
 5694TIP3   OH238640   1.098   2.338   5.683  0.1184 -0.2281  0.1054
 5694TIP3    H138641   1.083   2.378   5.597  1.9065  1.3248  0.4527
 5694TIP3    H238642   1.039   2.263   5.684 -1.4260  0.8480 -1.6692
 5695TIP3   OH238643   3.426   0.797   5.054  0.0059 -0.1570 -0.0441
 5695TIP3    H138644   3.435   0.860   4.983 -0.4900 -0.0999 -0.0591
 5695TIP3    H238645   3.446   0.713   5.014 -0.1679 -0.1125 -0.2243
 5696TIP3   OH238646   2.291   2.572  32.039  0.7303  0.5674 -0.0760
 5696TIP3    H138647   2.296   2.563  31.944 -0.2649  0.0073 -0.0958
 5696TIP3    H238648   2.222   2.511  32.065  2.1180 -0.5576  1.1986
 5697TIP3   OH238649   0.623   3.305  29.109 -0.0732 -0.3487  0.4206
 5697TIP3    H138650   0.643   3.374  29.047  1.0941 -2.4669 -1.7392
 5697TIP3    H238651   0.528   3.309  29.120 -0.2452  0.4255 -1.1449
 5698TIP3   OH238652   3.144   1.497  31.697  0.4818 -0.2178  0.3629
 5698TIP3    H138653   3.110   1.472  31.612  0.0904  0.8231  0.1980
 5698TIP3    H238654   3.067   1.517  31.749  0.7841  1.0528  0.3467
 5699TIP3   OH238655   1.305   1.504   0.085  0.2630  0.0700 -0.0568
 5699TIP3    H138656   1.298   1.516   0.180  0.6471 -0.7150  0.0825
 5699TIP3    H238657   1.378   1.560   0.059 -1.0580  1.8084 -0.2170
 5700TIP3   OH238658   3.022   1.632  26.684 -0.0312  0.4692 -0.1176
 5700TIP3    H138659   2.976   1.557  26.721  0.4693  0.6555  0.9317
 5700TIP3    H238660   2.985   1.708  26.731  0.8764  0.6780  0.2869
 5701TIP3   OH238661   1.713   0.864  26.905 -0.0881 -0.3307 -0.2986
 5701TIP3    H138662   1.725   0.792  26.843  1.3371  0.0921 -0.5509
 5701TIP3    H238663   1.790   0.859  26.962 -0.5379  0.3211  0.3780
 5702TIP3   OH238664   3.321   0.074  26.521  0.2993  0.4139 -0.2602
 5702TIP3    H138665   3.349  -0.014  26.498 -0.0810  0.2990 -0.2891
 5702TIP3    H238666   3.317   0.121  26.438 -1.3726 -0.0864 -0.4920
 5703TIP3   OH238667   1.215   2.936   0.546  0.2111 -0.0450 -0.1153
 5703TIP3    H138668   1.202   2.997   0.473  1.2867  1.0673  0.5985
 5703TIP3    H238669   1.177   2.980   0.621  0.7251 -0.3904  0.3559
 5704TIP3   OH238670   1.530   0.466   0.950 -0.0550  0.3393 -0.1360
 5704TIP3    H138671   1.607   0.455   1.006 -0.6266 -0.2460  0.5566
 5704TIP3    H238672   1.560   0.523   0.879  2.0013 -2.4155 -1.7320
 5705TIP3   OH238673   0.720   1.815  29.738  0.0127  0.3672  0.1825
 5705TIP3    H138674   0.649   1.819  29.801  0.0731  0.8650  0.2209
 5705TIP3    H238675   0.691   1.752  29.672  0.0927 -0.4198  0.8815
 5706TIP3   OH238676   0.820   2.982  27.211  0.2083 -0.1119  0.7476
 5706TIP3    H138677   0.734   2.967  27.252  0.1390  0.5454  0.8501
 5706TIP3    H238678   0.883   2.950  27.276  0.0792  0.4829  1.1769
 5707TIP3   OH238679   2.059   2.467  30.567 -0.2073  0.4427 -0.3532
 5707TIP3    H138680   2.000   2.392  30.573  0.4634 -0.0343  0.4887
 5707TIP3    H238681   2.009   2.539  30.606 -0.9676  0.5345 -1.4359
 5708TIP3   OH238682   1.594   2.336  30.530  0.7192  0.1187 -0.1427
 5708TIP3    H138683   1.559   2.253  30.499  1.4185 -0.5343  0.7766
 5708TIP3    H238684   1.531   2.366  30.596 -1.8539  2.4929 -3.3621
 5709TIP3   OH238685   1.118   1.160   6.626  0.2562  0.0982  0.0325
 5709TIP3    H138686   1.117   1.253   6.650  0.0906  1.2046 -3.6451
 5709TIP3    H238687   1.049   1.152   6.560  3.0557 -1.5403 -2.9842
 5710TIP3   OH238688   0.054   0.721   1.728  0.5011 -0.1223  0.3503
 5710TIP3    H138689   0.058   0.632   1.764 -2.8524 -0.5850 -0.0920
 5710TIP3    H238690   0.070   0.711   1.635 -2.2765 -0.7642 -0.1490
 5711TIP3   OH238691   2.536   2.428  22.964  0.3802  0.0382 -0.5522
 5711TIP3    H138692   2.547   2.421  22.869  1.1722 -1.6073 -0.3787
 5711TIP3    H238693   2.594   2.360  23.000 -0.1212  0.4363  1.0988
 5712TIP3   OH238694   2.358   0.094   2.370 -0.3210  0.4791  0.1269
 5712TIP3    H138695   2.354   0.028   2.301  3.1119  2.1835 -1.9847
 5712TIP3    H238696   2.277   0.145   2.360 -0.8499 -0.5774 -1.2496
 5713TIP3   OH238697   2.284   0.703  30.580 -0.1166 -0.0446 -0.1373
 5713TIP3    H138698   2.205   0.654  30.603 -0.3953 -0.5878 -2.0536
 5713TIP3    H238699   2.253   0.792  30.567 -0.0051  0.2084  1.1876
 5714TIP3   OH238700   0.885   1.036  26.889 -0.0035  0.2689  0.8007
 5714TIP3    H138701   0.865   1.118  26.934  1.1713  0.0806  1.7248
 5714TIP3    H238702   0.877   0.969  26.957 -0.5141 -0.3314  0.1575
 5715TIP3   OH238703   1.530   1.427  30.188 -0.2661  0.0045 -0.1962
 5715TIP3    H138704   1.458   1.386  30.235  0.0248 -0.1128  0.1582
 5715TIP3    H238705   1.607   1.410  30.243 -0.3563  2.3166  0.7519
 5716TIP3   OH238706   0.172   3.202   3.097 -0.1415 -0.2928 -0.0391
 5716TIP3    H138707   0.153   3.290   3.129  0.9490 -0.0878  0.1028
 5716TIP3    H238708   0.249   3.175   3.148  0.5923 -0.6349 -1.2801
 5717TIP3   OH238709   2.700   1.569  26.582  0.4050  0.4572  0.4365
 5717TIP3    H138710   2.614   1.585  26.619 -0.1627 -0.1060 -0.6087
 5717TIP3    H238711   2.749   1.650  26.597 -0.3781  0.8627  0.8141
 5718TIP3   OH238712   3.072   1.980   6.632 -0.2056  0.4988 -0.3066
 5718TIP3    H138713   3.157   1.998   6.594 -0.5449  1.6898 -0.5295
 5718TIP3    H238714   3.037   2.065   6.657 -1.7988  0.1835 -1.2469
 5719TIP3   OH238715   0.353   2.764   1.633  0.2281 -0.0303 -0.2983
 5719TIP3    H138716   0.365   2.833   1.697 -1.2357 -0.1217  0.1113
 5719TIP3    H238717   0.427   2.706   1.646  0.0613  0.0510  1.2005
 5720TIP3   OH238718   0.134   2.078   2.287 -0.0731  0.2145 -0.0590
 5720TIP3    H138719   0.174   2.025   2.218  1.9771  2.6034 -0.8422
 5720TIP3    H238720   0.051   2.107   2.250 -0.5403 -1.1965 -0.1789
 5721TIP3   OH238721   0.870   1.961  20.929  0.1321  0.3162 -0.0766
 5721TIP3    H138722   0.831   1.957  21.016  0.0832  2.9718  0.1066
 5721TIP3    H238723   0.826   1.891  20.880 -0.1047 -0.9917  1.8736
 5722TIP3   OH238724   3.133   1.963  22.232 -0.1515 -0.2557  0.1786
 5722TIP3    H138725   3.127   2.009  22.148  0.9051 -0.4311 -0.0103
 5722TIP3    H238726   3.068   2.006  22.287 -0.8655 -0.1400 -0.7268
 5723TIP3   OH238727   0.058   3.159  26.380 -0.1537  0.1612 -0.1260
 5723TIP3    H138728   0.070   3.066  26.360 -0.1598 -0.0343  0.7223
 5723TIP3    H238729  -0.018   3.186  26.328 -1.1203 -0.7132  0.7834
 5724TIP3   OH238730   1.329   0.899   7.754 -0.7097 -0.0051  0.1608
 5724TIP3    H138731   1.351   0.832   7.689 -0.1606  0.8412 -0.5433
 5724TIP3    H238732   1.255   0.946   7.716  0.4013  1.3002 -0.4563
 5725TIP3   OH238733   2.323   0.367   5.799 -0.1490  0.3096 -0.5203
 5725TIP3    H138734   2.346   0.447   5.846  1.3178  0.7314 -1.8828
 5725TIP3    H238735   2.376   0.369   5.719 -1.0481 -1.3816 -1.2245
 5726TIP3   OH238736   0.970   0.624  30.020 -0.1637  0.0049  0.1994
 5726TIP3    H138737   0.894   0.572  29.992  0.2179 -0.9695  0.9460
 5726TIP3    H238738   0.940   0.671  30.097  0.2094 -0.9929  0.9711
 5727TIP3   OH238739   2.308   3.245   3.285 -0.3284  0.5355  0.1054
 5727TIP3    H138740   2.252   3.196   3.225 -3.2526 -0.1898  3.1486
 5727TIP3    H238741   2.353   3.179   3.337  0.9394  1.1434 -0.1747
 5728TIP3   OH238742   2.917   2.934  27.594 -0.5828 -0.3997  0.2539
 5728TIP3    H138743   2.978   2.959  27.664 -1.5410 -0.4653  1.1457
 5728TIP3    H238744   2.972   2.895  27.527  0.2071 -2.0111  1.7531
 5729TIP3   OH238745   3.514   2.267  26.897 -0.1188  0.2466 -1.1270
 5729TIP3    H138746   3.512   2.252  26.802 -2.9974  0.6109 -1.2244
 5729TIP3    H238747   3.499   2.361  26.906  0.0761  0.2025 -0.3176
 5730TIP3   OH238748   3.155   1.404  18.629  0.1783 -0.1481 -0.3020
 5730TIP3    H138749   3.206   1.453  18.564 -0.1204 -1.9423 -2.0097
 5730TIP3    H238750   3.191   1.315  18.624 -1.9628 -1.0550 -0.3268
 5731TIP3   OH238751   0.286   2.251  28.705  0.4548  0.1879 -0.2040
 5731TIP3    H138752   0.203   2.277  28.665 -0.4189  0.6244  1.7606
 5731TIP3    H238753   0.264   2.174  28.757  1.3891  0.0198 -0.0439
 5732TIP3   OH238754   1.681   2.159   3.076  0.1497  0.7682 -0.2256
 5732TIP3    H138755   1.642   2.101   3.141 -0.9659 -0.2794 -1.7506
 5732TIP3    H238756   1.768   2.179   3.110  0.5587 -1.7722  0.4047
 5733TIP3   OH238757   2.028   0.895   3.481  0.3246  0.3844 -0.6179
 5733TIP3    H138758   2.034   0.812   3.435  0.5715  0.2627 -0.3675
 5733TIP3    H238759   2.106   0.944   3.453  0.4901  0.2984 -0.3085
 5734TIP3   OH238760   2.151   0.033  29.507  1.3196 -0.5214 -0.2376
 5734TIP3    H138761   2.226   0.074  29.465  0.2971 -0.8630 -2.5571
 5734TIP3    H238762   2.120   0.098  29.570  1.3090  1.2101 -1.9516
 5735TIP3   OH238763   2.118   1.514   1.965 -0.2096 -0.2422 -0.1826
 5735TIP3    H138764   2.075   1.599   1.976  0.9084  0.3245 -0.0715
 5735TIP3    H238765   2.210   1.530   1.987  0.2119 -1.2669 -1.0777
 5736TIP3   OH238766   1.799   0.574   6.433 -0.1123 -0.1466 -0.4736
 5736TIP3    H138767   1.812   0.653   6.486  0.2863 -0.9363  0.6403
 5736TIP3    H238768   1.888   0.543   6.415 -0.1662  0.7554 -2.6789
 5737TIP3   OH238769   3.064   2.290   1.264  0.3798  0.1048 -0.0302
 5737TIP3    H138770   3.035   2.312   1.353  1.4650  1.2930  0.0601
 5737TIP3    H238771   3.148   2.335   1.255  1.2634 -1.6183 -0.9640
 5738TIP3   OH238772   0.579   3.315   4.668 -0.3602 -0.0724 -0.1982
 5738TIP3    H138773   0.499   3.334   4.620 -0.6392  0.8236  0.5885
 5738TIP3    H238774   0.641   3.285   4.601 -0.6902  1.2786 -1.1444
 5739TIP3   OH238775   3.166   1.865  31.169 -0.2740 -0.1676  0.2009
 5739TIP3    H138776   3.176   1.804  31.242 -4.0561 -1.7007 -0.3601
 5739TIP3    H238777   3.216   1.826  31.098 -1.0428 -1.6240  0.4232
 5740TIP3   OH238778   2.785   1.202  26.782  0.6217  0.6668  0.0193
 5740TIP3    H138779   2.714   1.156  26.736  1.8143 -1.4709  0.1803
 5740TIP3    H238780   2.865   1.163  26.747  1.6740  1.6398  1.2638
 5741TIP3   OH238781   0.999   2.201  30.934 -0.0115 -0.1663  0.0787
 5741TIP3    H138782   1.038   2.169  31.016 -1.1447 -0.9744  0.3291
 5741TIP3    H238783   1.025   2.293  30.929  0.9735 -0.3890  0.7966
 5742TIP3   OH238784   0.867   0.349   5.560  0.1245  0.0164 -0.0990
 5742TIP3    H138785   0.831   0.332   5.647  0.6029 -1.8396 -0.2258
 5742TIP3    H238786   0.821   0.288   5.502  0.4973  0.5574 -0.9934
 5743TIP3   OH238787   1.475   2.243   3.771  0.5855 -0.6047 -0.0191
 5743TIP3    H138788   1.544   2.302   3.801 -0.4876  0.9563 -0.4963
 5743TIP3    H238789   1.455   2.273   3.682 -1.1478 -0.5823  0.3476
 5744TIP3   OH238790   2.831   2.848  26.423  0.5851 -0.6191  0.0867
 5744TIP3    H138791   2.738   2.826  26.421  0.2188  0.7155 -2.5206
 5744TIP3    H238792   2.846   2.896  26.341  3.3254  0.2259  0.9617
 5745TIP3   OH238793   1.566   3.455  15.663  0.0825  0.5500  0.6788
 5745TIP3    H138794   1.563   3.413  15.577  1.1906 -0.3050  1.0283
 5745TIP3    H238795   1.626   3.401  15.714  0.6394  1.9094  1.5242
 5746TIP3   OH238796   3.053   0.612  31.612 -0.2790  1.3187  0.0067
 5746TIP3    H138797   3.118   0.679  31.588 -0.1320  1.0027 -0.4922
 5746TIP3    H238798   3.105   0.543  31.654 -0.4283  1.5004  0.5005
 5747TIP3   OH238799   1.933   0.841  25.919  0.0017  0.7201  0.4603
 5747TIP3    H138800   1.927   0.755  25.961 -0.8568  0.8184  0.5526
 5747TIP3    H238801   1.982   0.825  25.839  0.6634  0.3221  0.9315
 5748TIP3   OH238802   0.908   2.060   4.637  0.1203 -0.0960 -0.3776
 5748TIP3    H138803   0.835   2.080   4.579  2.2233  0.5593 -2.9714
 5748TIP3    H238804   0.912   1.965   4.639  0.1908 -0.1244 -1.5453
 5749TIP3   OH238805   2.099   3.099   6.401 -0.1717  0.1448  0.4758
 5749TIP3    H138806   2.018   3.114   6.451 -0.2521 -0.1685  0.4400
 5749TIP3    H238807   2.130   3.187   6.379 -1.5601  0.2767 -1.2080
 5750TIP3   OH238808   0.123   3.114  27.415 -0.7050  0.2062  0.2148
 5750TIP3    H138809   0.033   3.085  27.404 -0.4566 -1.3831  1.8356
 5750TIP3    H238810   0.140   3.104  27.509  1.9098 -2.0720 -0.3563
 5751TIP3   OH238811   1.572   2.107  19.487 -0.0970 -0.1820  0.5130
 5751TIP3    H138812   1.615   2.068  19.563 -1.1349 -0.6007  0.9094
 5751TIP3    H238813   1.590   2.201  19.494  1.6869 -0.4570  0.0285
 5752TIP3   OH238814   0.329   1.836  23.263  0.4628 -0.4045  0.2524
 5752TIP3    H138815   0.420   1.815  23.285  0.5734 -1.5326 -1.1307
 5752TIP3    H238816   0.276   1.776  23.315  0.6045 -1.0621 -0.3458
 5753TIP3   OH238817   1.902   1.827   0.130 -0.0806  0.3575  0.0942
 5753TIP3    H138818   1.897   1.824   0.226  1.7616 -0.3715  0.2058
 5753TIP3    H238819   1.976   1.771   0.108 -0.2319  0.8190 -1.7534
 5754TIP3   OH238820   1.113   2.131  31.179  0.3022 -0.3708 -0.5268
 5754TIP3    H138821   1.117   2.063  31.247 -0.5848 -1.2287 -1.2919
 5754TIP3    H238822   1.198   2.174  31.184  0.5110 -0.8615  0.6694
 5755TIP3   OH238823   0.655   2.557   0.263 -0.0686 -0.0130 -0.1468
 5755TIP3    H138824   0.603   2.510   0.328  0.9706 -1.2408 -0.1665
 5755TIP3    H238825   0.746   2.537   0.286  0.7241  4.5475  1.8431
 5756TIP3   OH238826   3.146   0.371  32.700  0.0554 -0.0625  0.0500
 5756TIP3    H138827   3.162   0.453  32.652 -2.9526  0.6071  0.0042
 5756TIP3    H238828   3.070   0.333  32.657  1.9195 -3.5118 -0.5766
 5757TIP3   OH238829   2.503   0.877   4.893 -0.2666 -0.3617 -0.1137
 5757TIP3    H138830   2.433   0.918   4.944  1.2016  1.7837  0.3318
 5757TIP3    H238831   2.531   0.803   4.947 -0.4358  0.3563  1.0200
 5758TIP3   OH238832   1.617   0.849  28.987 -0.1936  0.3471  0.4963
 5758TIP3    H138833   1.685   0.788  28.959 -1.7607  0.2830 -3.9031
 5758TIP3    H238834   1.549   0.793  29.024  0.0967 -0.1321  0.3182
 5759TIP3   OH238835   2.195   3.285   5.388 -0.5466 -0.7480 -0.6879
 5759TIP3    H138836   2.134   3.256   5.455 -0.6232 -0.1830 -0.5052
 5759TIP3    H238837   2.142   3.338   5.328 -0.5749 -1.6267 -1.4567
 5760TIP3   OH238838   1.427   2.400  32.795  0.2829 -0.1099  0.0409
 5760TIP3    H138839   1.503   2.404  32.853 -0.7092  0.9432  1.3211
 5760TIP3    H238840   1.353   2.382  32.852 -0.4782 -1.0299 -1.1730
 5761TIP3   OH238841   3.485   3.370  27.541  0.0002  0.4558  0.4312
 5761TIP3    H138842   3.534   3.440  27.498  0.6050 -1.3251 -1.9969
 5761TIP3    H238843   3.394   3.384  27.512  0.1773  0.0818 -0.3442
 5762TIP3   OH238844   2.318   1.919  29.519 -0.0556  0.0298 -0.3073
 5762TIP3    H138845   2.373   1.975  29.574 -1.0159  0.6808  0.0116
 5762TIP3    H238846   2.296   1.845  29.574  1.0547 -0.5868 -0.6646
 5763TIP3   OH238847   2.868   1.405   0.639 -0.5349 -0.0386 -0.0353
 5763TIP3    H138848   2.828   1.320   0.619 -0.5860  0.1736 -0.8706
 5763TIP3    H238849   2.915   1.429   0.559  0.5646  0.1230  0.6420
 5764TIP3   OH238850   2.030   3.078   0.397 -0.4408  0.0129 -0.2836
 5764TIP3    H138851   2.092   3.006   0.393  0.1739  0.3586  1.9288
 5764TIP3    H238852   1.959   3.052   0.339 -0.6099 -2.7735  1.0267
 5765TIP3   OH238853   0.381   0.053   5.161 -0.2272  0.6305 -0.1133
 5765TIP3    H138854   0.350   0.140   5.183  2.7218  1.8821 -0.5110
 5765TIP3    H238855   0.393   0.054   5.066  0.5250  0.0448 -0.0369
 5766TIP3   OH238856   3.135   0.724   1.228 -0.3319 -0.1182 -0.2206
 5766TIP3    H138857   3.168   0.773   1.152 -0.5902  1.4955  0.6599
 5766TIP3    H238858   3.190   0.752   1.301 -2.7619  1.7559  1.0508
 5767TIP3   OH238859   3.301   2.920  31.680 -0.4910  0.2064 -0.1971
 5767TIP3    H138860   3.316   2.984  31.749  0.6120 -1.7941  1.5305
 5767TIP3    H238861   3.388   2.886  31.660 -0.9015  0.1216 -2.0001
 5768TIP3   OH238862   2.396   0.269  29.136 -0.6257  0.6453  0.4479
 5768TIP3    H138863   2.413   0.334  29.205 -0.2115  1.5139 -0.4488
 5768TIP3    H238864   2.303   0.278  29.117 -1.0783 -0.6211  1.8860
 5769TIP3   OH238865   0.635   1.862   4.740  0.3344 -0.1507 -0.5962
 5769TIP3    H138866   0.631   1.781   4.690 -1.1716 -0.3649 -0.1986
 5769TIP3    H238867   0.637   1.833   4.831  1.1957  0.2521 -0.4832
 5770TIP3   OH238868   1.164   0.185  29.253 -0.1399  0.1096 -0.1359
 5770TIP3    H138869   1.173   0.210  29.161 -2.0756 -0.6934 -0.5952
 5770TIP3    H238870   1.072   0.200  29.273  0.0632 -0.5451  1.4366
 5771TIP3   OH238871   2.529   0.529  14.496 -0.2765  0.5382  0.5312
 5771TIP3    H138872   2.596   0.478  14.542 -1.5300 -1.6401  0.1206
 5771TIP3    H238873   2.546   0.512  14.403 -2.1339 -1.2109  0.4374
 5772TIP3   OH238874   2.440   2.011   7.080 -0.4856 -0.5014 -0.2004
 5772TIP3    H138875   2.395   2.010   7.164 -1.2832  0.4995 -0.5926
 5772TIP3    H238876   2.474   1.921   7.070 -1.0329 -0.8419  0.8203
 5773TIP3   OH238877   2.049   2.159   7.347 -0.4747 -0.4126  0.9340
 5773TIP3    H138878   1.956   2.140   7.362 -0.6857  0.0326  0.2199
 5773TIP3    H238879   2.086   2.075   7.319 -0.5338 -0.7273  1.7598
 5774TIP3   OH238880   2.789   1.966  23.006 -0.4105 -0.1156  0.0037
 5774TIP3    H138881   2.856   1.898  23.016 -1.3277 -1.5103 -2.4116
 5774TIP3    H238882   2.837   2.042  22.973  0.2790 -0.4694  0.1755
 5775TIP3   OH238883   2.569   1.787  27.931  1.2035 -0.3274 -0.0952
 5775TIP3    H138884   2.641   1.824  27.880 -0.1432  2.1789 -0.3349
 5775TIP3    H238885   2.490   1.821  27.889 -0.0515 -1.1154  1.5220
 5776TIP3   OH238886   1.121   3.526   2.509  0.2664  0.4273 -0.3294
 5776TIP3    H138887   1.188   3.559   2.570 -0.1225 -2.4976  1.9218
 5776TIP3    H238888   1.148   3.435   2.492 -1.5749  0.0962 -1.6928
 5777TIP3   OH238889   1.688   2.953  14.460  0.1419 -0.9429  0.1325
 5777TIP3    H138890   1.780   2.939  14.439  0.3512  2.5883 -2.2178
 5777TIP3    H238891   1.647   2.868  14.447  3.0317 -2.6433  1.3556
 5778TIP3   OH238892   1.098   3.488   0.894 -0.3867  0.1624  0.3000
 5778TIP3    H138893   1.168   3.540   0.854  2.0604 -1.6171  2.0169
 5778TIP3    H238894   1.132   3.464   0.980 -4.4613  1.9109  2.6902
 5779TIP3   OH238895   0.658   0.535   3.720 -0.1256  0.0505 -0.1481
 5779TIP3    H138896   0.642   0.627   3.742 -1.6554 -0.5637  1.5102
 5779TIP3    H238897   0.576   0.490   3.742  1.3506 -2.0802  1.2924
 5780TIP3   OH238898   0.816   2.767  32.749  0.4084 -0.2149 -0.0907
 5780TIP3    H138899   0.774   2.848  32.720  0.2491 -1.0300 -2.3150
 5780TIP3    H238900   0.896   2.796  32.794  1.3871  1.1626 -2.5375
 5781TIP3   OH238901   1.615   3.510  31.840 -0.1826  0.1945 -0.0791
 5781TIP3    H138902   1.583   3.550  31.759  2.1081 -0.2622 -1.2784
 5781TIP3    H238903   1.551   3.441  31.860 -0.5095 -0.0289 -1.7921
 5782TIP3   OH238904   3.494   2.466  31.324 -1.0834 -0.5183 -0.5382
 5782TIP3    H138905   3.559   2.472  31.254 -2.2078  3.6637 -1.4934
 5782TIP3    H238906   3.413   2.440  31.280 -1.1487 -0.9545 -0.1798
 5783TIP3   OH238907   2.580   2.056  28.864  0.3214  0.2511 -0.3300
 5783TIP3    H138908   2.603   1.963  28.871 -1.1116 -0.1212 -0.3813
 5783TIP3    H238909   2.518   2.060  28.791 -1.3139  0.9028  1.0424
 5784TIP3   OH238910   2.677   0.287  27.242 -0.1321 -0.1081 -0.0980
 5784TIP3    H138911   2.585   0.311  27.251 -0.1421 -0.2456  0.1834
 5784TIP3    H238912   2.700   0.248  27.327 -0.2113 -1.3783 -0.6325
 5785TIP3   OH238913   0.436   0.880   4.759  0.1108 -0.5272 -0.1320
 5785TIP3    H138914   0.506   0.873   4.694  1.3719  1.2773  0.9155
 5785TIP3    H238915   0.466   0.826   4.832  0.6923  0.6509  0.5202
 5786TIP3   OH238916   1.604   1.986   3.264  0.1728  1.3245 -0.2148
 5786TIP3    H138917   1.518   1.946   3.273  0.9368 -0.5282 -0.6489
 5786TIP3    H238918   1.657   1.947   3.333  1.0366  1.3167 -0.8565
 5787TIP3   OH238919   2.421   0.992  27.593 -0.4653 -0.3978 -0.0600
 5787TIP3    H138920   2.410   0.899  27.613  0.0225 -0.6112 -0.7289
 5787TIP3    H238921   2.493   0.994  27.529 -0.6816  0.4079 -0.2887
 5788TIP3   OH238922   2.212   1.546  19.871  0.1823 -0.2962 -0.1728
 5788TIP3    H138923   2.136   1.605  19.868 -0.5989 -1.2759 -0.1968
 5788TIP3    H238924   2.275   1.592  19.927 -0.6421  0.3074  0.2950
 5789TIP3   OH238925   2.455   2.905  27.382  0.4297  0.3747  0.5466
 5789TIP3    H138926   2.456   2.979  27.322 -1.6987  0.3081  0.3569
 5789TIP3    H238927   2.488   2.831  27.331  0.7608  0.7915  0.1591
 5790TIP3   OH238928   2.922   1.770   3.444 -0.3181 -0.2230  0.1391
 5790TIP3    H138929   3.003   1.819   3.433  0.5350 -1.7224 -0.5849
 5790TIP3    H238930   2.890   1.796   3.530  1.7469 -0.7218  1.1112
 5791TIP3   OH238931   2.346   3.284   6.048 -0.3309 -0.5804  1.4227
 5791TIP3    H138932   2.366   3.283   6.142  0.8243  1.1410  1.2531
 5791TIP3    H238933   2.414   3.229   6.008  0.2022  0.0382  1.4591
 5792TIP3   OH238934   0.853   2.619  29.296 -0.2073  0.3106 -0.5322
 5792TIP3    H138935   0.881   2.654  29.211 -1.3854  0.8498 -0.7247
 5792TIP3    H238936   0.795   2.686  29.331 -0.9663 -0.5906 -0.0108
 5793TIP3   OH238937   1.830   0.598  26.704 -0.7233 -0.1887 -0.2649
 5793TIP3    H138938   1.758   0.537  26.723 -1.9466  0.9946 -0.9475
 5793TIP3    H238939   1.862   0.570  26.619 -0.2966 -0.7688  0.0762
 5794TIP3   OH238940   0.802   3.288  29.312 -0.5268  0.2133 -0.4334
 5794TIP3    H138941   0.755   3.288  29.228 -0.6380 -0.9144 -0.3942
 5794TIP3    H238942   0.794   3.198  29.344 -1.1380  0.7978  1.1647
 5795TIP3   OH238943   3.427   0.666   6.390 -0.6817  0.6159  0.6249
 5795TIP3    H138944   3.444   0.628   6.303 -1.6363  2.1413 -0.2748
 5795TIP3    H238945   3.433   0.591   6.450 -3.2572 -1.1962 -1.1324
 5796TIP3   OH238946   1.122   2.959  30.490  0.0084 -0.4841 -0.1993
 5796TIP3    H138947   1.050   2.992  30.436  1.3980  2.2810 -0.5795
 5796TIP3    H238948   1.081   2.935  30.573 -1.9265 -3.2446 -1.7794
 5797TIP3   OH238949   2.699   2.119   3.045  0.1917 -0.4649  0.2167
 5797TIP3    H138950   2.783   2.118   3.091  0.4793 -1.5557 -0.3090
 5797TIP3    H238951   2.691   2.209   3.014  1.6129 -0.5528 -0.5027
 5798TIP3   OH238952   1.216   3.218   1.413 -0.3521 -0.2514 -0.3255
 5798TIP3    H138953   1.240   3.309   1.394 -0.4812  0.0457  0.8950
 5798TIP3    H238954   1.162   3.223   1.492  2.0366 -1.6515  1.5314
 5799TIP3   OH238955   3.219   3.366  31.529 -0.2077 -0.1048  0.3562
 5799TIP3    H138956   3.240   3.277  31.558  2.0604 -0.2619 -1.5493
 5799TIP3    H238957   3.295   3.418  31.554 -0.9477  1.0328  0.2893
 5800TIP3   OH238958   3.092   0.652  32.043 -0.2185 -0.0771  0.3565
 5800TIP3    H138959   3.118   0.727  31.989 -0.7582 -0.0491  0.1342
 5800TIP3    H238960   3.173   0.625  32.086  0.8024 -1.5995 -2.2874
 5801TIP3   OH238961   0.817   1.506   5.083  0.3039 -0.0615 -0.2499
 5801TIP3    H138962   0.862   1.547   5.157 -1.1445 -1.0583  1.2788
 5801TIP3    H238963   0.797   1.418   5.114 -2.0398  0.1133 -1.0788
 5802TIP3   OH238964   0.984   0.146   1.310 -0.6291  0.2124  0.1591
 5802TIP3    H138965   1.027   0.195   1.240  0.8523 -1.4363 -0.1270
 5802TIP3    H238966   0.891   0.146   1.286 -0.2297  0.2025 -1.4807
 5803TIP3   OH238967   3.366   0.767   2.363 -0.0741  0.4591 -0.7097
 5803TIP3    H138968   3.460   0.784   2.375 -0.2424 -0.0019  2.0815
 5803TIP3    H238969   3.323   0.845   2.398 -0.7018 -0.9646  1.9944
 5804TIP3   OH238970   2.183   1.613  31.740 -0.4000 -0.2842  0.1758
 5804TIP3    H138971   2.204   1.526  31.706 -1.4751 -0.6330  0.3568
 5804TIP3    H238972   2.266   1.648  31.770  0.0485 -1.2601  0.1117
 5805TIP3   OH238973   2.340   1.424  20.877  0.1047  0.2332  0.4443
 5805TIP3    H138974   2.399   1.397  20.947  0.2522 -2.3968 -0.5730
 5805TIP3    H238975   2.396   1.475  20.817  1.5510 -2.4000 -0.6182
 5806TIP3   OH238976   1.374   3.266   4.377 -0.1607 -0.4007 -0.4658
 5806TIP3    H138977   1.409   3.351   4.349 -2.0829  0.4064 -0.5972
 5806TIP3    H238978   1.389   3.208   4.303 -1.3837  0.6137 -1.5695
 5807TIP3   OH238979   2.411   1.501   3.900 -0.0775  0.3351  0.0181
 5807TIP3    H138980   2.393   1.466   3.987  1.0163  0.0975  0.1613
 5807TIP3    H238981   2.324   1.523   3.865 -0.5964 -0.2959  0.8532
 5808TIP3   OH238982   1.133   3.535  27.295 -0.5535  0.0817  0.2272
 5808TIP3    H138983   1.056   3.547  27.240 -1.0461 -1.3737  0.5397
 5808TIP3    H238984   1.164   3.447  27.272 -0.3219 -0.2471  1.7257
 5809TIP3   OH238985   0.165   1.762   2.784 -0.0035 -0.1795 -0.1713
 5809TIP3    H138986   0.135   1.691   2.727 -2.0368  0.3453  0.1566
 5809TIP3    H238987   0.127   1.841   2.745 -1.2262  0.2190  1.7269
 5810TIP3   OH238988   2.175   1.988   5.918 -0.3755  0.3476 -0.2045
 5810TIP3    H138989   2.142   2.075   5.942  0.1750  0.9888 -1.6471
 5810TIP3    H238990   2.269   2.001   5.905 -0.2158 -0.5636 -0.0148
 5811TIP3   OH238991   2.286   1.084   6.137  0.5291  0.7428  0.3682
 5811TIP3    H138992   2.301   1.102   6.044  1.6389  1.6630  0.7111
 5811TIP3    H238993   2.373   1.071   6.174  0.0718 -0.1664  1.1962
 5812TIP3   OH238994   2.349   3.346  31.141 -0.2375  0.5975  0.2438
 5812TIP3    H138995   2.380   3.435  31.127 -0.2545  0.8594  1.7001
 5812TIP3    H238996   2.402   3.313  31.213 -0.7812 -0.2883  0.2600
 5813TIP3   OH238997   3.138   2.951  29.842 -0.3934  0.0653  0.4211
 5813TIP3    H138998   3.178   2.902  29.913 -1.9294 -0.1708  1.1648
 5813TIP3    H238999   3.106   2.884  29.782 -0.7249  0.2121  0.4329
 5814TIP3   OH239000   1.828   2.824  30.943 -0.2400 -0.1960  0.0785
 5814TIP3    H139001   1.740   2.805  30.974 -1.1799 -1.9534 -3.1909
 5814TIP3    H239002   1.816   2.894  30.878  0.4664 -1.5930 -1.6176
 5815TIP3   OH239003   1.928   2.769   2.325  0.3465 -0.1013  0.1140
 5815TIP3    H139004   1.864   2.834   2.296  0.4266 -0.0029  0.1541
 5815TIP3    H239005   1.968   2.737   2.244  1.6633  1.2942  0.1630
 5816TIP3   OH239006   0.956   0.756   1.327 -0.6620  0.3736  0.4471
 5816TIP3    H139007   0.867   0.761   1.293 -0.5376 -0.4292 -0.0242
 5816TIP3    H239008   0.949   0.787   1.417 -1.5477 -0.3295  0.6360
 5817TIP3   OH239009   0.007   1.984   6.364  0.5838 -0.1357  0.0646
 5817TIP3    H139010  -0.052   1.963   6.291 -1.7286 -2.0200  2.2572
 5817TIP3    H239011  -0.003   2.078   6.377 -1.2676 -0.2469 -0.2620
 5818TIP3   OH239012   0.193   0.791  28.441 -0.0217  0.6574 -0.0367
 5818TIP3    H139013   0.150   0.841  28.510 -1.3189  0.0937 -0.4002
 5818TIP3    H239014   0.135   0.799  28.365  0.3798 -0.3370 -0.4738
 5819TIP3   OH239015   1.241   0.885  28.496  0.0722  0.2220 -0.2385
 5819TIP3    H139016   1.308   0.954  28.497  0.9250 -0.4901 -2.1537
 5819TIP3    H239017   1.278   0.815  28.551 -0.1210  0.6797  0.4904
 5820TIP3   OH239018   0.206   2.193   3.378 -0.1671  0.4376 -0.5189
 5820TIP3    H139019   0.168   2.226   3.460  0.9926  0.2205  0.1303
 5820TIP3    H239020   0.169   2.104   3.370  0.5560  0.0399  0.3662
 5821TIP3   OH239021   2.075   3.223   4.597 -0.0364 -0.2119  0.4375
 5821TIP3    H139022   2.108   3.205   4.509 -3.6819  1.1160 -1.4500
 5821TIP3    H239023   2.108   3.311   4.618 -1.1903  0.5692 -0.8412
 5822TIP3   OH239024   1.039   2.564   2.114  0.0506 -0.4470  0.6807
 5822TIP3    H139025   1.102   2.578   2.043 -0.3363 -0.0358  0.4120
 5822TIP3    H239026   1.092   2.546   2.191  0.5295  0.8465  0.6765
 5823TIP3   OH239027   0.219   1.664   4.739  0.1156  0.1458  0.4432
 5823TIP3    H139028   0.179   1.578   4.724  0.5098  0.1325 -0.5658
 5823TIP3    H239029   0.207   1.711   4.657  0.8509  0.6767  0.6302
 5824TIP3   OH239030   0.725   3.214  13.053 -0.1820 -0.1241  0.1439
 5824TIP3    H139031   0.700   3.165  12.975 -0.3405  1.1808 -0.6519
 5824TIP3    H239032   0.718   3.150  13.124 -2.6426 -0.6717 -0.5033
 5825TIP3   OH239033   1.539   2.787  32.294  0.2591  0.3148  0.0045
 5825TIP3    H139034   1.463   2.785  32.352 -0.0560  1.1686 -0.3532
 5825TIP3    H239035   1.512   2.736  32.218 -0.4389  1.6170 -0.6567
 5826TIP3   OH239036   2.403   1.011   3.099  0.0741  0.2446  0.0547
 5826TIP3    H139037   2.351   1.010   3.019 -0.9014 -0.3445  0.6803
 5826TIP3    H239038   2.490   1.037   3.071 -0.3833  0.5424 -1.1216
 5827TIP3   OH239039   3.141   1.854  20.896  0.3643  0.3942 -0.3469
 5827TIP3    H139040   3.080   1.893  20.833  0.0753  0.7526  0.1500
 5827TIP3    H239041   3.089   1.841  20.975  0.0885 -2.1741 -0.8480
 5828TIP3   OH239042   0.241   3.280  11.728 -0.1443  0.0521  0.0273
 5828TIP3    H139043   0.238   3.352  11.791 -2.2074 -0.9320  1.1203
 5828TIP3    H239044   0.239   3.201  11.782 -2.4877 -0.8186 -1.2311
 5829TIP3   OH239045   3.084   2.638  28.397  0.7286 -0.4700  0.0280
 5829TIP3    H139046   3.043   2.573  28.339 -0.2049 -0.1749  0.3287
 5829TIP3    H239047   3.099   2.591  28.479 -0.9417 -0.0611  0.6102
 5830TIP3   OH239048   0.015   2.396  23.842  0.3573  0.1981  0.0185
 5830TIP3    H139049  -0.061   2.342  23.822 -1.1025  0.9685  2.9546
 5830TIP3    H239050   0.083   2.333  23.869 -0.7983 -0.3456  1.8421
 5831TIP3   OH239051   1.423   2.989  27.664 -0.3290  0.3679 -0.8715
 5831TIP3    H139052   1.466   3.057  27.613 -1.0105 -0.6523 -2.8944
 5831TIP3    H239053   1.340   2.973  27.620 -0.9543 -0.6024  0.5485
 5832TIP3   OH239054   0.786   0.644  26.045  0.6676 -0.2821 -0.0496
 5832TIP3    H139055   0.816   0.635  25.954  0.5571  0.6211 -0.1793
 5832TIP3    H239056   0.817   0.730  26.072 -0.7904  0.2046  0.1901
 5833TIP3   OH239057   0.878   0.459  28.485 -0.3350 -0.0012  0.4525
 5833TIP3    H139058   0.873   0.552  28.467  2.4957 -0.0583 -1.2326
 5833TIP3    H239059   0.837   0.418  28.409 -2.4477 -0.2321  1.6218
 5834TIP3   OH239060   1.298   1.301  27.082 -0.6082 -0.1009 -1.2009
 5834TIP3    H139061   1.256   1.385  27.064 -0.7071 -0.3954 -2.4271
 5834TIP3    H239062   1.313   1.263  26.996 -1.5311 -1.8198 -0.6501
 5835TIP3   OH239063   1.974   1.457  21.548 -0.2310 -0.5455  0.4717
 5835TIP3    H139064   1.902   1.482  21.607  0.1961 -0.1056  0.8226
 5835TIP3    H239065   1.953   1.500  21.465 -0.5517 -0.7063  0.4697
 5836TIP3   OH239066   1.133   0.654  13.049 -0.3576  0.0083 -0.0559
 5836TIP3    H139067   1.081   0.687  13.122 -0.1766 -0.0286  0.0902
 5836TIP3    H239068   1.068   0.627  12.984 -0.5410 -0.6229  0.3824
 5837TIP3   OH239069   2.805   1.452   6.610 -0.3764  0.0402  0.0756
 5837TIP3    H139070   2.840   1.377   6.659  1.3078  1.1342  0.6325
 5837TIP3    H239071   2.852   1.451   6.526  1.0144  1.4305  0.7696
 5838TIP3   OH239072   2.418   2.765  13.718  0.0782 -0.6342 -0.1276
 5838TIP3    H139073   2.367   2.686  13.735  0.5248 -1.2258 -1.4065
 5838TIP3    H239074   2.500   2.751  13.766  0.3254 -1.1574 -0.6818
 5839TIP3   OH239075   1.879   0.773   3.881 -0.4374  0.3404 -0.0424
 5839TIP3    H139076   1.845   0.685   3.895 -0.4949  0.3644 -0.0294
 5839TIP3    H239077   1.801   0.826   3.863 -0.3092  0.1865 -1.0874
 5840TIP3   OH239078   2.223   3.034  11.520 -0.1520  0.6711 -0.2073
 5840TIP3    H139079   2.131   3.059  11.527  0.1882  2.1274 -0.6392
 5840TIP3    H239080   2.270   3.100  11.570  0.8041  1.0675 -1.5760
 5841TIP3   OH239081   0.671   1.623  29.528 -0.5103 -0.1483 -0.1033
 5841TIP3    H139082   0.711   1.541  29.499  0.0980  0.1169 -0.0401
 5841TIP3    H239083   0.658   1.673  29.447 -1.8017 -0.6862 -0.2586
 5842TIP3   OH239084   0.334   2.666   4.154 -0.3284  0.0883 -0.3144
 5842TIP3    H139085   0.274   2.592   4.150 -0.3575 -0.1110  2.2040
 5842TIP3    H239086   0.315   2.717   4.075 -1.9396 -1.3417 -0.9111
 5843TIP3   OH239087   1.379   2.318   5.301  0.4609  0.3421  0.2503
 5843TIP3    H139088   1.294   2.360   5.284  0.8903  1.7632  1.3668
 5843TIP3    H239089   1.426   2.324   5.219 -0.5673 -0.6370 -0.4454
 5844TIP3   OH239090   3.454   1.882   5.138 -0.2373  0.0701 -0.3278
 5844TIP3    H139091   3.372   1.882   5.187 -0.1647 -1.0716 -0.1827
 5844TIP3    H239092   3.432   1.927   5.056 -0.2916  2.2198  0.8049
 5845TIP3   OH239093   2.808   1.105  29.744  0.2872 -0.7005 -0.0693
 5845TIP3    H139094   2.744   1.089  29.675  0.8414  0.4777 -0.8955
 5845TIP3    H239095   2.861   1.025  29.746  0.0522 -0.8802 -0.7840
 5846TIP3   OH239096   2.292   1.440  30.508 -0.0167  0.3124 -0.4058
 5846TIP3    H139097   2.198   1.453  30.495 -0.3812  0.2319  1.8246
 5846TIP3    H239098   2.321   1.399  30.426 -1.4307  2.4685 -2.1247
 5847TIP3   OH239099   1.905   0.496  30.835  0.3305  0.1412  0.0482
 5847TIP3    H139100   1.878   0.491  30.926  2.0079 -0.8498  0.5440
 5847TIP3    H239101   1.824   0.485  30.784 -0.5858  0.4703  1.4056
 5848TIP3   OH239102   1.169   2.154   4.190 -0.4229  0.4698 -0.0015
 5848TIP3    H139103   1.185   2.193   4.104  0.0161  0.5367  0.1070
 5848TIP3    H239104   1.074   2.147   4.195 -0.4065 -1.4090 -1.3297
 5849TIP3   OH239105   2.707   3.263  27.361 -0.2881  0.1648 -0.5514
 5849TIP3    H139106   2.702   3.233  27.451 -0.6337  1.5069 -0.0971
 5849TIP3    H239107   2.619   3.249  27.326 -0.5179  0.8377 -0.2628
 5850TIP3   OH239108   1.337   1.377  30.440 -0.5211 -0.4526  0.4124
 5850TIP3    H139109   1.336   1.364  30.535 -1.2246  0.9998  0.6187
 5850TIP3    H239110   1.296   1.298  30.405  0.3528 -1.3196  1.2472
 5851TIP3   OH239111   1.120   0.906   4.220  0.2742 -0.2587  0.1466
 5851TIP3    H139112   1.155   0.866   4.140  1.1949  0.4404  0.1811
 5851TIP3    H239113   1.162   0.857   4.291  0.1321 -0.3117  0.1929
 5852TIP3   OH239114   1.637   3.250  12.513  0.6072 -0.4470  0.3472
 5852TIP3    H139115   1.697   3.323  12.527 -0.1254  0.5678 -1.3771
 5852TIP3    H239116   1.557   3.275  12.560  1.0719 -1.1866  1.5623
 5853TIP3   OH239117   3.407   0.735  31.199  0.6444  0.3046 -0.6252
 5853TIP3    H139118   3.433   0.824  31.176  0.3744  0.3951 -0.5924
 5853TIP3    H239119   3.452   0.716  31.281  1.3947  0.0847 -1.0843
 5854TIP3   OH239120   0.790   1.453  26.042  1.1323  0.2008  0.4695
 5854TIP3    H139121   0.733   1.413  25.977  1.4842 -1.4852  1.1533
 5854TIP3    H239122   0.851   1.506  25.990  0.0758  0.6127 -0.3873
 5855TIP3   OH239123   3.129   0.584   6.826 -0.2179 -0.1290 -0.3420
 5855TIP3    H139124   3.062   0.592   6.757 -1.0780 -0.4369  0.4387
 5855TIP3    H239125   3.085   0.537   6.897  0.8867 -0.5021  0.1269
 5856TIP3   OH239126   0.996   2.499   0.746 -0.1984 -0.2755  0.1278
 5856TIP3    H139127   0.941   2.462   0.677  0.0858 -1.8592  0.7221
 5856TIP3    H239128   1.048   2.566   0.701 -0.5633 -0.7493 -1.0314
 5857TIP3   OH239129   1.368   1.254   5.038  0.9327  0.3185  0.0858
 5857TIP3    H139130   1.345   1.333   4.989  0.9939  1.4712  1.8484
 5857TIP3    H239131   1.333   1.269   5.126  2.2741 -0.9515  0.8848
 5858TIP3   OH239132   2.917   2.594   4.347 -0.4673  0.1686 -0.0855
 5858TIP3    H139133   2.987   2.589   4.282 -1.1366  0.2159 -0.8392
 5858TIP3    H239134   2.860   2.664   4.314 -0.3410  0.8279  1.0485
 5859TIP3   OH239135   0.369   0.300   0.232 -0.5209  0.1427 -0.7918
 5859TIP3    H139136   0.460   0.323   0.249 -0.1900 -0.9473 -1.0267
 5859TIP3    H239137   0.344   0.354   0.157 -0.3137  1.0060 -0.2515
 5860TIP3   OH239138   3.441   2.175   2.271 -0.4806  0.0657  0.0997
 5860TIP3    H139139   3.407   2.128   2.346  1.4981 -0.5711  0.6583
 5860TIP3    H239140   3.380   2.248   2.258 -1.9614 -0.9645  1.0359
 5861TIP3   OH239141   1.078   1.747   4.059  0.7985 -0.1228  0.0462
 5861TIP3    H139142   1.092   1.743   4.153  2.4757 -2.0347 -0.2151
 5861TIP3    H239143   1.166   1.759   4.022  0.0271  2.2646 -1.2606
 5862TIP3   OH239144   0.401   0.711   1.261 -0.2073  0.2778  0.2203
 5862TIP3    H139145   0.458   0.634   1.264 -2.9128 -2.0569 -2.2027
 5862TIP3    H239146   0.393   0.732   1.168 -1.9111  1.5700  0.5981
 5863TIP3   OH239147   0.839   3.376   5.354 -0.4264  0.0872  0.1803
 5863TIP3    H139148   0.931   3.357   5.373 -0.1486  2.0253  1.0191
 5863TIP3    H239149   0.830   3.362   5.260  0.4325 -1.1624  0.2607
 5864TIP3   OH239150   3.404   0.951   7.076  0.3151 -0.1752 -0.0825
 5864TIP3    H139151   3.460   1.010   7.126  0.4377  0.9052 -1.4413
 5864TIP3    H239152   3.315   0.969   7.107  0.5435 -0.9047  1.0821
 5865TIP3   OH239153   1.705   2.071  21.293 -0.2128  0.7251 -0.1599
 5865TIP3    H139154   1.742   2.035  21.213  1.2783 -0.0481  0.8294
 5865TIP3    H239155   1.611   2.077  21.276  0.1354  1.1557 -2.1585
 5866TIP3   OH239156   0.288   2.611  29.183  0.3091  0.1741 -0.2478
 5866TIP3    H139157   0.243   2.594  29.100 -0.1439  0.9586 -0.1727
 5866TIP3    H239158   0.370   2.654  29.157  1.1058 -1.3590 -0.3940
 5867TIP3   OH239159   1.279   2.158  22.294  0.1479 -0.0709  0.1236
 5867TIP3    H139160   1.226   2.236  22.302  0.0989 -0.2167  1.5164
 5867TIP3    H239161   1.334   2.173  22.218  0.4670  1.5255  0.6412
 5868TIP3   OH239162   1.156   1.918  21.195  0.2708 -0.7991  0.0400
 5868TIP3    H139163   1.172   2.004  21.155  0.7546 -0.1208  1.5869
 5868TIP3    H239164   1.062   1.917  21.213  0.5539  0.3385  1.8966
 5869TIP3   OH239165   1.486   1.169   2.141 -0.3656  0.7966  0.0517
 5869TIP3    H139166   1.417   1.200   2.200  0.0693 -0.5869  1.3799
 5869TIP3    H239167   1.469   1.075   2.133  1.3549  0.4289  0.4084
 5870TIP3   OH239168   3.243   2.576   1.481 -0.1580  0.4072 -0.1925
 5870TIP3    H139169   3.198   2.624   1.411  1.9527  0.5912 -1.5160
 5870TIP3    H239170   3.335   2.580   1.456  0.4501 -1.1949  1.6316
 5871TIP3   OH239171   1.703   1.986  32.146 -0.2181  0.1450 -0.2186
 5871TIP3    H139172   1.635   1.919  32.157  0.2070 -0.3717 -0.7016
 5871TIP3    H239173   1.684   2.024  32.060 -0.3255  0.4927 -0.0427
 5872TIP3   OH239174   1.096   2.097  23.140  0.3260 -0.5144 -0.4657
 5872TIP3    H139175   1.170   2.080  23.081 -0.2148  0.1476 -1.3722
 5872TIP3    H239176   1.122   2.059  23.224  1.9840  0.2799 -0.5781
 5873TIP3   OH239177   0.551   2.039   0.312  0.3260 -0.2287  0.2221
 5873TIP3    H139178   0.524   2.106   0.249  2.9169  1.7671  1.0568
 5873TIP3    H239179   0.521   1.957   0.274 -0.7926  1.1591 -2.1198
 5874TIP3   OH239180   3.274   2.368   2.309  0.4374  0.1628 -0.6158
 5874TIP3    H139181   3.191   2.402   2.275 -0.7416 -1.4573  0.5311
 5874TIP3    H239182   3.313   2.443   2.355  0.1261  1.2225 -2.0052
 5875TIP3   OH239183   2.928   1.865   1.819 -0.9160  0.2131 -0.7382
 5875TIP3    H139184   2.903   1.954   1.844 -0.2592  0.0655  0.5744
 5875TIP3    H239185   2.970   1.875   1.734 -0.1267  1.3032 -0.2588
 5876TIP3   OH239186   1.912   2.242   3.757 -0.4124 -0.4978  0.7529
 5876TIP3    H139187   1.949   2.154   3.764 -0.0962 -0.2921  1.8539
 5876TIP3    H239188   1.883   2.248   3.666  2.4198 -0.6147 -0.2618
 5877TIP3   OH239189   0.639   3.515  27.576  0.2332 -0.1065  0.6500
 5877TIP3    H139190   0.572   3.578  27.550  0.5020  0.1167  0.4968
 5877TIP3    H239191   0.597   3.463  27.645 -0.7095 -1.1291 -0.6383
 5878TIP3   OH239192   2.401   3.113   4.984  0.6022  0.2213 -0.0114
 5878TIP3    H139193   2.418   3.155   5.069 -0.3215  3.8119 -1.4284
 5878TIP3    H239194   2.310   3.085   4.989  0.5552  0.4091  0.2253
 5879TIP3   OH239195   2.643   0.921   3.323 -0.1905 -0.2183 -0.4570
 5879TIP3    H139196   2.608   0.891   3.407 -0.3395  0.9880 -0.0630
 5879TIP3    H239197   2.651   1.016   3.333 -0.7401  0.0210 -2.0068
 5880TIP3   OH239198   1.780   1.788  20.236 -0.7636 -0.1867 -0.0421
 5880TIP3    H139199   1.756   1.696  20.222 -0.5000 -0.2931  0.1803
 5880TIP3    H239200   1.720   1.819  20.303  0.5052 -0.8267  1.4716
 5881TIP3   OH239201   0.013   1.265   7.248 -0.7742 -0.1369 -0.0239
 5881TIP3    H139202  -0.063   1.248   7.192  0.6038 -1.9978 -1.4565
 5881TIP3    H239203   0.007   1.198   7.316 -0.5233 -0.1360 -0.0020
 5882TIP3   OH239204   2.986   0.181  27.594 -0.0475  0.1611 -0.0362
 5882TIP3    H139205   3.003   0.240  27.667 -0.7118 -0.2147  0.4365
 5882TIP3    H239206   3.046   0.209  27.525  2.5059 -1.1080  1.5233
 5883TIP3   OH239207   0.797   0.931   2.134 -0.0928  0.0241  0.5759
 5883TIP3    H139208   0.789   0.953   2.041 -1.9259  1.1641  0.9639
 5883TIP3    H239209   0.827   0.840   2.135  0.9972  0.3250 -1.1069
 5884TIP3   OH239210   0.465   0.181  27.486 -0.6427  0.1718  0.5418
 5884TIP3    H139211   0.457   0.184  27.391  0.8827  2.4622  0.4092
 5884TIP3    H239212   0.547   0.226  27.505 -0.7130 -0.5519  2.9422
 5885TIP3   OH239213   2.834   2.787   2.894  0.1191 -0.0939 -0.4440
 5885TIP3    H139214   2.807   2.858   2.953  0.7122  0.3857 -0.7375
 5885TIP3    H239215   2.807   2.816   2.807  0.8747  0.0492 -0.6432
 5886TIP3   OH239216   0.104   1.733  29.925  0.3827  0.0522 -0.1521
 5886TIP3    H139217   0.119   1.671  29.854  0.4296  1.8831 -1.8500
 5886TIP3    H239218   0.009   1.733  29.938  0.3966 -0.4594 -0.0376
 5887TIP3   OH239219   3.115   1.135  27.063  0.1661  0.3147 -0.0590
 5887TIP3    H139220   3.032   1.169  27.097 -0.1825  0.1785 -0.7664
 5887TIP3    H239221   3.142   1.199  26.997 -0.4614 -0.7355 -1.3573
 5888TIP3   OH239222   1.011   2.888   0.233 -0.4149  0.3950 -0.0528
 5888TIP3    H139223   0.921   2.871   0.261  0.2079  0.7354  2.3908
 5888TIP3    H239224   1.031   2.975   0.267  0.8290  0.3455 -0.6023
 5889TIP3   OH239225   3.074   1.250   0.066 -0.2775 -0.0068 -0.0268
 5889TIP3    H139226   3.006   1.276   0.128 -0.2865  1.2366 -0.5175
 5889TIP3    H239227   3.027   1.233  -0.015 -0.2144 -1.1853  0.1648
 5890TIP3   OH239228   0.875   2.260  30.026  0.0260 -0.0483 -0.4029
 5890TIP3    H139229   0.883   2.299  30.113 -3.0789  0.4117 -0.2185
 5890TIP3    H239230   0.892   2.332  29.965  0.9104 -0.0620 -0.1875
 5891TIP3   OH239231   2.146   0.864  32.169  0.2393  0.1437  0.6065
 5891TIP3    H139232   2.124   0.844  32.078 -0.5871  1.2399  0.5510
 5891TIP3    H239233   2.159   0.778  32.210 -2.5329 -0.5620  0.2074
 5892TIP3   OH239234   1.465   3.437   5.906 -0.4908  0.5281 -0.4700
 5892TIP3    H139235   1.525   3.416   5.834 -1.7837  0.3617 -1.5525
 5892TIP3    H239236   1.380   3.447   5.863 -1.7168 -1.5039  1.2650
 5893TIP3   OH239237   0.023   1.313   3.422 -0.5864 -0.5751  0.0139
 5893TIP3    H139238  -0.008   1.232   3.381  0.4627 -1.0329  0.1048
 5893TIP3    H239239  -0.042   1.378   3.397 -1.9858 -1.6298  0.7386
 5894TIP3   OH239240   2.162   3.429  10.715 -0.3923 -0.0282  0.2538
 5894TIP3    H139241   2.109   3.487  10.770 -1.1314 -0.2909 -0.1758
 5894TIP3    H239242   2.179   3.353  10.770  2.0376  1.2586  1.4635
 5895TIP3   OH239243   3.293   3.303  28.860  0.3244  0.0712 -0.0588
 5895TIP3    H139244   3.339   3.300  28.944  0.5706 -0.3393 -0.2058
 5895TIP3    H239245   3.329   3.380  28.816  0.6498 -0.0705 -0.0457
 5896TIP3   OH239246   3.353   1.411   4.176 -0.0283 -0.5490  0.5944
 5896TIP3    H139247   3.365   1.491   4.228 -1.3924 -1.5930  2.6960
 5896TIP3    H239248   3.440   1.390   4.143  0.8548  0.4197  2.1696
 5897TIP3   OH239249   1.562   0.870   2.727  0.9898  0.6798 -0.3507
 5897TIP3    H139250   1.646   0.844   2.691  0.1718 -3.4479  0.2641
 5897TIP3    H239251   1.574   0.867   2.822 -0.0250 -0.9302 -0.2380
 5898TIP3   OH239252   1.798   0.949  29.174  0.7018 -0.0308 -0.1074
 5898TIP3    H139253   1.748   0.916  29.099  1.0317 -1.6425  0.3452
 5898TIP3    H239254   1.873   0.994  29.135 -1.1804  2.7556 -0.8109
 5899TIP3   OH239255   3.096   1.620   0.760 -0.0708 -0.5837 -0.6628
 5899TIP3    H139256   3.011   1.656   0.736 -0.4555 -2.3751 -2.2691
 5899TIP3    H239257   3.157   1.693   0.750 -1.1971  0.3368 -1.0007
 5900TIP3   OH239258   3.030   1.167   0.865 -0.4136  0.0600  0.1388
 5900TIP3    H139259   2.979   1.247   0.878 -1.1558 -0.1088 -1.5407
 5900TIP3    H239260   3.075   1.179   0.782 -1.8348 -1.9069 -0.9924
 5901TIP3   OH239261   2.200   3.541   3.175 -0.5138 -0.0001  0.6196
 5901TIP3    H139262   2.144   3.468   3.204 -1.1844  0.9029  1.6702
 5901TIP3    H239263   2.283   3.526   3.220  0.3541 -1.6646 -1.3886
 5902TIP3   OH239264   0.699   1.247  31.837 -0.9199 -0.0981  0.2458
 5902TIP3    H139265   0.703   1.264  31.743 -2.5773 -0.4634  0.0755
 5902TIP3    H239266   0.764   1.178  31.852 -0.5017  0.0987 -0.5899
 5903TIP3   OH239267   3.530   3.348  28.450 -0.1486  0.0406  0.2388
 5903TIP3    H139268   3.566   3.436  28.461 -1.5294  0.7158 -0.3912
 5903TIP3    H239269   3.493   3.348  28.361  0.0802 -1.2738  0.1176
 5904TIP3   OH239270   0.659   3.403  12.867 -0.5555 -0.0857  0.2344
 5904TIP3    H139271   0.646   3.367  12.955 -1.9395  1.1682  0.5842
 5904TIP3    H239272   0.677   3.327  12.812 -0.0177 -0.9333  1.5322
 5905TIP3   OH239273   1.484   1.392  26.136 -0.5166 -0.5176 -0.0451
 5905TIP3    H139274   1.484   1.441  26.218  0.4097 -0.0217 -0.3267
 5905TIP3    H239275   1.393   1.366  26.123 -1.3418  2.2722 -0.5510
 5906TIP3   OH239276   2.366   1.630   3.502  0.2827  1.0813  0.5542
 5906TIP3    H139277   2.301   1.678   3.451  0.9985  0.4738 -0.9757
 5906TIP3    H239278   2.314   1.577   3.562 -0.6916  0.1117 -1.0802
 5907TIP3   OH239279   2.963   2.636  30.402  0.4292  0.2799  0.1870
 5907TIP3    H139280   2.935   2.688  30.478 -0.8046  0.1232 -0.1491
 5907TIP3    H239281   3.006   2.699  30.344 -1.0539  0.9539 -0.2192
 5908TIP3   OH239282   2.001   0.232   3.842  0.1448  0.0376  0.7384
 5908TIP3    H139283   1.935   0.165   3.855  1.1638 -0.7533  2.1041
 5908TIP3    H239284   1.967   0.309   3.887  0.3076 -0.4946  1.8150
 5909TIP3   OH239285   2.089   2.233   5.963  0.6418  0.1786  0.9288
 5909TIP3    H139286   2.026   2.281   6.016 -1.6336 -1.0736 -0.4975
 5909TIP3    H239287   2.088   2.276   5.878 -0.9201 -1.8191 -0.1597
 5910TIP3   OH239288   0.809   0.934   1.858 -0.4958 -0.7118 -0.2347
 5910TIP3    H139289   0.797   0.884   1.778  0.9043  0.6132 -1.3375
 5910TIP3    H239290   0.896   0.972   1.851 -0.7270  0.2858  1.4455
 5911TIP3   OH239291   1.668   0.833  29.594  0.1547  0.1529  0.4974
 5911TIP3    H139292   1.755   0.792  29.596  0.0548 -0.0932 -0.0215
 5911TIP3    H239293   1.646   0.846  29.686  0.2961 -0.7356  0.6676
 5912TIP3   OH239294   1.645   0.699  26.180 -0.1743  0.3871 -0.4917
 5912TIP3    H139295   1.570   0.653  26.143  0.0651  0.1250 -0.6592
 5912TIP3    H239296   1.719   0.673  26.125  0.3543 -0.7382  0.6914
 5913TIP3   OH239297   1.709   0.843  27.986  0.1031  0.1177  0.0706
 5913TIP3    H139298   1.645   0.865  27.919  0.2212  0.5259  0.0874
 5913TIP3    H239299   1.704   0.748  27.995 -0.5258  0.1487  0.0978
 5914TIP3   OH239300   0.118   0.571  26.094 -0.3379 -0.1238 -0.2727
 5914TIP3    H139301   0.026   0.564  26.067 -0.5281  0.1584  0.2813
 5914TIP3    H239302   0.125   0.658  26.132  0.8916  1.0357 -2.9459
 5915TIP3   OH239303   3.306   1.294   2.630  0.1575 -0.1417 -0.2768
 5915TIP3    H139304   3.245   1.367   2.619 -0.7965 -1.0551 -1.2193
 5915TIP3    H239305   3.328   1.267   2.541  0.3159 -1.1503  0.0517
 5916TIP3   OH239306   0.258   2.725   5.954  0.3895 -0.4300 -0.1248
 5916TIP3    H139307   0.314   2.765   5.888 -1.0190  0.5533 -0.7604
 5916TIP3    H239308   0.315   2.715   6.031  1.3261  0.8966 -0.6193
 5917TIP3   OH239309   2.357   1.413   5.566 -0.0459  0.3943 -0.5802
 5917TIP3    H139310   2.407   1.484   5.607  0.2402 -0.2114  0.1440
 5917TIP3    H239311   2.417   1.339   5.564 -1.4689 -1.0395  2.3212
 5918TIP3   OH239312   0.465   0.446   1.593 -0.4034  0.0934 -0.2024
 5918TIP3    H139313   0.479   0.531   1.635  2.0211  0.2190 -1.1411
 5918TIP3    H239314   0.370   0.442   1.579 -0.5877  2.6154 -0.1021
 5919TIP3   OH239315   0.795   0.715  27.573 -0.2738  0.2912  0.4882
 5919TIP3    H139316   0.776   0.650  27.641  0.8150 -0.5604  0.0185
 5919TIP3    H239317   0.716   0.717  27.520 -0.9568  0.6075  1.4849
 5920TIP3   OH239318   1.727   2.622   5.321  0.2346  0.1644 -0.0312
 5920TIP3    H139319   1.696   2.565   5.250  1.2265  2.2320 -2.2946
 5920TIP3    H239320   1.660   2.691   5.327  1.3362  1.3376 -0.7278
 5921TIP3   OH239321   3.234   2.740  28.781  0.2264 -0.1493 -0.8191
 5921TIP3    H139322   3.283   2.664  28.813  0.0847 -1.1614 -2.8539
 5921TIP3    H239323   3.290   2.815  28.803 -1.3914 -0.1079  4.9743
 5922TIP3   OH239324   3.127   2.179  20.878 -0.2546  0.5504 -0.3553
 5922TIP3    H139325   3.084   2.236  20.942 -0.2664 -0.2743  0.3988
 5922TIP3    H239326   3.060   2.115  20.854  0.0970  0.1577 -0.3075
 5923TIP3   OH239327   3.230   1.805  21.699 -0.0034  0.3995  0.7257
 5923TIP3    H139328   3.190   1.804  21.786 -0.9408 -0.6782  0.3011
 5923TIP3    H239329   3.157   1.822  21.639  0.5345  0.5269  0.0893
 5924TIP3   OH239330   1.917   3.082  31.765 -0.1030  0.4508  0.4411
 5924TIP3    H139331   1.929   3.167  31.806  1.8003  0.4179  0.0272
 5924TIP3    H239332   1.952   3.019  31.829 -1.3697 -0.0279  0.6894
 5925TIP3   OH239333   1.307   2.866   4.534  0.0364  0.6809  0.2791
 5925TIP3    H139334   1.261   2.847   4.453  2.2584 -1.2548 -0.6213
 5925TIP3    H239335   1.387   2.911   4.507  1.3364 -0.9275  1.2090
 5926TIP3   OH239336   2.082   3.432  32.149  0.2186  0.0756  0.0256
 5926TIP3    H139337   1.994   3.394  32.150  1.1849 -2.5741 -1.6305
 5926TIP3    H239338   2.079   3.498  32.079 -0.1920 -0.9034 -0.9155
 5927TIP3   OH239339   2.906   2.401  28.286  0.4086 -0.0900  0.4327
 5927TIP3    H139340   2.832   2.378  28.343 -0.2495 -0.3859 -0.5116
 5927TIP3    H239341   2.870   2.468  28.228  0.7124 -0.6555 -0.4118
 5928TIP3   OH239342   1.203   1.705  28.928 -0.3015  0.6407  0.0496
 5928TIP3    H139343   1.222   1.698  28.835  1.4582 -1.3179  0.4691
 5928TIP3    H239344   1.281   1.743  28.966 -1.8934  3.7183  0.5400
 5929TIP3   OH239345   0.897   0.177  12.621  0.9428  0.5053 -0.1386
 5929TIP3    H139346   0.986   0.162  12.655  1.1917  2.8958  0.4281
 5929TIP3    H239347   0.908   0.177  12.526  1.2513 -0.6617 -0.1267
 5930TIP3   OH239348   1.302   3.537  28.532  0.4880  0.7843  0.1982
 5930TIP3    H139349   1.378   3.567  28.583  1.1617 -0.1172 -0.2544
 5930TIP3    H239350   1.250   3.486  28.595  0.5318  0.9402  0.3642
 5931TIP3   OH239351   2.682   0.983  27.488  0.0122  0.3999  0.0370
 5931TIP3    H139352   2.724   0.899  27.510 -1.5997 -0.9116 -1.5087
 5931TIP3    H239353   2.753   1.047  27.492  0.9606 -0.6672  3.0215
 5932TIP3   OH239354   3.137   0.919   5.474 -1.0616 -0.0886 -0.2210
 5932TIP3    H139355   3.162   0.895   5.385 -0.3360  0.2237 -0.1099
 5932TIP3    H239356   3.087   0.844   5.506  0.5050 -1.1474 -0.1520
 5933TIP3   OH239357   3.399   1.574  18.061 -0.4828  0.1094 -0.3653
 5933TIP3    H139358   3.317   1.528  18.079  0.4555 -1.1381  0.9778
 5933TIP3    H239359   3.398   1.649  18.120  0.0030 -0.7764  0.8156
 5934TIP3   OH239360   1.770   2.520  31.660  0.6133 -0.4180  0.2696
 5934TIP3    H139361   1.740   2.489  31.575  0.8437 -1.1935  0.4608
 5934TIP3    H239362   1.697   2.571  31.695  0.2292 -0.7318 -0.0708
 5935TIP3   OH239363   2.535   1.969   5.450  0.3726 -0.0893  0.3082
 5935TIP3    H139364   2.566   1.988   5.361 -3.8248 -1.9558 -1.8838
 5935TIP3    H239365   2.481   2.045   5.473  1.4948  0.4164  1.3866
 5936TIP3   OH239366   1.278   1.957  30.971  0.0034  0.7091  0.2816
 5936TIP3    H139367   1.279   2.028  31.035  0.8063 -1.0670  2.3335
 5936TIP3    H239368   1.370   1.933  30.961 -0.4024 -1.6936  1.6212
 5937TIP3   OH239369   3.071   2.682  31.703  0.3892  0.5524  0.1507
 5937TIP3    H139370   3.106   2.684  31.792 -0.0232 -0.0453  0.3383
 5937TIP3    H239371   3.143   2.710  31.647  0.2261  2.3200  0.7830
 5938TIP3   OH239372   0.396   3.295   2.542 -0.3897 -0.1362 -0.3573
 5938TIP3    H139373   0.316   3.250   2.571 -0.1777 -0.4031 -0.1893
 5938TIP3    H239374   0.467   3.240   2.573 -0.0787  0.9985  1.0645
 5939TIP3   OH239375   3.396   3.517  28.734 -0.6230  0.0759 -0.2799
 5939TIP3    H139376   3.425   3.567  28.810  0.1459 -0.3696 -0.2720
 5939TIP3    H239377   3.438   3.561  28.660  1.2768 -1.3927 -0.1514
 5940TIP3   OH239378   2.051   0.100   4.197  0.6000  1.0153 -0.1246
 5940TIP3    H139379   2.035   0.033   4.263 -0.3213  1.2222 -0.1262
 5940TIP3    H239380   1.992   0.172   4.221  0.0163  0.9676 -1.3395
 5941TIP3   OH239381   0.951   0.460   0.599 -0.2812 -0.5651  0.0994
 5941TIP3    H139382   0.900   0.539   0.582 -0.0951 -0.7203 -1.3088
 5941TIP3    H239383   0.905   0.390   0.552  0.8697 -0.8080 -0.7433
 5942TIP3   OH239384   0.376   1.932   7.305 -0.0778 -0.3608  0.6284
 5942TIP3    H139385   0.326   1.854   7.328  1.6131 -1.2252  1.5151
 5942TIP3    H239386   0.344   1.956   7.218 -0.8798 -1.8249  0.4927
 5943TIP3   OH239387   1.379   3.278   0.498  0.1744  0.2967 -0.2934
 5943TIP3    H139388   1.388   3.274   0.593  0.8450  1.0920 -0.3133
 5943TIP3    H239389   1.412   3.193   0.467 -0.6672 -0.2244  0.2132
 5944TIP3   OH239390   2.093   2.473  29.409  0.2462 -0.3361 -0.0191
 5944TIP3    H139391   2.175   2.428  29.430  0.6067  0.6652  0.7907
 5944TIP3    H239392   2.027   2.425  29.460  0.3575 -0.9883 -0.4763
 5945TIP3   OH239393   0.605   1.540  19.203 -0.5237  0.0636  0.7278
 5945TIP3    H139394   0.627   1.633  19.207  1.2450 -0.2993  0.2818
 5945TIP3    H239395   0.605   1.520  19.109 -1.1126 -0.3376  0.8097
 5946TIP3   OH239396   3.472   0.641   1.244 -0.0762  0.2863 -0.1364
 5946TIP3    H139397   3.530   0.665   1.317  0.6734 -2.2973  0.2110
 5946TIP3    H239398   3.434   0.724   1.216  1.3120  1.6565  1.7487
 5947TIP3   OH239399   0.808   1.370   7.478 -0.4325 -1.0014 -0.0748
 5947TIP3    H139400   0.795   1.357   7.384  0.3266 -2.6837 -0.0006
 5947TIP3    H239401   0.774   1.457   7.496 -2.0944 -1.2733 -1.6074
 5948TIP3   OH239402   0.194   0.652  26.417  0.1165  0.9672 -0.1435
 5948TIP3    H139403   0.288   0.644  26.435  0.0906  1.4688  0.2559
 5948TIP3    H239404   0.190   0.688  26.328  0.2547 -1.0862 -1.0377
 5949TIP3   OH239405   3.282   3.041   3.609  0.6416 -0.3286  0.2398
 5949TIP3    H139406   3.228   2.968   3.578  0.9281 -0.5345  0.2268
 5949TIP3    H239407   3.276   3.107   3.539  0.3064 -0.2980  0.2943
 5950TIP3   OH239408   3.055   1.772  19.969 -0.2190  0.1091 -0.2771
 5950TIP3    H139409   2.967   1.784  20.004 -0.1089 -1.0802  0.4430
 5950TIP3    H239410   3.056   1.826  19.890 -0.7305  2.2137  1.0721
 5951TIP3   OH239411   2.115   3.047  13.839 -0.6434 -0.3012  0.1076
 5951TIP3    H139412   2.146   3.127  13.883 -1.8322  1.0602 -1.3916
 5951TIP3    H239413   2.173   3.037  13.763 -0.5153 -0.8656  0.2747
 5952TIP3   OH239414   2.787   1.505   4.791 -1.0214 -0.0754  0.3102
 5952TIP3    H139415   2.693   1.495   4.780 -0.9399 -1.2917  0.6157
 5952TIP3    H239416   2.808   1.452   4.868 -0.0651  0.0695  0.1594
 5953TIP3   OH239417   0.543   0.024  29.715 -0.0125 -0.6101  0.2330
 5953TIP3    H139418   0.526   0.037  29.808 -0.8383  0.3113 -0.0276
 5953TIP3    H239419   0.615  -0.039  29.712  2.7230  2.1414  1.6185
 5954TIP3   OH239420   0.734   2.819   0.245  0.2317  0.2117 -0.1330
 5954TIP3    H139421   0.733   2.837   0.339 -1.1023 -0.2034 -0.0431
 5954TIP3    H239422   0.686   2.737   0.237  2.3940 -1.0616 -0.9571
 5955TIP3   OH239423   0.695   0.825   6.068  1.0109  0.0328 -0.0364
 5955TIP3    H139424   0.779   0.789   6.095  2.1561  2.0819 -0.6135
 5955TIP3    H239425   0.642   0.824   6.148  1.3218 -1.9041  0.1781
 5956TIP3   OH239426   0.415   2.023  28.590  0.0414  0.2633 -0.3528
 5956TIP3    H139427   0.440   2.113  28.609 -1.3240  0.5646  0.1232
 5956TIP3    H239428   0.377   1.990  28.671  2.8235 -1.6383  0.3136
 5957TIP3   OH239429   3.532   0.033  28.981  0.0029 -0.1798 -0.0340
 5957TIP3    H139430   3.562   0.092  29.050  0.0281  1.4610 -1.3852
 5957TIP3    H239431   3.610  -0.019  28.958  0.1254 -0.3749  0.7839
 5958TIP3   OH239432   2.115   1.098  29.994  0.1769 -0.3147 -0.3409
 5958TIP3    H139433   2.037   1.064  29.949  1.3294 -2.4205 -0.8824
 5958TIP3    H239434   2.142   1.026  30.052 -0.1122  1.5804  2.3439
 5959TIP3   OH239435   1.883   0.599   1.762 -0.1072  0.0554  0.4109
 5959TIP3    H139436   1.899   0.513   1.723  1.9577  0.9936 -1.0051
 5959TIP3    H239437   1.926   0.661   1.703 -3.4023  2.3615  0.1358
 5960TIP3   OH239438   1.195   2.393  11.175 -0.3865 -0.0384  0.3276
 5960TIP3    H139439   1.191   2.418  11.083  1.7975 -0.8056 -0.0402
 5960TIP3    H239440   1.288   2.376  11.191 -1.1298 -3.7390  1.6477
 5961TIP3   OH239441   2.705   2.245  23.035  0.3606  0.2666  0.3515
 5961TIP3    H139442   2.684   2.168  23.088 -0.6122 -0.2972 -0.8130
 5961TIP3    H239443   2.798   2.237  23.017  0.6464  0.3100  1.7106
 5962TIP3   OH239444   1.801   1.734  29.441 -0.3188 -0.4357 -0.0303
 5962TIP3    H139445   1.848   1.747  29.359  0.5283 -0.4089  0.4497
 5962TIP3    H239446   1.728   1.796  29.437  0.2518  0.2238 -0.3547
 5963TIP3   OH239447   0.351   3.548  31.958  0.1753 -0.6235 -0.0986
 5963TIP3    H139448   0.272   3.504  31.988 -0.0199 -0.2666 -0.0787
 5963TIP3    H239449   0.421   3.484  31.970  0.2757 -0.1788  2.0333
 5964TIP3   OH239450   2.893   1.775   6.567  0.6039  0.1001 -0.5556
 5964TIP3    H139451   2.947   1.850   6.592  1.5034 -0.2799 -1.2878
 5964TIP3    H239452   2.920   1.706   6.627 -0.5075  0.4513  0.3799
 5965TIP3   OH239453   0.083   3.231  31.511  0.4044 -0.2906 -0.0866
 5965TIP3    H139454   0.012   3.237  31.447  0.1709 -1.2229  0.0748
 5965TIP3    H239455   0.131   3.152  31.486  0.7369 -0.2643  0.4596
 5966TIP3   OH239456   1.378   0.402  14.035 -0.3088  0.2539 -0.2391
 5966TIP3    H139457   1.345   0.492  14.038 -1.4441  0.0061 -2.9025
 5966TIP3    H239458   1.314   0.355  13.982 -2.2313 -3.3322  4.5547
 5967TIP3   OH239459   0.972   3.125  12.838 -0.2316  0.2307 -0.5148
 5967TIP3    H139460   0.888   3.124  12.791 -0.6591 -0.0889  0.2404
 5967TIP3    H239461   0.978   3.039  12.879  0.5833  0.1680 -0.7528
 5968TIP3   OH239462   2.665   2.401   6.894 -0.3870 -0.6031  0.4584
 5968TIP3    H139463   2.667   2.329   6.958  0.5249 -0.9264  0.0840
 5968TIP3    H239464   2.646   2.479   6.947 -0.3877 -0.9675  1.0122
 5969TIP3   OH239465   0.605   3.162   3.942  0.6266  0.3490 -0.2693
 5969TIP3    H139466   0.685   3.141   3.991 -0.5878 -0.4409  1.4908
 5969TIP3    H239467   0.544   3.092   3.965 -0.7155  1.1491 -1.2626
 5970TIP3   OH239468   2.924   3.373   2.376 -0.1675  0.3285  0.2474
 5970TIP3    H139469   2.978   3.415   2.442  1.0503 -2.0883  0.9157
 5970TIP3    H239470   2.947   3.417   2.294  2.9027 -0.5770  0.5043
 5971TIP3   OH239471   0.090   3.469   2.463 -0.4065 -0.3384 -0.5584
 5971TIP3    H139472   0.030   3.516   2.406 -0.9402 -0.6912 -0.2880
 5971TIP3    H239473   0.173   3.516   2.454 -0.7030  0.1076 -0.9820
 5972TIP3   OH239474   1.618   2.986  31.935  0.6465  0.1515  0.2036
 5972TIP3    H139475   1.640   2.952  31.848  1.1518  0.1061  0.3441
 5972TIP3    H239476   1.546   3.046  31.919  0.4871 -0.1406 -0.2000
 5973TIP3   OH239477   0.956   1.805  24.162 -0.2676  0.3603 -0.4702
 5973TIP3    H139478   0.953   1.716  24.198  1.1415  0.2027 -0.6615
 5973TIP3    H239479   0.956   1.793  24.067  2.0592  0.3817 -0.5384
 5974TIP3   OH239480   2.225   1.101   1.182 -0.4179 -0.3553  0.5392
 5974TIP3    H139481   2.241   1.012   1.151  0.2096 -0.4346  1.0746
 5974TIP3    H239482   2.149   1.094   1.238  0.3677 -0.7921  1.5831
 5975TIP3   OH239483   1.874   1.752  30.794 -0.3269  0.0070 -0.5550
 5975TIP3    H139484   1.855   1.736  30.702 -0.8021 -1.0013 -0.3043
 5975TIP3    H239485   1.844   1.841  30.810  0.2182  0.3633 -1.4880
 5976TIP3   OH239486   0.312   3.410   4.631 -0.1481  0.1216  0.4570
 5976TIP3    H139487   0.238   3.470   4.639 -1.7529 -1.6122 -0.6488
 5976TIP3    H239488   0.297   3.344   4.698  1.5293  0.8200  1.5782
 5977TIP3   OH239489   1.998   0.461  28.312 -0.3141 -0.3203  0.5219
 5977TIP3    H139490   1.977   0.538  28.259  1.5418 -0.5828 -0.6925
 5977TIP3    H239491   1.930   0.397  28.291  0.0662 -0.2204 -1.1473
 5978TIP3   OH239492   2.622   1.710   4.552  0.2997 -0.5199 -0.1963
 5978TIP3    H139493   2.680   1.654   4.500 -0.4200  0.5250 -2.2378
 5978TIP3    H239494   2.666   1.794   4.557 -0.9201  0.2577 -1.6858
 5979TIP3   OH239495   2.053   2.375  32.055 -0.4429  0.0091 -0.7095
 5979TIP3    H139496   2.007   2.414  32.130  0.5637  0.4484 -0.2813
 5979TIP3    H239497   1.995   2.388  31.981 -1.0331  0.4771 -0.1744
 5980TIP3   OH239498   2.033   2.946  14.486  0.1424  0.3522  0.8466
 5980TIP3    H139499   2.086   2.906  14.555  2.4240  3.1271  0.9070
 5980TIP3    H239500   1.998   3.026  14.526  0.8911  1.6264 -0.9064
 5981TIP3   OH239501   3.124   2.000  28.912  0.4533 -0.2040 -0.7087
 5981TIP3    H139502   3.038   2.027  28.879 -0.1927 -1.3044  0.0038
 5981TIP3    H239503   3.183   2.008  28.837  0.2347  2.6769 -0.6812
 5982TIP3   OH239504   2.744   2.767   6.535  0.2552 -0.1904 -0.2520
 5982TIP3    H139505   2.657   2.732   6.551  0.2739  0.3545  1.2042
 5982TIP3    H239506   2.804   2.705   6.577  0.5719 -0.4590 -1.0735
 5983TIP3   OH239507   2.574   0.726   5.819  0.0552 -0.2980  0.3661
 5983TIP3    H139508   2.635   0.741   5.747 -1.0263  3.1425 -0.0437
 5983TIP3    H239509   2.622   0.672   5.881  2.3509 -0.3160 -1.2947
 5984TIP3   OH239510   1.733   2.185   0.566  0.3422  0.3684  0.3237
 5984TIP3    H139511   1.801   2.201   0.631  1.1969  0.1385 -0.4945
 5984TIP3    H239512   1.776   2.136   0.497 -0.9995 -1.0052  0.4084
 5985TIP3   OH239513   3.025   0.771   2.236 -0.1007 -0.2542 -0.0915
 5985TIP3    H139514   2.935   0.803   2.247 -0.7382 -1.7093 -0.7629
 5985TIP3    H239515   3.019   0.707   2.165  1.3736 -0.7304  0.1796
 5986TIP3   OH239516   2.386   0.914  26.349 -0.3883  0.0054 -0.3575
 5986TIP3    H139517   2.458   0.895  26.409 -1.9770 -0.7269  1.4048
 5986TIP3    H239518   2.429   0.928  26.264  2.0944  2.3968  1.1268
 5987TIP3   OH239519   2.863   1.444   2.729 -0.6969 -0.2386 -0.3019
 5987TIP3    H139520   2.846   1.513   2.794  0.0041  1.0709 -1.4734
 5987TIP3    H239521   2.799   1.460   2.660  0.5094  0.2752 -1.3427
 5988TIP3   OH239522   1.415   1.332   6.649 -0.1258 -0.4997 -0.1355
 5988TIP3    H139523   1.351   1.334   6.720  0.7409 -1.0627  0.6824
 5988TIP3    H239524   1.447   1.242   6.648  3.3675  0.5409  1.9786
 5989TIP3   OH239525   0.192   0.682   4.757 -0.0859 -0.0515  0.3349
 5989TIP3    H139526   0.209   0.677   4.663  0.8376  0.6524  0.4590
 5989TIP3    H239527   0.276   0.706   4.796 -0.4287 -0.4588  1.3614
 5990TIP3   OH239528   2.405   0.748  28.941  0.0968 -0.0533  0.3414
 5990TIP3    H139529   2.388   0.717  29.030 -1.7587  0.9293  0.3756
 5990TIP3    H239530   2.477   0.692  28.909  0.7233 -0.4936  2.3871
 5991TIP3   OH239531   0.119   0.618  32.106 -0.0949 -0.4931  0.1465
 5991TIP3    H139532   0.168   0.537  32.119 -1.0509 -0.8673  1.5857
 5991TIP3    H239533   0.039   0.607  32.158 -0.4400  1.2055  0.0361
 5992TIP3   OH239534   2.669   2.920   1.755  1.0637 -0.2287 -0.0738
 5992TIP3    H139535   2.619   3.000   1.745  1.0846 -0.1025  0.7510
 5992TIP3    H239536   2.603   2.850   1.753  0.9272 -0.1107  0.3523
 5993TIP3   OH239537   3.225   3.296   5.508  0.1981 -0.0698  0.3794
 5993TIP3    H139538   3.275   3.309   5.588  0.6478 -0.6310  0.2008
 5993TIP3    H239539   3.266   3.220   5.466  1.1531  1.2630 -1.2739
 5994TIP3   OH239540   3.355   2.752  27.038  0.2552  1.0689 -0.1111
 5994TIP3    H139541   3.428   2.810  27.017  0.4756  0.9337  0.2675
 5994TIP3    H239542   3.379   2.668  26.997 -1.2556  1.8794 -2.9110
 5995TIP3   OH239543   2.884   0.423   7.278  0.3231  0.7050  0.7655
 5995TIP3    H139544   2.903   0.339   7.236  0.9762  0.3710  1.6952
 5995TIP3    H239545   2.799   0.448   7.243  1.3924  1.0958 -1.7624
 5996TIP3   OH239546   2.392   1.810  18.579  0.6809  0.4139  0.1375
 5996TIP3    H139547   2.336   1.780  18.650 -0.4661  0.2798 -0.7864
 5996TIP3    H239548   2.434   1.731  18.546 -1.4193 -0.1218 -1.5104
 5997TIP3   OH239549   3.119   3.539  32.579  0.1073 -0.1597 -0.0372
 5997TIP3    H139550   3.102   3.449  32.553  0.3039 -0.8544  2.0661
 5997TIP3    H239551   3.065   3.552  32.658  0.0338  1.5886 -0.3205
 5998TIP3   OH239552   2.288   1.926  20.387 -0.2160 -0.1689  0.3293
 5998TIP3    H139553   2.275   1.958  20.298 -1.0629  0.2821  0.6013
 5998TIP3    H239554   2.289   1.831  20.379 -0.4517 -0.1324 -0.1388
 5999TIP3   OH239555   1.667   2.871   2.881  0.2761 -0.1789  0.9131
 5999TIP3    H139556   1.573   2.892   2.883  0.4485  0.7484  0.1007
 5999TIP3    H239557   1.710   2.955   2.864  1.3322 -0.4200  2.1782
 6000TIP3   OH239558   0.763   2.889  11.999 -0.2371 -0.0514  0.0355
 6000TIP3    H139559   0.753   2.940  12.079  0.1110  2.0528 -1.1855
 6000TIP3    H239560   0.681   2.903  11.951 -0.9055 -2.2054  0.4716
 6001TIP3   OH239561   1.602   1.606  27.101  0.5798  0.1772  0.3285
 6001TIP3    H139562   1.681   1.659  27.111  0.3595  0.1774  2.3337
 6001TIP3    H239563   1.538   1.645  27.161 -0.5950 -0.5003 -0.4360
 6002TIP3   OH239564   2.240   2.521  30.330 -0.0527 -0.2024  0.2627
 6002TIP3    H139565   2.215   2.609  30.357 -2.6504 -0.2507 -1.5414
 6002TIP3    H239566   2.171   2.464  30.365  0.0828 -1.1105 -0.8551
 6003TIP3   OH239567   0.332   0.935  29.726  0.5062  0.2941  0.1229
 6003TIP3    H139568   0.306   0.905  29.638  2.0135 -1.5733  0.2762
 6003TIP3    H239569   0.421   0.968  29.715  1.0332 -0.7407  1.0841
 6004TIP3   OH239570   1.961   2.581   2.865 -0.3023  0.5622 -0.1885
 6004TIP3    H139571   1.936   2.492   2.840 -2.6231  0.9581  0.4274
 6004TIP3    H239572   2.055   2.585   2.850  0.0006 -2.1969  0.3644
 6005TIP3   OH239573   1.041   1.573   2.176  0.3515  0.2289 -0.4888
 6005TIP3    H139574   0.982   1.546   2.246  1.0826  1.1196  0.4925
 6005TIP3    H239575   1.114   1.512   2.180 -0.9139 -1.5444 -2.3860
 6006TIP3   OH239576   0.499   0.680   2.973  0.0281 -0.6694 -0.3739
 6006TIP3    H139577   0.477   0.624   2.899 -0.2222 -0.4608 -0.4603
 6006TIP3    H239578   0.578   0.726   2.946  1.4129 -2.4258  0.4686
 6007TIP3   OH239579   2.828   1.304  28.458  0.7848  0.1881 -0.1535
 6007TIP3    H139580   2.858   1.346  28.378 -1.7712  0.4621 -1.0614
 6007TIP3    H239581   2.767   1.236  28.429  2.3408 -2.0535  1.4437
 6008TIP3   OH239582   2.429   2.612  21.862 -0.2577 -0.5530  0.0480
 6008TIP3    H139583   2.416   2.662  21.781  0.6831 -1.3414 -0.6171
 6008TIP3    H239584   2.371   2.654  21.926  1.1510  1.9794 -0.2175
 6009TIP3   OH239585   1.006   2.684  28.236 -0.3194 -0.0726  0.3083
 6009TIP3    H139586   0.913   2.668  28.225 -0.5133  0.7151  0.7302
 6009TIP3    H239587   1.041   2.601  28.269 -0.6718 -0.7128 -0.8773
 6010TIP3   OH239588   2.350   3.126  13.282  0.4265 -0.3330  0.2967
 6010TIP3    H139589   2.286   3.060  13.308  1.2515 -1.6865 -0.9422
 6010TIP3    H239590   2.304   3.181  13.219 -0.1765  0.1204  1.1160
 6011TIP3   OH239591   2.131   2.558  29.135  0.0469  0.1409 -0.0580
 6011TIP3    H139592   2.041   2.587  29.119  0.2603  1.0064  0.2778
 6011TIP3    H239593   2.129   2.521  29.223 -0.0561 -0.1526 -0.1838
 6012TIP3   OH239594   0.745   0.600  30.824 -0.8030  0.1959 -0.2124
 6012TIP3    H139595   0.744   0.562  30.912  2.0652 -0.1097 -0.2106
 6012TIP3    H239596   0.704   0.533  30.769  0.0567 -0.9282  0.4695
 6013TIP3   OH239597   2.199   3.084  15.489  0.2259 -0.1914 -0.0507
 6013TIP3    H139598   2.283   3.103  15.531 -0.2364  2.8524 -0.2622
 6013TIP3    H239599   2.133   3.113  15.553 -0.6060 -0.3724 -0.8041
 6014TIP3   OH239600   0.551   2.943  32.129 -0.2768 -0.3768  0.4244
 6014TIP3    H139601   0.595   3.007  32.073  2.5016 -1.0059  1.7263
 6014TIP3    H239602   0.622   2.895  32.170 -2.2616 -2.4060  1.6793
 6015TIP3   OH239603   2.987   1.864  17.485 -0.1929 -0.0723  0.4292
 6015TIP3    H139604   3.063   1.838  17.433 -0.9084  0.4253 -0.9210
 6015TIP3    H239605   3.020   1.930  17.545  0.4072  0.2888 -0.2890
 6016TIP3   OH239606   1.489   0.008  32.624 -0.0281 -0.2234 -0.5617
 6016TIP3    H139607   1.541  -0.071  32.608  2.5129  0.7356  2.1993
 6016TIP3    H239608   1.444  -0.009  32.707 -1.1551  0.4763 -0.9942
 6017TIP3   OH239609   3.111   3.363   6.109  0.1698 -0.1817  0.3633
 6017TIP3    H139610   3.105   3.305   6.185  1.5013  0.9724  1.4053
 6017TIP3    H239611   3.061   3.318   6.041  0.8353 -2.3762  1.2243
 6018TIP3   OH239612   1.407   3.529   3.275  0.0258 -0.1124  0.2236
 6018TIP3    H139613   1.494   3.539   3.314  0.9200  1.1353 -1.8479
 6018TIP3    H239614   1.421   3.471   3.200 -0.9638 -0.0649 -0.0129
 6019TIP3   OH239615   0.324   1.784  28.309 -0.2683 -0.3016  0.2438
 6019TIP3    H139616   0.415   1.809  28.293 -0.8420  1.6115 -0.2604
 6019TIP3    H239617   0.329   1.722  28.382  1.3450  0.7843  1.1292
 6020TIP3   OH239618   3.136   0.381   6.511  0.1955  0.8609  0.0971
 6020TIP3    H139619   3.137   0.445   6.582  1.3681 -0.7057  1.5712
 6020TIP3    H239620   3.218   0.332   6.522  0.2446  0.3537 -2.1543
 6021TIP3   OH239621   3.416   2.885  27.625 -0.5993 -0.0250 -0.2792
 6021TIP3    H139622   3.400   2.882  27.531  0.6251  1.7237 -0.5923
 6021TIP3    H239623   3.414   2.978  27.647 -0.6263 -0.3842  1.3912
 6022TIP3   OH239624   1.931   1.066   1.283 -0.6384  0.0985 -0.4166
 6022TIP3    H139625   1.842   1.088   1.310 -0.9697 -1.8178  0.2711
 6022TIP3    H239626   1.964   1.010   1.354  0.8731  0.2446 -0.9717
 6023TIP3   OH239627   2.302   2.373   6.503 -0.1236  1.2147  0.2189
 6023TIP3    H139628   2.260   2.322   6.573 -0.6302  0.1170 -0.8520
 6023TIP3    H239629   2.238   2.441   6.483 -0.8995  0.2793 -0.5717
 6024TIP3   OH239630   3.492   3.139   5.830  0.3307 -0.5961  0.4157
 6024TIP3    H139631   3.556   3.142   5.901  1.4233  0.2557 -0.5630
 6024TIP3    H239632   3.475   3.231   5.809  0.4754 -0.8244 -0.7928
 6025TIP3   OH239633   2.949   1.500  29.345 -0.1497  0.5211  0.1320
 6025TIP3    H139634   2.886   1.503  29.273  0.0257  0.9834 -0.0075
 6025TIP3    H239635   3.013   1.568  29.323  2.0003 -1.7838 -1.2085
 6026TIP3   OH239636   2.817   1.893  32.238  0.7388  0.2793 -0.3466
 6026TIP3    H139637   2.732   1.855  32.261  0.3919  1.0341 -0.3481
 6026TIP3    H239638   2.819   1.891  32.142  0.2001  1.3394 -0.3961
 6027TIP3   OH239639   2.342   0.511   4.148 -0.3298 -0.3879  0.1603
 6027TIP3    H139640   2.313   0.420   4.144  1.2794 -0.9723  0.6983
 6027TIP3    H239641   2.278   0.555   4.204 -1.1511 -1.1640 -0.1509
 6028TIP3   OH239642   1.037   2.342   4.433  0.0959 -0.8770  0.2385
 6028TIP3    H139643   1.111   2.284   4.452  0.3118 -0.5681  0.3526
 6028TIP3    H239644   1.078   2.426   4.411 -0.1886 -0.9722 -0.6780
 6029TIP3   OH239645   3.530   0.642  18.013 -0.2447 -0.5098 -0.4436
 6029TIP3    H139646   3.491   0.729  18.008 -1.3785 -0.9892 -0.0809
 6029TIP3    H239647   3.474   0.594  18.074  2.2262 -0.5382  2.0119
 6030TIP3   OH239648   1.885   3.443  31.607 -0.1224  0.0631 -0.1995
 6030TIP3    H139649   1.814   3.384  31.579  0.3159 -1.1021  1.0736
 6030TIP3    H239650   1.956   3.385  31.633 -0.0259  1.0963  2.0305
 6031TIP3   OH239651   1.670   1.406   6.671  0.0814  0.4064 -0.3123
 6031TIP3    H139652   1.576   1.416   6.685  0.0471  0.5651 -0.6643
 6031TIP3    H239653   1.695   1.333   6.728 -0.1283  0.8123  0.3094
 6032TIP3   OH239654   2.881   1.144  27.498  0.0036  0.1178  0.0867
 6032TIP3    H139655   2.963   1.184  27.526  0.0382  0.3417 -0.3367
 6032TIP3    H239656   2.896   1.118  27.408 -0.2303 -0.2840  0.1628
 6033TIP3   OH239657   2.057   3.352  27.803 -0.0135 -0.2724  0.1861
 6033TIP3    H139658   2.020   3.271  27.837  0.3857 -1.0620 -1.2068
 6033TIP3    H239659   2.038   3.350  27.709  1.9910  0.1608 -0.2671
 6034TIP3   OH239660   0.164   0.666  29.300  0.7569  0.2186  0.1934
 6034TIP3    H139661   0.105   0.671  29.375  1.3508  0.2084  0.6643
 6034TIP3    H239662   0.235   0.610  29.328  1.0342  0.2892 -0.3458
 6035TIP3   OH239663   0.527   1.658  30.972  0.0884 -0.4889 -0.0212
 6035TIP3    H139664   0.593   1.657  30.904  0.7380  2.0057  0.4762
 6035TIP3    H239665   0.570   1.620  31.048  0.2325 -0.8597 -0.2890
 6036TIP3   OH239666   1.628   2.053  23.478  0.0915  0.3416  0.6827
 6036TIP3    H139667   1.657   1.963  23.489 -1.1083 -0.2875 -0.8504
 6036TIP3    H239668   1.707   2.105  23.483  0.8433 -0.8167  1.3098
 6037TIP3   OH239669   0.692   1.997   5.373 -0.5989 -0.0536 -0.1855
 6037TIP3    H139670   0.676   1.944   5.294 -1.4992 -1.2384  0.7579
 6037TIP3    H239671   0.643   2.079   5.357 -0.0477  0.0903 -1.2159
 6038TIP3   OH239672   2.298   0.360   5.111 -0.3279 -0.2834  0.6498
 6038TIP3    H139673   2.366   0.307   5.153  1.5630 -0.1925 -2.0154
 6038TIP3    H239674   2.330   0.450   5.118 -0.8054 -0.0956  0.4635
 6039TIP3   OH239675   3.341   0.676  31.654  0.1694 -0.7456  0.7517
 6039TIP3    H139676   3.369   0.623  31.729  0.1374 -1.2454  0.4157
 6039TIP3    H239677   3.324   0.612  31.584 -0.6576 -0.3627  0.5873
 6040TIP3   OH239678   0.929   0.477   6.665  0.2613  0.6285  0.0173
 6040TIP3    H139679   0.850   0.531   6.671 -0.5787 -0.4636 -0.8903
 6040TIP3    H239680   0.970   0.485   6.752 -1.3208  0.4847  0.8115
 6041TIP3   OH239681   2.041   0.731   4.133 -0.0029  0.2146 -0.5048
 6041TIP3    H139682   2.012   0.659   4.076 -1.5351  0.1785  0.2620
 6041TIP3    H239683   2.009   0.810   4.090  2.0089  0.5387 -1.5470
 6042TIP3   OH239684   1.208   0.308   4.610 -0.1257 -0.1395 -0.4111
 6042TIP3    H139685   1.254   0.225   4.593  0.4743 -0.4638  2.3676
 6042TIP3    H239686   1.177   0.335   4.524  2.4123 -1.6105 -1.9496
 6043TIP3   OH239687   1.625   0.286  31.681 -0.2613  0.1206  0.4421
 6043TIP3    H139688   1.597   0.264  31.592 -0.3466  1.8061  0.0180
 6043TIP3    H239689   1.555   0.342  31.715  0.9593  1.6018  0.6189
 6044TIP3   OH239690   0.898   0.067   0.741 -0.1813 -0.1211  0.1989
 6044TIP3    H139691   0.984   0.034   0.713 -1.2512 -2.8111 -0.1539
 6044TIP3    H239692   0.910   0.089   0.834  0.7169 -1.1443  0.3473
 6045TIP3   OH239693   2.953   1.717  30.902  0.4694 -0.0331 -0.0182
 6045TIP3    H139694   2.962   1.632  30.944  0.0947  0.0154  0.1707
 6045TIP3    H239695   2.941   1.698  30.809  2.4426 -0.0994 -0.3047
 6046TIP3   OH239696   0.042   3.152  29.471 -0.3989 -0.4498 -0.1639
 6046TIP3    H139697   0.123   3.202  29.472 -0.9543  0.5629 -1.5231
 6046TIP3    H239698   0.066   3.065  29.502  1.0310  0.0506  0.1897
 6047TIP3   OH239699   1.285   0.058   1.969 -0.6742 -0.3525 -0.4017
 6047TIP3    H139700   1.285   0.054   2.064 -1.1837 -0.4376 -0.4069
 6047TIP3    H239701   1.340  -0.016   1.942 -1.9018 -1.3501 -0.2159
 6048TIP3   OH239702   1.035   0.856  28.163  0.0811 -0.3461 -0.0151
 6048TIP3    H139703   0.983   0.813  28.231  0.4466  0.7331  0.9898
 6048TIP3    H239704   1.040   0.792  28.092  1.7066 -2.4946  1.8790
 6049TIP3   OH239705   2.997   1.662  32.757 -0.0840  0.0308 -0.1995
 6049TIP3    H139706   2.906   1.647  32.784 -0.4392  0.8368 -0.8979
 6049TIP3    H239707   2.996   1.750  32.719  0.9131 -0.1073 -0.5637
 6050TIP3   OH239708   2.696   2.502   6.330 -0.3718 -0.1687  0.2720
 6050TIP3    H139709   2.672   2.538   6.415 -0.1058 -0.2177  0.3666
 6050TIP3    H239710   2.787   2.474   6.339  0.8374  2.8779 -0.9608
 6051TIP3   OH239711   0.644   2.376  23.895  0.4483 -0.4327  1.0675
 6051TIP3    H139712   0.726   2.398  23.850 -0.4533  0.9499  0.0383
 6051TIP3    H239713   0.581   2.440  23.863 -0.6966 -0.5398  2.9671
 6052TIP3   OH239714   1.558   3.461  31.004  0.0282  0.2234  0.2438
 6052TIP3    H139715   1.503   3.526  31.047 -0.0619  0.2043  0.1578
 6052TIP3    H239716   1.551   3.383  31.059  1.5901  0.8353  1.3735
 6053TIP3   OH239717   1.028   2.926  23.301 -0.4628 -0.4457  0.3781
 6053TIP3    H139718   0.998   2.865  23.368 -3.1452  0.9271  0.5759
 6053TIP3    H239719   1.071   2.997  23.350 -1.4655  0.0279  0.6076
 6054TIP3   OH239720   1.025   2.299   2.648 -0.3691  0.4025 -0.6626
 6054TIP3    H139721   1.026   2.379   2.701 -0.7431  1.2943 -1.9607
 6054TIP3    H239722   1.037   2.228   2.712 -1.7862  1.3617  0.7582
 6055TIP3   OH239723   0.541   2.295   1.180 -0.0774 -0.6575 -0.3048
 6055TIP3    H139724   0.598   2.271   1.253  0.0548 -0.7130 -0.4254
 6055TIP3    H239725   0.455   2.259   1.204 -0.0710 -0.5463 -0.1083
 6056TIP3   OH239726   2.535   1.613   5.683  0.3290  0.0507 -0.4625
 6056TIP3    H139727   2.517   1.630   5.776  2.3818  2.4461 -0.3946
 6056TIP3    H239728   2.469   1.665   5.636  0.2144  0.0402 -0.3123
 6057TIP3   OH239729   1.860   0.348  32.338 -0.6020 -0.4922 -0.0080
 6057TIP3    H139730   1.826   0.413  32.400  0.1684 -0.1909  0.1219
 6057TIP3    H239731   1.831   0.264  32.374  2.6336 -0.6523  2.7897
 6058TIP3   OH239732   3.125   0.912  26.843  0.4141  0.7589  0.1154
 6058TIP3    H139733   3.176   0.967  26.784 -0.2475  0.6880 -0.5371
 6058TIP3    H239734   3.107   0.968  26.919  1.5991  0.7225  0.4384
 6059TIP3   OH239735   1.686   2.615  32.069  0.2074  0.1012 -0.1683
 6059TIP3    H139736   1.668   2.549  32.001 -1.3703 -0.9380  1.1859
 6059TIP3    H239737   1.607   2.668  32.072 -0.2358 -0.6020  1.6281
 6060TIP3   OH239738   1.471   3.387  28.702 -0.1209  0.3602 -0.0360
 6060TIP3    H139739   1.430   3.305  28.728  1.0432  0.2761  1.7702
 6060TIP3    H239740   1.562   3.378  28.732  0.7765  1.2069 -2.3320
 6061TIP3   OH239741   0.076   0.224   6.268  0.0850 -0.4031 -0.2065
 6061TIP3    H139742   0.078   0.263   6.180 -0.4539 -1.2914 -0.6259
 6061TIP3    H239743   0.055   0.298   6.326  2.2083  0.5691 -0.5756
 6062TIP3   OH239744   1.620   2.119  31.890 -0.2978 -0.3794  0.1778
 6062TIP3    H139745   1.538   2.071  31.899  0.9305 -2.5628  0.4563
 6062TIP3    H239746   1.646   2.105  31.799 -0.0866  0.0278  0.1738
 6063TIP3   OH239747   1.598   2.801  27.737 -0.3169  0.5545  1.0459
 6063TIP3    H139748   1.569   2.795  27.828 -0.2681 -0.2104  1.0233
 6063TIP3    H239749   1.532   2.855  27.694 -2.2608 -1.7885  0.8214
 6064TIP3   OH239750   0.831   2.700  27.612 -0.2339  0.1623  0.0103
 6064TIP3    H139751   0.856   2.613  27.645  0.7555  0.0507 -0.9815
 6064TIP3    H239752   0.890   2.760  27.657  0.5128  0.0969 -0.8537
 6065TIP3   OH239753   1.212   2.599   5.803  0.0210 -0.1630 -0.7308
 6065TIP3    H139754   1.176   2.512   5.782  1.3725 -1.3082  1.3975
 6065TIP3    H239755   1.153   2.634   5.870 -0.0676  0.2175 -1.0056
 6066TIP3   OH239756   1.091   0.206  30.473 -0.2572 -0.1592 -0.0769
 6066TIP3    H139757   1.097   0.289  30.521 -0.5132  0.7488 -1.5681
 6066TIP3    H239758   1.025   0.222  30.406 -0.5779 -1.7004 -0.1583
 6067TIP3   OH239759   3.093   2.076  23.118 -0.5438  0.0797 -0.6724
 6067TIP3    H139760   3.045   2.120  23.187  1.7185  2.2776 -0.3820
 6067TIP3    H239761   3.046   2.098  23.038 -0.4329  1.6245 -0.3335
 6068TIP3   OH239762   0.794   1.489   5.683  0.4373  0.6755 -0.0617
 6068TIP3    H139763   0.780   1.488   5.588 -0.6801 -0.8817  0.0801
 6068TIP3    H239764   0.713   1.525   5.718  0.6291  0.7180  0.3381
 6069TIP3   OH239765   3.525   0.523  31.001 -0.1843  0.5141 -0.0406
 6069TIP3    H139766   3.481   0.593  31.049 -0.7202 -0.4917  0.9802
 6069TIP3    H239767   3.494   0.442  31.042 -2.4408 -0.5937 -3.4294
 6070TIP3   OH239768   2.310   0.181  13.075 -0.1027 -0.5328 -0.3691
 6070TIP3    H139769   2.336   0.103  13.027 -0.6736 -0.1817 -1.2736
 6070TIP3    H239770   2.245   0.223  13.019 -0.6994 -0.0439  0.6594
 6071TIP3   OH239771   3.498   2.585   1.894  0.4244 -0.6588  0.2026
 6071TIP3    H139772   3.590   2.565   1.880  0.4949  0.0232 -0.3791
 6071TIP3    H239773   3.477   2.651   1.828 -0.2863 -0.2525  0.8119
 6072TIP3   OH239774   1.305   1.559   1.682 -0.3769  0.2157 -0.4975
 6072TIP3    H139775   1.389   1.594   1.712  1.3449 -1.7526 -2.6650
 6072TIP3    H239776   1.297   1.590   1.592 -0.8985 -1.2930 -1.0008
 6073TIP3   OH239777   3.158   2.217  30.232  0.1164 -0.1723 -0.2692
 6073TIP3    H139778   3.068   2.184  30.234  0.4126 -1.1024 -1.1676
 6073TIP3    H239779   3.156   2.289  30.169 -0.3027  0.8287  0.8616
 6074TIP3   OH239780   2.691   1.209  32.016 -0.0008 -0.7800 -0.4567
 6074TIP3    H139781   2.636   1.277  31.978 -0.6392 -0.9737  0.0957
 6074TIP3    H239782   2.632   1.134  32.026  0.4861 -1.1454 -0.2866
 6075TIP3   OH239783   0.548   0.786   1.000 -0.0912  0.3899 -0.4742
 6075TIP3    H139784   0.593   0.867   0.974 -0.9091  0.7776 -0.7078
 6075TIP3    H239785   0.531   0.740   0.917  0.2585  0.0321 -0.3521
 6076TIP3   OH239786   0.221   2.637   7.159  0.1373 -0.7826  0.3229
 6076TIP3    H139787   0.276   2.698   7.207  0.1371 -1.0197  0.6240
 6076TIP3    H239788   0.252   2.550   7.186  0.6954 -0.9339 -0.7178
 6077TIP3   OH239789   0.752   1.982   1.049 -0.1517  0.1849 -0.3504
 6077TIP3    H139790   0.709   2.033   0.980  0.5585  0.6162 -0.4786
 6077TIP3    H239791   0.683   1.970   1.115  0.0725  2.8052  0.5073
 6078TIP3   OH239792   0.978   1.116   1.701 -0.1693  0.3882  0.0324
 6078TIP3    H139793   1.035   1.186   1.668 -1.1436  1.1551 -0.0627
 6078TIP3    H239794   0.900   1.161   1.734 -0.0468 -0.5154  1.6591
 6079TIP3   OH239795   2.968   0.486  28.032  0.0063  0.0609  0.1055
 6079TIP3    H139796   2.931   0.563  28.075  0.9504  0.1413  0.8164
 6079TIP3    H239797   2.893   0.439  27.996 -0.8443 -0.1170  2.0336
 6080TIP3   OH239798   2.491   0.628  27.104 -0.1459  0.3121  0.5897
 6080TIP3    H139799   2.485   0.542  27.061  0.3275  0.0264  1.0724
 6080TIP3    H239800   2.479   0.691  27.034  0.6842 -0.1440  0.0226
 6081TIP3   OH239801   1.418   0.526   6.476  0.2458 -0.4043 -0.3659
 6081TIP3    H139802   1.451   0.606   6.435 -0.7941  0.2030 -0.0346
 6081TIP3    H239803   1.323   0.533   6.470  0.0341 -0.2336  2.2528
 6082TIP3   OH239804   1.083   0.879  29.745  0.4762 -0.2180  0.2256
 6082TIP3    H139805   1.163   0.919  29.778 -0.0325 -0.1331  1.4382
 6082TIP3    H239806   1.095   0.785  29.761  0.9472 -0.3858 -1.0067
 6083TIP3   OH239807   3.372   3.430   3.793  0.2127  0.2972 -0.4370
 6083TIP3    H139808   3.342   3.474   3.873 -0.5344  1.9011 -1.5586
 6083TIP3    H239809   3.292   3.403   3.749  0.6180 -0.5500 -0.6724
 6084TIP3   OH239810   1.829   0.013   0.907 -0.0776 -0.0196 -0.3261
 6084TIP3    H139811   1.816  -0.068   0.858 -0.0608  0.0178 -0.3928
 6084TIP3    H239812   1.871   0.072   0.844  0.3612 -0.1201 -0.1367
 6085TIP3   OH239813   0.851   2.273  24.580  0.3583  0.1494  0.1545
 6085TIP3    H139814   0.762   2.258  24.613  0.3015  0.6957  0.2703
 6085TIP3    H239815   0.862   2.210  24.509 -0.9798  1.5846 -1.4301
 6086TIP3   OH239816   0.426   2.137  27.227 -0.9893  0.1189 -0.0446
 6086TIP3    H139817   0.499   2.083  27.257 -1.8342 -1.3008 -0.4254
 6086TIP3    H239818   0.465   2.222  27.207  0.1980  0.0204  1.6325
 6087TIP3   OH239819   0.754   0.899   2.986  0.2859  0.2671 -0.0956
 6087TIP3    H139820   0.728   0.915   2.895  3.0187 -3.2990 -1.7598
 6087TIP3    H239821   0.833   0.952   2.998  0.4669  0.0167 -0.1652
 6088TIP3   OH239822   2.784   3.084   3.803 -0.1807  0.2688  0.0819
 6088TIP3    H139823   2.774   3.170   3.761  1.7471  1.1956  1.3737
 6088TIP3    H239824   2.809   3.025   3.732 -1.3943  0.7793 -0.8006
 6089TIP3   OH239825   3.244   1.527   5.238 -0.8109 -0.0550 -0.4133
 6089TIP3    H139826   3.238   1.582   5.316 -1.3549  0.6339 -0.9270
 6089TIP3    H239827   3.153   1.508   5.216 -0.6412 -3.1633  1.1109
 6090TIP3   OH239828   2.022   3.393   1.710 -0.2573 -0.0875  0.1559
 6090TIP3    H139829   2.115   3.409   1.693 -0.4053  1.2556  0.5374
 6090TIP3    H239830   2.020   3.345   1.793  0.0769  0.1635  0.3088
 6091TIP3   OH239831   1.437   0.237  27.106  0.2010 -0.0503 -0.0268
 6091TIP3    H139832   1.388   0.240  27.024 -0.3155 -0.3298  0.2694
 6091TIP3    H239833   1.372   0.251  27.174  0.1649 -2.3467  0.4920
 6092TIP3   OH239834   1.874   2.343  29.605 -0.2334  0.0285 -0.2797
 6092TIP3    H139835   1.928   2.289  29.663 -1.5298 -1.6394 -0.5697
 6092TIP3    H239836   1.790   2.351  29.650  0.0161  2.1453 -0.0924
 6093TIP3   OH239837   3.294   0.664   4.257  0.3163  0.5416  0.3209
 6093TIP3    H139838   3.260   0.644   4.344 -0.6308  1.9264  0.3170
 6093TIP3    H239839   3.381   0.701   4.273  1.3245 -1.7465  0.4394
 6094TIP3   OH239840   2.901   1.421   0.933  0.4347 -0.0780  0.2250
 6094TIP3    H139841   2.862   1.432   0.846  0.5108  0.4783  0.2573
 6094TIP3    H239842   2.994   1.443   0.920  0.5531 -0.5066  0.3371
 6095TIP3   OH239843   0.129   0.854  30.679 -0.3831  0.1537 -0.4133
 6095TIP3    H139844   0.191   0.840  30.751  1.3003 -0.3581 -1.8762
 6095TIP3    H239845   0.043   0.856  30.721  0.2154 -3.2173  1.3044
 6096TIP3   OH239846   2.704   3.078   6.696  0.9679  0.5571 -0.2773
 6096TIP3    H139847   2.700   3.101   6.789  1.2008  0.4891 -0.2508
 6096TIP3    H239848   2.696   3.162   6.651  1.0791  0.6124 -0.1928
 6097TIP3   OH239849   3.439   0.034   5.496  0.3052 -0.3419 -0.3532
 6097TIP3    H139850   3.440   0.051   5.401  0.6736 -1.4792 -0.5720
 6097TIP3    H239851   3.391   0.108   5.533  0.4346  0.2869 -1.3959
 6098TIP3   OH239852   1.864   1.922  27.664  0.0536 -0.1595  0.2085
 6098TIP3    H139853   1.941   1.912  27.720 -1.5965 -1.3213  2.4428
 6098TIP3    H239854   1.865   1.844  27.609 -0.2459 -0.9239  1.2417
 6099TIP3   OH239855   0.267   1.027  31.944  0.3501  0.3852  0.3533
 6099TIP3    H139856   0.286   0.974  31.867  1.5285  1.5937 -0.2257
 6099TIP3    H239857   0.272   0.966  32.017  1.0394 -0.4313 -0.3562
 6100TIP3   OH239858   0.823   3.275   6.676  0.1721 -0.1936 -0.3993
 6100TIP3    H139859   0.751   3.322   6.634 -1.3962 -2.5297 -0.5141
 6100TIP3    H239860   0.828   3.191   6.630  1.1628 -1.1801  1.3802
 6101TIP3   OH239861   0.438   2.164   2.405 -0.0150  0.1467  0.2923
 6101TIP3    H139862   0.425   2.253   2.374 -0.6523  0.9532  2.6790
 6101TIP3    H239863   0.352   2.135   2.434 -0.3727 -2.2299 -2.5767
 6102TIP3   OH239864   1.240   2.860  14.151 -0.0905  0.6740 -0.6002
 6102TIP3    H139865   1.252   2.935  14.093  1.6835  0.4537 -0.5855
 6102TIP3    H239866   1.329   2.838  14.180 -0.7591 -0.3259  0.7986
 6103TIP3   OH239867   0.331   0.222   6.541 -0.2076  0.5544 -0.4040
 6103TIP3    H139868   0.377   0.191   6.620  1.9619  0.4058 -1.6316
 6103TIP3    H239869   0.261   0.159   6.528 -0.5713  0.5391  1.3551
 6104TIP3   OH239870   1.302   2.147  24.828  0.4706  0.7259 -0.5247
 6104TIP3    H139871   1.298   2.075  24.891 -0.8967  1.8862  0.7939
 6104TIP3    H239872   1.279   2.108  24.744  0.0882 -0.4287  0.1033
 6105TIP3   OH239873   2.047   3.195   5.006  0.2684  0.0091 -0.1728
 6105TIP3    H139874   2.110   3.267   5.008 -0.5486  0.7430  1.9069
 6105TIP3    H239875   1.963   3.236   4.986  0.4453 -1.0752 -3.8370
 6106TIP3   OH239876   2.500   0.334   6.098  0.1575  0.5920  0.4328
 6106TIP3    H139877   2.479   0.423   6.069  0.4794  1.1989  1.9797
 6106TIP3    H239878   2.415   0.295   6.120  0.1018  0.8278  0.6281
 6107TIP3   OH239879   0.411   0.905   6.541 -0.1068 -0.1267  0.3063
 6107TIP3    H139880   0.345   0.837   6.552  0.0843 -0.0020  2.5204
 6107TIP3    H239881   0.430   0.936   6.629  0.9833  1.7052 -0.4974
 6108TIP3   OH239882   3.277   1.038   1.951 -0.0408  0.4118  0.4316
 6108TIP3    H139883   3.303   1.116   2.001  0.5159  0.8284 -0.4864
 6108TIP3    H239884   3.315   0.965   2.001 -0.4968  0.7186  1.2551
 6109TIP3   OH239885   0.885   2.417  30.246 -0.1372 -0.0638 -0.2970
 6109TIP3    H139886   0.944   2.460  30.308 -1.0114  1.9616 -0.8039
 6109TIP3    H239887   0.858   2.337  30.292  1.4169 -0.0361  0.7535
 6110TIP3   OH239888   0.791   2.722  11.739  0.0390 -0.0701 -0.5127
 6110TIP3    H139889   0.849   2.682  11.674  0.0166 -2.2987  0.7218
 6110TIP3    H239890   0.815   2.679  11.821  0.2107  2.8078  1.0372
 6111TIP3   OH239891   2.981   1.014  31.276  0.2535 -0.0900 -0.0249
 6111TIP3    H139892   2.966   1.101  31.314 -1.9863 -1.5040  2.6899
 6111TIP3    H239893   2.917   0.957  31.320  0.6132 -2.8660 -2.7629
 6112TIP3   OH239894   0.032   1.140   2.956  0.0296 -0.0594 -0.4581
 6112TIP3    H139895   0.114   1.103   2.989 -0.3908  0.0778  0.7743
 6112TIP3    H239896  -0.033   1.117   3.022  0.2287  5.5471  2.2287
 6113TIP3   OH239897   1.585   1.005   4.262  0.1896 -0.9095  0.2031
 6113TIP3    H139898   1.514   0.967   4.313 -0.7366  2.1972  1.4156
 6113TIP3    H239899   1.542   1.054   4.192  1.0434  1.0262  0.9537
 6114TIP3   OH239900   0.807   2.678   4.332  0.2823  0.0100 -1.0061
 6114TIP3    H139901   0.856   2.745   4.283 -0.2969  1.3162  0.1221
 6114TIP3    H239902   0.715   2.695   4.310  0.0888  0.0103 -0.2262
 6115TIP3   OH239903   2.639   2.648   9.801 -0.3835 -0.9085  0.1333
 6115TIP3    H139904   2.722   2.620   9.764  1.0933  0.7433  1.9688
 6115TIP3    H239905   2.659   2.673   9.891 -1.9425  3.2184 -0.3999
 6116TIP3   OH239906   1.804   3.041  29.603 -0.0224 -0.3351 -0.2279
 6116TIP3    H139907   1.861   3.013  29.531 -0.2379  0.0950 -0.5715
 6116TIP3    H239908   1.816   2.974  29.670  2.8223  1.0227  0.7693
 6117TIP3   OH239909   1.786   0.406  11.798 -0.0311 -0.2917  0.0153
 6117TIP3    H139910   1.757   0.432  11.886 -0.1762 -0.9890  0.1818
 6117TIP3    H239911   1.881   0.399  11.805  0.1247  1.2353 -0.3219
 6118TIP3   OH239912   0.808   1.375   7.199  0.2800  0.0746 -0.4066
 6118TIP3    H139913   0.856   1.447   7.157 -0.3424  0.2913 -0.7607
 6118TIP3    H239914   0.728   1.367   7.148 -0.0136 -0.3530  0.1180
 6119TIP3   OH239915   1.384   0.987   2.474 -0.2733 -0.2501  0.1253
 6119TIP3    H139916   1.404   1.048   2.544 -0.7466 -0.0990  0.1311
 6119TIP3    H239917   1.467   0.976   2.428  0.5054 -1.7714  1.7915
 6120TIP3   OH239918   0.381   3.515   3.231  0.3518  0.0172  0.2170
 6120TIP3    H139919   0.345   3.591   3.185 -1.1864 -1.6591 -1.5104
 6120TIP3    H239920   0.327   3.506   3.309  1.3579  1.3913  1.1183
 6121TIP3   OH239921   0.755   0.355  31.005 -0.1210 -0.4783 -0.0844
 6121TIP3    H139922   0.737   0.314  31.090  0.1267 -2.4453 -0.9147
 6121TIP3    H239923   0.814   0.428  31.025 -0.2121 -0.7950  1.4416
 6122TIP3   OH239924   2.345   2.916   6.478 -0.1459  0.3255 -0.0820
 6122TIP3    H139925   2.381   3.004   6.474  0.6844  0.0072  0.2817
 6122TIP3    H239926   2.316   2.897   6.389  0.3237  0.6942 -0.3112
 6123TIP3   OH239927   0.790   2.251   6.316  0.0430 -0.0422 -0.0127
 6123TIP3    H139928   0.732   2.213   6.382 -0.4417 -0.5302 -0.6953
 6123TIP3    H239929   0.825   2.330   6.356 -0.6571 -0.0478  0.6261
 6124TIP3   OH239930   0.409   3.367   4.021  0.1777 -0.0253  0.2708
 6124TIP3    H139931   0.384   3.275   4.026  0.0652  0.0045  0.2726
 6124TIP3    H239932   0.488   3.368   3.967  0.7357 -0.2277  1.0679
 6125TIP3   OH239933   1.328   3.517  27.504  0.2077 -0.1995 -0.0538
 6125TIP3    H139934   1.269   3.553  27.438  1.4937 -0.1090 -1.2001
 6125TIP3    H239935   1.281   3.442  27.541 -0.3324 -0.5757 -1.4597
 6126TIP3   OH239936   1.267   2.006  29.049  0.4224 -0.0902  0.2953
 6126TIP3    H139937   1.286   2.094  29.082 -0.5512 -0.3997  1.7870
 6126TIP3    H239938   1.353   1.963  29.045  0.9806  1.0776 -0.9920
 6127TIP3   OH239939   3.272   0.200  32.485 -0.6163  0.2663  0.1280
 6127TIP3    H139940   3.218   0.137  32.533 -0.3760  0.1521  0.2486
 6127TIP3    H239941   3.224   0.282  32.492 -2.2500 -0.3758 -2.1735
 6128TIP3   OH239942   2.311   1.364   4.174 -0.1445  0.1049 -0.4007
 6128TIP3    H139943   2.402   1.377   4.201 -0.6104  2.2874  0.3761
 6128TIP3    H239944   2.262   1.360   4.256 -0.7100 -1.7551 -0.7886
 6129TIP3   OH239945   0.312   3.385   7.057 -0.3734 -0.0281  0.0374
 6129TIP3    H139946   0.253   3.316   7.025  2.6371 -2.8533  0.0655
 6129TIP3    H239947   0.352   3.421   6.978 -1.3367  1.1963  0.0783
 6130TIP3   OH239948   3.375   1.681  29.927  0.1779 -0.0536  0.5744
 6130TIP3    H139949   3.344   1.753  29.982  0.4614 -0.4783  1.3095
 6130TIP3    H239950   3.301   1.620  29.924 -0.6488  0.9796 -1.3688
 6131TIP3   OH239951   1.258   3.217  28.062 -0.1921  0.4234 -0.7845
 6131TIP3    H139952   1.330   3.208  27.998 -0.9819 -0.8649 -1.5345
 6131TIP3    H239953   1.297   3.265  28.135  0.8214  1.7246 -2.1116
 6132TIP3   OH239954   0.412   3.023   0.258  0.2586 -0.5543  0.2728
 6132TIP3    H139955   0.364   3.058   0.182 -0.4850 -0.4187  0.7925
 6132TIP3    H239956   0.381   2.933   0.267  1.0192 -0.8638 -0.1221
 6133TIP3   OH239957   2.885   0.908  26.494  0.6843  0.1138 -0.7506
 6133TIP3    H139958   2.847   0.822  26.512  1.7564 -0.5600 -1.5302
 6133TIP3    H239959   2.825   0.948  26.432  0.3316 -0.2089 -0.6232
 6134TIP3   OH239960   0.120   0.526  11.292 -0.5157 -0.3125  0.3260
 6134TIP3    H139961   0.159   0.599  11.246 -0.8017  0.4482  1.2497
 6134TIP3    H239962   0.176   0.451  11.272  0.9812  0.5904  1.0243
 6135TIP3   OH239963   1.762   1.162  27.025 -0.3884 -0.2188 -0.0736
 6135TIP3    H139964   1.682   1.212  27.006 -0.1955 -0.3052 -1.1467
 6135TIP3    H239965   1.784   1.120  26.942  1.1345  0.3170  0.0405
 6136TIP3   OH239966   0.342   3.021  29.121 -0.6230 -1.0123 -0.4629
 6136TIP3    H139967   0.301   2.984  29.199  4.4618 -0.4188  2.9861
 6136TIP3    H239968   0.349   3.115  29.141  3.1316 -1.2224 -0.1366
 6137TIP3   OH239969   2.364   2.482  14.884  0.2975 -0.4548 -0.0833
 6137TIP3    H139970   2.382   2.564  14.929 -0.5372 -0.9132  1.1515
 6137TIP3    H239971   2.417   2.417  14.931 -1.7099 -1.2038  1.3108
 6138TIP3   OH239972   0.107   1.966  26.772 -0.6867  0.3453  0.1029
 6138TIP3    H139973   0.111   1.926  26.686 -2.1937 -0.8802  0.5634
 6138TIP3    H239974   0.136   2.056  26.758  0.7964 -0.3045 -1.3313
 6139TIP3   OH239975   3.152   1.099  31.999 -0.1458  0.1458  0.1044
 6139TIP3    H139976   3.189   1.042  31.931  0.2479  0.3809  0.1187
 6139TIP3    H239977   3.063   1.067  32.011  0.2551 -0.8480  0.5333
 6140TIP3   OH239978   1.149   0.879  30.160 -0.3279  0.4701  0.1384
 6140TIP3    H139979   1.068   0.836  30.185 -0.1015 -0.4404 -0.6016
 6140TIP3    H239980   1.122   0.963  30.122 -0.9548  0.0177 -0.4342
 6141TIP3   OH239981   1.082   3.249   4.232  0.3840  0.2428  0.3520
 6141TIP3    H139982   1.136   3.213   4.162  0.0741  1.8464 -0.7516
 6141TIP3    H239983   1.144   3.293   4.290  0.6551 -1.1878  1.2133
 6142TIP3   OH239984   0.265   0.078  26.682 -0.7119  0.2385 -0.5521
 6142TIP3    H139985   0.233   0.038  26.602 -0.3051  0.4405 -0.8191
 6142TIP3    H239986   0.187   0.111  26.726 -1.1524 -1.5945  0.1017
 6143TIP3   OH239987   1.177   2.749   7.567 -0.1167 -0.4216  0.1313
 6143TIP3    H139988   1.150   2.789   7.484  0.3642 -2.4276 -1.0622
 6143TIP3    H239989   1.268   2.724   7.553 -0.1852 -1.2648  1.0889
 6144TIP3   OH239990   0.251   2.794  11.306  0.1745  0.0652 -0.0351
 6144TIP3    H139991   0.329   2.844  11.280  1.4020 -2.4098 -1.5633
 6144TIP3    H239992   0.283   2.734  11.373 -0.7925  0.0575  0.4257
 6145TIP3   OH239993   0.196   1.555  28.541 -0.3810 -0.3557  0.2630
 6145TIP3    H139994   0.199   1.520  28.452  0.6402  0.3076  0.0118
 6145TIP3    H239995   0.252   1.632  28.538 -0.7230 -0.0435  1.3702
 6146TIP3   OH239996   0.331   3.214   5.812  0.1292  0.0572  0.1151
 6146TIP3    H139997   0.406   3.162   5.839  1.7705  1.6401 -1.0999
 6146TIP3    H239998   0.311   3.269   5.887  0.0657 -0.4799  0.4953
 6147TIP3   OH239999   3.140   2.796   0.072 -0.2390  0.0190  0.3821
 6147TIP3    H140000   3.118   2.711   0.109  0.8565 -0.8637 -0.8974
 6147TIP3    H240001   3.064   2.818   0.017 -0.8200  0.2110  1.2418
 6148TIP3   OH240002   2.913   1.745   2.078 -0.0949  0.5045 -0.2942
 6148TIP3    H140003   2.918   1.792   1.995 -1.8248  3.4253  1.0773
 6148TIP3    H240004   2.987   1.778   2.129  1.1654 -1.5346 -0.7044
 6149TIP3   OH240005   1.128   0.783  31.221  0.2211 -0.4122 -0.1928
 6149TIP3    H140006   1.116   0.843  31.148 -1.2459 -2.0436 -1.3650
 6149TIP3    H240007   1.222   0.766  31.223  0.5132  1.0173 -0.5364
 6150TIP3   OH240008   3.127   2.206   4.975  0.1941 -0.3472  1.1307
 6150TIP3    H140009   3.087   2.294   4.980 -1.2731 -0.9873  1.2149
 6150TIP3    H240010   3.062   2.154   4.927  1.9519 -0.9069 -0.7846
 6151TIP3   OH240011   3.188   3.161   6.831 -0.1505  0.1680  0.1773
 6151TIP3    H140012   3.235   3.244   6.831  1.9099 -0.8954  2.0701
 6151TIP3    H240013   3.130   3.167   6.907 -1.0273  0.3707 -0.4923
 6152TIP3   OH240014   2.736   1.923  30.142  0.3429  0.1180  0.6393
 6152TIP3    H140015   2.696   1.888  30.063  0.9704 -0.5944  0.6259
 6152TIP3    H240016   2.662   1.946  30.198 -0.0990  0.2770  0.0001
 6153TIP3   OH240017   3.128   1.630   4.746  0.0104 -0.5764  0.4865
 6153TIP3    H140018   3.136   1.536   4.760  0.4678 -0.5180  0.6228
 6153TIP3    H240019   3.156   1.669   4.829 -2.1553 -0.3694  1.1949
 6154TIP3   OH240020   0.721   3.383   0.097  0.9265 -0.8779 -0.8427
 6154TIP3    H140021   0.650   3.404   0.036 -0.5208 -2.2087  0.3458
 6154TIP3    H240022   0.705   3.293   0.124  1.7931 -0.4720  1.1844
 6155TIP3   OH240023   3.122   0.794   4.082 -0.1374  0.3539 -0.4333
 6155TIP3    H140024   3.189   0.835   4.028  0.1171  0.0714 -0.3364
 6155TIP3    H240025   3.171   0.740   4.144 -0.4244  0.7084  0.1049
 6156TIP3   OH240026   0.958   1.821  27.812 -0.4139  0.8488  0.0875
 6156TIP3    H140027   0.979   1.854  27.899 -0.7023  1.2608 -0.0016
 6156TIP3    H240028   1.020   1.865  27.754 -1.7395  2.3554 -0.2289
 6157TIP3   OH240029   1.678   0.161   5.828  0.1137 -0.0159  0.1578
 6157TIP3    H140030   1.738   0.234   5.809  2.3890 -1.1895  2.2366
 6157TIP3    H240031   1.703   0.093   5.765 -1.4595  0.6485 -1.2472
 6158TIP3   OH240032   1.229   2.940  27.211 -0.3717 -0.4778 -0.5551
 6158TIP3    H140033   1.139   2.930  27.181  0.0119  1.5163 -2.6435
 6158TIP3    H240034   1.281   2.941  27.130  1.3543 -0.1454  0.5169
 6159TIP3   OH240035   3.380   2.164   2.822 -0.4348 -0.1588 -0.1554
 6159TIP3    H140036   3.328   2.165   2.741  0.1567  0.2242 -0.5299
 6159TIP3    H240037   3.414   2.253   2.830 -0.1492 -0.3079  0.2943
 6160TIP3   OH240038   1.786   2.032   2.059 -0.3817  0.4873  0.1585
 6160TIP3    H140039   1.740   1.948   2.055 -2.8972  1.8234 -1.2853
 6160TIP3    H240040   1.717   2.097   2.070  1.4161  2.4748  0.4281
 6161TIP3   OH240041   1.064   2.949  26.812 -0.3747  0.2905  0.5814
 6161TIP3    H140042   1.089   2.965  26.721  1.2562  1.6008  1.2049
 6161TIP3    H240043   1.035   3.035  26.844 -4.2706 -0.7613  0.4369
 6162TIP3   OH240044   0.966   0.052  26.248 -0.1572  0.2238 -0.1009
 6162TIP3    H140045   0.873   0.067  26.233 -0.2702 -0.3256  0.0140
 6162TIP3    H240046   0.979  -0.040  26.224 -0.5082 -1.0182  3.7013
 6163TIP3   OH240047   2.929   3.121  13.750 -0.0171  0.4180  0.0036
 6163TIP3    H140048   2.920   3.160  13.837  2.3871 -0.2839  0.6314
 6163TIP3    H240049   2.950   3.029  13.767  2.1912  0.6388 -1.2277
 6164TIP3   OH240050   0.165   0.790   5.087  0.1831 -0.1978  0.3257
 6164TIP3    H140051   0.076   0.765   5.062  0.7876 -1.7790 -0.3348
 6164TIP3    H240052   0.174   0.880   5.054 -0.5749 -0.6511 -1.2103
 6165TIP3   OH240053   1.125   3.467  28.912  0.0251 -0.4197 -0.1310
 6165TIP3    H140054   1.210   3.453  28.953  0.4353 -1.6947 -1.3372
 6165TIP3    H240055   1.093   3.549  28.950  2.2860  0.6945 -0.4800
 6166TIP3   OH240056   2.131   3.381   1.053 -0.3826  0.5888  0.5993
 6166TIP3    H140057   2.167   3.464   1.084 -0.9861  0.3054  2.1939
 6166TIP3    H240058   2.131   3.325   1.131  1.5321 -1.4724 -0.7944
 6167TIP3   OH240059   2.297   1.154   3.525  0.3745 -0.7768 -0.5279
 6167TIP3    H140060   2.328   1.165   3.435  0.9373  2.1366 -0.0778
 6167TIP3    H240061   2.368   1.105   3.568  1.0377 -0.4266 -1.1941
 6168TIP3   OH240062   0.488   3.392  30.203 -0.2323  0.0778 -0.1779
 6168TIP3    H140063   0.552   3.345  30.150  0.7969  0.2145  0.9084
 6168TIP3    H240064   0.443   3.324  30.253 -0.1657  0.0692 -0.1291
 6169TIP3   OH240065   2.221   2.521   6.187 -0.1587 -0.1029  0.3351
 6169TIP3    H140066   2.238   2.521   6.093 -1.2834 -0.2678  0.1174
 6169TIP3    H240067   2.273   2.448   6.220 -0.6294 -0.7681 -0.3415
 6170TIP3   OH240068   1.192   2.120  32.861 -0.0487  0.4011 -0.3646
 6170TIP3    H140069   1.246   2.062  32.915 -0.6864  0.8754  0.8302
 6170TIP3    H240070   1.109   2.073  32.851  0.3591 -0.0773 -1.7178
 6171TIP3   OH240071   0.219   0.990  31.365 -0.1033 -0.0847  0.4257
 6171TIP3    H140072   0.262   0.971  31.448  0.4840 -0.1192  0.1209
 6171TIP3    H240073   0.160   1.063  31.385  2.9731  2.7095  0.0624
 6172TIP3   OH240074   1.726   3.456  12.044  0.1892  0.1118  0.2886
 6172TIP3    H140075   1.746   3.401  11.968  1.2727  0.3540  0.3805
 6172TIP3    H240076   1.809   3.500  12.064 -0.0180 -0.1098  1.7471
 6173TIP3   OH240077   2.622   0.146   2.737  0.4846  0.1276 -0.0519
 6173TIP3    H140078   2.543   0.104   2.701  1.0748 -2.1960  1.2173
 6173TIP3    H240079   2.680   0.155   2.662 -0.5362  0.8331 -0.7883
 6174TIP3   OH240080   0.664   0.140   2.745  0.3351  0.4876  0.3713
 6174TIP3    H140081   0.721   0.063   2.752 -1.9083 -1.5332 -1.7311
 6174TIP3    H240082   0.696   0.186   2.667 -0.3380 -0.1951 -0.3254
 6175TIP3   OH240083   2.378   1.631  30.703  0.2794  0.0271 -0.4742
 6175TIP3    H140084   2.347   1.558  30.649 -1.4477 -0.0792  0.5840
 6175TIP3    H240085   2.299   1.677  30.730  1.2416  1.4363  0.1031
 6176TIP3   OH240086   2.873   0.784  27.524  0.0274  0.0196  0.8299
 6176TIP3    H140087   2.968   0.773  27.519 -0.0972 -0.7669 -0.2442
 6176TIP3    H240088   2.838   0.701  27.492 -1.0231  0.5428  0.5905
 6177TIP3   OH240089   0.172   2.963  31.434 -0.5994 -0.1248 -0.0264
 6177TIP3    H140090   0.133   2.909  31.365 -0.7778 -0.6581  0.4806
 6177TIP3    H240091   0.112   2.954  31.509 -0.7455  0.9508  0.0094
 6178TIP3   OH240092   1.967   0.362   1.680 -0.3078  0.3560  0.4096
 6178TIP3    H140093   2.058   0.377   1.706  0.4337 -0.2780 -1.5920
 6178TIP3    H240094   1.969   0.363   1.584 -2.5919  1.2600  0.3105
 6179TIP3   OH240095   0.548   3.039  27.727  0.3406  0.3527  0.2659
 6179TIP3    H140096   0.602   3.076  27.658  0.5245  0.8706  0.6792
 6179TIP3    H240097   0.559   2.945  27.718  1.2133  0.4459  0.2646
 6180TIP3   OH240098   2.762   1.892  26.758 -0.2054 -0.7421  0.2311
 6180TIP3    H140099   2.673   1.917  26.783 -0.1693 -0.2251 -0.1575
 6180TIP3    H240100   2.772   1.922  26.668 -0.2185 -2.3310 -0.3190
 6181TIP3   OH240101   0.231   0.880  32.193 -0.4499  0.2471  0.6216
 6181TIP3    H140102   0.307   0.849  32.242  1.6074  0.6705 -2.0759
 6181TIP3    H240103   0.172   0.804  32.189  0.3262 -0.4502  1.7937
 6182TIP3   OH240104   2.694   1.062  18.820  0.0296  0.6274  0.5126
 6182TIP3    H140105   2.672   0.996  18.754 -0.7451 -1.7615  2.9690
 6182TIP3    H240106   2.622   1.125  18.814 -0.2663  0.2177 -0.6125
 6183TIP3   OH240107   1.049   0.531   1.569  0.3520 -0.1140  0.2793
 6183TIP3    H140108   1.078   0.496   1.485 -1.5183 -2.0847  0.3583
 6183TIP3    H240109   1.015   0.618   1.548 -0.1715 -0.6125 -1.0370
 6184TIP3   OH240110   2.078   3.343  30.477  0.4745 -0.3436  0.1815
 6184TIP3    H140111   1.985   3.357  30.495  0.3130 -1.3314  0.1622
 6184TIP3    H240112   2.106   3.284  30.547  0.7055 -1.3304 -0.7329
 6185TIP3   OH240113   2.316   3.366   5.635  0.7455  0.6812 -0.3012
 6185TIP3    H140114   2.253   3.318   5.688  1.2397  0.3728  0.0235
 6185TIP3    H240115   2.356   3.299   5.580  0.0664  1.0377 -1.2469
 6186TIP3   OH240116   1.538   2.334  26.461  0.2801  0.2846  0.7662
 6186TIP3    H140117   1.560   2.244  26.437  0.0003  1.2264 -4.1888
 6186TIP3    H240118   1.622   2.375  26.481  0.7686 -0.4507  0.2821
 6187TIP3   OH240119   3.244   0.927  31.807  0.3727 -0.3308 -0.4955
 6187TIP3    H140120   3.201   0.896  31.727  0.8328 -0.8780 -0.5399
 6187TIP3    H240121   3.300   0.854  31.833  1.3174  0.3827 -0.4726
 6188TIP3   OH240122   2.216   1.433  20.231  0.2450  0.0366  0.6532
 6188TIP3    H140123   2.287   1.491  20.260  0.4992 -0.4701  1.0813
 6188TIP3    H240124   2.149   1.442  20.299 -1.3579  2.6063 -1.0874
 6189TIP3   OH240125   2.982   1.068  27.826  0.2144  0.7438  0.4791
 6189TIP3    H140126   2.919   1.003  27.796  0.0672  1.3940 -0.7033
 6189TIP3    H240127   3.016   1.033  27.908 -1.5381  0.2812  1.0481
 6190TIP3   OH240128   1.676   0.131   4.055 -0.0610 -0.0098 -0.2150
 6190TIP3    H140129   1.677   0.113   4.149  1.4516 -0.7373 -0.3434
 6190TIP3    H240130   1.593   0.177   4.040 -0.0017  0.7781  1.5957
 6191TIP3   OH240131   0.216   1.867  20.153 -0.2493 -0.1587 -0.2871
 6191TIP3    H140132   0.163   1.938  20.117 -0.5250 -0.2916 -0.1485
 6191TIP3    H240133   0.236   1.812  20.078 -0.5646 -0.2700 -0.2922
 6192TIP3   OH240134   2.952   3.347   5.543  0.3739 -0.8656  0.4150
 6192TIP3    H140135   2.904   3.273   5.581  1.6559 -1.2506  1.3512
 6192TIP3    H240136   3.041   3.313   5.530  0.5218 -0.0448 -0.8909
 6193TIP3   OH240137   2.103   1.856   7.241 -0.3879  0.1048  0.7186
 6193TIP3    H140138   2.134   1.811   7.162 -1.6559  0.2215  0.1333
 6193TIP3    H240139   2.183   1.888   7.283  0.5986 -2.7206  1.2025
 6194TIP3   OH240140   2.142   1.307  29.625  0.2055 -0.9332 -0.1394
 6194TIP3    H140141   2.140   1.335  29.716  0.0973 -1.8388  0.1442
 6194TIP3    H240142   2.158   1.387  29.576  0.1796 -0.4220  0.6674
 6195TIP3   OH240143   0.737   2.625  31.156  0.5271  0.3804 -0.3772
 6195TIP3    H140144   0.825   2.586  31.154  0.1667 -0.4738 -0.0063
 6195TIP3    H240145   0.753   2.719  31.151  1.5461  0.3207  1.1001
 6196TIP3   OH240146   0.018   3.436   6.938 -0.2748  0.5269 -0.3016
 6196TIP3    H140147  -0.061   3.400   6.897  0.6387  0.4185 -2.0773
 6196TIP3    H240148   0.076   3.361   6.947  0.6011  1.0299 -1.4724
 6197TIP3   OH240149   1.346   3.407  28.289  0.3161 -0.2894 -0.0344
 6197TIP3    H140150   1.282   3.464  28.247  1.0903 -1.6329 -3.4788
 6197TIP3    H240151   1.352   3.437  28.379 -3.2237  1.5004 -0.2576
 6198TIP3   OH240152   0.511   3.286  32.123 -0.1473  0.7983  0.1186
 6198TIP3    H140153   0.519   3.324  32.035 -0.1736  1.1232  0.2540
 6198TIP3    H240154   0.417   3.268  32.132 -0.5201  2.8547  0.9298
 6199TIP3   OH240155   0.769   2.010  26.669 -0.1257 -0.9038 -0.0263
 6199TIP3    H140156   0.766   2.065  26.591  0.4670  0.9948  1.2513
 6199TIP3    H240157   0.678   2.006  26.698 -0.1746 -0.6267 -0.1370
 6200TIP3   OH240158   1.556   0.910   3.460 -0.2413 -0.3134  0.3955
 6200TIP3    H140159   1.650   0.921   3.476  0.0504 -1.2441 -0.5988
 6200TIP3    H240160   1.543   0.815   3.457 -0.9542 -0.1912 -0.9047
 6201TIP3   OH240161   1.701   3.223  11.611 -0.2142  0.2811  0.0123
 6201TIP3    H140162   1.637   3.152  11.613  0.3797 -0.2923 -0.6536
 6201TIP3    H240163   1.785   3.180  11.628 -0.0495  1.1055  1.4692
 6202TIP3   OH240164   1.396   1.566  20.431  0.2833  0.1883 -0.4219
 6202TIP3    H140165   1.484   1.604  20.439  0.0122  1.1572 -1.6796
 6202TIP3    H240166   1.375   1.574  20.338 -0.3739 -1.8004 -0.4973
 6203TIP3   OH240167   3.065   3.193  28.028  0.4911 -0.1667 -0.2659
 6203TIP3    H140168   3.099   3.207  28.116  2.7450 -2.7045 -0.6085
 6203TIP3    H240169   3.120   3.249  27.972  0.7193 -0.4337 -0.3088
 6204TIP3   OH240170   3.278   0.200  27.144 -0.2838  0.2162 -0.6117
 6204TIP3    H140171   3.275   0.264  27.074 -3.0271 -1.3690 -2.0893
 6204TIP3    H240172   3.315   0.121  27.103  0.7894  0.0978  0.5268
 6205TIP3   OH240173   1.606   2.888  30.615 -0.3019  0.0171  0.0369
 6205TIP3    H140174   1.533   2.871  30.555  0.0152  1.6073 -0.8450
 6205TIP3    H240175   1.604   2.814  30.676 -1.1815 -1.1871 -1.3813
 6206TIP3   OH240176   2.414   0.210  31.573  0.8768  0.2341  0.3687
 6206TIP3    H140177   2.482   0.165  31.523  0.1772 -0.9207  0.4315
 6206TIP3    H240178   2.353   0.244  31.507  0.2998 -0.7263  0.3966
 6207TIP3   OH240179   1.191   3.426  10.820  0.0549  0.1318 -0.1640
 6207TIP3    H140180   1.237   3.478  10.886 -0.2077  0.1144  0.0315
 6207TIP3    H240181   1.192   3.337  10.854  0.6407 -0.0244 -0.5724
 6208TIP3   OH240182   0.409   1.482   4.012  0.2338  0.5379 -0.2161
 6208TIP3    H140183   0.487   1.466   4.065  0.9983 -0.0765 -1.4954
 6208TIP3    H240184   0.442   1.507   3.926 -0.9247 -1.1576 -1.2240
 6209TIP3   OH240185   0.264   2.207   6.468 -0.9566  0.5661 -0.0639
 6209TIP3    H140186   0.241   2.151   6.394 -0.3548 -0.5331  0.5502
 6209TIP3    H240187   0.341   2.164   6.507 -1.4740  0.9149  1.4005
 6210TIP3   OH240188   0.930   2.479  24.760 -0.2075 -0.7118 -0.4852
 6210TIP3    H140189   0.854   2.537  24.750 -1.2341 -2.1577 -1.4409
 6210TIP3    H240190   0.920   2.414  24.690  1.3716 -1.5460  0.0143
 6211TIP3   OH240191   0.067   1.699  22.310  1.2120  0.2889 -0.4188
 6211TIP3    H140192  -0.015   1.739  22.281  0.6814 -0.5016 -0.0706
 6211TIP3    H240193   0.116   1.685  22.229  0.4625 -0.3588 -0.7824
 6212TIP3   OH240194   1.713   1.130   0.763 -0.2521  0.2517  0.3668
 6212TIP3    H140195   1.786   1.157   0.820  0.9826 -1.2783 -0.4137
 6212TIP3    H240196   1.650   1.090   0.823  0.2419  0.2235  0.8836
 6213TIP3   OH240197   0.105   0.398   1.731 -0.0207  0.0430 -0.1895
 6213TIP3    H140198   0.155   0.416   1.651  0.4680  0.2471  0.1539
 6213TIP3    H240199   0.059   0.316   1.713  2.5194 -1.6295  0.3983
 6214TIP3   OH240200   3.279   2.851   2.717  0.0826 -0.1429  0.3373
 6214TIP3    H140201   3.273   2.942   2.747 -2.1044  0.2305 -1.0429
 6214TIP3    H240202   3.208   2.806   2.763 -0.2498 -0.6313 -0.6374
 6215TIP3   OH240203   0.405   3.118   4.270  0.0820 -0.3244  0.0796
 6215TIP3    H140204   0.409   3.080   4.183 -2.7555  2.2365 -1.3720
 6215TIP3    H240205   0.479   3.179   4.273 -1.3128  1.5982 -1.7549
 6216TIP3   OH240206   1.904   1.577   1.274  0.5295  0.1350  0.2557
 6216TIP3    H140207   1.925   1.509   1.338  0.2937  0.2151  0.4189
 6216TIP3    H240208   1.925   1.537   1.189 -0.0414 -0.3055  0.3168
 6217TIP3   OH240209   2.924   2.772  29.999 -0.3145  0.4966  0.8286
 6217TIP3    H140210   2.940   2.717  29.922  1.4089  0.9373  0.8322
 6217TIP3    H240211   2.835   2.807  29.985  0.1415  0.9925 -1.2279
 6218TIP3   OH240212   2.545   0.979   5.237 -0.1138 -0.0746  0.1649
 6218TIP3    H140213   2.457   1.009   5.213  0.3832  1.6327  0.3922
 6218TIP3    H240214   2.604   1.028   5.180  0.8434  0.8127  1.8435
 6219TIP3   OH240215   0.353   3.271  26.496  0.3814 -0.0442 -0.1309
 6219TIP3    H140216   0.377   3.350  26.446 -0.0938  0.6223  0.6594
 6219TIP3    H240217   0.275   3.238  26.452 -0.5334  1.0185  0.6199
 6220TIP3   OH240218   3.152   3.137   2.786 -0.3303 -0.0370  0.2882
 6220TIP3    H140219   3.229   3.169   2.739 -0.7639 -1.4591 -1.5330
 6220TIP3    H240220   3.098   3.215   2.800  1.7075  1.1186  2.3045
 6221TIP3   OH240221   1.036   0.692  27.406  0.3269 -0.3428 -0.4642
 6221TIP3    H140222   0.950   0.657  27.430  0.9794 -0.7075  1.4853
 6221TIP3    H240223   1.020   0.739  27.324 -2.0130  0.7504  0.5206
 6222TIP3   OH240224   2.176   0.387   3.092 -0.0331  0.2710 -0.0939
 6222TIP3    H140225   2.206   0.471   3.127  0.4429  0.5428 -1.1295
 6222TIP3    H240226   2.246   0.360   3.032 -0.4186 -0.6204 -0.1453
 6223TIP3   OH240227   1.464   1.166  29.887  0.0108 -0.5161 -0.5449
 6223TIP3    H140228   1.527   1.136  29.821  0.2030  0.1921 -0.6880
 6223TIP3    H240229   1.448   1.257  29.865  0.2219 -0.2176  0.4956
 6224TIP3   OH240230   0.884   1.616  27.083  0.3013  0.0276 -0.4386
 6224TIP3    H140231   0.906   1.523  27.090  0.5547  0.1943  1.4132
 6224TIP3    H240232   0.806   1.618  27.027  0.5583 -1.2414 -0.8776
 6225TIP3   OH240233   1.522   3.250  31.886  0.2775 -0.1017  0.5895
 6225TIP3    H140234   1.457   3.214  31.825  1.2897 -0.0099 -0.5713
 6225TIP3    H240235   1.603   3.255  31.836  0.7356  1.6218  1.4172
 6226TIP3   OH240236   1.640   0.455  27.016 -0.2246 -0.2796  0.2986
 6226TIP3    H140237   1.562   0.416  27.054 -0.5834 -0.6210 -0.7735
 6226TIP3    H240238   1.629   0.446  26.922  0.5970  0.6588  0.0914
 6227TIP3   OH240239   2.926   2.136  31.282  0.2021 -0.0759  0.3561
 6227TIP3    H140240   2.872   2.057  31.276  2.1284 -1.5571  1.4459
 6227TIP3    H240241   2.974   2.139  31.199  0.1917 -0.1003  0.3487
 6228TIP3   OH240242   0.463   0.762  29.189  0.0309 -0.4558  0.1991
 6228TIP3    H140243   0.376   0.763  29.229 -0.2125 -1.6113 -0.2476
 6228TIP3    H240244   0.479   0.669  29.169  1.5598 -0.3295  0.6806
 6229TIP3   OH240245   3.542   0.486  30.540 -0.3816 -0.2572 -0.0109
 6229TIP3    H140246   3.589   0.433  30.605  5.2902  0.7729 -2.6076
 6229TIP3    H240247   3.537   0.573  30.579 -2.1644 -0.8018  1.0701
 6230TIP3   OH240248   2.454   3.232  29.129 -0.2877 -0.0800  0.1671
 6230TIP3    H140249   2.408   3.281  29.197 -0.2635  0.1236  0.0380
 6230TIP3    H240250   2.535   3.202  29.172  0.7838  1.8785 -0.3438
 6231TIP3   OH240251   0.521   3.107   5.991 -0.3353 -0.1462  0.7630
 6231TIP3    H140252   0.504   3.014   6.008  0.6507 -0.2613  1.2180
 6231TIP3    H240253   0.487   3.152   6.068 -0.3085 -0.1935  0.8032
 6232TIP3   OH240254   2.218   0.141  32.304  0.3794  0.3769  0.4211
 6232TIP3    H140255   2.140   0.087  32.320  0.5638  0.3543  1.3326
 6232TIP3    H240256   2.263   0.098  32.232 -1.7710  1.8301 -1.9721
 6233TIP3   OH240257   1.499   2.476  29.203  0.0665  0.5802  0.4063
 6233TIP3    H140258   1.509   2.564  29.168  1.4557 -0.0580 -0.9572
 6233TIP3    H240259   1.581   2.459  29.250 -0.6100  0.3702  1.5597
 6234TIP3   OH240260   1.554   1.249  27.243 -0.0704  0.2631 -0.6219
 6234TIP3    H140261   1.627   1.269  27.185 -0.5596 -1.0014 -1.7317
 6234TIP3    H240262   1.476   1.272  27.193 -0.4689  0.0842 -0.0907
 6235TIP3   OH240263   1.418   2.390  28.672  0.0565  0.4056 -0.5684
 6235TIP3    H140264   1.442   2.428  28.587 -0.7246  2.0898 -0.0598
 6235TIP3    H240265   1.500   2.391  28.722  0.7393 -1.4215 -1.5512
 6236TIP3   OH240266   0.669   3.312  28.454 -0.3868 -0.2300  0.3175
 6236TIP3    H140267   0.713   3.343  28.375  0.8508 -0.0442  1.0628
 6236TIP3    H240268   0.706   3.225  28.470 -0.7820 -0.3509  0.5894
 6237TIP3   OH240269   0.426   2.931   3.641  0.0713  0.7229  0.4360
 6237TIP3    H140270   0.401   2.967   3.556  1.0614  0.1493 -0.1273
 6237TIP3    H240271   0.476   3.001   3.683  0.2575  0.7299  0.2063
 6238TIP3   OH240272   2.255   2.365   3.799 -0.8513 -0.4448  0.4402
 6238TIP3    H140273   2.227   2.423   3.870 -1.6939  0.0440 -0.2709
 6238TIP3    H240274   2.345   2.392   3.781 -0.2775 -1.2315  1.9545
 6239TIP3   OH240275   1.314   1.133   1.878 -0.5946 -0.1280  0.2589
 6239TIP3    H140276   1.338   1.225   1.889  1.0829 -0.4350 -0.5355
 6239TIP3    H240277   1.240   1.121   1.937  0.5350  1.1744  2.0468
 6240TIP3   OH240278   0.030   2.122   4.106 -0.1115  0.0339 -0.3405
 6240TIP3    H140279   0.086   2.134   4.183 -2.3927 -0.2755  1.4845
 6240TIP3    H240280   0.085   2.146   4.032  2.5722 -0.7541  1.2689
 6241TIP3   OH240281   3.507   2.024  22.996 -0.1480  0.2995  0.6017
 6241TIP3    H140282   3.590   2.052  23.034  0.0976  1.5289 -0.7805
 6241TIP3    H240283   3.451   2.102  23.002 -0.4854  0.1491 -0.4268
 6242TIP3   OH240284   0.950   2.538   0.293 -0.0068 -0.9862 -0.0416
 6242TIP3    H140285   1.007   2.497   0.358 -0.3564  0.5368  1.3063
 6242TIP3    H240286   1.010   2.568   0.225  0.3318 -2.9312 -0.6471
 6243TIP3   OH240287   3.470   2.028  32.243  0.1946 -0.3315  0.3643
 6243TIP3    H140288   3.439   1.951  32.196  0.4971 -0.4106  0.2946
 6243TIP3    H240289   3.566   2.025  32.235  0.1394  0.9766 -1.1017
 6244TIP3   OH240290   1.616   3.368   1.708 -0.2253 -0.5799  0.7553
 6244TIP3    H140291   1.597   3.395   1.798  0.5698  1.1695  0.4567
 6244TIP3    H240292   1.537   3.324   1.679 -0.4804 -1.2261  2.3239
 6245TIP3   OH240293   3.275   1.348  20.349 -0.1044 -0.2538 -0.6892
 6245TIP3    H140294   3.255   1.317  20.260 -2.2303  0.2719 -0.4533
 6245TIP3    H240295   3.205   1.410  20.368  0.5852 -0.0096  1.2038
 6246TIP3   OH240296   1.822   2.471  27.939 -0.1251 -0.5591 -0.1133
 6246TIP3    H140297   1.833   2.430  27.853 -0.8580  0.8054 -0.8911
 6246TIP3    H240298   1.735   2.444  27.967 -0.8264  0.8220 -0.8654
 6247TIP3   OH240299   2.813   2.548  31.230 -0.4093  0.1956  0.6587
 6247TIP3    H140300   2.834   2.578  31.318 -0.2891  1.8413  0.1007
 6247TIP3    H240301   2.765   2.466  31.244  0.1103  0.1193  2.2127
 6248TIP3   OH240302   1.640   2.876   1.420  0.0360 -0.1283 -0.0711
 6248TIP3    H140303   1.655   2.812   1.351 -2.0133 -0.3522 -0.3790
 6248TIP3    H240304   1.577   2.938   1.382 -0.1235  0.4987  1.1573
 6249TIP3   OH240305   1.827   0.092  28.902  0.1635  0.2706 -0.1140
 6249TIP3    H140306   1.784   0.124  28.981  0.5895 -0.6801  0.5199
 6249TIP3    H240307   1.822   0.166  28.840  0.6655  1.3829  1.1132
 6250TIP3   OH240308   3.134   0.212   1.696 -0.0173  0.0348  0.3076
 6250TIP3    H140309   3.092   0.214   1.610  0.5949 -2.0273 -0.0954
 6250TIP3    H240310   3.135   0.119   1.720 -2.1575  0.7065  3.5659
 6251TIP3   OH240311   0.640   2.357  26.930  0.2108  0.0425  0.0903
 6251TIP3    H140312   0.638   2.262  26.936 -1.1482 -0.1418 -2.1371
 6251TIP3    H240313   0.560   2.386  26.975  0.7130  0.1908  0.9257
 6252TIP3   OH240314   0.117   1.703   5.213 -0.2227  0.7134  0.0463
 6252TIP3    H140315   0.039   1.753   5.193  0.8158  2.5892  0.5061
 6252TIP3    H240316   0.168   1.704   5.132 -0.4027 -0.0236 -0.0845
 6253TIP3   OH240317   0.996   0.404  11.615 -0.0597  0.1248 -0.2996
 6253TIP3    H140318   0.935   0.385  11.687 -0.0872 -0.2005 -0.4049
 6253TIP3    H240319   1.072   0.349  11.633 -0.0852  0.0070 -0.5423
 6254TIP3   OH240320   0.749   2.511   2.257 -0.3196  0.3788  0.5203
 6254TIP3    H140321   0.838   2.537   2.281  0.3217 -0.3481 -0.9126
 6254TIP3    H240322   0.744   2.530   2.163 -2.3750  2.2525  0.9399
 6255TIP3   OH240323   0.493   2.854  32.777 -0.2880  0.5477  0.2653
 6255TIP3    H140324   0.488   2.856  32.873 -2.1089  3.0946  0.2390
 6255TIP3    H240325   0.538   2.936  32.755  0.7748 -0.3678 -1.0829
 6256TIP3   OH240326   2.138   0.311  28.482  0.6414  0.2363  0.0585
 6256TIP3    H140327   2.090   0.359  28.415 -0.7652  1.4881  1.8597
 6256TIP3    H240328   2.207   0.372  28.511 -0.4563  0.8133  1.5812
 6257TIP3   OH240329   1.120   1.074  27.981  0.0114  0.1269 -0.2452
 6257TIP3    H140330   1.073   1.003  28.025 -0.8324  1.0889  0.4512
 6257TIP3    H240331   1.055   1.111  27.921  0.8564 -0.5368 -1.6198
 6258TIP3   OH240332   1.599   2.524   4.589  0.2101 -0.0119 -0.2802
 6258TIP3    H140333   1.606   2.619   4.595 -0.7395  0.1024 -0.7639
 6258TIP3    H240334   1.687   2.495   4.563  0.3025  0.8166 -0.9524
 6259TIP3   OH240335   2.593   2.260   3.408  0.5972  0.1431 -0.4422
 6259TIP3    H140336   2.663   2.284   3.346  1.6014 -3.8081 -1.0843
 6259TIP3    H240337   2.639   2.216   3.480 -1.0420 -0.0552  0.5169
 6260TIP3   OH240338   2.771   2.007   3.883 -0.2835  0.1301  0.6424
 6260TIP3    H140339   2.763   1.950   3.959  1.7370  0.0804  0.8722
 6260TIP3    H240340   2.856   2.050   3.894 -1.6734  3.1730  0.4369
 6261TIP3   OH240341   2.944   1.778   4.046 -0.0354  0.0775  0.1305
 6261TIP3    H140342   2.918   1.689   4.071 -0.2320  0.3818  1.0673
 6261TIP3    H240343   2.977   1.770   3.957  0.7507 -1.0948  0.5050
 6262TIP3   OH240344   1.883   1.909  17.737  0.9061  0.6119  0.2658
 6262TIP3    H140345   1.895   1.961  17.816  0.2136 -1.6630  1.9782
 6262TIP3    H240346   1.948   1.839  17.743  1.0700  0.5651 -1.3889
 6263TIP3   OH240347   1.702   1.347  30.427  0.2810 -0.0770 -0.4237
 6263TIP3    H140348   1.626   1.336  30.484  0.2685  1.2391 -0.1630
 6263TIP3    H240349   1.764   1.280  30.457  0.9021  1.5259  2.2020
 6264TIP3   OH240350   2.812   0.268  29.916 -0.2539  0.4984  0.2497
 6264TIP3    H140351   2.770   0.211  29.980  1.1327  1.1334  1.7870
 6264TIP3    H240352   2.762   0.349  29.920 -3.0946 -0.8328 -2.9079
 6265TIP3   OH240353   0.268   2.369   7.213  0.1801  0.4062  0.4258
 6265TIP3    H140354   0.238   2.369   7.304 -0.3866 -0.5822  0.2501
 6265TIP3    H240355   0.201   2.321   7.165  0.3844  1.0680 -0.5591
 6266TIP3   OH240356   0.458   2.260   2.026 -0.3277  0.2770 -0.1025
 6266TIP3    H140357   0.553   2.261   2.035 -0.4420  0.9267  1.2615
 6266TIP3    H240358   0.432   2.174   2.059 -0.2897  0.5477  0.6615
 6267TIP3   OH240359   2.721   2.311  31.604 -0.1200  0.1428 -0.1793
 6267TIP3    H140360   2.711   2.236  31.664 -1.1654  0.1745 -0.2915
 6267TIP3    H240361   2.654   2.373  31.633  0.6901  1.0299 -0.1284
 6268TIP3   OH240362   1.337   0.580  26.297  0.2531 -0.0503  0.5180
 6268TIP3    H140363   1.362   0.497  26.336  1.8240 -0.0159 -0.3156
 6268TIP3    H240364   1.375   0.646  26.355  0.7150  0.0349  0.1288
 6269TIP3   OH240365   1.362   0.371   3.327  0.1880  0.2027  0.4087
 6269TIP3    H140366   1.311   0.448   3.302  1.4680  0.0263 -3.4281
 6269TIP3    H240367   1.329   0.301   3.270  1.3548 -1.2273  1.4135
 6270TIP3   OH240368   0.780   1.297  26.623 -0.0826 -0.6310  0.3957
 6270TIP3    H140369   0.688   1.282  26.601 -0.8828  2.2923  1.2578
 6270TIP3    H240370   0.816   1.342  26.546 -0.1385  0.6021  1.0648
 6271TIP3   OH240371   1.727   0.308   2.426  0.4449  0.1101 -1.1642
 6271TIP3    H140372   1.702   0.296   2.334  1.0460  0.6787 -1.4058
 6271TIP3    H240373   1.763   0.397   2.430  1.5668 -0.3405 -0.6518
 6272TIP3   OH240374   1.729   3.168  29.355 -1.0114 -0.0262 -0.4216
 6272TIP3    H140375   1.700   3.259  29.350 -0.4119  0.1299 -1.2703
 6272TIP3    H240376   1.771   3.161  29.440 -1.0207  0.5097 -0.3691
 6273TIP3   OH240377   1.832   1.211  25.791  0.3027  0.1364  0.4095
 6273TIP3    H140378   1.795   1.162  25.864 -0.8415  1.2737  0.6322
 6273TIP3    H240379   1.829   1.302  25.818  0.3620  0.5371 -0.8362
 6274TIP3   OH240380   1.127   1.675  27.494  0.1819 -0.6544  0.2542
 6274TIP3    H140381   1.167   1.619  27.561  0.4956 -1.3301 -0.4977
 6274TIP3    H240382   1.039   1.640  27.482  0.5145 -1.2256 -0.5008
 6275TIP3   OH240383   2.318   2.467  23.118 -0.2948  0.2174 -0.2681
 6275TIP3    H140384   2.271   2.517  23.052  0.4301  0.4576 -0.6126
 6275TIP3    H240385   2.406   2.456  23.082  0.1609  0.4852  0.7201
 6276TIP3   OH240386   1.872   3.300  32.342 -0.7467 -0.1561  0.1665
 6276TIP3    H140387   1.935   3.231  32.365 -1.1722 -0.6429 -0.1162
 6276TIP3    H240388   1.799   3.253  32.302 -1.2940  0.4054  0.5003
 6277TIP3   OH240389   0.995   1.157  30.838 -0.0908 -0.0848  0.1910
 6277TIP3    H140390   0.933   1.146  30.911  1.6585 -2.1188  1.4905
 6277TIP3    H240391   0.969   1.239  30.797 -2.8752 -0.2474  1.3909
 6278TIP3   OH240392   3.508   0.459  29.856  0.4111  0.2807 -0.1576
 6278TIP3    H140393   3.440   0.503  29.805  1.4009  0.0655 -1.7353
 6278TIP3    H240394   3.590   0.487  29.815  1.3567  1.0995  2.1125
 6279TIP3   OH240395   2.497   1.976  27.489  0.8763  0.0162 -0.6597
 6279TIP3    H140396   2.410   2.005  27.461  0.4706 -2.0711 -1.8153
 6279TIP3    H240397   2.524   2.039  27.556  0.2993  3.1841 -3.1571
 6280TIP3   OH240398   1.629   2.342  27.599  0.3624  0.3993  0.2953
 6280TIP3    H140399   1.644   2.253  27.568  0.9268  0.5242  0.1879
 6280TIP3    H240400   1.717   2.377  27.615  0.3160  1.6695 -1.7690
 6281TIP3   OH240401   1.599   1.288   2.529  0.1149 -0.3944  0.0021
 6281TIP3    H140402   1.640   1.363   2.485  1.7603 -1.1350  0.1943
 6281TIP3    H240403   1.612   1.215   2.468 -0.9776 -0.6577  0.0617
 6282TIP3   OH240404   1.982   3.159  30.109 -0.5263 -0.6768 -0.2698
 6282TIP3    H140405   2.034   3.082  30.131 -1.1487 -0.7102  1.1833
 6282TIP3    H240406   2.038   3.211  30.052  1.9304  0.2697  2.7620
 6283TIP3   OH240407   0.165   2.873   3.264 -0.1635  0.2309 -0.2433
 6283TIP3    H140408   0.156   2.954   3.314  1.7781  0.9020 -0.8534
 6283TIP3    H240409   0.215   2.814   3.322  1.0140  0.5711 -0.8743
 6284TIP3   OH240410   3.030   2.613   0.240 -0.0766  0.0647 -0.0157
 6284TIP3    H140411   2.957   2.570   0.285 -1.8998  0.8625 -2.0201
 6284TIP3    H240412   3.044   2.694   0.288 -1.1156  0.2967 -0.0791
 6285TIP3   OH240413   3.216   0.944  27.638 -0.6075  0.2863 -0.0662
 6285TIP3    H140414   3.143   0.999  27.668 -0.6943 -0.4721  1.2307
 6285TIP3    H240415   3.209   0.944  27.543 -1.3718  1.4695 -0.0323
 6286TIP3   OH240416   3.488   2.554  18.916 -0.0702  0.2703 -0.3508
 6286TIP3    H140417   3.533   2.474  18.943  1.1952  1.0423 -0.0982
 6286TIP3    H240418   3.449   2.589  18.997 -0.8966 -0.2370 -0.5164
 6287TIP3   OH240419   0.724   2.097   7.601  0.1007  0.1585  0.5473
 6287TIP3    H140420   0.676   2.109   7.519 -1.0632  0.4213  1.2384
 6287TIP3    H240421   0.768   2.181   7.615  0.6010 -0.0118  0.0122
 6288TIP3   OH240422   1.205   1.033   0.358 -0.1285  0.0887 -0.2309
 6288TIP3    H140423   1.236   1.067   0.442  1.7552  0.3079 -0.9668
 6288TIP3    H240424   1.126   1.084   0.339  0.8083  1.7908  0.2579
 6289TIP3   OH240425   1.264   1.225  31.924  0.0183  0.0375 -0.0812
 6289TIP3    H140426   1.181   1.259  31.892  0.1532 -0.8431 -1.4174
 6289TIP3    H240427   1.251   1.216  32.019 -0.6621  1.9109  0.0422
 6290TIP3   OH240428   0.290   1.270   3.432  0.8531  0.2791  0.6217
 6290TIP3    H140429   0.196   1.283   3.438  0.7306  0.5349 -1.2581
 6290TIP3    H240430   0.328   1.345   3.478  0.1054  2.7292 -2.4249
 6291TIP3   OH240431   2.845   0.632   0.873  0.2271 -0.1969 -0.5559
 6291TIP3    H140432   2.775   0.584   0.918  0.2358 -0.6835 -1.0449
 6291TIP3    H240433   2.889   0.681   0.942 -0.0100 -0.6152 -0.0952
 6292TIP3   OH240434   1.605   1.214   4.493 -0.0589  0.2819 -0.2079
 6292TIP3    H140435   1.578   1.197   4.403 -1.0550  1.7614 -0.2360
 6292TIP3    H240436   1.690   1.256   4.485  0.4654 -0.7863 -0.3660
 6293TIP3   OH240437   1.481   2.321   6.938 -0.2127 -0.3838  0.2552
 6293TIP3    H140438   1.548   2.252   6.940 -1.2372 -1.3831  1.0036
 6293TIP3    H240439   1.411   2.288   6.994 -0.7419  1.2719  0.6210
 6294TIP3   OH240440   1.996   0.402   6.079 -0.1881 -0.4099  0.1450
 6294TIP3    H140441   2.009   0.422   6.172  0.1840 -1.7165  0.3969
 6294TIP3    H240442   1.902   0.411   6.066 -0.2819 -0.5017  0.7250
 6295TIP3   OH240443   1.898   0.681  29.561 -1.0853 -0.7136 -0.3846
 6295TIP3    H140444   1.988   0.692  29.594 -0.0460 -3.0289 -2.1502
 6295TIP3    H240445   1.854   0.629  29.628 -1.2146  0.5757  0.5726
 6296TIP3   OH240446   1.520   3.093  14.023  0.2040  0.0655 -0.2336
 6296TIP3    H140447   1.535   3.028  14.092  1.6757 -0.4586 -1.0067
 6296TIP3    H240448   1.426   3.088  14.005  0.1459 -1.2184  0.3362
 6297TIP3   OH240449   0.781   1.261   4.492  0.4057 -0.1186 -0.0945
 6297TIP3    H140450   0.836   1.263   4.571  0.2619 -3.1814  0.2104
 6297TIP3    H240451   0.840   1.229   4.423 -0.3426 -0.9874 -0.3494
 6298TIP3   OH240452   1.450   0.916  31.551 -0.1791  0.2510  0.1070
 6298TIP3    H140453   1.543   0.903  31.568  0.2348  0.5951 -1.6885
 6298TIP3    H240454   1.416   0.956  31.631  1.4961  1.3898  0.3015
 6299TIP3   OH240455   3.206   2.478  30.405  0.4955  0.2004  0.0334
 6299TIP3    H140456   3.199   2.396  30.356  2.2288 -0.3307  0.6023
 6299TIP3    H240457   3.119   2.518  30.397  0.2199 -0.6900 -1.9828
 6300TIP3   OH240458   1.196   2.612   1.898 -0.4669  0.1841 -0.0824
 6300TIP3    H140459   1.241   2.528   1.895 -0.2298  0.2850  0.4496
 6300TIP3    H240460   1.217   2.654   1.815  1.6419  0.8400  0.7166
 6301TIP3   OH240461   1.246   3.275  30.125 -0.3886  0.5440 -0.5136
 6301TIP3    H140462   1.199   3.359  30.122  1.7173  1.7956 -0.0877
 6301TIP3    H240463   1.332   3.294  30.087  0.0653 -1.4955 -0.6119
 6302TIP3   OH240464   1.211   1.443   1.011 -0.0959  0.1805 -0.3317
 6302TIP3    H140465   1.195   1.510   1.078  0.9378  1.1997 -1.0814
 6302TIP3    H240466   1.126   1.430   0.969 -0.5742  0.1106  0.6370
 6303TIP3   OH240467   2.224   0.824   4.414  0.1769 -0.0639  0.9060
 6303TIP3    H140468   2.198   0.764   4.344  0.3482  1.1348 -0.2294
 6303TIP3    H240469   2.145   0.834   4.467 -1.4095  2.3293 -1.6116
 6304TIP3   OH240470   2.149   1.393   0.018 -0.6808 -0.1195 -0.7932
 6304TIP3    H140471   2.214   1.403   0.088 -1.3134  0.8610 -0.3070
 6304TIP3    H240472   2.187   1.330  -0.043 -0.2179 -1.1961  0.5612
 6305TIP3   OH240473   2.149   3.155  29.312 -0.1288  0.7305 -0.6370
 6305TIP3    H140474   2.107   3.240  29.326  0.0443  0.5300  1.4480
 6305TIP3    H240475   2.234   3.163  29.356 -0.4143 -0.7315  0.2676
 6306TIP3   OH240476   3.012   0.189  28.852 -0.6418  0.1152 -0.4098
 6306TIP3    H140477   3.028   0.165  28.761  0.8188 -1.7588  0.2879
 6306TIP3    H240478   3.099   0.197  28.891 -1.2470  0.1703  0.9967
 6307TIP3   OH240479   0.476   3.098  31.720  0.1631  0.0082 -0.5493
 6307TIP3    H140480   0.437   3.019  31.683 -0.0483 -0.4832  0.6756
 6307TIP3    H240481   0.546   3.121  31.659  2.1901 -2.8252  0.4749
 6308TIP3   OH240482   1.748   1.953  29.707 -0.2231 -0.7222 -0.0060
 6308TIP3    H140483   1.695   1.980  29.632  1.8178  1.0050 -0.9382
 6308TIP3    H240484   1.756   2.032  29.760  1.3254 -0.9393  0.1316
 6309TIP3   OH240485   0.128   3.431   0.760  0.0752 -0.2686 -0.1226
 6309TIP3    H140486   0.107   3.438   0.667 -2.2482 -1.3988  0.2436
 6309TIP3    H240487   0.076   3.501   0.802  1.3736  0.4626  0.3165
 6310TIP3   OH240488   0.173   2.673   6.540  0.3695 -0.1384 -0.0067
 6310TIP3    H140489   0.098   2.715   6.497  0.9415  0.5510 -0.3470
 6310TIP3    H240490   0.158   2.686   6.633 -0.3035 -0.6437 -0.0367
 6311TIP3   OH240491   2.886   0.658   7.061  0.0615 -0.4029  0.3339
 6311TIP3    H140492   2.900   0.566   7.038  0.8990  0.0814 -1.2843
 6311TIP3    H240493   2.792   0.665   7.079 -0.1120 -1.4532 -0.1313
 6312TIP3   OH240494   0.594   0.623  28.576  0.0270 -0.3854 -0.5780
 6312TIP3    H140495   0.604   0.528  28.588  0.9277 -0.0253  2.2197
 6312TIP3    H240496   0.628   0.639  28.488 -2.1614 -2.8649 -2.0386
 6313TIP3   OH240497   2.105   1.543  28.538  0.2276  0.1182 -0.5443
 6313TIP3    H140498   2.101   1.595  28.458  2.2707  1.1568 -0.0421
 6313TIP3    H240499   2.061   1.461  28.516 -0.9050  1.1011 -2.1273
 6314TIP3   OH240500   0.536   0.320  29.438  0.5079  0.2249  0.3121
 6314TIP3    H140501   0.613   0.323  29.381  1.3625 -1.5794  1.2548
 6314TIP3    H240502   0.573   0.320  29.527 -0.6640  0.7503  0.8130
 6315TIP3   OH240503   0.202   0.901  29.469 -0.4580 -0.0289 -0.1546
 6315TIP3    H140504   0.154   0.958  29.409 -2.4282 -0.4210  0.9353
 6315TIP3    H240505   0.212   0.819  29.421 -0.6012  0.1664 -0.5196
 6316TIP3   OH240506   0.410   0.762  26.222  0.7072  0.1018  0.7851
 6316TIP3    H140507   0.429   0.725  26.136  1.4296  0.8351  0.6102
 6316TIP3    H240508   0.315   0.777  26.222  0.8885  1.4910 -0.4858
 6317TIP3   OH240509   2.464   1.301   2.250  0.4949 -0.4244  0.2563
 6317TIP3    H140510   2.384   1.315   2.301 -0.2411  1.3419 -1.2574
 6317TIP3    H240511   2.434   1.254   2.172  1.0953 -0.6378  0.1553
 6318TIP3   OH240512   0.248   2.878  28.011  0.1314  0.5918  0.0674
 6318TIP3    H140513   0.313   2.811  27.989 -1.4080 -0.5706 -1.1134
 6318TIP3    H240514   0.190   2.881  27.935 -1.0799  1.7777  0.9895
 6319TIP3   OH240515   3.004   1.865  21.548 -0.2764 -0.3172 -0.0996
 6319TIP3    H140516   2.988   1.795  21.484  0.0900 -0.5699  0.0813
 6319TIP3    H240517   2.961   1.942  21.511  1.6925  0.1049 -1.7238
 6320TIP3   OH240518   2.166   1.200   6.987  0.7893  0.0350  0.0501
 6320TIP3    H140519   2.108   1.127   6.967  0.7379  0.1444 -0.2136
 6320TIP3    H240520   2.224   1.206   6.910 -1.1778  2.2034 -1.3958
 6321TIP3   OH240521   2.554   1.413  31.864 -0.0822 -0.0295  0.1779
 6321TIP3    H140522   2.476   1.380  31.819  0.8899 -0.2751 -1.4120
 6321TIP3    H240523   2.566   1.502  31.830  1.5896 -0.7835 -1.4181
 6322TIP3   OH240524   1.419   1.577   3.001 -0.2845 -0.3614 -0.4862
 6322TIP3    H140525   1.433   1.567   2.907  0.9424  1.9516 -0.6113
 6322TIP3    H240526   1.331   1.612   3.009 -0.7207 -1.3634 -0.6733
 6323TIP3   OH240527   2.546   3.305   3.897 -0.5009  0.0131  0.4604
 6323TIP3    H140528   2.594   3.327   3.817  0.6022  0.7680  1.3130
 6323TIP3    H240529   2.610   3.262   3.953 -1.4825 -1.3192  0.6214
 6324TIP3   OH240530   0.695   0.645   6.639 -0.2671  0.3352 -0.0297
 6324TIP3    H140531   0.666   0.602   6.559 -0.1892 -0.9655  0.6252
 6324TIP3    H240532   0.696   0.738   6.617 -0.5318  0.0216 -1.4437
 6325TIP3   OH240533   1.993   1.986   1.549  0.3499 -0.2248  0.0842
 6325TIP3    H140534   2.082   2.003   1.520  0.3165  2.8085  1.4579
 6325TIP3    H240535   1.938   2.033   1.486 -0.4534 -2.7976 -1.2919
 6326TIP3   OH240536   0.902   3.045  30.352 -0.5191  0.1082  0.0381
 6326TIP3    H140537   0.860   3.120  30.395  1.3580 -0.1343  2.4605
 6326TIP3    H240538   0.835   2.977  30.353 -1.1580  0.7266  0.7993
 6327TIP3   OH240539   2.929   2.255  20.618 -0.2930  0.2210  0.3153
 6327TIP3    H140540   2.955   2.211  20.537  0.0107  3.8358 -1.7642
 6327TIP3    H240541   3.007   2.250  20.674  0.2188 -0.5721 -0.4351
 6328TIP3   OH240542   3.066   1.156  31.066 -0.3911 -0.2328  0.5937
 6328TIP3    H140543   3.139   1.131  31.010 -1.1269  1.3193 -1.1451
 6328TIP3    H240544   3.045   1.076  31.115  1.2023 -1.2310 -0.2631
 6329TIP3   OH240545   1.882   3.057   4.684 -0.0187  0.2781 -0.1811
 6329TIP3    H140546   1.827   3.117   4.734 -1.5889 -1.2480  0.0363
 6329TIP3    H240547   1.963   3.106   4.668 -1.1851  2.4175  0.0039
 6330TIP3   OH240548   1.416   2.388  20.622 -0.3652 -0.2128  0.2660
 6330TIP3    H140549   1.478   2.381  20.695 -1.4810 -0.1241  1.2503
 6330TIP3    H240550   1.462   2.439  20.556  1.5753 -2.2363 -0.0930
 6331TIP3   OH240551   1.365   3.002  10.906  0.1235 -0.0849  0.4150
 6331TIP3    H140552   1.311   2.924  10.917  0.0075  0.1537  1.6846
 6331TIP3    H240553   1.302   3.074  10.901  0.2775  0.2211  2.1228
 6332TIP3   OH240554   1.509   1.913   4.469 -0.1468 -0.5633 -0.3638
 6332TIP3    H140555   1.603   1.913   4.455 -0.1722  1.0650 -0.8089
 6332TIP3    H240556   1.488   2.004   4.492 -1.5143 -1.0413  0.4009
 6333TIP3   OH240557   1.264   1.132   5.781 -0.3088  0.0018 -0.0341
 6333TIP3    H140558   1.264   1.215   5.829  1.3487 -0.0741  0.1416
 6333TIP3    H240559   1.237   1.067   5.846 -1.1157  0.3203 -0.0408
 6334TIP3   OH240560   1.771   0.618  29.339  0.1421 -0.3527  0.2507
 6334TIP3    H140561   1.767   0.711  29.317 -0.8530 -0.0145  1.7049
 6334TIP3    H240562   1.778   0.616  29.434 -2.8076 -1.7502  0.5571
 6335TIP3   OH240563   1.944   2.951   1.187  0.3560 -0.6088 -0.1347
 6335TIP3    H140564   1.981   2.902   1.113  3.2507  1.3541 -0.1392
 6335TIP3    H240565   1.944   2.888   1.259  3.0184 -1.0384 -0.3853
 6336TIP3   OH240566   2.053   1.746   5.914  0.0869 -0.0577  0.2510
 6336TIP3    H140567   2.041   1.766   5.822 -1.3367  1.1194  0.6530
 6336TIP3    H240568   2.130   1.797   5.940  0.4265 -0.3103 -0.2503
 6337TIP3   OH240569   2.818   1.669  18.250 -0.0947 -0.4646 -0.9140
 6337TIP3    H140570   2.814   1.729  18.175 -0.8693 -0.1959 -0.6716
 6337TIP3    H240571   2.836   1.583  18.212 -1.7491 -0.5577 -1.5398
 6338TIP3   OH240572   1.042   3.121   3.098  0.1807 -0.0627 -0.3925
 6338TIP3    H140573   0.978   3.084   3.037 -1.2725  0.8695  0.5263
 6338TIP3    H240574   1.012   3.093   3.184  1.6211 -0.4786 -0.0050
 6339TIP3   OH240575   2.297   1.334   2.470  0.0735  0.2478 -0.2003
 6339TIP3    H140576   2.340   1.251   2.490  0.9123  0.8722  0.6161
 6339TIP3    H240577   2.210   1.325   2.509  0.4283  0.0514  0.5586
 6340TIP3   OH240578   2.224   1.537   1.006 -0.2697 -0.1030 -0.0817
 6340TIP3    H140579   2.290   1.526   1.075  0.5621 -0.1102 -0.8655
 6340TIP3    H240580   2.211   1.631   1.000  0.3038 -0.0469 -0.5066
 6341TIP3   OH240581   0.018   2.025   6.669 -0.5507  0.1763 -0.3401
 6341TIP3    H140582   0.055   1.996   6.752  0.2814 -0.0306 -0.7665
 6341TIP3    H240583   0.084   2.002   6.604 -1.6218 -0.5833 -1.1988
 6342TIP3   OH240584   3.006   1.335  18.926 -0.0836 -0.7156  0.1741
 6342TIP3    H140585   3.041   1.417  18.962 -0.7137  0.3313 -1.4681
 6342TIP3    H240586   3.082   1.278  18.919  0.7361  0.4146 -0.4376
 6343TIP3   OH240587   1.395   0.562   4.995 -0.1071 -0.6266  0.6331
 6343TIP3    H140588   1.411   0.574   5.089 -1.4532  0.3733  0.7535
 6343TIP3    H240589   1.478   0.585   4.954 -0.3925  2.0557  1.3898
 6344TIP3   OH240590   2.951   2.355  32.018 -0.3399 -0.1227  0.2047
 6344TIP3    H140591   3.036   2.330  31.983  0.7537  2.3368  0.8921
 6344TIP3    H240592   2.943   2.306  32.099  2.0640  2.0074  1.8980
 6345TIP3   OH240593   2.149   3.123  12.401  0.6015 -0.0337  0.0339
 6345TIP3    H140594   2.182   3.191  12.460  0.7915  0.8416 -1.0368
 6345TIP3    H240595   2.098   3.171  12.336  1.0661 -0.8639 -0.9705
 6346TIP3   OH240596   1.783   0.418  31.076  0.3822 -0.3455  0.4740
 6346TIP3    H140597   1.701   0.437  31.122 -0.0260 -2.4042  0.7170
 6346TIP3    H240598   1.827   0.354  31.133  2.8947  1.7881  1.0960
 6347TIP3   OH240599   2.183   2.663  11.667 -0.2586  0.0289 -0.0311
 6347TIP3    H140600   2.262   2.693  11.712  1.3837 -2.2641 -1.1538
 6347TIP3    H240601   2.189   2.701  11.580  0.2298 -1.0380 -0.4781
 6348TIP3   OH240602   1.005   3.191  32.193  0.1695 -0.5406 -0.0599
 6348TIP3    H140603   1.065   3.264  32.210 -0.8908  0.1051  1.1785
 6348TIP3    H240604   0.919   3.233  32.185 -0.5187 -1.6569  1.0681
 6349TIP3   OH240605   2.333   1.275   5.209  0.3014 -0.7135 -0.1842
 6349TIP3    H140606   2.307   1.207   5.271  1.9883 -1.2945 -0.0592
 6349TIP3    H240607   2.371   1.227   5.135  1.5851  0.0506 -0.0624
 6350TIP3   OH240608   1.493   0.561   0.242 -0.1826 -0.1066  0.7242
 6350TIP3    H140609   1.562   0.522   0.189  0.1184 -0.0979  1.1110
 6350TIP3    H240610   1.493   0.653   0.218  1.1201  0.2473  1.9975
 6351TIP3   OH240611   0.074   3.242  28.136 -0.3723  0.0851  0.0599
 6351TIP3    H140612  -0.002   3.205  28.181 -0.3408 -1.0832 -0.7843
 6351TIP3    H240613   0.039   3.313  28.082 -0.5867  0.7013  1.0014
 6352TIP3   OH240614   0.531   1.367   0.768  0.3377  0.2507 -0.0826
 6352TIP3    H140615   0.583   1.335   0.694 -1.2659 -0.9084 -0.7525
 6352TIP3    H240616   0.526   1.291   0.827 -1.8015 -0.1621 -0.7329
 6353TIP3   OH240617   2.253   0.348   0.174  0.5065  0.0107  0.2376
 6353TIP3    H140618   2.289   0.312   0.093  0.4371 -0.5853  0.4651
 6353TIP3    H240619   2.161   0.324   0.173  0.4354  0.2709  0.3501
 6354TIP3   OH240620   0.078   2.403  31.104 -0.4010 -0.2134  0.1063
 6354TIP3    H140621   0.034   2.338  31.049  0.7550 -0.7698 -0.2144
 6354TIP3    H240622   0.109   2.469  31.042 -0.6419  0.0767  0.2997
 6355TIP3   OH240623   2.265   2.386  14.306 -0.1185 -0.0152  0.3339
 6355TIP3    H140624   2.307   2.422  14.384  1.1463 -1.7029  0.4877
 6355TIP3    H240625   2.277   2.454  14.239 -1.1718  1.4326  1.5234
 6356TIP3   OH240626   2.402   0.776  28.656  0.0401 -0.6531  0.2930
 6356TIP3    H140627   2.308   0.789  28.648  0.1410 -0.2398 -0.3041
 6356TIP3    H240628   2.419   0.779  28.750 -0.3758  0.4947  0.3410
 6357TIP3   OH240629   0.531   1.013   2.797  0.0759 -0.1014 -0.1937
 6357TIP3    H140630   0.607   1.053   2.755  0.7638 -1.7010 -0.5756
 6357TIP3    H240631   0.531   0.922   2.765 -0.9872 -0.6090  1.1367
 6358TIP3   OH240632   0.438   2.249   3.017 -0.2161  0.3959  0.1326
 6358TIP3    H140633   0.346   2.248   2.991  0.0871  2.0697 -1.1821
 6358TIP3    H240634   0.482   2.195   2.951 -0.0545  0.8578 -0.1387
 6359TIP3   OH240635   3.156   1.883  28.505 -0.2721  0.5315 -0.4519
 6359TIP3    H140636   3.161   1.971  28.466 -1.1676  0.8820  0.1913
 6359TIP3    H240637   3.063   1.861  28.501 -0.1843  0.0127  0.2723
 6360TIP3   OH240638   3.382   1.056  32.172  0.0447 -0.0121  0.0626
 6360TIP3    H140639   3.325   1.084  32.100 -1.1469  1.1647  1.4035
 6360TIP3    H240640   3.342   1.094  32.251  0.4993 -2.4090  1.5563
 6361TIP3   OH240641   2.250   3.138  14.427 -0.4633  0.5922 -0.1989
 6361TIP3    H140642   2.180   3.073  14.433  1.3047 -1.3567  0.6234
 6361TIP3    H240643   2.215   3.216  14.469 -1.9242 -0.5244  0.7328
 6362TIP3   OH240644   2.919   1.562  30.390 -0.7388  0.5580  0.4934
 6362TIP3    H140645   2.857   1.574  30.317  0.6609  0.5326 -0.7566
 6362TIP3    H240646   3.005   1.580  30.351  0.0779  0.2623  2.0899
 6363TIP3   OH240647   1.325   2.883  28.132 -0.4106  0.4054  0.2099
 6363TIP3    H140648   1.361   2.971  28.139 -0.1836  0.3195  0.1384
 6363TIP3    H240649   1.392   2.834  28.084 -0.7701  0.3297 -0.2272
 6364TIP3   OH240650   1.588   0.034  27.532  0.0399 -0.5037 -0.0454
 6364TIP3    H140651   1.496   0.010  27.541 -0.5291  2.0398  2.3645
 6364TIP3    H240652   1.628   0.008  27.614  1.2900 -0.7226 -0.6992
 6365TIP3   OH240653   1.509   0.543  11.796  0.6288  0.4268 -0.1487
 6365TIP3    H140654   1.430   0.499  11.829 -0.1526  1.0761 -1.0903
 6365TIP3    H240655   1.579   0.512  11.853 -0.1494 -0.8607  0.1601
 6366TIP3   OH240656   0.169   0.003  26.426  0.0069 -0.4110  0.0747
 6366TIP3    H140657   0.082   0.016  26.388  0.3661 -0.0540 -0.6431
 6366TIP3    H240658   0.212  -0.058  26.366 -0.1869 -1.6359  1.1311
 6367TIP3   OH240659   2.754   3.331  30.001  0.2973 -0.2699 -0.3008
 6367TIP3    H140660   2.817   3.259  30.008  1.3204  0.6511  0.2252
 6367TIP3    H240661   2.796   3.404  30.046 -0.7485  0.6502 -0.7782
 6368TIP3   OH240662   0.998   1.869  28.386  0.2998  0.7480  0.3691
 6368TIP3    H140663   1.069   1.818  28.425 -0.4308 -1.4169 -0.9606
 6368TIP3    H240664   0.922   1.851  28.441 -0.2798 -0.7978 -0.8415
 6369TIP3   OH240665   2.220   2.931  32.323  0.6343  0.5388  0.1305
 6369TIP3    H140666   2.146   2.871  32.339  1.4232  0.1537  2.8123
 6369TIP3    H240667   2.234   2.927  32.229 -0.8710 -1.6783 -0.0727
 6370TIP3   OH240668   1.958   3.500   2.638 -0.2827 -0.0683 -0.5744
 6370TIP3    H140669   2.006   3.565   2.587  1.6349  0.6638  1.9666
 6370TIP3    H240670   1.939   3.544   2.721  0.8721 -2.5893  1.1404
 6371TIP3   OH240671   2.021   1.793   3.462  0.7237  0.1878  0.0355
 6371TIP3    H140672   2.026   1.698   3.455 -0.2987  0.1312 -0.0372
 6371TIP3    H240673   2.063   1.826   3.383 -1.5680 -0.2725 -1.4782
 6372TIP3   OH240674   3.339   0.759   1.972 -0.0487  0.0218  0.0000
 6372TIP3    H140675   3.285   0.735   1.896 -0.5221  2.6357 -0.6051
 6372TIP3    H240676   3.365   0.676   2.011 -1.5520 -1.3752 -1.8008
 6373TIP3   OH240677   1.058   1.452  32.143 -0.4442  0.2917 -0.2868
 6373TIP3    H140678   1.010   1.531  32.117  1.0880  0.9792 -1.1586
 6373TIP3    H240679   1.035   1.387  32.076 -1.2951  0.1388  0.1371
 6374TIP3   OH240680   3.508   0.927   1.176 -0.4353  0.3792 -0.7860
 6374TIP3    H140681   3.583   0.943   1.234 -0.9260 -2.6593  0.9047
 6374TIP3    H240682   3.441   0.988   1.206  0.1066  0.4613  0.3111
 6375TIP3   OH240683   2.242   3.510  27.917  0.4506  0.0266 -0.6398
 6375TIP3    H140684   2.200   3.524  28.002  2.3500  0.3871  0.2860
 6375TIP3    H240685   2.180   3.455  27.869 -1.2213  0.8017  0.5037
 6376TIP3   OH240686   3.115   1.451   6.120 -0.1497 -0.1595 -0.1562
 6376TIP3    H140687   3.155   1.364   6.121 -1.0845 -0.6027  0.8532
 6376TIP3    H240688   3.034   1.440   6.070 -0.4521  0.0430  0.2857
 6377TIP3   OH240689   2.506   0.795   2.749 -0.0267 -0.7033  0.0171
 6377TIP3    H140690   2.579   0.798   2.687  0.6960 -2.0820  0.7450
 6377TIP3    H240691   2.489   0.886   2.771  2.0468 -0.3695  0.4515
 6378TIP3   OH240692   2.141   3.287   2.649  0.0224  0.1885 -0.1629
 6378TIP3    H140693   2.191   3.259   2.726 -1.0577  0.2699  0.5811
 6378TIP3    H240694   2.089   3.361   2.679 -1.0643 -0.3134 -0.7304
 6379TIP3   OH240695   3.227   2.650  31.411  0.1226  0.2990  0.2993
 6379TIP3    H140696   3.285   2.600  31.468 -0.3895 -1.7198 -0.8299
 6379TIP3    H240697   3.244   2.615  31.323 -0.9418  1.4881 -0.4150
 6380TIP3   OH240698   1.034   2.040  25.690 -0.2481 -0.2469 -0.0495
 6380TIP3    H140699   1.085   2.107  25.736  1.5463 -2.0998  0.7669
 6380TIP3    H240700   0.955   2.030  25.743 -0.1463  0.6031  0.2883
 6381TIP3   OH240701   0.586   0.841   4.307 -0.1331 -1.0782  0.2305
 6381TIP3    H140702   0.619   0.905   4.244  1.8417 -2.2725 -0.0619
 6381TIP3    H240703   0.637   0.762   4.289  0.2642 -1.5801  3.0640
 6382TIP3   OH240704   3.083   2.555   7.673 -0.8350 -0.1627  0.3491
 6382TIP3    H140705   3.107   2.586   7.585 -0.0898 -0.7552  0.3360
 6382TIP3    H240706   2.993   2.526   7.664 -0.8489  0.0202 -0.1611
 6383TIP3   OH240707   3.007   1.122  26.605  0.3772 -0.3057 -0.9282
 6383TIP3    H140708   2.977   1.159  26.521 -1.6631  0.7823  0.1917
 6383TIP3    H240709   2.989   1.028  26.598  0.6212 -0.2899 -1.8592
 6384TIP3   OH240710   2.093   1.843  26.651  0.3877 -0.6733 -0.3305
 6384TIP3    H140711   2.000   1.823  26.651  0.2318 -0.2660 -2.7360
 6384TIP3    H240712   2.136   1.758  26.652  0.0352 -0.8546  1.4770
 6385TIP3   OH240713   2.956   1.606  18.594  0.4824  0.3553  0.0066
 6385TIP3    H140714   2.936   1.613  18.687 -0.3835  2.5124 -0.2973
 6385TIP3    H240715   3.031   1.546  18.591 -0.2954 -0.8355  1.9343
 6386TIP3   OH240716   1.173   1.929   0.473  0.4771 -0.0175 -0.7009
 6386TIP3    H140717   1.128   1.988   0.413  0.0396  2.9252  2.2015
 6386TIP3    H240718   1.255   1.908   0.429 -0.5541  0.5453 -3.0071
 6387TIP3   OH240719   2.232   1.261  29.143  0.4562 -0.6712  0.1247
 6387TIP3    H140720   2.178   1.318  29.197 -1.3586 -2.9166  0.8535
 6387TIP3    H240721   2.217   1.290  29.053  3.2716  2.9160  0.5589
 6388TIP3   OH240722   1.561   1.365  26.985 -0.4666 -0.0974 -0.0681
 6388TIP3    H140723   1.467   1.347  26.972 -0.4380 -0.5793  0.3638
 6388TIP3    H240724   1.564   1.454  27.019 -0.8554 -0.4978  1.0425
 6389TIP3   OH240725   1.577   0.956  27.316  0.5829 -0.3377 -0.1901
 6389TIP3    H140726   1.534   0.932  27.235 -0.0206  1.2865 -0.4009
 6389TIP3    H240727   1.577   1.052  27.316  1.4142 -0.2955  1.2790
 6390TIP3   OH240728   0.243   1.593   4.246  0.1609  0.0791 -0.1563
 6390TIP3    H140729   0.171   1.640   4.205  0.7731  0.9202 -0.2933
 6390TIP3    H240730   0.307   1.580   4.176  1.5220  2.1460  0.6152
 6391TIP3   OH240731   0.761   2.049  32.410  0.1775  0.0168 -0.1946
 6391TIP3    H140732   0.716   2.087  32.335  4.0446  1.3333 -2.1071
 6391TIP3    H240733   0.756   1.954  32.396  1.9452  0.2222 -3.0244
 6392TIP3   OH240734   2.791   3.306   1.666 -0.2970  0.1103 -0.2425
 6392TIP3    H140735   2.771   3.276   1.754 -0.6795  0.9170 -0.0476
 6392TIP3    H240736   2.870   3.258   1.641 -0.8550 -0.9892  0.0819
 6393TIP3   OH240737   2.865   2.833  12.150  0.1793  0.1612 -0.3414
 6393TIP3    H140738   2.933   2.892  12.118  0.0369 -0.4184 -1.7738
 6393TIP3    H240739   2.824   2.881  12.222  1.5966  0.8251  0.0541
 6394TIP3   OH240740   2.067   1.567   4.803 -0.0686 -0.1468  0.3244
 6394TIP3    H140741   1.977   1.540   4.785 -1.2454  3.5062  0.0181
 6394TIP3    H240742   2.102   1.592   4.718  1.1899 -1.2339  0.4876
 6395TIP3   OH240743   1.619   1.639  30.967  0.0281  0.2639 -0.3401
 6395TIP3    H140744   1.574   1.718  30.937  0.3358  0.7426  0.4058
 6395TIP3    H240745   1.712   1.663  30.967  0.0770  0.1305  0.5051
 6396TIP3   OH240746   2.515   1.002  27.275 -0.2584  0.2704  0.1474
 6396TIP3    H140747   2.590   1.015  27.334 -1.0521 -1.7224  1.7401
 6396TIP3    H240748   2.471   0.924  27.310 -2.1447  0.4117 -1.7277
 6397TIP3   OH240749   1.320   1.308  30.707  0.1741  0.3967 -0.0857
 6397TIP3    H140750   1.263   1.370  30.752 -2.5684 -0.0383 -2.6448
 6397TIP3    H240751   1.384   1.282  30.773 -1.0244  2.8486  2.2486
 6398TIP3   OH240752   0.653   3.065  12.846  0.1807  0.4377 -0.9112
 6398TIP3    H140753   0.665   2.970  12.840 -0.4931  0.2820 -0.0220
 6398TIP3    H240754   0.573   3.082  12.795 -1.0206  0.1832  0.7781
 6399TIP3   OH240755   0.934   1.946   0.820 -0.1699  0.6240  0.1226
 6399TIP3    H140756   0.914   1.954   0.913  0.6663 -0.8896  0.4638
 6399TIP3    H240757   0.864   1.891   0.785 -0.6185  1.3903 -0.2101
 6400TIP3   OH240758   3.482   2.493  31.884 -0.0225  0.1341  0.3646
 6400TIP3    H140759   3.575   2.472  31.872 -0.4538 -1.9375  0.1963
 6400TIP3    H240760   3.450   2.426  31.944 -1.7940 -0.3814 -1.0485
 6401TIP3   OH240761   3.502   1.945   4.320  0.1993  0.0406 -0.3586
 6401TIP3    H140762   3.534   1.913   4.404 -0.4893 -1.3234 -0.5851
 6401TIP3    H240763   3.575   1.995   4.283  0.8959 -0.3008  0.5385
 6402TIP3   OH240764   3.486   0.229  30.460  0.3589  0.4799 -0.1625
 6402TIP3    H140765   3.507   0.152  30.513 -0.9769  0.0208 -0.2659
 6402TIP3    H240766   3.501   0.303  30.519  0.7976  0.0942  0.2176
 6403TIP3   OH240767   0.731   1.147   1.261  0.3286  0.5402  0.2812
 6403TIP3    H140768   0.764   1.104   1.340 -1.4753  1.3123  1.5314
 6403TIP3    H240769   0.783   1.226   1.253 -0.4392  1.2245  1.6226
 6404TIP3   OH240770   1.600   0.314   7.122  0.0277 -0.4935  0.4384
 6404TIP3    H140771   1.618   0.222   7.104  0.0420 -0.5507  0.7252
 6404TIP3    H240772   1.685   0.357   7.114  0.7347 -1.0462  3.5057
 6405TIP3   OH240773   1.836   0.072   1.730 -0.0935 -0.1697 -0.0172
 6405TIP3    H140774   1.863   0.158   1.698  0.9002 -0.9210 -1.2620
 6405TIP3    H240775   1.916   0.019   1.727 -0.7669 -1.2329  0.3982
 6406TIP3   OH240776   2.665   1.999  32.709  0.2171 -0.5286  0.3419
 6406TIP3    H140777   2.575   2.014  32.681  0.3840  2.1128  1.0239
 6406TIP3    H240778   2.658   1.928  32.774 -1.0853 -1.5845 -0.8913
 6407TIP3   OH240779   2.316   1.299  18.340 -0.0907  0.4141  0.1798
 6407TIP3    H140780   2.338   1.327  18.429  2.8042  1.8420 -0.8490
 6407TIP3    H240781   2.354   1.211  18.333 -0.8532  0.0477  0.4988
 6408TIP3   OH240782   0.281   0.717   1.923  0.2025 -0.7086 -0.1159
 6408TIP3    H140783   0.295   0.756   2.010  1.0709 -0.6864 -0.2575
 6408TIP3    H240784   0.290   0.623   1.938 -2.1874 -0.9521  0.2829
 6409TIP3   OH240785   3.355   1.079   3.682  0.0472 -0.4421  0.2541
 6409TIP3    H140786   3.410   1.155   3.700 -0.3635  0.0558 -0.5076
 6409TIP3    H240787   3.296   1.109   3.613  0.7803 -1.8651 -1.0521
 6410TIP3   OH240788   2.932   0.124   6.437 -0.5728  0.2616  0.3362
 6410TIP3    H140789   3.016   0.158   6.468 -0.9569  0.3538  1.3240
 6410TIP3    H240790   2.945   0.109   6.344  1.1852 -1.6165  0.7916
 6411TIP3   OH240791   0.792   0.844  25.751  0.2670  0.1665  0.3588
 6411TIP3    H140792   0.805   0.889  25.667  1.6449  1.5017  1.2403
 6411TIP3    H240793   0.700   0.861  25.773  0.1380  0.5730 -0.4490
 6412TIP3   OH240794   2.514   3.222  10.003  0.1865  0.1535 -0.1656
 6412TIP3    H140795   2.422   3.244   9.987  0.1459 -0.0998 -0.2767
 6412TIP3    H240796   2.537   3.272  10.082  0.4619  1.6329 -1.1427
 6413TIP3   OH240797   0.630   0.887   0.657  0.2420 -0.7188  0.1006
 6413TIP3    H140798   0.712   0.923   0.691  0.3464 -1.9156  1.1827
 6413TIP3    H240799   0.581   0.963   0.627  1.0720  0.1720  0.9378
 6414TIP3   OH240800   0.413   0.091  29.478 -0.1555 -0.3122  0.4025
 6414TIP3    H140801   0.448   0.169  29.435  0.0042 -0.3535  0.4567
 6414TIP3    H240802   0.472   0.076  29.552 -1.0162  0.3587  1.2453
 6415TIP3   OH240803   0.110   1.399   4.397  0.1519  0.1078  0.0077
 6415TIP3    H140804   0.150   1.483   4.375  0.0771  0.2484  0.4075
 6415TIP3    H240805   0.182   1.336   4.391  0.2125  0.2006 -0.2694
 6416TIP3   OH240806   1.657   1.977   0.218  0.4295 -0.8733  0.8243
 6416TIP3    H140807   1.628   1.963   0.127  1.9459 -1.2309  0.3717
 6416TIP3    H240808   1.592   1.930   0.271 -1.1615  0.3443  0.0190
 6417TIP3   OH240809   1.006   2.332  28.501  0.0409  0.0216  0.5418
 6417TIP3    H140810   0.934   2.279  28.535 -1.3117  0.0289 -2.0485
 6417TIP3    H240811   0.973   2.422  28.507  0.4903  0.1663  0.8244
 6418TIP3   OH240812   1.856   0.292   6.666  0.0608  0.0216 -0.1785
 6418TIP3    H140813   1.851   0.375   6.713 -0.4657 -0.4432  0.6145
 6418TIP3    H240814   1.922   0.306   6.598 -1.6520  1.8271 -1.5731
 6419TIP3   OH240815   1.551   1.299  32.842 -0.3015  0.3986 -0.0034
 6419TIP3    H140816   1.592   1.346  32.915 -0.8257  0.2193  0.4127
 6419TIP3    H240817   1.464   1.274  32.875 -0.1342 -0.6301 -0.3100
 6420TIP3   OH240818   0.092   2.317  18.257 -0.0021  0.0331  0.0536
 6420TIP3    H140819   0.061   2.345  18.171 -2.5770  1.3139  1.3117
 6420TIP3    H240820   0.102   2.398  18.307  1.6186 -0.6727  0.9637
 6421TIP3   OH240821   1.716   2.262  14.832 -0.1965 -0.8702 -0.6305
 6421TIP3    H140822   1.698   2.207  14.908 -0.6680 -1.3603 -1.0854
 6421TIP3    H240823   1.631   2.300  14.810  0.2606  0.7206  0.1728
 6422TIP3   OH240824   2.171   0.994   0.111 -0.3209 -0.0435 -0.1710
 6422TIP3    H140825   2.133   1.033   0.190 -2.6938  0.1665 -1.3065
 6422TIP3    H240826   2.203   0.908   0.139 -0.6885  0.2244  1.1201
 6423TIP3   OH240827   0.421   1.723  31.697 -0.5273 -0.1316 -0.5234
 6423TIP3    H140828   0.369   1.672  31.759 -0.0048 -0.9158 -0.7123
 6423TIP3    H240829   0.387   1.812  31.704  0.1267  0.0132  1.5859
 6424TIP3   OH240830   0.011   3.183  26.639  0.1914 -0.5480  0.6193
 6424TIP3    H140831  -0.075   3.139  26.636  0.0634 -0.2540 -1.1594
 6424TIP3    H240832   0.048   3.169  26.552  1.0481  1.1239  0.6739
 6425TIP3   OH240833   2.028   1.875  32.158  0.0362  0.2958  0.3467
 6425TIP3    H140834   2.015   1.799  32.102  1.3887  0.5649 -0.3764
 6425TIP3    H240835   2.056   1.839  32.242  1.3050 -0.0186 -0.1839
 6426TIP3   OH240836   1.759   0.830   6.126  0.3009 -0.3239 -0.1157
 6426TIP3    H140837   1.821   0.845   6.055 -1.4181 -0.1804 -1.6711
 6426TIP3    H240838   1.805   0.859   6.205  1.2368  2.4290 -1.5335
 6427TIP3   OH240839   0.091   2.436   0.983 -0.4319 -0.1148  0.4155
 6427TIP3    H140840   0.019   2.447   0.921  0.0536 -0.5968 -0.2492
 6427TIP3    H240841   0.095   2.342   1.000 -0.1502 -0.0601  0.6753
 6428TIP3   OH240842   1.753   1.158  19.394  0.6425  0.4257 -0.1470
 6428TIP3    H140843   1.742   1.172  19.488 -0.2615  2.5018 -0.5014
 6428TIP3    H240844   1.670   1.187  19.356  1.2602  0.3351 -1.6407
 6429TIP3   OH240845   1.343   3.211  12.365 -0.0219  0.2457  0.4279
 6429TIP3    H140846   1.298   3.200  12.449  0.1249  0.3376  0.5185
 6429TIP3    H240847   1.335   3.125  12.323  0.7686 -0.1036  0.9620
 6430TIP3   OH240848   3.127   1.501  27.008  0.4659 -0.5477 -0.0934
 6430TIP3    H140849   3.114   1.590  26.975  1.0817 -0.0460  0.9811
 6430TIP3    H240850   3.086   1.445  26.941  0.4934  0.5009 -1.0232
 6431TIP3   OH240851   0.227   2.858  31.131  0.2413  0.0849  0.2708
 6431TIP3    H140852   0.226   2.949  31.161 -0.9117  0.1725  0.0395
 6431TIP3    H240853   0.186   2.861  31.044 -1.1601 -0.8255  0.8547
 6432TIP3   OH240854   0.438   3.377   0.371  0.0056 -0.3906  0.0574
 6432TIP3    H140855   0.445   3.302   0.430  1.7648  1.3620  2.2317
 6432TIP3    H240856   0.353   3.415   0.391  0.3792 -0.0972  1.1692
 6433TIP3   OH240857   2.343   2.874   0.735 -0.1629 -0.2585  0.3020
 6433TIP3    H140858   2.315   2.783   0.729 -1.4913  0.2039 -1.6516
 6433TIP3    H240859   2.266   2.920   0.769 -0.8998  0.6166 -2.3111
 6434TIP3   OH240860   0.918   1.023  32.269 -0.6256  0.1906  0.1845
 6434TIP3    H140861   0.925   1.018  32.364 -2.0422 -1.2074  0.2517
 6434TIP3    H240862   0.875   0.941  32.243  1.7074 -0.4833 -1.8947
 6435TIP3   OH240863   1.536   1.915  30.910 -0.2069 -0.2244 -0.4277
 6435TIP3    H140864   1.593   1.931  30.834  0.3537  0.7051  0.1621
 6435TIP3    H240865   1.583   1.955  30.983 -1.6631  0.6719  0.0578
 6436TIP3   OH240866   3.492   1.520  27.868 -0.0552  0.2350 -0.6124
 6436TIP3    H140867   3.575   1.559  27.896 -0.0334  1.3365 -2.0409
 6436TIP3    H240868   3.426   1.557  27.927  0.3742 -0.0871  0.0734
 6437TIP3   OH240869   1.321   2.931   7.262 -0.3443 -0.2860 -0.3091
 6437TIP3    H140870   1.226   2.937   7.270 -0.1547  0.8600  2.0215
 6437TIP3    H240871   1.345   2.854   7.314  0.2034  1.5546  2.3771
 6438TIP3   OH240872   3.246   1.526  22.471  0.6326 -0.0464 -0.4573
 6438TIP3    H140873   3.310   1.469  22.427 -0.6930 -2.3833  0.4332
 6438TIP3    H240874   3.189   1.558  22.401  0.2575 -1.4028 -0.7978
 6439TIP3   OH240875   2.691   3.534   4.129 -0.3759 -0.1767 -0.0040
 6439TIP3    H140876   2.685   3.438   4.126 -3.6059 -0.1010  0.8237
 6439TIP3    H240877   2.755   3.556   4.062  0.3594 -2.9010 -0.3013
 6440TIP3   OH240878   0.187   2.059  29.122  0.7534 -0.4695  0.4159
 6440TIP3    H140879   0.217   1.973  29.151  1.2081 -0.0617  1.1958
 6440TIP3    H240880   0.174   2.109  29.204  0.3775  0.1633 -0.0141
 6441TIP3   OH240881   1.239   3.305  31.497  0.4428  0.6179 -0.4988
 6441TIP3    H140882   1.260   3.278  31.407  1.9073 -0.2294  0.0706
 6441TIP3    H240883   1.304   3.371  31.519  0.9068 -0.1154  0.3817
 6442TIP3   OH240884   1.952   1.770  28.928  0.1486 -0.4588 -0.2009
 6442TIP3    H140885   1.974   1.683  28.963 -1.0465 -1.4563 -1.7657
 6442TIP3    H240886   1.948   1.756  28.833  1.5541  1.7153 -0.6350
 6443TIP3   OH240887   1.532   0.307  27.574  0.9905 -0.5326 -0.3059
 6443TIP3    H140888   1.611   0.361  27.571  0.1611  0.7595  0.1487
 6443TIP3    H240889   1.558   0.224  27.535  1.9021  0.7171 -2.5471
 6444TIP3   OH240890   2.463   2.659   0.276 -0.2861 -0.5559 -0.1113
 6444TIP3    H140891   2.426   2.587   0.327 -0.8743 -0.9113 -1.0244
 6444TIP3    H240892   2.388   2.715   0.255  0.2202  0.5677  0.9410
 6445TIP3   OH240893   3.455   0.786  32.389 -0.3064 -0.3421 -0.5074
 6445TIP3    H140894   3.422   0.750  32.307  0.3382  0.6190 -1.1948
 6445TIP3    H240895   3.491   0.711  32.435  0.2351 -0.7339 -1.5424
 6446TIP3   OH240896   1.412   2.031   4.096 -0.2951  0.1933 -0.5486
 6446TIP3    H140897   1.322   2.018   4.126  0.3606 -1.1294  0.9770
 6446TIP3    H240898   1.445   2.102   4.151 -0.4160  0.8063 -1.2341
 6447TIP3   OH240899   2.501   3.548  31.028 -0.0724  0.2129 -0.1769
 6447TIP3    H140900   2.575   3.492  31.005  0.5855 -0.1723  2.5803
 6447TIP3    H240901   2.459   3.567  30.944  2.1137 -0.9701 -1.6432
 6448TIP3   OH240902   1.798   1.577   0.310 -0.8212 -0.0582 -0.2045
 6448TIP3    H140903   1.852   1.635   0.363 -1.2908 -0.8807  1.2344
 6448TIP3    H240904   1.857   1.544   0.243  0.3397 -0.4694  0.9669
 6449TIP3   OH240905   3.110   1.681  22.264  0.4078  0.1561  0.1135
 6449TIP3    H140906   3.155   1.754  22.220  1.1604  0.2826  1.0641
 6449TIP3    H240907   3.020   1.687  22.233  0.0117  2.5741  1.4911
 6450TIP3   OH240908   0.656   2.263   6.792  0.3165 -0.2092 -0.6505
 6450TIP3    H140909   0.688   2.351   6.771  0.8613 -0.3124 -0.2806
 6450TIP3    H240910   0.560   2.271   6.789  0.3432  0.6063  0.2145
 6451TIP3   OH240911   3.260   2.800   6.326 -0.1438 -0.1192 -0.3409
 6451TIP3    H140912   3.320   2.770   6.395 -0.3285 -2.5548 -1.1437
 6451TIP3    H240913   3.177   2.758   6.346 -0.8784  1.1332 -0.6926
 6452TIP3   OH240914   1.141   0.914   3.359  0.0256 -0.7664  0.7313
 6452TIP3    H140915   1.155   0.820   3.369  0.1357 -0.7776  0.4722
 6452TIP3    H240916   1.046   0.924   3.351 -0.0650 -0.7683  1.6554
 6453TIP3   OH240917   1.227   0.620   3.922 -1.0314  0.4868 -0.1736
 6453TIP3    H140918   1.169   0.570   3.979 -0.1554 -0.9912 -0.5212
 6453TIP3    H240919   1.291   0.660   3.981 -1.5244  0.9188  0.0754
 6454TIP3   OH240920   0.607   0.765  31.066  0.0937 -0.2150  0.3264
 6454TIP3    H140921   0.658   0.816  31.129 -1.0720  0.1682  0.9849
 6454TIP3    H240922   0.611   0.817  30.986  1.8104 -0.8371 -0.0432
 6455TIP3   OH240923   1.234   2.180   4.799 -0.2316 -0.0251  0.1903
 6455TIP3    H140924   1.264   2.271   4.803 -0.6620  0.0876  1.5585
 6455TIP3    H240925   1.215   2.165   4.706 -2.0082  1.9255  0.1460
 6456TIP3   OH240926   0.095   0.855  31.149  0.3549  0.3047  0.6425
 6456TIP3    H140927   0.128   0.935  31.190 -2.3103  1.0348  1.5221
 6456TIP3    H240928   0.132   0.784  31.202  1.3586  1.0064  0.9085
 6457TIP3   OH240929   1.880   0.595   2.564 -0.1862  0.2526  0.1798
 6457TIP3    H140930   1.874   0.687   2.589  1.6785  0.1510  1.1073
 6457TIP3    H240931   1.931   0.553   2.634 -2.6827 -1.9525  0.8916
 6458TIP3   OH240932   0.746   2.573  21.112  0.1062 -0.3401  0.2672
 6458TIP3    H140933   0.776   2.495  21.160  0.3281 -0.5981 -0.2901
 6458TIP3    H240934   0.779   2.561  21.024 -0.5275  0.0087 -0.0237
 6459TIP3   OH240935   1.357   0.077   4.570 -0.6220  0.1400 -0.9659
 6459TIP3    H140936   1.330  -0.013   4.587  4.2361 -1.1934  1.3635
 6459TIP3    H240937   1.418   0.072   4.497 -0.8741  1.7542 -1.3408
 6460TIP3   OH240938   2.498   0.674   0.045  0.1561 -0.1835 -0.6289
 6460TIP3    H140939   2.438   0.617  -0.003 -0.2886 -0.2653  0.0136
 6460TIP3    H240940   2.531   0.735  -0.021  1.9380 -2.1955 -1.7290
 6461TIP3   OH240941   3.047   1.196  29.937 -0.0783 -0.0363 -0.0320
 6461TIP3    H140942   3.075   1.287  29.948  1.5884 -0.7088  2.1768
 6461TIP3    H240943   3.089   1.168  29.856  0.2253  0.9068 -0.2105
 6462TIP3   OH240944   2.746   0.861  32.438 -0.5692 -0.1963  0.0057
 6462TIP3    H140945   2.672   0.885  32.495 -0.8362 -2.3907  0.6542
 6462TIP3    H240946   2.708   0.855  32.351 -1.2068 -1.4430  0.3555
 6463TIP3   OH240947   1.741   0.145  29.156 -0.3290  0.0924  0.0016
 6463TIP3    H140948   1.828   0.183  29.145  0.1232 -0.8338  0.2769
 6463TIP3    H240949   1.698   0.202  29.220  0.2026  0.3319  0.1504
 6464TIP3   OH240950   0.824   1.852   2.463  0.0350 -0.5145  0.0186
 6464TIP3    H140951   0.774   1.933   2.474  1.7040  0.3117  1.9678
 6464TIP3    H240952   0.758   1.788   2.437 -1.7856  0.8765  0.9308
 6465TIP3   OH240953   0.621   0.302   0.337  0.1680 -0.2787  0.0974
 6465TIP3    H140954   0.626   0.309   0.432 -0.9782  2.1718  0.0480
 6465TIP3    H240955   0.626   0.208   0.320 -1.5389 -0.9534  2.6959
 6466TIP3   OH240956   0.683   0.634  30.386  0.3534 -0.1570  0.6955
 6466TIP3    H140957   0.600   0.607  30.424  0.6700 -0.0748  1.4536
 6466TIP3    H240958   0.724   0.689  30.452 -0.3667  2.4624 -0.8825
 6467TIP3   OH240959   0.575   0.166   5.459 -0.0125  0.3571  0.3830
 6467TIP3    H140960   0.515   0.092   5.455 -2.9176  2.5994 -1.6894
 6467TIP3    H240961   0.663   0.127   5.458 -1.3339 -3.0207 -2.6718
 6468TIP3   OH240962   2.812   2.556   1.029  0.1151 -0.1813  0.6748
 6468TIP3    H140963   2.893   2.579   1.075 -0.9468  2.9794  1.2231
 6468TIP3    H240964   2.748   2.620   1.060 -1.7921 -0.5831 -2.0894
 6469TIP3   OH240965   0.812   0.608  31.363 -0.6317  0.2020 -0.8013
 6469TIP3    H140966   0.874   0.670  31.401  1.4925 -0.5679 -2.7403
 6469TIP3    H240967   0.736   0.610  31.422  0.4664  2.5440  0.6946
 6470TIP3   OH240968   3.152   2.264  31.856 -0.1953 -0.1186  0.1444
 6470TIP3    H140969   3.184   2.263  31.766 -0.1404  0.3068  0.1562
 6470TIP3    H240970   3.229   2.252  31.910 -0.1416  0.2381  0.1504
 6471TIP3   OH240971   0.494   1.657   0.670 -0.2026  0.5847 -0.4409
 6471TIP3    H140972   0.418   1.685   0.721  0.3281  0.0181  0.6981
 6471TIP3    H240973   0.467   1.574   0.630 -0.0991  0.2443  0.1834
 6472TIP3   OH240974   1.376   1.796  23.216  0.4626 -0.6658 -0.4440
 6472TIP3    H140975   1.432   1.872  23.204 -1.3768  0.9597  0.6649
 6472TIP3    H240976   1.435   1.727  23.244  2.4570 -0.2345 -3.2007
 6473TIP3   OH240977   2.532   1.081  19.731  0.0492 -0.2717  0.4676
 6473TIP3    H140978   2.617   1.126  19.734 -0.0205 -0.1468  0.5869
 6473TIP3    H240979   2.476   1.138  19.679 -0.3921  0.3925  1.6398
 6474TIP3   OH240980   2.413   1.716  31.835  0.0266 -0.2940  0.0890
 6474TIP3    H140981   2.490   1.729  31.780 -0.0293 -0.1807  0.0359
 6474TIP3    H240982   2.416   1.789  31.898  0.2024 -0.5363  0.3671
 6475TIP3   OH240983   2.366   0.012   0.990 -0.1972  0.4337 -0.3163
 6475TIP3    H140984   2.449  -0.035   0.991 -0.2578  0.3269 -0.2591
 6475TIP3    H240985   2.367   0.060   0.907 -0.8340 -0.9260 -1.1485
 6476TIP3   OH240986   2.601   0.018  31.480 -0.0528  0.2588  0.3528
 6476TIP3    H140987   2.548  -0.061  31.471 -1.5407  1.0544  1.4429
 6476TIP3    H240988   2.660  -0.001  31.553 -0.7755  0.3273  0.9639
 6477TIP3   OH240989   0.662   3.121   3.682 -0.5776  0.3021  0.0334
 6477TIP3    H140990   0.648   3.168   3.764 -1.3387  1.1560 -0.5751
 6477TIP3    H240991   0.617   3.173   3.616 -0.9552 -0.9795 -0.7570
 6478TIP3   OH240992   3.518   2.198   3.529 -0.5431 -0.3393 -0.5009
 6478TIP3    H140993   3.436   2.218   3.486 -0.8816 -0.9404 -0.1475
 6478TIP3    H240994   3.511   2.106   3.555 -1.0029  0.3540  2.2005
 6479TIP3   OH240995   1.731   1.298   3.901  0.3069 -0.1469  0.6485
 6479TIP3    H140996   1.721   1.355   3.978  0.1709  0.3607  0.2648
 6479TIP3    H240997   1.776   1.353   3.837  0.5970 -0.6316  0.4302
 6480TIP3   OH240998   1.306   1.446   0.630  0.0535  0.7516 -0.3191
 6480TIP3    H140999   1.266   1.519   0.677 -0.0389  0.6596 -0.2540
 6480TIP3    H241000   1.391   1.435   0.671  0.7298  1.8431 -1.3607
 6481TIP3   OH241001   2.129   1.730  20.266 -0.0948  0.5171  0.1080
 6481TIP3    H141002   2.079   1.694  20.339  1.2696  0.7536  1.1836
 6481TIP3    H241003   2.198   1.665  20.250 -0.3041  0.5249 -0.9022
 6482TIP3   OH241004   1.792   3.104  12.197 -0.3137  0.1044  0.1808
 6482TIP3    H141005   1.834   3.026  12.232 -0.0830  0.0078 -0.3129
 6482TIP3    H241006   1.859   3.172  12.202 -0.9358  0.6688  1.9619
 6483TIP3   OH241007   1.062   0.506   6.905  0.1155  0.1321  0.0652
 6483TIP3    H141008   1.153   0.507   6.877 -0.2335 -1.5400 -1.2695
 6483TIP3    H241009   1.066   0.501   7.000  1.3527  3.6506  0.3626
 6484TIP3   OH241010   0.720   0.632   5.707  0.1637 -0.7173 -0.2733
 6484TIP3    H141011   0.763   0.635   5.621  1.6744 -0.7018  0.4381
 6484TIP3    H241012   0.631   0.663   5.691  1.0394  1.4095 -1.4966
 6485TIP3   OH241013   0.010   1.517  28.227  0.2008  0.0547  0.0495
 6485TIP3    H141014   0.013   1.612  28.222  0.3802  0.0783  0.6245
 6485TIP3    H241015  -0.033   1.498  28.310  1.5262 -0.3631  0.6688
 6486TIP3   OH241016   0.017   2.907  26.917  0.2484 -0.3262 -0.2934
 6486TIP3    H141017   0.070   2.920  26.996  0.7178 -2.0908 -0.2851
 6486TIP3    H241018   0.065   2.842  26.867 -1.7235 -1.7197 -0.4534
 6487TIP3   OH241019   1.017   2.043  26.803 -0.4738 -0.2930 -0.0714
 6487TIP3    H141020   0.932   2.029  26.761 -0.2278  0.6770 -0.9616
 6487TIP3    H241021   1.081   2.018  26.736 -0.0657  1.3848 -0.3631
 6488TIP3   OH241022   0.709   1.523  29.984  0.3237 -0.1636 -0.3982
 6488TIP3    H141023   0.618   1.510  29.958  0.4001  1.2021 -1.4537
 6488TIP3    H241024   0.756   1.449  29.945 -0.1001 -0.0065 -1.2160
 6489TIP3   OH241025   0.713   2.654  27.373  0.1348  0.7922  0.2684
 6489TIP3    H141026   0.626   2.656  27.413  0.2026 -0.8049  0.5564
 6489TIP3    H241027   0.771   2.682  27.444  0.1144 -0.7929  0.9686
 6490TIP3   OH241028   2.628   2.867  14.275  0.1592 -0.0460  0.6522
 6490TIP3    H141029   2.586   2.948  14.303 -0.4070  0.3037 -1.0258
 6490TIP3    H241030   2.670   2.889  14.192  2.5409 -0.7611  1.6017
 6491TIP3   OH241031   0.312   2.628  31.259 -0.0078 -0.2855 -0.2524
 6491TIP3    H141032   0.359   2.610  31.178 -2.7074 -1.3253 -1.7277
 6491TIP3    H241033   0.270   2.713  31.244  1.8704  1.0170  1.3510
 6492TIP3   OH241034   3.254   3.237   1.139  0.2199 -0.1051 -0.0757
 6492TIP3    H141035   3.318   3.230   1.068  1.8578  0.3640  1.2720
 6492TIP3    H241036   3.230   3.146   1.158  1.8447 -0.4493  0.5265
 6493TIP3   OH241037   1.588   3.546  15.231  0.2075  0.5732 -0.5343
 6493TIP3    H141038   1.634   3.462  15.227 -0.5945 -0.0190  1.6441
 6493TIP3    H241039   1.495   3.523  15.229 -0.0401  1.3038  1.0546
 6494TIP3   OH241040   1.852   2.575  27.105  0.1308  0.0913 -0.3329
 6494TIP3    H141041   1.816   2.536  27.184 -0.1214 -1.5270 -1.2063
 6494TIP3    H241042   1.777   2.613  27.059 -0.4775 -2.6496 -1.7990
 6495TIP3   OH241043   3.338   3.244  30.215  0.0057 -0.2024 -0.3040
 6495TIP3    H141044   3.417   3.296  30.206 -0.3515  0.5024  0.5025
 6495TIP3    H241045   3.266   3.307  30.212 -0.4059 -0.5450  1.3111
 6496TIP3   OH241046   2.971   2.000  19.196  0.2306  0.3274  0.3690
 6496TIP3    H141047   2.928   2.085  19.204  3.3642  2.0414  0.6306
 6496TIP3    H241048   3.021   2.006  19.115  0.7052 -1.1817  0.5176
 6497TIP3   OH241049   1.918   1.955  31.570  0.0729  0.2883 -1.0465
 6497TIP3    H141050   1.978   1.960  31.644 -1.2719 -1.1667  0.2255
 6497TIP3    H241051   1.892   1.863  31.566 -0.9270  0.5923 -2.4913
 6498TIP3   OH241052   2.385   3.417  28.225 -0.3694  0.0550 -0.0402
 6498TIP3    H141053   2.293   3.437  28.208 -0.7933 -0.4047  1.5162
 6498TIP3    H241054   2.425   3.502  28.241 -0.5602  0.2387 -0.5132
 6499TIP3   OH241055   1.758   3.506  13.092  0.3195 -0.1913 -0.3166
 6499TIP3    H141056   1.733   3.593  13.064  2.0862 -0.3351 -2.6554
 6499TIP3    H241057   1.696   3.484  13.161 -1.6238  1.9702 -1.2537
 6500TIP3   OH241058   0.432   0.519  27.963  0.7186 -0.0549  0.0505
 6500TIP3    H141059   0.353   0.556  27.925  0.3951  0.2910  1.0190
 6500TIP3    H241060   0.431   0.427  27.935  0.0677 -0.0087 -0.0943
 6501TIP3   OH241061   2.589   1.932   1.594  0.8037  0.0311  0.5956
 6501TIP3    H141062   2.548   1.859   1.548  0.7494  0.9551 -0.9070
 6501TIP3    H241063   2.680   1.906   1.604  0.4389 -0.9219  1.5707
 6502TIP3   OH241064   3.163   2.159   5.862 -0.0889  0.6939  0.4729
 6502TIP3    H141065   3.103   2.222   5.823 -2.6059  0.0415  2.9345
 6502TIP3    H241066   3.138   2.075   5.823  0.8060  0.6896 -0.1317
 6503TIP3   OH241067   3.296   1.892  27.018  0.3160 -0.4459  0.3914
 6503TIP3    H141068   3.352   1.969  27.032 -0.0491 -0.2743  0.9636
 6503TIP3    H241069   3.299   1.877  26.924  2.9028 -1.6423  0.5631
 6504TIP3   OH241070   0.404   0.687  28.871 -0.2321  0.8180 -0.4219
 6504TIP3    H141071   0.398   0.780  28.894  1.1286  0.8117  0.0618
 6504TIP3    H241072   0.408   0.687  28.775 -0.8905  1.2035 -0.4551
 6505TIP3   OH241073   1.002   0.235  12.173 -0.6587  0.0023 -0.1867
 6505TIP3    H141074   1.065   0.248  12.102  0.5544  1.2566  1.0328
 6505TIP3    H241075   0.930   0.186  12.134  0.3177 -0.0160 -2.0616
 6506TIP3   OH241076   1.540   1.875   5.009 -0.7286 -0.1578  0.0290
 6506TIP3    H141077   1.474   1.912   4.950 -2.3995  0.9325  2.4333
 6506TIP3    H241078   1.594   1.820   4.953 -1.3446  1.8671 -2.7852
 6507TIP3   OH241079   1.118   2.861   5.960 -0.4085  0.0908 -0.1383
 6507TIP3    H141080   1.181   2.874   5.890 -0.1557 -1.3033 -0.1916
 6507TIP3    H241081   1.034   2.848   5.915 -0.1454 -1.4228 -0.2515
 6508TIP3   OH241082   2.992   1.880  30.305 -0.5178 -0.9024  0.6580
 6508TIP3    H141083   3.038   1.834  30.234 -0.8686 -0.8456  0.3901
 6508TIP3    H241084   3.058   1.939  30.341 -0.6050 -0.1980 -0.2899
 6509TIP3   OH241085   3.154   0.833  31.109 -0.1819  0.0272 -0.1632
 6509TIP3    H141086   3.243   0.806  31.134  0.3521 -0.0927 -2.0439
 6509TIP3    H241087   3.112   0.854  31.192  1.1390 -1.2814  0.9070
 6510TIP3   OH241088   1.457   1.108   0.183  0.1049  0.2332 -0.2135
 6510TIP3    H141089   1.370   1.105   0.223  0.2816  1.4155  0.3105
 6510TIP3    H241090   1.446   1.159   0.103  0.4649  1.1065  0.2844
 6511TIP3   OH241091   1.881   1.840  32.397  0.2194 -0.0532 -0.2605
 6511TIP3    H141092   1.826   1.885  32.461 -0.0141 -1.2883  0.4338
 6511TIP3    H241093   1.883   1.899  32.322 -0.8226  0.6942  0.2788
 6512TIP3   OH241094   1.271   0.377  29.749 -0.4566  0.3882  0.0339
 6512TIP3    H141095   1.284   0.353  29.658  1.1006  0.2258  0.2703
 6512TIP3    H241096   1.282   0.296  29.798 -0.5055  0.6123  0.4262
 6513TIP3   OH241097   2.251   2.458  30.764 -0.0342  0.5438  0.0422
 6513TIP3    H141098   2.237   2.391  30.832 -0.2467  1.7109  1.2016
 6513TIP3    H241099   2.165   2.471  30.725 -0.7817  2.3918  2.0592
 6514TIP3   OH241100   0.614   1.066  28.457  0.3643  0.1883  0.3076
 6514TIP3    H141101   0.572   1.133  28.404  0.2534 -0.2420 -0.1572
 6514TIP3    H241102   0.552   0.992  28.456  0.8857 -0.2488  0.0705
 6515TIP3   OH241103   2.437   1.580   7.545 -0.4111  0.2912  0.0909
 6515TIP3    H141104   2.393   1.634   7.479 -0.5493  0.4413  0.3090
 6515TIP3    H241105   2.476   1.509   7.494 -0.9633  0.1165 -0.0948
 6516TIP3   OH241106   0.944   3.204   2.597 -0.0570  0.0491 -0.4462
 6516TIP3    H141107   0.938   3.289   2.553 -1.2894  0.2104 -0.0150
 6516TIP3    H241108   0.955   3.226   2.690 -0.0373 -0.2721 -0.3716
 6517TIP3   OH241109   1.413   2.071  26.195 -0.6246 -0.1864 -0.2873
 6517TIP3    H141110   1.476   2.050  26.126  1.2635 -0.2829  1.4062
 6517TIP3    H241111   1.419   2.166  26.205  1.1111 -0.4246  1.5033
 6518TIP3   OH241112   2.811   3.204   1.920 -0.0103  0.2310  0.9337
 6518TIP3    H141113   2.832   3.116   1.889  1.0180  0.7606  0.0559
 6518TIP3    H241114   2.883   3.228   1.979  0.3129  0.9001  0.2887
 6519TIP3   OH241115   1.595   3.102   0.908 -0.3362 -0.0848  0.2310
 6519TIP3    H141116   1.631   3.080   0.994 -1.4317  0.7074  0.9129
 6519TIP3    H241117   1.627   3.190   0.890 -0.2641 -0.1759 -0.0917
 6520TIP3   OH241118   1.594   1.424   1.171 -0.1307  0.1998  0.4315
 6520TIP3    H141119   1.633   1.411   1.257 -0.1595 -1.1214  0.2604
 6520TIP3    H241120   1.520   1.483   1.186  0.4168  0.7136  1.1503
 6521TIP3   OH241121   1.882   2.248   1.033 -0.0193 -0.6119  0.5695
 6521TIP3    H141122   1.835   2.312   0.980  0.1568 -0.6536  0.3648
 6521TIP3    H241123   1.828   2.239   1.112 -1.6769 -2.4448 -0.6630
 6522TIP3   OH241124   3.336   0.840  29.301  0.4549 -0.3534 -0.0706
 6522TIP3    H141125   3.284   0.906  29.348  1.5873  1.3330 -1.0667
 6522TIP3    H241126   3.422   0.844  29.342  0.9197 -0.2135 -1.0260
 6523TIP3   OH241127   1.968   1.170   3.633  0.2025 -0.6552  0.1278
 6523TIP3    H141128   1.987   1.123   3.714 -2.0812 -1.7918  0.0962
 6523TIP3    H241129   2.052   1.207   3.607  0.9032  0.4303  3.3986
 6524TIP3   OH241130   2.030   1.387  20.408 -0.3140 -0.0382  0.2262
 6524TIP3    H141131   2.050   1.343  20.490  3.1279 -2.6753 -1.7414
 6524TIP3    H241132   1.939   1.363  20.389 -1.6087  1.5790  3.6026
 6525TIP3   OH241133   3.344   1.999  20.474  0.2533 -0.4076  0.0886
 6525TIP3    H141134   3.427   2.012  20.429  0.0826  0.4970  0.0298
 6525TIP3    H241135   3.363   2.013  20.567  0.1306 -0.0540  0.0588
 6526TIP3   OH241136   2.675   0.810  30.454 -0.2201 -0.0993  0.0100
 6526TIP3    H141137   2.637   0.749  30.517  0.4996 -0.5505  0.0174
 6526TIP3    H241138   2.708   0.882  30.508  0.4458 -0.5112  0.1580
 6527TIP3   OH241139   2.465   1.715  26.304 -0.1145 -0.5798  0.4708
 6527TIP3    H141140   2.378   1.684  26.278 -0.2985 -1.9999  2.5298
 6527TIP3    H241141   2.461   1.720  26.399  1.6380  0.7519  0.5196
 6528TIP3   OH241142   0.394   1.399   5.924  0.1954 -0.0618  0.7002
 6528TIP3    H141143   0.419   1.309   5.905  1.2486  0.3349  0.1585
 6528TIP3    H241144   0.351   1.430   5.845  0.7685  0.2403  0.5054
 6529TIP3   OH241145   3.396   1.821   5.737 -0.1798  0.6620  0.4037
 6529TIP3    H141146   3.332   1.796   5.670  0.2302  0.4650  0.0850
 6529TIP3    H241147   3.478   1.780   5.709  0.1054  0.9685  0.7767
 6530TIP3   OH241148   0.377   2.931  14.395 -0.1928  0.3072  0.3175
 6530TIP3    H141149   0.295   2.898  14.433 -0.7084  0.2289 -0.8205
 6530TIP3    H241150   0.436   2.857  14.398 -0.7156 -0.1500 -0.4053
 6531TIP3   OH241151   2.559   0.128   1.690  0.1847 -0.6753 -0.0566
 6531TIP3    H141152   2.625   0.170   1.745  0.0258  2.1741 -1.8723
 6531TIP3    H241153   2.594   0.135   1.601 -2.4396  0.8543 -1.0781
 6532TIP3   OH241154   1.113   0.551   6.480 -0.4018 -0.1666  0.0777
 6532TIP3    H141155   1.086   0.643   6.479 -0.8936 -0.3076 -0.2064
 6532TIP3    H241156   1.049   0.508   6.536 -0.7361 -0.4957 -0.5491
 6533TIP3   OH241157   2.323   2.429  11.414  0.3231 -0.4243  0.5637
 6533TIP3    H141158   2.418   2.425  11.430  0.7007  0.6931 -1.1181
 6533TIP3    H241159   2.284   2.415  11.500  2.0915  2.6214  2.0557
 6534TIP3   OH241160   2.245   3.533   6.002 -0.2268 -0.4574 -0.0411
 6534TIP3    H141161   2.271   3.455   6.050 -0.2838 -0.1906  0.4293
 6534TIP3    H241162   2.152   3.520   5.985 -0.0095 -0.9727 -0.8893
 6535TIP3   OH241163   0.887   1.398  32.867 -0.6412 -0.4410 -0.6130
 6535TIP3    H141164   0.932   1.316  32.890  0.3161  0.2256 -0.0425
 6535TIP3    H241165   0.889   1.449  32.948 -0.3270  0.5497 -1.2351
 6536TIP3   OH241166   1.950   0.404  29.997  0.3923 -0.4167  0.2365
 6536TIP3    H141167   1.939   0.499  29.997 -0.6817 -0.4426  2.8508
 6536TIP3    H241168   2.038   0.390  30.032 -0.1944 -0.3208  1.8791
 6537TIP3   OH241169   3.266   2.389  31.152 -0.3952  0.3115 -0.3789
 6537TIP3    H141170   3.318   2.351  31.082 -1.2530  0.5790 -1.1784
 6537TIP3    H241171   3.243   2.315  31.209 -2.2112 -0.4557 -2.0110
 6538TIP3   OH241172   2.261   0.319   3.828 -0.0408 -0.0230 -0.6066
 6538TIP3    H141173   2.283   0.298   3.919 -0.1920 -0.3661 -0.6484
 6538TIP3    H241174   2.187   0.262   3.807 -0.6826  0.8013 -0.6163
 6539TIP3   OH241175   0.852   2.372   7.581  0.5560  0.7724 -0.2770
 6539TIP3    H141176   0.846   2.465   7.602 -0.0861  0.9211 -1.0468
 6539TIP3    H241177   0.945   2.357   7.563  0.6863  1.2249 -0.0012
 6540TIP3   OH241178   2.211   3.420   0.213 -0.2202  0.4895  0.4582
 6540TIP3    H141179   2.226   3.351   0.148 -0.0195  0.7023  0.2721
 6540TIP3    H241180   2.145   3.385   0.272 -0.6989  0.4415 -0.0904
 6541TIP3   OH241181   0.981   1.772   4.597  0.0778  0.5643  0.5370
 6541TIP3    H141182   1.029   1.748   4.676  2.6603 -0.0576 -1.0748
 6541TIP3    H241183   1.029   1.728   4.526 -1.2934  2.1697 -1.5081
 6542TIP3   OH241184   0.033   0.192   4.538  0.1993 -0.2054  0.3989
 6542TIP3    H141185   0.127   0.187   4.517  0.3133 -2.0846  1.1239
 6542TIP3    H241186   0.023   0.137   4.616 -1.4790  0.1565  0.4742
 6543TIP3   OH241187   1.370   2.233   0.990 -0.9350 -0.4297  0.2391
 6543TIP3    H141188   1.421   2.190   0.921 -0.0172  0.3429  0.4164
 6543TIP3    H241189   1.283   2.244   0.952 -0.6655 -0.7619 -0.4919
 6544TIP3   OH241190   1.311   3.010   5.271 -0.2336  0.1618  0.5063
 6544TIP3    H141191   1.369   3.085   5.282  1.1931 -0.9024  0.5819
 6544TIP3    H241192   1.257   3.032   5.195  0.1341  1.2692  0.5569
 6545TIP3   OH241193   0.736   1.049   6.319  0.2569 -0.0126  0.2938
 6545TIP3    H141194   0.676   0.974   6.312  1.4553 -0.9131 -0.8243
 6545TIP3    H241195   0.688   1.121   6.278 -0.0954 -0.7077 -0.5614
 6546TIP3   OH241196   1.872   3.065   2.774  0.0925  0.2207  0.3518
 6546TIP3    H141197   1.960   3.057   2.737 -0.1729  0.3480 -0.3147
 6546TIP3    H241198   1.885   3.056   2.869  0.9358  1.1708  0.3417
 6547TIP3   OH241199   1.802   2.126   1.418 -0.0291 -0.3773 -0.1200
 6547TIP3    H141200   1.740   2.083   1.476  0.0713  0.5929  0.7273
 6547TIP3    H241201   1.750   2.189   1.368  0.2719  0.5186  0.6726
 6548TIP3   OH241202   2.234   2.093  31.649 -0.2692  0.2755  0.2738
 6548TIP3    H141203   2.188   2.075  31.731 -0.9457  0.3328 -0.0886
 6548TIP3    H241204   2.257   2.006  31.615  2.5002  0.2652  1.8790
 6549TIP3   OH241205   1.855   0.496  27.966 -0.0227  0.1909 -0.5748
 6549TIP3    H141206   1.816   0.452  28.042  0.1358  1.3116  0.1817
 6549TIP3    H241207   1.783   0.506  27.904 -0.2513 -0.3646 -0.4087
 6550TIP3   OH241208   3.498   3.151   1.570  0.9153 -0.1055  0.1875
 6550TIP3    H141209   3.564   3.096   1.612 -0.4649 -3.7684 -1.9801
 6550TIP3    H241210   3.495   3.120   1.480 -2.0583  1.5795 -0.4205
 6551TIP3   OH241211   1.990   0.486   0.748  0.5184 -0.3922  0.1687
 6551TIP3    H141212   1.917   0.425   0.752  0.8491 -0.8670 -0.6987
 6551TIP3    H241213   1.951   0.571   0.766 -0.8666 -0.1631 -3.1602
 6552TIP3   OH241214   3.461   2.130   3.817 -0.1078 -0.4564  0.2625
 6552TIP3    H141215   3.515   2.055   3.791 -1.7473 -1.9078  0.8418
 6552TIP3    H241216   3.371   2.098   3.810 -0.8256  1.1750  1.4271
 6553TIP3   OH241217   2.281   0.398  30.799  0.3839 -0.6697  0.0543
 6553TIP3    H141218   2.309   0.400  30.890  0.3542  0.2343  0.0607
 6553TIP3    H241219   2.197   0.444  30.799 -0.6643 -2.4779 -0.1196
 6554TIP3   OH241220   1.636   0.522   4.846 -0.2552  0.4888  0.3230
 6554TIP3    H141221   1.726   0.487   4.847 -0.8165 -1.0219  0.9551
 6554TIP3    H241222   1.638   0.590   4.779  1.4931  0.8537  0.6791
 6555TIP3   OH241223   2.989   0.707  32.480  0.4106  0.4034 -0.0888
 6555TIP3    H141224   2.974   0.790  32.526  0.4594  1.0319 -1.1885
 6555TIP3    H241225   2.913   0.697  32.423  1.3138  0.6868 -1.3913
 6556TIP3   OH241226   1.488   1.534   6.456  0.5639  0.5293 -0.1822
 6556TIP3    H141227   1.458   1.463   6.512  0.9920 -0.2877 -0.9647
 6556TIP3    H241228   1.573   1.505   6.423  0.3660  1.0351 -1.1722
 6557TIP3   OH241229   2.430   2.122   6.111  0.3147 -0.1744  0.1235
 6557TIP3    H141230   2.517   2.114   6.072  0.6717 -0.6965  0.9901
 6557TIP3    H241231   2.435   2.199   6.167  0.0473  0.1171 -0.2519
 6558TIP3   OH241232   1.153   1.281  27.717 -0.0716 -0.0543 -0.8303
 6558TIP3    H141233   1.189   1.207  27.668  0.2546  0.3292 -1.1728
 6558TIP3    H241234   1.068   1.250  27.748  0.0228 -0.5420 -1.0533
 6559TIP3   OH241235   1.759   0.630  31.662 -0.2973 -0.6613 -0.4660
 6559TIP3    H141236   1.806   0.664  31.738  0.6901 -0.3527 -1.1923
 6559TIP3    H241237   1.730   0.708  31.614  1.0021 -0.8079 -1.5478
 6560TIP3   OH241238   1.373   0.180  30.351 -0.6509 -0.7435 -0.1490
 6560TIP3    H141239   1.326   0.128  30.416 -0.9323 -0.7438 -0.3498
 6560TIP3    H241240   1.339   0.269  30.362  0.9587 -0.2386  1.2800
 6561TIP3   OH241241   1.466   0.667  27.932 -0.0458 -0.7027  0.7268
 6561TIP3    H141242   1.437   0.647  28.021 -1.0290 -1.5703  0.2417
 6561TIP3    H241243   1.407   0.736  27.902 -1.1784 -1.9178  0.0176
 6562TIP3   OH241244   1.991   3.362   1.293 -0.2718  0.0685 -0.1720
 6562TIP3    H141245   2.034   3.445   1.271  2.7152 -0.9858  1.1939
 6562TIP3    H241246   1.941   3.381   1.372 -0.8849  0.8969 -0.7418
 6563TIP3   OH241247   3.420   2.645   0.392 -0.5870  0.3911 -0.1310
 6563TIP3    H141248   3.336   2.618   0.429 -0.4709  0.8501  0.4952
 6563TIP3    H241249   3.399   2.720   0.336 -1.0711 -1.5612 -2.7603
 6564TIP3   OH241250   2.737   2.251  29.703  0.5078 -0.1717  0.0294
 6564TIP3    H141251   2.676   2.263  29.630  0.6529 -0.0295 -0.0674
 6564TIP3    H241252   2.695   2.292  29.778  1.0091  0.9785 -0.3012
 6565TIP3   OH241253   2.256   2.582   3.187 -0.7479 -0.6805  0.3959
 6565TIP3    H141254   2.274   2.501   3.234  0.4202  0.9157  2.9055
 6565TIP3    H241255   2.334   2.597   3.135 -0.3800 -0.4616  1.0099
 6566TIP3   OH241256   1.773   1.889   4.090 -0.3353  0.0509  0.0650
 6566TIP3    H141257   1.722   1.967   4.069 -0.3427 -0.7135 -3.2165
 6566TIP3    H241258   1.860   1.908   4.056 -0.0186 -0.9366  0.3131
 6567TIP3   OH241259   1.865   3.510  31.975 -0.1262 -0.3424 -0.1236
 6567TIP3    H141260   1.783   3.500  31.926 -0.1506  0.2135 -0.2020
 6567TIP3    H241261   1.904   3.590  31.940 -0.2831  0.2293  0.9716
 6568TIP3   OH241262   2.425   2.701  30.634 -0.5876 -0.2919  0.4085
 6568TIP3    H141263   2.384   2.787  30.626  0.3032  0.1240  0.1716
 6568TIP3    H241264   2.357   2.645  30.671 -0.6723  0.9150  2.1937
 6569TIP3   OH241265   0.654   3.226   4.262  0.3575 -0.2594  0.6707
 6569TIP3    H141266   0.695   3.156   4.211  0.0404 -1.2369  1.7099
 6569TIP3    H241267   0.727   3.285   4.285  0.5327  0.0993 -0.6993
 6570TIP3   OH241268   0.403   1.658  29.560  0.3846 -0.4460 -0.4482
 6570TIP3    H141269   0.375   1.568  29.546  0.2287 -0.4383 -0.1943
 6570TIP3    H241270   0.498   1.652  29.567  0.2801 -0.8459  1.2859
 6571TIP3   OH241271   0.101   0.813   7.263  1.3338  0.2943 -0.0226
 6571TIP3    H141272   0.044   0.742   7.231 -0.5284  1.4584  0.5637
 6571TIP3    H241273   0.132   0.856   7.183  0.0231  0.6442 -0.3804
 6572TIP3   OH241274   1.517   3.362  29.551  0.1569 -0.6642  0.2683
 6572TIP3    H141275   1.433   3.390  29.512  0.0719 -1.6695 -0.2923
 6572TIP3    H241276   1.582   3.414  29.504 -0.1790  0.5987  1.1481
 6573TIP3   OH241277   1.012   2.292   2.988  0.0273  0.3427 -0.2160
 6573TIP3    H141278   1.031   2.266   3.078 -1.3072 -0.7567 -0.2145
 6573TIP3    H241279   0.970   2.378   2.995 -0.6619 -0.0231  0.2914
 6574TIP3   OH241280   0.105   3.454  29.935  0.0793 -0.7639 -0.7528
 6574TIP3    H141281   0.172   3.483  29.873 -0.1226 -2.9762 -2.1038
 6574TIP3    H241282   0.030   3.430  29.880 -0.8940 -0.8126  0.5421
 6575TIP3   OH241283   3.332   3.362  26.604  0.0362  0.0266  0.5963
 6575TIP3    H141284   3.312   3.270  26.622  0.9915 -0.4870 -0.8158
 6575TIP3    H241285   3.422   3.361  26.572 -0.2792  1.3383 -0.4086
 6576TIP3   OH241286   0.087   1.023  31.703  0.1563  0.0630 -0.5073
 6576TIP3    H141287   0.096   1.104  31.752  1.7002  0.1186 -0.8552
 6576TIP3    H241288   0.094   0.954  31.769 -2.1275  0.1752 -0.0667
 6577TIP3   OH241289   2.024   2.059  29.142 -0.0849 -0.1533 -0.0231
 6577TIP3    H141290   1.945   2.039  29.192 -1.5736  0.2414 -2.0708
 6577TIP3    H241291   2.083   2.101  29.205 -1.9553  0.5948  1.3120
 6578TIP3   OH241292   0.141   1.679  27.982 -0.1053  0.1707  0.7366
 6578TIP3    H141293   0.235   1.692  27.969 -0.2602  1.1715  0.4976
 6578TIP3    H241294   0.119   1.738  28.054 -0.8292  1.2056 -0.2842
 6579TIP3   OH241295   1.691   2.111   6.701 -0.0821 -0.5226 -0.0279
 6579TIP3    H141296   1.606   2.125   6.659  0.7693  0.6165 -1.4576
 6579TIP3    H241297   1.674   2.128   6.794 -0.3638  5.6484 -0.7932
 6580TIP3   OH241298   3.497   1.407  26.364  0.2562 -0.2997 -0.2240
 6580TIP3    H141299   3.477   1.469  26.294  0.4188 -1.6655 -1.5441
 6580TIP3    H241300   3.424   1.344  26.361 -1.0379  0.9015  2.4780
 6581TIP3   OH241301   1.281   3.178  31.220 -0.5605 -0.1293  0.4913
 6581TIP3    H141302   1.296   3.151  31.130  0.6369  1.4153  0.1961
 6581TIP3    H241303   1.189   3.156  31.236 -0.8401 -0.2717 -1.1546
 6582TIP3   OH241304   2.829   1.407  29.815  0.6135 -0.3893  0.7484
 6582TIP3    H141305   2.862   1.318  29.831  0.0880 -0.4583  1.4770
 6582TIP3    H241306   2.735   1.401  29.829  0.4664  0.1178  0.0373
 6583TIP3   OH241307   0.760   3.418  29.725  0.1254 -0.2328 -0.4809
 6583TIP3    H141308   0.796   3.459  29.803 -1.6932  0.7763 -0.1163
 6583TIP3    H241309   0.781   3.325  29.734  2.2856  0.2354 -0.1665
 6584TIP3   OH241310   2.269   2.517  19.637  0.0740  0.1831  0.0026
 6584TIP3    H141311   2.208   2.462  19.587  1.4723 -0.3743 -1.1644
 6584TIP3    H241312   2.214   2.582  19.679 -1.2702  0.0697 -1.5033
 6585TIP3   OH241313   3.478   2.850  30.095  0.3472 -0.2722  0.0336
 6585TIP3    H141314   3.500   2.894  30.013  0.2505  2.8553  1.5531
 6585TIP3    H241315   3.547   2.784  30.106  1.8233  0.9720 -1.2981
 6586TIP3   OH241316   3.011   2.158   1.598 -0.2112 -0.2972  0.2329
 6586TIP3    H141317   3.032   2.080   1.547  0.4405 -1.4270  2.1520
 6586TIP3    H241318   3.090   2.175   1.649 -1.3406 -0.1083  1.9836
 6587TIP3   OH241319   2.102   3.348  29.651  0.1960 -0.0436 -0.2388
 6587TIP3    H141320   2.010   3.332  29.674  0.0038 -0.4065 -1.2127
 6587TIP3    H241321   2.101   3.428  29.599  0.6910  1.0525  1.3780
 6588TIP3   OH241322   2.869   1.158   5.201 -0.5848  0.2354 -0.1034
 6588TIP3    H141323   2.820   1.116   5.130 -1.6959  0.0123  0.7566
 6588TIP3    H241324   2.876   1.090   5.268 -0.0160  0.6059  0.2207
 6589TIP3   OH241325   3.079   3.338  26.771 -0.0941 -0.2416 -0.0503
 6589TIP3    H141326   3.150   3.400  26.786 -0.3804 -0.1597  1.0285
 6589TIP3    H241327   3.085   3.276  26.844 -0.9022 -0.4481 -0.1496
 6590TIP3   OH241328   2.639   1.122   1.738  0.5503 -0.0959 -0.0205
 6590TIP3    H141329   2.646   1.070   1.658  1.1451  1.3209 -0.9278
 6590TIP3    H241330   2.705   1.086   1.796 -0.4253 -1.6742  0.1935
 6591TIP3   OH241331   1.313   1.467   3.879 -0.2122  0.7017 -0.3501
 6591TIP3    H141332   1.339   1.499   3.793  5.6048 -0.6668  0.4658
 6591TIP3    H241333   1.328   1.541   3.938  2.1153 -0.0572  0.1157
 6592TIP3   OH241334   0.362   2.073  19.201 -0.0918  0.3605  0.9221
 6592TIP3    H141335   0.281   2.050  19.246 -0.0408  0.8544  1.2699
 6592TIP3    H241336   0.367   2.168  19.206  0.3895  0.3517  0.6965
 6593TIP3   OH241337   3.428   2.802   6.583 -0.2813  0.2428  0.4445
 6593TIP3    H141338   3.368   2.876   6.569 -0.2122  0.4418  1.1524
 6593TIP3    H241339   3.446   2.804   6.677  1.2759  0.5312  0.1701
 6594TIP3   OH241340   1.456   0.095  10.042  0.8999  0.2426  0.6370
 6594TIP3    H141341   1.483   0.096   9.950  0.8224 -0.9238  0.5954
 6594TIP3    H241342   1.514   0.158  10.085  0.3692  1.4578 -0.3526
 6595TIP3   OH241343   0.324   1.497  30.663 -0.3718 -0.4144 -0.0395
 6595TIP3    H141344   0.363   1.584  30.664 -0.8647 -0.1747  1.3364
 6595TIP3    H241345   0.393   1.440  30.630  0.1691  0.4007 -0.3605
 6596TIP3   OH241346   0.080   2.424   6.435  0.1427  0.5843 -0.6736
 6596TIP3    H141347   0.098   2.488   6.504 -1.3513  0.0703  0.2206
 6596TIP3    H241348   0.142   2.353   6.452  0.1541  0.7033 -0.2096
 6597TIP3   OH241349   2.303   1.539   4.925  0.0310 -0.6069 -0.1286
 6597TIP3    H141350   2.215   1.543   4.886  0.4335  1.8522 -0.9915
 6597TIP3    H241351   2.296   1.592   5.004  0.7344 -0.3304 -0.2428
 6598TIP3   OH241352   0.015   1.488  18.932  0.7931  0.1122  0.3747
 6598TIP3    H141353   0.077   1.540  18.881 -0.1128  1.1870  0.3216
 6598TIP3    H241354  -0.054   1.550  18.955 -1.3142 -1.4904 -1.2937
 6599TIP3   OH241355   3.058   0.993  30.705 -0.6794  0.0281  0.0991
 6599TIP3    H141356   3.078   0.902  30.683 -0.7924  0.1381 -0.4848
 6599TIP3    H241357   3.060   1.039  30.621  1.0607  0.9055  0.5718
 6600TIP3   OH241358   0.433   2.536   3.867  0.1141 -0.0197 -0.1468
 6600TIP3    H141359   0.451   2.452   3.825 -0.3563 -1.1039  1.7235
 6600TIP3    H241360   0.489   2.537   3.945 -0.9301  0.7744  0.6154
 6601TIP3   OH241361   0.733   1.595  31.228 -0.4994  0.3541 -0.5230
 6601TIP3    H141362   0.755   1.688  31.230  0.0708  0.2402  1.4319
 6601TIP3    H241363   0.708   1.575  31.318 -1.8231 -1.1254 -1.1836
 6602TIP3   OH241364   1.299   1.160   5.499 -0.3615 -0.3767 -0.3321
 6602TIP3    H141365   1.223   1.111   5.468  0.0886 -1.9551  0.9419
 6602TIP3    H241366   1.308   1.134   5.590  1.3200  0.2985 -0.2809
 6603TIP3   OH241367   2.942   1.405   5.645  0.5189 -0.2569 -0.4681
 6603TIP3    H141368   2.953   1.321   5.690 -2.1494 -0.8247 -0.7363
 6603TIP3    H241369   2.944   1.383   5.552 -0.8323 -0.1623 -0.5370
 6604TIP3   OH241370   1.470   1.228  30.934 -0.3408  0.0048 -0.4941
 6604TIP3    H141371   1.523   1.278  30.996  2.8459 -3.7897  0.1927
 6604TIP3    H241372   1.530   1.209  30.861 -2.3300 -0.3595 -2.1259
 6605TIP3   OH241373   1.423   1.272  31.677 -0.5383 -0.2911  0.7120
 6605TIP3    H141374   1.370   1.288  31.755  0.6817  0.2818  1.4486
 6605TIP3    H241375   1.359   1.255  31.608 -1.7991  2.4655  1.0743
 6606TIP3   OH241376   1.832   2.863  32.098 -0.2582  0.1258  0.0194
 6606TIP3    H141377   1.774   2.940  32.101 -1.5267 -0.7253 -1.3797
 6606TIP3    H241378   1.776   2.792  32.067  0.3330 -1.9237  3.2346
 6607TIP3   OH241379   1.480   2.962  12.435 -0.4423 -0.1494  0.1676
 6607TIP3    H141380   1.561   2.923  12.468 -0.2320  0.3074  0.2028
 6607TIP3    H241381   1.410   2.907  12.472 -0.2384  0.5477  1.6682
 6608TIP3   OH241382   0.801   2.835   5.769  0.0013 -0.0464 -0.6622
 6608TIP3    H141383   0.739   2.886   5.717 -1.7516  0.2490  1.5605
 6608TIP3    H241384   0.813   2.886   5.849 -0.2364 -2.1201  0.7787
 6609TIP3   OH241385   2.144   2.342  27.318 -0.0401  0.8628 -0.1582
 6609TIP3    H141386   2.207   2.414  27.323  0.4799  0.3906  0.1860
 6609TIP3    H241387   2.108   2.348  27.230 -0.3370  1.8245  0.0195
 6610TIP3   OH241388   3.016   2.617   3.924 -0.1802  0.3158 -0.5044
 6610TIP3    H141389   3.036   2.528   3.894 -0.4724 -0.0518  0.3512
 6610TIP3    H241390   2.920   2.617   3.933 -0.0636  0.2549  0.8753
 6611TIP3   OH241391   1.742   1.042   3.891 -0.6185 -0.1368 -0.5919
 6611TIP3    H141392   1.663   1.036   3.839 -1.8925 -0.3676  1.2719
 6611TIP3    H241393   1.758   1.136   3.901 -1.1238 -0.0795 -0.3148
 6612TIP3   OH241394   0.652   2.467   5.014  0.0268 -0.0058  0.2377
 6612TIP3    H141395   0.637   2.501   5.102  0.0315 -1.4388  0.8150
 6612TIP3    H241396   0.715   2.527   4.975  0.6279  0.2060  1.4913
 6613TIP3   OH241397   3.079   2.392  31.616 -0.0443 -0.0916 -0.0308
 6613TIP3    H141398   3.051   2.483  31.625  0.4813  0.0222  0.4929
 6613TIP3    H241399   3.023   2.344  31.677  0.7854  0.1183  0.9198
 6614TIP3   OH241400   1.106   0.228   1.905 -0.3342  0.0779 -0.3924
 6614TIP3    H141401   1.174   0.166   1.932  0.1866  0.3910 -0.9684
 6614TIP3    H241402   1.073   0.193   1.823 -0.8095 -0.0187 -0.1658
 6615TIP3   OH241403   0.742   2.988   3.149 -0.1475 -0.3239 -0.5719
 6615TIP3    H141404   0.781   2.903   3.171 -0.1120  0.1358  1.3314
 6615TIP3    H241405   0.775   3.008   3.062  0.3561 -1.9604 -0.7927
 6616TIP3   OH241406   1.192   2.935  26.572  0.4154 -0.5782 -0.4260
 6616TIP3    H141407   1.258   2.868  26.554 -0.5858 -1.7377  0.0951
 6616TIP3    H241408   1.115   2.907  26.523  0.1592  0.5198 -0.6796
 6617TIP3   OH241409   2.207   2.497  26.083  0.2661  0.4130 -0.3254
 6617TIP3    H141410   2.141   2.558  26.050 -0.8421  0.6168  2.0290
 6617TIP3    H241411   2.277   2.553  26.117  0.1892  0.3133  0.0031
 6618TIP3   OH241412   2.850   1.242  28.144 -0.1923  0.5463 -0.5449
 6618TIP3    H141413   2.793   1.282  28.079 -0.6347 -0.0759 -0.5539
 6618TIP3    H241414   2.812   1.155  28.158  0.6517  0.1897 -0.4152
 6619TIP3   OH241415   2.953   2.637  31.459 -0.0459 -0.0491  0.1389
 6619TIP3    H141416   2.955   2.682  31.544 -0.6213  0.4659 -0.1105
 6619TIP3    H241417   3.038   2.655  31.420 -0.1283  0.5056  0.2055
 6620TIP3   OH241418   2.732   0.340   0.425  0.5224 -0.0032  0.7067
 6620TIP3    H141419   2.674   0.417   0.430 -0.3867 -0.5535 -0.6546
 6620TIP3    H241420   2.814   0.375   0.390 -0.4310  0.1694 -1.6175
 6621TIP3   OH241421   2.332   3.436  14.928 -0.1281  0.5492 -0.1297
 6621TIP3    H141422   2.289   3.505  14.878 -0.4828 -1.2270 -2.4475
 6621TIP3    H241423   2.393   3.396  14.866  1.0384 -0.3942  1.5383
 6622TIP3   OH241424   1.297   0.297   2.443 -0.3875  0.2033  0.1124
 6622TIP3    H141425   1.286   0.325   2.534  0.8295  0.5120  0.1722
 6622TIP3    H241426   1.361   0.226   2.447  1.6507  1.9040 -0.7424
 6623TIP3   OH241427   1.706   0.078  15.515  0.0894 -0.4643  0.1822
 6623TIP3    H141428   1.647   0.029  15.572  0.4561 -1.6945 -0.4577
 6623TIP3    H241429   1.789   0.081  15.563  0.0343 -0.3725  0.2717
 6624TIP3   OH241430   0.801   2.379  31.977 -0.1032 -0.4778  0.1576
 6624TIP3    H141431   0.794   2.292  32.018 -0.4214 -0.8660 -0.6994
 6624TIP3    H241432   0.887   2.412  32.005  0.2180 -1.2614  0.1220
 6625TIP3   OH241433   3.085   2.349  19.275 -0.0125  0.1069  0.1273
 6625TIP3    H141434   3.034   2.341  19.194  2.4010  1.7042 -1.6922
 6625TIP3    H241435   3.051   2.427  19.317 -0.6990 -0.2336  0.2183
 6626TIP3   OH241436   2.761   1.890  30.507  0.4606 -0.4245  0.4817
 6626TIP3    H141437   2.835   1.868  30.450 -1.0135  1.8341 -2.6168
 6626TIP3    H241438   2.785   1.973  30.546  0.4632 -0.8024  1.3009
 6627TIP3   OH241439   0.581   0.117   3.932 -0.4117  0.2888  0.0668
 6627TIP3    H141440   0.565   0.069   4.013 -2.1509 -0.2880 -0.5872
 6627TIP3    H241441   0.606   0.050   3.869  0.7701  0.7167  0.0487
 6628TIP3   OH241442   1.629   2.132   5.174 -0.3277  0.4291  0.4341
 6628TIP3    H141443   1.691   2.164   5.108  1.3787 -2.0473  0.6892
 6628TIP3    H241444   1.651   2.182   5.253 -0.3047  1.2486 -0.0779
 6629TIP3   OH241445   2.246   0.086  14.768  0.3423  0.0185 -0.1792
 6629TIP3    H141446   2.232   0.132  14.851  0.7919  0.2549 -0.2308
 6629TIP3    H241447   2.159   0.081  14.728  0.5178  2.2550 -0.9242
 6630TIP3   OH241448   1.722   2.790   4.366 -0.3726  0.1100 -0.0629
 6630TIP3    H141449   1.731   2.868   4.420 -0.1517 -1.6498  2.6397
 6630TIP3    H241450   1.813   2.765   4.345 -0.3866  0.0151 -0.0139
 6631TIP3   OH241451   1.393   1.892  30.185  0.0956 -0.1803 -0.0658
 6631TIP3    H141452   1.398   1.808  30.139  0.6473  0.1752 -0.6749
 6631TIP3    H241453   1.460   1.946  30.143  0.8591  0.0459  1.3807
 6632TIP3   OH241454   3.290   1.619   6.413  0.1749  0.2671  0.8826
 6632TIP3    H141455   3.321   1.539   6.371 -1.6665 -1.4540  2.5894
 6632TIP3    H241456   3.235   1.661   6.347  0.3802 -0.3703  0.2964
 6633TIP3   OH241457   1.880   0.710  28.228  0.0841  0.2336  0.0143
 6633TIP3    H141458   1.883   0.805  28.239  0.4617  0.5770 -2.4933
 6633TIP3    H241459   1.931   0.693  28.149 -0.6856 -1.9754 -0.0801
 6634TIP3   OH241460   3.279   2.515   6.264  0.3164  0.3690  0.5217
 6634TIP3    H141461   3.304   2.436   6.216 -0.5632  0.1507  0.4013
 6634TIP3    H241462   3.305   2.497   6.355  2.9552  1.2110  0.0154
 6635TIP3   OH241463   3.016   1.983   5.698 -0.8843  0.0780 -0.3297
 6635TIP3    H141464   3.043   1.891   5.698 -0.2870  0.2477  0.3073
 6635TIP3    H241465   2.941   1.986   5.639  0.6583 -0.3761 -2.4426
 6636TIP3   OH241466   3.429   2.331  29.867 -0.1545  0.1398 -0.3349
 6636TIP3    H141467   3.420   2.317  29.962  0.2557  1.9945  0.0237
 6636TIP3    H241468   3.350   2.293  29.829 -1.2941  1.0912  0.9763
 6637TIP3   OH241469   1.535   0.007   7.679 -0.3021  0.7590 -0.1941
 6637TIP3    H141470   1.552  -0.040   7.761 -1.1366 -1.1317 -1.0311
 6637TIP3    H241471   1.577  -0.047   7.611  0.4076  2.3035 -1.0393
 6638TIP3   OH241472   0.750   3.085  32.396 -0.0530 -0.4609 -0.4022
 6638TIP3    H141473   0.725   3.000  32.359  1.3344 -0.0004 -2.5985
 6638TIP3    H241474   0.741   3.147  32.323  0.5487  0.9789  0.6806
 6639TIP3   OH241475   1.345   2.121  23.004 -0.2283 -0.1057  0.1593
 6639TIP3    H141476   1.355   2.179  23.080  2.2166 -0.5389  0.2650
 6639TIP3    H241477   1.431   2.079  22.995 -1.4640 -2.6142 -0.8133
 6640TIP3   OH241478   1.337   1.284  27.957 -0.0857  0.4658  0.9536
 6640TIP3    H141479   1.291   1.298  27.875 -0.3702  0.1420  1.0502
 6640TIP3    H241480   1.266   1.272  28.021  0.1290 -0.5924  1.0052
 6641TIP3   OH241481   3.256   0.172  26.276 -0.3694 -0.2217 -0.4747
 6641TIP3    H141482   3.285   0.160  26.186 -0.8123 -0.8296 -0.5402
 6641TIP3    H241483   3.197   0.248  26.272 -1.9419 -1.4166 -1.0695
 6642TIP3   OH241484   1.281   2.921  29.107 -0.1674 -0.2185  0.7317
 6642TIP3    H141485   1.249   3.006  29.077 -0.3640  0.0604  1.6747
 6642TIP3    H241486   1.344   2.943  29.176  1.2550 -0.7895 -0.3305
 6643TIP3   OH241487   1.757   0.081   4.341 -0.0676  0.7487 -0.1448
 6643TIP3    H141488   1.802   0.008   4.381  1.8532  1.1823 -1.3976
 6643TIP3    H241489   1.746   0.145   4.412  1.3289  0.6249  0.2088
 6644TIP3   OH241490   0.861   1.917  25.227 -0.3566  0.2301 -0.0880
 6644TIP3    H141491   0.932   1.963  25.271 -0.4088 -0.4411  0.7459
 6644TIP3    H241492   0.896   1.892  25.142 -0.0171  0.9709 -0.1669
 6645TIP3   OH241493   0.018   2.856  28.234  0.3793 -0.4563 -0.3835
 6645TIP3    H141494   0.019   2.764  28.260  0.4695 -0.2160  0.5145
 6645TIP3    H241495   0.087   2.863  28.169 -0.4608 -1.2729 -1.3949
 6646TIP3   OH241496   1.308   0.096   2.669 -0.2018 -0.0076  0.1268
 6646TIP3    H141497   1.395   0.066   2.693  0.3832  1.4506 -0.1023
 6646TIP3    H241498   1.267   0.123   2.752 -0.0964  0.1575  0.1253
 6647TIP3   OH241499   2.811   0.837  27.789 -0.2933  0.3491  0.2870
 6647TIP3    H141500   2.802   0.757  27.841  1.5492  0.7774  1.3493
 6647TIP3    H241501   2.829   0.806  27.700 -2.3074 -0.3791  0.0777
 6648TIP3   OH241502   3.023   2.591   5.285 -0.1561  0.4611  0.2321
 6648TIP3    H141503   3.079   2.669   5.274  0.0411  0.2600 -0.2231
 6648TIP3    H241504   3.084   2.521   5.305 -0.1253  0.0395 -1.2019
 6649TIP3   OH241505   2.504   0.061   2.079 -0.1455  0.3028 -0.1528
 6649TIP3    H141506   2.568   0.001   2.042  0.1729 -0.1166  1.0404
 6649TIP3    H241507   2.431   0.005   2.107  0.5312  0.3288  1.7722
 6650TIP3   OH241508   2.300   2.074   0.828 -0.4466 -0.0488  0.7453
 6650TIP3    H141509   2.252   1.992   0.813  0.3924 -0.6112  1.0315
 6650TIP3    H241510   2.327   2.069   0.919 -0.8373  0.8074  0.9149
 6651TIP3   OH241511   0.338   1.770  28.626  0.3274  0.0671  0.0254
 6651TIP3    H141512   0.391   1.842  28.591  0.2710  0.2579  0.3238
 6651TIP3    H241513   0.392   1.732  28.695 -0.0046  0.3985  0.4736
 6652TIP3   OH241514   1.229   2.547  31.622  0.4655  0.1324 -0.0014
 6652TIP3    H141515   1.307   2.493  31.635 -0.2179 -0.6754  0.8798
 6652TIP3    H241516   1.196   2.522  31.535 -0.5150 -1.8079  0.8672
 6653TIP3   OH241517   1.076   1.509   3.292  0.1736  0.2042 -0.1755
 6653TIP3    H141518   1.078   1.575   3.362 -1.6292  0.8627 -0.7047
 6653TIP3    H241519   1.031   1.552   3.220 -0.1960 -1.3063 -0.8740
 6654TIP3   OH241520   3.003   1.696  29.089  0.2167 -0.9441  0.1566
 6654TIP3    H141521   3.012   1.717  28.996  1.7501  0.7370  0.6330
 6654TIP3    H241522   3.068   1.628  29.104  2.8598  1.5285  0.7253
 6655TIP3   OH241523   2.083   3.530   5.742  0.0087  0.1575 -0.2537
 6655TIP3    H141524   2.083   3.626   5.741 -1.3735  0.2310  1.2492
 6655TIP3    H241525   2.173   3.505   5.721  1.2984  1.8981  2.6269
 6656TIP3   OH241526   2.734   0.564   4.025  0.4964 -0.6633  0.1042
 6656TIP3    H141527   2.762   0.483   4.067  0.4996 -0.5993  0.2284
 6656TIP3    H241528   2.646   0.546   3.994  0.4544 -0.6790  0.2310
 6657TIP3   OH241529   1.279   0.388  27.513 -0.1983  0.4118 -0.3352
 6657TIP3    H141530   1.281   0.483  27.518  2.4881  0.4460 -0.5526
 6657TIP3    H241531   1.371   0.361  27.525 -0.8761 -2.1542 -0.1938
 6658TIP3   OH241532   1.886   1.455  31.385 -0.3150  0.0693  0.0668
 6658TIP3    H141533   1.933   1.530  31.420 -0.6319 -0.1474  1.0090
 6658TIP3    H241534   1.794   1.480  31.389 -0.3631  0.0122 -0.5689
 6659TIP3   OH241535   0.587   0.604  30.090  0.0651 -0.0867  0.6023
 6659TIP3    H141536   0.610   0.605  30.183 -2.4460  0.8478  1.3137
 6659TIP3    H241537   0.550   0.516  30.076  0.6478 -0.3059  0.4117
 6660TIP3   OH241538   0.465   1.512  32.721 -0.0972 -0.2575  0.1336
 6660TIP3    H141539   0.397   1.545  32.779 -0.9591  2.1714 -2.0819
 6660TIP3    H241540   0.427   1.518  32.633  1.2230 -3.5293 -0.8180
 6661TIP3   OH241541   1.555   1.643   0.588 -0.2148  0.1853  0.0572
 6661TIP3    H141542   1.607   1.611   0.662 -0.6255 -1.4275 -0.3128
 6661TIP3    H241543   1.531   1.564   0.540  2.7943  1.2902 -3.7751
 6662TIP3   OH241544   1.429   2.276  28.168  0.4566 -0.5193 -0.3412
 6662TIP3    H141545   1.487   2.271  28.092  1.3609 -0.2481  0.3092
 6662TIP3    H241546   1.391   2.189  28.176 -0.3228 -0.3188 -1.6127
 6663TIP3   OH241547   0.276   0.584  31.110 -0.1367  0.7861 -0.0191
 6663TIP3    H141548   0.196   0.532  31.115  0.2511 -0.1198 -1.9427
 6663TIP3    H241549   0.269   0.629  31.025  1.7595 -0.0091 -0.6378
 6664TIP3   OH241550   0.117   2.429   0.113 -0.1764 -0.2680  0.5216
 6664TIP3    H141551   0.171   2.505   0.090  0.9928 -0.6780  1.7690
 6664TIP3    H241552   0.156   2.357   0.064 -0.3318 -0.3535  0.5242
 6665TIP3   OH241553   1.714   2.340   1.269 -0.0295  0.5798 -0.1741
 6665TIP3    H141554   1.625   2.358   1.241 -0.3190  1.5925  1.2492
 6665TIP3    H241555   1.767   2.408   1.227 -0.1463  0.8176  0.0584
 6666TIP3   OH241556   0.233   1.322   2.222  0.1075  0.2310 -0.1795
 6666TIP3    H141557   0.222   1.365   2.307  0.9996 -1.8620  1.0601
 6666TIP3    H241558   0.326   1.334   2.201 -0.0423  0.4672 -0.7188
 6667TIP3   OH241559   2.653   1.001   1.263  0.2708 -0.5450 -0.5321
 6667TIP3    H141560   2.741   0.984   1.297  0.3931 -1.1306 -1.1034
 6667TIP3    H241561   2.638   1.094   1.279  0.9981 -0.4400 -0.4313
 6668TIP3   OH241562   2.053   0.063  31.393  0.2453  1.5395 -0.1170
 6668TIP3    H141563   2.138   0.107  31.394  0.6201  0.8653 -0.8350
 6668TIP3    H241564   2.054   0.005  31.469  0.7663  0.9338 -0.5769
 6669TIP3   OH241565   3.014   2.098   0.158  0.0792  0.0821  0.0606
 6669TIP3    H141566   2.932   2.095   0.208  1.0118 -1.4052  1.6329
 6669TIP3    H241567   3.041   2.190   0.162  0.2145 -0.0008  2.5638
 6670TIP3   OH241568   3.087   2.790   3.650 -0.0255 -0.2462 -0.0045
 6670TIP3    H141569   3.142   2.792   3.571  0.9771 -0.8922  0.6537
 6670TIP3    H241570   3.138   2.740   3.714 -2.1704 -2.5085  0.0879
 6671TIP3   OH241571   3.057   2.002   1.382 -0.1865  0.2826 -0.1366
 6671TIP3    H141572   3.075   2.084   1.336  0.5258  0.3225  0.1917
 6671TIP3    H241573   3.127   1.943   1.354 -0.7771 -0.2657 -0.4804
 6672TIP3   OH241574   2.207   2.327   3.006  0.5906 -0.4807 -0.0545
 6672TIP3    H141575   2.181   2.274   2.930 -0.4919 -1.3865  0.9182
 6672TIP3    H241576   2.276   2.276   3.048  1.0827 -0.0493 -0.3200
 6673TIP3   OH241577   0.134   1.903   7.118  0.2638 -0.1500  0.3218
 6673TIP3    H141578   0.124   1.998   7.112  1.4384 -0.0767 -1.1590
 6673TIP3    H241579   0.047   1.868   7.099 -0.4085  0.6264  1.8335
 6674TIP3   OH241580   2.752   0.805   2.257 -0.4272  0.0501 -0.1061
 6674TIP3    H141581   2.713   0.725   2.293  1.0387 -2.0912 -2.8847
 6674TIP3    H241582   2.679   0.867   2.251 -1.8897 -1.4626  1.0441
 6675TIP3   OH241583   1.856   2.235  27.330 -0.0562  0.2254 -0.3837
 6675TIP3    H141584   1.815   2.212  27.246 -0.2523  0.1459 -0.2662
 6675TIP3    H241585   1.943   2.196  27.325 -0.5150 -0.8791 -0.0264
 6676TIP3   OH241586   0.482   2.889   1.847 -0.9415 -0.5283  0.3333
 6676TIP3    H141587   0.576   2.889   1.861 -0.9758 -2.6129  0.8343
 6676TIP3    H241588   0.445   2.856   1.929 -2.3507  2.6595  1.1360
 6677TIP3   OH241589   1.200   0.836  26.267 -0.0596  0.3768 -0.4501
 6677TIP3    H141590   1.259   0.768  26.301 -0.6538 -0.8108 -1.6902
 6677TIP3    H241591   1.197   0.902  26.336  0.1695 -1.0760  1.0076
 6678TIP3   OH241592   2.550   1.112   7.087 -0.0282 -0.5247 -0.6691
 6678TIP3    H141593   2.623   1.053   7.067 -0.8216 -1.8000  0.1195
 6678TIP3    H241594   2.572   1.193   7.040  2.1424 -0.6988 -0.0694
 6679TIP3   OH241595   2.921   2.288  21.015  0.0182 -0.5644  0.3273
 6679TIP3    H141596   2.873   2.247  21.088 -1.0240 -0.2624 -0.1701
 6679TIP3    H241597   2.866   2.361  20.988  1.4442  0.6675  0.6352
 6680TIP3   OH241598   0.569   2.890  28.733  0.0079 -0.1653  0.2180
 6680TIP3    H141599   0.661   2.864  28.738  0.4009  1.1483  0.2657
 6680TIP3    H241600   0.570   2.972  28.682 -1.4545 -1.5861 -2.3141
 6681TIP3   OH241601   2.976   2.922   0.663 -0.5172  0.6884  0.1281
 6681TIP3    H141602   2.955   2.996   0.607 -1.5529 -0.7218 -1.4114
 6681TIP3    H241603   2.975   2.959   0.752  0.6930  2.8654 -0.6664
 6682TIP3   OH241604   2.763   1.943   4.537  0.4314  0.0680 -0.0997
 6682TIP3    H141605   2.804   1.952   4.623  0.1600  1.4218 -0.0811
 6682TIP3    H241606   2.837   1.932   4.477  0.7870  1.3739  0.0662
 6683TIP3   OH241607   0.212   1.904   4.868 -0.2465  0.1240  0.3978
 6683TIP3    H141608   0.205   1.940   4.780 -1.2752 -0.2227  0.3258
 6683TIP3    H241609   0.216   1.809   4.855  0.3145  0.1001  0.6944
 6684TIP3   OH241610   1.609   2.349  13.945  0.1505  0.1178 -0.0659
 6684TIP3    H141611   1.651   2.413  14.003 -0.3573 -0.0640  0.5184
 6684TIP3    H241612   1.645   2.265  13.973  0.2601  0.0720 -0.3398
 6685TIP3   OH241613   1.881   1.385   0.709  0.0652  0.1373 -0.2809
 6685TIP3    H141614   1.829   1.304   0.712  2.2486 -1.3764 -0.4999
 6685TIP3    H241615   1.855   1.433   0.787 -1.5810 -0.5705 -0.3442
 6686TIP3   OH241616   2.930   0.081  29.768  0.7277 -0.6799  0.4374
 6686TIP3    H141617   3.019   0.078  29.801  0.7544  0.6518  0.5262
 6686TIP3    H241618   2.885   0.145  29.824  0.4547  0.7298 -1.3020
 6687TIP3   OH241619   2.798   2.858   4.305  0.0524 -0.0044  0.1025
 6687TIP3    H141620   2.777   2.937   4.355  0.0534 -1.5540  2.7528
 6687TIP3    H241621   2.893   2.857   4.299  0.1036 -0.2156  0.8460
 6688TIP3   OH241622   3.362   2.429  28.298 -0.3761 -0.1321 -0.4559
 6688TIP3    H141623   3.281   2.403  28.254 -1.1873 -0.2395  1.0279
 6688TIP3    H241624   3.335   2.450  28.388  1.2290 -0.1012  0.0561
 6689TIP3   OH241625   0.319   3.118  11.486 -0.8667  0.3668  0.3358
 6689TIP3    H141626   0.234   3.075  11.494 -0.1697 -1.7953 -2.2135
 6689TIP3    H241627   0.318   3.156  11.398  1.3032 -1.0894 -0.4027
 6690TIP3   OH241628   1.485   3.395  14.946  0.6475  0.1913 -0.2216
 6690TIP3    H141629   1.452   3.485  14.950  1.0518  0.3229  0.1535
 6690TIP3    H241630   1.422   3.345  14.999  0.6090  0.3092 -0.1548
 6691TIP3   OH241631   0.461   2.253   0.185  0.5342  0.3550 -0.4128
 6691TIP3    H141632   0.442   2.328   0.129 -1.8944  0.2132  0.1093
 6691TIP3    H241633   0.474   2.291   0.272 -1.1582  0.1782 -0.0574
 6692TIP3   OH241634   1.481   1.117  32.581 -0.5050  0.4330  0.2223
 6692TIP3    H141635   1.549   1.104  32.647 -0.4110 -0.1156  0.0227
 6692TIP3    H241636   1.464   1.211  32.582 -0.2800  0.4694  0.8050
 6693TIP3   OH241637   0.543   2.374  20.414  0.0986 -0.0511 -0.0213
 6693TIP3    H141638   0.472   2.434  20.392 -0.5928 -0.8527 -0.0059
 6693TIP3    H241639   0.512   2.328  20.492 -0.1132 -1.6184 -0.9898
 6694TIP3   OH241640   2.660   2.683   1.319 -0.3134 -0.2124  0.0772
 6694TIP3    H141641   2.601   2.732   1.376 -1.4684  0.2991 -1.4758
 6694TIP3    H241642   2.609   2.606   1.293 -0.4735  0.3721 -1.5012
 6695TIP3   OH241643   1.525   3.010   4.484  0.6998  0.8004  0.2523
 6695TIP3    H141644   1.526   3.011   4.388 -0.0496  0.5536  0.2304
 6695TIP3    H241645   1.561   3.095   4.510  0.8695  0.8812 -0.2490
 6696TIP3   OH241646   1.130   3.209  14.200 -0.1754  0.1658  0.2417
 6696TIP3    H141647   1.186   3.177  14.129 -0.5990 -1.9312  0.7942
 6696TIP3    H241648   1.084   3.284  14.162  0.9978  0.2688 -1.0751
 6697TIP3   OH241649   0.079   2.000  20.357  0.3338 -0.2325  0.0692
 6697TIP3    H141650   0.130   1.944  20.299  0.8889 -0.6300  0.9114
 6697TIP3    H241651   0.119   2.087  20.349 -0.1125 -0.0963 -0.7476
 6698TIP3   OH241652   1.632   0.913   6.899 -0.4939 -0.1524 -0.2021
 6698TIP3    H141653   1.640   0.881   6.809  0.2363  2.5025 -1.1855
 6698TIP3    H241654   1.683   0.851   6.951 -0.1647 -1.2414 -1.7409
 6699TIP3   OH241655   1.593   0.957   6.612 -0.5521  0.2649  0.1115
 6699TIP3    H141656   1.524   0.980   6.675 -0.7197 -0.8802  0.3562
 6699TIP3    H241657   1.562   0.993   6.529 -2.0257 -1.1969 -0.0284
 6700TIP3   OH241658   1.770   3.284   2.653  0.1672  0.1136  0.6830
 6700TIP3    H141659   1.841   3.346   2.636  2.2884 -2.7636 -2.0755
 6700TIP3    H241660   1.813   3.209   2.694 -1.2345 -1.6466 -0.8669
 6701TIP3   OH241661   1.547   2.479   3.363  0.1331 -0.5213  0.1115
 6701TIP3    H141662   1.514   2.548   3.420 -0.5266 -2.0554  1.6667
 6701TIP3    H241663   1.603   2.524   3.300  0.3546  1.3118  1.5646
 6702TIP3   OH241664   2.510   2.621   4.360 -0.0715 -0.2393  0.0662
 6702TIP3    H141665   2.521   2.713   4.387 -3.1731  0.1293  0.4759
 6702TIP3    H241666   2.508   2.625   4.264  0.2409  0.0660  0.0715
 6703TIP3   OH241667   1.598   0.722   4.057 -0.2610 -0.0895  0.0158
 6703TIP3    H141668   1.667   0.747   4.119 -0.2402  1.0675 -0.4396
 6703TIP3    H241669   1.564   0.639   4.090 -0.7146  0.8182  1.9778
 6704TIP3   OH241670   2.846   2.324  29.350 -0.2816  0.4705  0.5676
 6704TIP3    H141671   2.817   2.360  29.266 -0.0914  1.1200  0.7751
 6704TIP3    H241672   2.940   2.309  29.338  0.3163  2.9479  1.4423
 6705TIP3   OH241673   1.619   2.817   2.470 -0.0411 -0.0104  0.3383
 6705TIP3    H141674   1.636   2.902   2.429  0.6037 -0.0235  0.5691
 6705TIP3    H241675   1.558   2.837   2.542 -1.1220  0.0186 -0.5694
 6706TIP3   OH241676   1.213   2.081  29.338 -0.0248  0.7944  0.3591
 6706TIP3    H141677   1.131   2.128  29.355 -0.7664 -0.0831 -0.6380
 6706TIP3    H241678   1.226   2.090  29.244  0.7408  0.4704  0.4319
 6707TIP3   OH241679   0.042   3.445  32.657 -0.4261 -0.9589  0.3556
 6707TIP3    H141680  -0.050   3.425  32.646 -0.2945 -0.8787 -0.9549
 6707TIP3    H241681   0.044   3.528  32.704 -1.1223  1.3090 -3.3159
 6708TIP3   OH241682   3.011   2.835  26.921  0.3022 -0.1046 -0.5553
 6708TIP3    H141683   3.077   2.798  26.862  0.5663  0.0400 -0.3562
 6708TIP3    H241684   2.940   2.863  26.864  0.2279 -0.6523 -0.7364
 6709TIP3   OH241685   0.530   1.491  20.739 -0.1297 -0.3097 -0.8897
 6709TIP3    H141686   0.548   1.583  20.722 -0.4038 -0.4945 -2.3416
 6709TIP3    H241687   0.558   1.446  20.659  0.6453 -1.5818  0.0546
 6710TIP3   OH241688   1.584   3.546  12.600  0.0283  0.4849 -0.4013
 6710TIP3    H141689   1.514   3.482  12.595 -1.7262  2.2042  1.0407
 6710TIP3    H241690   1.596   3.575  12.509 -2.2782  1.3067 -0.4986
 6711TIP3   OH241691   1.142   2.170  31.579 -0.3630  0.3507  0.2978
 6711TIP3    H141692   1.050   2.162  31.605 -0.0691  0.5027  1.4191
 6711TIP3    H241693   1.184   2.093  31.618 -0.1518 -0.1622 -0.9060
 6712TIP3   OH241694   0.945   1.770  22.400 -0.2016  0.2581  0.3736
 6712TIP3    H141695   0.989   1.690  22.429 -1.1585  0.0173  1.2054
 6712TIP3    H241696   1.013   1.837  22.402  0.1946 -0.1560  1.4036
 6713TIP3   OH241697   0.010   1.497  22.497  0.4476  0.1154 -0.2949
 6713TIP3    H141698  -0.049   1.468  22.427  1.7570 -1.3581 -0.8462
 6713TIP3    H241699   0.056   1.571  22.459  0.4733 -0.0798 -0.6517
 6714TIP3   OH241700   0.717   2.222  29.767 -1.0152 -0.3096 -0.0549
 6714TIP3    H141701   0.711   2.182  29.853 -0.3230  1.0881  0.6785
 6714TIP3    H241702   0.758   2.155  29.712 -1.1432 -1.0894  0.7833
 6715TIP3   OH241703   0.110   0.777   5.356 -0.1212 -0.1050 -0.0394
 6715TIP3    H141704   0.091   0.803   5.266 -1.6684 -1.3052 -0.1070
 6715TIP3    H241705   0.138   0.686   5.349  2.0620  0.4680  0.4913
 6716TIP3   OH241706   2.613   2.224  28.167 -0.0078  0.1661  0.5506
 6716TIP3    H141707   2.649   2.293  28.223  1.4019 -0.5035  0.5004
 6716TIP3    H241708   2.529   2.259  28.137  0.6069  1.7968  0.6561
 6717TIP3   OH241709   3.447   0.743  29.960 -0.0345  0.4323  0.1979
 6717TIP3    H141710   3.358   0.778  29.964  0.0218  1.2376 -2.8293
 6717TIP3    H241711   3.435   0.650  29.940 -0.1879  0.3817  0.5161
 6718TIP3   OH241712   1.966   2.397  28.302  0.2935 -0.0534 -0.4975
 6718TIP3    H141713   1.911   2.334  28.256 -1.5674  0.3520  1.0181
 6718TIP3    H241714   1.907   2.436  28.368  1.9800  1.6194  0.1045
 6719TIP3   OH241715   2.672   0.519   1.533  0.4236 -0.2319  0.0824
 6719TIP3    H141716   2.747   0.523   1.593  0.3074 -0.1787  0.2245
 6719TIP3    H241717   2.704   0.558   1.452  0.8436 -1.0617 -0.1693
 6720TIP3   OH241718   1.171   2.089   2.096 -0.6603 -0.6241  0.3267
 6720TIP3    H141719   1.145   2.064   2.007  0.3727  0.1623 -0.2371
 6720TIP3    H241720   1.107   2.048   2.153 -2.1233 -0.0772 -0.8666
 6721TIP3   OH241721   3.325   0.537  29.686 -0.4342  0.1745 -0.1000
 6721TIP3    H141722   3.302   0.459  29.634  0.1524  0.2054 -0.4264
 6721TIP3    H241723   3.273   0.607  29.648 -0.6214  0.0336 -0.1077
 6722TIP3   OH241724   0.958   0.516  12.868  0.5843 -0.5677  0.0860
 6722TIP3    H141725   0.968   0.431  12.911  0.3120 -0.4784  0.3247
 6722TIP3    H241726   0.905   0.497  12.790 -2.0898 -0.1469  1.6865
 6723TIP3   OH241727   1.742   1.223   8.060  0.5882  0.2518  0.6214
 6723TIP3    H141728   1.764   1.285   7.991 -3.3377 -1.4842 -2.5547
 6723TIP3    H241729   1.827   1.197   8.096  2.7010  3.1348 -1.7463
 6724TIP3   OH241730   2.784   2.356  30.559  0.0117  0.0263  0.2106
 6724TIP3    H141731   2.739   2.440  30.553  0.6111  0.3577  0.2083
 6724TIP3    H241732   2.741   2.301  30.494 -0.6573  0.2002  0.5001
 6725TIP3   OH241733   2.763   3.509  27.208 -0.0801 -0.4755 -0.1934
 6725TIP3    H141734   2.729   3.431  27.253  0.6966 -0.9955 -0.4878
 6725TIP3    H241735   2.766   3.576  27.277 -0.4270 -0.7948  0.1452
 6726TIP3   OH241736   0.713   1.597   3.587  0.1370 -0.1819 -0.3967
 6726TIP3    H141737   0.802   1.603   3.552  0.8690 -1.1741  1.1793
 6726TIP3    H241738   0.682   1.688   3.589  1.7125  0.3793  0.4535
 6727TIP3   OH241739   2.961   3.238   0.763 -0.4230 -0.2670 -0.3872
 6727TIP3    H141740   2.931   3.237   0.673 -0.6868  1.1164 -0.3469
 6727TIP3    H241741   2.882   3.253   0.815 -0.5614 -2.8733  0.2606
 6728TIP3   OH241742   0.961   2.146   6.583 -0.1169 -0.4907  0.1478
 6728TIP3    H141743   1.008   2.077   6.629 -1.4331  0.4572  3.1505
 6728TIP3    H241744   1.006   2.227   6.607  0.9285 -0.0846 -2.6971
 6729TIP3   OH241745   1.707   1.948  32.568  0.1784  0.5474  0.4233
 6729TIP3    H141746   1.716   2.026  32.513  1.3044  0.0933 -0.0710
 6729TIP3    H241747   1.752   1.971  32.650  2.5162 -0.2812 -0.5246
 6730TIP3   OH241748   0.309   3.192  32.480 -0.1337  0.6742 -0.4893
 6730TIP3    H141749   0.228   3.158  32.517  0.9997 -0.9275  0.6610
 6730TIP3    H241750   0.301   3.287  32.488 -1.3637  0.5014  0.7733
 6731TIP3   OH241751   1.999   0.852   2.309 -0.2260 -0.2892  0.3991
 6731TIP3    H141752   2.006   0.945   2.332  0.4353 -0.2382  0.0220
 6731TIP3    H241753   1.906   0.832   2.319 -0.2968  0.2822  0.9783
 6732TIP3   OH241754   1.617   2.957   1.902  0.5279 -0.0669  0.1274
 6732TIP3    H141755   1.667   3.038   1.905 -0.8146  0.7645  0.9423
 6732TIP3    H241756   1.536   2.977   1.949  0.2428 -1.9338  0.5001
 6733TIP3   OH241757   2.637   0.295  30.393 -0.0607 -0.1386  0.0747
 6733TIP3    H141758   2.568   0.234  30.366  0.2272 -0.0996 -0.7753
 6733TIP3    H241759   2.598   0.347  30.462 -1.0087  0.1048 -0.6261
 6734TIP3   OH241760   1.115   3.153  10.856 -0.0217 -0.2903  0.1546
 6734TIP3    H141761   1.032   3.129  10.898  0.5631 -1.8849  0.4734
 6734TIP3    H241762   1.106   3.123  10.766  0.2743 -0.6743  0.2487
 6735TIP3   OH241763   2.083   0.412  13.368 -0.2633 -0.3286  0.5504
 6735TIP3    H141764   2.150   0.345  13.369  0.0824 -0.0299  2.4827
 6735TIP3    H241765   2.117   0.481  13.426 -1.9948  0.0452  1.1913
 6736TIP3   OH241766   2.446   0.172   0.694  0.1978 -0.2578  0.1531
 6736TIP3    H141767   2.542   0.165   0.691  0.1478 -0.6394 -1.8112
 6736TIP3    H241768   2.425   0.235   0.624 -1.0059 -0.5189  0.2689
 6737TIP3   OH241769   2.224   2.212  32.347 -0.1542  0.1154 -0.2524
 6737TIP3    H141770   2.135   2.177  32.351 -0.1509  0.2142  2.3948
 6737TIP3    H241771   2.212   2.305  32.331 -0.6011  0.2371  0.6913
 6738TIP3   OH241772   0.129   0.698   1.436 -0.5329 -0.3339 -0.7199
 6738TIP3    H141773   0.151   0.781   1.394  0.5573  0.1721  0.7785
 6738TIP3    H241774   0.202   0.641   1.416 -0.5771 -0.4594 -0.5285
 6739TIP3   OH241775   0.035   1.407  31.781  0.1528 -0.7153  0.1760
 6739TIP3    H141776  -0.054   1.384  31.754  0.5979 -2.2750 -0.0686
 6739TIP3    H241777   0.034   1.400  31.876  0.3579 -2.2036  0.0941
 6740TIP3   OH241778   1.517   2.946  12.165 -0.3031 -0.5228 -0.6446
 6740TIP3    H141779   1.507   2.937  12.260 -1.9315  1.4567 -0.5391
 6740TIP3    H241780   1.431   2.922  12.130 -0.3173  0.6078 -1.4255
 6741TIP3   OH241781   1.284   1.469  24.918 -0.0388  0.1830 -0.3088
 6741TIP3    H141782   1.209   1.429  24.962  1.0541 -1.3100  0.2710
 6741TIP3    H241783   1.293   1.555  24.958 -0.5189 -0.2306  0.6983
 6742TIP3   OH241784   3.149   1.832   2.196 -0.2610  0.4053 -0.0845
 6742TIP3    H141785   3.178   1.895   2.262 -0.2499  0.4314 -0.1142
 6742TIP3    H241786   3.223   1.825   2.135 -1.3609  2.6585 -1.7902
 6743TIP3   OH241787   2.250   1.064   2.861 -0.1658  0.1907  0.1764
 6743TIP3    H141788   2.209   1.150   2.859 -0.8431  0.1831  4.4083
 6743TIP3    H241789   2.176   1.002   2.861 -0.0752 -0.0305  2.7986
 6744TIP3   OH241790   2.517   1.896   3.055 -0.1875 -0.2745 -0.3785
 6744TIP3    H141791   2.555   1.836   3.118  2.4832 -1.0904 -2.5661
 6744TIP3    H241792   2.575   1.972   3.056 -0.5568  0.0371 -1.2667
 6745TIP3   OH241793   0.948   2.957  29.240 -0.7274 -0.3501 -0.2337
 6745TIP3    H141794   0.892   3.002  29.177  1.3685  0.8017 -1.3667
 6745TIP3    H241795   0.991   2.888  29.190 -1.0248 -1.1614  0.5987
 6746TIP3   OH241796   3.308   1.385  17.741  0.1347  0.4231 -0.0435
 6746TIP3    H141797   3.277   1.299  17.712  1.3643 -0.1326  0.2024
 6746TIP3    H241798   3.403   1.375  17.746  0.1961  1.3988  1.2642
 6747TIP3   OH241799   2.382   1.495   7.937 -0.6527  0.2773 -0.0775
 6747TIP3    H141800   2.452   1.470   7.997 -1.4256  0.1254  0.7676
 6747TIP3    H241801   2.407   1.454   7.854 -0.6438 -1.2695  0.6562
 6748TIP3   OH241802   2.466   3.047  27.081 -0.4560 -0.0398 -0.3203
 6748TIP3    H141803   2.398   2.980  27.072  0.0665 -0.8560  1.4533
 6748TIP3    H241804   2.544   2.998  27.107 -0.1259  1.2570  1.2822
 6749TIP3   OH241805   2.518   1.733  27.030  0.1796  0.1084 -0.2243
 6749TIP3    H141806   2.569   1.746  27.110 -1.1678  1.0540  0.5021
 6749TIP3    H241807   2.437   1.782  27.044 -0.7926 -1.0587 -1.5052
 6750TIP3   OH241808   2.498   2.998   3.797 -0.3431 -0.1771  0.0051
 6750TIP3    H141809   2.508   3.036   3.885 -0.6860 -3.1437  1.4334
 6750TIP3    H241810   2.583   2.959   3.778 -0.5544 -0.3512 -0.6025
 6751TIP3   OH241811   1.433   2.437  19.282 -0.0081 -0.0130  0.3522
 6751TIP3    H141812   1.475   2.427  19.368 -0.3413 -0.5312  0.4599
 6751TIP3    H241813   1.497   2.402  19.220  1.3500  2.7349  0.0841
 6752TIP3   OH241814   0.388   2.397   2.264  0.0708 -0.3823  0.2364
 6752TIP3    H141815   0.321   2.458   2.232  0.6230 -0.2375 -0.6980
 6752TIP3    H241816   0.428   2.362   2.184  0.4516 -1.1993  0.7743
 6753TIP3   OH241817   1.596   2.658  29.855 -0.2363 -0.2393  0.4300
 6753TIP3    H141818   1.641   2.671  29.938 -0.0904 -1.4665  0.5697
 6753TIP3    H241819   1.654   2.695  29.789  1.4204 -2.4498  0.5191
 6754TIP3   OH241820   1.020   2.601  30.724  0.4947  0.6623  0.1293
 6754TIP3    H141821   1.057   2.584  30.637 -0.2007  0.2566 -0.0946
 6754TIP3    H241822   1.029   2.696  30.735 -0.7216  0.9513 -1.0183
 6755TIP3   OH241823   3.277   2.211   4.064 -0.9048 -0.5672  0.1189
 6755TIP3    H141824   3.369   2.190   4.042 -1.0259 -1.5369  0.4605
 6755TIP3    H241825   3.278   2.225   4.158 -0.8770  0.7933 -0.0765
 6756TIP3   OH241826   0.418   1.520   3.588 -0.2550  1.0436  0.4165
 6756TIP3    H141827   0.497   1.517   3.642  0.9173  0.7305 -1.2272
 6756TIP3    H241828   0.438   1.585   3.521 -1.3486  0.8674 -0.0910
 6757TIP3   OH241829   0.910   0.207   5.124 -0.3333  0.1333 -0.2996
 6757TIP3    H141830   0.822   0.241   5.137 -0.7944 -1.4601  1.1352
 6757TIP3    H241831   0.902   0.146   5.051 -0.5824 -0.4737  0.2227
 6758TIP3   OH241832   2.503   2.213  19.888 -0.2589  0.2324  0.1806
 6758TIP3    H141833   2.516   2.252  19.801 -1.4280  2.1124  0.7775
 6758TIP3    H241834   2.583   2.163  19.903  1.5099  2.5777 -0.6239
 6759TIP3   OH241835   3.157   1.363   4.789 -0.5168 -0.1830 -0.1039
 6759TIP3    H141836   3.183   1.315   4.711  1.7367 -0.6299  0.8576
 6759TIP3    H241837   3.108   1.300   4.841 -2.2865  0.1970 -1.2092
 6760TIP3   OH241838   0.384   1.389  28.829 -0.1440 -0.3495 -0.4407
 6760TIP3    H141839   0.396   1.345  28.745 -0.3693  1.0724 -1.2454
 6760TIP3    H241840   0.290   1.404  28.836 -0.0187  0.4529 -0.4169
 6761TIP3   OH241841   1.074   2.894   7.341 -0.4150  0.5928 -0.2501
 6761TIP3    H141842   1.079   2.977   7.388 -0.7760  0.8037 -0.5808
 6761TIP3    H241843   0.986   2.861   7.357 -0.9923  1.2827 -1.7896
 6762TIP3   OH241844   1.501   1.521  22.907  0.4216  0.1197 -0.0097
 6762TIP3    H141845   1.434   1.585  22.930  0.8278  0.5087  0.1183
 6762TIP3    H241846   1.521   1.476  22.989 -1.5276 -1.8241 -0.5137
 6763TIP3   OH241847   1.175   2.666   6.209 -0.0751 -0.1899 -0.0858
 6763TIP3    H141848   1.099   2.708   6.169 -0.9008 -1.0527  0.5073
 6763TIP3    H241849   1.245   2.673   6.144 -1.1930 -1.0191 -1.4447
 6764TIP3   OH241850   0.039   0.643   2.163  0.3166 -0.5400  0.2270
 6764TIP3    H141851   0.084   0.579   2.218 -1.9300  0.0888  3.0284
 6764TIP3    H241852   0.010   0.593   2.086  0.8596 -2.2483  1.0887
 6765TIP3   OH241853   3.384   0.630   6.741  0.3308  0.1988 -0.5313
 6765TIP3    H141854   3.442   0.632   6.817 -0.4086  2.4530  0.0728
 6765TIP3    H241855   3.303   0.590   6.773  0.9091 -1.3335 -0.9047
 6766TIP3   OH241856   0.501   0.433  26.780  0.1512 -0.2091  0.4228
 6766TIP3    H141857   0.512   0.365  26.714  1.8206 -0.4129  0.8633
 6766TIP3    H241858   0.551   0.508  26.745  0.2027  0.0178  0.9704
 6767TIP3   OH241859   2.557   0.046  26.892  0.1524  0.4812  0.3818
 6767TIP3    H141860   2.531   0.084  26.976  3.0048  1.5022  0.9143
 6767TIP3    H241861   2.632  -0.009  26.912 -0.8988 -1.6365 -1.1374
 6768TIP3   OH241862   2.968   2.405  23.126  0.3239 -0.1546 -0.6160
 6768TIP3    H141863   3.015   2.361  23.056  0.6388 -1.4638  0.3765
 6768TIP3    H241864   2.940   2.334  23.184 -0.2880  0.8544  0.3638
 6769TIP3   OH241865   2.666   2.893   6.290 -0.1661  0.1531  0.3906
 6769TIP3    H141866   2.602   2.831   6.253  0.5066 -0.1255 -0.3538
 6769TIP3    H241867   2.691   2.855   6.374  1.4157 -1.4738 -0.7394
 6770TIP3   OH241868   2.200   1.383  28.307  0.2309 -0.1183 -0.4904
 6770TIP3    H141869   2.139   1.315  28.279  0.6961 -1.0708  0.7144
 6770TIP3    H241870   2.265   1.336  28.360  0.3242  1.3273  0.7196
 6771TIP3   OH241871   0.098   0.455   2.367  0.3164  0.0712 -0.6677
 6771TIP3    H141872   0.058   0.448   2.453  0.5829 -0.5964 -0.5977
 6771TIP3    H241873   0.187   0.421   2.378  0.6844  0.8823 -0.9862
 6772TIP3   OH241874   2.446   1.095   6.453  0.3495 -0.2674 -0.0626
 6772TIP3    H141875   2.441   1.169   6.392  1.5675 -0.0506  0.0718
 6772TIP3    H241876   2.372   1.106   6.511  1.0402  1.4092  0.5457
 6773TIP3   OH241877   2.244   0.237   2.714  0.5796  0.1698 -0.3962
 6773TIP3    H141878   2.202   0.203   2.793 -1.8024  1.3429 -1.0432
 6773TIP3    H241879   2.294   0.164   2.679  0.2087 -0.9004  1.2250
 6774TIP3   OH241880   1.281   0.534  31.363  0.3846 -0.1881 -0.3081
 6774TIP3    H141881   1.368   0.572  31.360 -0.0317  0.7233 -1.9050
 6774TIP3    H241882   1.228   0.590  31.306 -0.8328 -1.6998 -0.7341
 6775TIP3   OH241883   2.361   1.832  17.481  0.4243  0.2609 -0.5768
 6775TIP3    H141884   2.367   1.854  17.574  0.8624  0.6767 -0.6991
 6775TIP3    H241885   2.290   1.767  17.476  0.1069  0.5582 -0.0148
 6776TIP3   OH241886   3.406   0.726   5.670 -0.0863 -0.3249  0.0860
 6776TIP3    H141887   3.378   0.662   5.604 -0.1695 -1.1616  0.9068
 6776TIP3    H241888   3.405   0.810   5.624 -0.1158 -0.8904 -0.9792
 6777TIP3   OH241889   2.477   0.845   3.545 -0.6821  0.7059 -0.3721
 6777TIP3    H141890   2.454   0.906   3.615 -0.4215  0.1929  0.1718
 6777TIP3    H241891   2.557   0.802   3.576 -0.8841  0.0652 -0.7269
 6778TIP3   OH241892   3.123   0.933  32.921  0.6017 -0.2876  0.0865
 6778TIP3    H141893   3.188   0.984  32.872  0.4279 -1.5168 -1.4728
 6778TIP3    H241894   3.155   0.843  32.918 -1.9489 -1.2770 -2.2624
 6779TIP3   OH241895   2.816   0.681   3.036 -0.0579 -0.3416 -0.0114
 6779TIP3    H141896   2.785   0.656   2.949  0.2078 -0.8517  0.0394
 6779TIP3    H241897   2.875   0.755   3.021  1.2347 -1.4298 -0.4247
 6780TIP3   OH241898   1.226   2.135  30.502  0.0470  0.1761 -0.0163
 6780TIP3    H141899   1.307   2.132  30.451  0.0160  0.9447 -0.1122
 6780TIP3    H241900   1.254   2.115  30.591  0.2239 -0.3289 -0.1788
 6781TIP3   OH241901   2.889   0.270   3.612 -0.0108 -0.5215  0.6180
 6781TIP3    H141902   2.960   0.274   3.676  1.5224  0.1050 -1.0583
 6781TIP3    H241903   2.886   0.357   3.573  0.2552 -1.3503 -1.3606
 6782TIP3   OH241904   0.628   3.161  27.993 -0.5067 -0.5195 -0.1543
 6782TIP3    H141905   0.650   3.119  27.910  1.0564 -0.4505  0.1988
 6782TIP3    H241906   0.619   3.088  28.055  0.9773 -0.4391  0.1843
 6783TIP3   OH241907   1.370   2.700   6.007 -0.1360  0.1649 -0.4959
 6783TIP3    H141908   1.328   2.665   5.928  0.4676 -0.0491 -0.7315
 6783TIP3    H241909   1.464   2.701   5.986 -0.0647  1.1620 -0.1855
 6784TIP3   OH241910   1.915   1.563   6.090 -0.2480  0.4264 -0.3106
 6784TIP3    H141911   1.934   1.640   6.037 -0.5555  1.2948  0.8308
 6784TIP3    H241912   1.962   1.492   6.046 -0.3611  1.1554 -1.6449
 6785TIP3   OH241913   0.617   0.038  27.861 -0.5922  0.0736 -0.6054
 6785TIP3    H141914   0.709   0.012  27.875 -0.3127  1.3820  0.0960
 6785TIP3    H241915   0.570  -0.045  27.858  0.2778 -0.5856  1.5373
 6786TIP3   OH241916   1.137   2.372   6.110 -0.0045  0.6340  0.0521
 6786TIP3    H141917   1.136   2.414   6.196 -1.2671  0.3275  0.2036
 6786TIP3    H241918   1.087   2.431   6.054 -0.0444  0.3437 -0.2194
 6787TIP3   OH241919   0.968   0.786  30.948 -0.2259  0.5356 -0.1320
 6787TIP3    H141920   0.883   0.805  30.908 -0.5123 -1.1462 -0.3981
 6787TIP3    H241921   1.017   0.868  30.940 -1.8244  1.5466  0.0757
 6788TIP3   OH241922   2.176   1.941  28.893 -0.2111 -0.3667 -0.2615
 6788TIP3    H141923   2.094   1.906  28.929 -0.4441 -0.4334 -0.8431
 6788TIP3    H241924   2.222   1.979  28.968 -2.2224  2.6075 -0.3445
 6789TIP3   OH241925   1.786   1.885   3.758  0.6962 -0.7589  0.0195
 6789TIP3    H141926   1.860   1.890   3.819  0.5720 -1.1924  0.2050
 6789TIP3    H241927   1.720   1.943   3.796  1.0912 -0.0395 -0.3640
 6790TIP3   OH241928   2.721   2.718   3.466  0.0901  0.0948 -0.2581
 6790TIP3    H141929   2.767   2.771   3.531  0.7051 -1.5469  0.7011
 6790TIP3    H241930   2.791   2.675   3.417 -0.3825  0.9219 -1.7090
 6791TIP3   OH241931   3.440   1.753  22.959 -0.3437 -0.5685 -0.0538
 6791TIP3    H141932   3.463   1.845  22.977 -0.0068 -0.8524  1.0511
 6791TIP3    H241933   3.349   1.746  22.986 -0.9999 -0.0924 -1.9913
 6792TIP3   OH241934   0.826   1.174   5.685 -0.2031 -0.2833 -0.0066
 6792TIP3    H141935   0.807   1.260   5.723 -0.4943  0.0822 -0.9700
 6792TIP3    H241936   0.826   1.115   5.760  0.8111  0.6798  0.7928
 6793TIP3   OH241937   2.944   2.919   3.932 -0.1629  0.2971 -0.0015
 6793TIP3    H141938   2.910   2.833   3.958 -0.8415  0.1875 -1.1932
 6793TIP3    H241939   2.866   2.968   3.904  0.1632  1.4421  0.9907
 6794TIP3   OH241940   1.644   2.063  27.551 -0.2068 -0.1779 -0.3126
 6794TIP3    H141941   1.630   1.999  27.480  1.8897 -1.4151  0.3063
 6794TIP3    H241942   1.717   2.027  27.601 -2.3697 -0.0126  3.2904
 6795TIP3   OH241943   0.740   0.849  27.178  0.0751 -0.0579 -0.0622
 6795TIP3    H141944   0.769   0.930  27.220 -1.0360 -0.3525  1.3339
 6795TIP3    H241945   0.820   0.796  27.170  0.5112  0.4867  0.6071
 6796TIP3   OH241946   2.886   1.330  30.558 -0.4811  0.1084 -0.6086
 6796TIP3    H141947   2.885   1.385  30.479 -0.9027  1.6942  0.4671
 6796TIP3    H241948   2.942   1.256  30.534  0.0905  0.9787 -2.1295
 6797TIP3   OH241949   2.759   2.713  27.001  0.1761 -0.4892  0.0735
 6797TIP3    H141950   2.732   2.673  26.918  1.3737 -1.5423  0.1627
 6797TIP3    H241951   2.839   2.762  26.979 -0.4737  0.7002  0.2687
 6798TIP3   OH241952   2.830   0.156  29.041  0.2496 -0.5466 -0.2846
 6798TIP3    H141953   2.821   0.219  29.112  1.2074 -0.7573  0.0336
 6798TIP3    H241954   2.916   0.174  29.003 -0.4785 -0.0445 -1.7817
 6799TIP3   OH241955   0.689   2.933  28.206 -0.1366 -0.0142  0.0176
 6799TIP3    H141956   0.750   2.953  28.135 -0.9008 -0.8491 -0.8966
 6799TIP3    H241957   0.689   2.837  28.212 -0.5852  0.0205  0.6954
 6800TIP3   OH241958   0.178   0.914   3.638  0.0743 -0.2366  0.0144
 6800TIP3    H141959   0.247   0.850   3.655  2.2524  1.6166 -1.3095
 6800TIP3    H241960   0.216   0.998   3.663 -1.4122  0.9507 -1.4821
 6801TIP3   OH241961   0.997   3.139  27.435 -0.5652 -0.1350 -0.4864
 6801TIP3    H141962   1.078   3.156  27.482 -0.8088 -0.3229  0.0099
 6801TIP3    H241963   1.013   3.171  27.346 -0.7867  2.0593  0.2155
 6802TIP3   OH241964   2.972   2.119   5.298  0.4910  0.3223 -0.0672
 6802TIP3    H141965   2.963   2.207   5.263 -3.7436  0.6057  1.1424
 6802TIP3    H241966   2.987   2.132   5.392  0.1216 -0.2262  0.0723
 6803TIP3   OH241967   2.701   1.796  20.842  0.3367  0.0654 -0.1143
 6803TIP3    H141968   2.732   1.716  20.799 -0.8418 -0.5839  0.1922
 6803TIP3    H241969   2.708   1.777  20.936 -2.0039 -0.5741 -0.0106
 6804TIP3   OH241970   2.564   0.922   0.997  0.5018 -0.5122  0.6442
 6804TIP3    H141971   2.555   0.828   0.983  0.7009 -0.7959  2.2209
 6804TIP3    H241972   2.545   0.934   1.090  1.0713  0.9361  0.5982
 6805TIP3   OH241973   0.281   0.288   6.868  0.1383 -0.7683 -0.0281
 6805TIP3    H141974   0.308   0.368   6.914 -0.0720 -1.1232  0.7208
 6805TIP3    H241975   0.362   0.254   6.831  0.0877  0.2850 -1.1483
 6806TIP3   OH241976   1.114   0.809  27.637 -0.1126 -0.3258  0.8813
 6806TIP3    H141977   1.145   0.754  27.566  1.0577  0.6143  0.6218
 6806TIP3    H241978   1.020   0.818  27.621  0.2230  0.3978 -0.9493
 6807TIP3   OH241979   3.223   0.502   2.676 -0.0867 -0.0486  0.0439
 6807TIP3    H141980   3.184   0.561   2.740  0.7560  0.2042  0.3459
 6807TIP3    H241981   3.315   0.530   2.670  0.1192 -0.7806 -0.4452
 6808TIP3   OH241982   0.494   1.480  26.480 -0.0251 -0.2083  0.1437
 6808TIP3    H141983   0.421   1.513  26.533  1.3410 -0.3019  2.1987
 6808TIP3    H241984   0.505   1.389  26.509  1.2430 -0.0248  0.2767
 6809TIP3   OH241985   2.893   2.606  26.293  0.6074  0.0496  0.1198
 6809TIP3    H141986   2.865   2.683  26.342  1.6065 -0.6215  1.8712
 6809TIP3    H241987   2.844   2.534  26.333  1.3876 -0.5065  0.0980
 6810TIP3   OH241988   1.054   0.739  27.923 -0.2551 -0.4257 -0.7894
 6810TIP3    H141989   1.011   0.657  27.899  0.1529 -0.9425  0.2175
 6810TIP3    H241990   1.089   0.773  27.841 -2.0523 -0.2894 -1.5538
 6811TIP3   OH241991   1.712   1.687   4.942 -0.1606 -0.1502  0.1903
 6811TIP3    H141992   1.701   1.629   5.018  0.5445 -1.5634 -0.7367
 6811TIP3    H241993   1.685   1.634   4.867  2.0975  0.0941 -0.8949
 6812TIP3   OH241994   1.986   2.053  28.046 -0.1890 -0.3815  0.1109
 6812TIP3    H141995   1.984   2.093  27.960 -0.8025 -0.0522  0.2694
 6812TIP3    H241996   2.049   1.982  28.038 -0.3531 -0.4528 -0.6531
 6813TIP3   OH241997   2.834   1.830  22.373  0.3049 -0.0410  0.1013
 6813TIP3    H141998   2.872   1.915  22.350 -0.7459 -0.0058 -1.7305
 6813TIP3    H241999   2.833   1.829  22.468  1.8776  1.2827  0.1831
 6814TIP3   OH242000   1.520   2.390  21.678 -0.3480 -0.0151 -0.2903
 6814TIP3    H142001   1.597   2.355  21.724 -1.4965 -0.8424  1.0937
 6814TIP3    H242002   1.540   2.482  21.664  1.9942 -0.7072 -2.3592
 6815TIP3   OH242003   2.649   2.464  22.048  0.3204 -0.4637  0.1265
 6815TIP3    H142004   2.711   2.537  22.049  0.2066 -0.3436 -1.0573
 6815TIP3    H242005   2.581   2.490  22.111  0.9825 -0.1812  0.7374
 6816TIP3   OH242006   1.201   3.369  32.285  0.0019 -0.4847  0.3463
 6816TIP3    H142007   1.209   3.445  32.343 -0.0571 -1.9662  2.3881
 6816TIP3    H242008   1.281   3.369  32.233 -0.7524  1.9212 -0.9687
 6817TIP3   OH242009   1.948   1.628  29.918 -0.0995  0.6553  0.2325
 6817TIP3    H142010   1.983   1.640  30.006  0.0688  2.1860 -0.0052
 6817TIP3    H242011   1.987   1.547  29.887  0.9342  0.8204  1.0561
 6818TIP3   OH242012   0.787   0.250   5.826  0.1234  0.5787 -0.3977
 6818TIP3    H142013   0.734   0.302   5.886  1.8025 -0.5195  2.2593
 6818TIP3    H242014   0.736   0.171   5.810  0.3638  0.0699  1.1478
 6819TIP3   OH242015   0.956   3.526  14.698 -0.1924 -0.2298 -0.2877
 6819TIP3    H142016   0.996   3.607  14.667 -0.7583  0.1472 -0.0543
 6819TIP3    H242017   0.916   3.550  14.782 -1.0494 -0.5588 -0.5961
 6820TIP3   OH242018   1.530   0.714   2.449  0.0750  0.0618 -0.5117
 6820TIP3    H142019   1.534   0.749   2.538  0.7424  1.6663 -1.1347
 6820TIP3    H242020   1.447   0.666   2.447 -1.7563  2.9036  0.0019
 6821TIP3   OH242021   2.627   0.868   0.614 -0.0958  0.0569 -0.3338
 6821TIP3    H142022   2.593   0.779   0.619  0.6941 -0.3890 -2.1743
 6821TIP3    H242023   2.719   0.858   0.593 -0.1152  1.3110 -1.1233
 6822TIP3   OH242024   0.648   3.223   1.937  0.5187 -0.1642  0.2893
 6822TIP3    H142025   0.634   3.241   1.844  1.8532 -2.9544 -0.5590
 6822TIP3    H242026   0.736   3.185   1.941  0.0764 -1.1110  2.5105
 6823TIP3   OH242027   2.028   0.566   5.830  0.0258 -0.1261 -0.0860
 6823TIP3    H142028   1.994   0.655   5.840 -0.4645 -0.3517  0.3257
 6823TIP3    H242029   2.020   0.528   5.918  1.0746 -0.2872 -0.0405
 6824TIP3   OH242030   3.063   1.276   2.213  0.0296 -0.2618 -0.1649
 6824TIP3    H142031   2.985   1.246   2.166  0.5908  0.1568 -1.4167
 6824TIP3    H242032   3.087   1.203   2.270 -0.0900 -1.1964 -1.2841
 6825TIP3   OH242033   0.059   1.495   6.308  0.2756 -0.1478 -0.4035
 6825TIP3    H142034  -0.028   1.457   6.313 -0.2116  0.9038 -0.5551
 6825TIP3    H242035   0.090   1.475   6.220  0.3156 -0.7968 -0.2414
 6826TIP3   OH242036   2.269   0.958  31.348  0.1760  0.5435 -0.6610
 6826TIP3    H142037   2.348   0.909  31.372  0.3206  0.8390 -0.5186
 6826TIP3    H242038   2.217   0.960  31.428  0.6093  1.4382 -0.3793
 6827TIP3   OH242039   3.311   1.432   0.749 -0.0074  0.1094  0.5602
 6827TIP3    H142040   3.264   1.354   0.719  0.6841  0.2347 -0.9375
 6827TIP3    H242041   3.243   1.499   0.756 -0.3823 -0.2525  0.4569
 6828TIP3   OH242042   0.621   3.207   2.878  0.3141  0.2220  0.2902
 6828TIP3    H142043   0.541   3.260   2.885  1.7377  2.3639  1.3536
 6828TIP3    H242044   0.613   3.165   2.792 -1.9979  0.2247  0.4244
 6829TIP3   OH242045   1.688   3.132   5.212  0.7687  0.2527 -0.0666
 6829TIP3    H142046   1.644   3.112   5.130  1.1353  0.3724 -0.2932
 6829TIP3    H242047   1.725   3.048   5.240 -1.1011 -0.2673  1.0456
 6830TIP3   OH242048   1.948   1.099  26.790  0.4292  0.5694  0.1290
 6830TIP3    H142049   1.997   1.079  26.710 -1.4412  2.3835 -1.5756
 6830TIP3    H242050   2.015   1.121  26.854  1.9481  0.1106 -1.2319
 6831TIP3   OH242051   0.835   1.828  32.653  0.7239 -0.1349  0.5247
 6831TIP3    H142052   0.782   1.769  32.707 -0.4184  1.7502  1.6042
 6831TIP3    H242053   0.798   1.819  32.565 -1.4617  1.0572  1.2292
 6832TIP3   OH242054   0.343   2.269   5.793  0.2207  0.3842 -0.0724
 6832TIP3    H142055   0.350   2.302   5.883 -2.7208 -1.6294  1.0489
 6832TIP3    H242056   0.427   2.226   5.778  0.8811  0.9775  1.6191
 6833TIP3   OH242057   1.656   2.342   1.832 -0.2075 -0.0237  0.3964
 6833TIP3    H142058   1.739   2.331   1.785  0.9300  0.0814  2.2869
 6833TIP3    H242059   1.610   2.410   1.782  0.5185 -0.5584 -1.0710
 6834TIP3   OH242060   3.328   2.528   6.557  0.4104 -0.3961  0.7798
 6834TIP3    H142061   3.410   2.567   6.589 -0.1495  0.9894  0.6336
 6834TIP3    H242062   3.322   2.444   6.602  1.6962 -0.3259  1.1231
 6835TIP3   OH242063   0.521   2.923   6.336 -0.2909 -0.4694  0.3945
 6835TIP3    H142064   0.604   2.970   6.344 -1.0844  1.4161 -1.3878
 6835TIP3    H242065   0.531   2.869   6.258 -1.3039  1.1981 -0.9522
 6836TIP3   OH242066   0.360   3.275   5.034  0.2289  0.1283  0.0860
 6836TIP3    H142067   0.284   3.310   5.080 -0.4367  0.1999 -1.0209
 6836TIP3    H242068   0.349   3.304   4.943 -0.0623 -2.4379 -0.7838
 6837TIP3   OH242069   1.920   0.901  31.743  0.3620  0.1124  0.2967
 6837TIP3    H142070   1.966   0.871  31.821 -2.4810  1.1337  2.5453
 6837TIP3    H242071   1.872   0.979  31.772  0.4850  1.5689 -2.9529
 6838TIP3   OH242072   2.007   2.043  29.614 -0.3429 -0.5604  0.6225
 6838TIP3    H142073   1.928   2.082  29.651 -0.1824 -1.0455  1.5149
 6838TIP3    H242074   1.991   1.948  29.620  0.2266 -0.6575  0.6402
 6839TIP3   OH242075   2.660   2.473  27.809 -0.0075 -0.2150 -0.4892
 6839TIP3    H142076   2.582   2.439  27.853 -0.1361 -1.1519 -1.4047
 6839TIP3    H242077   2.629   2.551  27.764  0.1876  0.9334  1.2570
 6840TIP3   OH242078   1.323   1.779  29.336 -0.2154 -0.3770 -0.2179
 6840TIP3    H142079   1.236   1.741  29.345 -0.0151 -1.3798 -2.0287
 6840TIP3    H242080   1.319   1.830  29.255  0.2973  1.3333  0.7850
 6841TIP3   OH242081   1.036   2.564  31.234  0.4019 -0.2429  0.3613
 6841TIP3    H142082   1.085   2.496  31.282  1.5513  0.6631  0.5099
 6841TIP3    H242083   1.038   2.536  31.143 -0.4771 -1.1865  0.6046
 6842TIP3   OH242084   1.281   3.464  29.491  0.0906 -0.1869  0.1017
 6842TIP3    H142085   1.269   3.524  29.564 -0.4329 -0.6765  0.4293
 6842TIP3    H242086   1.193   3.433  29.470  0.0530  0.9482 -1.6148
 6843TIP3   OH242087   0.637   1.776  27.398  0.3327  0.4425  0.4289
 6843TIP3    H142088   0.669   1.694  27.360  1.8027  1.4032 -0.4732
 6843TIP3    H242089   0.548   1.756  27.426  0.1469 -1.0528 -1.1095
 6844TIP3   OH242090   0.075   0.770  32.715  0.5833 -0.7588  0.6298
 6844TIP3    H142091   0.140   0.818  32.766 -1.5086  2.2801  0.6719
 6844TIP3    H242092   0.032   0.837  32.661 -1.6378 -2.8106 -0.3488
 6845TIP3   OH242093   1.777   1.517  22.546  0.0192  0.1941  0.4323
 6845TIP3    H142094   1.730   1.591  22.509  0.6311  0.6354  0.5179
 6845TIP3    H242095   1.784   1.537  22.640 -1.2951 -0.7900  0.7727
 6846TIP3   OH242096   1.900   3.318   6.268  0.1932  0.0105  0.4234
 6846TIP3    H142097   1.871   3.294   6.180  0.9514  0.1858  0.1185
 6846TIP3    H242098   1.883   3.412   6.273  0.5877  0.0886  0.2923
 6847TIP3   OH242099   2.154   1.387   3.861  0.5660 -0.3378  0.2318
 6847TIP3    H142100   2.061   1.395   3.883  0.2157 -2.2603 -0.3643
 6847TIP3    H242101   2.177   1.298   3.888  2.0358 -0.1444 -0.3228
 6848TIP3   OH242102   2.942   0.545   3.511  0.0251 -0.1829 -0.2938
 6848TIP3    H142103   3.003   0.563   3.440  0.3038 -0.3515 -0.0967
 6848TIP3    H242104   2.893   0.627   3.523  0.2145 -0.0491 -0.4482
 6849TIP3   OH242105   0.185   0.701   6.525  0.1407 -0.0314  0.0769
 6849TIP3    H142106   0.176   0.633   6.592 -1.5500  0.3097  0.2508
 6849TIP3    H242107   0.171   0.655   6.442  1.7573 -0.3649 -0.0473
 6850TIP3   OH242108   1.983   3.523   2.085 -0.6342  0.8260 -0.3533
 6850TIP3    H142109   2.053   3.532   2.150 -0.9710  0.6348  0.0462
 6850TIP3    H242110   2.011   3.449   2.031 -0.4647  0.8285 -0.2718
 6851TIP3   OH242111   2.648   1.584  30.284  0.1013  0.1993 -0.0713
 6851TIP3    H142112   2.621   1.545  30.368 -1.4112  1.3251  0.0001
 6851TIP3    H242113   2.690   1.666  30.308  1.6502 -0.4963 -0.3229
 6852TIP3   OH242114   0.290   1.717  21.357  0.4950 -0.3386 -0.1666
 6852TIP3    H142115   0.375   1.690  21.321  0.1369 -0.5492 -0.8770
 6852TIP3    H242116   0.280   1.808  21.329 -0.1866 -0.7723 -1.3997
 6853TIP3   OH242117   3.222   0.128  29.778  0.0359  0.2201  0.1516
 6853TIP3    H142118   3.212   0.163  29.690 -0.3201 -0.5407 -0.1184
 6853TIP3    H242119   3.313   0.143  29.801 -0.0308  1.0028 -0.0920
 6854TIP3   OH242120   1.308   1.969  27.011 -0.3070  0.4962 -0.5128
 6854TIP3    H142121   1.403   1.981  27.016 -0.2997  0.0500  0.7339
 6854TIP3    H242122   1.297   1.891  26.958  0.0611  0.1836 -0.1393
 6855TIP3   OH242123   0.766   0.545   4.891  0.1554  0.3189  0.2580
 6855TIP3    H142124   0.849   0.593   4.889  0.2686  0.1014 -0.7716
 6855TIP3    H242125   0.754   0.514   4.801 -1.3963  0.9618  0.2030
 6856TIP3   OH242126   2.468   1.762  31.471  0.1577 -0.3437  0.2632
 6856TIP3    H142127   2.533   1.775  31.540  0.3106  2.1503 -0.2885
 6856TIP3    H242128   2.514   1.712  31.403  0.4929 -1.3697  1.2120
 6857TIP3   OH242129   1.509   3.399   1.939 -0.2946  0.6550  0.1445
 6857TIP3    H142130   1.563   3.461   1.988  1.3719 -1.0463  0.5850
 6857TIP3    H242131   1.491   3.329   2.002 -0.1041 -0.4413 -0.9923
 6858TIP3   OH242132   2.127   3.238   5.816  0.3925  0.0353 -0.1568
 6858TIP3    H142133   2.104   3.309   5.876 -0.4461 -1.7698  1.8182
 6858TIP3    H242134   2.176   3.176   5.871  0.3993 -1.2741 -1.5850
 6859TIP3   OH242135   1.210   3.317   2.192 -0.0860 -0.3021  0.5953
 6859TIP3    H142136   1.124   3.359   2.184  0.4401  1.2954  2.4641
 6859TIP3    H242137   1.268   3.388   2.220  2.2474 -0.9416 -2.1122
 6860TIP3   OH242138   2.104   2.651  20.571  0.0589 -0.7112 -0.1721
 6860TIP3    H142139   2.143   2.614  20.651 -0.1877  1.2476  0.9182
 6860TIP3    H242140   2.150   2.607  20.500 -0.2838 -3.1351  0.9900
 6861TIP3   OH242141   0.335   0.395  31.747  0.5338 -0.1662  0.1968
 6861TIP3    H142142   0.299   0.482  31.732  1.4284  0.0654 -0.7824
 6861TIP3    H242143   0.280   0.337  31.695  0.7903  0.0232 -0.3030
 6862TIP3   OH242144   1.831   3.490   6.738  0.2323 -0.4081 -0.2373
 6862TIP3    H142145   1.844   3.421   6.803 -0.3294  1.2110  1.7138
 6862TIP3    H242146   1.864   3.569   6.781 -1.8611  1.0589 -1.1637
 6863TIP3   OH242147   1.779   1.435   4.424  0.7909  0.0357 -0.0052
 6863TIP3    H142148   1.753   1.522   4.452  0.7231 -0.3400  1.1335
 6863TIP3    H242149   1.837   1.403   4.493  2.2921 -0.1268 -1.2716
 6864TIP3   OH242150   1.074   2.909  30.759  0.2460  0.1734  0.2985
 6864TIP3    H142151   1.142   2.976  30.772  0.6319  0.4556 -2.3934
 6864TIP3    H242152   0.992   2.958  30.754  0.2154  0.1666  0.7757
 6865TIP3   OH242153   3.518   2.985   2.075 -0.5575 -0.1980 -0.3474
 6865TIP3    H142154   3.459   3.037   2.130 -0.6660  1.3377 -1.8344
 6865TIP3    H242155   3.597   3.039   2.068  0.1787 -1.2187 -0.2241
 6866TIP3   OH242156   1.527   1.968   1.876 -0.0664  0.3965 -0.4613
 6866TIP3    H142157   1.489   1.916   1.947  1.4078  1.5428  1.2438
 6866TIP3    H242158   1.551   2.051   1.917  0.5150  1.2437 -2.4100
 6867TIP3   OH242159   2.589   3.013  13.145  0.6116  0.5371  0.1297
 6867TIP3    H142160   2.635   3.096  13.155 -0.8311  1.3402  0.4852
 6867TIP3    H242161   2.500   3.031  13.177  0.0251 -0.9124 -0.5716
 6868TIP3   OH242162   2.265   1.898   4.772 -0.4504 -0.0344  0.2834
 6868TIP3    H142163   2.187   1.931   4.727 -0.0577 -0.4751 -0.7505
 6868TIP3    H242164   2.319   1.976   4.787  0.6806 -0.1711 -2.5544
 6869TIP3   OH242165   3.494   2.095  27.103 -0.3884  0.3240  0.0880
 6869TIP3    H142166   3.512   2.157  27.173  1.6254  1.6117 -1.4456
 6869TIP3    H242167   3.517   2.142  27.023 -3.3758 -0.7977 -1.5562
 6870TIP3   OH242168   1.024   1.880  30.968  0.0130 -0.3276 -0.2115
 6870TIP3    H142169   0.991   1.910  30.883  1.3527 -2.9307 -1.7869
 6870TIP3    H242170   1.119   1.881  30.958  0.1631 -2.8266  0.3820
 6871TIP3   OH242171   0.044   0.510   3.689 -0.0252 -0.5315 -0.0433
 6871TIP3    H142172  -0.038   0.468   3.716 -0.2019  0.6372  1.3266
 6871TIP3    H242173   0.097   0.512   3.768  1.9033 -2.4315 -1.1807
 6872TIP3   OH242174   0.078   2.769   4.757 -0.4378 -0.1614  0.0596
 6872TIP3    H142175  -0.013   2.754   4.783 -1.1940  1.1659 -1.6458
 6872TIP3    H242176   0.123   2.789   4.839 -1.9044  0.2292  0.8067
 6873TIP3   OH242177   2.087   2.422  12.152  0.2678 -0.3950 -0.1026
 6873TIP3    H142178   2.135   2.454  12.228  0.6927  0.8512 -0.8778
 6873TIP3    H242179   1.997   2.451  12.166  0.4562  0.3097 -0.3294
 6874TIP3   OH242180   0.014   3.149   6.680 -0.3695  0.3988  0.1472
 6874TIP3    H142181  -0.001   3.129   6.773  2.4738 -1.0237  0.4050
 6874TIP3    H242182  -0.053   3.215   6.659 -2.2355 -0.5045  2.6872
 6875TIP3   OH242183   1.821   1.313  27.937 -0.1874  0.2390 -0.4476
 6875TIP3    H142184   1.782   1.305  27.850  0.2695  1.4256 -0.7844
 6875TIP3    H242185   1.769   1.382  27.980 -2.9903 -2.9009  1.7289
 6876TIP3   OH242186   0.396   0.642  25.982 -0.2307  0.0264  0.6579
 6876TIP3    H142187   0.303   0.629  25.963 -0.1360 -0.5251  0.5563
 6876TIP3    H242188   0.423   0.564  26.029  0.8859 -1.2608 -1.9126
 6877TIP3   OH242189   3.066   2.151   6.118  0.8352  0.3454  0.1187
 6877TIP3    H142190   3.115   2.159   6.036 -0.3758 -0.0137 -0.6667
 6877TIP3    H242191   2.979   2.186   6.098  0.3117 -0.3655  1.0610
 6878TIP3   OH242192   1.235   3.420  31.901  0.0158 -0.2068  0.0265
 6878TIP3    H142193   1.261   3.468  31.822  0.4608  1.4797  1.1294
 6878TIP3    H242194   1.273   3.471  31.973 -1.1736 -1.1552  1.3830
 6879TIP3   OH242195   1.836   1.282  29.733  0.2959 -0.3502  0.1851
 6879TIP3    H142196   1.861   1.354  29.675  1.3268 -0.7540  0.1184
 6879TIP3    H242197   1.885   1.298  29.814 -0.5895 -0.1828  0.7036
 6880TIP3   OH242198   2.862   1.827   2.605 -0.3667 -0.1996 -0.4142
 6880TIP3    H142199   2.797   1.757   2.595  0.9550 -1.3674 -1.2241
 6880TIP3    H242200   2.840   1.869   2.687 -1.9134 -0.8151 -0.4811
 6881TIP3   OH242201   2.151   2.067  27.648  0.5462  0.6881  0.8741
 6881TIP3    H142202   2.236   2.108  27.664 -0.1273  1.9697  1.2348
 6881TIP3    H242203   2.090   2.140  27.639  0.0102 -0.0002 -2.8564
 6882TIP3   OH242204   0.787   1.789  26.240 -0.0464  0.2821  0.0861
 6882TIP3    H142205   0.881   1.803  26.226  0.1402 -0.9840 -0.0613
 6882TIP3    H242206   0.755   1.758  26.156 -0.5695  0.5243  0.1938
 6883TIP3   OH242207   1.792   0.533   6.790 -0.0094  0.0479 -0.5069
 6883TIP3    H142208   1.696   0.537   6.786  0.0593  1.6344 -1.3614
 6883TIP3    H242209   1.821   0.611   6.743  1.6743  1.2532  2.3137
 6884TIP3   OH242210   1.314   2.539  26.057 -0.2115 -0.1684 -0.1060
 6884TIP3    H142211   1.356   2.484  25.991 -0.0047  0.2473 -0.3220
 6884TIP3    H242212   1.364   2.620  26.057 -0.1677 -0.1826  0.6098
 6885TIP3   OH242213   3.064   1.499   1.852 -0.3204 -0.6297  0.3350
 6885TIP3    H142214   3.042   1.561   1.783 -0.4841 -1.0710 -0.0119
 6885TIP3    H242215   2.981   1.460   1.877 -0.9422  2.2142  3.4725
 6886TIP3   OH242216   3.090   2.909  30.592  0.0802  0.2033 -0.0066
 6886TIP3    H142217   3.098   2.909  30.496 -1.5816 -3.2277 -0.2787
 6886TIP3    H242218   3.167   2.861  30.622  0.3238  0.8275  0.4033
 6887TIP3   OH242219   2.740   1.167   0.525 -0.1267 -0.1877  0.3279
 6887TIP3    H142220   2.801   1.095   0.510 -0.2786 -0.2573  0.0378
 6887TIP3    H242221   2.664   1.146   0.471  0.8279  1.4238 -1.7952
 6888TIP3   OH242222   1.609   1.712  29.772  0.5541  0.2912 -0.1695
 6888TIP3    H142223   1.678   1.671  29.825  0.5862 -1.5679 -1.5338
 6888TIP3    H242224   1.644   1.798  29.749  1.4972  0.2177  0.8915
 6889TIP3   OH242225   1.479   1.883   0.871  0.1391  0.0505 -0.1999
 6889TIP3    H142226   1.396   1.895   0.826 -0.8252 -0.1304  1.4603
 6889TIP3    H242227   1.522   1.969   0.867 -1.0416  0.7068  0.6415
 6890TIP3   OH242228   3.482   1.959  31.928  0.1577  0.0601  0.2718
 6890TIP3    H142229   3.464   1.868  31.952 -2.9576  0.4485 -0.1619
 6890TIP3    H242230   3.489   1.957  31.833 -1.1927  0.3937  0.1433
 6891TIP3   OH242231   0.942   2.048  27.088 -0.6094 -0.4125 -0.4985
 6891TIP3    H142232   0.860   2.076  27.048 -0.2564  0.0696 -0.8785
 6891TIP3    H242233   0.993   2.011  27.016 -0.0580  0.2674 -0.4660
 6892TIP3   OH242234   0.837   0.841   3.443 -0.1150  0.1925 -0.3704
 6892TIP3    H142235   0.816   0.934   3.453  1.1702  0.4457  0.1211
 6892TIP3    H242236   0.811   0.820   3.353 -1.2132  0.8018 -0.2094
 6893TIP3   OH242237   1.563   2.517   5.116  0.2989 -0.1285 -0.0550
 6893TIP3    H142238   1.511   2.593   5.091 -1.4877 -1.0179  0.7276
 6893TIP3    H242239   1.640   2.520   5.060 -0.6308  1.2294 -1.3176
 6894TIP3   OH242240   3.085   1.559   4.469 -0.2414 -0.2311 -0.3033
 6894TIP3    H142241   2.998   1.527   4.444 -1.0362  0.7604  1.0289
 6894TIP3    H242242   3.073   1.592   4.558  1.5253 -0.0965 -0.0769
 6895TIP3   OH242243   2.475   2.834   1.450  0.5472  0.3919 -0.0208
 6895TIP3    H142244   2.419   2.898   1.406  1.9786  1.5926 -0.1948
 6895TIP3    H242245   2.436   2.823   1.537 -0.1230  0.9664 -0.2411
 6896TIP3   OH242246   2.996   0.464   6.046  0.3818 -0.2517 -0.2565
 6896TIP3    H142247   2.991   0.384   5.994 -1.4372 -0.0380 -0.4911
 6896TIP3    H242248   3.068   0.449   6.107  0.7800 -1.6099 -1.0219
 6897TIP3   OH242249   2.899   1.591  27.633 -0.1127 -0.2272 -0.6886
 6897TIP3    H142250   2.889   1.673  27.682  0.9729  1.3565 -2.9285
 6897TIP3    H242251   2.834   1.532  27.671 -0.4955  1.4387  1.4343
 6898TIP3   OH242252   1.340   2.585  13.582 -0.1372  0.6390  0.3237
 6898TIP3    H142253   1.245   2.586  13.591 -0.1277  2.1999  0.4731
 6898TIP3    H242254   1.359   2.642  13.508  0.7407  1.4749  1.1555
 6899TIP3   OH242255   0.039   1.432  19.284 -0.2783 -0.0171  0.0440
 6899TIP3    H142256  -0.049   1.401  19.261 -0.6532 -0.4333  1.8603
 6899TIP3    H242257   0.037   1.526  19.264 -1.4036  0.1298  0.7316
 6900TIP3   OH242258   1.291   3.018   3.370 -0.0557 -0.0806  0.0383
 6900TIP3    H142259   1.278   3.035   3.276 -1.9055  0.9877  0.4325
 6900TIP3    H242260   1.203   3.027   3.408  0.8204  0.5532  2.0390
 6901TIP3   OH242261   1.439   1.297   6.970 -0.0856  0.1007  0.5389
 6901TIP3    H142262   1.345   1.282   6.980 -0.6419  3.4424  1.5260
 6901TIP3    H242263   1.469   1.323   7.057  1.2839  1.1381 -0.1961
 6902TIP3   OH242264   0.743   3.517   1.579 -0.1372  0.6101  0.0492
 6902TIP3    H142265   0.700   3.452   1.635  0.6347  0.4492  0.4665
 6902TIP3    H242266   0.673   3.577   1.555 -0.4716  0.7775  1.3275
 6903TIP3   OH242267   1.029   0.580   5.353 -0.0351 -0.1200  0.5803
 6903TIP3    H142268   0.987   0.501   5.387 -1.9866  1.3708  1.8138
 6903TIP3    H242269   1.051   0.558   5.263 -0.7910 -1.9612  0.7971
 6904TIP3   OH242270   2.215   2.528  28.872 -0.3247  0.3396  0.1999
 6904TIP3    H142271   2.172   2.546  28.955 -0.2675  1.9582 -0.0908
 6904TIP3    H242272   2.250   2.612  28.845 -0.9839  0.0006 -1.8421
 6905TIP3   OH242273   3.166   2.240   6.359 -0.5588  0.6473 -0.4544
 6905TIP3    H142274   3.259   2.225   6.346 -0.9042 -2.9341  0.1744
 6905TIP3    H242275   3.124   2.204   6.280 -1.5456 -2.5614  1.3491
 6906TIP3   OH242276   2.895   3.056  27.338  0.0080 -0.0292  0.5002
 6906TIP3    H142277   2.846   3.126  27.294 -0.8744 -0.8612  0.1320
 6906TIP3    H242278   2.888   3.077  27.431  1.5020  1.4938  0.3192
 6907TIP3   OH242279   0.021   2.529   3.032 -0.1265  0.1410 -0.9227
 6907TIP3    H142280  -0.007   2.620   3.024  0.6898  0.3498 -1.5531
 6907TIP3    H242281   0.017   2.511   3.126 -0.3225  0.8146 -0.7935
 6908TIP3   OH242282   3.170   1.900   5.254  0.0753  0.1489 -0.4144
 6908TIP3    H142283   3.106   1.964   5.287  0.7596  1.2697 -1.1650
 6908TIP3    H242284   3.133   1.869   5.172  0.0879  0.1551 -0.4223
 6909TIP3   OH242285   1.835   0.596   0.966  0.0715 -0.9536 -0.5989
 6909TIP3    H142286   1.894   0.670   0.974 -0.3801 -0.6752  0.2056
 6909TIP3    H242287   1.759   0.630   0.918 -1.0209 -0.3281  1.4490
 6910TIP3   OH242288   3.375   0.044  32.274 -0.5955 -0.3729  0.0066
 6910TIP3    H142289   3.351   0.088  32.355  1.3686  0.4609  0.1824
 6910TIP3    H242290   3.296   0.050  32.219 -1.8505 -0.6729  1.6984
 6911TIP3   OH242291   2.473   0.538  27.694 -0.3060 -0.1143  0.1337
 6911TIP3    H142292   2.469   0.451  27.656  3.1478 -0.7533  0.8339
 6911TIP3    H242293   2.567   0.558  27.697 -0.8775  2.9500  1.5108
 6912TIP3   OH242294   1.342   0.396   7.079 -0.2534  0.3171  0.2225
 6912TIP3    H142295   1.432   0.365   7.074 -1.2613 -2.8142 -1.0405
 6912TIP3    H242296   1.337   0.465   7.013  1.3956  1.2238  0.9851
 6913TIP3   OH242297   2.822   0.123  14.715 -0.2281  0.1201  0.1806
 6913TIP3    H142298   2.882   0.064  14.671  0.5980  0.3226  1.0141
 6913TIP3    H242299   2.829   0.101  14.808 -1.5791  0.0243  0.2860
 6914TIP3   OH242300   0.105   3.277   4.015  0.5691  0.0720  1.0260
 6914TIP3    H142301   0.103   3.296   4.108 -0.0970  0.4501  0.9437
 6914TIP3    H242302   0.081   3.360   3.973  0.0883 -0.2905  0.5603
 6915TIP3   OH242303   0.717   0.652  26.790  0.0550 -0.5769 -0.6510
 6915TIP3    H142304   0.790   0.699  26.749  0.9336 -1.8833 -0.6234
 6915TIP3    H242305   0.670   0.720  26.837  2.5847 -0.0034  1.2729
 6916TIP3   OH242306   2.511   1.520  27.754 -0.4453  0.3287  0.1950
 6916TIP3    H142307   2.549   1.605  27.733  0.0363 -0.0087 -0.3270
 6916TIP3    H242308   2.573   1.480  27.815  0.1725 -0.2990 -0.8002
 6917TIP3   OH242309   1.319   2.555  30.528  0.3780  0.0153 -0.1048
 6917TIP3    H142310   1.251   2.489  30.516  0.3638  0.0596 -0.2646
 6917TIP3    H242311   1.370   2.523  30.603 -0.8294  0.8393  1.1065
 6918TIP3   OH242312   2.857   1.057   1.923  0.4205 -0.3932  0.0631
 6918TIP3    H142313   2.834   1.132   1.978 -1.3993 -0.7425 -0.1595
 6918TIP3    H242314   2.826   0.981   1.972 -0.7713 -0.7441 -1.1856
 6919TIP3   OH242315   0.643   1.354  26.236 -0.1082 -0.1557 -0.5636
 6919TIP3    H142316   0.632   1.436  26.285  1.2550 -0.7334  0.7810
 6919TIP3    H242317   0.697   1.378  26.161 -0.1939  0.2765 -0.4889
 6920TIP3   OH242318   2.518   1.687   2.840 -1.0076  0.7379 -0.2889
 6920TIP3    H142319   2.517   1.728   2.927 -0.4644  1.7726 -0.7582
 6920TIP3    H242320   2.607   1.653   2.830 -1.7859 -1.7626  0.6120
 6921TIP3   OH242321   0.716   2.872  13.062  0.6630 -0.0654 -0.7875
 6921TIP3    H142322   0.742   2.875  13.154  0.9530  0.9949 -0.8922
 6921TIP3    H242323   0.629   2.911  13.061  1.5509  2.0298 -1.2333
 6922TIP3   OH242324   1.192   2.259  25.783 -0.1682 -0.2115 -0.0847
 6922TIP3    H142325   1.256   2.290  25.847  0.1882 -0.2023 -0.4429
 6922TIP3    H242326   1.216   2.304  25.701 -0.4555 -0.4276 -0.2911
 6923TIP3   OH242327   2.045   0.213  30.373  0.2249 -0.2794 -0.0201
 6923TIP3    H142328   2.066   0.121  30.388  1.3725  0.2329  1.9043
 6923TIP3    H242329   2.064   0.256  30.457 -2.7072  1.3336 -0.0387
 6924TIP3   OH242330   2.383   1.096   2.520 -0.0848  0.0751  0.5954
 6924TIP3    H142331   2.435   1.100   2.600  0.3611 -2.8960  0.5913
 6924TIP3    H242332   2.330   1.017   2.531 -0.7898  0.1895 -1.5891
 6925TIP3   OH242333   0.341   3.063   4.025  0.3847 -0.3922  0.6716
 6925TIP3    H142334   0.273   3.131   4.019  2.8821  2.2204 -3.6659
 6925TIP3    H242335   0.310   2.993   3.968  0.8369  0.4175 -0.6166
 6926TIP3   OH242336   0.747   2.830   1.867 -0.4680 -0.2836  0.4465
 6926TIP3    H142337   0.801   2.863   1.939  0.9185 -2.9303  0.7408
 6926TIP3    H242338   0.770   2.738   1.860 -2.1259 -0.6080 -2.0516
 6927TIP3   OH242339   3.291   0.857   6.848  0.0676 -0.3625  0.0747
 6927TIP3    H142340   3.341   0.882   6.925 -0.8959 -1.9987  1.2958
 6927TIP3    H242341   3.320   0.767   6.829 -1.7277 -1.0375  0.3146
 6928TIP3   OH242342   0.425   2.904   5.465  0.0610 -0.8722 -0.1807
 6928TIP3    H142343   0.382   2.851   5.399 -1.1332 -0.8870  0.5764
 6928TIP3    H242344   0.370   2.981   5.474  1.7212  0.4952 -1.1936
 6929TIP3   OH242345   0.450   3.129  28.680 -0.0734  0.2533 -0.0156
 6929TIP3    H142346   0.463   3.121  28.585 -1.4619  0.3157 -0.2372
 6929TIP3    H242347   0.373   3.186  28.688 -0.3161 -0.2269  1.1343
 6930TIP3   OH242348   2.944   1.789  19.418  0.0431 -0.0799  0.1029
 6930TIP3    H142349   2.937   1.866  19.361  0.5635 -0.4907 -0.5265
 6930TIP3    H242350   2.928   1.715  19.360  3.3600 -0.7175 -0.1830
 6931TIP3   OH242351   0.005   3.348   3.619  0.1106  0.2110 -0.1543
 6931TIP3    H142352  -0.047   3.381   3.691  2.0836 -1.4411  2.2029
 6931TIP3    H242353   0.010   3.253   3.634  2.2070  0.0697 -1.3175
 6932TIP3   OH242354   2.610   1.965   4.161  0.2485 -0.5458 -0.1725
 6932TIP3    H142355   2.572   2.048   4.132  0.5476 -0.3679 -0.0596
 6932TIP3    H242356   2.547   1.931   4.224  1.3424  0.8754  1.7904
 6933TIP3   OH242357   2.128   1.369   3.105  0.0280  0.0064 -0.1901
 6933TIP3    H142358   2.178   1.324   3.173 -1.0000 -0.7801  0.0668
 6933TIP3    H242359   2.045   1.392   3.147  0.2361  1.5372 -0.5258
 6934TIP3   OH242360   1.632   2.611  27.564 -0.5532 -0.1873 -0.2801
 6934TIP3    H142361   1.620   2.673  27.636  0.6559  0.5301 -0.6718
 6934TIP3    H242362   1.597   2.529  27.598 -1.1663  0.4346  0.6544
 6935TIP3   OH242363   3.500   1.343  17.954 -0.5581 -0.1191 -0.0925
 6935TIP3    H142364   3.558   1.299  18.016 -1.5914  0.5761  1.4314
 6935TIP3    H242365   3.485   1.429  17.993 -1.5707  0.1886 -1.1224
 6936TIP3   OH242366   2.466   2.404   5.638 -0.1345  0.1330  0.3095
 6936TIP3    H142367   2.479   2.473   5.573 -1.3685  0.4071  0.3333
 6936TIP3    H242368   2.517   2.432   5.714  0.7409  0.1659 -0.2769
 6937TIP3   OH242369   2.763   2.102   2.205  0.8938 -0.1263 -0.3009
 6937TIP3    H142370   2.744   2.170   2.269 -0.2003 -1.5281  0.9486
 6937TIP3    H242371   2.856   2.084   2.215  0.6298 -0.7298  1.3721
 6938TIP3   OH242372   2.864   2.060   0.693  0.4025  0.9662  0.3982
 6938TIP3    H142373   2.950   2.099   0.702  0.5234  0.5971  0.9117
 6938TIP3    H242374   2.815   2.092   0.769  0.4522  0.2707  0.7336
 6939TIP3   OH242375   3.396   1.787  22.026 -0.3301 -0.3524  0.6512
 6939TIP3    H142376   3.315   1.831  21.998  0.4538  1.0014  0.4214
 6939TIP3    H242377   3.408   1.815  22.117  0.9715  1.1929  0.0442
 6940TIP3   OH242378   3.196   2.095  32.209  0.7585 -0.2918 -0.3911
 6940TIP3    H142379   3.290   2.089  32.229  0.9714 -0.0800 -1.2901
 6940TIP3    H242380   3.189   2.062  32.120  0.0584  0.2661 -0.5477
 6941TIP3   OH242381   0.288   1.617   3.320  0.1322  0.2207 -0.1870
 6941TIP3    H142382   0.197   1.637   3.340  0.4029  1.0606  0.2863
 6941TIP3    H242383   0.286   1.576   3.233 -0.6196  0.9861 -0.5433
 6942TIP3   OH242384   2.360   2.430   3.391 -0.1498 -0.1968 -0.5347
 6942TIP3    H142385   2.419   2.355   3.397  1.1681  0.9303  1.7635
 6942TIP3    H242386   2.279   2.401   3.433  0.5544 -0.1898  0.8690
 6943TIP3   OH242387   0.704   1.511   0.382 -0.3489 -0.0303 -0.6450
 6943TIP3    H142388   0.626   1.567   0.392 -0.9655 -0.9687 -0.0207
 6943TIP3    H242389   0.777   1.568   0.407 -0.9340  0.5851 -0.2905
 6944TIP3   OH242390   0.536   0.399   5.907 -0.6083 -0.7864  0.2126
 6944TIP3    H142391   0.462   0.389   5.848 -1.5651  3.4623  0.3862
 6944TIP3    H242392   0.587   0.471   5.871  2.1753 -2.0019  1.4102
 6945TIP3   OH242393   2.056   2.825  29.705  0.0224  0.3992  0.1516
 6945TIP3    H142394   2.088   2.802  29.618 -0.3448  0.4399  0.0066
 6945TIP3    H242395   2.104   2.905  29.728 -0.3388  0.7417 -0.2761
 6946TIP3   OH242396   2.430   0.873   5.576  0.0266 -0.5546 -0.5702
 6946TIP3    H142397   2.432   0.777   5.581  2.0446 -0.5186  0.5636
 6946TIP3    H242398   2.520   0.897   5.552  0.5727  1.1248  2.5583
 6947TIP3   OH242399   0.147   2.288  29.923  0.1696  0.0234  0.2464
 6947TIP3    H142400   0.052   2.299  29.934 -0.0790 -0.5032 -1.1582
 6947TIP3    H242401   0.160   2.194  29.920  0.6607  0.1029 -0.1667
 6948TIP3   OH242402   1.609   0.163   6.733 -0.3191 -0.0174  0.1911
 6948TIP3    H142403   1.700   0.185   6.712 -0.6399  0.3089 -0.8924
 6948TIP3    H242404   1.615   0.120   6.819  0.7849  0.5190  0.4062
 6949TIP3   OH242405   1.034   2.782  23.542  0.1646  0.4219  0.8523
 6949TIP3    H142406   1.123   2.748  23.551  0.4682  0.7520 -0.5762
 6949TIP3    H242407   0.992   2.766  23.627  0.6839 -2.2929  0.6537
 6950TIP3   OH242408   1.014   0.492   6.224 -0.1950 -0.2176  0.3171
 6950TIP3    H142409   1.070   0.555   6.179 -0.3247 -0.4151 -0.1239
 6950TIP3    H242410   1.038   0.501   6.316  0.2473  0.0139  0.1843
 6951TIP3   OH242411   2.246   1.028  30.983  0.1175  0.1515 -0.2918
 6951TIP3    H142412   2.336   1.003  31.005 -0.2373  0.4273  1.6107
 6951TIP3    H242413   2.200   0.945  30.973  0.6847 -0.0073 -1.8990
 6952TIP3   OH242414   0.242   0.885   6.096  0.1615 -0.1171 -0.4575
 6952TIP3    H142415   0.255   0.908   6.004 -1.3034  0.6682 -0.5077
 6952TIP3    H242416   0.243   0.970   6.142  2.6309 -0.5973  0.5533
 6953TIP3   OH242417   1.389   0.669  26.040 -0.6633 -0.7965  0.3293
 6953TIP3    H142418   1.315   0.727  26.022 -0.5755 -0.3228  1.4184
 6953TIP3    H242419   1.380   0.645  26.132  0.2285 -1.1733  0.3357
 6954TIP3   OH242420   1.077   3.424  28.650 -0.7111 -0.0873  0.2724
 6954TIP3    H142421   1.094   3.426  28.744 -2.2087 -1.4225  0.6015
 6954TIP3    H242422   0.989   3.389  28.642 -0.4963 -0.2859 -1.6556
 6955TIP3   OH242423   1.296   1.962   0.171  0.1837 -0.0151  0.3587
 6955TIP3    H142424   1.355   2.017   0.221  0.2266  0.6457 -0.3936
 6955TIP3    H242425   1.348   1.886   0.146 -0.6605 -1.9432  3.8862
 6956TIP3   OH242426   1.639   0.399  26.753 -0.1237  0.0075 -0.0733
 6956TIP3    H142427   1.703   0.334  26.723 -2.2843 -1.8000 -1.0635
 6956TIP3    H242428   1.556   0.368  26.717 -1.5323  2.4047  0.9323
 6957TIP3   OH242429   0.749   2.250   3.639 -0.0990  0.2747 -0.2891
 6957TIP3    H142430   0.750   2.344   3.652  0.2355  0.2358  0.0096
 6957TIP3    H242431   0.658   2.228   3.621  0.0567  0.8462 -1.8904
 6958TIP3   OH242432   1.923   2.337   1.685 -0.0923 -0.9104  0.6065
 6958TIP3    H142433   1.951   2.407   1.743  0.1963  0.0908 -0.6937
 6958TIP3    H242434   1.974   2.349   1.605 -0.8875 -1.8834 -0.0855
 6959TIP3   OH242435   2.194   0.027  30.517 -0.2189 -0.0678 -0.1191
 6959TIP3    H142436   2.149  -0.057  30.511 -0.5487  0.1503 -0.7572
 6959TIP3    H242437   2.264   0.011  30.581 -3.1942  0.5132  3.6123
 6960TIP3   OH242438   2.181   1.287   4.412 -0.9303 -0.4048  0.0858
 6960TIP3    H142439   2.093   1.261   4.384 -0.2673 -1.6325 -0.9708
 6960TIP3    H242440   2.219   1.208   4.451 -0.3832  0.1935  0.8169
 6961TIP3   OH242441   1.637   0.563   2.910 -0.3626  0.3938 -0.5932
 6961TIP3    H142442   1.590   0.636   2.949 -1.8907 -0.3868 -0.8814
 6961TIP3    H242443   1.590   0.544   2.828  0.5405 -0.3420 -0.9742
 6962TIP3   OH242444   2.245   2.430  23.404  0.0233 -0.0826  0.2967
 6962TIP3    H142445   2.280   2.505  23.451  0.6242  0.1603 -0.5175
 6962TIP3    H242446   2.259   2.451  23.311 -0.6762 -0.7702  0.0240
 6963TIP3   OH242447   2.881   3.519  27.803 -0.0471 -0.1207  0.1239
 6963TIP3    H142448   2.967   3.480  27.787 -1.3884 -2.6269 -1.6181
 6963TIP3    H242449   2.878   3.596  27.746 -0.1874 -2.0523 -2.6813
 6964TIP3   OH242450   0.002   0.569   4.914 -0.0081 -0.1419  0.1724
 6964TIP3    H142451   0.091   0.601   4.896 -0.0658 -0.6459 -1.1486
 6964TIP3    H242452  -0.023   0.523   4.833 -1.0461 -0.9530  0.9286
 6965TIP3   OH242453   1.469   2.173  22.103 -0.0012  0.3092 -0.2870
 6965TIP3    H142454   1.560   2.201  22.088  0.1281 -0.4223 -0.8929
 6965TIP3    H242455   1.427   2.183  22.018 -0.5271  0.7529  0.0208
 6966TIP3   OH242456   2.218   3.297  13.110  0.1607  0.3908 -0.2976
 6966TIP3    H142457   2.241   3.298  13.017  3.5381  0.6267  0.4295
 6966TIP3    H242458   2.164   3.375  13.121  0.3523  0.8049 -1.9231
 6967TIP3   OH242459   2.494   0.930  30.994 -0.3478 -0.3217  0.9350
 6967TIP3    H142460   2.539   1.010  30.966  0.5460 -0.9030  0.6753
 6967TIP3    H242461   2.532   0.909  31.079 -0.4588 -0.5709  0.9237
 6968TIP3   OH242462   3.263   2.377  32.641 -0.3936  0.6352  0.3017
 6968TIP3    H142463   3.291   2.468  32.652  1.4268  0.1311  0.1711
 6968TIP3    H242464   3.344   2.329  32.623 -1.2401 -1.1032  0.8794
 6969TIP3   OH242465   3.401   0.713   0.393 -0.8144 -0.8158 -0.0124
 6969TIP3    H142466   3.449   0.790   0.363  0.3294 -1.7311 -0.6397
 6969TIP3    H242467   3.448   0.684   0.471  0.8328 -2.6945 -1.5546
 6970TIP3   OH242468   1.052   0.825  32.773  0.7552  0.5215 -0.5676
 6970TIP3    H142469   1.121   0.854  32.832  1.6443 -1.8149 -0.3374
 6970TIP3    H242470   0.979   0.802  32.830  1.1178 -0.4349 -0.4779
 6971TIP3   OH242471   2.517   2.635  27.166  0.0157 -0.3345 -0.1996
 6971TIP3    H142472   2.605   2.637  27.128  0.8542 -2.2111  1.5079
 6971TIP3    H242473   2.500   2.543  27.183 -1.7031  0.1380  0.8398
 6972TIP3   OH242474   2.680   2.121   0.929  0.7980 -0.1595  1.0560
 6972TIP3    H142475   2.740   2.148   0.999  2.3289  1.1665 -0.6603
 6972TIP3    H242476   2.612   2.188   0.929  2.6997  1.9779 -0.8882
 6973TIP3   OH242477   0.790   1.529  26.456 -0.6253 -0.5317  0.0697
 6973TIP3    H142478   0.695   1.537  26.466 -0.4917 -0.2723  1.2893
 6973TIP3    H242479   0.825   1.611  26.492 -0.0188  0.3748 -2.4063
 6974TIP3   OH242480   2.889   2.182  30.229  0.5514  0.1280 -0.4691
 6974TIP3    H142481   2.867   2.251  30.166 -0.0388  0.2908 -0.0919
 6974TIP3    H242482   2.851   2.102  30.191  2.7988 -0.3914 -1.8389
 6975TIP3   OH242483   2.935   2.306   2.469 -0.5591 -0.2322  0.5169
 6975TIP3    H142484   2.989   2.309   2.390  0.7758 -1.4285  1.3480
 6975TIP3    H242485   2.954   2.388   2.515 -0.6480  0.0475  0.0588
 6976TIP3   OH242486   2.874   0.869   0.495  0.3543 -0.1328  0.5503
 6976TIP3    H142487   2.907   0.874   0.406  0.7102 -1.4010  0.5921
 6976TIP3    H242488   2.951   0.853   0.549 -0.0057 -0.6533  0.9287
 6977TIP3   OH242489   0.297   0.484  26.927  0.2603 -0.1689 -0.1060
 6977TIP3    H142490   0.362   0.443  26.869  0.4983 -0.2030  0.1863
 6977TIP3    H242491   0.286   0.422  26.999 -0.1257 -0.1807 -0.1725
 6978TIP3   OH242492   1.170   0.225   3.587  0.0325 -0.8405  0.3184
 6978TIP3    H142493   1.115   0.287   3.633 -1.3546  0.1878 -2.4720
 6978TIP3    H242494   1.242   0.278   3.552  1.6555 -1.7797  2.0271
 6979TIP3   OH242495   0.678   2.074   6.565 -0.5843 -0.0552  0.0287
 6979TIP3    H142496   0.764   2.106   6.592  0.4807 -2.1696 -0.6286
 6979TIP3    H242497   0.619   2.099   6.636  0.7396  0.6669  0.9102
 6980TIP3   OH242498   1.199   3.221  29.826  0.0159  0.1640 -0.5154
 6980TIP3    H142499   1.209   3.316  29.829 -1.3450  0.3928 -1.9447
 6980TIP3    H242500   1.230   3.197  29.738  1.5893 -0.9164  0.2913
 6981TIP3   OH242501   0.196   3.069   1.715  0.0695 -0.2164  0.4075
 6981TIP3    H142502   0.246   3.038   1.791  1.4648 -0.9488 -0.7534
 6981TIP3    H242503   0.237   3.025   1.641 -2.0531 -0.4789 -0.6632
 6982TIP3   OH242504   1.385   0.453   7.408  0.2742  0.5577 -0.5146
 6982TIP3    H142505   1.365   0.443   7.500  2.4809 -1.0691 -0.1169
 6982TIP3    H242506   1.304   0.484   7.368 -1.0369  0.2434  1.7710
 6983TIP3   OH242507   0.611   0.831  26.400 -0.3723  0.2803  0.0020
 6983TIP3    H142508   0.637   0.921  26.383 -0.7545  0.2580 -0.8080
 6983TIP3    H242509   0.543   0.814  26.334  0.6487 -1.0283 -0.7752
 6984TIP3   OH242510   3.115   2.709   2.883  0.3578 -0.3681  0.0551
 6984TIP3    H142511   3.133   2.690   2.975 -1.9788 -2.8917  0.0975
 6984TIP3    H242512   3.027   2.748   2.884 -0.3020 -1.7567 -1.1763
 6985TIP3   OH242513   2.221   2.395  28.386  0.1321  0.0747  0.9017
 6985TIP3    H142514   2.125   2.394  28.378  0.0488  2.0720  0.9540
 6985TIP3    H242515   2.237   2.432  28.473  0.9390  0.0878  0.7528
 6986TIP3   OH242516   3.275   2.636  30.199  0.0834  0.1149  0.1977
 6986TIP3    H142517   3.360   2.677  30.183 -0.4314  1.1780  0.0865
 6986TIP3    H242518   3.280   2.606  30.290  0.3845  0.6523  0.3644
 6987TIP3   OH242519   0.493   3.461  10.624 -0.1884 -0.2518  0.2354
 6987TIP3    H142520   0.568   3.402  10.616 -0.9007 -1.0952 -0.5715
 6987TIP3    H242521   0.432   3.431  10.556 -0.6789  1.2786 -0.0369
 6988TIP3   OH242522   0.586   1.417  27.864  0.0531  0.3541 -0.5297
 6988TIP3    H142523   0.528   1.461  27.802 -0.3422 -0.3339 -0.6576
 6988TIP3    H242524   0.535   1.345  27.898  0.9219 -0.4411 -0.8571
 6989TIP3   OH242525   3.510   1.109   7.459 -0.4915  0.2322 -0.2629
 6989TIP3    H142526   3.574   1.061   7.511 -2.0983 -0.0222  1.5705
 6989TIP3    H242527   3.441   1.046   7.439 -0.1732  0.4565 -2.3564
 6990TIP3   OH242528   2.859   1.358  17.288 -0.0238 -0.3680 -0.3338
 6990TIP3    H142529   2.840   1.334  17.378  1.8808 -1.7849 -0.2469
 6990TIP3    H242530   2.916   1.435  17.295 -0.6422  0.1021 -0.3804
 6991TIP3   OH242531   2.958   2.900   0.971 -0.2476 -0.1337  0.4754
 6991TIP3    H142532   2.996   2.816   0.944 -1.1160  0.1031 -1.6953
 6991TIP3    H242533   2.908   2.879   1.050  1.3553 -1.1711  1.2721
 6992TIP3   OH242534   1.514   2.799  26.693  0.3409 -0.9013 -0.6298
 6992TIP3    H142535   1.555   2.717  26.722 -1.6689 -1.6382  0.2835
 6992TIP3    H242536   1.459   2.773  26.620  0.6449 -0.1228 -1.1416
 6993TIP3   OH242537   3.272   3.077   5.988 -0.1319 -0.2751 -0.0413
 6993TIP3    H142538   3.266   3.106   6.079  1.3311 -1.0017  0.3221
 6993TIP3    H242539   3.346   3.126   5.952  0.0944 -0.9096 -0.4602
 6994TIP3   OH242540   1.659   2.071   7.008  0.0371  0.1586 -0.5143
 6994TIP3    H142541   1.745   2.101   7.035 -0.3118  1.4543 -0.7842
 6994TIP3    H242542   1.610   2.062   7.090  0.5618 -1.0945 -0.3142
 6995TIP3   OH242543   1.796   1.679  31.545 -0.0730  0.1135 -0.6189
 6995TIP3    H142544   1.808   1.653  31.636  0.9514 -0.4818 -0.9122
 6995TIP3    H242545   1.721   1.628  31.515  0.0274 -0.2126 -0.3092
 6996TIP3   OH242546   0.626   2.459   3.385 -0.1462  0.1733 -0.1955
 6996TIP3    H142547   0.558   2.392   3.388 -2.1449  2.1531  1.1938
 6996TIP3    H242548   0.633   2.481   3.292  0.0839 -1.4416 -0.5941
 6997TIP3   OH242549   1.835   3.167   5.806 -0.2113 -0.7930 -0.4987
 6997TIP3    H142550   1.766   3.103   5.793 -0.8860  0.0289 -1.0540
 6997TIP3    H242551   1.915   3.115   5.817 -1.1179 -1.8308  1.7196
 6998TIP3   OH242552   1.306   1.717  20.213  0.5998 -0.3520  0.1091
 6998TIP3    H142553   1.230   1.731  20.155  1.3441  0.2294 -0.7475
 6998TIP3    H242554   1.364   1.791  20.195 -0.2003  1.2749  3.4203
 6999TIP3   OH242555   3.298   3.059   6.266 -0.9682 -0.0274  0.5571
 6999TIP3    H142556   3.256   2.973   6.263  0.2684 -0.6266  0.0502
 6999TIP3    H242557   3.359   3.054   6.339 -0.2088  0.0856 -0.0565
 7000TIP3   OH242558   2.666   2.407  26.843  0.0683  0.3611 -0.0259
 7000TIP3    H142559   2.739   2.458  26.807 -0.1291  1.5413  1.2142
 7000TIP3    H242560   2.593   2.425  26.783 -0.0324  1.6458  0.4530
 7001TIP3   OH242561   3.297   0.254  32.871  0.4023 -0.2034  0.1725
 7001TIP3    H142562   3.252   0.296  32.798  0.0327  0.1693  0.6146
 7001TIP3    H242563   3.380   0.301  32.878 -0.9805  2.1776  2.2288
 7002TIP3   OH242564   3.377   3.404   6.130  0.5509  0.5366 -0.3690
 7002TIP3    H142565   3.414   3.492   6.122 -0.9481  1.1172 -1.5096
 7002TIP3    H242566   3.283   3.417   6.115  0.2229 -1.1875  0.0475
 7003TIP3   OH242567   0.326   0.796  27.516 -0.6947  0.7963  0.4105
 7003TIP3    H142568   0.407   0.792  27.465 -0.9760  3.1762 -0.3498
 7003TIP3    H242569   0.263   0.837  27.458 -2.6826 -1.5019  0.7973
 7004TIP3   OH242570   0.692   1.640  28.709  0.1909 -0.2913 -0.0830
 7004TIP3    H142571   0.708   1.546  28.703  0.4956 -0.2223 -0.3727
 7004TIP3    H242572   0.756   1.671  28.773 -0.1515 -0.3361  0.2856
 7005TIP3   OH242573   0.297   0.947   1.664 -0.6788  0.4770  0.6987
 7005TIP3    H142574   0.259   1.018   1.611 -0.8464  0.8156  1.2622
 7005TIP3    H242575   0.341   0.890   1.600 -1.4765  0.4959  0.1182
 7006TIP3   OH242576   1.357   2.250   5.768  0.0792  0.4957  0.2121
 7006TIP3    H142577   1.268   2.227   5.739  0.2785 -0.0120 -0.0024
 7006TIP3    H242578   1.343   2.310   5.841 -0.4566 -0.2384  0.7301
 7007TIP3   OH242579   0.574   1.897  23.094 -0.3168  0.0453  0.2385
 7007TIP3    H142580   0.576   1.894  23.189  1.6572 -0.6308  0.2116
 7007TIP3    H242581   0.569   1.805  23.067 -1.5479  0.2554 -0.3391
 7008TIP3   OH242582   0.948   2.381   3.292 -0.2302 -0.2042  0.2908
 7008TIP3    H142583   0.870   2.436   3.306  1.7077  2.4037  1.7720
 7008TIP3    H242584   0.952   2.326   3.371  0.8741  1.6930  1.6435
 7009TIP3   OH242585   1.447   1.997   5.672  0.3633 -0.6396  0.4060
 7009TIP3    H142586   1.433   2.068   5.735  1.7279  1.4137 -1.4686
 7009TIP3    H242587   1.534   1.963   5.694  0.9798  0.2954 -0.5160
 7010TIP3   OH242588   0.091   1.562   2.619  0.5015 -0.0141  0.4785
 7010TIP3    H142589   0.108   1.473   2.649  1.6869  0.6406  1.9545
 7010TIP3    H242590   0.012   1.556   2.566 -0.1545 -1.7458  1.5678
 7011TIP3   OH242591   0.575   3.455  13.450  0.1084  0.6481  0.3205
 7011TIP3    H142592   0.529   3.453  13.367  1.2042 -1.1674 -0.3046
 7011TIP3    H242593   0.665   3.430  13.429  0.4328  0.1994  2.0271
 7012TIP3   OH242594   1.677   2.596   3.134 -0.0346  0.8453  0.2877
 7012TIP3    H142595   1.679   2.520   3.075  0.8483  1.9504 -1.1748
 7012TIP3    H242596   1.592   2.637   3.118  0.3890  1.4052 -0.5994
 7013TIP3   OH242597   2.516   0.237   6.519 -0.1382 -0.3891 -0.3714
 7013TIP3    H142598   2.599   0.218   6.562 -0.1764 -1.3439 -0.7112
 7013TIP3    H242599   2.516   0.183   6.440 -0.9488 -0.1741 -0.5312
 7014TIP3   OH242600   1.984   2.800  32.312 -0.0987  0.0894 -0.3890
 7014TIP3    H142601   1.916   2.745  32.353  2.0988 -2.7385 -0.2032
 7014TIP3    H242602   1.941   2.839  32.236 -2.3720 -0.1437  0.6772
 7015TIP3   OH242603   2.524   1.571  20.750  0.2706  0.5053  0.2742
 7015TIP3    H142604   2.605   1.526  20.727  0.3978  1.3757 -1.1897
 7015TIP3    H242605   2.496   1.611  20.667 -1.6203  0.2750  0.7659
 7016TIP3   OH242606   2.983   0.669  27.099  0.2433  0.6315 -0.1501
 7016TIP3    H142607   2.908   0.653  27.157  0.3356  2.5113  0.5534
 7016TIP3    H242608   2.984   0.593  27.041  0.1614 -1.3668  2.2747
 7017TIP3   OH242609   1.453   2.094  20.595 -0.0404  0.4856 -0.5306
 7017TIP3    H142610   1.455   2.184  20.627 -0.9146 -0.3120  1.9931
 7017TIP3    H242611   1.375   2.056  20.634  0.6001 -1.5383 -1.0957
 7018TIP3   OH242612   0.539   3.273  30.507 -0.0031 -0.4728 -0.4627
 7018TIP3    H142613   0.455   3.242  30.473  0.4981 -0.6144 -1.5897
 7018TIP3    H242614   0.515   3.335  30.576 -1.0873  1.3032 -2.3376
 7019TIP3   OH242615   2.577   2.572  27.548 -0.5471  0.2718 -0.1826
 7019TIP3    H142616   2.619   2.530  27.472  0.7381 -2.0544  1.6544
 7019TIP3    H242617   2.622   2.656  27.557  0.0918  0.0788 -1.3291
 7020TIP3   OH242618   0.701   1.631   2.375  0.5103 -0.4784  0.2634
 7020TIP3    H142619   0.625   1.628   2.317  0.5761 -0.9000  0.2010
 7020TIP3    H242620   0.743   1.546   2.365  0.7270 -0.4193  0.6532
 7021TIP3   OH242621   2.213   2.086  14.217 -0.2223  0.2062  0.7721
 7021TIP3    H142622   2.284   2.147  14.238  0.0303 -0.6872  2.7187
 7021TIP3    H242623   2.255   2.017  14.165  0.4168 -0.4127  2.0643
 7022TIP3   OH242624   0.775   2.798   6.510  0.4052  0.1187  0.1179
 7022TIP3    H142625   0.762   2.867   6.445  1.9273 -1.1987 -1.7031
 7022TIP3    H242626   0.808   2.845   6.587 -3.3575  1.9826  0.8462
 7023TIP3   OH242627   3.388   1.471  29.174  0.6651 -0.0576  0.5368
 7023TIP3    H142628   3.363   1.509  29.259  1.6405  1.2484  0.2615
 7023TIP3    H242629   3.482   1.488  29.167  0.3030  1.4492 -1.5742
 7024TIP3   OH242630   2.579   3.304  13.369 -0.4485  0.1278  0.0130
 7024TIP3    H142631   2.520   3.353  13.425 -0.1550  1.7441 -1.0059
 7024TIP3    H242632   2.548   3.213  13.373 -1.1176  0.4141  1.8289
 7025TIP3   OH242633   1.429   2.155   4.564  0.2600 -0.0536  0.8221
 7025TIP3    H142634   1.433   2.249   4.579  2.4368  0.1016 -0.3306
 7025TIP3    H242635   1.371   2.145   4.488  3.0306  0.8259 -1.5853
 7026TIP3   OH242636   0.585   1.219   3.730 -0.4347 -0.3646  0.2231
 7026TIP3    H142637   0.503   1.171   3.739 -0.9367 -0.1584 -2.4661
 7026TIP3    H242638   0.616   1.198   3.641  0.6759  2.1963 -0.0923
 7027TIP3   OH242639   2.071   2.415   1.922  0.0821 -0.2503  0.1473
 7027TIP3    H142640   2.044   2.343   1.980 -0.0636  0.6914  1.2900
 7027TIP3    H242641   2.088   2.488   1.982 -0.1453  0.7787 -1.0124
 7028TIP3   OH242642   0.952   0.256   3.814  0.0158 -0.1244  0.0503
 7028TIP3    H142643   0.916   0.254   3.725 -2.2184 -1.1606  0.8994
 7028TIP3    H242644   0.915   0.335   3.854 -1.0304 -0.9771  0.8110
 7029TIP3   OH242645   0.886   2.854   7.044 -0.4621  0.5830  0.3506
 7029TIP3    H142646   0.803   2.837   7.090 -0.7407  1.0603  0.0380
 7029TIP3    H242647   0.919   2.934   7.083 -1.2506  1.6180 -0.9889
 7030TIP3   OH242648   1.191   0.976  29.361 -0.8734 -0.2168  0.3496
 7030TIP3    H142649   1.258   0.909  29.357 -1.7451 -1.0943  0.1707
 7030TIP3    H242650   1.160   0.974  29.452 -0.2436  0.6162  0.5951
 7031TIP3   OH242651   2.827   3.364   4.772 -0.4631 -0.2221  0.0075
 7031TIP3    H142652   2.850   3.348   4.680 -0.4179  0.6788 -0.1515
 7031TIP3    H242653   2.732   3.368   4.773 -0.4224  1.6393 -0.3609
 7032TIP3   OH242654   1.159   3.424   0.497  0.4468 -0.3630 -0.1431
 7032TIP3    H142655   1.186   3.478   0.572 -0.8350  0.2366 -0.0800
 7032TIP3    H242656   1.237   3.375   0.474  0.9934 -0.2561  1.3307
 7033TIP3   OH242657   0.896   1.542   4.016  0.4906  0.5760 -0.2730
 7033TIP3    H142658   0.943   1.625   4.008  0.0863  0.6009 -4.2080
 7033TIP3    H242659   0.963   1.479   4.043  1.6768  1.5385 -0.8882
 7034TIP3   OH242660   1.415   1.390  29.734 -0.2684 -0.5037  0.4390
 7034TIP3    H142661   1.482   1.457  29.722  0.6069 -1.2646  0.9268
 7034TIP3    H242662   1.362   1.393  29.654  1.0252 -0.6362 -0.4472
 7035TIP3   OH242663   2.143   0.091   2.931  0.1736  0.1145  0.0468
 7035TIP3    H142664   2.162   0.048   3.014 -0.8188 -3.7961 -1.5128
 7035TIP3    H242665   2.066   0.145   2.949 -0.0305 -0.6640  1.6713
 7036TIP3   OH242666   0.008   3.409   3.249 -0.1530 -0.0959  0.0595
 7036TIP3    H142667  -0.058   3.450   3.193  0.1702  0.8848  0.3779
 7036TIP3    H242668   0.032   3.477   3.311  0.4028 -0.7805  0.6083
 7037TIP3   OH242669   0.154   2.827   3.658  0.5818 -0.0634 -0.2412
 7037TIP3    H142670   0.244   2.857   3.655  1.3400 -2.0672  0.8258
 7037TIP3    H242671   0.160   2.733   3.677 -1.7277 -0.0997  0.6723
 7038TIP3   OH242672   1.149   3.127   3.764 -0.2658 -1.1320  0.5620
 7038TIP3    H142673   1.060   3.163   3.768 -0.3484 -1.4241  1.4611
 7038TIP3    H242674   1.199   3.195   3.719 -1.0330 -1.1669 -0.3998
 7039TIP3   OH242675   2.025   3.461   3.403 -0.5157  0.3394 -0.1597
 7039TIP3    H142676   2.013   3.377   3.445 -0.7965  1.1881  1.5317
 7039TIP3    H242677   1.938   3.485   3.372 -0.3435 -0.1979 -1.1017
 7040TIP3   OH242678   1.397   2.903   2.953 -0.2677  0.0992  0.2104
 7040TIP3    H142679   1.343   2.945   3.019 -1.1174 -0.1555 -0.3058
 7040TIP3    H242680   1.366   2.938   2.870  0.9773  0.6353 -0.0634
 7041TIP3   OH242681   0.501   1.056   5.973  0.3061  0.0180 -0.1073
 7041TIP3    H142682   0.482   0.981   6.029 -1.6452  0.7809  0.3383
 7041TIP3    H242683   0.545   1.118   6.032  0.8174 -0.2887 -0.1616
 7042TIP3   OH242684   1.103   2.265   7.542 -0.0871 -0.4704  0.3695
 7042TIP3    H142685   1.188   2.246   7.583 -0.5593 -1.6095  0.8571
 7042TIP3    H242686   1.113   2.236   7.451 -1.1295 -4.4458  1.3219
 7043TIP3   OH242687   2.499   1.189   4.967  0.1449 -0.1244 -0.0998
 7043TIP3    H142688   2.510   1.129   4.893  4.4229 -1.1742  1.1271
 7043TIP3    H242689   2.493   1.276   4.926  1.4995 -0.7525 -1.7630
 7044TIP3   OH242690   0.515   2.217  30.602  0.1288  0.1784 -0.6134
 7044TIP3    H142691   0.602   2.256  30.612 -0.0361  0.1025  1.6439
 7044TIP3    H242692   0.455   2.291  30.605  0.0514  0.1537 -1.3390
 7045TIP3   OH242693   0.742   2.530  23.278  0.1199 -0.6500 -0.5362
 7045TIP3    H142694   0.687   2.484  23.215  0.1504 -2.1332  0.4636
 7045TIP3    H242695   0.784   2.461  23.328  0.1241  0.4719  1.0935
 7046TIP3   OH242696   0.414   3.246  14.130 -0.8042 -0.3243 -0.2041
 7046TIP3    H142697   0.370   3.173  14.086 -0.4646 -1.2805  0.9834
 7046TIP3    H242698   0.466   3.204  14.198  0.5250  0.9281 -0.4025
 7047TIP3   OH242699   2.751   0.404  28.744  0.1331  0.7478  0.2771
 7047TIP3    H142700   2.837   0.441  28.726  0.0285  0.4962 -0.8474
 7047TIP3    H242701   2.705   0.409  28.660 -0.3375 -0.7258  0.4157
 7048TIP3   OH242702   1.726   1.891  22.370  0.4079 -0.3394 -0.6182
 7048TIP3    H142703   1.736   1.942  22.450  0.4034 -1.3531  0.0486
 7048TIP3    H242704   1.680   1.812  22.398  1.6108 -1.3229 -1.3676
 7049TIP3   OH242705   0.672   0.865   2.455  0.0296 -0.2186  0.5443
 7049TIP3    H142706   0.761   0.831   2.444 -0.2206 -0.3807 -1.3215
 7049TIP3    H242707   0.660   0.924   2.381 -1.2738  0.1195  1.0110
 7050TIP3   OH242708   0.142   0.410   3.251  0.0201  0.7513 -0.3992
 7050TIP3    H142709   0.152   0.322   3.213  1.6640  0.6143  0.2740
 7050TIP3    H242710   0.224   0.454   3.229  0.0739  1.4068  1.0775
 7051TIP3   OH242711   1.957   0.040   6.093  0.0098 -0.9685 -0.1904
 7051TIP3    H142712   1.890   0.038   6.162 -1.2434 -2.0114 -1.3695
 7051TIP3    H242713   1.916  -0.005   6.019  1.1253  0.5099 -1.7925
 7052TIP3   OH242714   3.064   0.989  30.101  0.0650  0.2340 -0.9230
 7052TIP3    H142715   2.971   0.981  30.121  0.3715 -1.8125 -0.1433
 7052TIP3    H242716   3.071   1.074  30.056 -1.7997  1.5096  0.9776
 7053TIP3   OH242717   0.151   2.691   2.738 -0.0985  0.1199 -0.2417
 7053TIP3    H142718   0.180   2.678   2.828 -0.9276  0.4950  0.0892
 7053TIP3    H242719   0.099   2.771   2.740 -2.5876 -1.4032 -0.4522
 7054TIP3   OH242720   2.264   1.897  27.925  0.0566 -0.0949 -0.5723
 7054TIP3    H142721   2.275   1.985  27.887  0.0428 -0.2799 -1.0135
 7054TIP3    H242722   2.201   1.854  27.867 -1.0098  0.0735  0.4351
 7055TIP3   OH242723   2.879   1.405   7.230  0.3066 -0.0383 -0.0759
 7055TIP3    H142724   2.888   1.472   7.163  0.9382 -0.0445 -0.0024
 7055TIP3    H242725   2.940   1.337   7.205  0.3941 -0.1374  0.3910
 7056TIP3   OH242726   1.661   1.241  30.741  0.3220  0.0055  0.2221
 7056TIP3    H142727   1.719   1.191  30.799  0.9225 -1.1013 -1.2533
 7056TIP3    H242728   1.697   1.329  30.741  0.9303 -0.2361  0.7370
 7057TIP3   OH242729   2.633   1.187   4.038 -0.1822  1.3178 -0.1077
 7057TIP3    H142730   2.571   1.192   4.110 -0.1719  0.5580 -0.0398
 7057TIP3    H242731   2.716   1.219   4.076  0.1115 -0.1660  0.5635
 7058TIP3   OH242732   1.367   0.910   3.191 -0.3162  0.0078 -0.1729
 7058TIP3    H142733   1.447   0.948   3.227  0.0912 -0.4312 -0.5973
 7058TIP3    H242734   1.306   0.910   3.264 -0.5181  1.9435 -0.2805
 7059TIP3   OH242735   0.868   2.207  21.121 -0.0217  0.2840 -0.6543
 7059TIP3    H142736   0.840   2.245  21.205  1.2666 -0.1506 -0.0097
 7059TIP3    H242737   0.811   2.249  21.056  0.1696  1.9947  0.2284
 7060TIP3   OH242738   1.304   0.935  28.166 -0.2135  0.6706  0.1427
 7060TIP3    H142739   1.258   0.996  28.109 -0.2445  1.1316  0.6510
 7060TIP3    H242740   1.240   0.868  28.187 -0.2768  0.6374 -0.1562
 7061TIP3   OH242741   2.370   1.791   0.240  0.1069 -0.2767  0.0831
 7061TIP3    H142742   2.362   1.875   0.286 -0.5721  0.2468 -0.9408
 7061TIP3    H242743   2.464   1.773   0.237  0.7633  2.6279 -3.3897
 7062TIP3   OH242744   0.376   0.288  32.858 -0.0638 -0.3267 -1.0173
 7062TIP3    H142745   0.394   0.379  32.882 -0.2060 -0.2833 -1.0765
 7062TIP3    H242746   0.379   0.288  32.762 -0.0524 -0.3870 -1.0188
 7063TIP3   OH242747   3.218   1.736  27.862  0.2356  0.6897 -0.1492
 7063TIP3    H142748   3.273   1.725  27.940  0.9510  1.7587 -0.4882
 7063TIP3    H242749   3.217   1.830  27.846 -2.2508  0.8012  0.2226
 7064TIP3   OH242750   3.407   2.988  14.805  1.1663  0.0926  0.3545
 7064TIP3    H142751   3.406   3.083  14.790  3.8168  0.4977  2.0527
 7064TIP3    H242752   3.332   2.973  14.863  0.3193  0.9939 -0.4471
 7065TIP3   OH242753   2.328   3.279  13.866  0.5967  0.1869  0.5921
 7065TIP3    H142754   2.368   3.266  13.953 -1.8466  0.2796  1.8066
 7065TIP3    H242755   2.295   3.368  13.868  0.5136  0.1879 -0.4609
 7066TIP3   OH242756   3.048   3.283  13.290  0.2421  0.4843  0.4227
 7066TIP3    H142757   3.125   3.340  13.298 -0.6683  1.6181  1.4306
 7066TIP3    H242758   3.008   3.285  13.377  0.3484 -1.9836  0.5900
 7067TIP3   OH242759   2.312   1.556   0.458 -0.0879 -0.2489 -0.3128
 7067TIP3    H142760   2.303   1.541   0.552 -1.4116 -1.3135 -0.5746
 7067TIP3    H242761   2.371   1.631   0.451 -1.5011  1.1201  1.4295
 7068TIP3   OH242762   0.547   2.847  11.796  0.3458  0.6142  0.0831
 7068TIP3    H142763   0.504   2.855  11.711  0.9245  0.1104 -0.2622
 7068TIP3    H242764   0.624   2.792  11.779 -0.8434 -1.5529  1.4101
 7069TIP3   OH242765   0.179   1.473  19.665 -0.4836 -0.3134 -0.7521
 7069TIP3    H142766   0.194   1.404  19.600 -1.2437  0.5276 -1.8722
 7069TIP3    H242767   0.224   1.550  19.629  1.8089 -0.5989  1.3016
 7070TIP3   OH242768   0.826   2.992   6.022  0.0151  0.7118  0.2363
 7070TIP3    H142769   0.788   3.077   6.042 -0.6950  0.4867 -0.1185
 7070TIP3    H242770   0.769   2.929   6.065 -0.6738  0.3096 -1.1886
 7071TIP3   OH242771   0.434   2.854  11.536 -0.2205 -0.6564 -0.4198
 7071TIP3    H142772   0.374   2.781  11.552  0.6268 -0.7043  3.3226
 7071TIP3    H242773   0.377   2.932  11.535 -0.7033 -1.0015 -0.3541
 7072LIG      O42774   1.657   2.020  31.152 -0.1472  0.3394  0.2599
 7072LIG     C142775   1.633   1.955  31.275  0.9628 -0.1086  0.1053
 7072LIG     C242776   1.528   2.043  31.348 -0.4875  0.2137  0.5318
 7072LIG     C342777   1.568   1.814  31.253  0.1557  0.6976  0.1512
 7072LIG     H142778   1.727   1.932  31.329 -0.1106 -0.0735  2.0824
 7072LIG     H242779   1.516   2.013  31.454  2.1373 -1.3926  0.4503
 7072LIG     H342780   1.440   2.033  31.281  0.2628 -1.3944 -0.2910
 7072LIG     H442781   1.573   2.144  31.347  1.5187 -0.6304 -0.2040
 7072LIG     H542782   1.474   1.828  31.197 -0.5068  3.8494  1.8020
 7072LIG     H642783   1.549   1.758  31.347 -0.4655  0.7314  0.0480
 7072LIG     H742784   1.633   1.748  31.192 -1.1075  2.3944 -3.2585
 7072LIG     H842785   1.650   2.114  31.171 -0.7688  0.5669 -0.9950
   3.55157   3.55157  32.92910
