Title
42785
    1SAPS     N    1   3.916   4.326   7.422 -0.0679 -0.2091  0.4001
    1SAPS   HN1    2   3.873   4.281   7.338  0.3117  0.3743 -0.1221
    1SAPS   HN2    3   3.971   4.257   7.477  0.5033  0.6431  0.9301
    1SAPS   HN3    4   3.833   4.356   7.477  1.2798  0.4439  2.1879
    1SAPS   C12    5   3.999   4.438   7.370 -0.1758  0.3720  0.4856
    1SAPS  H12A    6   4.021   4.510   7.448 -1.8952 -1.8297  3.1766
    1SAPS   C13    7   4.134   4.392   7.304 -0.1817 -0.0513  0.0817
    1SAPS  O13A    8   4.166   4.271   7.288  0.1699 -0.1524 -0.3058
    1SAPS  O13B    9   4.209   4.486   7.257 -0.2943  0.2363 -0.4080
    1SAPS   C11   10   3.916   4.506   7.248  0.4946 -0.5888 -0.0699
    1SAPS  H11A   11   3.924   4.450   7.152 -0.9479 -0.1887 -0.4593
    1SAPS  H11B   12   3.971   4.601   7.230 -1.0712  0.6341  1.3013
    1SAPS     P   13   3.697   4.637   7.211 -0.3030 -0.1232  0.1086
    1SAPS   O13   14   3.549   4.600   7.205  0.5103  0.1625  0.6218
    1SAPS   O14   15   3.729   4.758   7.291 -0.4594  0.7022  0.1261
    1SAPS   O12   16   3.771   4.514   7.277  0.3986 -0.4394 -0.4287
    1SAPS   O11   17   3.762   4.646   7.069  0.1168  0.2493  0.1492
    1SAPS    C1   18   3.682   4.599   6.957  0.5813 -0.2841 -0.4610
    1SAPS    HA   19   3.600   4.531   6.990 -0.7319  1.9447  1.1917
    1SAPS    HB   20   3.641   4.682   6.896 -3.8752 -0.9478  1.2568
    1SAPS    C2   21   3.759   4.512   6.858 -0.3165 -0.0844 -0.4781
    1SAPS    HS   22   3.818   4.438   6.916 -2.1965 -1.8091 -0.6218
    1SAPS   O21   23   3.848   4.601   6.798 -0.2305 -0.0198  0.6011
    1SAPS   C21   24   3.947   4.541   6.736 -0.0815 -0.3047 -0.7243
    1SAPS   O22   25   3.972   4.420   6.741  0.3776  0.0391 -0.2477
    1SAPS   C22   26   4.044   4.649   6.680  0.6197  0.3841  0.4537
    1SAPS   H2R   27   4.095   4.691   6.769 -1.0290  2.9982  0.3026
    1SAPS   H2S   28   4.126   4.604   6.620  0.6011 -0.1863  0.8542
    1SAPS    C3   29   3.668   4.432   6.759  0.6182  0.3404  0.5362
    1SAPS    HX   30   3.598   4.370   6.819 -0.2390  0.4096 -0.3614
    1SAPS    HY   31   3.736   4.366   6.700  3.1860  3.9221 -0.8697
    1SAPS   O31   32   3.581   4.524   6.682 -0.1502  0.0900  0.2064
    1SAPS   C31   33   3.622   4.578   6.566 -0.4329  0.9516  0.2935
    1SAPS   O32   34   3.718   4.535   6.502  0.4947 -0.4918  0.6680
    1SAPS   C32   35   3.535   4.687   6.525  0.9165 -0.0091 -0.7965
    1SAPS   H2X   36   3.504   4.737   6.619  0.7867 -1.2783 -0.1397
    1SAPS   H2Y   37   3.447   4.649   6.468  0.4492  0.0863 -0.1472
    1SAPS   C23   38   3.972   4.760   6.600  0.1246  0.2821  0.1244
    1SAPS   H3R   39   3.891   4.803   6.662 -1.1407 -2.8231  0.8217
    1SAPS   H3S   40   3.915   4.709   6.518 -1.5858  0.7311  0.9816
    1SAPS   C24   41   4.065   4.874   6.549 -0.2133  0.0252 -0.3272
    1SAPS   H4R   42   4.114   4.898   6.647  0.1349 -1.4315 -0.1111
    1SAPS   H4S   43   4.005   4.957   6.507 -1.0353  0.0803  0.8876
    1SAPS   C25   44   4.161   4.827   6.452  0.1355  0.7860 -1.0243
    1SAPS   H5R   45   4.217   4.741   6.493  0.1774  2.5495  3.1801
    1SAPS   C26   46   4.196   4.875   6.330  0.1278  0.0240 -0.1371
    1SAPS   H6R   47   4.265   4.812   6.272  0.4785 -0.1111  0.4200
    1SAPS   C27   48   4.121   4.988   6.266  0.4054  0.2961  0.3894
    1SAPS   H7R   49   4.189   5.046   6.200  1.8699 -0.0378  1.5572
    1SAPS   H7S   50   4.074   5.062   6.334  1.5462  1.1477  0.2772
    1SAPS   C28   51   4.015   4.928   6.180  0.3689  0.0350  0.6354
    1SAPS   H8R   52   3.941   4.873   6.240 -1.3937  1.5119 -0.0884
    1SAPS   C29   53   3.988   4.927   6.048  0.2896  0.3901 -0.0584
    1SAPS   H9R   54   3.897   4.881   6.009  0.0291  0.9688 -0.1457
    1SAPS  C210   55   4.082   4.994   5.947  0.1955  0.2777  0.0353
    1SAPS  H10R   56   4.156   5.064   5.993  0.9108  0.2220 -0.9862
    1SAPS  H10S   57   4.028   5.063   5.879 -0.9896 -0.4913  0.1718
    1SAPS  C211   58   4.148   4.888   5.865 -0.0147  0.5245 -0.2209
    1SAPS  H11R   59   4.202   4.814   5.927 -1.7875 -2.2992 -1.8558
    1SAPS  C212   60   4.166   4.870   5.737  0.1872  0.2506 -0.7305
    1SAPS  H12R   61   4.232   4.786   5.708  1.8213  0.8307  1.0763
    1SAPS  C213   62   4.115   4.972   5.630  0.1693 -0.0184  0.4466
    1SAPS  H13R   63   4.193   4.986   5.553  0.3655 -0.8631  0.4768
    1SAPS  H13S   64   4.100   5.074   5.672 -1.4077  0.2625 -0.7275
    1SAPS  C214   65   3.994   4.929   5.548 -0.2965 -0.1866 -0.0610
    1SAPS  H14R   66   3.918   4.867   5.598  0.6874 -1.1359  0.3341
    1SAPS  C215   67   3.969   4.954   5.420  0.3958  0.6413  0.5584
    1SAPS  H15R   68   3.878   4.908   5.379 -0.6028  0.6210  2.6814
    1SAPS  C216   69   4.056   5.027   5.326 -0.1800  0.0554 -0.0563
    1SAPS  H16R   70   4.133   4.967   5.272 -0.4754 -0.8915  0.5512
    1SAPS  H16S   71   4.100   5.117   5.374 -2.9166  2.6683 -2.0908
    1SAPS  C217   72   3.966   5.066   5.205 -0.2719 -0.3605  0.2731
    1SAPS  H17R   73   3.890   5.143   5.231  0.2287 -0.2247  1.3943
    1SAPS  H17S   74   3.909   4.977   5.172  2.7528 -2.0933 -0.6484
    1SAPS  C218   75   4.049   5.100   5.083 -0.8845 -0.9030  0.4638
    1SAPS  H18R   76   4.093   5.013   5.030  1.2176  0.4667 -0.1792
    1SAPS  H18S   77   4.126   5.174   5.115 -0.2341 -2.1681  1.9244
    1SAPS  C219   78   3.962   5.182   4.985  0.5228 -0.4730 -0.4676
    1SAPS  H19R   79   3.914   5.267   5.038 -0.1814 -0.1109 -1.6520
    1SAPS  H19S   80   3.873   5.120   4.960 -1.9473  2.4278  0.6847
    1SAPS  C220   81   4.037   5.227   4.860 -0.7286  0.3660  0.2317
    1SAPS  H20R   82   4.068   5.149   4.788  0.0250  1.2923 -0.4795
    1SAPS  H20S   83   4.134   5.269   4.896  0.2670 -1.1366 -0.6138
    1SAPS  H20T   84   3.966   5.291   4.803  0.9566  0.0048 -2.4411
    1SAPS   C33   85   3.602   4.792   6.427  0.6495  0.3202  0.2783
    1SAPS   H3X   86   3.694   4.841   6.466  1.6465 -0.8176 -0.5542
    1SAPS   H3Y   87   3.527   4.873   6.419 -0.1229 -0.3650  0.4275
    1SAPS   C34   88   3.618   4.738   6.287  0.6528 -0.0844  0.2486
    1SAPS   H4X   89   3.551   4.651   6.273  2.5547 -1.3562 -1.5363
    1SAPS   H4Y   90   3.718   4.690   6.284  1.0774  0.6585  1.7813
    1SAPS   C35   91   3.615   4.841   6.173 -0.2400  0.3538  0.1575
    1SAPS   H5X   92   3.688   4.920   6.201 -0.5145 -0.1403  2.3867
    1SAPS   H5Y   93   3.517   4.892   6.183  0.9874  2.5448  1.7314
    1SAPS   C36   94   3.652   4.777   6.038  0.3155 -0.1500  0.0163
    1SAPS   H6X   95   3.577   4.696   6.027  1.4628 -1.4488  1.3644
    1SAPS   H6Y   96   3.754   4.733   6.036  0.7652  0.8987 -1.5021
    1SAPS   C37   97   3.637   4.877   5.923  0.6328  0.3466  0.3310
    1SAPS   H7X   98   3.716   4.955   5.925  0.0347  1.0173 -1.1369
    1SAPS   H7Y   99   3.539   4.928   5.932  0.1080 -0.4078 -0.8843
    1SAPS   C38  100   3.641   4.805   5.785 -0.8830  0.5909  0.7932
    1SAPS   H8X  101   3.571   4.719   5.779 -0.5687  0.3837 -0.2868
    1SAPS   H8Y  102   3.743   4.761   5.770 -2.0722 -1.8087 -0.9774
    1SAPS   C39  103   3.595   4.897   5.662  0.5501 -0.4679  0.1015
    1SAPS   H9X  104   3.683   4.958   5.631  1.0047 -1.1657  0.0026
    1SAPS   H9Y  105   3.506   4.958   5.689  0.4596  0.2292 -1.6461
    1SAPS  C310  106   3.548   4.816   5.542  0.0818  0.3556 -0.3885
    1SAPS  H10X  107   3.535   4.889   5.459  2.6595  1.6547  0.2579
    1SAPS  H10Y  108   3.457   4.757   5.565  0.3187 -0.7649 -2.1171
    1SAPS  C311  109   3.646   4.716   5.491 -0.2655  0.0016  0.4259
    1SAPS  H11X  110   3.671   4.635   5.563 -0.3409 -2.1006 -1.7439
    1SAPS  H11Y  111   3.748   4.747   5.462 -0.4276 -0.3518 -0.5791
    1SAPS  C312  112   3.598   4.633   5.374  0.5820 -0.5869  0.4216
    1SAPS  H12X  113   3.572   4.712   5.300 -2.9570 -0.5183  1.5679
    1SAPS  H12Y  114   3.502   4.579   5.387  0.5840 -0.1757  2.5570
    1SAPS  C313  115   3.711   4.536   5.331  0.3672  0.1014  0.3777
    1SAPS  H13X  116   3.671   4.452   5.271  0.8526 -0.0818  0.3103
    1SAPS  H13Y  117   3.742   4.476   5.419 -1.0787  0.4436  1.1537
    1SAPS  C314  118   3.824   4.598   5.249 -0.4399  0.4631 -0.3982
    1SAPS  H14X  119   3.901   4.520   5.231  0.4238  1.4343 -1.0773
    1SAPS  H14Y  120   3.886   4.676   5.299  0.3950 -0.5566  0.2114
    1SAPS  C315  121   3.769   4.650   5.119 -0.1491 -0.5196 -0.5515
    1SAPS  H15X  122   3.703   4.737   5.136 -1.4093 -1.2378 -1.6632
    1SAPS  H15Y  123   3.693   4.584   5.073 -0.3949 -1.0771  0.6104
    1SAPS  C316  124   3.874   4.685   5.013 -0.7692 -0.7592 -0.5614
    1SAPS  H16X  125   3.933   4.596   4.980  0.6791  0.2266 -0.7428
    1SAPS  H16Y  126   3.950   4.755   5.054  0.4579  0.1789 -4.0643
    1SAPS  C317  127   3.814   4.764   4.887  0.1208  0.9818 -0.2804
    1SAPS  H17X  128   3.772   4.858   4.928  1.6592  1.8604 -0.6352
    1SAPS  H17Y  129   3.728   4.704   4.851  0.6094 -0.7564  1.2742
    1SAPS  C318  130   3.899   4.794   4.760  0.5499 -0.1670 -0.3337
    1SAPS  H18X  131   3.828   4.837   4.687  1.7461 -0.5889 -1.7921
    1SAPS  H18Y  132   3.960   4.709   4.724  0.2080 -0.3269 -0.5374
    1SAPS  H18Z  133   3.966   4.876   4.795 -1.1729  1.0044  0.3913
    2SAPS     N  134   6.383   0.809   6.993 -0.6105  0.2239  0.2582
    2SAPS   HN1  135   6.312   0.794   6.918 -0.8496 -1.5580  0.7810
    2SAPS   HN2  136   6.341   0.866   7.069  0.6098 -0.0834  1.1923
    2SAPS   HN3  137   6.466   0.862   6.962 -1.3836  1.1381 -0.3082
    2SAPS   C12  138   6.410   0.662   7.043 -0.0112 -0.2752  0.5145
    2SAPS  H12A  139   6.457   0.615   6.958 -2.0468  0.1074 -0.9134
    2SAPS   C13  140   6.497   0.654   7.175  0.3808  0.6233  0.2180
    2SAPS  O13A  141   6.537   0.763   7.221  0.3382  0.4500  0.3293
    2SAPS  O13B  142   6.535   0.544   7.210 -0.7903 -0.2302 -0.1522
    2SAPS   C11  143   6.287   0.567   7.034  0.5611  0.0910 -0.0642
    2SAPS  H11A  144   6.312   0.462   7.061  0.6452 -0.1763 -1.1309
    2SAPS  H11B  145   6.247   0.554   6.931 -0.1941 -3.5190  0.5426
    2SAPS     P  146   6.036   0.592   7.098 -0.5183 -0.2017  0.1699
    2SAPS   O13  147   6.031   0.442   7.074 -0.4653 -0.1000  0.1992
    2SAPS   O14  148   5.958   0.646   7.212  0.4899  0.1652 -0.0088
    2SAPS   O12  149   6.190   0.623   7.125  0.4754 -0.0549 -0.3930
    2SAPS   O11  150   6.013   0.666   6.963  0.3314  0.5778  0.1217
    2SAPS    C1  151   5.901   0.634   6.884  0.2273  0.3958 -0.3978
    2SAPS    HA  152   5.813   0.614   6.948  1.4982 -0.8865  1.0342
    2SAPS    HB  153   5.876   0.728   6.829 -1.3954  1.2644  1.6887
    2SAPS    C2  154   5.923   0.528   6.766 -0.8989  0.0368 -0.0253
    2SAPS    HS  155   5.969   0.441   6.817 -0.4031  0.0191 -0.4927
    2SAPS   O21  156   6.004   0.587   6.657  0.2654 -1.1749 -0.6458
    2SAPS   C21  157   6.097   0.517   6.608  0.1536 -0.9606  0.0650
    2SAPS   O22  158   6.127   0.403   6.635  0.0978  0.3542  0.0855
    2SAPS   C22  159   6.169   0.599   6.498  0.3275  0.2335  0.1427
    2SAPS   H2R  160   6.086   0.639   6.437  0.4971  1.5690  0.7636
    2SAPS   H2S  161   6.221   0.691   6.532 -1.0436  1.0033  0.2118
    2SAPS    C3  162   5.795   0.477   6.704  1.1688 -0.2339 -0.4285
    2SAPS    HX  163   5.724   0.447   6.784 -0.5140  0.6133 -1.5514
    2SAPS    HY  164   5.816   0.383   6.649 -0.2486 -1.0887  0.4158
    2SAPS   O31  165   5.729   0.585   6.624  0.0866  0.0862 -1.0443
    2SAPS   C31  166   5.742   0.574   6.493 -0.5330  0.2029 -0.3611
    2SAPS   O32  167   5.812   0.490   6.438 -0.2932  0.1951 -0.5287
    2SAPS   C32  168   5.657   0.670   6.422 -0.0883 -0.3423  0.3372
    2SAPS   H2X  169   5.704   0.770   6.432  2.0993 -1.4080  1.2199
    2SAPS   H2Y  170   5.551   0.658   6.454 -0.5750  0.2469 -0.9933
    2SAPS   C23  171   6.254   0.504   6.410  0.0362  0.4975 -0.1276
    2SAPS   H3R  172   6.199   0.417   6.368  0.3067  0.4045 -0.2976
    2SAPS   H3S  173   6.340   0.459   6.464  1.0661  0.4884 -1.6762
    2SAPS   C24  174   6.320   0.585   6.293  0.0888  1.0472 -0.4666
    2SAPS   H4R  175   6.388   0.512   6.242  0.6993  0.1909  1.4730
    2SAPS   H4S  176   6.391   0.661   6.332  1.0983 -0.4641  0.7651
    2SAPS   C25  177   6.218   0.631   6.190  0.2198 -0.8127  0.1885
    2SAPS   H5R  178   6.155   0.718   6.213  0.5410 -0.6289  0.3885
    2SAPS   C26  179   6.205   0.591   6.059 -0.1459  0.1166 -0.1571
    2SAPS   H6R  180   6.119   0.628   6.002 -2.9794 -0.5544  3.3594
    2SAPS   C27  181   6.291   0.486   5.984 -0.0860  0.1416  0.4211
    2SAPS   H7R  182   6.231   0.394   5.965  1.0848 -0.1705 -2.0405
    2SAPS   H7S  183   6.375   0.452   6.049  0.3211 -0.9815 -0.6637
    2SAPS   C28  184   6.333   0.541   5.846 -0.1333 -0.0067 -0.7627
    2SAPS   H8R  185   6.428   0.597   5.839 -1.9031  3.3734 -0.2577
    2SAPS   C29  186   6.270   0.524   5.734  0.4864 -0.4109  0.4829
    2SAPS   H9R  187   6.300   0.581   5.645 -0.3582  1.8292  1.5664
    2SAPS  C210  188   6.132   0.460   5.723  0.2779 -0.0353  0.2486
    2SAPS  H10R  189   6.109   0.413   5.821 -0.3292 -0.3488 -0.0413
    2SAPS  H10S  190   6.138   0.372   5.655  0.1648  0.0516  0.1253
    2SAPS  C211  191   6.026   0.562   5.688  0.1753 -0.1984 -0.7053
    2SAPS  H11R  192   5.990   0.621   5.774  1.9710  0.8933 -0.6582
    2SAPS  C212  193   5.990   0.598   5.563  0.1433 -0.2081  0.7629
    2SAPS  H12R  194   5.912   0.675   5.554  0.6528  0.1104 -1.6438
    2SAPS  C213  195   6.039   0.541   5.426 -0.0759 -0.4591 -0.6266
    2SAPS  H13R  196   5.965   0.485   5.366  1.3024 -0.2720 -2.5939
    2SAPS  H13S  197   6.122   0.467   5.433  1.6928  1.6048  2.3567
    2SAPS  C214  198   6.078   0.659   5.336 -0.5769  0.4296  0.0700
    2SAPS  H14R  199   6.102   0.748   5.397 -0.5680 -0.4702  1.4277
    2SAPS  C215  200   6.071   0.662   5.201 -0.4087  0.2418  0.0117
    2SAPS  H15R  201   6.117   0.745   5.144 -2.4684  0.8273 -0.9398
    2SAPS  C216  202   6.036   0.550   5.109 -0.6477 -0.2296  0.2294
    2SAPS  H16R  203   6.057   0.451   5.155  0.8341  0.0843  0.2974
    2SAPS  H16S  204   6.098   0.556   5.017 -0.2642 -1.4457  0.3892
    2SAPS  C217  205   5.897   0.550   5.055  0.8970 -0.0140 -0.2674
    2SAPS  H17R  206   5.881   0.633   4.983  0.6913  0.3379  0.1796
    2SAPS  H17S  207   5.827   0.581   5.136  2.4284  1.3108  0.6088
    2SAPS  C218  208   5.855   0.413   5.000  0.1347 -0.4390  0.6431
    2SAPS  H18R  209   5.872   0.325   5.065  0.7774  1.0457  2.5899
    2SAPS  H18S  210   5.920   0.398   4.911  0.9697 -1.3657  1.3908
    2SAPS  C219  211   5.709   0.410   4.967 -0.5993  0.2962 -0.2809
    2SAPS  H19R  212   5.677   0.504   4.916 -0.2869 -0.0538 -1.1513
    2SAPS  H19S  213   5.651   0.411   5.061 -0.4131  0.9465 -0.1671
    2SAPS  C220  214   5.648   0.296   4.893 -0.5784 -0.1706 -0.0766
    2SAPS  H20R  215   5.647   0.202   4.951  1.4911 -0.8723 -1.0902
    2SAPS  H20S  216   5.682   0.272   4.790 -1.0380  0.4274 -0.3816
    2SAPS  H20T  217   5.539   0.320   4.891 -0.4021  1.4335  3.0014
    2SAPS   C33  218   5.678   0.640   6.270  0.2902  0.4529 -0.0675
    2SAPS   H3X  219   5.636   0.540   6.245  1.3361  0.0851 -0.4212
    2SAPS   H3Y  220   5.783   0.637   6.233  1.1486  1.5447  2.1278
    2SAPS   C34  221   5.594   0.740   6.195  0.5785 -0.0440  0.2333
    2SAPS   H4X  222   5.653   0.834   6.195 -2.2364  1.9317  3.0780
    2SAPS   H4Y  223   5.500   0.752   6.254  0.0841 -0.1220 -0.5262
    2SAPS   C35  224   5.569   0.701   6.048 -0.0596  0.2359  0.0687
    2SAPS   H5X  225   5.493   0.619   6.043  0.7069 -0.6696  2.0253
    2SAPS   H5Y  226   5.657   0.642   6.017  0.9056 -0.9076  4.2852
    2SAPS   C36  227   5.558   0.825   5.963  0.1996  0.3731 -0.5594
    2SAPS   H6X  228   5.655   0.879   5.973  1.7863 -2.0459 -1.7381
    2SAPS   H6Y  229   5.482   0.893   6.006 -0.8121 -0.8662 -0.3409
    2SAPS   C37  230   5.531   0.803   5.816 -0.3269  0.2265 -0.1070
    2SAPS   H7X  231   5.445   0.868   5.790  0.7161  1.5242 -0.4769
    2SAPS   H7Y  232   5.512   0.694   5.812  0.0222  0.0342  2.1084
    2SAPS   C38  233   5.652   0.829   5.722 -0.1196 -0.0233  0.5830
    2SAPS   H8X  234   5.741   0.768   5.748 -0.9363 -2.0010 -1.0115
    2SAPS   H8Y  235   5.673   0.938   5.731  0.5570 -0.0990  0.0059
    2SAPS   C39  236   5.608   0.799   5.576  0.2388  0.0987 -0.7453
    2SAPS   H9X  237   5.508   0.849   5.574  0.7042  1.0431 -1.1157
    2SAPS   H9Y  238   5.604   0.690   5.560  0.7529  0.2082 -1.6510
    2SAPS  C310  239   5.704   0.839   5.463 -0.3288 -0.2146  0.2966
    2SAPS  H10X  240   5.787   0.769   5.438 -0.5224 -1.2353  2.2551
    2SAPS  H10Y  241   5.748   0.931   5.506 -1.2387  0.8539 -0.9915
    2SAPS  C311  242   5.628   0.886   5.342 -0.7254  0.2784  0.6234
    2SAPS  H11X  243   5.538   0.937   5.382 -2.2331 -1.5776 -0.2570
    2SAPS  H11Y  244   5.596   0.803   5.276 -0.6134  0.6098  0.1493
    2SAPS  C312  245   5.712   0.982   5.253  0.2669 -0.1657 -0.3508
    2SAPS  H12X  246   5.748   1.059   5.325 -0.7809 -0.3201  0.3603
    2SAPS  H12Y  247   5.647   1.043   5.187  0.0935 -0.7011 -0.6807
    2SAPS  C313  248   5.844   0.927   5.202  0.1228 -1.4035  0.0901
    2SAPS  H13X  249   5.845   0.833   5.143  3.1515 -1.1249 -0.4971
    2SAPS  H13Y  250   5.911   0.912   5.290  0.6963 -3.4818 -0.6453
    2SAPS  C314  251   5.908   1.035   5.112  0.0667 -0.3693  0.0101
    2SAPS  H14X  252   5.916   1.132   5.166 -1.6236  1.3158 -2.5033
    2SAPS  H14Y  253   5.828   1.050   5.036 -1.6543  1.6367  2.0670
    2SAPS  C315  254   6.030   0.985   5.043  0.5281 -0.2434  0.3469
    2SAPS  H15X  255   6.010   0.886   4.996 -1.2296  0.1859  0.1208
    2SAPS  H15Y  256   6.121   0.980   5.106  2.5053  0.1330 -2.2902
    2SAPS  C316  257   6.081   1.083   4.935 -0.1500 -0.1623  0.1235
    2SAPS  H16X  258   6.088   1.183   4.983  2.4256 -0.4386  0.4831
    2SAPS  H16Y  259   5.999   1.082   4.861 -0.6709 -0.9621  0.7047
    2SAPS  C317  260   6.210   1.042   4.878 -0.0703 -0.3920 -0.6055
    2SAPS  H17X  261   6.289   1.066   4.953  0.7762 -1.3930 -1.1501
    2SAPS  H17Y  262   6.235   1.101   4.788 -0.4078  0.0242 -0.4316
    2SAPS  C318  263   6.213   0.899   4.822  0.0980  0.1415  0.3325
    2SAPS  H18X  264   6.141   0.834   4.875 -0.4560  0.6653  0.2238
    2SAPS  H18Y  265   6.312   0.849   4.832 -0.0679 -0.4961 -0.9635
    2SAPS  H18Z  266   6.189   0.893   4.713 -1.1865  3.9232  0.2780
    3SAPS     N  267   4.728   3.519   6.728 -0.1634 -0.9776  0.2423
    3SAPS   HN1  268   4.752   3.429   6.775 -0.4094 -0.2182  1.9026
    3SAPS   HN2  269   4.664   3.495   6.649 -1.8519 -0.7510  1.4914
    3SAPS   HN3  270   4.812   3.558   6.682 -2.0391  0.4802 -2.2311
    3SAPS   C12  271   4.661   3.609   6.817  0.1427 -0.6322 -0.1486
    3SAPS  H12A  272   4.563   3.567   6.827  0.6668 -1.2418  3.5757
    3SAPS   C13  273   4.713   3.628   6.956  0.3871  0.2144 -0.3695
    3SAPS  O13A  274   4.810   3.564   7.000  0.1556 -0.3638 -0.1480
    3SAPS  O13B  275   4.648   3.712   7.028  0.1747  0.4558  0.3024
    3SAPS   C11  276   4.663   3.751   6.746 -0.5642  0.4152 -0.0759
    3SAPS  H11A  277   4.604   3.813   6.817 -0.8250 -1.7723  1.7113
    3SAPS  H11B  278   4.601   3.735   6.655 -3.0501 -0.8843  1.7073
    3SAPS     P  279   4.822   3.921   6.628 -0.3357 -0.1682 -0.3045
    3SAPS   O13  280   4.702   4.014   6.619 -0.1170  0.3696  0.1153
    3SAPS   O14  281   4.954   3.986   6.651  0.4997 -0.2052  0.4994
    3SAPS   O12  282   4.794   3.804   6.724 -0.1261  0.5160  0.4005
    3SAPS   O11  283   4.814   3.857   6.486  0.0135  0.6088 -0.0796
    3SAPS    C1  284   4.849   3.719   6.463  0.0393 -0.4594 -0.0200
    3SAPS    HA  285   4.940   3.681   6.514 -0.8924 -1.5658  0.8608
    3SAPS    HB  286   4.770   3.650   6.498 -1.2511  0.3730 -1.1918
    3SAPS    C2  287   4.873   3.684   6.313 -0.3230 -0.5181 -1.2858
    3SAPS    HS  288   4.890   3.575   6.303 -1.4495 -0.6756 -1.6013
    3SAPS   O21  289   4.966   3.769   6.241 -0.0478  0.0515  0.1326
    3SAPS   C21  290   5.071   3.712   6.188  0.4020  0.4461  0.1607
    3SAPS   O22  291   5.084   3.590   6.175  0.4003 -0.8828 -0.6595
    3SAPS   C22  292   5.156   3.825   6.131  0.2660 -0.0118 -0.8463
    3SAPS   H2R  293   5.128   3.921   6.181 -2.5111 -1.3367  0.3784
    3SAPS   H2S  294   5.260   3.802   6.162  0.3602  0.7708 -0.5428
    3SAPS    C3  295   4.739   3.708   6.250  0.6744 -0.0780  0.2601
    3SAPS    HX  296   4.706   3.808   6.283  0.5082 -0.4184  1.1627
    3SAPS    HY  297   4.663   3.639   6.294  2.2188 -1.7858  0.3754
    3SAPS   O31  298   4.742   3.683   6.104 -0.3524 -0.4778 -0.0223
    3SAPS   C31  299   4.751   3.789   6.024  0.5534  0.3953  0.1318
    3SAPS   O32  300   4.742   3.901   6.063  0.2653  0.0838  0.6157
    3SAPS   C32  301   4.775   3.741   5.888  0.3325 -0.2773  0.7081
    3SAPS   H2X  302   4.695   3.667   5.867 -1.7122  2.1276 -0.5187
    3SAPS   H2Y  303   4.876   3.695   5.892  0.4217 -0.1926 -0.3205
    3SAPS   C23  304   5.145   3.847   5.974  0.5385  0.3874 -0.8468
    3SAPS   H3R  305   5.041   3.851   5.936  0.7525 -1.6925 -1.7606
    3SAPS   H3S  306   5.206   3.763   5.933  2.9776 -0.0418  3.0718
    3SAPS   C24  307   5.220   3.982   5.925 -0.3167  1.0688 -0.3293
    3SAPS   H4R  308   5.321   3.976   5.970 -0.7176 -0.2320  0.4372
    3SAPS   H4S  309   5.175   4.070   5.976 -1.3722  1.3190 -1.6259
    3SAPS   C25  310   5.233   3.996   5.773 -0.0198  0.1434  0.5185
    3SAPS   H5R  311   5.277   3.905   5.731 -1.6740  0.0556 -1.1502
    3SAPS   C26  312   5.203   4.100   5.687 -0.2906 -0.1798 -0.1742
    3SAPS   H6R  313   5.248   4.101   5.587 -0.3880  1.8689 -0.2490
    3SAPS   C27  314   5.114   4.213   5.718 -0.1701 -0.1461  0.2893
    3SAPS   H7R  315   5.109   4.233   5.827  1.4123  4.4014 -0.2683
    3SAPS   H7S  316   5.012   4.169   5.709  0.3614 -1.6610  1.3192
    3SAPS   C28  317   5.136   4.346   5.638 -1.0106 -0.0681 -0.2255
    3SAPS   H8R  318   5.207   4.420   5.679 -0.2156 -0.3931 -0.9911
    3SAPS   C29  319   5.095   4.370   5.515 -0.1879  0.0111 -0.9125
    3SAPS   H9R  320   5.122   4.466   5.470 -1.4872  0.8094 -0.0464
    3SAPS  C210  321   5.014   4.274   5.433 -0.3262  0.6281 -0.0539
    3SAPS  H10R  322   5.012   4.174   5.482  0.7919 -0.1376 -1.4964
    3SAPS  H10S  323   5.067   4.250   5.338  0.0780 -1.6365  0.6747
    3SAPS  C211  324   4.873   4.310   5.387 -0.5811 -0.1446 -0.3464
    3SAPS  H11R  325   4.786   4.261   5.432 -0.6814 -1.1591 -1.5854
    3SAPS  C212  326   4.843   4.401   5.292 -0.6578  0.0694  0.6475
    3SAPS  H12R  327   4.738   4.414   5.262 -0.7165 -1.5318  0.0783
    3SAPS  C213  328   4.936   4.483   5.203  0.2379 -0.2764  0.1285
    3SAPS  H13R  329   4.950   4.417   5.115 -1.0036  0.6187 -0.7695
    3SAPS  H13S  330   5.037   4.497   5.248 -0.4290  1.3089  1.2341
    3SAPS  C214  331   4.882   4.609   5.157  0.3977  0.2899 -0.3699
    3SAPS  H14R  332   4.895   4.695   5.224  0.1529  1.6654 -2.0191
    3SAPS  C215  333   4.800   4.625   5.051  0.2765 -0.3737  0.8677
    3SAPS  H15R  334   4.764   4.726   5.027 -1.7121 -1.4517 -1.0620
    3SAPS  C216  335   4.763   4.506   4.959  0.6549 -0.4849  0.0711
    3SAPS  H16R  336   4.655   4.503   4.934  0.0551 -1.0767  2.4203
    3SAPS  H16S  337   4.778   4.410   5.014 -0.0908 -0.7704 -0.2209
    3SAPS  C217  338   4.844   4.501   4.828  0.0372 -0.0208  0.6062
    3SAPS  H17R  339   4.801   4.421   4.764  0.5291 -0.9404  1.3979
    3SAPS  H17S  340   4.953   4.491   4.846 -0.0271  2.0321  2.5715
    3SAPS  C218  341   4.827   4.630   4.748 -0.7760 -0.1946  0.5464
    3SAPS  H18R  342   4.903   4.706   4.777 -1.1414  0.8635 -1.1491
    3SAPS  H18S  343   4.727   4.675   4.768 -0.2836  0.6037  1.3401
    3SAPS  C219  344   4.846   4.608   4.598  0.4464  0.0869  0.8965
    3SAPS  H19R  345   4.786   4.523   4.557 -0.3670  1.6807 -1.4709
    3SAPS  H19S  346   4.803   4.701   4.555 -2.3447 -1.6760 -0.4289
    3SAPS  C220  347   4.991   4.593   4.557  0.1186  0.4230  0.7923
    3SAPS  H20R  348   5.028   4.498   4.600  0.6395  0.9030  1.4315
    3SAPS  H20S  349   5.056   4.676   4.591 -0.1567  1.2638 -0.6228
    3SAPS  H20T  350   4.989   4.582   4.446 -1.2539  0.4576  0.7892
    3SAPS   C33  351   4.788   3.856   5.784 -0.2837  0.1425  0.7851
    3SAPS   H3X  352   4.842   3.945   5.821  0.2705  2.2673 -4.3742
    3SAPS   H3Y  353   4.687   3.896   5.760  0.2111 -0.2447 -2.2933
    3SAPS   C34  354   4.853   3.788   5.653  0.3423 -0.6277 -0.0235
    3SAPS   H4X  355   4.776   3.719   5.612 -0.7485  0.4712  0.1075
    3SAPS   H4Y  356   4.944   3.730   5.679  0.4596 -1.1695 -1.5696
    3SAPS   C35  357   4.894   3.878   5.536 -0.4699 -0.2000 -0.3137
    3SAPS   H5X  358   4.826   3.965   5.527 -0.5284  0.1086  2.2690
    3SAPS   H5Y  359   4.995   3.919   5.556  0.2571 -1.7752 -0.6401
    3SAPS   C36  360   4.914   3.798   5.409  0.2011  0.0371  0.1957
    3SAPS   H6X  361   4.819   3.761   5.365  0.4324 -0.1504 -0.1534
    3SAPS   H6Y  362   4.992   3.719   5.418 -1.0470 -1.1808  0.5922
    3SAPS   C37  363   4.978   3.885   5.299 -0.2939  0.6539 -0.2113
    3SAPS   H7X  364   5.077   3.924   5.331 -0.5128  0.7568  0.3556
    3SAPS   H7Y  365   4.920   3.975   5.270 -0.3681 -0.0312 -2.3577
    3SAPS   C38  366   4.998   3.795   5.173 -0.2034 -0.0935 -0.6047
    3SAPS   H8X  367   4.894   3.765   5.147 -1.2667  1.2096  1.7954
    3SAPS   H8Y  368   5.050   3.699   5.192 -3.0950 -2.1444 -2.2878
    3SAPS   C39  369   5.053   3.867   5.048 -0.0955 -0.0729 -0.0600
    3SAPS   H9X  370   5.158   3.902   5.053 -0.3308  0.5756  0.5867
    3SAPS   H9Y  371   4.982   3.950   5.028 -0.8018 -0.9179 -1.1994
    3SAPS  C310  372   5.039   3.771   4.926 -0.6689 -0.3662  0.5703
    3SAPS  H10X  373   4.933   3.738   4.921 -1.6741  2.6179  0.3847
    3SAPS  H10Y  374   5.099   3.679   4.943  0.1901 -0.3461 -1.9165
    3SAPS  C311  375   5.092   3.833   4.796  0.0280  0.7967  0.4011
    3SAPS  H11X  376   5.181   3.895   4.819  1.3097 -1.1082  0.7963
    3SAPS  H11Y  377   5.012   3.889   4.743 -0.2123  3.4922  3.2982
    3SAPS  C312  378   5.155   3.734   4.695  0.9963  0.1026  1.1593
    3SAPS  H12X  379   5.075   3.673   4.647  0.4907  1.6449 -0.0602
    3SAPS  H12Y  380   5.210   3.658   4.755  0.0813  0.4511  2.4532
    3SAPS  C313  381   5.248   3.791   4.597 -0.7060 -0.1907  0.1205
    3SAPS  H13X  382   5.327   3.849   4.649 -0.3828 -0.5760  0.0650
    3SAPS  H13Y  383   5.202   3.861   4.524 -0.3213 -2.1589 -2.1500
    3SAPS  C314  384   5.334   3.687   4.516  0.0960  0.4321 -0.2312
    3SAPS  H14X  385   5.270   3.610   4.467 -1.0690  0.7001  0.8421
    3SAPS  H14Y  386   5.391   3.640   4.599  0.4230  0.9849 -0.1407
    3SAPS  C315  387   5.425   3.760   4.414 -0.2517  0.8763  0.3591
    3SAPS  H15X  388   5.489   3.839   4.458  0.4101  1.1689 -1.0956
    3SAPS  H15Y  389   5.358   3.796   4.334 -0.4402  0.0530  0.1328
    3SAPS  C316  390   5.521   3.656   4.358  0.1795  0.5056  0.0839
    3SAPS  H16X  391   5.477   3.554   4.362  1.0935  0.1174  0.6414
    3SAPS  H16Y  392   5.612   3.634   4.417  1.8514 -0.0997 -2.5391
    3SAPS  C317  393   5.568   3.662   4.211  0.2288  0.0082 -0.5744
    3SAPS  H17X  394   5.481   3.649   4.144 -0.1033  0.4150 -0.2307
    3SAPS  H17Y  395   5.645   3.590   4.176  2.0511  2.2987 -1.5598
    3SAPS  C318  396   5.642   3.795   4.176  0.3130 -0.5395 -0.1094
    3SAPS  H18X  397   5.667   3.796   4.068  0.9206 -0.3345  0.0256
    3SAPS  H18Y  398   5.736   3.798   4.236 -0.7813 -1.2047  1.7367
    3SAPS  H18Z  399   5.576   3.883   4.192  0.5275 -0.0843 -1.5702
    4SAPS     N  400   2.100   3.211   7.045 -0.4809  0.3908  0.7057
    4SAPS   HN1  401   2.010   3.196   7.095 -3.1457  2.0055 -3.1122
    4SAPS   HN2  402   2.075   3.264   6.959  2.9323 -0.5006 -1.0133
    4SAPS   HN3  403   2.127   3.117   7.010  0.7050 -0.5713  3.8154
    4SAPS   C12  404   2.212   3.270   7.130 -0.5090 -0.0675 -0.1213
    4SAPS  H12A  405   2.176   3.354   7.186  4.1155  0.9829  1.7492
    4SAPS   C13  406   2.268   3.172   7.231 -0.3313  0.8199 -0.3323
    4SAPS  O13A  407   2.214   3.056   7.252  0.5321 -0.0048 -0.2618
    4SAPS  O13B  408   2.356   3.218   7.314  0.6913 -0.0251  0.2892
    4SAPS   C11  409   2.326   3.330   7.042  0.1593  1.1128 -0.2799
    4SAPS  H11A  410   2.366   3.251   6.976 -2.0729 -0.7335  0.4418
    4SAPS  H11B  411   2.401   3.357   7.119  0.3827  1.4741 -0.6185
    4SAPS     P  412   2.373   3.519   6.867  0.0126 -0.1965  0.6620
    4SAPS   O13  413   2.281   3.614   6.809  0.0429  0.4023  0.1508
    4SAPS   O14  414   2.491   3.581   6.924 -0.7938  0.1877  0.0160
    4SAPS   O12  415   2.283   3.448   6.979 -0.6677  0.3141  0.5367
    4SAPS   O11  416   2.406   3.401   6.763 -0.1255  0.0781 -1.1073
    4SAPS    C1  417   2.295   3.338   6.695 -0.3337  0.1455  0.0588
    4SAPS    HA  418   2.292   3.236   6.738  1.7007 -0.4499 -1.1180
    4SAPS    HB  419   2.197   3.389   6.710 -0.0166  0.9427 -0.4893
    4SAPS    C2  420   2.320   3.323   6.542  0.2718  0.5500 -0.7084
    4SAPS    HS  421   2.260   3.234   6.512 -0.1308  0.5556  0.0692
    4SAPS   O21  422   2.461   3.313   6.498  0.5655 -0.1274 -0.2545
    4SAPS   C21  423   2.503   3.189   6.478 -0.2917  0.4769  0.1738
    4SAPS   O22  424   2.443   3.085   6.511  0.3778 -1.1358 -0.2140
    4SAPS   C22  425   2.642   3.198   6.403  0.1351  1.2904  0.2355
    4SAPS   H2R  426   2.685   3.295   6.433 -0.6696  1.9560 -0.7017
    4SAPS   H2S  427   2.701   3.112   6.443 -0.6558  0.0173 -1.2016
    4SAPS    C3  428   2.256   3.444   6.470 -0.2486 -0.1418  0.4815
    4SAPS    HX  429   2.320   3.531   6.497  1.1807 -1.6439  2.1722
    4SAPS    HY  430   2.150   3.458   6.499 -0.0319  0.8331  0.8240
    4SAPS   O31  431   2.254   3.434   6.319  0.1240  0.5186 -0.2715
    4SAPS   C31  432   2.203   3.542   6.260  0.6772 -0.2993 -0.0552
    4SAPS   O32  433   2.166   3.647   6.315  0.1282 -0.6595  0.1277
    4SAPS   C32  434   2.173   3.511   6.117  0.3431  0.6871  0.0888
    4SAPS   H2X  435   2.084   3.443   6.112 -0.2628  1.5529 -2.4567
    4SAPS   H2Y  436   2.263   3.466   6.070  2.5126  3.1674  1.6215
    4SAPS   C23  437   2.628   3.181   6.251  0.3953 -0.7983 -0.6713
    4SAPS   H3R  438   2.578   3.088   6.216 -0.9423 -1.0201  1.6383
    4SAPS   H3S  439   2.732   3.171   6.214  1.5077 -0.5340  2.1550
    4SAPS   C24  440   2.558   3.307   6.184  0.2413  0.6430  0.2483
    4SAPS   H4R  441   2.460   3.326   6.232 -0.5510 -0.6324 -0.8121
    4SAPS   H4S  442   2.531   3.275   6.082 -0.2774  0.4491  0.4429
    4SAPS   C25  443   2.637   3.429   6.197  0.0174  0.0580 -0.4257
    4SAPS   H5R  444   2.662   3.456   6.300 -0.6940 -0.7997 -0.0226
    4SAPS   C26  445   2.697   3.490   6.097 -0.0200  0.5812  0.1838
    4SAPS   H6R  446   2.741   3.588   6.116  1.4157  0.2535 -1.2082
    4SAPS   C27  447   2.690   3.467   5.944  0.9962  0.6925  0.1674
    4SAPS   H7R  448   2.739   3.374   5.911  0.5179  0.3576  0.3908
    4SAPS   H7S  449   2.761   3.538   5.897  3.3311 -1.3999  0.3509
    4SAPS   C28  450   2.558   3.481   5.873 -0.6737  0.0854  0.6376
    4SAPS   H8R  451   2.469   3.497   5.936 -1.1069 -1.6895  0.5403
    4SAPS   C29  452   2.543   3.465   5.740  0.3603  0.6436  0.2769
    4SAPS   H9R  453   2.440   3.470   5.701 -1.0536 -0.4970  3.4704
    4SAPS  C210  454   2.641   3.429   5.636 -0.5482 -0.2438  0.0437
    4SAPS  H10R  455   2.595   3.345   5.580  0.3471 -0.7833  0.0973
    4SAPS  H10S  456   2.742   3.395   5.668 -0.9992 -1.9262 -0.2145
    4SAPS  C211  457   2.673   3.549   5.557 -0.6632  0.0128  0.2365
    4SAPS  H11R  458   2.675   3.644   5.613 -1.4010  0.0261  0.2477
    4SAPS  C212  459   2.694   3.560   5.424  0.4822  0.0540 -0.3310
    4SAPS  H12R  460   2.722   3.659   5.383  2.9221  0.1236  1.2785
    4SAPS  C213  461   2.678   3.451   5.315  0.6176 -0.0390 -0.6485
    4SAPS  H13R  462   2.594   3.476   5.247  0.1262 -0.8032 -0.3377
    4SAPS  H13S  463   2.661   3.354   5.367 -0.2314  0.6620  0.4188
    4SAPS  C214  464   2.805   3.447   5.239  0.2232 -1.2471  0.6673
    4SAPS  H14R  465   2.887   3.390   5.285  1.0253 -1.3534 -0.8686
    4SAPS  C215  466   2.818   3.486   5.106 -0.3402  0.4090  0.1378
    4SAPS  H15R  467   2.918   3.476   5.060 -0.7307  2.4091 -1.2842
    4SAPS  C216  468   2.712   3.553   5.016  0.4380  0.6662  0.0483
    4SAPS  H16R  469   2.747   3.655   4.991  3.3116  0.1402  1.4491
    4SAPS  H16S  470   2.606   3.546   5.047  0.7829  0.2902  1.1943
    4SAPS  C217  471   2.731   3.498   4.867 -0.4769  0.3878 -1.2244
    4SAPS  H17R  472   2.697   3.392   4.864 -1.0412  0.4774  0.6410
    4SAPS  H17S  473   2.836   3.506   4.832 -0.2952  1.4439 -0.4790
    4SAPS  C218  474   2.648   3.581   4.768  0.0676  0.0742 -0.4999
    4SAPS  H18R  475   2.667   3.690   4.778 -2.1602  0.3418  1.9053
    4SAPS  H18S  476   2.541   3.566   4.792  0.2329  2.1908  2.0197
    4SAPS  C219  477   2.657   3.548   4.619 -0.3906  0.1485  0.2927
    4SAPS  H19R  478   2.589   3.461   4.606 -2.0164  1.4711 -0.3754
    4SAPS  H19S  479   2.761   3.527   4.587 -0.2640  1.2110 -0.0231
    4SAPS  C220  480   2.625   3.667   4.527  0.1054  0.6751  0.1269
    4SAPS  H20R  481   2.643   3.647   4.419  0.9425  1.5175  0.0934
    4SAPS  H20S  482   2.680   3.761   4.549  0.2622  0.5510  0.2652
    4SAPS  H20T  483   2.519   3.694   4.546 -0.7478 -2.8645  0.9814
    4SAPS   C33  484   2.139   3.631   6.033  0.1138  0.1719  0.3465
    4SAPS   H3X  485   2.222   3.705   6.034 -1.1648  1.6912 -0.2637
    4SAPS   H3Y  486   2.050   3.684   6.075  0.0340  1.9143 -1.8346
    4SAPS   C34  487   2.116   3.592   5.880  0.1355  0.0583 -0.5321
    4SAPS   H4X  488   2.041   3.512   5.860  0.8386 -1.0555  1.0651
    4SAPS   H4Y  489   2.207   3.552   5.832 -0.2921 -2.1388  0.3771
    4SAPS   C35  490   2.052   3.710   5.784 -0.4188 -0.2875 -0.6006
    4SAPS   H5X  491   2.117   3.800   5.795  0.9756 -1.5378  2.8827
    4SAPS   H5Y  492   1.945   3.736   5.794 -1.0983 -2.5249 -1.5803
    4SAPS   C36  493   2.070   3.648   5.639  0.0281 -0.2587 -0.6045
    4SAPS   H6X  494   2.021   3.548   5.635  1.1023 -0.7938 -0.6506
    4SAPS   H6Y  495   2.178   3.626   5.629 -0.1458 -1.2995 -0.3700
    4SAPS   C37  496   2.022   3.736   5.524 -0.4346 -0.1647  0.3199
    4SAPS   H7X  497   2.076   3.833   5.527 -0.8495  0.0505  1.0453
    4SAPS   H7Y  498   1.914   3.752   5.543 -0.0102  0.8401  2.0689
    4SAPS   C38  499   2.057   3.678   5.385 -0.2733 -0.3218  0.6029
    4SAPS   H8X  500   2.006   3.579   5.374 -1.8730  0.6329 -1.2566
    4SAPS   H8Y  501   2.166   3.660   5.370 -0.6405 -2.2848 -0.0849
    4SAPS   C39  502   2.002   3.772   5.271 -0.2228 -0.0493 -0.2144
    4SAPS   H9X  503   2.051   3.871   5.275 -1.1416  0.4550 -0.9781
    4SAPS   H9Y  504   1.895   3.791   5.291  0.2314  0.3626  2.0533
    4SAPS  C310  505   2.022   3.708   5.134 -0.1613 -0.0466  0.5172
    4SAPS  H10X  506   1.977   3.608   5.116  1.5763 -1.1072  1.7994
    4SAPS  H10Y  507   2.131   3.717   5.112 -0.2679  1.1868  0.4186
    4SAPS  C311  508   1.973   3.801   5.016  0.6278  0.1819  0.1802
    4SAPS  H11X  509   2.011   3.905   5.013 -0.2267  0.5176 -3.0077
    4SAPS  H11Y  510   1.867   3.820   5.046  0.7994  2.0774 -0.2770
    4SAPS  C312  511   1.990   3.729   4.877  0.4558 -0.0034 -0.3129
    4SAPS  H12X  512   1.931   3.783   4.800  0.6871 -0.1504 -0.5951
    4SAPS  H12Y  513   1.949   3.626   4.883  0.8953 -0.3393 -2.4801
    4SAPS  C313  514   2.134   3.725   4.827  0.1641 -0.7753  0.1986
    4SAPS  H13X  515   2.202   3.666   4.891 -0.9119 -1.0505  1.1150
    4SAPS  H13Y  516   2.169   3.831   4.827  1.9845 -1.3360 -0.0666
    4SAPS  C314  517   2.136   3.678   4.683 -0.2358  0.1055 -0.2667
    4SAPS  H14X  518   2.231   3.714   4.638  0.0117 -1.2963 -0.9368
    4SAPS  H14Y  519   2.054   3.730   4.630 -0.0312  0.3014 -0.3940
    4SAPS  C315  520   2.129   3.528   4.671 -0.2573  0.2177 -0.2232
    4SAPS  H15X  521   2.030   3.493   4.707  0.3874 -0.8058  0.5998
    4SAPS  H15Y  522   2.208   3.469   4.722 -0.2958  0.0795 -0.3205
    4SAPS  C316  523   2.144   3.480   4.524  0.1911  0.0627  0.0047
    4SAPS  H16X  524   2.114   3.373   4.528  0.3706 -0.0052 -0.4608
    4SAPS  H16Y  525   2.251   3.490   4.497 -0.0404  3.6795 -0.0122
    4SAPS  C317  526   2.054   3.551   4.424 -0.3073 -0.0335  0.7705
    4SAPS  H17X  527   2.083   3.657   4.408 -1.1982  0.0959 -0.1501
    4SAPS  H17Y  528   1.951   3.551   4.466 -0.2239 -2.4379  1.1204
    4SAPS  C318  529   2.046   3.487   4.286  0.5469 -0.3407  0.3314
    4SAPS  H18X  530   2.007   3.383   4.294  0.7923 -0.6363 -1.7201
    4SAPS  H18Y  531   2.138   3.499   4.225 -0.3914  2.0558 -0.7434
    4SAPS  H18Z  532   1.971   3.539   4.222  0.8716  0.0108  0.2366
    5SAPS     N  533   0.550   4.471   6.915  0.4239  0.3176 -0.0811
    5SAPS   HN1  534   0.608   4.515   6.989  2.6236  0.4140 -1.7496
    5SAPS   HN2  535   0.602   4.384   6.890  2.2474  1.6866 -1.2740
    5SAPS   HN3  536   0.554   4.529   6.829  1.8528  0.3681 -0.0039
    5SAPS   C12  537   0.407   4.445   6.955  0.5944 -0.2908  0.6954
    5SAPS  H12A  538   0.369   4.382   6.875 -0.3858 -0.4025  1.2384
    5SAPS   C13  539   0.376   4.366   7.078  0.1712 -0.4814 -0.5185
    5SAPS  O13A  540   0.467   4.341   7.165  0.3439  0.3931  0.0892
    5SAPS  O13B  541   0.257   4.347   7.104  0.4410 -0.3123  0.0011
    5SAPS   C11  542   0.330   4.574   6.958  0.1531 -0.2134  0.2873
    5SAPS  H11A  543   0.356   4.631   7.050 -2.1942  0.0110  0.8807
    5SAPS  H11B  544   0.222   4.551   6.965  0.7344 -3.1965  0.9437
    5SAPS     P  545   0.332   4.805   6.815 -0.0081 -0.2350 -0.3999
    5SAPS   O13  546   0.312   4.874   6.948 -0.0845  0.2857 -0.1838
    5SAPS   O14  547   0.439   4.856   6.723 -0.4873 -0.2728 -0.4412
    5SAPS   O12  548   0.349   4.651   6.837  0.8516  0.6356 -0.0896
    5SAPS   O11  549   0.196   4.818   6.746  0.3475 -0.2584  0.7278
    5SAPS    C1  550   0.133   4.701   6.687 -0.6390  0.4636 -0.4332
    5SAPS    HA  551   0.128   4.615   6.758  2.0274 -0.3510 -1.1404
    5SAPS    HB  552   0.030   4.728   6.653 -0.0605 -1.0243 -3.7887
    5SAPS    C2  553   0.199   4.651   6.555 -0.5276  0.1361  0.6133
    5SAPS    HS  554   0.280   4.581   6.583 -0.0286  0.9192  1.1655
    5SAPS   O21  555   0.250   4.761   6.482  0.0932 -0.4265  0.4524
    5SAPS   C21  556   0.343   4.733   6.386 -0.1646  0.0856 -0.6435
    5SAPS   O22  557   0.399   4.628   6.377  0.0849  0.0186 -0.2018
    5SAPS   C22  558   0.375   4.859   6.307 -1.1042 -0.3848  0.2668
    5SAPS   H2R  559   0.348   4.835   6.202 -2.0900 -1.0573  0.6579
    5SAPS   H2S  560   0.314   4.945   6.342 -0.1901  0.4658 -0.1922
    5SAPS    C3  561   0.109   4.557   6.465  0.0827  0.0995 -0.1341
    5SAPS    HX  562   0.070   4.485   6.540 -1.7887  0.4322 -0.7436
    5SAPS    HY  563   0.178   4.503   6.397  0.5696  3.1492 -2.2656
    5SAPS   O31  564   0.009   4.631   6.388 -0.2038  0.9013  0.2163
    5SAPS   C31  565   0.050   4.665   6.256 -0.8206  0.0119 -0.7012
    5SAPS   O32  566   0.149   4.619   6.203  0.4280 -0.5254 -0.2855
    5SAPS   C32  567  -0.038   4.761   6.197  0.5170  0.6738 -0.5173
    5SAPS   H2X  568  -0.092   4.814   6.278 -0.3850 -0.7104 -0.1778
    5SAPS   H2Y  569  -0.116   4.714   6.133  0.0888 -0.0681  0.5379
    5SAPS   C23  570   0.526   4.892   6.296 -0.3830  0.2657 -0.0778
    5SAPS   H3R  571   0.581   4.797   6.281  0.7338  0.9335 -0.3554
    5SAPS   H3S  572   0.554   4.936   6.394 -1.1839  1.3246 -0.3076
    5SAPS   C24  573   0.560   4.980   6.172 -0.2267 -0.0965  0.0050
    5SAPS   H4R  574   0.536   4.908   6.091 -1.9124  1.9970 -1.4711
    5SAPS   H4S  575   0.667   5.004   6.186 -0.1561  0.5457 -1.4792
    5SAPS   C25  576   0.479   5.107   6.158 -0.2756 -0.5124  0.2977
    5SAPS   H5R  577   0.483   5.167   6.250  1.0161 -2.3784  1.5267
    5SAPS   C26  578   0.420   5.149   6.041  0.0355  0.0552  0.1580
    5SAPS   H6R  579   0.365   5.244   6.040 -0.1492 -0.0524  0.0307
    5SAPS   C27  580   0.413   5.088   5.904  0.2598  0.0510  0.1540
    5SAPS   H7R  581   0.328   5.130   5.846  0.3229 -1.2709 -0.9490
    5SAPS   H7S  582   0.399   4.978   5.915  0.1803 -0.2819 -2.5628
    5SAPS   C28  583   0.537   5.101   5.820 -0.1216  0.7417  0.2098
    5SAPS   H8R  584   0.623   5.154   5.862  0.9559 -1.2376  0.6466
    5SAPS   C29  585   0.537   5.049   5.697 -0.5653 -0.6574  0.1448
    5SAPS   H9R  586   0.621   5.059   5.626 -1.9183 -2.2302 -1.7945
    5SAPS  C210  587   0.420   4.977   5.634  1.1214  0.3009 -0.1004
    5SAPS  H10R  588   0.342   4.950   5.709  0.4588 -0.1838 -0.9425
    5SAPS  H10S  589   0.464   4.883   5.593  0.6336  0.2469 -0.5031
    5SAPS  C211  590   0.365   5.070   5.533 -0.0718  0.7710  0.7165
    5SAPS  H11R  591   0.336   5.168   5.574 -0.0342  1.7330 -1.4404
    5SAPS  C212  592   0.356   5.047   5.396 -0.5057  0.5412  0.8788
    5SAPS  H12R  593   0.313   5.124   5.331 -1.8249  0.6470  1.8241
    5SAPS  C213  594   0.405   4.915   5.332  0.6475  0.2585  0.8694
    5SAPS  H13R  595   0.320   4.844   5.327  1.9709 -1.3268 -0.6674
    5SAPS  H13S  596   0.479   4.869   5.402  0.7092  0.2945  0.8281
    5SAPS  C214  597   0.463   4.917   5.197 -0.5223  0.7749  0.3284
    5SAPS  H14R  598   0.572   4.907   5.195 -0.4002  0.7020  3.3959
    5SAPS  C215  599   0.395   4.938   5.081  0.5880  0.8189  0.1912
    5SAPS  H15R  600   0.451   4.931   4.987 -0.4661  1.6721 -0.5316
    5SAPS  C216  601   0.246   4.941   5.058 -0.6764  0.8202 -0.1433
    5SAPS  H16R  602   0.199   5.024   5.115 -0.4961 -0.0680  1.3724
    5SAPS  H16S  603   0.196   4.848   5.095 -0.1891 -0.1392 -1.8011
    5SAPS  C217  604   0.203   4.932   4.913  0.4671 -0.1539 -0.1728
    5SAPS  H17R  605   0.096   4.903   4.906  0.5578 -0.3937 -0.6360
    5SAPS  H17S  606   0.266   4.853   4.867  0.7418 -0.9683  1.5356
    5SAPS  C218  607   0.222   5.064   4.836 -0.3484  0.0383 -0.0931
    5SAPS  H18R  608   0.326   5.096   4.813 -0.4926  1.3415  0.9602
    5SAPS  H18S  609   0.177   5.135   4.908 -3.2055 -2.8434  1.2610
    5SAPS  C219  610   0.141   5.066   4.704  0.3764  0.7278 -0.8274
    5SAPS  H19R  611   0.040   5.041   4.744  0.2637  1.4921 -0.6076
    5SAPS  H19S  612   0.190   4.986   4.646 -0.3669 -1.8064  1.7905
    5SAPS  C220  613   0.131   5.213   4.643  0.1100  0.4814 -0.4845
    5SAPS  H20R  614   0.232   5.238   4.604  0.3297  1.1471  0.4719
    5SAPS  H20S  615   0.097   5.286   4.719 -0.2536 -0.0098 -0.1729
    5SAPS  H20T  616   0.052   5.217   4.565 -0.6449  3.7088  0.2899
    5SAPS   C33  617   0.021   4.877   6.113  0.3825 -0.3372 -0.5838
    5SAPS   H3X  618   0.093   4.926   6.182  0.7528 -3.2602  1.2685
    5SAPS   H3Y  619  -0.065   4.947   6.105 -0.5966 -1.4848 -0.4749
    5SAPS   C34  620   0.081   4.842   5.971  0.4408  0.0774  0.1012
    5SAPS   H4X  621   0.175   4.786   5.990  0.7455  0.8521  0.9928
    5SAPS   H4Y  622   0.108   4.937   5.921 -0.5648 -0.4592 -1.5651
    5SAPS   C35  623  -0.034   4.778   5.885 -0.4414  0.1868 -0.2593
    5SAPS   H5X  624  -0.127   4.836   5.899 -0.7580  0.2058 -2.1830
    5SAPS   H5Y  625  -0.046   4.670   5.905 -0.1067  0.0710 -0.6641
    5SAPS   C36  626  -0.000   4.774   5.733 -0.0286 -0.1597 -0.0596
    5SAPS   H6X  627  -0.081   4.719   5.682  0.4107 -1.4751  0.6322
    5SAPS   H6Y  628   0.093   4.714   5.731  0.4030  0.5112 -0.8900
    5SAPS   C37  629   0.025   4.908   5.662  0.1041 -0.0884 -0.0969
    5SAPS   H7X  630   0.099   4.970   5.716 -2.2176  2.3871  0.4742
    5SAPS   H7Y  631  -0.065   4.972   5.675  0.6958  1.1984 -1.9064
    5SAPS   C38  632   0.045   4.889   5.511 -0.3345  0.0572  0.0456
    5SAPS   H8X  633   0.132   4.829   5.477 -1.6796 -1.5502 -0.7233
    5SAPS   H8Y  634   0.063   4.986   5.461  0.5552  1.1600  2.3537
    5SAPS   C39  635  -0.066   4.827   5.425 -0.5583  0.5940  0.2119
    5SAPS   H9X  636  -0.166   4.866   5.454 -0.2938  1.0554  0.5215
    5SAPS   H9Y  637  -0.066   4.716   5.435 -1.9409  0.2510 -2.8111
    5SAPS  C310  638  -0.050   4.832   5.268  0.1111  0.1848 -0.3588
    5SAPS  H10X  639   0.048   4.792   5.235  1.3369  0.2580  2.8334
    5SAPS  H10Y  640  -0.050   4.939   5.239  0.6870  0.6257  1.1470
    5SAPS  C311  641  -0.158   4.765   5.182  0.5519 -0.8154  0.0132
    5SAPS  H11X  642  -0.246   4.743   5.246  0.5984 -1.0140  0.0093
    5SAPS  H11Y  643  -0.119   4.667   5.148  2.5470  0.1241 -0.5704
    5SAPS  C312  644  -0.214   4.857   5.072 -0.0190 -0.1729 -0.5484
    5SAPS  H12X  645  -0.135   4.870   4.995  1.1608 -1.7518  0.3315
    5SAPS  H12Y  646  -0.232   4.961   5.108 -0.3203  0.1272 -1.5368
    5SAPS  C313  647  -0.345   4.793   5.012  0.1890 -0.2674 -0.2311
    5SAPS  H13X  648  -0.424   4.793   5.090  1.1165 -1.6828  0.7666
    5SAPS  H13Y  649  -0.336   4.683   5.005 -0.2647 -0.4069  1.0720
    5SAPS  C314  650  -0.385   4.862   4.885 -0.2257  0.1966 -0.9256
    5SAPS  H14X  651  -0.406   4.963   4.926  3.2615  0.8742 -0.5135
    5SAPS  H14Y  652  -0.480   4.814   4.852  0.0082  0.3203 -1.7957
    5SAPS  C315  653  -0.280   4.863   4.777 -0.2523 -0.0612  0.4141
    5SAPS  H15X  654  -0.255   4.757   4.758 -0.6137 -0.3324  1.3776
    5SAPS  H15Y  655  -0.186   4.910   4.814  0.1231  0.1518 -0.7644
    5SAPS  C316  656  -0.325   4.953   4.652 -0.4143 -0.0660 -0.1027
    5SAPS  H16X  657  -0.327   5.057   4.688  0.3589  0.0829 -0.4436
    5SAPS  H16Y  658  -0.419   4.920   4.603 -2.1689 -0.1594  3.0807
    5SAPS  C317  659  -0.221   4.949   4.537 -0.9073 -0.4498  0.7375
    5SAPS  H17X  660  -0.204   4.841   4.519  0.7042  0.1678 -1.9783
    5SAPS  H17Y  661  -0.128   4.987   4.585 -1.3412 -1.2496  2.2564
    5SAPS  C318  662  -0.260   5.024   4.405 -0.0662 -0.3242 -0.1525
    5SAPS  H18X  663  -0.350   4.986   4.353 -0.1492 -0.6470  0.2204
    5SAPS  H18Y  664  -0.176   5.015   4.333  0.9846 -0.6320  1.0647
    5SAPS  H18Z  665  -0.292   5.129   4.421 -0.2924  0.0279 -2.6032
    6SAPS     N  666   2.972   5.968   6.994 -0.4383  0.1441 -0.4328
    6SAPS   HN1  667   3.046   6.025   6.949  0.9621 -0.6166  0.8204
    6SAPS   HN2  668   2.956   5.892   6.926  1.0995  0.5354 -1.2810
    6SAPS   HN3  669   2.886   6.026   7.007  0.3846  1.2152  0.4561
    6SAPS   C12  670   3.041   5.912   7.116 -0.3673  0.1104  0.1790
    6SAPS  H12A  671   3.144   5.895   7.085  0.2847  0.3919  2.0883
    6SAPS   C13  672   3.037   5.997   7.245  0.1113  0.8310 -0.2223
    6SAPS  O13A  673   2.974   6.106   7.236  0.1098  0.2383 -0.0918
    6SAPS  O13B  674   3.091   5.976   7.354 -0.0879  0.3713  0.0097
    6SAPS   C11  675   2.964   5.776   7.146 -0.4918  0.9629 -0.0491
    6SAPS  H11A  676   2.856   5.797   7.159 -0.1997  1.8143  1.2018
    6SAPS  H11B  677   3.005   5.735   7.240  1.9200 -0.9936 -1.8191
    6SAPS     P  678   2.933   5.531   7.063 -0.3708 -0.2159 -0.2612
    6SAPS   O13  679   3.048   5.441   7.048 -0.2232  0.3661 -0.1134
    6SAPS   O14  680   2.868   5.535   7.192 -0.4088 -0.2725  0.4956
    6SAPS   O12  681   2.973   5.684   7.029 -0.5574 -0.1841 -0.5336
    6SAPS   O11  682   2.835   5.498   6.945 -0.1483  0.0522  0.6401
    6SAPS    C1  683   2.762   5.598   6.868 -0.2155  0.1612 -0.7799
    6SAPS    HA  684   2.660   5.564   6.844 -0.4951  0.3968  0.0425
    6SAPS    HB  685   2.751   5.700   6.911 -2.8770 -0.4345  0.1056
    6SAPS    C2  686   2.825   5.633   6.731 -0.3252 -0.1801  0.4199
    6SAPS    HS  687   2.930   5.661   6.752 -0.6933  1.3741  0.2889
    6SAPS   O21  688   2.742   5.723   6.658  0.0896  0.7683 -0.0059
    6SAPS   C21  689   2.767   5.851   6.691 -0.9409 -1.0635 -0.2253
    6SAPS   O22  690   2.853   5.892   6.769 -0.4443  0.2289  0.0978
    6SAPS   C22  691   2.645   5.925   6.634 -0.2219 -0.8894 -0.1990
    6SAPS   H2R  692   2.556   5.858   6.634 -0.1715 -0.9588 -0.3943
    6SAPS   H2S  693   2.625   6.013   6.699 -1.2728 -0.5950 -0.8759
    6SAPS    C3  694   2.854   5.504   6.643  0.0741  0.3878  0.8103
    6SAPS    HX  695   2.763   5.441   6.637 -0.5273  1.1286  1.8621
    6SAPS    HY  696   2.931   5.444   6.697 -0.9104  0.1775  2.0062
    6SAPS   O31  697   2.896   5.547   6.507 -0.3798 -0.1782  0.3635
    6SAPS   C31  698   3.028   5.566   6.484 -0.2921  0.2108 -0.9395
    6SAPS   O32  699   3.113   5.565   6.574 -0.3995  0.6334 -0.8125
    6SAPS   C32  700   3.053   5.599   6.337  0.3624  0.5287 -0.4528
    6SAPS   H2X  701   3.012   5.699   6.313  1.3046  1.5428  1.8307
    6SAPS   H2Y  702   2.988   5.530   6.280  1.2968  0.6838 -1.7477
    6SAPS   C23  703   2.671   5.997   6.492  0.1525 -0.7058  0.0929
    6SAPS   H3R  704   2.769   6.047   6.477 -0.5440  1.1289  1.3755
    6SAPS   H3S  705   2.610   6.090   6.495  1.5506  0.2958 -1.1671
    6SAPS   C24  706   2.633   5.928   6.361  0.1222  0.2869 -0.1060
    6SAPS   H4R  707   2.680   5.827   6.361  0.3769  0.3965 -0.7407
    6SAPS   H4S  708   2.688   5.980   6.279 -1.9645  1.7289 -0.6663
    6SAPS   C25  709   2.487   5.907   6.337  1.1208  0.3955  0.1615
    6SAPS   H5R  710   2.422   5.885   6.423 -0.0458 -0.8936 -0.9986
    6SAPS   C26  711   2.421   5.926   6.221 -0.4831  0.4162  0.0673
    6SAPS   H6R  712   2.312   5.941   6.224 -0.7472 -1.4337  1.2709
    6SAPS   C27  713   2.481   5.968   6.090 -0.2802 -0.1340  0.1586
    6SAPS   H7R  714   2.435   5.909   6.009  1.4695  1.6908 -2.3022
    6SAPS   H7S  715   2.588   5.939   6.089 -0.3217 -0.7061  3.1770
    6SAPS   C28  716   2.477   6.114   6.062  0.2312 -0.1454  0.9038
    6SAPS   H8R  717   2.560   6.177   6.096 -0.8316  1.2220  1.0559
    6SAPS   C29  718   2.388   6.182   5.992 -0.1001  0.1872  0.0921
    6SAPS   H9R  719   2.411   6.285   5.962 -2.1013  0.4556 -0.6732
    6SAPS  C210  720   2.261   6.132   5.942 -0.3229  0.8412 -0.2504
    6SAPS  H10R  721   2.224   6.044   5.998  0.7631 -0.2038 -1.1189
    6SAPS  H10S  722   2.279   6.083   5.844  1.0434  0.5289  0.1467
    6SAPS  C211  723   2.148   6.235   5.934  0.6300 -0.1221 -0.3063
    6SAPS  H11R  724   2.095   6.253   6.028  0.3111  1.5182 -0.7612
    6SAPS  C212  725   2.133   6.322   5.830  0.0957 -0.3738  0.0382
    6SAPS  H12R  726   2.045   6.388   5.837 -1.1649 -2.1683  2.6491
    6SAPS  C213  727   2.208   6.313   5.694  0.4211 -0.4042 -0.2056
    6SAPS  H13R  728   2.278   6.227   5.689  0.5499 -0.3235  0.1327
    6SAPS  H13S  729   2.274   6.402   5.693 -1.8182  1.4276  2.0232
    6SAPS  C214  730   2.121   6.317   5.573  0.7935 -0.2914  0.1912
    6SAPS  H14R  731   2.013   6.303   5.582  0.7738 -0.3857 -0.1729
    6SAPS  C215  732   2.153   6.351   5.449 -0.5342  0.0041 -0.3085
    6SAPS  H15R  733   2.077   6.352   5.369 -0.1737 -2.9481 -0.7891
    6SAPS  C216  734   2.285   6.402   5.396  0.2538 -0.3820 -0.9180
    6SAPS  H16R  735   2.347   6.469   5.461 -2.1237 -0.4465  1.5904
    6SAPS  H16S  736   2.247   6.468   5.316  0.0007 -0.8257 -1.1641
    6SAPS  C217  737   2.371   6.279   5.348  0.4765 -0.4421  0.1093
    6SAPS  H17R  738   2.356   6.183   5.403  1.5897 -1.1130 -0.7285
    6SAPS  H17S  739   2.480   6.300   5.341  0.1030  1.2956 -1.3627
    6SAPS  C218  740   2.328   6.239   5.198 -0.1847  0.4360  0.1138
    6SAPS  H18R  741   2.218   6.251   5.184  0.2627  2.5264 -2.1727
    6SAPS  H18S  742   2.353   6.131   5.189 -1.3810  0.0487  1.0231
    6SAPS  C219  743   2.405   6.312   5.084 -0.2223 -0.1170 -0.1800
    6SAPS  H19R  744   2.515   6.308   5.103 -0.4916 -0.4458  1.4000
    6SAPS  H19S  745   2.379   6.416   5.110  1.2312  0.1633  0.2540
    6SAPS  C220  746   2.366   6.283   4.935  0.6544  0.3330  0.5484
    6SAPS  H20R  747   2.258   6.303   4.924  0.7588 -0.5766 -3.2849
    6SAPS  H20S  748   2.371   6.172   4.923 -2.7510 -0.0352  1.5389
    6SAPS  H20T  749   2.419   6.351   4.865 -1.1248  1.6214  0.3874
    6SAPS   C33  750   3.195   5.571   6.287 -0.1564  0.2815 -0.2469
    6SAPS   H3X  751   3.218   5.475   6.338 -3.6001 -0.2010  0.6929
    6SAPS   H3Y  752   3.258   5.646   6.340  1.2142  0.0933 -1.5334
    6SAPS   C34  753   3.223   5.586   6.137  0.4344 -0.2079 -0.2201
    6SAPS   H4X  754   3.195   5.489   6.089  2.2516 -1.2667  0.7678
    6SAPS   H4Y  755   3.332   5.597   6.122  0.5621 -0.2355  0.6179
    6SAPS   C35  756   3.151   5.697   6.061 -0.3919 -0.3856  0.1088
    6SAPS   H5X  757   3.152   5.797   6.110  0.8150 -0.2762 -0.0914
    6SAPS   H5Y  758   3.044   5.669   6.051 -0.7921  1.6043 -2.3420
    6SAPS   C36  759   3.192   5.722   5.909  0.5803 -0.4638  0.1562
    6SAPS   H6X  760   3.291   5.773   5.906 -0.5937  2.0275  0.5250
    6SAPS   H6Y  761   3.116   5.779   5.851 -0.7007 -3.9903 -1.9220
    6SAPS   C37  762   3.193   5.590   5.822 -0.9099 -0.0262 -0.9535
    6SAPS   H7X  763   3.100   5.530   5.825 -1.8483  1.3914 -0.5769
    6SAPS   H7Y  764   3.262   5.514   5.864  0.7502  0.5117 -2.5709
    6SAPS   C38  765   3.233   5.621   5.676  0.4318 -0.1869  0.2031
    6SAPS   H8X  766   3.329   5.676   5.692  2.0134 -2.1180 -1.9699
    6SAPS   H8Y  767   3.159   5.693   5.635  1.1190  0.8444  0.7236
    6SAPS   C39  768   3.282   5.514   5.579  0.2781  0.4284 -0.2346
    6SAPS   H9X  769   3.219   5.424   5.597 -2.7491  2.1873 -1.2548
    6SAPS   H9Y  770   3.387   5.492   5.609  0.5388  0.5980 -1.0039
    6SAPS  C310  771   3.276   5.555   5.427 -0.1869 -0.3715  0.5858
    6SAPS  H10X  772   3.360   5.507   5.371 -1.5208 -0.8049 -1.1126
    6SAPS  H10Y  773   3.285   5.664   5.412  0.3439 -0.4867 -0.0012
    6SAPS  C311  774   3.139   5.506   5.362  0.2035  0.3111 -0.1620
    6SAPS  H11X  775   3.056   5.571   5.394  0.2337  0.2254  0.0936
    6SAPS  H11Y  776   3.116   5.406   5.404  0.0125  0.5850  0.3957
    6SAPS  C312  777   3.148   5.504   5.210  0.0572 -0.5977 -0.0112
    6SAPS  H12X  778   3.206   5.414   5.181 -1.8517 -1.5769 -0.9987
    6SAPS  H12Y  779   3.193   5.597   5.169 -0.3014 -0.7546 -0.7884
    6SAPS  C313  780   3.013   5.490   5.143 -0.0406 -0.2846  0.4110
    6SAPS  H13X  781   2.942   5.575   5.148 -0.2772 -0.5050  0.8175
    6SAPS  H13Y  782   2.960   5.403   5.187  1.4199 -1.9403 -0.9354
    6SAPS  C314  783   3.024   5.472   4.987  0.4744 -0.0134 -0.1416
    6SAPS  H14X  784   3.024   5.574   4.944  0.5949  0.0874  0.0983
    6SAPS  H14Y  785   2.931   5.433   4.941  0.3231  3.1149 -2.8484
    6SAPS  C315  786   3.157   5.401   4.944 -0.3178  0.7130 -0.3841
    6SAPS  H15X  787   3.141   5.300   4.986 -1.1197  1.0067  0.0365
    6SAPS  H15Y  788   3.246   5.456   4.982 -0.1671 -0.3855  0.9268
    6SAPS  C316  789   3.173   5.385   4.790  0.5480 -0.0901  0.3051
    6SAPS  H16X  790   3.173   5.488   4.749 -0.9630 -0.3464 -0.4137
    6SAPS  H16Y  791   3.089   5.323   4.753  1.6529 -0.8663 -0.9836
    6SAPS  C317  792   3.295   5.308   4.753 -0.3379 -0.8448 -0.3085
    6SAPS  H17X  793   3.279   5.213   4.808  0.4792 -1.2362 -0.7258
    6SAPS  H17Y  794   3.383   5.354   4.802 -0.5758  0.1906 -0.8221
    6SAPS  C318  795   3.329   5.271   4.608 -0.1800  0.8440 -0.5995
    6SAPS  H18X  796   3.373   5.352   4.546  0.8483  0.6201 -0.1693
    6SAPS  H18Y  797   3.241   5.231   4.552  0.8219 -0.4024 -1.3326
    6SAPS  H18Z  798   3.401   5.187   4.606 -0.5830  0.4745 -0.0238
    7SAPS     N  799   1.296   1.190   6.652  0.1060  0.1349  0.4261
    7SAPS   HN1  800   1.309   1.270   6.586 -3.3762  0.1643 -0.4064
    7SAPS   HN2  801   1.355   1.106   6.635  2.6897  2.2760 -2.4131
    7SAPS   HN3  802   1.196   1.164   6.639  0.0199 -0.9260  2.7724
    7SAPS   C12  803   1.306   1.245   6.794  0.0254  1.0277  0.1532
    7SAPS  H12A  804   1.245   1.333   6.812 -0.5309  0.6837 -0.0143
    7SAPS   C13  805   1.253   1.146   6.910 -0.5992  0.3044 -0.3138
    7SAPS  O13A  806   1.204   1.034   6.889  0.0514  0.0769  0.3630
    7SAPS  O13B  807   1.252   1.194   7.026 -0.0534 -0.2446  0.3098
    7SAPS   C11  808   1.454   1.274   6.826 -0.3420 -0.4883  0.4473
    7SAPS  H11A  809   1.503   1.175   6.827 -0.6420 -0.8676 -4.0291
    7SAPS  H11B  810   1.458   1.312   6.931  2.1977 -3.3004  1.4984
    7SAPS     P  811   1.509   1.515   6.720  0.2454  0.0702  0.4056
    7SAPS   O13  812   1.387   1.555   6.784  0.9279 -0.4455  0.3477
    7SAPS   O14  813   1.637   1.562   6.772  0.2254 -0.3249 -0.7123
    7SAPS   O12  814   1.523   1.359   6.723  0.6216 -0.0610 -0.3935
    7SAPS   O11  815   1.491   1.536   6.561 -0.3810  0.2341 -0.3856
    7SAPS    C1  816   1.594   1.485   6.479 -0.4685  0.6626  0.2523
    7SAPS    HA  817   1.691   1.450   6.521  0.3820  1.8278 -0.6803
    7SAPS    HB  818   1.550   1.390   6.440  0.2005  0.9109 -1.1885
    7SAPS    C2  819   1.614   1.588   6.367 -0.9954 -0.1832  1.2034
    7SAPS    HS  820   1.523   1.651   6.366 -0.9718 -0.0729 -1.5783
    7SAPS   O21  821   1.643   1.519   6.245  0.3056 -0.0412  0.0997
    7SAPS   C21  822   1.549   1.526   6.147  0.1548 -0.1605 -0.6928
    7SAPS   O22  823   1.451   1.607   6.148 -0.2378  0.8294 -0.0611
    7SAPS   C22  824   1.563   1.409   6.052 -0.0575 -0.2309 -0.5716
    7SAPS   H2R  825   1.671   1.396   6.030 -0.3205 -0.4616 -1.7990
    7SAPS   H2S  826   1.530   1.322   6.113  1.0078  0.0298  0.4066
    7SAPS    C3  827   1.732   1.691   6.397 -0.1598 -0.5479 -0.4005
    7SAPS    HX  828   1.826   1.631   6.401  0.1036 -0.0539  1.1666
    7SAPS    HY  829   1.715   1.741   6.494  0.9295 -1.9997  0.5801
    7SAPS   O31  830   1.743   1.789   6.289 -0.5118 -0.4265  0.3325
    7SAPS   C31  831   1.651   1.884   6.285  0.3082  0.1885  0.0262
    7SAPS   O32  832   1.575   1.915   6.376 -0.6178  0.3053  0.3917
    7SAPS   C32  833   1.651   1.956   6.150  0.2810 -0.5336 -0.3566
    7SAPS   H2X  834   1.738   2.024   6.141  1.2378 -1.4561  1.4468
    7SAPS   H2Y  835   1.563   2.024   6.143  0.5568 -0.3162 -3.9581
    7SAPS   C23  836   1.478   1.415   5.925 -0.4809  0.2742  0.5280
    7SAPS   H3R  837   1.371   1.421   5.953  0.0721  2.1662  2.4712
    7SAPS   H3S  838   1.495   1.316   5.878  0.9578  0.3942  0.7237
    7SAPS   C24  839   1.523   1.523   5.821  0.1193  0.5820 -0.3991
    7SAPS   H4R  840   1.627   1.496   5.795  0.2759  0.7157  0.0769
    7SAPS   H4S  841   1.517   1.620   5.876  0.8473  1.7273 -2.2378
    7SAPS   C25  842   1.430   1.509   5.709 -0.0235  0.0161  0.0700
    7SAPS   H5R  843   1.325   1.493   5.738 -0.0668  0.2741  0.0625
    7SAPS   C26  844   1.473   1.496   5.582 -0.6477 -0.8736 -0.3064
    7SAPS   H6R  845   1.402   1.491   5.499  0.2579 -1.6293 -1.0496
    7SAPS   C27  846   1.618   1.528   5.546  0.3916 -0.1998 -0.4061
    7SAPS   H7R  847   1.694   1.452   5.570 -2.1698 -2.7362  0.2021
    7SAPS   H7S  848   1.651   1.615   5.607 -2.1566  0.8706 -0.4284
    7SAPS   C28  849   1.632   1.569   5.407  0.4207 -0.3519 -0.1979
    7SAPS   H8R  850   1.635   1.677   5.383 -1.2035 -0.5080 -1.3216
    7SAPS   C29  851   1.671   1.503   5.298 -0.4389 -0.6482  0.0347
    7SAPS   H9R  852   1.659   1.547   5.198  2.1270 -2.5142 -1.2198
    7SAPS  C210  853   1.701   1.355   5.281  0.2534  0.2151  0.1771
    7SAPS  H10R  854   1.626   1.293   5.335  0.9417 -1.4926 -0.7583
    7SAPS  H10S  855   1.804   1.333   5.316  1.0139  4.2976  1.1126
    7SAPS  C211  856   1.687   1.313   5.139 -0.4992 -1.0329  0.5491
    7SAPS  H11R  857   1.593   1.259   5.121 -1.4389  0.3369  1.1642
    7SAPS  C212  858   1.767   1.339   5.035 -0.2770  0.2365  0.2689
    7SAPS  H12R  859   1.725   1.310   4.938  1.4932  0.0921 -0.4975
    7SAPS  C213  860   1.896   1.420   5.038  0.2399  0.1901  0.0198
    7SAPS  H13R  861   1.985   1.353   5.042 -0.5205 -0.8546  3.4963
    7SAPS  H13S  862   1.894   1.462   5.141  2.9874 -1.0340  0.6690
    7SAPS  C214  863   1.903   1.540   4.935  0.1504  0.4999 -0.7623
    7SAPS  H14R  864   1.886   1.641   4.977  1.7744  0.9436 -1.1098
    7SAPS  C215  865   1.931   1.533   4.805 -0.2643  0.4303  0.4753
    7SAPS  H15R  866   1.929   1.619   4.736 -2.3038  0.6221  0.6937
    7SAPS  C216  867   1.966   1.401   4.732 -0.6475 -0.3827 -0.2107
    7SAPS  H16R  868   1.987   1.422   4.625  0.4101  1.5060  0.3274
    7SAPS  H16S  869   1.880   1.330   4.739 -0.2343 -0.9479 -0.7678
    7SAPS  C217  870   2.086   1.313   4.778  0.6406  0.1523 -0.0949
    7SAPS  H17R  871   2.098   1.222   4.715  1.5051  0.1275  0.0884
    7SAPS  H17S  872   2.069   1.275   4.880 -1.6091 -0.3328 -0.5980
    7SAPS  C218  873   2.212   1.401   4.779 -0.2098  0.3274  0.6945
    7SAPS  H18R  874   2.209   1.477   4.860 -1.1347  1.1226 -0.0648
    7SAPS  H18S  875   2.211   1.464   4.688 -1.8992  2.1664  1.9028
    7SAPS  C219  876   2.344   1.321   4.788 -0.0912 -0.1334  0.1656
    7SAPS  H19R  877   2.344   1.244   4.709  2.3294  0.9460 -1.0042
    7SAPS  H19S  878   2.352   1.273   4.888  0.3502  1.7430  1.0883
    7SAPS  C220  879   2.465   1.398   4.748 -0.1503  0.3056 -0.5105
    7SAPS  H20R  880   2.428   1.464   4.667 -2.1180  0.2520  0.2820
    7SAPS  H20S  881   2.544   1.327   4.716 -1.1519 -0.8008 -0.5641
    7SAPS  H20T  882   2.516   1.454   4.829  1.1449  0.3289 -1.3136
    7SAPS   C33  883   1.646   1.859   6.033 -0.8772  0.3353 -0.0498
    7SAPS   H3X  884   1.557   1.792   6.032 -0.4364 -0.2585 -1.2258
    7SAPS   H3Y  885   1.741   1.804   6.023  0.0429  1.7094  0.7789
    7SAPS   C34  886   1.635   1.948   5.910 -0.4167  0.4894  0.1136
    7SAPS   H4X  887   1.697   2.040   5.913  0.0537  0.3734 -3.2124
    7SAPS   H4Y  888   1.530   1.983   5.923 -0.3792  0.6755 -0.0929
    7SAPS   C35  889   1.667   1.876   5.774  0.5745  0.2440 -0.0031
    7SAPS   H5X  890   1.592   1.800   5.745  0.8509 -0.3126  0.7075
    7SAPS   H5Y  891   1.764   1.824   5.787  1.1876  1.6818  1.7241
    7SAPS   C36  892   1.674   1.973   5.658  0.2967  0.0889 -0.0214
    7SAPS   H6X  893   1.740   2.061   5.672  0.3670  0.3985 -1.9812
    7SAPS   H6Y  894   1.571   2.015   5.655  0.3258  0.4523  2.1207
    7SAPS   C37  895   1.722   1.905   5.524 -0.0921  0.6248 -0.0675
    7SAPS   H7X  896   1.654   1.820   5.507  0.3334  0.2300  0.1850
    7SAPS   H7Y  897   1.827   1.869   5.530 -0.8201 -1.7113 -0.4299
    7SAPS   C38  898   1.711   1.997   5.402  0.2062 -0.6692  0.0480
    7SAPS   H8X  899   1.771   2.089   5.417  0.8666 -1.4353  2.6604
    7SAPS   H8Y  900   1.609   2.039   5.390  0.7759  0.7565 -0.0745
    7SAPS   C39  901   1.767   1.914   5.288 -0.5197 -0.5912  0.2503
    7SAPS   H9X  902   1.709   1.821   5.267 -0.5373 -0.1830 -1.6685
    7SAPS   H9Y  903   1.870   1.879   5.310  0.3248  2.7779  2.2689
    7SAPS  C310  904   1.772   1.991   5.152  0.0571  0.3444 -0.1659
    7SAPS  H10X  905   1.817   2.092   5.163  0.8390  0.2336 -1.9458
    7SAPS  H10Y  906   1.668   2.017   5.124 -0.4065 -0.3221  0.8784
    7SAPS  C311  907   1.842   1.909   5.041  0.3329 -0.4124  0.0416
    7SAPS  H11X  908   1.786   1.814   5.035 -0.1834 -0.0908 -0.3758
    7SAPS  H11Y  909   1.945   1.877   5.068 -0.0632  0.3294  2.7765
    7SAPS  C312  910   1.841   2.007   4.917 -0.3920  0.7728 -0.7400
    7SAPS  H12X  911   1.888   2.105   4.937 -3.6415  2.4416 -0.6297
    7SAPS  H12Y  912   1.734   2.029   4.896 -0.2100  0.7119 -1.7905
    7SAPS  C313  913   1.909   1.944   4.791  0.1173 -0.6780 -0.0053
    7SAPS  H13X  914   1.877   2.004   4.704 -0.0606 -1.4763 -0.4985
    7SAPS  H13Y  915   1.867   1.842   4.776 -0.2123 -0.6535  0.7012
    7SAPS  C314  916   2.065   1.952   4.810  0.1992  0.2341 -0.3338
    7SAPS  H14X  917   2.075   1.893   4.903  2.7219  0.4186 -0.4190
    7SAPS  H14Y  918   2.091   2.058   4.832  0.3642 -0.0911  1.1113
    7SAPS  C315  919   2.148   1.888   4.694 -0.0045  0.0559 -0.0044
    7SAPS  H15X  920   2.138   1.960   4.611 -4.0916  1.7002  1.6383
    7SAPS  H15Y  921   2.103   1.790   4.667  1.0069 -0.7921  1.2763
    7SAPS  C316  922   2.299   1.876   4.729  0.4098  0.1149  0.0999
    7SAPS  H16X  923   2.307   1.825   4.827 -2.8638 -1.9576 -0.5467
    7SAPS  H16Y  924   2.342   1.976   4.748  2.5234 -1.0683  2.1217
    7SAPS  C317  925   2.385   1.808   4.616  0.7318 -0.0748 -0.0649
    7SAPS  H17X  926   2.381   1.867   4.522  2.1383  0.0608 -0.0614
    7SAPS  H17Y  927   2.346   1.705   4.602 -0.1340  0.5746 -3.3853
    7SAPS  C318  928   2.534   1.808   4.640 -0.2400  0.2204  0.2958
    7SAPS  H18X  929   2.545   1.751   4.735  0.4907  0.2414  0.2296
    7SAPS  H18Y  930   2.570   1.913   4.649 -0.5786  0.2714  1.1392
    7SAPS  H18Z  931   2.590   1.758   4.558  1.1483  0.8378  0.8272
    8SAPS     N  932   3.542   0.662   6.940  0.7660  0.3945  0.1780
    8SAPS   HN1  933   3.639   0.627   6.952  0.1529 -1.1884  0.7430
    8SAPS   HN2  934   3.479   0.580   6.934  0.1808  0.9336 -2.0624
    8SAPS   HN3  935   3.544   0.714   6.850  0.4935 -1.7140 -1.1128
    8SAPS   C12  936   3.509   0.748   7.054  0.4333  0.1885  0.0015
    8SAPS  H12A  937   3.418   0.796   7.021  0.5879 -0.3027 -1.1999
    8SAPS   C13  938   3.487   0.673   7.187 -0.3599  0.8436 -0.4011
    8SAPS  O13A  939   3.476   0.547   7.187 -0.3199  0.0175  0.9801
    8SAPS  O13B  940   3.445   0.744   7.288  0.6516 -0.3738  0.0325
    8SAPS   C11  941   3.627   0.848   7.066  0.1597  0.2857 -0.2344
    8SAPS  H11A  942   3.598   0.916   7.149  0.5013 -1.4895  1.3981
    8SAPS  H11B  943   3.633   0.900   6.968  0.0261  0.9142  0.0853
    8SAPS     P  944   3.891   0.858   7.076 -0.2139 -0.4991  0.0837
    8SAPS   O13  945   3.879   0.993   7.142  0.0216 -0.4397  0.5720
    8SAPS   O14  946   4.009   0.776   7.126 -0.8204 -0.2362 -0.2364
    8SAPS   O12  947   3.754   0.783   7.098  0.0923 -0.1653  0.4402
    8SAPS   O11  948   3.904   0.890   6.923  0.5496  0.3857 -0.0930
    8SAPS    C1  949   3.917   0.775   6.829  0.3126  0.4133 -0.6715
    8SAPS    HA  950   3.950   0.679   6.875 -3.0398 -0.3237  0.5565
    8SAPS    HB  951   3.816   0.751   6.789 -0.2643  1.9309 -0.2123
    8SAPS    C2  952   4.024   0.803   6.716  1.1970  0.7472  0.0259
    8SAPS    HS  953   4.111   0.853   6.764  0.8827  1.3940 -0.0714
    8SAPS   O21  954   3.956   0.891   6.624 -0.4430  0.8529  0.3329
    8SAPS   C21  955   4.019   0.997   6.580  0.3191 -0.3055 -0.2173
    8SAPS   O22  956   4.128   1.034   6.622  0.3374 -0.1465  0.2942
    8SAPS   C22  957   3.944   1.056   6.457 -0.7474  0.3613  0.4344
    8SAPS   H2R  958   3.836   1.031   6.471 -0.8040 -0.6751 -1.5699
    8SAPS   H2S  959   3.944   1.167   6.466  1.1575  0.4852 -0.6566
    8SAPS    C3  960   4.071   0.676   6.654  0.2965  1.1974 -0.3392
    8SAPS    HX  961   3.994   0.597   6.640  1.6197  0.0353 -1.4421
    8SAPS    HY  962   4.139   0.627   6.727  1.1716  1.7622 -0.7600
    8SAPS   O31  963   4.134   0.702   6.530  0.5506 -0.1896  0.4796
    8SAPS   C31  964   4.263   0.678   6.528  0.3777 -0.6372  0.1557
    8SAPS   O32  965   4.327   0.612   6.608  0.2366 -0.0259 -0.3346
    8SAPS   C32  966   4.325   0.745   6.406  0.8681  0.0927  0.3333
    8SAPS   H2X  967   4.435   0.756   6.415  0.9642  0.7748 -1.4006
    8SAPS   H2Y  968   4.283   0.848   6.407 -1.0126 -0.5483  3.6639
    8SAPS   C23  969   3.997   1.021   6.321  0.7241  0.4225  0.2266
    8SAPS   H3R  970   4.039   0.919   6.327  1.4989  0.7526  0.5870
    8SAPS   H3S  971   4.089   1.072   6.285 -0.3958  1.7586 -0.8632
    8SAPS   C24  972   3.881   1.020   6.217 -0.0322 -0.5152  1.2365
    8SAPS   H4R  973   3.854   1.126   6.200 -2.3271 -0.7607  2.8619
    8SAPS   H4S  974   3.789   0.980   6.265 -1.3650  1.4182  0.4214
    8SAPS   C25  975   3.910   0.940   6.093 -0.0239 -0.0318 -0.4428
    8SAPS   H5R  976   3.934   0.834   6.110 -1.4467 -0.8139 -2.8364
    8SAPS   C26  977   3.930   0.983   5.971  0.2439 -0.3798 -0.1048
    8SAPS   H6R  978   3.960   0.910   5.894 -0.0325 -1.0777  0.4413
    8SAPS   C27  979   3.914   1.132   5.926 -0.6717 -0.0045 -0.1414
    8SAPS   H7R  980   4.014   1.180   5.927 -0.5042 -0.3185 -0.9296
    8SAPS   H7S  981   3.871   1.189   6.011 -0.1069 -0.2930  0.3415
    8SAPS   C28  982   3.830   1.165   5.811  0.1293 -0.4384  0.5230
    8SAPS   H8R  983   3.727   1.195   5.836 -0.0814 -1.4053  0.8875
    8SAPS   C29  984   3.868   1.166   5.683 -0.0679 -1.3850  0.1518
    8SAPS   H9R  985   3.797   1.201   5.606 -0.2114  0.0407  0.8882
    8SAPS  C210  986   4.005   1.137   5.633 -1.3387 -0.3992 -0.3897
    8SAPS  H10R  987   4.077   1.165   5.713 -0.3407  0.6927 -1.6126
    8SAPS  H10S  988   4.029   1.213   5.556  1.1162  0.3262  0.9581
    8SAPS  C211  989   4.036   0.989   5.596  0.1317 -1.0994 -0.6859
    8SAPS  H11R  990   4.099   0.933   5.668 -1.7691 -0.6543  1.4178
    8SAPS  C212  991   4.014   0.940   5.478 -0.5232 -0.5574  0.0860
    8SAPS  H12R  992   4.028   0.832   5.464  0.8751 -0.2081 -1.4828
    8SAPS  C213  993   3.948   1.004   5.360  0.4846 -0.4898  0.3315
    8SAPS  H13R  994   3.998   0.961   5.270  2.4102  0.3909  0.9376
    8SAPS  H13S  995   3.973   1.111   5.346 -1.5611  0.1788  1.3658
    8SAPS  C214  996   3.799   0.984   5.354 -0.2933  0.0403 -0.1651
    8SAPS  H14R  997   3.752   0.986   5.454 -2.5680 -2.1846 -1.0660
    8SAPS  C215  998   3.725   0.976   5.243  0.4723 -0.5414  0.1597
    8SAPS  H15R  999   3.618   0.949   5.250  0.0491  0.7257 -0.9442
    8SAPS  C216 1000   3.769   0.978   5.102 -0.2816  0.3891  0.1101
    8SAPS  H16R 1001   3.868   1.025   5.086 -1.3643  1.8641 -3.1934
    8SAPS  H16S 1002   3.703   1.054   5.054 -1.5520 -0.2877  0.7292
    8SAPS  C217 1003   3.742   0.834   5.042 -0.1309 -0.5967 -0.5011
    8SAPS  H17R 1004   3.792   0.752   5.097  2.5169 -0.1878 -2.1576
    8SAPS  H17S 1005   3.792   0.834   4.943  1.7874  3.7573  0.2406
    8SAPS  C218 1006   3.593   0.792   5.018 -0.2450 -0.1509  0.0240
    8SAPS  H18R 1007   3.535   0.875   4.971 -0.2861 -0.0220  0.2977
    8SAPS  H18S 1008   3.549   0.784   5.120  1.8823  1.8717  1.1965
    8SAPS  C219 1009   3.580   0.655   4.947  0.9385 -0.1134  0.4313
    8SAPS  H19R 1010   3.629   0.575   5.006  0.5528 -1.8931 -1.5331
    8SAPS  H19S 1011   3.629   0.656   4.847 -2.9770  2.0068 -1.6906
    8SAPS  C220 1012   3.427   0.618   4.930  0.2576  0.0450  0.0403
    8SAPS  H20R 1013   3.412   0.533   4.860  0.5532  1.0687 -1.3100
    8SAPS  H20S 1014   3.376   0.706   4.885 -0.7698 -0.0828  0.9111
    8SAPS  H20T 1015   3.377   0.610   5.029 -0.9224 -2.4839 -0.6608
    8SAPS   C33 1016   4.298   0.679   6.271 -0.0000 -0.6803  0.4697
    8SAPS   H3X 1017   4.192   0.701   6.247 -0.0843 -0.9764  0.5669
    8SAPS   H3Y 1018   4.318   0.571   6.251 -0.1623 -0.6935  0.3801
    8SAPS   C34 1019   4.374   0.771   6.170  0.1677  0.0755 -0.6301
    8SAPS   H4X 1020   4.484   0.755   6.184  0.0879 -0.1230 -0.2048
    8SAPS   H4Y 1021   4.343   0.876   6.188 -0.6498 -0.4334  1.2631
    8SAPS   C35 1022   4.344   0.747   6.024 -0.5081 -0.3215 -1.0252
    8SAPS   H5X 1023   4.237   0.769   6.000  0.2751  2.2432 -2.6623
    8SAPS   H5Y 1024   4.365   0.641   5.998  1.7186 -0.5760  1.4049
    8SAPS   C36 1025   4.423   0.822   5.925 -0.0124 -0.0878 -0.4646
    8SAPS   H6X 1026   4.529   0.792   5.935 -0.3496 -1.0541  0.3544
    8SAPS   H6Y 1027   4.420   0.929   5.955 -2.0114 -0.3399  0.4453
    8SAPS   C37 1028   4.369   0.811   5.784  0.0634  0.7887  0.4972
    8SAPS   H7X 1029   4.394   0.903   5.727  1.6714 -0.5822 -1.1312
    8SAPS   H7Y 1030   4.258   0.805   5.788 -0.4039  1.5639 -4.5876
    8SAPS   C38 1031   4.409   0.693   5.697  0.2730 -0.8353 -0.4502
    8SAPS   H8X 1032   4.383   0.597   5.746  1.4899 -1.9779 -1.9149
    8SAPS   H8Y 1033   4.518   0.708   5.678  0.4133 -0.6470  0.4755
    8SAPS   C39 1034   4.328   0.696   5.565  0.7366 -0.4373  0.3492
    8SAPS   H9X 1035   4.363   0.781   5.502  3.3757 -1.0231  0.9105
    8SAPS   H9Y 1036   4.220   0.709   5.587  0.5604 -1.3321  0.0214
    8SAPS  C310 1037   4.337   0.575   5.472  0.3821  0.7741  0.0322
    8SAPS  H10X 1038   4.236   0.532   5.455 -0.1448  2.3739 -1.2598
    8SAPS  H10Y 1039   4.398   0.499   5.525 -1.9384 -0.3679  1.2276
    8SAPS  C311 1040   4.397   0.604   5.333  0.0540 -0.2483 -0.3848
    8SAPS  H11X 1041   4.455   0.512   5.310 -1.4801 -1.8101  1.6629
    8SAPS  H11Y 1042   4.466   0.691   5.328  0.8139 -0.8682 -1.1111
    8SAPS  C312 1043   4.275   0.617   5.242 -0.2091  0.2918 -0.2251
    8SAPS  H12X 1044   4.212   0.703   5.273  0.8953  0.0935  2.9653
    8SAPS  H12Y 1045   4.212   0.528   5.259 -0.1223 -0.2251 -2.4141
    8SAPS  C313 1046   4.314   0.630   5.095  0.5873  0.2221  0.3311
    8SAPS  H13X 1047   4.217   0.620   5.042  1.7612 -1.5633 -1.6070
    8SAPS  H13Y 1048   4.371   0.539   5.066  0.6051  0.6769 -1.1579
    8SAPS  C314 1049   4.374   0.765   5.057 -0.2235  0.8724 -0.6700
    8SAPS  H14X 1050   4.455   0.791   5.129 -0.8311  1.1093 -0.0677
    8SAPS  H14Y 1051   4.293   0.837   5.077  0.2450  1.1927  0.1351
    8SAPS  C315 1052   4.424   0.767   4.914 -0.5501 -0.8424 -0.6263
    8SAPS  H15X 1053   4.354   0.723   4.840  0.9527  1.1856 -3.4780
    8SAPS  H15Y 1054   4.517   0.707   4.910 -1.1064 -1.9904  1.9289
    8SAPS  C316 1055   4.441   0.918   4.867 -0.1352 -0.9249  0.2286
    8SAPS  H16X 1056   4.343   0.972   4.869  0.0008 -0.6721  0.1648
    8SAPS  H16Y 1057   4.467   0.909   4.759 -2.0601 -0.2636 -0.3411
    8SAPS  C317 1058   4.538   1.006   4.943  0.1947 -0.1221  0.1236
    8SAPS  H17X 1059   4.637   0.959   4.928  0.9305  0.5582  2.3780
    8SAPS  H17Y 1060   4.507   1.007   5.050  2.1302 -1.2176  0.7327
    8SAPS  C318 1061   4.555   1.151   4.896  0.3284  0.6297 -0.4310
    8SAPS  H18X 1062   4.451   1.190   4.887  0.8953  3.0399  2.1494
    8SAPS  H18Y 1063   4.606   1.133   4.799 -0.7838 -2.4564 -0.5234
    8SAPS  H18Z 1064   4.619   1.216   4.960  0.7909 -0.2470  0.0032
    9SAPS     N 1065   0.488   5.652   6.823 -0.0833 -0.2874  0.0259
    9SAPS   HN1 1066   0.405   5.669   6.883  0.6439  0.5924  0.8167
    9SAPS   HN2 1067   0.577   5.679   6.870  1.0764 -0.3271 -2.0061
    9SAPS   HN3 1068   0.488   5.688   6.725  2.2677 -0.5974 -0.1649
    9SAPS   C12 1069   0.513   5.507   6.818  0.1265 -0.7722 -1.0717
    9SAPS  H12A 1070   0.606   5.491   6.764  1.0676 -0.8187  0.4812
    9SAPS   C13 1071   0.549   5.441   6.951  0.1954 -0.0186  0.8236
    9SAPS  O13A 1072   0.549   5.506   7.054  0.0839 -0.1116  0.3274
    9SAPS  O13B 1073   0.594   5.320   6.952  0.2201  0.1548 -0.3628
    9SAPS   C11 1074   0.392   5.435   6.740  0.0260 -0.2218  0.0699
    9SAPS  H11A 1075   0.300   5.445   6.801 -1.0098 -1.8019 -1.1544
    9SAPS  H11B 1076   0.409   5.325   6.737 -0.8347 -0.3553 -0.2058
    9SAPS     P 1077   0.346   5.398   6.486 -0.2381  0.0218  0.2465
    9SAPS   O13 1078   0.256   5.284   6.531 -0.1263 -0.2707 -0.5527
    9SAPS   O14 1079   0.301   5.481   6.372  0.1466  0.0934  0.5606
    9SAPS   O12 1080   0.378   5.493   6.610 -0.3392  0.2372 -0.2712
    9SAPS   O11 1081   0.491   5.331   6.459 -0.4881  0.0059 -0.1384
    9SAPS    C1 1082   0.599   5.437   6.452  0.2569 -0.5235  0.0774
    9SAPS    HA 1083   0.554   5.538   6.440 -0.9039 -1.2781 -2.5233
    9SAPS    HB 1084   0.655   5.434   6.548  0.7051  0.5336 -0.1283
    9SAPS    C2 1085   0.707   5.410   6.335 -0.2334  0.4612 -0.7887
    9SAPS    HS 1086   0.788   5.483   6.358 -0.1961 -0.0972  1.0665
    9SAPS   O21 1087   0.653   5.440   6.210  0.0899  0.6339 -0.2098
    9SAPS   C21 1088   0.614   5.566   6.188 -0.7262  0.2950 -0.0808
    9SAPS   O22 1089   0.644   5.665   6.245  0.6255 -0.6407 -0.1584
    9SAPS   C22 1090   0.527   5.575   6.067  0.3192  0.3058  0.6652
    9SAPS   H2R 1091   0.541   5.482   6.007  1.1531  1.6071 -1.2456
    9SAPS   H2S 1092   0.421   5.585   6.099  0.2081 -2.5783  1.5400
    9SAPS    C3 1093   0.770   5.274   6.343 -0.3848  0.6017  0.1155
    9SAPS    HX 1094   0.674   5.217   6.343  0.7527 -1.4771 -1.7649
    9SAPS    HY 1095   0.829   5.245   6.432 -1.6035 -1.4518  0.3238
    9SAPS   O31 1096   0.836   5.236   6.226  0.2546  0.3702 -0.3925
    9SAPS   C31 1097   0.950   5.301   6.191  0.2090  0.0513  0.4578
    9SAPS   O32 1098   1.002   5.383   6.264  0.6195  0.2797 -0.3650
    9SAPS   C32 1099   1.008   5.245   6.063  0.3253  0.0595  0.0440
    9SAPS   H2X 1100   1.023   5.135   6.074  1.2326  0.3242  1.7512
    9SAPS   H2Y 1101   1.106   5.296   6.058  0.9399 -1.1621 -1.0153
    9SAPS   C23 1102   0.569   5.688   5.962 -0.2940  0.7539  0.2466
    9SAPS   H3R 1103   0.676   5.681   5.932  0.2871 -0.8123  2.4166
    9SAPS   H3S 1104   0.553   5.782   6.018 -0.5204  1.5199 -1.0576
    9SAPS   C24 1105   0.483   5.671   5.834 -0.5207  0.2914 -0.2504
    9SAPS   H4R 1106   0.385   5.635   5.872 -0.3760  1.3612  1.2294
    9SAPS   H4S 1107   0.524   5.583   5.780  6.1475  1.7696  1.5350
    9SAPS   C25 1108   0.487   5.793   5.744 -0.6199  0.4042 -0.7444
    9SAPS   H5R 1109   0.553   5.876   5.773  0.2173 -0.7430  0.8154
    9SAPS   C26 1110   0.398   5.821   5.647  0.0181 -0.0238 -0.5308
    9SAPS   H6R 1111   0.418   5.913   5.590  0.8287  0.8707  1.1308
    9SAPS   C27 1112   0.274   5.739   5.601  0.1365 -0.2170  0.4046
    9SAPS   H7R 1113   0.185   5.784   5.650 -0.7804  0.4707 -1.7589
    9SAPS   H7S 1114   0.284   5.638   5.645 -0.5120 -0.2839  0.4000
    9SAPS   C28 1115   0.252   5.732   5.452 -0.6123 -0.0310 -0.4517
    9SAPS   H8R 1116   0.152   5.769   5.423  0.5837  3.5637 -0.4458
    9SAPS   C29 1117   0.344   5.689   5.366 -0.2721  0.2344  0.2337
    9SAPS   H9R 1118   0.312   5.692   5.261  0.4120 -0.3859 -0.0013
    9SAPS  C210 1119   0.483   5.627   5.383  0.5024  0.1722  0.0805
    9SAPS  H10R 1120   0.511   5.644   5.489  0.0312  0.7093  0.1185
    9SAPS  H10S 1121   0.563   5.682   5.329 -0.1972  0.3304 -0.8206
    9SAPS  C211 1122   0.484   5.477   5.364 -0.1975 -0.5772  0.6570
    9SAPS  H11R 1123   0.503   5.424   5.459  2.7211 -2.1709 -0.6827
    9SAPS  C212 1124   0.509   5.405   5.250 -0.1284 -0.1530 -0.4023
    9SAPS  H12R 1125   0.497   5.296   5.261 -1.2482  0.1930  3.6365
    9SAPS  C213 1126   0.513   5.456   5.107 -0.1968  0.3782 -0.0222
    9SAPS  H13R 1127   0.619   5.462   5.072 -0.3558  2.0676 -0.3132
    9SAPS  H13S 1128   0.472   5.559   5.107 -1.3551 -0.0567  1.1634
    9SAPS  C214 1129   0.436   5.370   5.005  0.7943 -0.3101  0.0359
    9SAPS  H14R 1130   0.339   5.336   5.044  1.2831  0.5899  2.1881
    9SAPS  C215 1131   0.462   5.337   4.878 -0.4037  0.1256 -0.6195
    9SAPS  H15R 1132   0.403   5.265   4.820  0.3741  0.6387 -2.0941
    9SAPS  C216 1133   0.582   5.380   4.802 -0.0915  0.1123 -0.2176
    9SAPS  H16R 1134   0.654   5.436   4.864  0.1018 -0.6175  0.2236
    9SAPS  H16S 1135   0.541   5.450   4.726 -1.3077 -0.6878 -0.3389
    9SAPS  C217 1136   0.644   5.250   4.746  0.1290 -0.6106 -0.3652
    9SAPS  H17R 1137   0.577   5.212   4.666  1.0362 -2.7912 -0.1527
    9SAPS  H17S 1138   0.647   5.161   4.812 -2.8608 -1.0026 -0.6297
    9SAPS  C218 1139   0.779   5.283   4.670  0.3209 -0.8301 -1.5963
    9SAPS  H18R 1140   0.857   5.316   4.742  1.1158  0.5155 -3.0038
    9SAPS  H18S 1141   0.771   5.371   4.603 -1.9685  0.4213  0.1865
    9SAPS  C219 1142   0.852   5.180   4.583 -0.4254 -0.8220 -0.3973
    9SAPS  H19R 1143   0.791   5.149   4.496 -1.7871 -0.8050  0.5186
    9SAPS  H19S 1144   0.855   5.086   4.642 -0.9594  0.8423  2.4622
    9SAPS  C220 1145   0.997   5.219   4.542  0.6612  0.7742 -0.5289
    9SAPS  H20R 1146   0.988   5.297   4.463 -0.5808  0.8789 -0.3112
    9SAPS  H20S 1147   1.039   5.131   4.488 -0.3103 -0.7367  1.0707
    9SAPS  H20T 1148   1.048   5.246   4.636  0.2125  0.2222 -0.1199
    9SAPS   C33 1149   0.913   5.277   5.946  0.1785 -0.2797  0.4958
    9SAPS   H3X 1150   0.822   5.333   5.974 -2.0139 -2.4880 -1.6143
    9SAPS   H3Y 1151   0.868   5.182   5.909 -1.3857  0.3521  0.6974
    9SAPS   C34 1152   0.983   5.350   5.829 -0.3873 -0.0546 -0.0443
    9SAPS   H4X 1153   1.058   5.283   5.782  1.6022 -0.1988  3.0494
    9SAPS   H4Y 1154   1.027   5.443   5.870 -0.4291 -0.0800  0.0566
    9SAPS   C35 1155   0.885   5.406   5.725 -0.2726  0.1377 -0.1018
    9SAPS   H5X 1156   0.816   5.482   5.766 -0.5896 -1.2201  2.0556
    9SAPS   H5Y 1157   0.811   5.330   5.692  0.7538 -0.9520  0.0439
    9SAPS   C36 1158   0.974   5.456   5.602 -0.0418 -0.1570 -0.0446
    9SAPS   H6X 1159   1.017   5.361   5.563 -1.2640 -1.0700  0.7425
    9SAPS   H6Y 1160   1.057   5.528   5.619  0.0567 -0.1733 -0.4407
    9SAPS   C37 1161   0.876   5.510   5.503  0.5600 -0.6167 -0.0781
    9SAPS   H7X 1162   0.809   5.588   5.546  0.1600  0.0774 -1.8575
    9SAPS   H7Y 1163   0.802   5.428   5.499  0.0980 -0.1832 -0.7234
    9SAPS   C38 1164   0.953   5.541   5.373  1.0588 -0.7505  0.5449
    9SAPS   H8X 1165   1.002   5.451   5.329  1.5223  0.1163 -0.7388
    9SAPS   H8Y 1166   1.037   5.613   5.382  2.4214 -1.9482 -1.6349
    9SAPS   C39 1167   0.852   5.596   5.261 -0.6131  0.2951 -0.8195
    9SAPS   H9X 1168   0.794   5.679   5.307 -1.2003 -1.7831  2.5835
    9SAPS   H9Y 1169   0.789   5.506   5.244 -0.9635 -0.0022  1.5673
    9SAPS  C310 1170   0.911   5.643   5.137  0.3744 -0.0421  0.7727
    9SAPS  H10X 1171   0.936   5.552   5.078  1.3683  0.2706  0.7014
    9SAPS  H10Y 1172   0.998   5.705   5.165  1.1150 -1.3513  1.4601
    9SAPS  C311 1173   0.798   5.718   5.055  0.0347 -0.6897  0.2526
    9SAPS  H11X 1174   0.748   5.781   5.132  0.1535 -0.9535  0.5510
    9SAPS  H11Y 1175   0.717   5.647   5.028 -0.3851 -0.7321  1.5257
    9SAPS  C312 1176   0.835   5.810   4.941  0.0851 -0.1940  0.2672
    9SAPS  H12X 1177   0.909   5.888   4.966 -0.5186  0.5896 -0.2995
    9SAPS  H12Y 1178   0.737   5.856   4.912  0.0882  0.4708  1.2605
    9SAPS  C313 1179   0.880   5.737   4.817  0.4030  0.6211  0.4030
    9SAPS  H13X 1180   0.822   5.643   4.829 -0.4244  0.9133 -1.0812
    9SAPS  H13Y 1181   0.986   5.707   4.833 -0.1149 -0.7680  1.4019
    9SAPS  C314 1182   0.846   5.797   4.679 -0.2888  0.4081  0.2694
    9SAPS  H14X 1183   0.888   5.900   4.672 -1.6394  0.8891 -1.5395
    9SAPS  H14Y 1184   0.741   5.805   4.645  0.1741 -0.3319 -1.4440
    9SAPS  C315 1185   0.899   5.702   4.568  0.1932 -0.6827 -0.7514
    9SAPS  H15X 1186   0.895   5.593   4.589 -2.6107 -0.3878  0.8114
    9SAPS  H15Y 1187   1.002   5.733   4.543 -0.7998  2.6054 -1.2350
    9SAPS  C316 1188   0.821   5.720   4.440 -0.4563  0.2900  0.4674
    9SAPS  H16X 1189   0.806   5.827   4.412  0.5457  0.0737 -0.9899
    9SAPS  H16Y 1190   0.722   5.669   4.445 -0.9593  0.9592 -1.6564
    9SAPS  C317 1191   0.893   5.663   4.319 -0.7501  0.2677  0.4499
    9SAPS  H17X 1192   0.903   5.556   4.347 -2.0942 -0.2085 -0.7310
    9SAPS  H17Y 1193   1.000   5.689   4.313 -0.5389 -0.5122  0.7546
    9SAPS  C318 1194   0.832   5.681   4.184  0.5176  0.2538 -0.4640
    9SAPS  H18X 1195   0.824   5.791   4.170  3.6318  0.8079  1.1728
    9SAPS  H18Y 1196   0.727   5.646   4.190  0.2724  0.6825 -1.9063
    9SAPS  H18Z 1197   0.886   5.651   4.092 -0.0990  0.9814 -1.0718
   10SAPS     N 1198   2.393   0.149   7.206  0.0108  0.6009  0.5652
   10SAPS   HN1 1199   2.319   0.149   7.134 -0.9125 -0.5523  1.4727
   10SAPS   HN2 1200   2.381   0.229   7.272  2.4701  1.8556 -0.3842
   10SAPS   HN3 1201   2.488   0.151   7.164 -0.2892 -2.1812 -0.4536
   10SAPS   C12 1202   2.389   0.028   7.295 -0.1265 -0.3835  0.0639
   10SAPS  H12A 1203   2.436  -0.051   7.237 -0.2705 -0.2130 -0.2922
   10SAPS   C13 1204   2.483   0.049   7.423  0.4729 -0.8184  0.0264
   10SAPS  O13A 1205   2.518   0.165   7.461 -0.2547  0.2932 -0.5732
   10SAPS  O13B 1206   2.510  -0.055   7.494 -0.0928  0.1189  0.9157
   10SAPS   C11 1207   2.241  -0.016   7.338 -0.4037 -0.4604  0.0589
   10SAPS  H11A 1208   2.181   0.071   7.370  0.5403  0.3101 -0.2451
   10SAPS  H11B 1209   2.239  -0.087   7.424 -1.4720 -0.7255 -0.1725
   10SAPS     P 1210   2.120  -0.018   7.104  0.0041  0.3456 -0.1665
   10SAPS   O13 1211   1.987   0.034   7.148 -0.8336 -0.2508  0.4623
   10SAPS   O14 1212   2.209   0.084   7.050 -0.6176 -0.3758  0.1127
   10SAPS   O12 1213   2.183  -0.089   7.232 -0.0685 -0.1268  0.0477
   10SAPS   O11 1214   2.097  -0.135   7.009  0.0034 -0.5056 -0.1084
   10SAPS    C1 1215   2.202  -0.207   6.956  0.1102  0.5071  0.1105
   10SAPS    HA 1216   2.299  -0.197   7.007 -0.6969 -1.7454  2.2861
   10SAPS    HB 1217   2.186  -0.317   6.964  0.5563  0.1870 -2.5144
   10SAPS    C2 1218   2.228  -0.160   6.808 -0.3184  0.2236  0.2332
   10SAPS    HS 1219   2.234  -0.050   6.816 -1.1407  0.3815 -1.1194
   10SAPS   O21 1220   2.113  -0.203   6.736  0.0383  0.0713 -0.2830
   10SAPS   C21 1221   2.023  -0.106   6.708 -0.0197  0.1915 -0.0467
   10SAPS   O22 1222   2.039   0.010   6.735 -0.3367 -0.4634 -0.2561
   10SAPS   C22 1223   1.903  -0.159   6.629  0.4929 -0.0457 -0.2692
   10SAPS   H2R 1224   1.917  -0.267   6.606 -1.3259 -0.3737 -0.0078
   10SAPS   H2S 1225   1.811  -0.167   6.691  0.7538 -1.5538 -0.0411
   10SAPS    C3 1226   2.354  -0.225   6.759  0.4904 -0.0580 -0.1077
   10SAPS    HX 1227   2.346  -0.336   6.754  0.0341 -0.0751  0.8749
   10SAPS    HY 1228   2.433  -0.213   6.836 -0.2626  1.1852  0.4957
   10SAPS   O31 1229   2.396  -0.168   6.634  0.0371 -0.5606  0.6880
   10SAPS   C31 1230   2.478  -0.064   6.639 -0.6807 -0.3067 -0.0789
   10SAPS   O32 1231   2.514  -0.016   6.745  0.0941 -0.0398 -0.7518
   10SAPS   C32 1232   2.501  -0.020   6.493  0.9446  0.0976  0.0097
   10SAPS   H2X 1233   2.563   0.072   6.501  1.3272  0.1329 -2.5389
   10SAPS   H2Y 1234   2.406   0.007   6.443  0.6899 -1.8172 -0.6050
   10SAPS   C23 1235   1.883  -0.084   6.497  0.2840 -0.0575 -0.0954
   10SAPS   H3R 1236   1.985  -0.071   6.455  0.5053 -1.4735 -0.0245
   10SAPS   H3S 1237   1.832   0.014   6.506 -1.7347 -1.1416  0.8929
   10SAPS   C24 1238   1.802  -0.162   6.393 -0.1626  0.4559  0.3651
   10SAPS   H4R 1239   1.846  -0.263   6.378 -1.0812  0.3947 -2.3642
   10SAPS   H4S 1240   1.815  -0.120   6.291 -0.3515 -0.4941 -0.0551
   10SAPS   C25 1241   1.661  -0.174   6.442 -0.7227 -0.4095  0.4280
   10SAPS   H5R 1242   1.650  -0.206   6.547  0.0489  0.5522  0.8228
   10SAPS   C26 1243   1.554  -0.116   6.382 -0.5003 -0.0657 -0.2670
   10SAPS   H6R 1244   1.457  -0.144   6.425 -0.0850 -2.1183 -0.5838
   10SAPS   C27 1245   1.551  -0.038   6.257 -0.0834 -0.4489  0.2855
   10SAPS   H7R 1246   1.547  -0.098   6.164 -1.2860  2.3538 -1.6396
   10SAPS   H7S 1247   1.648   0.016   6.248  0.8437 -2.2742 -1.3870
   10SAPS   C28 1248   1.440   0.069   6.230 -0.7788 -0.5883 -0.3627
   10SAPS   H8R 1249   1.356   0.067   6.302  0.0656  2.7734  0.9098
   10SAPS   C29 1250   1.424   0.145   6.123 -0.2479  0.3341  0.1754
   10SAPS   H9R 1251   1.338   0.214   6.119  0.8327  1.6933 -1.7976
   10SAPS  C210 1252   1.521   0.148   6.008 -0.2159 -1.1944 -0.3565
   10SAPS  H10R 1253   1.477   0.082   5.931  1.7402 -3.1413  0.1001
   10SAPS  H10S 1254   1.620   0.107   6.037  0.5124  0.7390  0.1101
   10SAPS  C211 1255   1.540   0.281   5.944 -0.3643  0.0510 -0.5234
   10SAPS  H11R 1256   1.583   0.351   6.017 -1.4349  0.2220 -0.0349
   10SAPS  C212 1257   1.485   0.321   5.835 -0.0470 -0.3715  0.5123
   10SAPS  H12R 1258   1.516   0.418   5.793 -0.7659  0.4181  1.7383
   10SAPS  C213 1259   1.409   0.225   5.742  0.9573 -1.0979 -0.8011
   10SAPS  H13R 1260   1.357   0.283   5.663  0.0096 -0.5355  0.2107
   10SAPS  H13S 1261   1.327   0.168   5.790  0.1708  0.6025 -0.0259
   10SAPS  C214 1262   1.490   0.126   5.659 -0.0564  0.1058 -0.3387
   10SAPS  H14R 1263   1.473   0.023   5.694 -1.0607  0.8945  1.6511
   10SAPS  C215 1264   1.589   0.143   5.569 -0.3371 -0.2382  0.3339
   10SAPS  H15R 1265   1.652   0.058   5.540 -0.2463 -0.6997  1.7647
   10SAPS  C216 1266   1.631   0.273   5.512 -0.0674 -0.4240 -0.8432
   10SAPS  H16R 1267   1.734   0.247   5.480  1.0459  1.6473  0.7944
   10SAPS  H16S 1268   1.626   0.362   5.578 -1.8951 -1.9205  1.2027
   10SAPS  C217 1269   1.556   0.291   5.374  0.1416  0.3621 -0.6445
   10SAPS  H17R 1270   1.446   0.295   5.385  0.1202 -1.4431  0.1546
   10SAPS  H17S 1271   1.575   0.201   5.311 -0.4489  1.3201 -2.2425
   10SAPS  C218 1272   1.597   0.415   5.299 -0.1460  0.6398  0.0636
   10SAPS  H18R 1273   1.705   0.413   5.272 -0.2519  0.8854 -0.4009
   10SAPS  H18S 1274   1.565   0.499   5.365 -0.9374 -0.1002  0.6371
   10SAPS  C219 1275   1.508   0.420   5.172 -0.1759 -0.3207  0.2663
   10SAPS  H19R 1276   1.490   0.524   5.136 -1.6172 -1.0077 -1.1263
   10SAPS  H19S 1277   1.402   0.396   5.197 -0.8005  3.1541  1.5421
   10SAPS  C220 1278   1.573   0.348   5.055  0.6179 -0.5050  0.4846
   10SAPS  H20R 1279   1.680   0.380   5.051  0.6423 -0.1442  2.5559
   10SAPS  H20S 1280   1.525   0.384   4.961  0.4693 -0.2048  0.6716
   10SAPS  H20T 1281   1.557   0.238   5.058 -0.9848 -0.2942  0.6968
   10SAPS   C33 1282   2.574  -0.129   6.415 -0.0298  0.1350  0.2406
   10SAPS   H3X 1283   2.525  -0.226   6.437  1.0993 -0.3463  0.7185
   10SAPS   H3Y 1284   2.678  -0.132   6.454  0.4144 -2.2569 -0.9572
   10SAPS   C34 1285   2.572  -0.092   6.268 -0.3246  0.0263 -0.4442
   10SAPS   H4X 1286   2.626   0.004   6.255  0.4090 -0.3342 -0.1266
   10SAPS   H4Y 1287   2.468  -0.072   6.235  0.0417 -2.2148 -3.4389
   10SAPS   C35 1288   2.631  -0.199   6.169  0.6310 -0.1869 -0.0127
   10SAPS   H5X 1289   2.555  -0.278   6.152 -0.4295  0.7326  0.3757
   10SAPS   H5Y 1290   2.729  -0.235   6.207  0.7973  0.0309 -0.2335
   10SAPS   C36 1291   2.643  -0.147   6.029 -0.3776 -0.0295  0.3434
   10SAPS   H6X 1292   2.748  -0.111   6.024  0.4825 -2.1619  1.5419
   10SAPS   H6Y 1293   2.573  -0.061   6.019  0.5588  1.0848  2.5981
   10SAPS   C37 1294   2.614  -0.254   5.924  0.0678 -0.5799 -0.1642
   10SAPS   H7X 1295   2.515  -0.300   5.946 -0.6292  1.7819  2.2003
   10SAPS   H7Y 1296   2.687  -0.337   5.934  1.0670  0.3472  0.5704
   10SAPS   C38 1297   2.606  -0.195   5.788 -0.0865 -0.8971  0.0818
   10SAPS   H8X 1298   2.538  -0.107   5.780  1.0156  0.0291  0.7179
   10SAPS   H8Y 1299   2.570  -0.280   5.725 -0.5085 -1.9912  1.7085
   10SAPS   C39 1300   2.732  -0.128   5.742 -0.3755 -0.7457  0.1436
   10SAPS   H9X 1301   2.827  -0.179   5.769  0.1248  0.6192  1.0876
   10SAPS   H9Y 1302   2.752  -0.039   5.805  2.2195 -1.0598 -0.1254
   10SAPS  C310 1303   2.735  -0.100   5.588 -0.1155  0.0014 -0.1351
   10SAPS  H10X 1304   2.834  -0.052   5.571  0.9249 -1.4509  1.4826
   10SAPS  H10Y 1305   2.657  -0.025   5.563  0.5610  1.9080  3.0042
   10SAPS  C311 1306   2.724  -0.228   5.508  0.0245 -0.2548  0.6298
   10SAPS  H11X 1307   2.649  -0.299   5.549 -1.0262  0.9371  0.8189
   10SAPS  H11Y 1308   2.818  -0.287   5.506  1.4901  1.9430 -1.4062
   10SAPS  C312 1309   2.692  -0.193   5.358 -0.0523  0.3801  0.3880
   10SAPS  H12X 1310   2.606  -0.123   5.361  0.7167  1.3173  2.1073
   10SAPS  H12Y 1311   2.678  -0.289   5.305  4.2860  0.7483 -1.9274
   10SAPS  C313 1312   2.815  -0.124   5.291 -0.1951  0.4335 -0.1145
   10SAPS  H13X 1313   2.891  -0.206   5.289  0.4085  0.8607  2.0261
   10SAPS  H13Y 1314   2.831  -0.031   5.349 -1.5556 -0.4637  1.8256
   10SAPS  C314 1315   2.792  -0.097   5.142  0.0538  0.8615 -0.1055
   10SAPS  H14X 1316   2.721  -0.013   5.133  1.1756  1.6286 -2.9151
   10SAPS  H14Y 1317   2.755  -0.195   5.107  1.7401  0.7006 -1.5919
   10SAPS  C315 1318   2.925  -0.055   5.075 -0.7853  0.2032  0.1026
   10SAPS  H15X 1319   3.004  -0.132   5.086  0.9790  2.0532  0.9228
   10SAPS  H15Y 1320   2.978   0.038   5.104  0.0091  0.5578 -2.3111
   10SAPS  C316 1321   2.907  -0.040   4.921  0.3844 -0.8242 -0.1800
   10SAPS  H16X 1322   2.840  -0.113   4.872 -0.8015  1.4450 -2.1245
   10SAPS  H16Y 1323   3.004  -0.031   4.867 -0.2343 -0.6296 -1.2868
   10SAPS  C317 1324   2.818   0.096   4.890 -0.1650  0.6188  0.5556
   10SAPS  H17X 1325   2.860   0.186   4.940  2.0003  0.6498 -1.1516
   10SAPS  H17Y 1326   2.713   0.077   4.920 -0.5883 -0.9890 -1.6733
   10SAPS  C318 1327   2.817   0.108   4.738  0.1309  0.2386  1.1215
   10SAPS  H18X 1328   2.743   0.186   4.712  0.6209  0.6061  0.8175
   10SAPS  H18Y 1329   2.789   0.012   4.690  1.5980 -0.0485  0.7987
   10SAPS  H18Z 1330   2.919   0.126   4.697 -0.8741 -1.3992 -2.4708
   11SAPS     N 1331   3.095   3.314   1.960  0.3495  0.9231 -0.2684
   11SAPS   HN1 1332   3.130   3.283   1.868 -0.4436  1.9003 -0.9154
   11SAPS   HN2 1333   3.105   3.231   2.022  1.1143  1.0888 -0.1574
   11SAPS   HN3 1334   2.997   3.348   1.963  1.2083  3.6205 -0.4068
   11SAPS   C12 1335   3.185   3.412   2.021  0.0624 -0.0823  0.3223
   11SAPS  H12A 1336   3.258   3.355   2.076 -1.2443 -1.1538  1.0140
   11SAPS   C13 1337   3.243   3.496   1.907  0.1731  0.0213 -0.2271
   11SAPS  O13A 1338   3.228   3.469   1.792  0.5199  0.3447  0.3039
   11SAPS  O13B 1339   3.302   3.600   1.939 -0.0703  0.0900 -0.0303
   11SAPS   C11 1340   3.102   3.502   2.119 -0.3122 -0.0233 -0.2917
   11SAPS  H11A 1341   3.167   3.583   2.161 -0.7953 -1.0140  2.6055
   11SAPS  H11B 1342   3.080   3.431   2.201 -0.8427 -1.5754 -1.7422
   11SAPS     P 1343   2.916   3.680   2.113 -0.0797 -0.0666  0.4004
   11SAPS   O13 1344   3.010   3.788   2.091 -1.0081 -0.2413 -0.4836
   11SAPS   O14 1345   2.781   3.686   2.058 -0.4012  0.0441  0.6882
   11SAPS   O12 1346   2.978   3.544   2.062 -0.4052  0.0137 -0.1959
   11SAPS   O11 1347   2.903   3.652   2.273 -0.4814 -0.1275  0.1930
   11SAPS    C1 1348   2.833   3.528   2.308  0.1351 -0.1335  0.2891
   11SAPS    HA 1349   2.723   3.542   2.303  0.2531  2.9498  2.8991
   11SAPS    HB 1350   2.859   3.446   2.238  2.8200  0.1766  0.8181
   11SAPS    C2 1351   2.873   3.471   2.454 -0.0455 -0.2474  0.2597
   11SAPS    HS 1352   2.844   3.365   2.466 -0.3270 -0.2258 -0.1952
   11SAPS   O21 1353   2.804   3.548   2.552  1.0698  0.7262  0.5028
   11SAPS   C21 1354   2.670   3.529   2.563 -0.2222 -0.1415 -0.4069
   11SAPS   O22 1355   2.602   3.443   2.505 -0.4594 -0.4802  0.1017
   11SAPS   C22 1356   2.617   3.628   2.667  0.5466 -0.1630 -0.3890
   11SAPS   H2R 1357   2.688   3.625   2.752 -1.4274  0.4431  1.3416
   11SAPS   H2S 1358   2.621   3.729   2.621  4.3379  0.5556  1.1471
   11SAPS    C3 1359   3.028   3.471   2.480 -0.5911 -0.1430 -0.4617
   11SAPS    HX 1360   3.071   3.571   2.461  0.9910 -0.9294 -1.2467
   11SAPS    HY 1361   3.083   3.398   2.416 -0.5848 -1.1288  0.6117
   11SAPS   O31 1362   3.054   3.437   2.620 -0.0200 -0.0475  0.0416
   11SAPS   C31 1363   3.058   3.540   2.699 -0.4963  0.1814 -0.3935
   11SAPS   O32 1364   3.030   3.653   2.670 -0.1885 -0.3957  0.0699
   11SAPS   C32 1365   3.108   3.487   2.836  0.1588 -0.4801 -0.2981
   11SAPS   H2X 1366   3.218   3.470   2.832  0.0970 -0.8799 -0.3479
   11SAPS   H2Y 1367   3.060   3.389   2.858 -0.8907  0.0782 -0.0166
   11SAPS   C23 1368   2.480   3.590   2.722 -0.9232  0.1891  0.1933
   11SAPS   H3R 1369   2.461   3.481   2.712 -1.9530  0.1908  1.8617
   11SAPS   H3S 1370   2.404   3.642   2.659  0.5636  0.6500 -1.3005
   11SAPS   C24 1371   2.471   3.635   2.869  0.2437 -0.4224  0.6027
   11SAPS   H4R 1372   2.528   3.571   2.939 -4.5298 -1.5482  3.9551
   11SAPS   H4S 1373   2.371   3.622   2.915  0.0587 -0.4740  0.1875
   11SAPS   C25 1374   2.517   3.779   2.879  0.0955  0.0306  0.0051
   11SAPS   H5R 1375   2.470   3.847   2.808 -0.7869  0.1615  0.6950
   11SAPS   C26 1376   2.597   3.819   2.980  0.0092  0.2665  0.0210
   11SAPS   H6R 1377   2.636   3.921   2.971  0.0208  0.1643 -1.3713
   11SAPS   C27 1378   2.663   3.736   3.086 -1.3039  0.2776  0.0212
   11SAPS   H7R 1379   2.710   3.645   3.042 -0.5989  1.0142 -0.7786
   11SAPS   H7S 1380   2.592   3.700   3.164  0.5172 -0.8784  1.2354
   11SAPS   C28 1381   2.777   3.812   3.151  0.2446 -0.3232  0.0149
   11SAPS   H8R 1382   2.838   3.860   3.073 -0.7527 -1.6999 -1.6884
   11SAPS   C29 1383   2.805   3.830   3.285  0.3719 -0.1064  0.1939
   11SAPS   H9R 1384   2.895   3.890   3.307 -0.4192  0.2356  2.8990
   11SAPS  C210 1385   2.738   3.762   3.407  0.9678 -0.1642 -0.0529
   11SAPS  H10R 1386   2.805   3.738   3.492  2.7789 -0.0666 -1.3985
   11SAPS  H10S 1387   2.705   3.663   3.370  0.8311 -0.2597  0.3239
   11SAPS  C211 1388   2.627   3.855   3.456  0.3703 -0.3020 -0.2507
   11SAPS  H11R 1389   2.545   3.887   3.389  1.5849 -0.5509 -1.9146
   11SAPS  C212 1390   2.610   3.897   3.582 -0.3911 -0.6738 -0.1307
   11SAPS  H12R 1391   2.528   3.961   3.619  0.4248  0.5562 -0.3871
   11SAPS  C213 1392   2.699   3.852   3.700  0.2780 -1.0824  0.4973
   11SAPS  H13R 1393   2.766   3.766   3.678  1.0587 -0.1522 -0.8413
   11SAPS  H13S 1394   2.628   3.823   3.780  2.3395  1.4379  3.5085
   11SAPS  C214 1395   2.761   3.976   3.759  0.5811 -0.0613 -0.4597
   11SAPS  H14R 1396   2.860   3.991   3.714  0.8675 -1.8278 -0.5008
   11SAPS  C215 1397   2.717   4.054   3.863 -0.1248  0.7334  0.0617
   11SAPS  H15R 1398   2.772   4.144   3.893  0.2556  0.5027  0.0610
   11SAPS  C216 1399   2.590   4.040   3.938 -0.2612  0.4797 -0.0187
   11SAPS  H16R 1400   2.514   3.991   3.873  0.0066  0.1100 -0.0574
   11SAPS  H16S 1401   2.552   4.140   3.966 -2.5223 -0.2610 -0.1892
   11SAPS  C217 1402   2.620   3.940   4.058  0.5909  0.0173 -0.2681
   11SAPS  H17R 1403   2.659   3.997   4.144  1.7230 -1.3286  0.1374
   11SAPS  H17S 1404   2.689   3.858   4.028 -0.6492 -2.1961  2.4305
   11SAPS  C218 1405   2.496   3.867   4.094 -0.4133  0.3273  0.0828
   11SAPS  H18R 1406   2.468   3.814   4.001  1.2530  1.0462 -0.8815
   11SAPS  H18S 1407   2.403   3.920   4.125 -2.3254 -1.4603 -2.2380
   11SAPS  C219 1408   2.518   3.784   4.219  0.8608  0.1673 -0.2894
   11SAPS  H19R 1409   2.531   3.839   4.314  0.4502  1.0499 -0.7357
   11SAPS  H19S 1410   2.606   3.717   4.210  0.9098  0.2700 -0.5711
   11SAPS  C220 1411   2.405   3.688   4.248 -0.4076 -0.6462  0.1392
   11SAPS  H20R 1412   2.312   3.745   4.271 -0.1776  0.3039 -1.1737
   11SAPS  H20S 1413   2.428   3.612   4.326  2.6407 -0.9282 -0.9046
   11SAPS  H20T 1414   2.376   3.634   4.156  2.8052  1.7359 -2.5076
   11SAPS   C33 1415   3.076   3.576   2.964  0.3457 -0.5518  0.6903
   11SAPS   H3X 1416   2.967   3.596   2.967  0.3412 -0.0810 -1.2950
   11SAPS   H3Y 1417   3.132   3.670   2.945  0.3287 -0.4840  0.9689
   11SAPS   C34 1418   3.122   3.498   3.091 -0.1111 -0.4265 -0.8709
   11SAPS   H4X 1419   3.223   3.451   3.087 -1.1246 -3.1524  1.6697
   11SAPS   H4Y 1420   3.067   3.401   3.091  1.7708 -1.5390 -0.3414
   11SAPS   C35 1421   3.103   3.570   3.219 -0.4713 -0.1421 -0.2090
   11SAPS   H5X 1422   3.006   3.623   3.226  0.3039  1.2720  0.3189
   11SAPS   H5Y 1423   3.185   3.645   3.216  2.0919 -2.6996  1.0777
   11SAPS   C36 1424   3.119   3.479   3.340 -0.5601 -0.2595 -0.6192
   11SAPS   H6X 1425   3.227   3.458   3.354 -1.0834 -2.5694  0.3661
   11SAPS   H6Y 1426   3.066   3.385   3.314 -1.5285 -0.0105  0.3375
   11SAPS   C37 1427   3.068   3.539   3.467 -0.1388  0.2300 -0.1968
   11SAPS   H7X 1428   2.960   3.566   3.464 -0.3104 -0.3534  0.4298
   11SAPS   H7Y 1429   3.104   3.644   3.468 -0.2087  0.3010 -2.0019
   11SAPS   C38 1430   3.097   3.463   3.595  0.0010  0.4799 -0.0590
   11SAPS   H8X 1431   3.205   3.461   3.619  0.1933 -1.4513 -0.9262
   11SAPS   H8Y 1432   3.073   3.356   3.580  3.0944 -0.6764  2.1898
   11SAPS   C39 1433   3.014   3.508   3.712  0.2072  0.0513 -0.1560
   11SAPS   H9X 1434   3.031   3.427   3.787  1.9459  2.6887  2.4896
   11SAPS   H9Y 1435   2.904   3.499   3.694  0.1411  1.1836 -0.3708
   11SAPS  C310 1436   3.049   3.648   3.765  0.2269  0.5924 -0.4126
   11SAPS  H10X 1437   3.012   3.716   3.685 -1.3625  1.9378  1.3790
   11SAPS  H10Y 1438   3.159   3.656   3.778  0.4097 -0.7459 -0.8875
   11SAPS  C311 1439   2.970   3.694   3.890 -0.0622  0.0687  0.2169
   11SAPS  H11X 1440   2.861   3.676   3.872 -0.1717  0.9283 -0.0342
   11SAPS  H11Y 1441   2.981   3.803   3.905 -1.2036  0.2081  0.1327
   11SAPS  C312 1442   2.995   3.608   4.017 -0.3201 -0.7441  0.3990
   11SAPS  H12X 1443   3.105   3.620   4.027 -0.5115  0.7347  0.9415
   11SAPS  H12Y 1444   2.978   3.500   3.997 -0.5830 -0.3789 -1.6362
   11SAPS  C313 1445   2.927   3.661   4.146  0.3359  0.2676  0.4088
   11SAPS  H13X 1446   2.821   3.687   4.127 -0.7109 -3.2401  0.7390
   11SAPS  H13Y 1447   2.970   3.757   4.182 -1.0872  1.3108 -0.5684
   11SAPS  C314 1448   2.924   3.547   4.248 -0.3106  0.3188 -0.0230
   11SAPS  H14X 1449   2.895   3.452   4.200  0.5911  0.0137  0.0123
   11SAPS  H14Y 1450   2.844   3.580   4.317 -1.4079 -1.9739 -0.1180
   11SAPS  C315 1451   3.059   3.525   4.323 -0.6423 -0.0241 -0.6360
   11SAPS  H15X 1452   3.131   3.480   4.252  0.6906 -1.1427  1.3325
   11SAPS  H15Y 1453   3.036   3.451   4.403  1.2322  0.1105  0.0788
   11SAPS  C316 1454   3.125   3.653   4.377  0.8551 -0.1427 -0.0209
   11SAPS  H16X 1455   3.149   3.730   4.301 -1.5155  0.6680 -0.0188
   11SAPS  H16Y 1456   3.216   3.622   4.433  0.6642  0.1146  0.4384
   11SAPS  C317 1457   3.039   3.725   4.484  0.0311  0.5278 -0.6207
   11SAPS  H17X 1458   3.027   3.647   4.562  1.7475 -1.7914 -2.5187
   11SAPS  H17Y 1459   2.940   3.758   4.445 -1.1998 -1.8738  0.2742
   11SAPS  C318 1460   3.116   3.846   4.534 -0.5696  0.7575 -0.2420
   11SAPS  H18X 1461   3.210   3.811   4.581 -0.6615  0.6001 -0.1759
   11SAPS  H18Y 1462   3.060   3.897   4.615  0.9375  1.5252  0.3436
   11SAPS  H18Z 1463   3.140   3.917   4.451 -3.6200  2.1084 -0.1138
   12SAPS     N 1464   1.836   3.225   2.190 -0.2212  0.0842 -0.1810
   12SAPS   HN1 1465   1.848   3.328   2.185 -0.7151  0.1091 -1.0152
   12SAPS   HN2 1466   1.733   3.213   2.202 -0.5073  2.4302  0.2734
   12SAPS   HN3 1467   1.874   3.205   2.285  1.2224  1.3111 -0.4632
   12SAPS   C12 1468   1.902   3.164   2.080 -0.3382  0.3143 -0.5483
   12SAPS  H12A 1469   1.879   3.225   1.994 -1.9404 -0.1996 -0.5172
   12SAPS   C13 1470   2.060   3.176   2.103 -0.5648 -0.0047  0.2344
   12SAPS  O13A 1471   2.101   3.219   2.212 -0.2161 -0.2825  0.4118
   12SAPS  O13B 1472   2.137   3.119   2.018  0.1589 -0.1059 -0.1914
   12SAPS   C11 1473   1.861   3.020   2.065  0.2910  0.0552 -0.2212
   12SAPS  H11A 1474   1.926   2.975   1.986  3.3817  1.2141  1.5047
   12SAPS  H11B 1475   1.756   3.034   2.033 -0.2613 -0.4643  1.2867
   12SAPS     P 1476   1.845   2.782   2.174  0.1821  0.4284 -0.2448
   12SAPS   O13 1477   1.748   2.756   2.068  0.1501  0.3216  0.1821
   12SAPS   O14 1478   1.976   2.719   2.143 -0.1888 -0.5430 -0.1020
   12SAPS   O12 1479   1.869   2.944   2.185 -0.2450 -0.2867 -0.4683
   12SAPS   O11 1480   1.792   2.738   2.314 -0.4358  0.3314 -1.2235
   12SAPS    C1 1481   1.825   2.818   2.437 -0.1753  1.0276  0.0351
   12SAPS    HA 1482   1.831   2.928   2.420 -0.5803  1.1600  0.7493
   12SAPS    HB 1483   1.742   2.807   2.510  0.1447  1.4992  0.4779
   12SAPS    C2 1484   1.958   2.760   2.504  0.5956 -0.5411  0.0723
   12SAPS    HS 1485   2.023   2.758   2.414  0.7327 -1.8037  0.1805
   12SAPS   O21 1486   1.934   2.626   2.549  0.1367 -0.1623 -0.0318
   12SAPS   C21 1487   2.043   2.565   2.587 -0.4913 -0.3566 -0.1539
   12SAPS   O22 1488   2.156   2.598   2.556  0.6458  0.2413  0.7216
   12SAPS   C22 1489   2.004   2.443   2.666 -0.1277 -0.5226  0.0539
   12SAPS   H2R 1490   1.975   2.487   2.764  1.4662  0.8583 -0.0494
   12SAPS   H2S 1491   1.916   2.391   2.623 -0.6201 -0.6534  1.1818
   12SAPS    C3 1492   2.015   2.852   2.617  0.9275  0.5277 -0.0586
   12SAPS    HX 1493   2.049   2.944   2.564  0.8045  0.4541 -0.2652
   12SAPS    HY 1494   2.109   2.817   2.665  0.5118  0.7677  0.9550
   12SAPS   O31 1495   1.924   2.859   2.728  0.3007  0.1919  0.2669
   12SAPS   C31 1496   1.886   2.980   2.756  0.1012  0.8887  0.2892
   12SAPS   O32 1497   1.926   3.079   2.689  1.0063 -0.4134  0.5866
   12SAPS   C32 1498   1.810   2.982   2.885  0.1167 -0.4735  0.2123
   12SAPS   H2X 1499   1.885   2.966   2.966 -1.2214 -2.9494  1.0489
   12SAPS   H2Y 1500   1.738   2.898   2.887 -1.1773  0.5612 -0.9402
   12SAPS   C23 1501   2.115   2.338   2.695  0.3753 -0.5692  0.0371
   12SAPS   H3R 1502   2.188   2.330   2.612  0.7988  0.9637  0.2284
   12SAPS   H3S 1503   2.069   2.237   2.701  2.6825 -1.7546 -0.9584
   12SAPS   C24 1504   2.195   2.366   2.826  0.3859 -0.3174  0.4595
   12SAPS   H4R 1505   2.262   2.279   2.841 -0.1523 -0.7235  0.4972
   12SAPS   H4S 1506   2.122   2.372   2.910  0.8516  1.0479  0.7945
   12SAPS   C25 1507   2.294   2.486   2.811  1.0071  0.5860 -0.0123
   12SAPS   H5R 1508   2.363   2.466   2.728  0.1439 -2.1884 -0.1766
   12SAPS   C26 1509   2.292   2.589   2.892  0.0393 -0.3191 -0.1308
   12SAPS   H6R 1510   2.356   2.672   2.858  0.1124 -1.4424 -3.0357
   12SAPS   C27 1511   2.191   2.614   3.004  0.2868 -0.3408 -0.1647
   12SAPS   H7R 1512   2.231   2.676   3.086 -0.3276  1.3224 -1.0818
   12SAPS   H7S 1513   2.178   2.526   3.071 -0.5911 -1.5923 -1.8668
   12SAPS   C28 1514   2.050   2.667   2.968 -1.1021 -0.0959 -0.0793
   12SAPS   H8R 1515   2.041   2.679   2.859  1.2525  1.6264 -0.1622
   12SAPS   C29 1516   1.951   2.695   3.049 -0.0210  0.1773  0.3373
   12SAPS   H9R 1517   1.853   2.710   3.002 -0.7414 -0.4245  1.5686
   12SAPS  C210 1518   1.956   2.676   3.200  0.2048 -0.6897  0.4208
   12SAPS  H10R 1519   1.983   2.778   3.236  0.8861  0.1811 -2.3165
   12SAPS  H10S 1520   2.045   2.622   3.239  1.6980  2.5477  1.9514
   12SAPS  C211 1521   1.835   2.617   3.259  0.0871 -0.1704  0.3894
   12SAPS  H11R 1522   1.816   2.516   3.219  0.4872 -0.0157 -0.1935
   12SAPS  C212 1523   1.739   2.671   3.337 -0.1572 -0.2537 -0.4674
   12SAPS  H12R 1524   1.659   2.600   3.363 -1.0011  0.9520  0.3064
   12SAPS  C213 1525   1.709   2.819   3.380  0.2984 -0.1825 -0.2799
   12SAPS  H13R 1526   1.635   2.848   3.301  0.2416 -1.8509 -0.8676
   12SAPS  H13S 1527   1.798   2.886   3.380  1.0932 -1.2115  0.5944
   12SAPS  C214 1528   1.625   2.818   3.505  0.0980 -0.5565 -0.5546
   12SAPS  H14R 1529   1.522   2.782   3.497  0.8440 -3.0371  0.1672
   12SAPS  C215 1530   1.654   2.885   3.620  0.2511  0.3864  0.3688
   12SAPS  H15R 1531   1.592   2.886   3.711  0.4214 -0.7712  0.5091
   12SAPS  C216 1532   1.786   2.960   3.641 -0.0064 -0.4762 -0.0947
   12SAPS  H16R 1533   1.753   3.064   3.626 -1.5832 -0.9925 -0.3872
   12SAPS  H16S 1534   1.869   2.917   3.581 -0.8441 -1.9163 -0.2708
   12SAPS  C217 1535   1.826   2.929   3.792  0.1941  0.1892 -0.6915
   12SAPS  H17R 1536   1.816   2.820   3.811  0.2527  0.3363  0.2388
   12SAPS  H17S 1537   1.759   2.984   3.861 -0.0981 -1.3327  0.3125
   12SAPS  C218 1538   1.970   2.979   3.822  0.6789  0.2145 -0.2028
   12SAPS  H18R 1539   1.964   3.085   3.791  0.5135  1.1908  2.8119
   12SAPS  H18S 1540   2.058   2.937   3.768  2.4365  2.5652  0.6267
   12SAPS  C219 1541   1.988   2.974   3.978  0.6559  0.5625  0.2363
   12SAPS  H19R 1542   1.990   2.866   4.005 -1.1813  0.4367  0.0196
   12SAPS  H19S 1543   1.897   3.018   4.023 -0.3166 -0.6884 -0.4213
   12SAPS  C220 1544   2.103   3.051   4.040 -0.5904  0.7438 -0.4839
   12SAPS  H20R 1545   2.200   2.999   4.022 -0.9072 -0.0982  0.1662
   12SAPS  H20S 1546   2.091   3.058   4.150  0.9066  0.4357 -0.2751
   12SAPS  H20T 1547   2.104   3.156   4.004  0.1546  0.6929 -0.6355
   12SAPS   C33 1548   1.742   3.122   2.904 -0.9638  0.4619 -0.6962
   12SAPS   H3X 1549   1.647   3.135   2.849 -0.7556  0.3480 -1.0903
   12SAPS   H3Y 1550   1.808   3.201   2.862 -0.9478 -0.8911 -3.4423
   12SAPS   C34 1551   1.725   3.161   3.055 -0.1518  0.0274  0.5045
   12SAPS   H4X 1552   1.650   3.093   3.101  0.1271 -0.0374  0.8683
   12SAPS   H4Y 1553   1.674   3.259   3.061  1.5866  1.0680 -0.7820
   12SAPS   C35 1554   1.853   3.166   3.139  0.0862 -0.1837  0.0283
   12SAPS   H5X 1555   1.931   3.225   3.087  2.0194 -2.1623  0.5330
   12SAPS   H5Y 1556   1.905   3.068   3.148 -0.0709 -0.3380 -0.7009
   12SAPS   C36 1557   1.834   3.232   3.275  0.8564  0.3356 -0.3627
   12SAPS   H6X 1558   1.764   3.171   3.336  0.6935  0.1457 -0.7444
   12SAPS   H6Y 1559   1.787   3.331   3.254 -0.1780 -0.1246 -0.2576
   12SAPS   C37 1560   1.958   3.253   3.366 -0.6044  0.1167  0.1086
   12SAPS   H7X 1561   2.042   3.310   3.322  0.3273 -0.3024  1.3234
   12SAPS   H7Y 1562   1.997   3.150   3.382 -1.2174 -0.7532 -3.1693
   12SAPS   C38 1563   1.912   3.315   3.499  0.4777 -0.1433 -0.3500
   12SAPS   H8X 1564   1.993   3.304   3.575  1.4064  1.0109 -1.1493
   12SAPS   H8Y 1565   1.822   3.255   3.524  0.1822  1.0970  1.8390
   12SAPS   C39 1566   1.883   3.461   3.496  0.0713  0.1378  0.0335
   12SAPS   H9X 1567   1.801   3.468   3.421 -0.3240 -1.7822  0.2361
   12SAPS   H9Y 1568   1.973   3.515   3.459  0.0285  0.1166 -0.1008
   12SAPS  C310 1569   1.830   3.521   3.631 -0.0092  0.0249  0.6131
   12SAPS  H10X 1570   1.802   3.621   3.590  2.8416 -0.0266 -1.7405
   12SAPS  H10Y 1571   1.913   3.520   3.705 -0.2704  1.6466  0.9794
   12SAPS  C311 1572   1.698   3.462   3.687 -0.6546  0.1191 -0.0477
   12SAPS  H11X 1573   1.718   3.378   3.757  0.6673  0.6041  0.1861
   12SAPS  H11Y 1574   1.635   3.414   3.610 -1.6611  1.9416 -0.4308
   12SAPS  C312 1575   1.604   3.563   3.756  0.3574  0.1319  0.2502
   12SAPS  H12X 1576   1.519   3.499   3.787  0.8450 -2.0459 -2.5280
   12SAPS  H12Y 1577   1.556   3.636   3.688  0.5814  1.6969  1.6909
   12SAPS  C313 1578   1.671   3.624   3.879  0.3702 -0.5687 -0.7375
   12SAPS  H13X 1579   1.741   3.706   3.852 -2.0486  1.1832 -2.1296
   12SAPS  H13Y 1580   1.728   3.544   3.932  2.3913  0.7599 -0.8139
   12SAPS  C314 1581   1.568   3.680   3.983  1.0164  0.6442  0.7064
   12SAPS  H14X 1582   1.516   3.590   4.022 -1.1362  1.1998 -0.7293
   12SAPS  H14Y 1583   1.490   3.745   3.938  0.4277  1.3707  2.6494
   12SAPS  C315 1584   1.637   3.768   4.090 -0.6141 -0.1049 -0.7648
   12SAPS  H15X 1585   1.667   3.863   4.041  0.9550  0.5216  1.2385
   12SAPS  H15Y 1586   1.727   3.714   4.129 -0.1268 -0.1010 -1.8490
   12SAPS  C316 1587   1.546   3.817   4.204  0.0619 -0.9368 -0.6032
   12SAPS  H16X 1588   1.470   3.740   4.228 -0.3345  0.1308  1.8586
   12SAPS  H16Y 1589   1.470   3.892   4.173  0.7911 -0.8255 -2.2429
   12SAPS  C317 1590   1.622   3.859   4.330 -0.3218 -0.0573  0.0760
   12SAPS  H17X 1591   1.548   3.882   4.410  0.7033  0.3779  0.9150
   12SAPS  H17Y 1592   1.674   3.955   4.308  1.8206 -0.7072  1.9270
   12SAPS  C318 1593   1.714   3.749   4.390  0.0905 -0.1064 -0.3268
   12SAPS  H18X 1594   1.804   3.725   4.328  1.3096 -4.8296  2.7527
   12SAPS  H18Y 1595   1.671   3.649   4.411  1.3275  0.0406  3.7570
   12SAPS  H18Z 1596   1.748   3.780   4.491  1.3534 -0.7063 -0.5396
   13SAPS     N 1597   5.381   2.032   2.284 -0.0395  0.5050 -0.1883
   13SAPS   HN1 1598   5.378   2.134   2.266  2.6067  0.7168  0.2144
   13SAPS   HN2 1599   5.356   2.012   2.383 -1.0574 -0.4669 -0.6185
   13SAPS   HN3 1600   5.479   1.998   2.273  0.2987  1.6374 -0.7817
   13SAPS   C12 1601   5.282   1.966   2.188  0.5787  1.1200 -0.1106
   13SAPS  H12A 1602   5.325   1.978   2.090 -0.2881  2.5072 -0.3473
   13SAPS   C13 1603   5.257   1.816   2.204 -0.1368 -0.1172  0.8942
   13SAPS  O13A 1604   5.302   1.770   2.314 -0.2444 -0.0689  0.6216
   13SAPS  O13B 1605   5.195   1.742   2.126 -0.7272 -0.1968  0.2443
   13SAPS   C11 1606   5.140   2.041   2.188  0.3694  0.0813  0.6318
   13SAPS  H11A 1607   5.089   2.021   2.284  1.4682 -1.7545  0.8811
   13SAPS  H11B 1608   5.085   1.999   2.102 -0.2973 -0.3414  1.2540
   13SAPS     P 1609   5.028   2.273   2.165 -0.4147 -0.0344  0.2730
   13SAPS   O13 1610   5.058   2.415   2.129  0.4235 -0.6110 -0.2030
   13SAPS   O14 1611   4.938   2.207   2.068 -0.4069 -0.3022  0.3280
   13SAPS   O12 1612   5.167   2.187   2.164 -0.0727 -0.1482 -0.5017
   13SAPS   O11 1613   4.963   2.264   2.314  0.3428 -0.0745 -0.1870
   13SAPS    C1 1614   5.058   2.265   2.424 -0.1001  0.0262 -0.7243
   13SAPS    HA 1615   5.133   2.184   2.411  0.3527  0.4628 -0.8540
   13SAPS    HB 1616   5.119   2.357   2.427 -0.7002  0.4116  0.5732
   13SAPS    C2 1617   4.994   2.268   2.556 -0.0255 -0.1361 -0.8977
   13SAPS    HS 1618   5.070   2.291   2.633  0.3747  2.4854 -1.9693
   13SAPS   O21 1619   4.930   2.140   2.585 -0.4485  0.2142  0.0266
   13SAPS   C21 1620   4.999   2.054   2.656 -0.3518 -0.4917 -0.9064
   13SAPS   O22 1621   5.127   2.055   2.658  0.6890 -0.0023 -0.5191
   13SAPS   C22 1622   4.918   1.953   2.736 -0.3946 -0.5924  0.2256
   13SAPS   H2R 1623   4.862   1.895   2.660 -2.0707  1.7213 -0.3940
   13SAPS   H2S 1624   4.983   1.874   2.781  1.0044  0.4756  0.1538
   13SAPS    C3 1625   4.890   2.386   2.564  0.0156  0.4423 -0.1203
   13SAPS    HX 1626   4.807   2.358   2.497  2.3983 -1.1211 -2.6346
   13SAPS    HY 1627   4.941   2.470   2.513 -1.1111  2.2928  1.6557
   13SAPS   O31 1628   4.867   2.405   2.706  1.0242 -0.1836 -1.1101
   13SAPS   C31 1629   4.745   2.356   2.736  0.1275 -0.1395  0.1590
   13SAPS   O32 1630   4.668   2.294   2.669  0.0316  0.1255 -0.0319
   13SAPS   C32 1631   4.708   2.413   2.879  0.0244  0.7833  0.1701
   13SAPS   H2X 1632   4.743   2.518   2.887  0.1954  0.8369 -1.0870
   13SAPS   H2Y 1633   4.754   2.335   2.943 -0.9065 -0.0657 -0.1673
   13SAPS   C23 1634   4.834   2.025   2.842 -0.4528 -0.1163  0.2534
   13SAPS   H3R 1635   4.724   2.015   2.828 -0.1491 -0.6126 -2.1761
   13SAPS   H3S 1636   4.852   2.134   2.849  1.0756 -0.3826  1.0584
   13SAPS   C24 1637   4.867   1.968   2.979 -0.5642  0.0294 -1.0286
   13SAPS   H4R 1638   4.973   1.933   2.979 -0.3453  0.6504 -2.2323
   13SAPS   H4S 1639   4.806   1.875   2.980 -1.0254  0.3284 -1.3135
   13SAPS   C25 1640   4.844   2.057   3.095 -0.2381  0.3610  0.6171
   13SAPS   H5R 1641   4.854   2.165   3.082  1.5570  0.1344 -0.2903
   13SAPS   C26 1642   4.823   2.020   3.215  0.6113 -0.3882 -0.5308
   13SAPS   H6R 1643   4.809   2.098   3.291  1.6524 -1.5059  0.8792
   13SAPS   C27 1644   4.816   1.875   3.266  0.6010 -0.0883 -0.4259
   13SAPS   H7R 1645   4.855   1.799   3.195  0.7627 -0.7084  0.3066
   13SAPS   H7S 1646   4.712   1.839   3.276  0.9320 -1.0408 -0.3017
   13SAPS   C28 1647   4.888   1.870   3.392 -0.4810  0.0184  0.4762
   13SAPS   H8R 1648   4.997   1.872   3.374 -0.9061 -1.5665 -3.3984
   13SAPS   C29 1649   4.838   1.874   3.520  0.1756  0.7756  0.7688
   13SAPS   H9R 1650   4.902   1.854   3.606 -3.4354 -0.0314  3.5238
   13SAPS  C210 1651   4.689   1.880   3.560 -0.3362  0.2229  0.3885
   13SAPS  H10R 1652   4.660   1.782   3.606 -0.2611 -0.4877 -1.0277
   13SAPS  H10S 1653   4.617   1.883   3.475  1.4261 -0.0212 -1.1711
   13SAPS  C211 1654   4.661   1.995   3.650  0.8811  1.0039  0.1536
   13SAPS  H11R 1655   4.619   2.081   3.595 -1.3402 -0.3610 -0.4157
   13SAPS  C212 1656   4.684   1.995   3.780  0.3271 -0.2304 -0.0279
   13SAPS  H12R 1657   4.670   2.083   3.845 -0.1508 -1.2503  1.2992
   13SAPS  C213 1658   4.737   1.874   3.852 -0.7461 -0.5560 -0.1342
   13SAPS  H13R 1659   4.768   1.795   3.781 -0.3121 -0.4695 -0.0411
   13SAPS  H13S 1660   4.648   1.842   3.911 -0.3584  2.1668  2.1130
   13SAPS  C214 1661   4.857   1.880   3.947  0.6630  0.1058 -0.2110
   13SAPS  H14R 1662   4.929   1.799   3.927 -0.1671 -0.6425 -0.2771
   13SAPS  C215 1663   4.881   1.976   4.042 -0.0851  0.3903  0.4896
   13SAPS  H15R 1664   4.981   1.969   4.088  0.9140  0.6508 -1.5122
   13SAPS  C216 1665   4.793   2.089   4.086  0.4612  0.4932  0.2634
   13SAPS  H16R 1666   4.689   2.064   4.054  0.7908  0.3369 -0.7171
   13SAPS  H16S 1667   4.819   2.189   4.047  1.0167  0.7453  1.2475
   13SAPS  C217 1668   4.792   2.134   4.232  0.0126  1.0900 -1.0649
   13SAPS  H17R 1669   4.725   2.221   4.243 -1.3767  0.1769 -2.0447
   13SAPS  H17S 1670   4.891   2.163   4.273 -0.0512  0.8951 -0.7666
   13SAPS  C218 1671   4.751   2.024   4.333  0.3259 -0.1789  0.1877
   13SAPS  H18R 1672   4.738   2.072   4.433  2.3930 -0.4690  0.6411
   13SAPS  H18S 1673   4.831   1.947   4.342 -1.3040 -1.7595  2.3338
   13SAPS  C219 1674   4.622   1.951   4.291 -0.6617 -0.3303  0.5677
   13SAPS  H19R 1675   4.637   1.913   4.187 -1.7841  1.7124 -0.3975
   13SAPS  H19S 1676   4.543   2.029   4.290  0.9290  1.3952  2.2240
   13SAPS  C220 1677   4.586   1.836   4.369  0.2122 -0.6299  0.3958
   13SAPS  H20R 1678   4.664   1.758   4.358 -0.7400 -1.4956 -0.4505
   13SAPS  H20S 1679   4.479   1.811   4.352 -0.5139  1.6664  1.2883
   13SAPS  H20T 1680   4.594   1.862   4.476 -1.3196  1.0146  0.1665
   13SAPS   C33 1681   4.550   2.411   2.895  0.1335 -0.6714 -0.1793
   13SAPS   H3X 1682   4.506   2.309   2.890 -0.1869 -0.6700  1.6987
   13SAPS   H3Y 1683   4.509   2.464   2.807  0.1248  1.7227  1.2019
   13SAPS   C34 1684   4.499   2.487   3.013 -0.1129  0.1940 -0.4015
   13SAPS   H4X 1685   4.389   2.473   3.025 -0.7838  3.3859 -1.7242
   13SAPS   H4Y 1686   4.509   2.597   2.995 -0.2494  0.6173  1.8668
   13SAPS   C35 1687   4.572   2.447   3.142 -0.2263  0.2372  0.1307
   13SAPS   H5X 1688   4.670   2.500   3.140 -0.5240  0.8151 -2.0040
   13SAPS   H5Y 1689   4.594   2.339   3.147 -0.2524  0.2819  1.5344
   13SAPS   C36 1690   4.476   2.483   3.270  0.5350  0.4988  0.2079
   13SAPS   H6X 1691   4.412   2.393   3.284  1.4248 -0.3377 -0.9346
   13SAPS   H6Y 1692   4.407   2.566   3.243 -1.9901 -1.3923  0.4975
   13SAPS   C37 1693   4.557   2.510   3.402 -0.6962  0.7391  0.3081
   13SAPS   H7X 1694   4.586   2.616   3.390  1.7995  0.2130  1.2069
   13SAPS   H7Y 1695   4.650   2.451   3.413  0.9262  3.2776  1.1290
   13SAPS   C38 1696   4.457   2.500   3.518 -0.0736  1.1831 -0.9534
   13SAPS   H8X 1697   4.428   2.394   3.534  1.7377  1.1192  3.0523
   13SAPS   H8Y 1698   4.368   2.564   3.503 -0.1006  0.9718 -1.7208
   13SAPS   C39 1699   4.527   2.531   3.658 -0.3108 -0.1341  0.1761
   13SAPS   H9X 1700   4.450   2.551   3.735 -1.0367 -2.0222  0.0107
   13SAPS   H9Y 1701   4.589   2.617   3.627  0.5032 -0.5043  0.7647
   13SAPS  C310 1702   4.600   2.395   3.700  0.1794 -0.0207 -0.1496
   13SAPS  H10X 1703   4.698   2.392   3.647  0.6189  0.7767  0.5980
   13SAPS  H10Y 1704   4.542   2.303   3.677  1.6451 -0.7329 -1.1966
   13SAPS  C311 1705   4.616   2.390   3.854 -0.4271 -0.0765  0.4881
   13SAPS  H11X 1706   4.657   2.293   3.890  1.6524  0.6054  0.0919
   13SAPS  H11Y 1707   4.522   2.411   3.909 -0.0157  0.1620  1.1165
   13SAPS  C312 1708   4.719   2.500   3.904  0.3674 -0.4898  0.1519
   13SAPS  H12X 1709   4.710   2.600   3.855  0.5037 -0.4526  0.2026
   13SAPS  H12Y 1710   4.819   2.458   3.884  0.1901 -0.8055 -0.0797
   13SAPS  C313 1711   4.713   2.533   4.053 -0.4077 -0.3076 -0.5629
   13SAPS  H13X 1712   4.715   2.441   4.115  1.6380 -0.2857 -0.5357
   13SAPS  H13Y 1713   4.630   2.597   4.088  1.3406  1.0443  1.2931
   13SAPS  C314 1714   4.848   2.604   4.087  0.1355  0.4249 -0.2291
   13SAPS  H14X 1715   4.846   2.694   4.022 -1.8016 -0.0826 -0.9407
   13SAPS  H14Y 1716   4.929   2.535   4.053 -0.4422  0.5658 -1.9698
   13SAPS  C315 1717   4.852   2.668   4.228  0.0319  0.2668 -0.7205
   13SAPS  H15X 1718   4.949   2.722   4.220  0.8815 -1.4051 -2.5654
   13SAPS  H15Y 1719   4.852   2.594   4.310 -0.2933 -0.7622 -1.6222
   13SAPS  C316 1720   4.735   2.778   4.252 -0.1718  0.4428  0.3991
   13SAPS  H16X 1721   4.644   2.714   4.245  0.9399 -1.0487 -1.5614
   13SAPS  H16Y 1722   4.730   2.847   4.165  0.1057  0.1276  0.1291
   13SAPS  C317 1723   4.749   2.842   4.385  0.2543 -0.5554  0.0898
   13SAPS  H17X 1724   4.673   2.920   4.407  0.9147  0.8046 -2.1418
   13SAPS  H17Y 1725   4.848   2.892   4.388 -0.0718  0.1426 -0.4148
   13SAPS  C318 1726   4.731   2.743   4.501  0.5000  0.3168 -0.0943
   13SAPS  H18X 1727   4.821   2.678   4.504  1.1892  1.2792  2.3470
   13SAPS  H18Y 1728   4.639   2.680   4.492 -0.4254  1.2348  2.2383
   13SAPS  H18Z 1729   4.724   2.802   4.594 -3.5905 -0.4216  0.2621
   14SAPS     N 1730   4.583   5.247   2.077 -0.6928  0.2303  0.0964
   14SAPS   HN1 1731   4.644   5.289   2.149 -1.5253 -1.5849  1.9586
   14SAPS   HN2 1732   4.531   5.171   2.126 -0.3294  0.1456  0.3526
   14SAPS   HN3 1733   4.632   5.198   1.999  0.0184  0.8665  0.1414
   14SAPS   C12 1734   4.491   5.342   2.010 -0.4278 -0.1740 -0.0410
   14SAPS  H12A 1735   4.519   5.442   2.040 -2.0219  0.1820  0.3837
   14SAPS   C13 1736   4.486   5.323   1.854 -0.2841 -0.6200 -0.3855
   14SAPS  O13A 1737   4.539   5.219   1.807  0.3268  0.4577 -0.3091
   14SAPS  O13B 1738   4.385   5.380   1.805  0.2184 -0.0211 -0.0528
   14SAPS   C11 1739   4.354   5.314   2.074 -0.5706 -0.3087 -0.2644
   14SAPS  H11A 1740   4.311   5.218   2.037 -1.9033  0.0838  0.1849
   14SAPS  H11B 1741   4.278   5.381   2.029  1.7817  2.2974 -0.6327
   14SAPS     P 1742   4.231   5.349   2.292 -0.1125 -0.2131  0.4961
   14SAPS   O13 1743   4.175   5.477   2.249 -0.1314 -0.6113  0.3697
   14SAPS   O14 1744   4.143   5.231   2.283  0.3564  0.0746 -0.2005
   14SAPS   O12 1745   4.361   5.309   2.211 -0.2483 -0.3482 -0.9684
   14SAPS   O11 1746   4.280   5.374   2.438 -0.1291  0.1770  0.1623
   14SAPS    C1 1747   4.412   5.378   2.481 -0.1829 -0.6153 -0.1379
   14SAPS    HA 1748   4.457   5.276   2.470  1.0143 -0.0840 -0.3546
   14SAPS    HB 1749   4.477   5.441   2.417  0.0108  1.9953  2.4230
   14SAPS    C2 1750   4.433   5.444   2.619  0.1452  0.2148 -0.2866
   14SAPS    HS 1751   4.533   5.415   2.657  0.1290 -1.7667 -1.5711
   14SAPS   O21 1752   4.327   5.407   2.709  0.3625  0.3992  0.4624
   14SAPS   C21 1753   4.341   5.274   2.734 -0.7390  0.6926 -0.3044
   14SAPS   O22 1754   4.447   5.209   2.722  0.0909 -0.1734 -0.2120
   14SAPS   C22 1755   4.226   5.212   2.803 -0.2861  0.0734 -0.1145
   14SAPS   H2R 1756   4.150   5.185   2.727 -0.3710  1.9479 -0.7345
   14SAPS   H2S 1757   4.254   5.109   2.833  1.0925  0.3705 -0.3502
   14SAPS    C3 1758   4.431   5.605   2.606 -0.3337  1.1891  0.0249
   14SAPS    HX 1759   4.354   5.639   2.533  0.6812 -1.3460 -2.4076
   14SAPS    HY 1760   4.530   5.629   2.561 -0.3008  0.1966 -0.4536
   14SAPS   O31 1761   4.406   5.653   2.738 -0.3342 -0.3621 -0.5476
   14SAPS   C31 1762   4.501   5.713   2.804  0.7316 -0.1864 -0.4835
   14SAPS   O32 1763   4.613   5.731   2.762  0.1058  0.4265 -0.0686
   14SAPS   C32 1764   4.447   5.743   2.945 -0.3179 -0.2485  0.2019
   14SAPS   H2X 1765   4.385   5.654   2.967 -0.9304  0.1893  0.2835
   14SAPS   H2Y 1766   4.385   5.836   2.947 -0.2112 -0.1482 -0.6068
   14SAPS   C23 1767   4.151   5.304   2.903  0.3809  0.3406 -0.2399
   14SAPS   H3R 1768   4.062   5.257   2.950  1.5397 -1.7741 -0.0334
   14SAPS   H3S 1769   4.112   5.395   2.853 -2.4735  0.7113  2.3535
   14SAPS   C24 1770   4.238   5.343   3.028 -0.2246  0.6922  0.5455
   14SAPS   H4R 1771   4.347   5.352   3.007 -0.7053  1.6613 -1.8879
   14SAPS   H4S 1772   4.234   5.253   3.093  1.4209 -0.4130 -0.7616
   14SAPS   C25 1773   4.189   5.466   3.091 -0.3224  0.2410  0.3015
   14SAPS   H5R 1774   4.133   5.540   3.033  0.2212  2.4449  2.4164
   14SAPS   C26 1775   4.208   5.500   3.218 -0.7057  0.9041 -0.7589
   14SAPS   H6R 1776   4.188   5.606   3.240 -1.2342  0.3790  1.4918
   14SAPS   C27 1777   4.274   5.426   3.334 -0.3330  0.4507  0.7172
   14SAPS   H7R 1778   4.321   5.329   3.306  0.7583  1.0258  0.5276
   14SAPS   H7S 1779   4.198   5.406   3.413 -1.4927 -0.5596 -0.6020
   14SAPS   C28 1780   4.388   5.498   3.396 -0.9155 -0.5342 -0.5564
   14SAPS   H8R 1781   4.487   5.483   3.351 -1.0960 -0.2401 -1.0569
   14SAPS   C29 1782   4.371   5.582   3.499  0.1319  0.1925  0.0167
   14SAPS   H9R 1783   4.468   5.602   3.546  0.6618 -1.6576 -0.1984
   14SAPS  C210 1784   4.249   5.627   3.576 -0.0009  0.8628 -0.5734
   14SAPS  H10R 1785   4.161   5.644   3.510  0.6377 -0.7133 -1.8874
   14SAPS  H10S 1786   4.268   5.727   3.621  2.5691 -0.1315  0.7372
   14SAPS  C211 1787   4.196   5.521   3.668  0.5643  0.5718 -0.5245
   14SAPS  H11R 1788   4.174   5.429   3.612 -1.0006  1.5586 -1.6028
   14SAPS  C212 1789   4.167   5.534   3.803 -0.2536 -0.0638  0.6278
   14SAPS  H12R 1790   4.111   5.450   3.847  0.8632 -1.1337  0.0595
   14SAPS  C213 1791   4.192   5.653   3.888 -0.1555  0.0472  0.1210
   14SAPS  H13R 1792   4.092   5.681   3.929  0.0719 -0.1747  0.8460
   14SAPS  H13S 1793   4.234   5.733   3.824  3.5891 -0.6738  1.4311
   14SAPS  C214 1794   4.290   5.630   3.999  0.9901  0.0051  0.0062
   14SAPS  H14R 1795   4.354   5.541   3.997  0.8997 -0.0634  0.1430
   14SAPS  C215 1796   4.329   5.717   4.092 -0.5186  0.0939  1.1911
   14SAPS  H15R 1797   4.394   5.674   4.170 -0.9854 -1.4208  0.7928
   14SAPS  C216 1798   4.280   5.857   4.110  0.4089 -0.5077  0.2150
   14SAPS  H16R 1799   4.235   5.901   4.019 -1.7929  0.5295  1.7119
   14SAPS  H16S 1800   4.369   5.924   4.115  0.8467 -0.9234 -1.3932
   14SAPS  C217 1801   4.206   5.875   4.243 -0.0864 -0.0610  0.0445
   14SAPS  H17R 1802   4.115   5.813   4.257 -2.2548  2.1169 -3.0607
   14SAPS  H17S 1803   4.165   5.978   4.237 -0.1492  0.0902  2.3377
   14SAPS  C218 1804   4.304   5.873   4.364 -0.1240  0.1076  0.5344
   14SAPS  H18R 1805   4.402   5.919   4.336  0.3573 -1.5928 -0.7725
   14SAPS  H18S 1806   4.348   5.772   4.382  1.5325  0.8956  1.1898
   14SAPS  C219 1807   4.249   5.932   4.488 -0.3221 -0.7025  0.0899
   14SAPS  H19R 1808   4.149   5.895   4.522 -1.8305  2.2866 -0.7538
   14SAPS  H19S 1809   4.239   6.041   4.471  0.2474 -0.2400  2.3742
   14SAPS  C220 1810   4.344   5.903   4.598 -0.7568 -0.6305  0.5220
   14SAPS  H20R 1811   4.330   5.976   4.681  2.8777 -1.0424  1.6813
   14SAPS  H20S 1812   4.447   5.930   4.569  0.4982 -1.8334  3.4112
   14SAPS  H20T 1813   4.339   5.798   4.636  2.8982 -0.2268  2.6026
   14SAPS   C33 1814   4.559   5.772   3.057  0.2932  0.0517 -0.2439
   14SAPS   H3X 1815   4.611   5.869   3.041 -1.9055  1.3869  0.2911
   14SAPS   H3Y 1816   4.633   5.690   3.046 -0.6095 -1.2482  2.3889
   14SAPS   C34 1817   4.501   5.774   3.199  0.3149 -0.4009 -0.1055
   14SAPS   H4X 1818   4.569   5.713   3.262 -1.4592  0.9322  3.3850
   14SAPS   H4Y 1819   4.400   5.728   3.198 -1.0902  2.4021  0.8735
   14SAPS   C35 1820   4.485   5.919   3.244 -0.4984  0.2823  0.0307
   14SAPS   H5X 1821   4.397   5.958   3.190  0.7699 -0.9169 -3.1737
   14SAPS   H5Y 1822   4.584   5.970   3.233 -1.1382  1.3610 -1.0144
   14SAPS   C36 1823   4.457   5.923   3.391 -0.3511  0.7083  0.1955
   14SAPS   H6X 1824   4.546   5.887   3.447 -2.3234 -1.6566  2.0110
   14SAPS   H6Y 1825   4.380   5.848   3.420 -0.9814  1.1078 -0.4167
   14SAPS   C37 1826   4.422   6.061   3.443 -0.4829 -0.4751  0.2576
   14SAPS   H7X 1827   4.348   6.114   3.378  0.3883  1.6335  0.9294
   14SAPS   H7Y 1828   4.514   6.122   3.432 -0.8032  0.0310  0.3618
   14SAPS   C38 1829   4.385   6.064   3.588 -0.4983 -0.1859 -0.4298
   14SAPS   H8X 1830   4.292   6.007   3.607  1.2623 -2.2506  2.9150
   14SAPS   H8Y 1831   4.378   6.171   3.618  0.8917  0.5355 -2.4084
   14SAPS   C39 1832   4.485   5.992   3.682  0.4664  0.0914  0.6770
   14SAPS   H9X 1833   4.588   6.026   3.659  0.3817 -0.5504 -0.7337
   14SAPS   H9Y 1834   4.484   5.886   3.649 -0.0499 -0.5506  2.6539
   14SAPS  C310 1835   4.454   6.008   3.828  0.6205 -0.5316  0.1597
   14SAPS  H10X 1836   4.509   5.924   3.877 -0.6941 -1.8840 -0.6201
   14SAPS  H10Y 1837   4.347   6.010   3.857  0.1806  2.7437 -1.3313
   14SAPS  C311 1838   4.501   6.148   3.885 -0.7691  1.0147 -0.1427
   14SAPS  H11X 1839   4.610   6.163   3.865 -0.6435 -2.1217 -2.5683
   14SAPS  H11Y 1840   4.490   6.138   3.995 -1.0670  0.5164 -0.2143
   14SAPS  C312 1841   4.424   6.275   3.847  0.2826  0.0656 -0.8213
   14SAPS  H12X 1842   4.316   6.254   3.860  0.1196  0.7836 -0.9704
   14SAPS  H12Y 1843   4.445   6.311   3.744  1.2538  1.1485 -0.2665
   14SAPS  C313 1844   4.442   6.401   3.939  0.1393  0.8137  0.5405
   14SAPS  H13X 1845   4.405   6.378   4.041  1.0569 -4.5486 -0.0583
   14SAPS  H13Y 1846   4.385   6.490   3.904  0.2773  0.8905  0.5095
   14SAPS  C314 1847   4.593   6.438   3.963 -0.3006  0.4332  0.0421
   14SAPS  H14X 1848   4.634   6.464   3.863  1.0813  2.4804  1.0416
   14SAPS  H14Y 1849   4.650   6.353   4.006 -1.8977 -1.5794 -1.6275
   14SAPS  C315 1850   4.619   6.567   4.044 -0.0006  0.1261  1.0367
   14SAPS  H15X 1851   4.532   6.636   4.046 -1.9973 -2.1181 -1.5799
   14SAPS  H15Y 1852   4.697   6.617   3.984 -2.1505  1.6794 -0.6081
   14SAPS  C316 1853   4.681   6.537   4.185  0.0272  0.4288  0.6121
   14SAPS  H16X 1854   4.769   6.470   4.167  0.2939  1.2988 -1.5670
   14SAPS  H16Y 1855   4.600   6.483   4.239 -2.3356  0.8996 -2.2507
   14SAPS  C317 1856   4.719   6.669   4.253  0.0492 -0.1399  0.1599
   14SAPS  H17X 1857   4.764   6.731   4.172 -1.6828  0.5243 -0.3517
   14SAPS  H17Y 1858   4.798   6.653   4.329 -0.5115 -1.0411  0.5772
   14SAPS  C318 1859   4.608   6.746   4.328 -0.4755 -0.7659 -0.5260
   14SAPS  H18X 1860   4.521   6.752   4.258 -2.1304 -0.3155  1.4715
   14SAPS  H18Y 1861   4.647   6.840   4.374 -2.0484 -1.1196  1.6750
   14SAPS  H18Z 1862   4.577   6.676   4.408 -0.5113 -0.0954  0.0579
   15SAPS     N 1863   3.258   3.858   2.013  0.4810 -0.6696  0.4897
   15SAPS   HN1 1864   3.317   3.841   2.098 -2.1920 -2.1269  2.2062
   15SAPS   HN2 1865   3.158   3.862   2.039  0.3071  0.6753 -0.3120
   15SAPS   HN3 1866   3.275   3.774   1.954 -0.1113  0.5067 -1.4472
   15SAPS   C12 1867   3.304   3.984   1.939 -0.6333  0.0534  0.0322
   15SAPS  H12A 1868   3.410   3.975   1.924 -0.8429  0.2647 -1.7807
   15SAPS   C13 1869   3.232   4.017   1.806  0.3691  0.5186 -0.6963
   15SAPS  O13A 1870   3.145   3.937   1.761  0.5734  0.0416 -0.6318
   15SAPS  O13B 1871   3.288   4.099   1.730  0.1152  0.3022  0.3365
   15SAPS   C11 1872   3.287   4.102   2.033 -0.1074 -0.6642 -0.6791
   15SAPS  H11A 1873   3.183   4.110   2.071  0.7062  2.2250  1.2417
   15SAPS  H11B 1874   3.301   4.201   1.984  0.4409 -0.5629 -0.3318
   15SAPS     P 1875   3.513   4.160   2.160 -0.1776 -0.2437 -0.2852
   15SAPS   O13 1876   3.606   4.086   2.079  0.1510  0.6899  0.7272
   15SAPS   O14 1877   3.510   4.305   2.126 -0.4174 -0.7885  0.3181
   15SAPS   O12 1878   3.370   4.097   2.150 -0.5757  0.1727 -0.2454
   15SAPS   O11 1879   3.547   4.137   2.311 -0.7757  0.7502 -0.0906
   15SAPS    C1 1880   3.448   4.165   2.411 -0.1233 -0.1500  0.0322
   15SAPS    HA 1881   3.346   4.172   2.368  0.7038  1.1127 -1.8691
   15SAPS    HB 1882   3.433   4.078   2.477  2.1072  0.7229  1.8484
   15SAPS    C2 1883   3.488   4.278   2.513  0.5594  0.6658 -0.1382
   15SAPS    HS 1884   3.498   4.377   2.463 -1.5181  0.4882 -1.0268
   15SAPS   O21 1885   3.601   4.230   2.578 -0.2536  0.6070  0.2791
   15SAPS   C21 1886   3.659   4.326   2.658  0.5453 -0.4488  0.4528
   15SAPS   O22 1887   3.633   4.446   2.648  0.6920  0.3462 -0.1310
   15SAPS   C22 1888   3.761   4.267   2.760  0.2046 -0.6544 -0.3709
   15SAPS   H2R 1889   3.702   4.190   2.815  0.7382 -0.5377  0.3924
   15SAPS   H2S 1890   3.847   4.226   2.703  0.9432  0.0301  0.2201
   15SAPS    C3 1891   3.366   4.307   2.610  0.6299 -0.1733  0.8106
   15SAPS    HX 1892   3.267   4.313   2.559  0.0236 -0.8309  1.8557
   15SAPS    HY 1893   3.383   4.407   2.655 -1.2071  0.9369 -0.7752
   15SAPS   O31 1894   3.334   4.196   2.695 -0.1841  0.6420  0.2107
   15SAPS   C31 1895   3.388   4.196   2.813  0.9159  0.3530 -0.2550
   15SAPS   O32 1896   3.444   4.289   2.865  0.0732 -0.5173  0.3953
   15SAPS   C32 1897   3.367   4.055   2.868 -0.6908 -0.0368 -0.0288
   15SAPS   H2X 1898   3.429   4.046   2.959  2.0469  0.2850 -1.7502
   15SAPS   H2Y 1899   3.410   3.984   2.794  2.1297  0.1025  1.3452
   15SAPS   C23 1900   3.830   4.373   2.850  0.1134 -0.1453  0.9003
   15SAPS   H3R 1901   3.767   4.409   2.933 -1.4484  0.6469 -0.5675
   15SAPS   H3S 1902   3.860   4.463   2.792 -4.0446  0.7157 -0.2229
   15SAPS   C24 1903   3.958   4.323   2.920 -0.0943 -0.6342 -0.2782
   15SAPS   H4R 1904   3.993   4.403   2.989  0.8558 -1.2357 -0.0574
   15SAPS   H4S 1905   4.037   4.316   2.843  0.8677  1.3350  0.4447
   15SAPS   C25 1906   3.936   4.191   2.992  0.2612  0.0618  0.1926
   15SAPS   H5R 1907   3.901   4.109   2.926 -0.5993  0.1502  0.5345
   15SAPS   C26 1908   3.951   4.174   3.126  0.0572 -0.1533  0.4132
   15SAPS   H6R 1909   3.921   4.076   3.167 -0.2896  1.1921  3.6802
   15SAPS   C27 1910   3.986   4.278   3.230 -0.3226  0.1290  0.4483
   15SAPS   H7R 1911   4.036   4.367   3.185 -1.1368  0.5639  0.3693
   15SAPS   H7S 1912   4.070   4.255   3.298 -0.6333  2.7806  1.8818
   15SAPS   C28 1913   3.871   4.321   3.307  0.2235 -0.3823 -0.0404
   15SAPS   H8R 1914   3.786   4.367   3.255  0.1776  1.6051  1.6414
   15SAPS   C29 1915   3.857   4.319   3.441 -0.2623 -0.3905  0.5691
   15SAPS   H9R 1916   3.760   4.363   3.469 -0.4878 -1.2054  1.1118
   15SAPS  C210 1917   3.957   4.280   3.550  0.2231  0.1064 -0.5838
   15SAPS  H10R 1918   3.942   4.357   3.628 -1.4163 -0.9588  0.2158
   15SAPS  H10S 1919   4.061   4.288   3.513 -0.2020 -0.5196 -2.0254
   15SAPS  C211 1920   3.935   4.139   3.609 -0.5730 -0.1980  0.6982
   15SAPS  H11R 1921   4.020   4.074   3.581  1.3319  3.7048 -4.2255
   15SAPS  C212 1922   3.820   4.089   3.669 -0.2781 -0.1108 -0.2272
   15SAPS  H12R 1923   3.825   3.991   3.719 -0.5414 -1.1580 -2.1403
   15SAPS  C213 1924   3.689   4.162   3.699  0.2633 -0.3208  0.1247
   15SAPS  H13R 1925   3.611   4.152   3.620  0.3027  1.7488 -0.2111
   15SAPS  H13S 1926   3.700   4.270   3.676 -3.7363  0.0610 -0.8531
   15SAPS  C214 1927   3.640   4.162   3.844  0.5810  0.3303  0.1715
   15SAPS  H14R 1928   3.537   4.123   3.850  0.1261  1.2738 -1.1443
   15SAPS  C215 1929   3.710   4.201   3.950  0.1247 -0.0255 -0.2208
   15SAPS  H15R 1930   3.658   4.197   4.047 -0.9439  2.2558 -0.6461
   15SAPS  C216 1931   3.844   4.262   3.952 -0.4810  0.6784 -0.1291
   15SAPS  H16R 1932   3.847   4.363   3.997  1.0181  0.2836  0.7446
   15SAPS  H16S 1933   3.884   4.271   3.848 -2.1429 -0.2922 -0.8962
   15SAPS  C217 1934   3.952   4.174   4.023  0.5181  0.2549 -0.2240
   15SAPS  H17R 1935   3.975   4.077   3.974  1.0053  1.0208 -1.5728
   15SAPS  H17S 1936   3.907   4.152   4.122  0.4380 -2.3867 -0.7525
   15SAPS  C218 1937   4.088   4.236   4.021 -0.2982 -0.1250 -0.0889
   15SAPS  H18R 1938   4.077   4.330   4.079  0.1386 -0.4455  0.5267
   15SAPS  H18S 1939   4.115   4.252   3.914 -0.0667  2.7451  0.3075
   15SAPS  C219 1940   4.203   4.154   4.080 -0.6594  0.2791  0.0599
   15SAPS  H19R 1941   4.300   4.204   4.061  0.2527 -0.5549  2.2221
   15SAPS  H19S 1942   4.207   4.055   4.029 -0.7245  1.4567 -2.3703
   15SAPS  C220 1943   4.190   4.134   4.230  0.5964  0.7860  0.3604
   15SAPS  H20R 1944   4.268   4.065   4.268 -1.1980 -0.6701  1.5881
   15SAPS  H20S 1945   4.090   4.091   4.254 -0.2840  1.9915 -0.9905
   15SAPS  H20T 1946   4.198   4.234   4.278 -2.0962  0.8849  0.7849
   15SAPS   C33 1947   3.224   4.017   2.906  0.1640  1.1438 -0.2942
   15SAPS   H3X 1948   3.222   3.914   2.948  3.8937  1.1742  0.3020
   15SAPS   H3Y 1949   3.165   4.014   2.812  2.0150  1.9978 -1.5448
   15SAPS   C34 1950   3.148   4.115   3.008  0.3807  1.0100 -0.1943
   15SAPS   H4X 1951   3.040   4.118   2.982  0.8698 -2.0131 -3.3468
   15SAPS   H4Y 1952   3.192   4.217   3.005  1.7214  0.5103  1.0149
   15SAPS   C35 1953   3.180   4.077   3.153  0.2425 -0.4043  0.0557
   15SAPS   H5X 1954   3.279   4.124   3.168 -0.9832  2.7490 -1.0178
   15SAPS   H5Y 1955   3.179   3.967   3.171 -3.4323 -0.3816  0.7849
   15SAPS   C36 1956   3.084   4.150   3.254  0.0201  0.3087 -0.1378
   15SAPS   H6X 1957   2.976   4.124   3.249  0.2649 -0.6195 -1.0561
   15SAPS   H6Y 1958   3.063   4.254   3.221 -1.2471  0.1097 -0.0047
   15SAPS   C37 1959   3.125   4.141   3.401 -0.5555  0.5978  0.1589
   15SAPS   H7X 1960   3.218   4.198   3.422 -0.1517  0.0243 -0.0545
   15SAPS   H7Y 1961   3.153   4.034   3.407  0.7817  0.8069 -1.5592
   15SAPS   C38 1962   3.020   4.178   3.507  0.2469 -0.0102 -0.2570
   15SAPS   H8X 1963   2.934   4.113   3.484  1.4537 -2.6130  2.0248
   15SAPS   H8Y 1964   2.999   4.287   3.498  2.2695  0.7726  2.8380
   15SAPS   C39 1965   3.053   4.145   3.653 -0.1134  0.1347 -0.0783
   15SAPS   H9X 1966   3.068   4.035   3.649 -0.8331  0.0590 -3.4194
   15SAPS   H9Y 1967   2.970   4.168   3.723  0.2988 -1.0853  0.8700
   15SAPS  C310 1968   3.181   4.212   3.716 -0.8749  0.6521 -0.3325
   15SAPS  H10X 1969   3.181   4.323   3.711  0.9711  0.7319  0.4938
   15SAPS  H10Y 1970   3.259   4.182   3.643  1.2896  2.8299  0.9450
   15SAPS  C311 1971   3.219   4.161   3.849  1.0276  0.4866  0.2976
   15SAPS  H11X 1972   3.323   4.185   3.879  1.3818 -0.5791 -0.0214
   15SAPS  H11Y 1973   3.214   4.051   3.869 -0.5326  0.7249  1.3820
   15SAPS  C312 1974   3.115   4.221   3.958  0.6228  0.3428 -0.3297
   15SAPS  H12X 1975   3.016   4.184   3.924  2.0698 -5.0749  0.4131
   15SAPS  H12Y 1976   3.104   4.331   3.957 -0.5517  0.2914  1.4833
   15SAPS  C313 1977   3.123   4.158   4.098  0.3861  0.1564 -0.1341
   15SAPS  H13X 1978   3.097   4.050   4.089 -1.4855  0.5095  0.6358
   15SAPS  H13Y 1979   3.035   4.196   4.155 -0.2148  2.1628 -2.2321
   15SAPS  C314 1980   3.265   4.177   4.155  0.8865  0.4692  0.5783
   15SAPS  H14X 1981   3.285   4.286   4.154 -0.0643  0.6488 -0.0145
   15SAPS  H14Y 1982   3.331   4.128   4.081  0.2902 -0.1168  0.4208
   15SAPS  C315 1983   3.270   4.110   4.295 -0.1207  0.3157 -0.2351
   15SAPS  H15X 1984   3.345   4.028   4.296 -0.9206 -0.4299  0.5324
   15SAPS  H15Y 1985   3.170   4.063   4.306  0.7335 -1.6850 -0.5317
   15SAPS  C316 1986   3.299   4.205   4.405  0.5823 -0.7416 -0.4265
   15SAPS  H16X 1987   3.271   4.162   4.504 -1.0239  2.4785  0.6785
   15SAPS  H16Y 1988   3.239   4.299   4.403 -1.3586 -1.7642  2.4148
   15SAPS  C317 1989   3.446   4.244   4.432  0.2620 -0.6871  0.1567
   15SAPS  H17X 1990   3.494   4.159   4.484  0.8422 -0.1678  0.4904
   15SAPS  H17Y 1991   3.455   4.340   4.487 -0.4869 -0.0206 -0.8397
   15SAPS  C318 1992   3.537   4.264   4.312 -0.5113 -0.0919  0.0777
   15SAPS  H18X 1993   3.481   4.316   4.232  0.0233  2.0443  1.0327
   15SAPS  H18Y 1994   3.577   4.167   4.275  0.6015 -0.4096  1.9854
   15SAPS  H18Z 1995   3.631   4.322   4.325 -1.2151  0.7456  1.7792
   16SAPS     N 1996   5.337   3.768   2.317 -0.8503  0.1764  0.1472
   16SAPS   HN1 1997   5.368   3.866   2.336 -0.5002 -0.1079  1.0928
   16SAPS   HN2 1998   5.256   3.755   2.380  0.1567 -1.5409  1.1579
   16SAPS   HN3 1999   5.415   3.705   2.343  0.1725  1.3350  0.0027
   16SAPS   C12 2000   5.293   3.766   2.167  0.1519 -0.0521 -0.0944
   16SAPS  H12A 2001   5.368   3.814   2.106 -0.4336  2.5733  1.0857
   16SAPS   C13 2002   5.252   3.623   2.113 -0.0614 -0.4834  0.2792
   16SAPS  O13A 2003   5.232   3.529   2.196 -0.3930  0.6935  0.0344
   16SAPS  O13B 2004   5.228   3.615   1.997  0.0032 -0.6010 -0.2388
   16SAPS   C11 2005   5.167   3.865   2.161 -0.0088  0.3722  0.5748
   16SAPS  H11A 2006   5.076   3.809   2.192 -0.9663  1.3969 -0.2944
   16SAPS  H11B 2007   5.149   3.888   2.054  1.6589  2.3285  0.6456
   16SAPS     P 2008   5.080   4.063   2.314  0.4388 -0.1883  0.2503
   16SAPS   O13 2009   5.131   4.194   2.359  0.3524  0.4893 -0.0803
   16SAPS   O14 2010   4.955   4.067   2.238 -0.3969  0.3332 -0.0113
   16SAPS   O12 2011   5.192   3.990   2.228 -0.1178  0.0424  0.3263
   16SAPS   O11 2012   5.074   3.960   2.433  0.6344 -0.8296  0.5071
   16SAPS    C1 2013   5.157   3.975   2.547 -0.3387 -0.2185 -0.1855
   16SAPS    HA 2014   5.168   3.873   2.592 -0.2007 -0.7092 -1.2999
   16SAPS    HB 2015   5.258   4.011   2.520 -1.4279  4.9555  1.5300
   16SAPS    C2 2016   5.089   4.063   2.655  0.2338  0.4157 -0.1920
   16SAPS    HS 2017   5.087   4.166   2.614 -0.6828 -0.1470 -1.6414
   16SAPS   O21 2018   5.135   4.050   2.794  0.4357  0.7057  0.6479
   16SAPS   C21 2019   5.253   4.099   2.808  0.0375  0.6180  0.5849
   16SAPS   O22 2020   5.310   4.162   2.719  0.2895  0.1466  0.6901
   16SAPS   C22 2021   5.312   4.081   2.939 -1.0921 -0.0161 -0.3676
   16SAPS   H2R 2022   5.302   4.175   2.997  0.2037 -0.2915  0.3401
   16SAPS   H2S 2023   5.250   4.012   3.000  1.3902 -0.4121  1.8715
   16SAPS    C3 2024   4.934   4.029   2.667  0.5082 -0.1136  0.5862
   16SAPS    HX 2025   4.919   3.942   2.734 -2.2383 -0.3734 -0.2152
   16SAPS    HY 2026   4.888   3.997   2.571  0.1658  1.1044  0.3267
   16SAPS   O31 2027   4.844   4.132   2.727 -0.4222 -0.5816 -0.0537
   16SAPS   C31 2028   4.797   4.229   2.649 -0.5421 -0.0658  0.4228
   16SAPS   O32 2029   4.807   4.221   2.527 -0.1340 -0.3035 -0.0001
   16SAPS   C32 2030   4.736   4.342   2.724  0.4258 -0.1476  0.1202
   16SAPS   H2X 2031   4.627   4.328   2.730  0.5872 -1.5588  0.0328
   16SAPS   H2Y 2032   4.751   4.434   2.662 -1.0000  1.0489  1.4798
   16SAPS   C23 2033   5.467   4.045   2.932  0.2521 -0.4164  0.1421
   16SAPS   H3R 2034   5.522   4.125   2.878  2.0056 -2.0266 -0.5713
   16SAPS   H3S 2035   5.479   3.953   2.870  0.9633 -0.6821  0.6623
   16SAPS   C24 2036   5.522   4.009   3.070 -0.3231 -0.9368 -0.6209
   16SAPS   H4R 2037   5.618   3.955   3.060  0.2521 -0.3659  1.4581
   16SAPS   H4S 2038   5.471   3.923   3.119 -0.8607 -0.4039 -0.2180
   16SAPS   C25 2039   5.536   4.139   3.155  0.4715  0.0328  0.8926
   16SAPS   H5R 2040   5.595   4.223   3.115  1.3674 -1.2622 -0.6405
   16SAPS   C26 2041   5.480   4.161   3.274 -0.1790  0.9196  0.2158
   16SAPS   H6R 2042   5.504   4.255   3.326  2.8293 -1.3063  3.3035
   16SAPS   C27 2043   5.398   4.060   3.355 -0.0316 -0.3137  0.5845
   16SAPS   H7R 2044   5.333   4.004   3.285 -1.8509  0.0387  1.9288
   16SAPS   H7S 2045   5.344   4.120   3.431  4.0322  3.1846  1.0866
   16SAPS   C28 2046   5.499   3.965   3.428 -0.5354 -0.4086 -0.0827
   16SAPS   H8R 2047   5.579   3.929   3.361 -1.7705 -4.5265  0.3319
   16SAPS   C29 2048   5.489   3.928   3.560 -0.2256 -0.5148 -0.1289
   16SAPS   H9R 2049   5.572   3.880   3.615 -1.7790 -1.2934  1.6506
   16SAPS  C210 2050   5.389   3.975   3.655 -0.1343 -0.2381  0.3081
   16SAPS  H10R 2051   5.363   3.896   3.729  3.1143 -0.5808  1.2591
   16SAPS  H10S 2052   5.289   3.998   3.614 -0.7632 -0.1818  1.7991
   16SAPS  C211 2053   5.437   4.096   3.733  0.0766 -0.1050  0.1130
   16SAPS  H11R 2054   5.486   4.179   3.680  3.0828 -1.3594  0.6742
   16SAPS  C212 2055   5.416   4.106   3.870  0.6596 -1.2419  0.0479
   16SAPS  H12R 2056   5.435   4.202   3.920 -2.2677 -0.0646 -0.8536
   16SAPS  C213 2057   5.351   3.998   3.954  0.0259 -0.5002  0.3435
   16SAPS  H13R 2058   5.416   3.910   3.937  1.9509  0.8197  0.6134
   16SAPS  H13S 2059   5.258   3.973   3.899  1.2046 -1.0114 -1.4960
   16SAPS  C214 2060   5.323   4.028   4.097 -0.6308  0.7906  0.8130
   16SAPS  H14R 2061   5.394   4.086   4.156 -0.0723  1.3924 -0.4248
   16SAPS  C215 2062   5.217   3.975   4.161 -0.2513 -0.0592  0.3150
   16SAPS  H15R 2063   5.215   3.985   4.271 -0.4208 -0.6045  0.3611
   16SAPS  C216 2064   5.113   3.893   4.096 -0.2488  1.5203  0.3538
   16SAPS  H16R 2065   5.132   3.864   3.990  1.0498 -0.5958  1.1036
   16SAPS  H16S 2066   5.011   3.937   4.093 -1.8331 -1.8774 -0.7720
   16SAPS  C217 2067   5.100   3.749   4.149  0.5558 -0.5847  0.1277
   16SAPS  H17R 2068   5.046   3.735   4.245 -1.9860 -2.1000 -1.4242
   16SAPS  H17S 2069   5.201   3.703   4.156  0.1804 -1.3503  0.7180
   16SAPS  C218 2070   5.019   3.658   4.051  0.5772 -0.3244 -0.7946
   16SAPS  H18R 2071   5.062   3.656   3.949  3.3061  0.6559  0.2257
   16SAPS  H18S 2072   4.921   3.710   4.054  0.6943  0.0241  3.2455
   16SAPS  C219 2073   4.984   3.520   4.108 -0.1416 -0.1362 -0.4746
   16SAPS  H19R 2074   4.912   3.467   4.041  0.9342 -1.0988 -0.9101
   16SAPS  H19S 2075   4.949   3.531   4.212  1.7109  1.8451  0.0036
   16SAPS  C220 2076   5.115   3.423   4.102  0.1756  0.2727 -0.4068
   16SAPS  H20R 2077   5.193   3.469   4.165 -1.0754  0.3960  1.1172
   16SAPS  H20S 2078   5.144   3.403   3.996 -1.9874 -0.5960 -0.9019
   16SAPS  H20T 2079   5.092   3.325   4.149  1.1239  0.8728  1.3483
   16SAPS   C33 2080   4.811   4.379   2.857 -0.0460  1.0918 -0.3785
   16SAPS   H3X 2081   4.917   4.378   2.824  0.6972 -0.8664  1.7942
   16SAPS   H3Y 2082   4.793   4.307   2.940  0.8645 -0.3800 -1.4041
   16SAPS   C34 2083   4.793   4.523   2.891  0.0447 -0.1251 -0.2466
   16SAPS   H4X 2084   4.686   4.540   2.914 -0.2888 -0.2449 -1.6100
   16SAPS   H4Y 2085   4.827   4.593   2.811 -0.1352  1.5499  1.0775
   16SAPS   C35 2086   4.867   4.554   3.023 -0.2420  0.2171 -0.6127
   16SAPS   H5X 2087   4.928   4.647   3.015  1.7669 -1.0271 -0.6823
   16SAPS   H5Y 2088   4.941   4.471   3.023 -0.9189 -0.5292 -3.9852
   16SAPS   C36 2089   4.780   4.552   3.152 -0.1084 -0.4650  0.2099
   16SAPS   H6X 2090   4.849   4.560   3.239 -2.3730  2.6819  1.9275
   16SAPS   H6Y 2091   4.731   4.453   3.143 -1.1204  0.1243 -1.0329
   16SAPS   C37 2092   4.664   4.657   3.162 -0.0448 -0.1396  0.1569
   16SAPS   H7X 2093   4.583   4.642   3.088 -0.9176  1.4145  0.7507
   16SAPS   H7Y 2094   4.706   4.759   3.148 -0.0681  0.3048  2.7700
   16SAPS   C38 2095   4.592   4.639   3.294 -0.0899  0.1232 -0.3478
   16SAPS   H8X 2096   4.555   4.535   3.309 -4.4990  1.4166 -0.9671
   16SAPS   H8Y 2097   4.499   4.698   3.288  0.6525  1.3136 -0.4375
   16SAPS   C39 2098   4.675   4.679   3.414  0.5147  0.1845 -0.0352
   16SAPS   H9X 2099   4.711   4.784   3.405 -2.2361  1.6102  3.2786
   16SAPS   H9Y 2100   4.765   4.618   3.440 -0.2191  0.0867  2.5732
   16SAPS  C310 2101   4.596   4.678   3.545 -0.3282  0.0859  1.0708
   16SAPS  H10X 2102   4.513   4.608   3.521 -0.5103  0.8722 -0.7221
   16SAPS  H10Y 2103   4.550   4.778   3.564  0.7139  0.6911  0.4610
   16SAPS  C311 2104   4.676   4.627   3.663 -0.2587  0.2908 -0.1208
   16SAPS  H11X 2105   4.771   4.684   3.665  0.7251 -1.2271 -0.9581
   16SAPS  H11Y 2106   4.708   4.524   3.635  2.2048  0.7343  0.8202
   16SAPS  C312 2107   4.602   4.658   3.795 -0.0503 -0.5308 -0.8740
   16SAPS  H12X 2108   4.516   4.588   3.802 -1.4775  1.1852 -0.2717
   16SAPS  H12Y 2109   4.568   4.764   3.787  2.9333  0.5816 -0.2660
   16SAPS  C313 2110   4.690   4.663   3.917 -0.7679 -0.1939 -0.2387
   16SAPS  H13X 2111   4.766   4.584   3.904 -1.1513 -0.4132 -1.2315
   16SAPS  H13Y 2112   4.631   4.629   4.005  1.0711  0.1309  1.1838
   16SAPS  C314 2113   4.748   4.801   3.954 -0.0975  0.1782  0.0172
   16SAPS  H14X 2114   4.661   4.869   3.970 -1.1546 -1.3714  1.2389
   16SAPS  H14Y 2115   4.801   4.839   3.864 -1.4205  0.3419 -0.7303
   16SAPS  C315 2116   4.838   4.805   4.069 -0.6008 -0.6347 -0.2752
   16SAPS  H15X 2117   4.908   4.722   4.046  1.1624  0.5509  0.5650
   16SAPS  H15Y 2118   4.788   4.775   4.164 -0.5790  1.6233  0.5004
   16SAPS  C316 2119   4.927   4.923   4.086 -0.5925 -0.2932 -0.5839
   16SAPS  H16X 2120   4.866   5.013   4.111 -0.1096 -0.3764  0.9916
   16SAPS  H16Y 2121   4.973   4.950   3.988 -0.3966  0.1614 -0.3717
   16SAPS  C317 2122   5.038   4.896   4.184 -0.1272  0.6018  0.4805
   16SAPS  H17X 2123   5.103   4.814   4.146 -0.3029  0.3501  0.7209
   16SAPS  H17Y 2124   5.000   4.859   4.281 -1.2406 -1.1312 -0.5710
   16SAPS  C318 2125   5.117   5.023   4.199 -1.0280 -0.3116 -0.4395
   16SAPS  H18X 2126   5.204   5.022   4.267 -1.9313  4.0211  1.1167
   16SAPS  H18Y 2127   5.051   5.109   4.225  2.0250  1.6093  1.5857
   16SAPS  H18Z 2128   5.151   5.045   4.095  0.8185  2.4741  0.6372
   17SAPS     N 2129   2.009   2.198   2.061  0.4900 -0.7020  0.3839
   17SAPS   HN1 2130   2.101   2.208   2.109 -0.3779  1.0866  1.7932
   17SAPS   HN2 2131   1.969   2.292   2.078  0.4892 -0.5119 -0.6145
   17SAPS   HN3 2132   1.952   2.127   2.113 -2.3511 -0.1572 -1.7628
   17SAPS   C12 2133   1.990   2.164   1.913 -0.5207 -0.1516 -0.8252
   17SAPS  H12A 2134   2.024   2.254   1.866  0.2063  0.1187  0.1832
   17SAPS   C13 2135   2.078   2.034   1.867  0.0113 -0.1047  0.3952
   17SAPS  O13A 2136   2.143   1.972   1.954  0.8812 -0.2835 -0.9131
   17SAPS  O13B 2137   2.063   2.000   1.749  0.3022 -0.4012 -0.6903
   17SAPS   C11 2138   1.842   2.146   1.883  0.9063 -0.2308 -0.2945
   17SAPS  H11A 2139   1.797   2.063   1.941  0.4133  1.7651  2.4140
   17SAPS  H11B 2140   1.827   2.131   1.774  1.5157  2.8393 -0.9173
   17SAPS     P 2141   1.623   2.295   1.837  0.2123 -0.0191 -0.5080
   17SAPS   O13 2142   1.621   2.440   1.804 -0.2104  0.1171  0.1381
   17SAPS   O14 2143   1.605   2.210   1.718  0.1045 -0.1354  0.0744
   17SAPS   O12 2144   1.762   2.268   1.912 -0.2898  0.1511 -0.5131
   17SAPS   O11 2145   1.515   2.259   1.949 -0.0052 -0.2202  0.0861
   17SAPS    C1 2146   1.538   2.194   2.077  0.0434 -0.1535  0.1163
   17SAPS    HA 2147   1.497   2.091   2.083 -1.6059  0.4468 -0.1755
   17SAPS    HB 2148   1.646   2.174   2.091  0.5810 -0.3074 -3.2681
   17SAPS    C2 2149   1.483   2.278   2.196  0.1235 -0.3160 -0.2307
   17SAPS    HS 2150   1.527   2.227   2.284 -0.1913  0.1992  0.2337
   17SAPS   O21 2151   1.338   2.261   2.191 -0.6100  0.0957 -0.0398
   17SAPS   C21 2152   1.273   2.266   2.311  0.5179  0.1317 -0.0529
   17SAPS   O22 2153   1.329   2.256   2.419 -0.5686  0.6566 -0.3316
   17SAPS   C22 2154   1.123   2.301   2.299 -0.3876 -0.0853 -0.3784
   17SAPS   H2R 2155   1.104   2.388   2.365  0.5501 -0.1632  0.0010
   17SAPS   H2S 2156   1.092   2.326   2.195 -0.9226  1.9203  0.2314
   17SAPS    C3 2157   1.518   2.431   2.199  0.5360  0.2465  1.1739
   17SAPS    HX 2158   1.451   2.478   2.123 -1.1260 -2.6036  0.7288
   17SAPS    HY 2159   1.620   2.443   2.158  0.0041  1.3715  0.1143
   17SAPS   O31 2160   1.486   2.498   2.323  0.6043  0.2483 -0.2455
   17SAPS   C31 2161   1.585   2.470   2.413  0.7055 -0.5237 -0.6272
   17SAPS   O32 2162   1.687   2.411   2.387 -0.1140  0.3702  0.4070
   17SAPS   C32 2163   1.547   2.531   2.547 -0.0761 -0.6041  0.5991
   17SAPS   H2X 2164   1.440   2.562   2.546  0.6960  2.5898 -2.1271
   17SAPS   H2Y 2165   1.598   2.629   2.547 -0.7110 -0.2727  0.6592
   17SAPS   C23 2166   1.023   2.189   2.342  0.2110  0.2715 -0.0671
   17SAPS   H3R 2167   1.042   2.095   2.286 -2.2857  1.1062 -2.5399
   17SAPS   H3S 2168   0.931   2.217   2.287  0.0928 -2.4766 -1.4374
   17SAPS   C24 2169   1.007   2.148   2.492  1.1140 -0.2724  0.6577
   17SAPS   H4R 2170   1.105   2.110   2.529  1.9471 -1.5370 -2.5746
   17SAPS   H4S 2171   0.940   2.060   2.484  2.2485 -1.1772  0.7470
   17SAPS   C25 2172   0.948   2.258   2.576  0.1115 -0.0259 -0.0375
   17SAPS   H5R 2173   0.976   2.359   2.542 -2.9005  0.0435 -2.8736
   17SAPS   C26 2174   0.876   2.231   2.692 -0.7821 -0.6696 -0.5217
   17SAPS   H6R 2175   0.843   2.319   2.748 -2.3556 -0.7985 -1.2018
   17SAPS   C27 2176   0.873   2.096   2.761 -0.0140 -0.6260  0.2354
   17SAPS   H7R 2177   0.926   2.099   2.859  1.0649 -1.7373 -0.2790
   17SAPS   H7S 2178   0.932   2.013   2.715 -2.3854 -2.1670 -0.2286
   17SAPS   C28 2179   0.732   2.051   2.776  0.4014  0.4487 -0.6840
   17SAPS   H8R 2180   0.701   1.992   2.687  0.4502  1.1669 -1.1835
   17SAPS   C29 2181   0.647   2.057   2.879 -0.2049  0.0274  0.0595
   17SAPS   H9R 2182   0.543   2.023   2.871 -0.4915  0.6618  0.9370
   17SAPS  C210 2183   0.685   2.125   3.008  0.3853  0.4941  0.3271
   17SAPS  H10R 2184   0.787   2.167   3.017 -0.1876  1.5576  2.8043
   17SAPS  H10S 2185   0.687   2.049   3.089 -0.4895  2.9113  2.7618
   17SAPS  C211 2186   0.595   2.250   3.045  0.0302  0.3175  0.4554
   17SAPS  H11R 2187   0.586   2.323   2.963 -2.9646  2.7664  2.7019
   17SAPS  C212 2188   0.533   2.274   3.162  0.5488  0.4900  0.8478
   17SAPS  H12R 2189   0.485   2.373   3.172 -1.6527 -0.0920 -2.4839
   17SAPS  C213 2190   0.535   2.195   3.283  0.0321  0.2462 -0.0137
   17SAPS  H13R 2191   0.560   2.259   3.371 -1.2952  0.3201  0.3328
   17SAPS  H13S 2192   0.621   2.125   3.283  0.8334  1.1885  0.8359
   17SAPS  C214 2193   0.412   2.113   3.297  0.1773 -0.0044  0.4627
   17SAPS  H14R 2194   0.374   2.075   3.202 -1.1845 -0.1820  1.0562
   17SAPS  C215 2195   0.353   2.065   3.409  0.1437 -0.4399 -0.2694
   17SAPS  H15R 2196   0.254   2.018   3.402  0.8644 -2.1854  0.4522
   17SAPS  C216 2197   0.396   2.100   3.549  0.2592  0.7756  0.1326
   17SAPS  H16R 2198   0.344   2.196   3.569  0.2740  0.7010  0.5341
   17SAPS  H16S 2199   0.503   2.128   3.556  0.6937 -0.5218 -0.6987
   17SAPS  C217 2200   0.355   2.004   3.663  0.8428  0.3256  0.4744
   17SAPS  H17R 2201   0.406   1.906   3.649 -0.9313 -0.4797 -0.8022
   17SAPS  H17S 2202   0.246   1.987   3.657  0.7475  1.3321 -1.2250
   17SAPS  C218 2203   0.388   2.060   3.802 -0.6372 -0.6028  0.4148
   17SAPS  H18R 2204   0.345   2.161   3.813  0.7431  0.0179  0.3281
   17SAPS  H18S 2205   0.499   2.065   3.811 -0.5379 -0.7872 -0.5588
   17SAPS  C219 2206   0.322   1.960   3.901 -0.0801  0.0280  0.1580
   17SAPS  H19R 2207   0.352   1.856   3.878  0.8692  0.4414 -0.5241
   17SAPS  H19S 2208   0.214   1.956   3.875  0.5355  0.7863 -2.9334
   17SAPS  C220 2209   0.340   1.993   4.055 -0.1218 -0.2107  0.1174
   17SAPS  H20R 2210   0.345   2.104   4.058 -0.3025 -0.2134  2.8579
   17SAPS  H20S 2211   0.432   1.939   4.088 -0.0437  0.3387  0.8112
   17SAPS  H20T 2212   0.266   1.950   4.126  1.0730 -1.6958  0.5170
   17SAPS   C33 2213   1.584   2.445   2.666  0.7642  0.9654  0.0827
   17SAPS   H3X 2214   1.682   2.395   2.672  0.4868  0.6069  2.4368
   17SAPS   H3Y 2215   1.509   2.364   2.670  2.7841 -0.9601  0.5478
   17SAPS   C34 2216   1.586   2.528   2.795  0.0904 -0.2780 -0.3244
   17SAPS   H4X 2217   1.506   2.605   2.797  0.1613 -0.2155  1.0310
   17SAPS   H4Y 2218   1.679   2.589   2.794 -1.4098  2.2299  1.4437
   17SAPS   C35 2219   1.581   2.449   2.924 -0.0662  0.1632 -0.3202
   17SAPS   H5X 2220   1.602   2.519   3.008  1.2924 -0.7960  0.1835
   17SAPS   H5Y 2221   1.658   2.368   2.921  0.1826  0.2405  2.1570
   17SAPS   C36 2222   1.440   2.386   2.947  0.0361  0.0502  0.0559
   17SAPS   H6X 2223   1.405   2.315   2.869 -0.1829  0.7408 -0.4904
   17SAPS   H6Y 2224   1.360   2.461   2.967  1.0630  0.6823  2.1088
   17SAPS   C37 2225   1.420   2.299   3.073  0.5212 -0.5752 -0.2480
   17SAPS   H7X 2226   1.487   2.210   3.065  0.9793 -0.6311  3.1229
   17SAPS   H7Y 2227   1.312   2.275   3.080  0.8703 -1.9935  0.6780
   17SAPS   C38 2228   1.459   2.375   3.206 -0.4707  0.4729 -0.2594
   17SAPS   H8X 2229   1.382   2.451   3.232 -1.0745 -0.9581  2.5001
   17SAPS   H8Y 2230   1.558   2.424   3.192 -1.4586  2.5417 -0.3926
   17SAPS   C39 2231   1.454   2.284   3.331 -0.1143  0.9719 -0.1763
   17SAPS   H9X 2232   1.524   2.199   3.315 -1.4138  0.1096 -1.6178
   17SAPS   H9Y 2233   1.354   2.237   3.326 -0.8689  2.2186  2.0767
   17SAPS  C310 2234   1.470   2.356   3.463  0.4590 -0.6343  0.1633
   17SAPS  H10X 2235   1.383   2.425   3.476  0.1851 -0.9905  0.2465
   17SAPS  H10Y 2236   1.547   2.435   3.464 -0.7681  0.6340 -0.9958
   17SAPS  C311 2237   1.483   2.267   3.584 -0.4412 -0.1953 -0.6609
   17SAPS  H11X 2238   1.557   2.189   3.559  0.6885  0.1521  1.3322
   17SAPS  H11Y 2239   1.385   2.231   3.624 -0.5518  0.6773 -0.1086
   17SAPS  C312 2240   1.534   2.341   3.707  0.5007  0.1416  0.0428
   17SAPS  H12X 2241   1.456   2.416   3.733 -0.6751 -1.5085  1.4999
   17SAPS  H12Y 2242   1.625   2.396   3.674 -0.4707  0.6937 -1.8171
   17SAPS  C313 2243   1.557   2.254   3.835 -0.0782 -0.0082  0.1316
   17SAPS  H13X 2244   1.595   2.317   3.918 -0.5950 -0.8603  1.0256
   17SAPS  H13Y 2245   1.639   2.182   3.812  0.0296  0.2029 -0.1501
   17SAPS  C314 2246   1.437   2.173   3.884 -0.2067 -0.0864  0.3771
   17SAPS  H14X 2247   1.400   2.097   3.812 -0.8340  0.4430  0.1362
   17SAPS  H14Y 2248   1.358   2.250   3.889  1.2752  1.5930 -0.8002
   17SAPS  C315 2249   1.460   2.113   4.025 -0.6375 -0.3940  0.7954
   17SAPS  H15X 2250   1.501   2.196   4.088  2.6564  0.2846 -1.9499
   17SAPS  H15Y 2251   1.534   2.031   4.010 -1.0922 -0.6171 -0.2621
   17SAPS  C316 2252   1.343   2.055   4.104 -0.2437  0.1439  0.6036
   17SAPS  H16X 2253   1.308   1.966   4.047 -1.4973  0.3096  1.0805
   17SAPS  H16Y 2254   1.264   2.133   4.110 -1.1536 -0.7874  0.9880
   17SAPS  C317 2255   1.384   2.009   4.243 -0.0907 -0.5561 -0.0485
   17SAPS  H17X 2256   1.427   2.098   4.294 -0.5275  0.5389 -1.5324
   17SAPS  H17Y 2257   1.466   1.933   4.243  0.7679  0.3529  0.5700
   17SAPS  C318 2258   1.256   1.980   4.329  0.1304 -0.0302 -0.2750
   17SAPS  H18X 2259   1.194   2.072   4.336  0.5838  0.2632 -0.0706
   17SAPS  H18Y 2260   1.279   1.940   4.430 -0.1742 -0.4941 -0.3856
   17SAPS  H18Z 2261   1.196   1.904   4.275 -2.3892  0.2245  2.0001
   18SAPS     N 2262   4.982   2.674   2.147 -0.0769 -0.0959 -0.4972
   18SAPS   HN1 2263   5.004   2.573   2.142 -0.3205 -0.2715  1.3835
   18SAPS   HN2 2264   5.045   2.742   2.100 -1.1120  0.3075 -1.3577
   18SAPS   HN3 2265   4.968   2.708   2.244  0.7513 -0.5882 -0.1975
   18SAPS   C12 2266   4.847   2.690   2.071 -0.4644 -0.3105 -0.2738
   18SAPS  H12A 2267   4.822   2.794   2.083 -1.1458 -0.1586 -2.5179
   18SAPS   C13 2268   4.841   2.661   1.924 -0.3815 -0.1936  0.9227
   18SAPS  O13A 2269   4.936   2.599   1.868  0.3239 -0.6051  0.5977
   18SAPS  O13B 2270   4.750   2.702   1.850 -0.7918 -0.3090 -0.0922
   18SAPS   C11 2271   4.738   2.603   2.147 -0.2209  0.2066  0.8975
   18SAPS  H11A 2272   4.769   2.497   2.146  0.4430  0.3606 -1.1703
   18SAPS  H11B 2273   4.644   2.612   2.088  0.4043  0.3598 -0.1043
   18SAPS     P 2274   4.587   2.583   2.359 -0.0324 -0.1249  0.0173
   18SAPS   O13 2275   4.472   2.657   2.304  0.3645 -0.1791  0.2413
   18SAPS   O14 2276   4.573   2.435   2.349 -0.5081 -0.3776  0.4324
   18SAPS   O12 2277   4.718   2.636   2.283 -0.1542  0.2183 -0.1332
   18SAPS   O11 2278   4.612   2.626   2.511  0.2022 -0.1213  0.3743
   18SAPS    C1 2279   4.499   2.675   2.588 -0.5824  0.0489 -0.6682
   18SAPS    HA 2280   4.400   2.628   2.568  0.1763 -1.7442 -0.4085
   18SAPS    HB 2281   4.513   2.656   2.697 -3.3849  2.2430  0.2046
   18SAPS    C2 2282   4.488   2.836   2.594 -0.0651 -0.2196 -0.1406
   18SAPS    HS 2283   4.512   2.866   2.490  1.1282 -2.0345 -0.4337
   18SAPS   O21 2284   4.596   2.882   2.679 -0.6619  0.1017  0.0701
   18SAPS   C21 2285   4.626   3.013   2.653 -0.1743  0.3580  0.5956
   18SAPS   O22 2286   4.576   3.086   2.567  0.3233 -0.6570  0.5572
   18SAPS   C22 2287   4.736   3.054   2.751  1.0377 -0.5760  0.3289
   18SAPS   H2R 2288   4.732   3.001   2.848  0.5735  2.2484  1.9879
   18SAPS   H2S 2289   4.832   3.033   2.699  1.8227  1.3994  0.8608
   18SAPS    C3 2290   4.350   2.889   2.646  0.4707  0.1800 -0.0657
   18SAPS    HX 2291   4.277   2.865   2.566  1.0365  0.2396 -0.6098
   18SAPS    HY 2292   4.358   3.000   2.649  4.2692  0.0509  2.7630
   18SAPS   O31 2293   4.301   2.824   2.765 -0.1202  0.6052  0.0885
   18SAPS   C31 2294   4.294   2.893   2.880  0.3063  0.7840  0.2594
   18SAPS   O32 2295   4.339   3.005   2.885  0.4118 -0.5838  0.2655
   18SAPS   C32 2296   4.216   2.825   2.990  0.2929  0.9116  0.3922
   18SAPS   H2X 2297   4.207   2.716   2.970 -2.0061  0.8596  1.3914
   18SAPS   H2Y 2298   4.110   2.859   2.997 -0.2188 -0.1612 -1.3961
   18SAPS   C23 2299   4.722   3.207   2.772  0.1645 -0.1080 -0.0938
   18SAPS   H3R 2300   4.624   3.236   2.816 -0.1544  0.6200 -1.2531
   18SAPS   H3S 2301   4.723   3.261   2.675 -0.0299  0.0375 -0.0151
   18SAPS   C24 2302   4.827   3.254   2.880  0.3858  0.2754  0.2323
   18SAPS   H4R 2303   4.844   3.179   2.960  1.6408  0.9862  0.6617
   18SAPS   H4S 2304   4.789   3.342   2.935 -0.0214 -0.1335  0.6105
   18SAPS   C25 2305   4.958   3.276   2.820 -0.0249 -0.4261 -0.1094
   18SAPS   H5R 2306   4.975   3.228   2.722  2.6976  1.7411 -0.8250
   18SAPS   C26 2307   5.035   3.380   2.837 -0.1996 -0.2721 -0.3040
   18SAPS   H6R 2308   5.132   3.384   2.786 -0.6173  1.4939 -1.0439
   18SAPS   C27 2309   5.007   3.504   2.912 -0.7032 -0.3120 -1.1834
   18SAPS   H7R 2310   4.901   3.528   2.887 -0.7398  0.0135 -0.7335
   18SAPS   H7S 2311   5.066   3.591   2.878 -1.7668  1.1958  0.6333
   18SAPS   C28 2312   5.027   3.490   3.063 -0.2268  0.0733  0.1853
   18SAPS   H8R 2313   5.027   3.385   3.097  3.2914 -2.6371 -6.4844
   18SAPS   C29 2314   5.062   3.581   3.159  0.9652 -0.5767 -0.3083
   18SAPS   H9R 2315   5.054   3.554   3.266 -1.6626  1.7299  0.1886
   18SAPS  C210 2316   5.084   3.730   3.135 -0.6761 -0.3850 -0.1095
   18SAPS  H10R 2317   5.147   3.738   3.044 -0.6652  1.4383  0.0139
   18SAPS  H10S 2318   5.155   3.764   3.213 -0.0704  0.7814 -1.1344
   18SAPS  C211 2319   4.965   3.816   3.115  0.6477  0.5581  0.1288
   18SAPS  H11R 2320   4.884   3.756   3.070  1.6538 -1.1277  0.5079
   18SAPS  C212 2321   4.951   3.941   3.152 -0.0050 -0.4945  0.1775
   18SAPS  H12R 2322   4.860   3.999   3.128  0.1585  0.1343  1.0089
   18SAPS  C213 2323   5.051   4.042   3.208 -0.4860  0.9781 -0.0257
   18SAPS  H13R 2324   5.148   4.031   3.154  0.5677  1.8969  1.6099
   18SAPS  H13S 2325   5.066   4.000   3.309  0.3032 -3.0483 -1.6395
   18SAPS  C214 2326   5.008   4.184   3.212 -0.4208 -0.7232  0.6217
   18SAPS  H14R 2327   5.064   4.256   3.150  0.1477 -0.7316  1.1173
   18SAPS  C215 2328   4.901   4.236   3.272 -0.2709 -0.6028 -0.9759
   18SAPS  H15R 2329   4.895   4.346   3.270  1.2000 -0.4872 -0.4726
   18SAPS  C216 2330   4.792   4.169   3.352  0.3514  0.2520 -0.1686
   18SAPS  H16R 2331   4.813   4.063   3.375 -0.0930  0.6278  2.2032
   18SAPS  H16S 2332   4.698   4.191   3.298  0.8877  0.7466 -0.9257
   18SAPS  C217 2333   4.779   4.239   3.492  0.3833 -0.4953  0.3012
   18SAPS  H17R 2334   4.686   4.203   3.541 -0.8154  2.1184  0.1670
   18SAPS  H17S 2335   4.761   4.348   3.476 -2.7548 -1.0717 -0.8576
   18SAPS  C218 2336   4.895   4.217   3.582  0.1698 -0.0497 -0.2222
   18SAPS  H18R 2337   4.989   4.261   3.541  1.7568 -1.1439  2.0126
   18SAPS  H18S 2338   4.922   4.109   3.578  1.9614  0.3803 -0.9168
   18SAPS  C219 2339   4.874   4.255   3.729  0.6998  0.7140  0.0489
   18SAPS  H19R 2340   4.782   4.208   3.768  1.6517  0.8904  2.7543
   18SAPS  H19S 2341   4.859   4.363   3.752  0.9088  0.4949  1.2529
   18SAPS  C220 2342   4.991   4.210   3.816 -0.4440 -0.0860  0.3020
   18SAPS  H20R 2343   4.985   4.246   3.921 -2.3693 -1.2770  0.6516
   18SAPS  H20S 2344   5.087   4.258   3.788  0.2009 -0.9287  0.9903
   18SAPS  H20T 2345   5.020   4.102   3.812  0.7443  0.2251  0.1323
   18SAPS   C33 2346   4.276   2.861   3.124  0.1177  0.4097  0.6648
   18SAPS   H3X 2347   4.273   2.971   3.139 -2.6591  0.1846  2.5233
   18SAPS   H3Y 2348   4.382   2.827   3.118  0.0029  0.3342 -1.9234
   18SAPS   C34 2349   4.197   2.788   3.230  0.2557 -0.1925 -0.1437
   18SAPS   H4X 2350   4.203   2.679   3.209  0.0886 -0.0092 -1.1913
   18SAPS   H4Y 2351   4.086   2.796   3.231  0.1286 -1.4725  1.7200
   18SAPS   C35 2352   4.243   2.809   3.376 -0.1506 -0.5755 -0.5029
   18SAPS   H5X 2353   4.352   2.829   3.378 -0.0697 -0.7926 -1.8145
   18SAPS   H5Y 2354   4.218   2.719   3.437 -0.9593 -0.4423 -0.6338
   18SAPS   C36 2355   4.163   2.924   3.455 -0.9542  0.3035  0.4748
   18SAPS   H6X 2356   4.055   2.897   3.453 -1.0530  0.7245 -0.1992
   18SAPS   H6Y 2357   4.177   3.012   3.388  1.5777 -0.4589 -0.0984
   18SAPS   C37 2358   4.209   2.953   3.596  0.0850 -0.2356 -0.3316
   18SAPS   H7X 2359   4.157   3.046   3.625  0.4407 -0.6453  1.7671
   18SAPS   H7Y 2360   4.319   2.968   3.593  0.1455 -0.3495  0.7843
   18SAPS   C38 2361   4.173   2.852   3.713 -0.2957  0.1769  0.2190
   18SAPS   H8X 2362   4.225   2.755   3.696 -0.0958  0.4725 -0.9581
   18SAPS   H8Y 2363   4.063   2.834   3.710  0.0321 -2.5448  1.0628
   18SAPS   C39 2364   4.211   2.912   3.846 -0.2751  0.2036  0.2111
   18SAPS   H9X 2365   4.155   3.005   3.871 -0.2241  0.2104  0.3013
   18SAPS   H9Y 2366   4.320   2.930   3.858 -0.2309  0.1018 -0.0482
   18SAPS  C310 2367   4.175   2.809   3.962 -0.4433 -0.1272  0.1731
   18SAPS  H10X 2368   4.244   2.722   3.959 -0.4980 -0.4241  3.6457
   18SAPS  H10Y 2369   4.072   2.767   3.964 -0.2644 -0.5701  2.0306
   18SAPS  C311 2370   4.199   2.879   4.098  0.4382  0.1541 -0.0249
   18SAPS  H11X 2371   4.188   2.800   4.175  0.6945  0.6510  0.5297
   18SAPS  H11Y 2372   4.109   2.943   4.107  0.2384 -0.1757  0.3004
   18SAPS  C312 2373   4.341   2.941   4.116 -0.2762 -0.0956 -0.2975
   18SAPS  H12X 2374   4.349   3.026   4.045  3.0806 -0.2281 -0.2351
   18SAPS  H12Y 2375   4.426   2.877   4.087 -0.9037 -1.4356  0.7339
   18SAPS  C313 2376   4.379   2.999   4.256  0.3002 -0.5241  0.3890
   18SAPS  H13X 2377   4.479   3.045   4.243 -0.0628 -0.2439 -1.6374
   18SAPS  H13Y 2378   4.383   2.920   4.334  1.9065  0.8928  1.8373
   18SAPS  C314 2379   4.275   3.107   4.295  0.4865  0.2382  0.6250
   18SAPS  H14X 2380   4.186   3.046   4.322  0.1167  0.0765 -0.8838
   18SAPS  H14Y 2381   4.248   3.155   4.198 -0.6886 -1.0179  0.2891
   18SAPS  C315 2382   4.312   3.212   4.402  0.5721  0.3515 -0.0731
   18SAPS  H15X 2383   4.342   3.162   4.496 -0.9927  0.5871  0.5853
   18SAPS  H15Y 2384   4.223   3.271   4.431 -0.9421 -1.4851 -0.7896
   18SAPS  C316 2385   4.429   3.305   4.364  0.4963 -0.9872  0.2223
   18SAPS  H16X 2386   4.416   3.351   4.264  0.0156 -1.7210 -0.0605
   18SAPS  H16Y 2387   4.519   3.243   4.346  0.7405 -0.9191  1.1186
   18SAPS  C317 2388   4.471   3.408   4.468  0.1795 -0.1655 -0.6127
   18SAPS  H17X 2389   4.489   3.354   4.563  1.5781  0.1015 -0.7089
   18SAPS  H17Y 2390   4.387   3.477   4.490  0.5761  0.2344 -0.3541
   18SAPS  C318 2391   4.600   3.479   4.434  0.1341  0.2666 -0.1862
   18SAPS  H18X 2392   4.639   3.540   4.518  0.1632 -0.3837  0.2838
   18SAPS  H18Y 2393   4.589   3.552   4.351 -1.6770  1.1049  0.7325
   18SAPS  H18Z 2394   4.679   3.404   4.411 -1.5718 -1.1725 -1.7036
   19SAPS     N 2395   4.314   0.438   2.450 -0.4766  0.1639 -0.2225
   19SAPS   HN1 2396   4.364   0.408   2.536 -0.6047  0.4614 -0.0461
   19SAPS   HN2 2397   4.349   0.527   2.409 -0.3946 -0.0665 -0.6638
   19SAPS   HN3 2398   4.219   0.460   2.484 -0.0775 -2.4345  3.0719
   19SAPS   C12 2399   4.314   0.321   2.352 -0.0438  0.2822 -0.7684
   19SAPS  H12A 2400   4.311   0.229   2.409  3.2982  0.1916 -0.5134
   19SAPS   C13 2401   4.201   0.338   2.251 -0.2599  0.5330  0.3696
   19SAPS  O13A 2402   4.132   0.441   2.256 -0.3586 -0.1486  0.3217
   19SAPS  O13B 2403   4.183   0.241   2.167  0.2873 -0.3745 -0.8568
   19SAPS   C11 2404   4.452   0.318   2.274 -0.4928 -0.6191 -0.6047
   19SAPS  H11A 2405   4.480   0.420   2.243  4.1455 -1.6920 -0.6831
   19SAPS  H11B 2406   4.437   0.246   2.191 -1.4752  0.5837 -1.5027
   19SAPS     P 2407   4.679   0.205   2.322  0.4894 -0.2525 -0.2201
   19SAPS   O13 2408   4.684   0.201   2.173 -0.2042 -0.0499 -0.0149
   19SAPS   O14 2409   4.793   0.269   2.397  0.3629 -0.2985  0.6533
   19SAPS   O12 2410   4.548   0.274   2.369  0.3599  0.0239 -0.8648
   19SAPS   O11 2411   4.684   0.051   2.367  0.3207 -0.5056 -0.0266
   19SAPS    C1 2412   4.565  -0.003   2.431  0.3243 -0.5306 -0.2183
   19SAPS    HA 2413   4.480   0.018   2.362  2.2427  2.3022 -1.9395
   19SAPS    HB 2414   4.576  -0.113   2.431 -1.9253 -0.8137 -0.4961
   19SAPS    C2 2415   4.535   0.049   2.575 -0.1135  0.1951 -0.8344
   19SAPS    HS 2416   4.496   0.153   2.568  0.0202  0.2704 -0.5101
   19SAPS   O21 2417   4.653   0.030   2.657  0.6483  0.0931 -0.2061
   19SAPS   C21 2418   4.680   0.118   2.758  0.5839 -0.3855 -0.4017
   19SAPS   O22 2419   4.612   0.218   2.788 -0.4290  0.3121 -0.0742
   19SAPS   C22 2420   4.807   0.075   2.835 -0.3685  0.9687 -0.1038
   19SAPS   H2R 2421   4.824  -0.029   2.800 -2.2947  0.0448  1.4884
   19SAPS   H2S 2422   4.896   0.136   2.809  0.2948  0.0731  0.0176
   19SAPS    C3 2423   4.422  -0.036   2.648  0.1959  0.1366  0.3839
   19SAPS    HX 2424   4.466  -0.137   2.667 -1.2133 -0.9768 -1.7344
   19SAPS    HY 2425   4.331  -0.045   2.585  1.9870 -1.1280 -2.2671
   19SAPS   O31 2426   4.373   0.012   2.773  0.3101  0.1658  0.4940
   19SAPS   C31 2427   4.303   0.124   2.770  0.5134  0.8054 -0.2901
   19SAPS   O32 2428   4.263   0.177   2.669  0.3761  0.4713  0.1830
   19SAPS   C32 2429   4.297   0.183   2.913  0.1306  0.4747  0.5838
   19SAPS   H2X 2430   4.312   0.293   2.911  1.0572  0.3967  2.0374
   19SAPS   H2Y 2431   4.382   0.139   2.969  2.6976  1.9225 -1.9055
   19SAPS   C23 2432   4.777   0.073   2.987  0.1212  0.7035 -1.1577
   19SAPS   H3R 2433   4.679   0.026   3.012  0.1486 -0.0186 -2.3243
   19SAPS   H3S 2434   4.781   0.180   3.016  0.2015  0.1782  0.9381
   19SAPS   C24 2435   4.890   0.008   3.062 -0.2219  0.2205  0.4872
   19SAPS   H4R 2436   4.986   0.061   3.046  0.1277 -0.2066  1.1196
   19SAPS   H4S 2437   4.903  -0.088   3.008  0.5915  0.8172 -0.4180
   19SAPS   C25 2438   4.881  -0.012   3.212  0.3017  0.3814  0.4959
   19SAPS   H5R 2439   4.785   0.020   3.254 -0.0405  1.5677 -1.0978
   19SAPS   C26 2440   4.966  -0.066   3.291  0.2783  0.0704  0.4723
   19SAPS   H6R 2441   4.948  -0.065   3.400  0.3836  0.5475  0.4881
   19SAPS   C27 2442   5.101  -0.113   3.237 -0.6506 -0.5774  0.4699
   19SAPS   H7R 2443   5.107  -0.119   3.126 -0.2678  1.6813  0.3226
   19SAPS   H7S 2444   5.123  -0.219   3.262  0.3582 -0.6212 -0.5474
   19SAPS   C28 2445   5.210  -0.020   3.281  0.7086  0.1390  0.5269
   19SAPS   H8R 2446   5.258   0.034   3.199 -4.0610  1.7127 -1.6298
   19SAPS   C29 2447   5.263  -0.022   3.401 -0.1825 -0.1231  0.0875
   19SAPS   H9R 2448   5.352   0.040   3.415 -0.0871 -0.3399  0.4725
   19SAPS  C210 2449   5.218  -0.090   3.528  0.0701  0.2194 -0.3800
   19SAPS  H10R 2450   5.133  -0.158   3.509  1.2548 -1.6243  0.5900
   19SAPS  H10S 2451   5.170  -0.006   3.583 -0.2519  0.3111 -0.7976
   19SAPS  C211 2452   5.326  -0.165   3.602 -0.5075  0.3528  0.6705
   19SAPS  H11R 2453   5.383  -0.238   3.542 -0.5667  0.4732  0.4651
   19SAPS  C212 2454   5.340  -0.170   3.733 -0.4208  0.5289  1.0769
   19SAPS  H12R 2455   5.421  -0.229   3.779  0.9303  0.5453 -1.1880
   19SAPS  C213 2456   5.250  -0.099   3.833 -0.3988 -0.2651  0.0040
   19SAPS  H13R 2457   5.229   0.002   3.792  2.6841  1.0406  1.2814
   19SAPS  H13S 2458   5.316  -0.070   3.918 -0.1291  3.2630 -1.2710
   19SAPS  C214 2459   5.122  -0.169   3.884 -0.6103  0.6261 -0.0601
   19SAPS  H14R 2460   5.029  -0.157   3.826 -1.2587  0.6114  0.9679
   19SAPS  C215 2461   5.116  -0.258   3.978  0.1386  0.1635  0.1793
   19SAPS  H15R 2462   5.020  -0.300   4.013  0.4477 -0.5468  0.2070
   19SAPS  C216 2463   5.235  -0.299   4.060 -0.1626  0.9624 -0.2066
   19SAPS  H16R 2464   5.310  -0.218   4.074  0.8779  0.0926 -0.5645
   19SAPS  H16S 2465   5.275  -0.391   4.012 -0.1100  0.2808  1.1084
   19SAPS  C217 2466   5.202  -0.344   4.205  0.0410 -0.3032 -0.2690
   19SAPS  H17R 2467   5.297  -0.359   4.260  0.4469 -0.1637 -0.9181
   19SAPS  H17S 2468   5.150  -0.441   4.190 -0.7986  0.2525 -1.0400
   19SAPS  C218 2469   5.117  -0.249   4.287  0.0416  0.3807 -0.3677
   19SAPS  H18R 2470   5.025  -0.211   4.238  0.3570  2.1611  0.3416
   19SAPS  H18S 2471   5.181  -0.160   4.307 -0.8543  0.9286  0.0936
   19SAPS  C219 2472   5.083  -0.309   4.419  0.2619  0.0521 -0.0093
   19SAPS  H19R 2473   5.185  -0.332   4.457 -0.1025 -0.1646  0.8545
   19SAPS  H19S 2474   5.020  -0.400   4.415  0.6547 -0.1766 -2.5246
   19SAPS  C220 2475   5.003  -0.213   4.508  0.6239  0.1933 -0.1361
   19SAPS  H20R 2476   5.055  -0.119   4.538 -0.7551  0.8166  0.4047
   19SAPS  H20S 2477   4.980  -0.261   4.606 -2.5259  1.8664  0.0882
   19SAPS  H20T 2478   4.912  -0.184   4.451  2.1480  1.4162 -2.0877
   19SAPS   C33 2479   4.174   0.153   2.993  0.1686  0.1076 -0.5394
   19SAPS   H3X 2480   4.204   0.165   3.099  0.5825 -1.5751 -0.4478
   19SAPS   H3Y 2481   4.136   0.050   2.976 -0.2101  0.3407 -1.1324
   19SAPS   C34 2482   4.056   0.250   2.970 -0.8001  0.3422 -0.0660
   19SAPS   H4X 2483   3.999   0.222   2.879  0.2304 -1.8800 -0.0981
   19SAPS   H4Y 2484   4.096   0.353   2.954  0.1735 -0.2896 -2.0505
   19SAPS   C35 2485   3.968   0.253   3.096  0.2844  0.0363 -0.2609
   19SAPS   H5X 2486   3.928   0.152   3.120  0.6518 -0.6427 -2.2899
   19SAPS   H5Y 2487   3.878   0.313   3.070 -0.2165 -0.3093  0.6392
   19SAPS   C36 2488   4.031   0.316   3.224  0.9411  0.1772 -0.0240
   19SAPS   H6X 2489   4.052   0.424   3.204  1.7610 -0.1741 -1.1827
   19SAPS   H6Y 2490   4.133   0.278   3.247  1.1448  1.0520  0.5725
   19SAPS   C37 2491   3.942   0.293   3.350  0.2784 -0.3136  0.4154
   19SAPS   H7X 2492   3.931   0.186   3.376 -0.8533  0.6400  4.5612
   19SAPS   H7Y 2493   3.839   0.334   3.333 -1.7327 -4.7577  0.5570
   19SAPS   C38 2494   4.000   0.345   3.479  0.5062 -0.0961  0.1796
   19SAPS   H8X 2495   4.039   0.449   3.480  1.6258 -0.4770 -0.8551
   19SAPS   H8Y 2496   4.090   0.283   3.500  0.0960  0.2486  3.3272
   19SAPS   C39 2497   3.898   0.321   3.597 -0.6182 -0.0222 -0.4385
   19SAPS   H9X 2498   3.890   0.211   3.608  0.9393 -0.0605  0.6611
   19SAPS   H9Y 2499   3.806   0.380   3.577  0.2835  1.6381  0.0985
   19SAPS  C310 2500   3.953   0.369   3.736 -0.3449 -0.3538  0.3509
   19SAPS  H10X 2501   3.973   0.478   3.738 -2.0325 -0.0130 -0.1229
   19SAPS  H10Y 2502   4.053   0.321   3.752  0.2434  0.9492  0.6745
   19SAPS  C311 2503   3.852   0.333   3.847 -0.4944 -0.1855  0.5389
   19SAPS  H11X 2504   3.843   0.223   3.860 -1.1718  0.0562  2.4477
   19SAPS  H11Y 2505   3.752   0.373   3.819 -0.4187  0.5571  1.2655
   19SAPS  C312 2506   3.883   0.390   3.985 -0.2779 -0.0252 -0.0090
   19SAPS  H12X 2507   3.898   0.500   3.972  2.5147 -0.1085  1.6302
   19SAPS  H12Y 2508   3.971   0.330   4.018 -1.2428 -1.9795 -0.8371
   19SAPS  C313 2509   3.767   0.376   4.083  0.0662  0.4701 -0.1886
   19SAPS  H13X 2510   3.751   0.273   4.119  2.1551  1.0496  2.7930
   19SAPS  H13Y 2511   3.671   0.418   4.047 -1.3510  0.9182  3.6083
   19SAPS  C314 2512   3.785   0.461   4.215  0.3846 -0.2666  0.2259
   19SAPS  H14X 2513   3.768   0.563   4.174  3.1628  0.1104 -0.2133
   19SAPS  H14Y 2514   3.893   0.464   4.242  0.5005  2.3101 -0.2623
   19SAPS  C315 2515   3.690   0.442   4.332  0.2588 -0.0671 -0.0673
   19SAPS  H15X 2516   3.652   0.341   4.305  2.9294 -0.7102 -1.7981
   19SAPS  H15Y 2517   3.595   0.497   4.310  0.8498  0.0058 -2.8857
   19SAPS  C316 2518   3.754   0.456   4.463 -0.2484  0.5348  0.1095
   19SAPS  H16X 2519   3.790   0.559   4.485  2.5159 -0.5792  1.3760
   19SAPS  H16Y 2520   3.848   0.395   4.461  0.0109  0.8428  1.6198
   19SAPS  C317 2521   3.679   0.389   4.581  0.2957 -0.8699  0.0526
   19SAPS  H17X 2522   3.740   0.389   4.674  2.7061 -0.6764 -1.4536
   19SAPS  H17Y 2523   3.665   0.280   4.562 -0.0962 -1.2811  2.3771
   19SAPS  C318 2524   3.537   0.454   4.620 -0.6363  0.7423 -0.6044
   19SAPS  H18X 2525   3.488   0.458   4.520 -0.3114 -1.4182 -0.8971
   19SAPS  H18Y 2526   3.558   0.556   4.658 -1.4754  0.4071  0.8277
   19SAPS  H18Z 2527   3.483   0.384   4.687 -1.7754  0.5497 -1.6985
   20SAPS     N 2528   5.044   6.100   1.752 -0.3182  0.2142  0.4928
   20SAPS   HN1 2529   5.116   6.135   1.818 -0.7437  3.7193 -0.6436
   20SAPS   HN2 2530   5.096   6.038   1.686  1.2841  1.3226  0.6522
   20SAPS   HN3 2531   5.018   6.179   1.688  0.6168 -0.8332 -1.2783
   20SAPS   C12 2532   4.942   6.013   1.811  0.2760  0.8540 -1.1198
   20SAPS  H12A 2533   4.892   6.072   1.887  1.2641 -0.6408  0.7740
   20SAPS   C13 2534   4.831   5.958   1.713  0.2619  0.0926 -0.2744
   20SAPS  O13A 2535   4.852   5.957   1.589 -0.4283 -0.3123  0.0410
   20SAPS  O13B 2536   4.713   5.960   1.761  0.4102  0.2542 -0.0737
   20SAPS   C11 2537   5.024   5.891   1.877  0.1794  0.2753 -0.2688
   20SAPS  H11A 2538   5.054   5.823   1.795 -0.0038  0.8913 -0.8570
   20SAPS  H11B 2539   4.950   5.827   1.930 -0.4265  0.3456 -1.0052
   20SAPS     P 2540   5.104   5.983   2.109  0.6713 -0.0302  0.0654
   20SAPS   O13 2541   5.230   5.999   2.188  0.2086  0.6826  0.3209
   20SAPS   O14 2542   5.018   6.102   2.100  0.4872  0.3930  0.5054
   20SAPS   O12 2543   5.134   5.933   1.957  0.6704  0.4986 -0.5510
   20SAPS   O11 2544   5.014   5.865   2.164  0.7826 -0.0294  0.1827
   20SAPS    C1 2545   5.061   5.732   2.198 -0.9854 -0.4072 -0.6586
   20SAPS    HA 2546   5.038   5.663   2.113  0.8750  0.1410 -1.6616
   20SAPS    HB 2547   5.171   5.725   2.211 -1.1516 -2.2149  0.1355
   20SAPS    C2 2548   4.993   5.692   2.326  0.3600  0.1273  0.5237
   20SAPS    HS 2549   4.885   5.687   2.300  0.8748 -0.9013 -1.6909
   20SAPS   O21 2550   5.029   5.781   2.433  0.0415  0.3053  0.0237
   20SAPS   C21 2551   4.924   5.843   2.491 -0.3960  0.2006  0.5785
   20SAPS   O22 2552   4.811   5.839   2.453  0.2304  0.1417  0.2868
   20SAPS   C22 2553   4.972   5.918   2.609 -0.5727 -0.8115 -0.0696
   20SAPS   H2R 2554   5.065   5.876   2.652 -0.6754  0.5145  1.5690
   20SAPS   H2S 2555   4.990   6.024   2.579 -0.1377 -0.4228  1.4614
   20SAPS    C3 2556   5.026   5.544   2.363  0.3845  0.3006  0.2277
   20SAPS    HX 2557   5.133   5.545   2.393  0.0841 -0.9695  1.4538
   20SAPS    HY 2558   5.009   5.500   2.262  0.2069 -0.0316  0.3991
   20SAPS   O31 2559   4.925   5.488   2.455  0.2639 -0.2626  0.6378
   20SAPS   C31 2560   4.965   5.484   2.577 -0.0642  0.2924  0.7519
   20SAPS   O32 2561   5.079   5.497   2.614 -0.4345  0.4563 -0.4207
   20SAPS   C32 2562   4.847   5.479   2.671  0.5050  0.1950 -0.2551
   20SAPS   H2X 2563   4.790   5.385   2.652 -1.2871  1.4264 -1.2123
   20SAPS   H2Y 2564   4.782   5.563   2.641 -1.4942 -1.6119 -1.3036
   20SAPS   C23 2565   4.862   5.932   2.726  0.2736  0.3988 -0.0821
   20SAPS   H3R 2566   4.847   5.832   2.774  2.3779 -0.6191 -1.3687
   20SAPS   H3S 2567   4.759   5.954   2.692 -0.8598 -1.4365  1.8778
   20SAPS   C24 2568   4.900   6.047   2.830 -0.0891  0.4737  0.6083
   20SAPS   H4R 2569   4.823   6.065   2.909 -0.2244  0.1823  0.5437
   20SAPS   H4S 2570   4.912   6.145   2.780 -2.2318  1.4458  1.8564
   20SAPS   C25 2571   5.030   6.017   2.902  0.1431  0.4160  0.5434
   20SAPS   H5R 2572   5.108   6.090   2.875  2.0611 -2.1547 -1.3227
   20SAPS   C26 2573   5.036   5.933   3.006 -0.8435  0.5683 -0.0283
   20SAPS   H6R 2574   5.132   5.910   3.055 -0.8390  0.3365 -0.1441
   20SAPS   C27 2575   4.935   5.833   3.059  0.4053 -0.3630 -0.1464
   20SAPS   H7R 2576   4.990   5.739   3.083  0.4690  0.1047  1.7190
   20SAPS   H7S 2577   4.861   5.817   2.977 -0.4847  2.0572  0.0899
   20SAPS   C28 2578   4.868   5.889   3.180  0.6358  0.3732  0.0243
   20SAPS   H8R 2579   4.774   5.939   3.152  0.2606 -1.4285 -2.3133
   20SAPS   C29 2580   4.907   5.876   3.306 -0.5983 -0.2430 -0.0677
   20SAPS   H9R 2581   4.851   5.922   3.388  1.9744 -1.7802  2.7584
   20SAPS  C210 2582   5.034   5.800   3.337 -0.0346  0.0586 -0.0166
   20SAPS  H10R 2583   5.061   5.724   3.262  0.7197  1.5974 -1.3699
   20SAPS  H10S 2584   5.012   5.749   3.433  0.6489 -1.7790 -0.8028
   20SAPS  C211 2585   5.160   5.876   3.360 -0.5176 -0.6878 -0.2878
   20SAPS  H11R 2586   5.199   5.925   3.270  0.3909  0.8562  0.8818
   20SAPS  C212 2587   5.251   5.856   3.456 -0.3496  0.7605  0.5787
   20SAPS  H12R 2588   5.342   5.918   3.447 -1.2251  1.9076 -0.9958
   20SAPS  C213 2589   5.226   5.755   3.567 -0.0515 -0.5282 -0.5885
   20SAPS  H13R 2590   5.319   5.735   3.624 -1.4413  2.3537  3.1962
   20SAPS  H13S 2591   5.199   5.659   3.519 -1.9296  0.2242 -1.1251
   20SAPS  C214 2592   5.120   5.789   3.667 -0.0187  0.1745  0.2227
   20SAPS  H14R 2593   5.050   5.870   3.643  1.7440  1.1532 -1.8588
   20SAPS  C215 2594   5.095   5.702   3.764  0.1381 -1.0353 -0.3632
   20SAPS  H15R 2595   5.026   5.727   3.846  0.4586 -0.1849 -0.3464
   20SAPS  C216 2596   5.178   5.582   3.797  0.5358  0.2240  0.0469
   20SAPS  H16R 2597   5.282   5.574   3.759  0.4159  1.3717 -0.5526
   20SAPS  H16S 2598   5.121   5.493   3.760 -0.4511  0.0595  1.8253
   20SAPS  C217 2599   5.193   5.555   3.950 -0.4756 -0.2370 -0.4264
   20SAPS  H17R 2600   5.200   5.647   4.011 -2.0623  0.2609 -0.9441
   20SAPS  H17S 2601   5.294   5.509   3.953 -0.5732 -0.4807 -0.7274
   20SAPS  C218 2602   5.081   5.480   4.014 -0.0180  0.1009  0.1302
   20SAPS  H18R 2603   5.057   5.387   3.958 -1.4675  0.8734 -0.5916
   20SAPS  H18S 2604   4.994   5.544   3.985  2.2234  1.4727 -4.7176
   20SAPS  C219 2605   5.100   5.471   4.164 -0.0800  0.3028 -0.2387
   20SAPS  H19R 2606   5.125   5.571   4.205  1.0322 -0.2096  0.3618
   20SAPS  H19S 2607   5.182   5.401   4.191 -0.0550 -0.5613 -2.3728
   20SAPS  C220 2608   4.974   5.407   4.237 -0.6221  0.3017  0.7336
   20SAPS  H20R 2609   4.892   5.472   4.202 -0.5791 -1.1340 -2.4632
   20SAPS  H20S 2610   4.974   5.400   4.348  0.5726  1.1130  0.7989
   20SAPS  H20T 2611   4.953   5.306   4.195 -0.0940  0.0210  1.1261
   20SAPS   C33 2612   4.888   5.494   2.816 -0.3427 -0.0602 -1.3161
   20SAPS   H3X 2613   4.916   5.599   2.836 -0.4635 -0.0370 -1.2705
   20SAPS   H3Y 2614   4.971   5.426   2.844 -1.8554 -0.6515  2.2924
   20SAPS   C34 2615   4.766   5.452   2.912  0.0814 -0.5196 -0.0290
   20SAPS   H4X 2616   4.723   5.351   2.894 -1.7537  0.1393  0.4869
   20SAPS   H4Y 2617   4.686   5.526   2.894  1.8412  1.8186  1.2345
   20SAPS   C35 2618   4.810   5.458   3.062  0.9052 -0.3052 -0.4084
   20SAPS   H5X 2619   4.826   5.565   3.089  0.8838  0.1449 -2.0494
   20SAPS   H5Y 2620   4.904   5.404   3.082  1.4070 -0.0814 -1.9918
   20SAPS   C36 2621   4.699   5.404   3.161  0.0767  0.0347 -1.3440
   20SAPS   H6X 2622   4.666   5.308   3.116 -0.3480  0.2966 -1.5953
   20SAPS   H6Y 2623   4.615   5.474   3.179 -0.3410 -1.0014  1.0849
   20SAPS   C37 2624   4.760   5.384   3.309 -0.0706  0.5794 -0.1410
   20SAPS   H7X 2625   4.842   5.310   3.295  0.5264  1.1878  0.0491
   20SAPS   H7Y 2626   4.685   5.332   3.371 -0.6431  1.9914  0.3831
   20SAPS   C38 2627   4.820   5.501   3.377 -0.6298 -0.3462 -0.3071
   20SAPS   H8X 2628   4.760   5.594   3.377  1.0791  0.8297 -1.3456
   20SAPS   H8Y 2629   4.910   5.522   3.315 -0.4338  0.7299  0.3274
   20SAPS   C39 2630   4.870   5.473   3.514 -0.8843 -0.5298 -0.2399
   20SAPS   H9X 2631   4.942   5.541   3.564 -0.3630 -0.3180 -1.2519
   20SAPS   H9Y 2632   4.923   5.377   3.504  0.3110  0.3263 -3.0847
   20SAPS  C310 2633   4.748   5.466   3.614  0.1280  0.0896  0.0582
   20SAPS  H10X 2634   4.670   5.394   3.581  1.0927 -1.8919  1.7914
   20SAPS  H10Y 2635   4.710   5.563   3.652  0.7040  0.2030  0.3697
   20SAPS  C311 2636   4.798   5.393   3.740  0.3767  0.4569  0.1550
   20SAPS  H11X 2637   4.854   5.470   3.796 -0.5177  1.4309 -0.2583
   20SAPS  H11Y 2638   4.859   5.303   3.717  2.2751  1.4892  0.9596
   20SAPS  C312 2639   4.681   5.348   3.837  0.5455  0.1006 -0.4842
   20SAPS  H12X 2640   4.649   5.251   3.794  2.7784 -1.7171  1.7038
   20SAPS  H12Y 2641   4.602   5.426   3.826  0.0209  0.0385  2.2884
   20SAPS  C313 2642   4.714   5.328   3.984  0.0984  0.0450 -0.6326
   20SAPS  H13X 2643   4.792   5.396   4.025  1.6128 -2.3568  0.7616
   20SAPS  H13Y 2644   4.762   5.229   4.001  1.9304  1.4465  4.2623
   20SAPS  C314 2645   4.592   5.339   4.081  0.4155  0.2383 -0.9679
   20SAPS  H14X 2646   4.518   5.262   4.051 -2.4379  1.6884  1.7686
   20SAPS  H14Y 2647   4.539   5.436   4.066  2.0358  1.2900 -0.1791
   20SAPS  C315 2648   4.627   5.326   4.231  0.3315 -0.0957 -1.0660
   20SAPS  H15X 2649   4.542   5.375   4.283  0.0059 -0.2882 -1.4091
   20SAPS  H15Y 2650   4.721   5.376   4.263  0.5296 -0.5999 -0.8362
   20SAPS  C316 2651   4.627   5.182   4.279  0.1724  0.2509  0.2240
   20SAPS  H16X 2652   4.708   5.130   4.224 -0.3984  0.5653 -0.9574
   20SAPS  H16Y 2653   4.539   5.128   4.236  1.2891 -1.6319  0.2315
   20SAPS  C317 2654   4.637   5.166   4.430 -0.4134 -0.6079  0.6212
   20SAPS  H17X 2655   4.576   5.077   4.457 -1.1981  0.0712  1.1646
   20SAPS  H17Y 2656   4.588   5.254   4.476 -1.8495 -0.2663 -1.3805
   20SAPS  C318 2657   4.778   5.161   4.483  0.1227  0.4582 -0.1546
   20SAPS  H18X 2658   4.775   5.204   4.585  0.3512  0.7376 -0.2652
   20SAPS  H18Y 2659   4.855   5.216   4.424 -0.1549  0.4192 -0.5617
   20SAPS  H18Z 2660   4.811   5.056   4.502  0.7309  0.9572  1.7463
   21CHL1    C3 2661   1.899   5.253   6.123  0.0715  0.0140  0.0527
   21CHL1    H3 2662   1.924   5.145   6.111 -0.4832 -0.4584  2.5754
   21CHL1    O3 2663   1.882   5.283   6.261 -0.1551  0.5835  0.3608
   21CHL1   H3' 2664   1.877   5.379   6.260 -0.8783  0.5602 -1.1819
   21CHL1    C4 2665   2.018   5.334   6.069  0.4453  0.6179  0.3592
   21CHL1   H4A 2666   2.017   5.439   6.103  0.5419  0.3359  1.2551
   21CHL1   H4B 2667   2.109   5.284   6.109  1.3234  1.5141 -0.4703
   21CHL1    C5 2668   2.019   5.329   5.919  0.7625 -0.3398  0.0481
   21CHL1    C6 2669   2.135   5.313   5.846  0.4019  0.4500  0.2811
   21CHL1    H6 2670   2.234   5.294   5.890  0.1707  1.7257  1.4365
   21CHL1    C7 2671   2.150   5.334   5.701  0.0455  0.3326 -1.2506
   21CHL1   H7A 2672   2.227   5.414   5.695 -1.5414  2.0755  0.5079
   21CHL1   H7B 2673   2.172   5.238   5.649 -1.1188 -1.0185  0.6280
   21CHL1    C8 2674   2.034   5.394   5.634  1.3061  0.0819 -0.1370
   21CHL1    H8 2675   2.046   5.505   5.632 -0.0756  0.2399 -1.8183
   21CHL1   C14 2676   2.020   5.361   5.481  0.1171  0.8401 -0.0001
   21CHL1   H14 2677   1.995   5.253   5.479  1.2473  0.5683 -0.1474
   21CHL1   C15 2678   2.146   5.371   5.402  0.1907 -0.0532  0.2317
   21CHL1  H15A 2679   2.209   5.457   5.432  0.7581 -1.0097  1.9412
   21CHL1  H15B 2680   2.207   5.279   5.414 -1.1629 -0.6645  3.5415
   21CHL1   C16 2681   2.094   5.389   5.254  0.3634  0.0143 -0.0616
   21CHL1  H16A 2682   2.130   5.488   5.222 -1.0262 -0.2284 -2.6016
   21CHL1  H16B 2683   2.145   5.307   5.199  0.6351 -1.4249  2.1632
   21CHL1   C17 2684   1.932   5.396   5.268 -0.6249 -0.3335  0.0875
   21CHL1   H17 2685   1.893   5.292   5.258 -2.1762  0.1573  0.6260
   21CHL1   C13 2686   1.906   5.435   5.413 -0.0742 -0.3959 -0.0832
   21CHL1   C18 2687   1.926   5.586   5.421  0.5529  0.1850  0.3062
   21CHL1  H18A 2688   2.022   5.628   5.385  1.2264 -0.6826  1.0192
   21CHL1  H18B 2689   1.843   5.639   5.370  0.1404  0.0363  0.8062
   21CHL1  H18C 2690   1.904   5.632   5.520 -2.8008  0.7818 -0.6061
   21CHL1   C12 2691   1.772   5.387   5.467 -0.4030 -0.7191  0.3756
   21CHL1  H12A 2692   1.697   5.454   5.418  1.6137 -0.2478 -2.2778
   21CHL1  H12B 2693   1.753   5.284   5.429 -1.6964 -0.1916 -0.5072
   21CHL1   C11 2694   1.771   5.406   5.615 -0.4918  0.1684  0.0930
   21CHL1  H11A 2695   1.755   5.513   5.641 -1.3146  0.0310  0.1720
   21CHL1  H11B 2696   1.684   5.345   5.648  0.3909 -1.7957 -1.0565
   21CHL1    C9 2697   1.894   5.355   5.689 -0.0287  0.2971  0.6774
   21CHL1    H9 2698   1.885   5.246   5.673 -1.9655  0.3387  1.1549
   21CHL1   C10 2699   1.883   5.367   5.848  0.1527 -0.3488 -0.0702
   21CHL1   C19 2700   1.856   5.512   5.885  0.0103 -0.6006 -0.2108
   21CHL1  H19A 2701   1.748   5.533   5.865  0.2038 -1.1837 -2.0228
   21CHL1  H19B 2702   1.881   5.545   5.988 -0.7014  0.2488 -0.2978
   21CHL1  H19C 2703   1.906   5.575   5.809  0.7004 -0.9877 -0.0808
   21CHL1    C1 2704   1.768   5.279   5.898 -0.7412  0.1585 -0.5061
   21CHL1   H1A 2705   1.668   5.297   5.854 -1.3587  1.1240  1.1947
   21CHL1   H1B 2706   1.786   5.176   5.862 -3.0863 -0.9535  1.2383
   21CHL1    C2 2707   1.764   5.283   6.054 -0.5988  0.7912  0.8347
   21CHL1   H2A 2708   1.696   5.202   6.089 -2.3182  1.0040 -1.7333
   21CHL1   H2B 2709   1.728   5.386   6.076 -1.5525  0.7306 -0.3206
   21CHL1   C20 2710   1.865   5.477   5.149  0.4048  0.1613  0.2531
   21CHL1   H20 2711   1.883   5.585   5.167  1.8692  0.0256 -0.2440
   21CHL1   C21 2712   1.714   5.454   5.151 -0.2169 -0.4286  0.5585
   21CHL1  H21A 2713   1.653   5.522   5.214 -1.0343  0.3942 -1.0494
   21CHL1  H21B 2714   1.687   5.347   5.167 -1.9219 -0.5245 -2.1659
   21CHL1  H21C 2715   1.673   5.480   5.051  1.5722  0.2902 -0.0171
   21CHL1   C22 2716   1.921   5.444   5.010 -0.0818 -0.3181 -0.6075
   21CHL1  H22A 2717   2.031   5.440   5.018  0.0349 -0.0738 -1.8761
   21CHL1  H22B 2718   1.889   5.339   4.997  0.0448 -0.4811  0.3121
   21CHL1   C23 2719   1.880   5.540   4.899 -0.0868  0.5822 -0.1539
   21CHL1  H23A 2720   1.776   5.510   4.876 -0.0111  0.8127 -0.8030
   21CHL1  H23B 2721   1.882   5.649   4.925  3.1892  1.2078 -2.5169
   21CHL1   C24 2722   1.977   5.521   4.779 -0.1243  0.0668 -0.9756
   21CHL1  H24A 2723   2.086   5.530   4.799 -0.1262  1.5842 -1.4998
   21CHL1  H24B 2724   1.971   5.419   4.736  2.3563 -0.7344  0.3721
   21CHL1   C25 2725   1.939   5.606   4.657  0.1855 -0.3967 -0.0949
   21CHL1   H25 2726   1.946   5.711   4.691  0.7706 -0.9577  1.6632
   21CHL1   C26 2727   2.044   5.588   4.553 -0.4179 -0.0286  0.3242
   21CHL1  H26A 2728   2.139   5.628   4.592 -1.3479  0.6039  2.0396
   21CHL1  H26B 2729   2.056   5.480   4.529 -0.6907  0.1778 -0.7913
   21CHL1  H26C 2730   2.013   5.625   4.453 -1.8870 -0.0778  0.7290
   21CHL1   C27 2731   1.793   5.579   4.595 -0.2948  0.2092 -0.5416
   21CHL1  H27A 2732   1.714   5.593   4.671 -1.6887  0.6664 -2.0090
   21CHL1  H27B 2733   1.786   5.658   4.516  1.0418  2.5075  1.4681
   21CHL1  H27C 2734   1.785   5.472   4.567 -1.2172  0.6791 -2.2412
   22CHL1    C3 2735   2.257   2.709   6.471 -0.4895 -0.4233 -0.1483
   22CHL1    H3 2736   2.185   2.792   6.456 -1.1005 -0.9383 -0.1089
   22CHL1    O3 2737   2.239   2.661   6.603 -0.1269 -0.0253  0.0644
   22CHL1   H3' 2738   2.310   2.599   6.620 -0.7860 -0.9476 -0.4588
   22CHL1    C4 2739   2.222   2.591   6.372  0.0320  0.0783  0.5036
   22CHL1   H4A 2740   2.280   2.500   6.397 -1.2839 -1.3532 -1.3727
   22CHL1   H4B 2741   2.118   2.561   6.394 -0.3470  0.8667 -0.1446
   22CHL1    C5 2742   2.245   2.648   6.234  0.1108  0.1073  0.4586
   22CHL1    C6 2743   2.155   2.654   6.136 -0.0708 -0.3836 -0.1991
   22CHL1    H6 2744   2.060   2.607   6.165  0.6758 -3.5491 -2.2705
   22CHL1    C7 2745   2.173   2.705   6.000 -0.2906 -0.7947  0.3408
   22CHL1   H7A 2746   2.131   2.643   5.917  0.9094 -1.2101  0.0208
   22CHL1   H7B 2747   2.141   2.809   5.981  0.7650 -0.8142 -1.9478
   22CHL1    C8 2748   2.323   2.704   5.961 -0.2983  0.2029  0.4852
   22CHL1    H8 2749   2.360   2.600   5.950  1.3919  0.8197  0.0776
   22CHL1   C14 2750   2.342   2.783   5.832 -0.5287  0.2004 -0.2724
   22CHL1   H14 2751   2.301   2.882   5.861 -1.5951 -0.2692 -0.1212
   22CHL1   C15 2752   2.276   2.743   5.701 -0.5750  0.0054  0.0664
   22CHL1  H15A 2753   2.292   2.636   5.676 -1.3338 -0.0548 -0.1919
   22CHL1  H15B 2754   2.168   2.769   5.708 -0.9797 -1.5938  0.1785
   22CHL1   C16 2755   2.346   2.836   5.594 -0.8021 -0.0257 -0.0607
   22CHL1  H16A 2756   2.394   2.772   5.518  0.4650  0.4159  0.3434
   22CHL1  H16B 2757   2.282   2.915   5.548  0.9624  1.4096 -0.1579
   22CHL1   C17 2758   2.462   2.920   5.665  0.7886 -0.0326  0.0186
   22CHL1   H17 2759   2.417   3.014   5.705 -2.5455 -1.4729 -0.0322
   22CHL1   C13 2760   2.487   2.819   5.790 -0.5866  0.3824 -0.5091
   22CHL1   C18 2761   2.566   2.689   5.747 -0.1704 -0.1383  0.0740
   22CHL1  H18A 2762   2.673   2.708   5.725 -0.4816 -1.3907 -3.0587
   22CHL1  H18B 2763   2.562   2.612   5.828  0.8179 -0.3713 -0.0852
   22CHL1  H18C 2764   2.537   2.656   5.645  2.4328  0.5635 -0.9725
   22CHL1   C12 2765   2.561   2.884   5.904 -0.3806 -0.0307  0.4152
   22CHL1  H12A 2766   2.670   2.892   5.883 -0.7773  0.9185 -1.5030
   22CHL1  H12B 2767   2.521   2.988   5.908 -0.0547  0.0829  0.7564
   22CHL1   C11 2768   2.555   2.805   6.035  0.1227 -0.3944  0.0228
   22CHL1  H11A 2769   2.597   2.707   6.006  1.5737 -0.2652  1.5244
   22CHL1  H11B 2770   2.616   2.861   6.109 -2.4539 -0.5830  2.5003
   22CHL1    C9 2771   2.401   2.783   6.066 -0.7977 -0.6215 -0.0203
   22CHL1    H9 2772   2.357   2.885   6.078 -2.2347 -1.1939 -0.2627
   22CHL1   C10 2773   2.385   2.706   6.199  0.1511  0.5119  0.1778
   22CHL1   C19 2774   2.476   2.579   6.190 -0.2382  0.3783 -0.1672
   22CHL1  H19A 2775   2.463   2.517   6.100 -0.0878 -1.4888  1.0505
   22CHL1  H19B 2776   2.585   2.598   6.196 -0.3341  1.3510 -1.0982
   22CHL1  H19C 2777   2.458   2.509   6.274 -0.4810 -0.0111 -0.5415
   22CHL1    C1 2778   2.423   2.801   6.317  0.2028  0.0565  0.0361
   22CHL1   H1A 2779   2.529   2.830   6.308  0.7849 -1.8536  0.2519
   22CHL1   H1B 2780   2.360   2.891   6.301 -2.7894 -1.9557 -0.3813
   22CHL1    C2 2781   2.403   2.752   6.454  0.5326  0.4322 -0.1480
   22CHL1   H2A 2782   2.438   2.826   6.528  2.7842  0.8126 -1.4792
   22CHL1   H2B 2783   2.470   2.666   6.477 -0.5809 -0.1173  1.1704
   22CHL1   C20 2784   2.577   2.956   5.579  0.2138 -0.7643 -0.1869
   22CHL1   H20 2785   2.650   2.874   5.564  0.5546 -0.6042  0.5481
   22CHL1   C21 2786   2.649   3.077   5.639 -0.3862  0.0460  0.0177
   22CHL1  H21A 2787   2.688   3.044   5.738 -1.5771 -2.6976 -0.3458
   22CHL1  H21B 2788   2.568   3.151   5.656 -1.0872 -1.0343  1.6626
   22CHL1  H21C 2789   2.743   3.094   5.583 -1.1970 -1.5893 -1.9434
   22CHL1   C22 2790   2.540   3.009   5.435  0.4351  0.2133 -0.1761
   22CHL1  H22A 2791   2.473   2.933   5.390 -0.9820  0.3079  1.6328
   22CHL1  H22B 2792   2.482   3.104   5.436  0.1192  0.0243 -0.4892
   22CHL1   C23 2793   2.671   3.006   5.346  0.5328  0.8500 -0.4171
   22CHL1  H23A 2794   2.729   3.092   5.384 -2.3677  2.2278  1.2408
   22CHL1  H23B 2795   2.713   2.907   5.373  0.4748  0.8104 -0.4723
   22CHL1   C24 2796   2.642   3.025   5.196 -0.3578 -0.0585 -0.0043
   22CHL1  H24A 2797   2.547   2.975   5.167  0.7885 -1.1331 -2.2081
   22CHL1  H24B 2798   2.617   3.132   5.179  0.2982  0.0328 -0.4212
   22CHL1   C25 2799   2.764   3.005   5.108 -0.2756  0.4808 -0.3607
   22CHL1   H25 2800   2.774   2.895   5.097 -2.2391  0.0391  1.5169
   22CHL1   C26 2801   2.759   3.065   4.969  0.3319  0.4702 -0.3203
   22CHL1  H26A 2802   2.683   3.010   4.909  1.8384 -0.6981 -1.2287
   22CHL1  H26B 2803   2.726   3.172   4.971  2.5862  1.2346 -0.7347
   22CHL1  H26C 2804   2.855   3.052   4.914 -0.5586  4.3646 -3.3000
   22CHL1   C27 2805   2.897   3.054   5.176  0.1793 -0.0571  0.1068
   22CHL1  H27A 2806   2.920   2.988   5.262  1.9241  1.6163  1.0055
   22CHL1  H27B 2807   2.981   3.048   5.105 -1.3955 -0.0502 -1.8382
   22CHL1  H27C 2808   2.883   3.159   5.210 -2.8729 -0.4174  0.2893
   23CHL1    C3 2809   1.643   4.636   6.187 -0.1505  0.1025 -0.2148
   23CHL1    H3 2810   1.605   4.538   6.150  0.7373 -0.7248  1.0008
   23CHL1    O3 2811   1.667   4.627   6.328 -0.7047 -0.4134 -0.7500
   23CHL1   H3' 2812   1.682   4.718   6.353 -2.3197 -0.4685  0.6217
   23CHL1    C4 2813   1.778   4.667   6.115  0.2591 -0.0270  0.5102
   23CHL1   H4A 2814   1.827   4.750   6.171  0.2076  0.5704 -0.3160
   23CHL1   H4B 2815   1.838   4.576   6.139 -2.2884 -1.6683  0.9859
   23CHL1    C5 2816   1.767   4.689   5.969  0.2196  0.5325 -0.7875
   23CHL1    C6 2817   1.828   4.607   5.883 -0.1014 -0.2792 -0.2645
   23CHL1    H6 2818   1.905   4.535   5.915  1.2307  1.6733  1.1299
   23CHL1    C7 2819   1.811   4.625   5.737 -0.0736  0.5639  0.2181
   23CHL1   H7A 2820   1.911   4.607   5.692  0.3258  0.4341  1.1250
   23CHL1   H7B 2821   1.736   4.549   5.707  0.9342 -0.6368  0.6079
   23CHL1    C8 2822   1.753   4.758   5.695 -0.2512  0.6493  0.2840
   23CHL1    H8 2823   1.825   4.837   5.724 -0.3934 -0.0154  2.6720
   23CHL1   C14 2824   1.727   4.759   5.545 -0.2158 -0.2597  0.1673
   23CHL1   H14 2825   1.657   4.673   5.533 -2.7549  1.6765  0.2078
   23CHL1   C15 2826   1.845   4.745   5.446  0.3185  0.1107 -0.2940
   23CHL1  H15A 2827   1.931   4.804   5.484  0.9691 -1.4165  0.7226
   23CHL1  H15B 2828   1.876   4.638   5.452  0.1181  0.0305 -0.6544
   23CHL1   C16 2829   1.783   4.780   5.309 -0.1823  0.3254 -1.1501
   23CHL1  H16A 2830   1.849   4.848   5.252 -0.9239  2.4149  0.3769
   23CHL1  H16B 2831   1.764   4.689   5.248 -0.9567  0.0720 -0.5428
   23CHL1   C17 2832   1.645   4.841   5.338 -0.2967  0.1563 -0.2900
   23CHL1   H17 2833   1.578   4.752   5.334  0.1980 -0.4516  2.4615
   23CHL1   C13 2834   1.648   4.877   5.491  0.4556  1.3668  0.5395
   23CHL1   C18 2835   1.725   5.009   5.504  0.1470 -0.7863  0.3700
   23CHL1  H18A 2836   1.754   5.035   5.608  0.0574 -2.1165  0.7535
   23CHL1  H18B 2837   1.824   5.000   5.452 -0.0478 -0.8990  0.0128
   23CHL1  H18C 2838   1.661   5.088   5.460 -0.2629 -0.4002  1.6434
   23CHL1   C12 2839   1.515   4.879   5.569 -0.4794 -0.1614  1.3552
   23CHL1  H12A 2840   1.444   4.958   5.535  2.5016  1.9573 -0.4446
   23CHL1  H12B 2841   1.473   4.778   5.554 -0.3277 -0.4784  2.9189
   23CHL1   C11 2842   1.532   4.885   5.722  0.0851  0.0055  0.0995
   23CHL1  H11A 2843   1.577   4.984   5.747  2.2056 -0.3795 -1.8544
   23CHL1  H11B 2844   1.435   4.882   5.776  0.7284 -0.1006  1.2942
   23CHL1    C9 2845   1.625   4.775   5.779  0.2378 -0.8384  0.1250
   23CHL1    H9 2846   1.563   4.683   5.772 -1.6311  0.4296 -0.8515
   23CHL1   C10 2847   1.651   4.791   5.932  0.0106 -0.3439 -0.2634
   23CHL1   C19 2848   1.704   4.932   5.970 -0.6758 -0.8384 -0.4068
   23CHL1  H19A 2849   1.790   4.947   5.901 -0.9669  0.1449 -0.5681
   23CHL1  H19B 2850   1.633   5.017   5.960 -0.9324 -1.1391 -1.2627
   23CHL1  H19C 2851   1.749   4.939   6.072  0.2999  0.0819 -0.8834
   23CHL1    C1 2852   1.519   4.773   6.011  0.3223  0.1774 -0.5830
   23CHL1   H1A 2853   1.455   4.863   6.012 -2.0002 -1.3809  0.8631
   23CHL1   H1B 2854   1.463   4.689   5.964  2.0720 -1.3892 -0.0292
   23CHL1    C2 2855   1.538   4.753   6.160 -0.8723  1.0512 -0.4506
   23CHL1   H2A 2856   1.448   4.731   6.221  0.8930  0.8164  2.2477
   23CHL1   H2B 2857   1.571   4.848   6.208  1.0272  1.3494 -2.2131
   23CHL1   C20 2858   1.607   4.944   5.232  0.9016  0.3752  0.4657
   23CHL1   H20 2859   1.659   5.042   5.237  0.3029  0.8267 -1.3204
   23CHL1   C21 2860   1.453   4.972   5.243 -0.2221 -0.4925 -0.0368
   23CHL1  H21A 2861   1.434   5.016   5.343  1.8487 -1.2807  0.7642
   23CHL1  H21B 2862   1.388   4.881   5.243 -0.5432 -0.4350  3.5562
   23CHL1  H21C 2863   1.427   5.050   5.168 -0.6396 -0.5206  0.0744
   23CHL1   C22 2864   1.617   4.895   5.083 -0.8780 -0.1157 -0.3716
   23CHL1  H22A 2865   1.713   4.845   5.059 -0.4263  0.3859  0.3308
   23CHL1  H22B 2866   1.534   4.825   5.060 -1.2775  0.4810 -0.7695
   23CHL1   C23 2867   1.631   5.015   4.982  0.1248  0.0695  0.3119
   23CHL1  H23A 2868   1.538   5.075   4.985  0.5521  0.6925  2.7424
   23CHL1  H23B 2869   1.726   5.064   5.011  0.9413 -0.8395 -0.7217
   23CHL1   C24 2870   1.645   4.974   4.831 -0.6842 -0.7656  0.8099
   23CHL1  H24A 2871   1.741   4.920   4.823  0.2104  0.9676 -0.9395
   23CHL1  H24B 2872   1.561   4.910   4.797 -0.0109 -0.7209 -1.0230
   23CHL1   C25 2873   1.649   5.094   4.729 -0.7157  0.2963  0.3036
   23CHL1   H25 2874   1.666   5.043   4.632 -1.1033 -1.1407  0.9656
   23CHL1   C26 2875   1.514   5.169   4.717 -0.1518 -0.0259  0.5970
   23CHL1  H26A 2876   1.514   5.234   4.626 -0.5241  0.3664  0.8699
   23CHL1  H26B 2877   1.424   5.103   4.713 -0.7364  0.6240  2.0963
   23CHL1  H26C 2878   1.500   5.231   4.808 -2.4551 -0.9503  0.9467
   23CHL1   C27 2879   1.757   5.201   4.748 -0.3296 -0.7437 -0.0543
   23CHL1  H27A 2880   1.750   5.267   4.659 -3.2329  1.1690  1.4533
   23CHL1  H27B 2881   1.757   5.265   4.839 -0.6773 -0.2865 -0.3705
   23CHL1  H27C 2882   1.858   5.154   4.753 -0.9762 -2.3920 -1.4566
   24CHL1    C3 2883   3.765   5.241   6.507 -0.4868 -0.3852 -1.0036
   24CHL1    H3 2884   3.820   5.145   6.494 -1.2461 -0.7438 -1.7022
   24CHL1    O3 2885   3.774   5.255   6.649  1.1909  0.3264 -0.2369
   24CHL1   H3' 2886   3.723   5.334   6.670  3.9172  1.4974  2.7726
   24CHL1    C4 2887   3.835   5.362   6.449  0.2597 -0.3408  0.3558
   24CHL1   H4A 2888   3.774   5.449   6.482 -2.5558 -1.6749 -0.9914
   24CHL1   H4B 2889   3.938   5.364   6.489  0.9618 -0.5503 -1.3526
   24CHL1    C5 2890   3.827   5.365   6.292 -0.9172 -0.6443 -0.9840
   24CHL1    C6 2891   3.942   5.356   6.222 -0.0790  0.7056  1.3729
   24CHL1    H6 2892   4.039   5.354   6.274 -0.5613 -2.5173  2.3685
   24CHL1    C7 2893   3.938   5.348   6.072 -0.3633  0.3028  0.2162
   24CHL1   H7A 2894   4.010   5.418   6.025 -1.4414  0.4836 -1.2831
   24CHL1   H7B 2895   3.969   5.245   6.045 -2.2190 -0.8110  2.0854
   24CHL1    C8 2896   3.811   5.392   6.010 -0.1200 -0.1461  0.3936
   24CHL1    H8 2897   3.799   5.502   6.019  0.3400  0.2924 -2.9439
   24CHL1   C14 2898   3.815   5.345   5.861 -0.0560  0.1360  0.3395
   24CHL1   H14 2899   3.826   5.234   5.865  3.5731  0.3965  0.5758
   24CHL1   C15 2900   3.930   5.394   5.766 -0.1820  0.4483 -0.0371
   24CHL1  H15A 2901   3.946   5.497   5.805 -1.1304 -0.2389  2.3493
   24CHL1  H15B 2902   4.021   5.331   5.762  0.6159  1.5193 -4.8775
   24CHL1   C16 2903   3.875   5.378   5.628 -0.0616 -0.3061 -0.2290
   24CHL1  H16A 2904   3.866   5.480   5.587 -3.1849 -0.7510 -0.8954
   24CHL1  H16B 2905   3.925   5.311   5.555 -2.0238 -0.2571 -1.6654
   24CHL1   C17 2906   3.729   5.318   5.642  0.3864 -0.4971 -0.8183
   24CHL1   H17 2907   3.738   5.208   5.645  2.0713 -0.4623 -2.5605
   24CHL1   C13 2908   3.688   5.372   5.780  0.9074  0.8627 -0.2866
   24CHL1   C18 2909   3.654   5.521   5.760  0.7498  0.5157 -0.5193
   24CHL1  H18A 2910   3.654   5.583   5.853  1.5553  1.6115 -1.2284
   24CHL1  H18B 2911   3.727   5.577   5.698  1.0693  1.0575  0.3264
   24CHL1  H18C 2912   3.554   5.531   5.712 -1.0024 -0.0097  2.7133
   24CHL1   C12 2913   3.572   5.311   5.857 -0.1087 -0.3591 -0.2908
   24CHL1  H12A 2914   3.470   5.325   5.815  0.1944  0.3194 -0.8079
   24CHL1  H12B 2915   3.598   5.202   5.861 -0.8973 -0.5262  0.6704
   24CHL1   C11 2916   3.566   5.356   6.004 -0.0488 -0.0012 -0.3884
   24CHL1  H11A 2917   3.531   5.461   6.010 -1.0153 -0.2785 -0.9995
   24CHL1  H11B 2918   3.479   5.301   6.045  1.7264 -1.6099  1.5138
   24CHL1    C9 2919   3.688   5.326   6.084 -0.2082  0.5854  0.6195
   24CHL1    H9 2920   3.707   5.218   6.071  3.3944  1.2658 -1.3948
   24CHL1   C10 2921   3.689   5.353   6.238 -0.8722 -0.2237  0.6612
   24CHL1   C19 2922   3.622   5.486   6.261 -0.1388  0.2608  0.4113
   24CHL1  H19A 2923   3.619   5.513   6.369 -0.9272  0.9219  0.2391
   24CHL1  H19B 2924   3.676   5.572   6.214  1.7259 -0.7560  0.5810
   24CHL1  H19C 2925   3.514   5.480   6.236 -0.4595  3.0631  0.8195
   24CHL1    C1 2926   3.625   5.231   6.301  0.6745  0.6115  0.8677
   24CHL1   H1A 2927   3.520   5.237   6.266  1.3105 -0.4110 -1.3598
   24CHL1   H1B 2928   3.678   5.140   6.268 -0.5360  0.3478 -0.4319
   24CHL1    C2 2929   3.625   5.228   6.453 -0.1446  0.0880  0.8361
   24CHL1   H2A 2930   3.567   5.137   6.481 -1.5910  0.7491  0.1482
   24CHL1   H2B 2931   3.582   5.322   6.494  3.1498  1.5960  1.1496
   24CHL1   C20 2932   3.642   5.359   5.523 -0.3268 -0.1840 -0.1996
   24CHL1   H20 2933   3.594   5.457   5.538 -0.5197 -0.0129 -1.7954
   24CHL1   C21 2934   3.547   5.236   5.498 -0.0188  0.1828  0.0000
   24CHL1  H21A 2935   3.476   5.214   5.581  0.8800 -0.5009  0.6142
   24CHL1  H21B 2936   3.615   5.150   5.478  0.0613  0.3943 -0.6494
   24CHL1  H21C 2937   3.486   5.254   5.407  0.5939 -0.0247 -0.4583
   24CHL1   C22 2938   3.722   5.387   5.388 -0.0224  1.0479 -0.5747
   24CHL1  H22A 2939   3.806   5.455   5.411  1.0705 -0.9875  2.0936
   24CHL1  H22B 2940   3.761   5.291   5.348 -3.8859 -2.1085  2.3412
   24CHL1   C23 2941   3.635   5.471   5.293 -0.0916 -0.7368 -0.8374
   24CHL1  H23A 2942   3.539   5.421   5.266 -0.1271 -1.4270  0.5183
   24CHL1  H23B 2943   3.606   5.564   5.346 -0.6795 -0.6716 -1.2533
   24CHL1   C24 2944   3.716   5.503   5.160  0.7787  0.3740 -0.1640
   24CHL1  H24A 2945   3.812   5.553   5.182  1.0574 -0.1473 -0.1718
   24CHL1  H24B 2946   3.753   5.408   5.115 -1.6092  0.2925 -2.1881
   24CHL1   C25 2947   3.628   5.577   5.050  0.2751  0.2552  0.3352
   24CHL1   H25 2948   3.545   5.503   5.052  1.1898 -0.8684 -1.1829
   24CHL1   C26 2949   3.588   5.723   5.087  0.3554  0.3206  0.2251
   24CHL1  H26A 2950   3.675   5.785   5.056 -0.4016  1.3570  0.1441
   24CHL1  H26B 2951   3.495   5.760   5.038 -1.7235 -1.9793  2.1706
   24CHL1  H26C 2952   3.582   5.733   5.197 -1.8968  0.1039  0.1678
   24CHL1   C27 2953   3.686   5.572   4.913 -0.2591  0.1742  0.5175
   24CHL1  H27A 2954   3.733   5.668   4.882 -2.0963  1.6301  1.9821
   24CHL1  H27B 2955   3.745   5.479   4.904 -0.5819  0.0768 -0.8714
   24CHL1  H27C 2956   3.603   5.562   4.840  1.3352  1.1847 -1.5383
   25CHL1    C3 2957   0.384   1.334   6.008 -0.3238  0.4660 -0.1997
   25CHL1    H3 2958   0.344   1.230   5.997  0.2237  0.1366  0.7608
   25CHL1    O3 2959   0.333   1.394   6.123 -0.6534  0.9880  0.3600
   25CHL1   H3' 2960   0.360   1.333   6.192 -1.8441  0.0512  0.0283
   25CHL1    C4 2961   0.540   1.342   6.004 -0.6553  0.7679  0.1755
   25CHL1   H4A 2962   0.572   1.446   6.023 -0.9883  0.8899  0.0804
   25CHL1   H4B 2963   0.581   1.271   6.079 -1.4144 -0.1981 -0.3035
   25CHL1    C5 2964   0.590   1.293   5.867  0.8797 -0.4147 -0.8751
   25CHL1    C6 2965   0.677   1.196   5.850 -0.0325  0.0792  0.2389
   25CHL1    H6 2966   0.714   1.146   5.940  2.5887  0.4242 -0.5637
   25CHL1    C7 2967   0.736   1.151   5.726  0.1965 -0.5453  1.6900
   25CHL1   H7A 2968   0.843   1.128   5.748  0.6728 -0.6705 -0.5810
   25CHL1   H7B 2969   0.696   1.053   5.690 -1.2937  0.8301 -0.6348
   25CHL1    C8 2970   0.703   1.249   5.601 -0.4751 -0.7271 -0.3924
   25CHL1    H8 2971   0.782   1.326   5.617  0.5356 -2.0196  1.0924
   25CHL1   C14 2972   0.719   1.181   5.467 -0.0992  0.2605  0.2893
   25CHL1   H14 2973   0.635   1.110   5.452  0.5446 -0.2260 -1.1704
   25CHL1   C15 2974   0.844   1.102   5.443  0.0359  0.5103  0.9086
   25CHL1  H15A 2975   0.934   1.155   5.482  0.6706 -0.2785  0.5543
   25CHL1  H15B 2976   0.840   1.002   5.491  1.3592 -0.3392 -0.6589
   25CHL1   C16 2977   0.855   1.097   5.284  0.2305 -0.3606 -0.1408
   25CHL1  H16A 2978   0.943   1.156   5.252 -0.5306  0.5358 -0.6426
   25CHL1  H16B 2979   0.855   0.993   5.244  3.1312 -0.2782 -0.5696
   25CHL1   C17 2980   0.727   1.166   5.232  0.0331 -0.8482  0.2734
   25CHL1   H17 2981   0.650   1.086   5.234 -0.7827 -0.0610  0.5965
   25CHL1   C13 2982   0.696   1.273   5.344  0.1870  0.2570  0.1637
   25CHL1   C18 2983   0.814   1.380   5.354  0.2933 -0.9521  0.0775
   25CHL1  H18A 2984   0.831   1.451   5.270  0.1894 -0.4807  0.4529
   25CHL1  H18B 2985   0.798   1.435   5.449 -1.2375 -2.1135  0.5505
   25CHL1  H18C 2986   0.912   1.333   5.375  2.1857  3.1712  1.6185
   25CHL1   C12 2987   0.557   1.333   5.353 -0.5724 -0.2524  0.4514
   25CHL1  H12A 2988   0.548   1.416   5.279  0.8963  1.1442  1.7466
   25CHL1  H12B 2989   0.477   1.259   5.335 -0.6331  0.1339 -0.9383
   25CHL1   C11 2990   0.529   1.400   5.492  0.3653  0.1669  0.2131
   25CHL1  H11A 2991   0.583   1.496   5.500 -0.6808  0.7608  0.4287
   25CHL1  H11B 2992   0.419   1.419   5.493  0.1163 -0.9614  2.5758
   25CHL1    C9 2993   0.567   1.309   5.614  0.2765 -0.5164  0.8203
   25CHL1    H9 2994   0.499   1.223   5.597 -0.5247  0.4067 -0.9647
   25CHL1   C10 2995   0.528   1.371   5.750  1.0201  0.1457 -0.3498
   25CHL1   C19 2996   0.569   1.515   5.755  0.4551 -0.2908 -0.1159
   25CHL1  H19A 2997   0.515   1.579   5.683  0.8179 -1.2838 -1.2972
   25CHL1  H19B 2998   0.563   1.564   5.855  0.4053  2.3322 -1.3493
   25CHL1  H19C 2999   0.678   1.521   5.733  0.1548  2.0066 -1.1761
   25CHL1    C1 3000   0.375   1.369   5.758 -0.0081 -0.0121 -0.5702
   25CHL1   H1A 3001   0.340   1.434   5.676  0.2058 -0.5694 -1.1150
   25CHL1   H1B 3002   0.339   1.264   5.746 -1.3992  0.6189 -2.2506
   25CHL1    C2 3003   0.324   1.412   5.895  0.3927 -0.2793 -0.2603
   25CHL1   H2A 3004   0.214   1.397   5.900  0.2891  0.6152  0.4190
   25CHL1   H2B 3005   0.344   1.520   5.913  1.6948 -0.4649 -0.4863
   25CHL1   C20 3006   0.761   1.215   5.083  0.2358 -0.6991 -0.6979
   25CHL1   H20 3007   0.846   1.285   5.099  0.8219 -1.9520  2.4505
   25CHL1   C21 3008   0.657   1.307   5.024 -0.5751  0.6320 -0.0619
   25CHL1  H21A 3009   0.633   1.393   5.090 -0.9898  0.4938 -0.0283
   25CHL1  H21B 3010   0.560   1.257   5.005 -1.1422  1.9743 -0.8035
   25CHL1  H21C 3011   0.692   1.347   4.926 -0.7515  0.0736 -0.3590
   25CHL1   C22 3012   0.802   1.105   4.983  0.1243  0.6412 -0.4035
   25CHL1  H22A 3013   0.892   1.052   5.021  0.0499  0.4614 -0.4778
   25CHL1  H22B 3014   0.707   1.049   4.977  0.8267 -0.6331  0.0719
   25CHL1   C23 3015   0.829   1.158   4.840  0.1939  0.5385 -0.0794
   25CHL1  H23A 3016   0.736   1.208   4.807 -1.9127 -0.3389  3.8535
   25CHL1  H23B 3017   0.912   1.231   4.853  1.0429  0.6317 -4.5408
   25CHL1   C24 3018   0.887   1.048   4.743  0.5239 -0.0982  0.3400
   25CHL1  H24A 3019   0.935   0.975   4.812  1.5123 -0.0815 -0.3164
   25CHL1  H24B 3020   0.805   1.000   4.685  1.1399  1.0376 -1.5415
   25CHL1   C25 3021   0.988   1.107   4.644  0.2804 -0.4112 -0.2998
   25CHL1   H25 3022   1.066   1.155   4.707  0.9274 -0.7313 -0.8444
   25CHL1   C26 3023   1.058   0.998   4.561 -0.3278  0.3194 -0.2549
   25CHL1  H26A 3024   1.130   1.056   4.500  0.6213 -1.1095 -0.5481
   25CHL1  H26B 3025   1.129   0.934   4.618  0.2716 -0.4615 -1.8394
   25CHL1  H26C 3026   1.009   0.928   4.491 -1.4824  1.9703 -1.1447
   25CHL1   C27 3027   0.927   1.210   4.553  0.3295 -0.4012  0.0883
   25CHL1  H27A 3028   0.865   1.284   4.608  0.1549  0.9477 -1.8174
   25CHL1  H27B 3029   1.008   1.259   4.495 -0.3943 -1.0962 -1.5720
   25CHL1  H27C 3030   0.860   1.162   4.478  1.5600 -1.8232 -0.1400
   26CHL1    C3 3031   4.811   4.390   5.878  0.2087  0.2042  0.3519
   26CHL1    H3 3032   4.894   4.386   5.804 -1.2777 -1.2032 -1.3625
   26CHL1    O3 3033   4.844   4.365   6.014 -0.6622 -0.2524 -0.1769
   26CHL1   H3' 3034   4.891   4.282   6.006 -0.6854 -0.1736 -1.2791
   26CHL1    C4 3035   4.752   4.536   5.881  0.3969  0.2502  0.3838
   26CHL1   H4A 3036   4.675   4.532   5.961 -1.4041  0.5420 -1.2454
   26CHL1   H4B 3037   4.826   4.609   5.920 -0.1585  2.1547 -1.8551
   26CHL1    C5 3038   4.692   4.571   5.750  0.3528  0.4656 -1.1110
   26CHL1    C6 3039   4.727   4.681   5.688  0.4022  0.0637 -0.2272
   26CHL1    H6 3040   4.808   4.738   5.735  0.8651 -0.7704 -0.0188
   26CHL1    C7 3041   4.678   4.722   5.555  0.3058  0.4917  0.1844
   26CHL1   H7A 3042   4.678   4.831   5.534  0.2586  0.6616  1.0046
   26CHL1   H7B 3043   4.764   4.691   5.491  0.6148  1.0832  0.3074
   26CHL1    C8 3044   4.545   4.650   5.515  0.0156  0.1975  0.0326
   26CHL1    H8 3045   4.462   4.684   5.580 -3.0300 -4.9022 -0.5650
   26CHL1   C14 3046   4.514   4.657   5.368  0.6418  0.4460 -0.4073
   26CHL1   H14 3047   4.601   4.618   5.310 -0.5739 -0.5284 -1.6425
   26CHL1   C15 3048   4.504   4.800   5.316 -0.4344  0.4662  0.3528
   26CHL1  H15A 3049   4.444   4.869   5.379 -3.4081 -0.9905 -0.7335
   26CHL1  H15B 3050   4.611   4.830   5.303 -0.2574 -0.0946  0.4618
   26CHL1   C16 3051   4.428   4.796   5.183 -0.4264  0.5319  1.1895
   26CHL1  H16A 3052   4.335   4.856   5.181 -0.5755  0.3033  1.2266
   26CHL1  H16B 3053   4.497   4.839   5.108  0.1542 -2.6131 -0.2586
   26CHL1   C17 3054   4.392   4.642   5.168  0.4355 -0.0095  0.1743
   26CHL1   H17 3055   4.480   4.598   5.117  0.6099  0.3528  0.1613
   26CHL1   C13 3056   4.396   4.584   5.310 -0.8701 -0.4024 -0.1217
   26CHL1   C18 3057   4.262   4.624   5.384  0.2376  0.5290  0.0637
   26CHL1  H18A 3058   4.178   4.568   5.338  0.1794  1.1732 -0.6231
   26CHL1  H18B 3059   4.251   4.602   5.492 -0.3816  0.8569  0.0704
   26CHL1  H18C 3060   4.243   4.732   5.371 -0.1452  0.5151  0.5031
   26CHL1   C12 3061   4.410   4.434   5.330 -0.4927 -0.4730  0.2604
   26CHL1  H12A 3062   4.312   4.385   5.313 -0.6533 -0.5304  1.2875
   26CHL1  H12B 3063   4.492   4.392   5.268  0.1822  1.7390 -0.4475
   26CHL1   C11 3064   4.440   4.412   5.479 -0.5233  0.2986  0.2428
   26CHL1  H11A 3065   4.345   4.429   5.534 -2.3752  0.0348 -2.5975
   26CHL1  H11B 3066   4.466   4.305   5.494 -2.3963 -0.1522  0.6146
   26CHL1    C9 3067   4.553   4.497   5.542 -0.0781 -0.0535  0.0250
   26CHL1    H9 3068   4.652   4.476   5.496  1.6902 -1.3757  3.9930
   26CHL1   C10 3069   4.582   4.469   5.693  0.3295  0.4262  0.1812
   26CHL1   C19 3070   4.454   4.480   5.772  0.2871  0.0051 -0.7176
   26CHL1  H19A 3071   4.392   4.569   5.749  2.4325  1.4281 -1.2880
   26CHL1  H19B 3072   4.386   4.394   5.751 -2.4182  1.8695 -0.0909
   26CHL1  H19C 3073   4.473   4.479   5.881  0.8413 -0.3436 -0.8149
   26CHL1    C1 3074   4.633   4.316   5.708  0.0887  0.3071  0.7451
   26CHL1   H1A 3075   4.548   4.248   5.689 -0.6899  1.6111 -0.6365
   26CHL1   H1B 3076   4.710   4.310   5.628  0.1823  0.8593  0.7868
   26CHL1    C2 3077   4.694   4.287   5.840 -0.0310  0.1237 -0.3199
   26CHL1   H2A 3078   4.739   4.185   5.841  0.0462  0.1373 -1.4181
   26CHL1   H2B 3079   4.611   4.290   5.914  0.5373  1.0121  0.2988
   26CHL1   C20 3080   4.263   4.620   5.076 -0.4609  0.1350  0.1226
   26CHL1   H20 3081   4.174   4.647   5.137 -0.5129 -0.9647  0.5595
   26CHL1   C21 3082   4.243   4.468   5.037 -0.4282 -0.1039  0.0792
   26CHL1  H21A 3083   4.222   4.409   5.128  1.5257 -0.2743  0.4575
   26CHL1  H21B 3084   4.335   4.422   4.996 -1.0764 -0.8774 -0.5474
   26CHL1  H21C 3085   4.163   4.460   4.960 -1.5302  0.7697  1.0920
   26CHL1   C22 3086   4.252   4.713   4.952  0.9823 -0.0429 -0.6342
   26CHL1  H22A 3087   4.152   4.694   4.906  1.6444 -1.3802 -1.6018
   26CHL1  H22B 3088   4.247   4.818   4.986  0.4237 -0.2772  0.0303
   26CHL1   C23 3089   4.362   4.708   4.852 -0.3364  0.4489 -0.5071
   26CHL1  H23A 3090   4.460   4.741   4.891  0.0463 -0.0086 -1.0648
   26CHL1  H23B 3091   4.376   4.604   4.816 -0.6773  0.4747 -0.7159
   26CHL1   C24 3092   4.324   4.789   4.726 -0.1266  0.5218 -0.1622
   26CHL1  H24A 3093   4.386   4.769   4.636  0.2022  1.8874 -0.2721
   26CHL1  H24B 3094   4.219   4.770   4.694  0.2517 -1.3275 -0.4222
   26CHL1   C25 3095   4.326   4.949   4.740 -0.6153 -0.3765  0.5053
   26CHL1   H25 3096   4.268   4.965   4.833 -1.5172 -1.5661  0.1744
   26CHL1   C26 3097   4.476   5.004   4.760 -0.0082 -0.5123 -0.3917
   26CHL1  H26A 3098   4.471   5.114   4.776  1.2082 -0.2499 -1.5671
   26CHL1  H26B 3099   4.530   4.949   4.840 -0.5516  1.0183  1.0849
   26CHL1  H26C 3100   4.524   5.004   4.659 -2.3697 -0.3767 -1.5853
   26CHL1   C27 3101   4.263   5.021   4.624  0.6824  0.0249  0.3156
   26CHL1  H27A 3102   4.304   5.124   4.618  0.3273  0.0900 -1.4531
   26CHL1  H27B 3103   4.294   4.974   4.528 -1.7971 -1.8007  0.3023
   26CHL1  H27C 3104   4.152   5.024   4.633  0.7177 -0.7298  1.1151
   27CHL1    C3 3105   1.717   2.882   5.991  0.0671  0.0184  0.4136
   27CHL1    H3 3106   1.649   2.970   5.990  0.9199  0.7293  1.8418
   27CHL1    O3 3107   1.742   2.835   6.121  0.4794  0.6423  0.3437
   27CHL1   H3' 3108   1.786   2.907   6.167  0.2852  1.3998 -0.6453
   27CHL1    C4 3109   1.639   2.772   5.917 -0.5877  1.5523 -0.0060
   27CHL1   H4A 3110   1.686   2.672   5.934  0.0945  2.0422  1.0597
   27CHL1   H4B 3111   1.534   2.775   5.951 -0.2385  1.7821  1.0811
   27CHL1    C5 3112   1.640   2.804   5.768  0.3495 -0.2073  0.2180
   27CHL1    C6 3113   1.523   2.824   5.701 -0.1281  0.4250 -0.7020
   27CHL1    H6 3114   1.439   2.791   5.765  0.7669 -4.0650 -1.5351
   27CHL1    C7 3115   1.508   2.839   5.562  0.0363  0.6308  0.1500
   27CHL1   H7A 3116   1.417   2.784   5.530 -1.0535  0.5365  3.0451
   27CHL1   H7B 3117   1.501   2.949   5.543  1.0869  0.5509 -0.7582
   27CHL1    C8 3118   1.637   2.789   5.489 -0.3076 -0.3813 -0.7936
   27CHL1    H8 3119   1.635   2.678   5.499 -1.7883 -0.4309 -1.3847
   27CHL1   C14 3120   1.633   2.823   5.342 -0.4218  0.0654  0.2092
   27CHL1   H14 3121   1.622   2.933   5.335 -1.1571  0.0225  0.6230
   27CHL1   C15 3122   1.515   2.776   5.266  0.7690  0.5910  0.2636
   27CHL1  H15A 3123   1.499   2.667   5.285 -3.8012  0.7711 -1.4852
   27CHL1  H15B 3124   1.424   2.833   5.295  0.1592 -0.0603 -0.3207
   27CHL1   C16 3125   1.548   2.804   5.118  0.6479 -0.4529  0.3185
   27CHL1  H16A 3126   1.525   2.706   5.070  1.3715 -0.8283  0.7117
   27CHL1  H16B 3127   1.489   2.889   5.079  0.4393 -0.3279  0.8968
   27CHL1   C17 3128   1.701   2.826   5.113 -0.1365 -0.1837  0.0341
   27CHL1   H17 3129   1.708   2.937   5.109 -0.9769 -0.1673 -1.5895
   27CHL1   C13 3130   1.756   2.786   5.255 -0.6110 -1.2214  0.7206
   27CHL1   C18 3131   1.780   2.635   5.255 -0.6057  1.2932  0.4467
   27CHL1  H18A 3132   1.779   2.594   5.358 -0.3203  1.2876  0.4474
   27CHL1  H18B 3133   1.693   2.592   5.200  0.6868  2.6949 -2.9970
   27CHL1  H18C 3134   1.878   2.610   5.208  0.5812  1.7654  2.5228
   27CHL1   C12 3135   1.875   2.882   5.314 -0.2141 -0.0902 -0.2398
   27CHL1  H12A 3136   1.967   2.864   5.255  0.1186 -1.5390  0.6472
   27CHL1  H12B 3137   1.853   2.991   5.309  2.3384  0.5056  0.1046
   27CHL1   C11 3138   1.895   2.854   5.470  0.5316  0.4301  0.4507
   27CHL1  H11A 3139   1.932   2.750   5.486 -1.2341 -0.0953  1.3113
   27CHL1  H11B 3140   1.971   2.933   5.492  0.2500  1.2367 -1.2469
   27CHL1    C9 3141   1.760   2.859   5.553  0.3280 -0.0665  0.2936
   27CHL1    H9 3142   1.724   2.964   5.552 -3.5524 -1.2109  0.3113
   27CHL1   C10 3143   1.774   2.817   5.698  0.3041 -0.3342 -0.3201
   27CHL1   C19 3144   1.860   2.697   5.701  0.3047 -0.2897  0.0510
   27CHL1  H19A 3145   1.802   2.621   5.645 -0.0625  0.9766 -1.3414
   27CHL1  H19B 3146   1.966   2.720   5.675  0.3395  2.1223  1.9350
   27CHL1  H19C 3147   1.866   2.672   5.810 -0.0250  0.4153  0.2373
   27CHL1    C1 3148   1.834   2.936   5.780 -0.1514  0.0330  1.1307
   27CHL1   H1A 3149   1.938   2.943   5.742  0.0307  0.6044  1.7202
   27CHL1   H1B 3150   1.770   3.026   5.767 -0.3915 -0.2480  0.2833
   27CHL1    C2 3151   1.856   2.913   5.929  0.3065 -0.4143  0.3781
   27CHL1   H2A 3152   1.886   3.007   5.980  0.2562 -1.2088  1.9429
   27CHL1   H2B 3153   1.921   2.824   5.946 -1.8620 -1.9119  1.2629
   27CHL1   C20 3154   1.763   2.772   4.988 -0.9168 -0.5372  0.5969
   27CHL1   H20 3155   1.760   2.661   4.998  0.2810 -0.4325  2.5669
   27CHL1   C21 3156   1.911   2.821   4.977  0.1314  0.5569 -0.4282
   27CHL1  H21A 3157   1.962   2.770   4.892  0.8493 -0.2981  0.5027
   27CHL1  H21B 3158   1.972   2.814   5.069  2.6163  3.8555 -1.6366
   27CHL1  H21C 3159   1.912   2.930   4.955 -1.8905  0.3699 -1.7450
   27CHL1   C22 3160   1.677   2.803   4.859 -0.7111 -0.5571 -0.2644
   27CHL1  H22A 3161   1.575   2.763   4.877 -0.1123 -0.8260  3.3463
   27CHL1  H22B 3162   1.691   2.911   4.837 -0.4902  0.0114  2.3484
   27CHL1   C23 3163   1.723   2.718   4.736  0.4725 -0.0946  0.3205
   27CHL1  H23A 3164   1.834   2.721   4.727  0.7605 -0.0535  3.1096
   27CHL1  H23B 3165   1.704   2.610   4.754 -2.4497  0.2485 -0.2789
   27CHL1   C24 3166   1.661   2.769   4.604  0.5740 -0.3970  0.1671
   27CHL1  H24A 3167   1.552   2.764   4.624  0.4814 -2.4837 -0.6016
   27CHL1  H24B 3168   1.688   2.876   4.588  0.1213  0.1705  2.6676
   27CHL1   C25 3169   1.687   2.705   4.468 -0.1599  0.4574  0.6172
   27CHL1   H25 3170   1.649   2.601   4.475  2.6360 -0.5971  1.6938
   27CHL1   C26 3171   1.604   2.779   4.360 -0.2553  0.4005  0.2496
   27CHL1  H26A 3172   1.508   2.811   4.407 -0.3286  0.9155 -0.2380
   27CHL1  H26B 3173   1.654   2.874   4.334  1.3741  0.1374  2.2035
   27CHL1  H26C 3174   1.587   2.701   4.282 -1.5445  0.9234 -0.0212
   27CHL1   C27 3175   1.837   2.708   4.426  0.5973 -0.2868  0.1280
   27CHL1  H27A 3176   1.893   2.668   4.513 -0.4270 -0.5723  0.6682
   27CHL1  H27B 3177   1.866   2.815   4.413 -0.0587  0.2707  2.6775
   27CHL1  H27C 3178   1.865   2.648   4.337 -1.2075 -1.3742  0.2611
   28CHL1    C3 3179   5.957   3.473   5.606 -0.3739 -0.5055  0.0064
   28CHL1    H3 3180   5.888   3.551   5.567 -2.2263 -3.0758 -2.2742
   28CHL1    O3 3181   5.927   3.463   5.739 -0.7734  0.0453 -0.2203
   28CHL1   H3' 3182   5.964   3.377   5.759 -0.6090 -0.2896 -1.8041
   28CHL1    C4 3183   5.927   3.341   5.531  0.4345  0.4065 -0.2380
   28CHL1   H4A 3184   5.984   3.257   5.577 -0.8963 -0.4575 -0.1100
   28CHL1   H4B 3185   5.822   3.305   5.543  0.3205  0.1834 -1.7298
   28CHL1    C5 3186   5.959   3.356   5.381  0.2890 -0.3221 -0.3669
   28CHL1    C6 3187   5.865   3.358   5.282  0.5015  0.6008  0.1647
   28CHL1    H6 3188   5.764   3.323   5.306 -1.1953  4.2323 -1.0040
   28CHL1    C7 3189   5.891   3.380   5.139  0.0558 -0.1006  0.2379
   28CHL1   H7A 3190   5.843   3.296   5.084 -2.7397 -0.8627  3.4902
   28CHL1   H7B 3191   5.843   3.473   5.101 -0.8551 -0.4603  0.4884
   28CHL1    C8 3192   6.043   3.392   5.094  0.4917  0.0197  0.2996
   28CHL1    H8 3193   6.086   3.290   5.099  1.1796  0.3537  1.9647
   28CHL1   C14 3194   6.051   3.468   4.961  0.1850 -0.5302 -0.0469
   28CHL1   H14 3195   6.003   3.565   4.983  0.2682 -0.6401  0.6407
   28CHL1   C15 3196   5.969   3.414   4.838  0.2531  0.4507  0.3484
   28CHL1  H15A 3197   6.000   3.307   4.838  2.7864  1.1209  0.6301
   28CHL1  H15B 3198   5.860   3.415   4.860 -0.0049 -3.6587  0.0988
   28CHL1   C16 3199   6.038   3.489   4.722  0.2055 -0.3519 -0.6099
   28CHL1  H16A 3200   6.050   3.417   4.638  0.7757 -1.3704  0.3116
   28CHL1  H16B 3201   5.973   3.566   4.675  1.7821  0.7283 -1.0684
   28CHL1   C17 3202   6.163   3.561   4.774  0.6145  0.2754  0.4452
   28CHL1   H17 3203   6.144   3.669   4.788  1.9059  0.6346 -0.4438
   28CHL1   C13 3204   6.196   3.495   4.909  0.0137  0.1254  0.2509
   28CHL1   C18 3205   6.265   3.357   4.886 -0.3142  0.0829  0.3670
   28CHL1  H18A 3206   6.375   3.372   4.885 -0.5117  1.7474 -0.7905
   28CHL1  H18B 3207   6.243   3.278   4.961  1.4330 -1.1413 -0.3427
   28CHL1  H18C 3208   6.241   3.301   4.794  0.7770 -0.3265  0.3220
   28CHL1   C12 3209   6.267   3.570   5.021 -0.2243 -0.3735  0.7356
   28CHL1  H12A 3210   6.375   3.581   4.996 -0.7048  1.4911 -0.7623
   28CHL1  H12B 3211   6.225   3.672   5.032  1.1746  0.4128 -0.7584
   28CHL1   C11 3212   6.255   3.510   5.162 -0.2521  0.4356  0.0233
   28CHL1  H11A 3213   6.314   3.416   5.165  0.2593  0.7605  0.3669
   28CHL1  H11B 3214   6.307   3.572   5.237  0.2768  1.8451 -1.4675
   28CHL1    C9 3215   6.110   3.475   5.203 -0.0333  0.3516 -0.3299
   28CHL1    H9 3216   6.061   3.573   5.220 -2.0728 -0.7572  0.5726
   28CHL1   C10 3217   6.101   3.418   5.346 -0.3316 -0.4342  0.0864
   28CHL1   C19 3218   6.206   3.305   5.359  0.0937  0.0359 -0.3781
   28CHL1  H19A 3219   6.211   3.259   5.460 -2.0309 -0.8469 -0.6163
   28CHL1  H19B 3220   6.185   3.227   5.283  1.7035 -1.7012  0.8584
   28CHL1  H19C 3221   6.307   3.347   5.344  0.4448  0.0334  1.6666
   28CHL1    C1 3222   6.141   3.531   5.449  0.0484  0.4662 -0.5592
   28CHL1   H1A 3223   6.244   3.568   5.432  0.0214  0.5643 -0.5156
   28CHL1   H1B 3224   6.076   3.618   5.426 -3.0006 -1.3255  0.6550
   28CHL1    C2 3225   6.111   3.502   5.595  0.2297  0.3084 -0.0682
   28CHL1   H2A 3226   6.134   3.590   5.658 -2.2165  0.8606  0.1883
   28CHL1   H2B 3227   6.168   3.410   5.620  0.6191  0.2219 -1.2183
   28CHL1   C20 3228   6.275   3.551   4.669 -0.1009 -0.6211  0.4799
   28CHL1   H20 3229   6.284   3.444   4.644  0.5808 -1.1666  2.8491
   28CHL1   C21 3230   6.409   3.606   4.721  0.9388  0.1374  0.0200
   28CHL1  H21A 3231   6.458   3.535   4.791 -1.1459 -0.2330  1.1614
   28CHL1  H21B 3232   6.396   3.709   4.759 -1.6131  0.1625 -0.7164
   28CHL1  H21C 3233   6.478   3.612   4.634  2.2271  0.2727  1.0096
   28CHL1   C22 3234   6.246   3.641   4.539  0.6519 -0.3667 -1.0555
   28CHL1  H22A 3235   6.319   3.609   4.462 -0.0520 -2.3823 -0.9411
   28CHL1  H22B 3236   6.146   3.618   4.495 -0.9656 -0.0630  2.1857
   28CHL1   C23 3237   6.233   3.791   4.555  0.0035 -0.2369 -0.5189
   28CHL1  H23A 3238   6.137   3.808   4.609  0.6211 -1.5504  1.0532
   28CHL1  H23B 3239   6.311   3.840   4.617 -0.6194  1.0131 -0.7007
   28CHL1   C24 3240   6.216   3.867   4.422 -0.5597 -0.2043 -0.2667
   28CHL1  H24A 3241   6.320   3.880   4.383  0.3097  0.4133  2.0689
   28CHL1  H24B 3242   6.164   3.798   4.353 -0.6042  1.2518 -1.7544
   28CHL1   C25 3243   6.154   4.014   4.423 -0.1349  0.0996  0.4082
   28CHL1   H25 3244   6.172   4.045   4.318  1.8202 -1.6552  0.1619
   28CHL1   C26 3245   6.004   4.019   4.448  0.1641  0.0798  0.3025
   28CHL1  H26A 3246   5.986   3.976   4.549  0.0616 -0.0780  0.2184
   28CHL1  H26B 3247   5.959   4.117   4.423 -0.7078 -0.3077  0.2983
   28CHL1  H26C 3248   5.954   3.943   4.384  0.7110 -0.2140  0.2162
   28CHL1   C27 3249   6.232   4.112   4.514 -0.2252  0.1140 -1.0412
   28CHL1  H27A 3250   6.204   4.090   4.619 -1.0008 -0.5070 -1.3626
   28CHL1  H27B 3251   6.341   4.102   4.498  0.0688 -0.4039  1.0227
   28CHL1  H27C 3252   6.197   4.214   4.487  0.0720  0.5593  0.2143
   29CHL1    C3 3253   2.967   6.311   6.387 -0.6796 -0.4930  0.6298
   29CHL1    H3 3254   2.863   6.281   6.359 -0.3557 -1.1846  0.1431
   29CHL1    O3 3255   2.996   6.357   6.520  0.7131  0.4477 -0.1618
   29CHL1   H3' 3256   3.084   6.395   6.513  0.8617  0.4879  1.5052
   29CHL1    C4 3257   3.038   6.172   6.345 -0.5779 -0.6485 -0.7291
   29CHL1   H4A 3258   3.146   6.181   6.371 -1.3609  0.2411  2.6996
   29CHL1   H4B 3259   2.998   6.096   6.415 -1.1311 -0.2559 -0.6092
   29CHL1    C5 3260   3.015   6.136   6.196  0.3820 -0.3278 -0.0363
   29CHL1    C6 3261   2.950   6.024   6.170  0.1318 -0.0545 -0.2733
   29CHL1    H6 3262   2.941   5.948   6.249  0.1731  1.9851  1.7921
   29CHL1    C7 3263   2.895   5.992   6.035 -0.6558 -0.2688  0.0435
   29CHL1   H7A 3264   2.887   5.882   6.020 -2.8228 -0.4724  2.0363
   29CHL1   H7B 3265   2.791   6.033   6.039 -0.7594 -0.6258  1.4668
   29CHL1    C8 3266   2.980   6.064   5.916  0.1012  0.0695 -1.2104
   29CHL1    H8 3267   3.084   6.027   5.907 -0.0875 -0.0219 -3.7802
   29CHL1   C14 3268   2.909   6.041   5.780  1.5159 -0.6533 -0.5166
   29CHL1   H14 3269   2.820   6.106   5.793  0.9293 -1.7938  1.8928
   29CHL1   C15 3270   2.857   5.904   5.733 -0.4337  0.0260 -0.0815
   29CHL1  H15A 3271   2.923   5.821   5.767 -1.9511 -0.0850  2.9778
   29CHL1  H15B 3272   2.754   5.890   5.772 -0.5904 -0.5269 -0.6823
   29CHL1   C16 3273   2.858   5.915   5.577 -0.1693  0.0519  0.5140
   29CHL1  H16A 3274   2.917   5.844   5.515 -0.3646 -0.2500  0.6705
   29CHL1  H16B 3275   2.753   5.895   5.547  0.6742 -2.5817 -0.9652
   29CHL1   C17 3276   2.902   6.063   5.542  0.7285  0.9176  0.4421
   29CHL1   H17 3277   2.807   6.120   5.544  1.5283  2.9212 -4.2143
   29CHL1   C13 3278   2.982   6.102   5.662 -0.3870 -0.6657  0.1710
   29CHL1   C18 3279   3.120   6.038   5.655  0.0148 -0.1475  0.4027
   29CHL1  H18A 3280   3.186   6.067   5.740  0.0914  1.5560 -0.1949
   29CHL1  H18B 3281   3.106   5.928   5.650  0.0428 -0.0914 -1.7055
   29CHL1  H18C 3282   3.180   6.067   5.566 -0.0392 -0.5112  0.2481
   29CHL1   C12 3283   3.009   6.253   5.691  0.0022  0.3809  1.3631
   29CHL1  H12A 3284   3.067   6.297   5.608  1.0302 -0.1428  1.7818
   29CHL1  H12B 3285   2.907   6.297   5.687 -0.8525 -1.2912  2.8609
   29CHL1   C11 3286   3.060   6.289   5.828 -0.2340  0.9794 -0.1722
   29CHL1  H11A 3287   3.162   6.246   5.819 -0.9562 -0.8299 -0.0432
   29CHL1  H11B 3288   3.066   6.398   5.852  1.1918  1.0452 -0.7025
   29CHL1    C9 3289   2.992   6.218   5.946 -0.4934  0.3498  0.2696
   29CHL1    H9 3290   2.889   6.260   5.943 -0.3742  0.6581  0.4786
   29CHL1   C10 3291   3.040   6.250   6.092  0.3916  0.1723  0.7130
   29CHL1   C19 3292   3.193   6.261   6.083  0.2848  0.2514 -0.5186
   29CHL1  H19A 3293   3.234   6.164   6.049  0.9578  0.9134 -1.6289
   29CHL1  H19B 3294   3.232   6.342   6.019 -3.0446  1.3934 -1.3097
   29CHL1  H19C 3295   3.237   6.286   6.182  3.5456 -1.3197 -1.4253
   29CHL1    C1 3296   2.979   6.388   6.142 -0.3611  0.1887  0.5122
   29CHL1   H1A 3297   3.013   6.465   6.070 -0.2698 -1.3138 -1.1141
   29CHL1   H1B 3298   2.868   6.386   6.132 -0.4022  0.2441  0.9158
   29CHL1    C2 3299   3.013   6.420   6.287  0.3038 -0.3856 -0.5439
   29CHL1   H2A 3300   2.959   6.513   6.317 -2.3410 -0.8359 -3.4248
   29CHL1   H2B 3301   3.120   6.445   6.303  0.5217 -1.8307  0.4676
   29CHL1   C20 3302   2.953   6.096   5.400  0.5179 -0.1631 -0.3259
   29CHL1   H20 3303   3.015   6.188   5.404  0.3189 -0.0718  0.9765
   29CHL1   C21 3304   2.829   6.124   5.312 -0.5967  0.7830  0.8088
   29CHL1  H21A 3305   2.749   6.048   5.313  2.0466 -2.2135  1.3140
   29CHL1  H21B 3306   2.860   6.137   5.206 -1.3638 -1.3117  0.2841
   29CHL1  H21C 3307   2.789   6.224   5.341 -0.3677  1.1249 -0.0054
   29CHL1   C22 3308   3.034   5.986   5.332 -0.8830  0.8968  0.0532
   29CHL1  H22A 3309   3.105   5.929   5.396  1.4448  0.9033 -2.3745
   29CHL1  H22B 3310   2.960   5.912   5.297  0.7222 -1.4331  1.2780
   29CHL1   C23 3311   3.120   6.024   5.209  0.0706 -0.5291 -0.4936
   29CHL1  H23A 3312   3.066   6.102   5.150 -0.5530  0.2790  1.0940
   29CHL1  H23B 3313   3.207   6.073   5.256 -0.2238  0.4160 -0.8904
   29CHL1   C24 3314   3.175   5.905   5.130 -0.4907 -0.0081 -0.1429
   29CHL1  H24A 3315   3.285   5.903   5.144 -0.7608  0.7474  3.0663
   29CHL1  H24B 3316   3.139   5.818   5.189  1.5986 -0.5164  0.4623
   29CHL1   C25 3317   3.141   5.913   4.980  0.1846 -0.1149 -0.3334
   29CHL1   H25 3318   3.159   6.019   4.954  0.8540  0.4333  2.0941
   29CHL1   C26 3319   3.229   5.817   4.895 -0.4730 -0.3603 -0.0560
   29CHL1  H26A 3320   3.210   5.710   4.918 -2.0732  0.1759  1.2653
   29CHL1  H26B 3321   3.199   5.833   4.789 -1.6048 -0.0672  0.2920
   29CHL1  H26C 3322   3.336   5.845   4.900 -0.4378 -0.7129  1.4399
   29CHL1   C27 3323   2.999   5.886   4.954 -0.2654 -0.0266  0.5050
   29CHL1  H27A 3324   2.982   5.779   4.977  1.6354  0.1405  3.1374
   29CHL1  H27B 3325   2.934   5.940   5.027 -2.8117 -1.2079 -0.7254
   29CHL1  H27C 3326   2.965   5.908   4.850 -0.8310 -1.9745  0.2292
   30CHL1    C3 3327   2.817   5.225   6.246 -0.5376 -0.0576 -0.3088
   30CHL1    H3 3328   2.920   5.240   6.207 -0.5570  1.5500  0.1830
   30CHL1    O3 3329   2.813   5.227   6.386  0.1989  0.0247 -0.0573
   30CHL1   H3' 3330   2.720   5.231   6.409 -0.0559 -0.6082 -0.9607
   30CHL1    C4 3331   2.735   5.335   6.196  0.8727 -0.4417 -0.9830
   30CHL1   H4A 3332   2.630   5.326   6.232  1.9697 -3.7820  1.9730
   30CHL1   H4B 3333   2.767   5.425   6.253 -1.5328  0.7260 -1.3446
   30CHL1    C5 3334   2.736   5.348   6.052  0.8387  0.0691  1.0328
   30CHL1    C6 3335   2.779   5.451   5.981  0.2325 -0.2384 -0.1173
   30CHL1    H6 3336   2.807   5.542   6.037 -2.4625  0.2460  0.5633
   30CHL1    C7 3337   2.764   5.463   5.830  0.3515  0.2759  0.7378
   30CHL1   H7A 3338   2.709   5.557   5.808 -0.0331 -0.5845 -2.6483
   30CHL1   H7B 3339   2.859   5.470   5.772 -2.0215 -1.6269 -3.9520
   30CHL1    C8 3340   2.691   5.346   5.761  0.2905 -0.4471  0.5965
   30CHL1    H8 3341   2.581   5.356   5.765  0.1334 -0.4574 -1.7865
   30CHL1   C14 3342   2.726   5.348   5.612  0.0694  0.7076  0.8506
   30CHL1   H14 3343   2.832   5.316   5.604 -0.0220  0.8569 -1.7668
   30CHL1   C15 3344   2.724   5.476   5.529 -0.0318  0.4994 -0.0566
   30CHL1  H15A 3345   2.643   5.538   5.573  0.4429 -0.1187  1.7585
   30CHL1  H15B 3346   2.821   5.530   5.532  1.4936 -1.8804 -2.1428
   30CHL1   C16 3347   2.708   5.433   5.384  0.3657 -0.1495  0.1264
   30CHL1  H16A 3348   2.612   5.478   5.351  0.9998 -0.8769 -2.9715
   30CHL1  H16B 3349   2.791   5.481   5.329 -0.0244  0.2460 -0.1274
   30CHL1   C17 3350   2.702   5.280   5.389  0.9884  0.0962  0.2624
   30CHL1   H17 3351   2.809   5.253   5.382  0.6856 -0.8757 -1.1800
   30CHL1   C13 3352   2.647   5.247   5.531  0.1139  0.0083  0.4584
   30CHL1   C18 3353   2.489   5.269   5.538  0.6180 -0.7569  0.4918
   30CHL1  H18A 3354   2.448   5.236   5.636 -1.3383  1.6852  0.5848
   30CHL1  H18B 3355   2.467   5.377   5.530  1.4433 -0.6633 -0.7079
   30CHL1  H18C 3356   2.438   5.217   5.454  2.7634 -1.7890 -0.2558
   30CHL1   C12 3357   2.681   5.104   5.587  0.2220 -0.7631  0.2530
   30CHL1  H12A 3358   2.626   5.020   5.538  1.0260  0.3344 -2.7151
   30CHL1  H12B 3359   2.790   5.087   5.575  0.2875 -1.2391  1.4159
   30CHL1   C11 3360   2.655   5.098   5.735  0.4410 -0.0861  0.4678
   30CHL1  H11A 3361   2.545   5.096   5.752  0.4110 -3.5416  0.5387
   30CHL1  H11B 3362   2.690   5.005   5.783 -3.6414 -0.0639  4.0874
   30CHL1    C9 3363   2.721   5.213   5.822  0.2475  0.3917 -0.7617
   30CHL1    H9 3364   2.831   5.197   5.815  0.0888 -0.0854 -2.4269
   30CHL1   C10 3365   2.692   5.217   5.977  0.0297  0.6738  0.5979
   30CHL1   C19 3366   2.536   5.210   5.996 -0.4823 -0.3407 -0.6442
   30CHL1  H19A 3367   2.489   5.115   5.962 -1.1044 -0.2654 -0.0139
   30CHL1  H19B 3368   2.515   5.213   6.105  1.2758  0.7713 -0.3029
   30CHL1  H19C 3369   2.478   5.287   5.941  0.1292 -0.9813 -2.2501
   30CHL1    C1 3370   2.759   5.093   6.043 -0.1542  0.0421 -0.0319
   30CHL1   H1A 3371   2.693   5.005   6.026 -1.8884  0.5946  3.0435
   30CHL1   H1B 3372   2.865   5.071   6.017 -0.2379 -1.6146  0.8944
   30CHL1    C2 3373   2.753   5.100   6.197  1.2341 -0.2425 -0.5608
   30CHL1   H2A 3374   2.804   5.015   6.247  1.4151  0.6234  0.7620
   30CHL1   H2B 3375   2.645   5.097   6.224  0.5827 -2.5131 -3.0212
   30CHL1   C20 3376   2.624   5.225   5.268 -0.2704 -0.5515  0.1927
   30CHL1   H20 3377   2.525   5.273   5.253  0.1681 -0.2827 -2.2891
   30CHL1   C21 3378   2.606   5.074   5.274  0.1952 -0.1581 -0.8260
   30CHL1  H21A 3379   2.528   5.043   5.347  1.3164 -0.2104  0.3906
   30CHL1  H21B 3380   2.694   5.014   5.305 -0.9089 -0.3388  2.2601
   30CHL1  H21C 3381   2.565   5.044   5.175 -0.2910  1.6500 -1.2003
   30CHL1   C22 3382   2.688   5.267   5.132 -0.2573  0.1072  0.1073
   30CHL1  H22A 3383   2.735   5.368   5.128 -1.1195  0.4765 -1.6586
   30CHL1  H22B 3384   2.769   5.196   5.108  1.4700  2.3108 -0.9946
   30CHL1   C23 3385   2.585   5.264   5.023 -0.7797 -0.1767  0.4634
   30CHL1  H23A 3386   2.564   5.157   5.005 -2.0100 -0.1424  1.5464
   30CHL1  H23B 3387   2.496   5.325   5.050 -2.4895 -2.0050 -0.8135
   30CHL1   C24 3388   2.659   5.304   4.882  0.3541 -0.3871  0.7013
   30CHL1  H24A 3389   2.669   5.414   4.869 -0.9553 -0.6311 -4.3391
   30CHL1  H24B 3390   2.761   5.259   4.886  0.2045 -0.9373 -0.8375
   30CHL1   C25 3391   2.583   5.255   4.759  0.2785  0.2777  0.1685
   30CHL1   H25 3392   2.577   5.144   4.765  1.6182 -0.1198 -3.5014
   30CHL1   C26 3393   2.442   5.296   4.746 -0.1787 -0.4324 -0.0632
   30CHL1  H26A 3394   2.409   5.249   4.652 -1.7097  1.0062 -0.2971
   30CHL1  H26B 3395   2.373   5.258   4.824  0.9231 -0.3246  0.9934
   30CHL1  H26C 3396   2.426   5.406   4.743 -2.4584 -0.6904  0.5696
   30CHL1   C27 3397   2.657   5.283   4.627 -0.0592  1.0043  0.1153
   30CHL1  H27A 3398   2.586   5.278   4.542 -0.2500  0.3408  0.3083
   30CHL1  H27B 3399   2.687   5.390   4.631 -0.7101  1.2242 -0.6638
   30CHL1  H27C 3400   2.747   5.220   4.613  0.0120  1.1315 -0.0041
   31CHL1    C3 3401   2.008   0.403   6.060  0.4286 -0.0581  0.4733
   31CHL1    H3 3402   2.104   0.348   6.063 -0.0593 -0.8974  1.5593
   31CHL1    O3 3403   1.953   0.427   6.189  0.0124 -0.0418  0.2845
   31CHL1   H3' 3404   1.864   0.462   6.179  0.4557  1.3765  1.0048
   31CHL1    C4 3405   2.024   0.547   6.016 -0.4460 -0.1151 -0.4145
   31CHL1   H4A 3406   1.932   0.601   6.047  1.2966  1.5483  2.3227
   31CHL1   H4B 3407   2.092   0.583   6.097 -1.5915 -1.1527  1.0750
   31CHL1    C5 3408   2.081   0.565   5.879  0.5043  0.8535  0.4720
   31CHL1    C6 3409   2.198   0.627   5.857 -0.0904  0.9629  0.4719
   31CHL1    H6 3410   2.247   0.658   5.950  1.8262 -0.3565 -0.0251
   31CHL1    C7 3411   2.261   0.639   5.713  0.6607  0.2962  0.0987
   31CHL1   H7A 3412   2.298   0.743   5.698  2.5604 -0.3831 -0.1874
   31CHL1   H7B 3413   2.348   0.571   5.699 -0.2944 -0.6395 -1.7257
   31CHL1    C8 3414   2.153   0.606   5.600 -0.2710  0.4345  0.5046
   31CHL1    H8 3415   2.069   0.679   5.596 -2.7921 -2.3720 -1.7123
   31CHL1   C14 3416   2.215   0.595   5.460  0.3399 -0.2910 -0.4865
   31CHL1   H14 3417   2.295   0.519   5.461  0.7351  0.0839 -1.6083
   31CHL1   C15 3418   2.293   0.721   5.408  0.1591  0.0519  0.4937
   31CHL1  H15A 3419   2.245   0.817   5.436  2.7763  1.3259  0.9096
   31CHL1  H15B 3420   2.384   0.737   5.469  0.8866 -0.4456 -0.4391
   31CHL1   C16 3421   2.303   0.701   5.252  1.0486  0.0805 -0.7259
   31CHL1  H16A 3422   2.243   0.784   5.209 -0.4469 -0.8297 -0.4932
   31CHL1  H16B 3423   2.409   0.700   5.222  0.9575  1.2722 -1.1218
   31CHL1   C17 3424   2.228   0.563   5.229 -0.4519  0.0528  0.0790
   31CHL1   H17 3425   2.300   0.478   5.234  1.3046  1.4819  0.3241
   31CHL1   C13 3426   2.123   0.552   5.341 -0.5712  0.1688 -0.4263
   31CHL1   C18 3427   2.010   0.663   5.331 -0.8144  0.7272  0.3207
   31CHL1  H18A 3428   1.938   0.636   5.250  0.2457  3.0250 -1.5000
   31CHL1  H18B 3429   1.964   0.680   5.431 -0.0463  0.7998  0.6638
   31CHL1  H18C 3430   2.058   0.761   5.312 -2.3493  1.6787  1.0933
   31CHL1   C12 3431   2.072   0.409   5.376 -0.3646  0.0470 -0.3220
   31CHL1  H12A 3432   2.000   0.367   5.303 -1.3957 -0.2452  0.8256
   31CHL1  H12B 3433   2.160   0.342   5.372 -0.8886 -0.6868  0.1300
   31CHL1   C11 3434   1.998   0.411   5.518  0.4428 -0.6617 -0.6662
   31CHL1  H11A 3435   1.903   0.468   5.510  0.9567  0.0800 -1.6835
   31CHL1  H11B 3436   1.988   0.304   5.546  1.5922 -0.5961  0.0491
   31CHL1    C9 3437   2.083   0.473   5.635 -0.1130  0.1803 -0.4892
   31CHL1    H9 3438   2.165   0.400   5.654 -0.7272 -0.3732  0.0969
   31CHL1   C10 3439   2.002   0.484   5.769 -0.5198 -0.1776 -0.2484
   31CHL1   C19 3440   1.863   0.544   5.748 -0.1004 -0.5288 -0.2723
   31CHL1  H19A 3441   1.807   0.478   5.678 -0.8071 -1.7936  1.4187
   31CHL1  H19B 3442   1.799   0.543   5.839 -1.4117  1.4301 -1.0951
   31CHL1  H19C 3443   1.868   0.644   5.701  2.4573 -0.0479  0.8853
   31CHL1    C1 3444   1.985   0.339   5.825  0.1508  0.3783  0.6839
   31CHL1   H1A 3445   1.928   0.279   5.751 -0.1976  0.1734  1.1136
   31CHL1   H1B 3446   2.082   0.287   5.834  1.1719  1.9073 -0.7322
   31CHL1    C2 3447   1.914   0.334   5.959  0.7910  0.1469  0.2089
   31CHL1   H2A 3448   1.890   0.230   5.988  1.0804 -0.2399 -0.8692
   31CHL1   H2B 3449   1.819   0.391   5.953  0.7653  0.4481  2.6049
   31CHL1   C20 3450   2.168   0.567   5.092  0.7456  0.8082  0.6048
   31CHL1   H20 3451   2.095   0.651   5.088  0.2196  0.3046 -1.0419
   31CHL1   C21 3452   2.085   0.434   5.063 -0.4179  0.1849  0.0402
   31CHL1  H21A 3453   2.126   0.350   5.124  1.0041  1.7800  1.3897
   31CHL1  H21B 3454   2.080   0.421   4.953 -0.5689 -0.1075  0.0803
   31CHL1  H21C 3455   1.980   0.451   5.094 -1.4005  1.0061 -3.3080
   31CHL1   C22 3456   2.274   0.604   4.980 -0.3110 -0.5676  0.6968
   31CHL1  H22A 3457   2.223   0.588   4.883  0.5709  0.0929  0.1103
   31CHL1  H22B 3458   2.307   0.710   4.980  1.1566 -0.9772 -1.0220
   31CHL1   C23 3459   2.400   0.514   4.981  1.1204 -0.1943 -0.9581
   31CHL1  H23A 3460   2.465   0.551   5.063  2.2902  0.2877 -2.0824
   31CHL1  H23B 3461   2.386   0.406   5.000  0.2503 -0.1726 -1.4116
   31CHL1   C24 3462   2.481   0.535   4.856 -0.1092  0.5102  0.4038
   31CHL1  H24A 3463   2.494   0.644   4.837  1.9203  0.3743  0.7556
   31CHL1  H24B 3464   2.582   0.493   4.877 -0.3262  0.0101  0.4549
   31CHL1   C25 3465   2.426   0.482   4.728  0.7482 -0.3960  0.3567
   31CHL1   H25 3466   2.321   0.512   4.708  0.6394 -1.2423 -0.4000
   31CHL1   C26 3467   2.502   0.530   4.596  0.3345 -0.5858 -0.2425
   31CHL1  H26A 3468   2.434   0.516   4.509  0.8150 -0.1019 -0.7023
   31CHL1  H26B 3469   2.533   0.636   4.608  1.9961 -0.9402 -1.0838
   31CHL1  H26C 3470   2.597   0.476   4.579  0.8510  0.2872 -0.1478
   31CHL1   C27 3471   2.423   0.326   4.724  0.7176  0.1237  0.2488
   31CHL1  H27A 3472   2.368   0.285   4.812 -0.3262 -0.8205 -0.8059
   31CHL1  H27B 3473   2.377   0.286   4.631 -0.4521  0.1808  0.7774
   31CHL1  H27C 3474   2.524   0.282   4.732  0.7246  0.4759  3.1678
   32CHL1    C3 3475   3.150   3.298   6.283 -0.2819  0.1885 -0.2448
   32CHL1    H3 3476   3.236   3.368   6.275  1.0043 -1.2603  0.3154
   32CHL1    O3 3477   3.128   3.279   6.421 -0.5679 -0.1588  0.2629
   32CHL1   H3' 3478   3.201   3.224   6.450 -1.1692 -2.1880 -1.7934
   32CHL1    C4 3479   3.020   3.351   6.205 -0.1540 -0.2284  0.3857
   32CHL1   H4A 3480   2.938   3.279   6.229  0.6339 -1.8596 -1.5298
   32CHL1   H4B 3481   2.989   3.453   6.235  1.2463  0.1847  0.5059
   32CHL1    C5 3482   3.053   3.373   6.054 -0.3838 -0.3083  0.2239
   32CHL1    C6 3483   3.032   3.492   5.991  0.2488 -0.0888 -0.1109
   32CHL1    H6 3484   2.980   3.570   6.048  1.2572  1.0905 -0.7677
   32CHL1    C7 3485   3.058   3.507   5.848 -0.2538  0.0719  0.2212
   32CHL1   H7A 3486   2.973   3.563   5.802  0.6504  1.0524 -0.2845
   32CHL1   H7B 3487   3.142   3.577   5.829 -1.1682  1.3566  0.7695
   32CHL1    C8 3488   3.083   3.374   5.774 -0.2497  0.1497  0.1245
   32CHL1    H8 3489   2.981   3.335   5.753 -0.2083  0.2210 -0.2262
   32CHL1   C14 3490   3.145   3.406   5.636  0.0707  0.4537 -1.0895
   32CHL1   H14 3491   3.245   3.454   5.646  0.2074 -0.1635  0.8919
   32CHL1   C15 3492   3.073   3.504   5.545 -0.6706 -0.0395  0.0304
   32CHL1  H15A 3493   2.964   3.488   5.534 -0.9326  1.3312  0.4331
   32CHL1  H15B 3494   3.082   3.605   5.592  0.9518  0.2446 -0.7878
   32CHL1   C16 3495   3.149   3.493   5.416 -0.6598  0.1015 -0.1083
   32CHL1  H16A 3496   3.067   3.489   5.342 -1.0700 -2.6072  0.3772
   32CHL1  H16B 3497   3.212   3.577   5.382  0.4911 -0.5155  0.4267
   32CHL1   C17 3498   3.215   3.353   5.419  0.1458 -0.6209 -0.3420
   32CHL1   H17 3499   3.326   3.359   5.426  0.0234  0.4022  1.2197
   32CHL1   C13 3500   3.168   3.280   5.546  0.5331  0.5083  0.3171
   32CHL1   C18 3501   3.027   3.207   5.510 -0.9258  0.4000  0.0040
   32CHL1  H18A 3502   2.993   3.159   5.604  2.5262  1.5163  2.0261
   32CHL1  H18B 3503   2.950   3.276   5.469 -2.6135 -0.5208  1.4819
   32CHL1  H18C 3504   3.037   3.131   5.431  1.0599  1.1057 -0.4845
   32CHL1   C12 3505   3.267   3.186   5.627 -0.4175 -0.5611  0.1611
   32CHL1  H12A 3506   3.282   3.088   5.577 -0.4325 -1.0819  1.1430
   32CHL1  H12B 3507   3.363   3.239   5.646  0.4355 -2.1052  0.2674
   32CHL1   C11 3508   3.204   3.152   5.765 -0.0142  0.6668 -0.5592
   32CHL1  H11A 3509   3.120   3.082   5.747  0.8410  0.1539 -2.8933
   32CHL1  H11B 3510   3.275   3.095   5.828 -0.2444 -0.2840 -1.1423
   32CHL1    C9 3511   3.171   3.276   5.844  0.0080 -0.2941  0.3702
   32CHL1    H9 3512   3.264   3.326   5.876 -0.8211  1.6202 -0.0862
   32CHL1   C10 3513   3.102   3.244   5.985 -0.3697 -0.1026  0.3526
   32CHL1   C19 3514   2.980   3.145   5.983  0.0039 -0.1616 -0.3905
   32CHL1  H19A 3515   2.937   3.127   6.084 -1.1713  1.3473 -0.5810
   32CHL1  H19B 3516   2.896   3.176   5.918 -1.0518  1.9822  1.8085
   32CHL1  H19C 3517   3.020   3.045   5.956 -0.4084 -0.6798  0.8218
   32CHL1    C1 3518   3.215   3.183   6.075  0.2265  0.0279  0.2278
   32CHL1   H1A 3519   3.254   3.092   6.026  0.6011  1.1084 -1.5739
   32CHL1   H1B 3520   3.304   3.251   6.079  0.1388  0.2624 -1.3476
   32CHL1    C2 3521   3.191   3.166   6.227  0.5719  0.5063  0.6024
   32CHL1   H2A 3522   3.278   3.114   6.273 -0.9107 -3.1289 -0.3715
   32CHL1   H2B 3523   3.099   3.105   6.235 -0.5838  1.8540 -1.4535
   32CHL1   C20 3524   3.202   3.266   5.282 -0.0314 -1.3069 -0.9225
   32CHL1   H20 3525   3.093   3.257   5.267 -0.2588 -1.0709  0.4330
   32CHL1   C21 3526   3.274   3.134   5.287  0.1199  0.1090  0.1144
   32CHL1  H21A 3527   3.239   3.076   5.375  0.4545 -0.7013 -0.2807
   32CHL1  H21B 3528   3.383   3.151   5.303  0.9718 -2.3865 -2.2966
   32CHL1  H21C 3529   3.258   3.078   5.192  2.8283 -1.5892  0.5466
   32CHL1   C22 3530   3.250   3.351   5.159 -0.4784 -0.4545 -0.5783
   32CHL1  H22A 3531   3.203   3.451   5.171 -0.8030 -0.8189  1.4586
   32CHL1  H22B 3532   3.360   3.357   5.172 -0.7197  2.5310  0.9742
   32CHL1   C23 3533   3.199   3.302   5.020 -0.4655 -0.2994  0.3419
   32CHL1  H23A 3534   3.245   3.201   5.018 -0.0405 -0.1010 -0.0280
   32CHL1  H23B 3535   3.088   3.300   5.018 -0.4531 -1.8956 -0.2419
   32CHL1   C24 3536   3.242   3.400   4.910  0.3245  0.6705 -0.5244
   32CHL1  H24A 3537   3.209   3.503   4.934  0.2297  0.5335 -0.0452
   32CHL1  H24B 3538   3.353   3.403   4.919  0.3139  0.0029 -0.0660
   32CHL1   C25 3539   3.216   3.348   4.766 -0.0649  0.2969 -1.2100
   32CHL1   H25 3540   3.258   3.246   4.756 -0.4569 -0.1281  1.0677
   32CHL1   C26 3541   3.073   3.339   4.732 -0.1631 -0.2598 -0.5176
   32CHL1  H26A 3542   3.067   3.345   4.621  0.1272 -1.4215 -0.6095
   32CHL1  H26B 3543   3.022   3.243   4.755 -1.1925  0.4181  0.1139
   32CHL1  H26C 3544   3.026   3.433   4.769 -0.8126 -0.4742 -0.7967
   32CHL1   C27 3545   3.301   3.437   4.666  0.2907 -0.6438 -0.3710
   32CHL1  H27A 3546   3.271   3.544   4.678  0.3208 -0.8745  2.7421
   32CHL1  H27B 3547   3.410   3.427   4.681  0.0184 -0.8389  1.8505
   32CHL1  H27C 3548   3.279   3.410   4.561  0.6977  1.0311 -0.9194
   33CHL1    C3 3549   1.928   2.124   6.374  0.5476  0.2063 -0.3897
   33CHL1    H3 3550   1.822   2.130   6.341  0.0404  3.8631  1.3408
   33CHL1    O3 3551   1.945   2.101   6.513  0.4688  0.1727  0.1728
   33CHL1   H3' 3552   2.041   2.103   6.519  0.5921  1.3226 -1.4505
   33CHL1    C4 3553   2.016   2.031   6.297  0.4169 -0.2418  0.0384
   33CHL1   H4A 3554   2.118   2.038   6.341  0.6753 -2.1594 -0.1647
   33CHL1   H4B 3555   1.974   1.932   6.324  1.2797 -0.1189  2.0322
   33CHL1    C5 3556   2.039   2.054   6.151  0.1235 -0.5849 -0.3911
   33CHL1    C6 3557   2.007   1.959   6.066 -0.3109  0.1361 -0.7040
   33CHL1    H6 3558   1.971   1.865   6.109  0.2104  0.1675 -0.1882
   33CHL1    C7 3559   2.028   1.971   5.919 -0.3118 -0.2812 -0.3863
   33CHL1   H7A 3560   2.105   1.900   5.881 -0.4429  0.8171 -2.9179
   33CHL1   H7B 3561   1.933   1.945   5.868 -0.6622 -0.3490  0.2932
   33CHL1    C8 3562   2.084   2.105   5.868  0.3394 -0.3026 -0.3441
   33CHL1    H8 3563   2.194   2.095   5.877  0.3698 -0.0957 -0.4734
   33CHL1   C14 3564   2.039   2.130   5.727 -0.3579 -1.1237  0.0797
   33CHL1   H14 3565   1.929   2.137   5.735 -0.2235  0.5081  0.8492
   33CHL1   C15 3566   2.076   2.013   5.633  0.1753 -0.3987  0.3262
   33CHL1  H15A 3567   2.182   1.985   5.648 -0.2681 -0.8168  3.4435
   33CHL1  H15B 3568   2.004   1.929   5.642  0.7474 -1.6401 -4.3300
   33CHL1   C16 3569   2.061   2.087   5.499 -0.2309  0.7765 -0.0809
   33CHL1  H16A 3570   2.155   2.076   5.440  0.6826  0.1372  1.4335
   33CHL1  H16B 3571   1.985   2.045   5.430  0.6656 -1.1700  0.0216
   33CHL1   C17 3572   2.042   2.245   5.515 -0.0463 -0.9348  0.0159
   33CHL1   H17 3573   1.932   2.256   5.507  0.2719  1.1276 -3.1260
   33CHL1   C13 3574   2.088   2.263   5.664 -0.3045 -0.2560  0.7717
   33CHL1   C18 3575   2.243   2.270   5.662 -0.6601  0.8176 -1.2888
   33CHL1  H18A 3576   2.279   2.287   5.766 -1.1427 -0.2965 -0.9213
   33CHL1  H18B 3577   2.286   2.173   5.628 -1.9311 -0.0951 -0.3916
   33CHL1  H18C 3578   2.275   2.356   5.600  0.4008  2.2367  1.0920
   33CHL1   C12 3579   2.019   2.380   5.747 -0.1049  0.2841  0.5923
   33CHL1  H12A 3580   2.061   2.480   5.723 -3.2786  2.3175  2.6597
   33CHL1  H12B 3581   1.910   2.385   5.725 -0.4215 -0.4184  1.8841
   33CHL1   C11 3582   2.043   2.364   5.899 -0.6737  0.8798  0.0784
   33CHL1  H11A 3583   2.143   2.408   5.921  0.1414 -1.6419  1.9163
   33CHL1  H11B 3584   1.966   2.424   5.951 -1.4112 -1.0980  1.3786
   33CHL1    C9 3585   2.029   2.222   5.961 -0.4049  0.1182 -0.6683
   33CHL1    H9 3586   1.918   2.208   5.962 -0.3756 -0.1079 -0.4756
   33CHL1   C10 3587   2.074   2.204   6.105 -0.1427 -0.6814 -0.4257
   33CHL1   C19 3588   2.218   2.260   6.129  0.2488  1.2196  0.8853
   33CHL1  H19A 3589   2.288   2.215   6.055 -0.6915  1.3904 -0.1318
   33CHL1  H19B 3590   2.226   2.370   6.117 -0.7441  1.2957  0.8930
   33CHL1  H19C 3591   2.268   2.244   6.227  2.3014 -1.0032 -0.3787
   33CHL1    C1 3592   1.984   2.296   6.203  0.8448  0.3728  0.0434
   33CHL1   H1A 3593   2.026   2.397   6.181 -0.5359  0.7067 -1.1771
   33CHL1   H1B 3594   1.879   2.296   6.169  0.5886 -0.1533  0.8033
   33CHL1    C2 3595   1.986   2.264   6.351  0.7469 -0.0875  0.1721
   33CHL1   H2A 3596   1.932   2.337   6.415  0.5342  0.1928 -0.3238
   33CHL1   H2B 3597   2.093   2.267   6.381  0.5850  1.4293  0.6460
   33CHL1   C20 3598   2.099   2.335   5.409 -0.5815  0.5277 -0.0997
   33CHL1   H20 3599   2.205   2.308   5.390 -1.3818 -1.8571 -1.6202
   33CHL1   C21 3600   2.101   2.489   5.446 -0.2154  0.1503 -0.5399
   33CHL1  H21A 3601   2.139   2.500   5.549 -3.0240  2.0289  0.4202
   33CHL1  H21B 3602   1.996   2.527   5.442 -0.3613 -0.1913 -0.0861
   33CHL1  H21C 3603   2.172   2.538   5.377  0.0067 -1.6384 -1.6554
   33CHL1   C22 3604   2.050   2.302   5.268 -0.1901  0.2530  0.5407
   33CHL1  H22A 3605   2.052   2.191   5.258  0.2317  0.2139  1.0258
   33CHL1  H22B 3606   1.942   2.329   5.262 -0.5917 -1.5211 -1.9842
   33CHL1   C23 3607   2.128   2.374   5.157 -0.2313  0.0607  0.4355
   33CHL1  H23A 3608   2.118   2.484   5.170 -1.2691  0.0655 -0.2636
   33CHL1  H23B 3609   2.238   2.363   5.145  0.2272  1.6281  2.6666
   33CHL1   C24 3610   2.063   2.337   5.019  0.0693  0.0324 -1.0147
   33CHL1  H24A 3611   2.094   2.233   4.992  1.4138  0.2122 -0.2236
   33CHL1  H24B 3612   1.954   2.354   5.033 -0.5176 -1.1556 -3.5190
   33CHL1   C25 3613   2.112   2.417   4.899  0.0370  0.2422  0.7171
   33CHL1   H25 3614   2.095   2.522   4.933 -1.9003  0.1520  0.1663
   33CHL1   C26 3615   2.251   2.385   4.846  1.2467  0.4158 -0.3174
   33CHL1  H26A 3616   2.241   2.282   4.805  2.9902 -0.0795  0.4039
   33CHL1  H26B 3617   2.288   2.462   4.775 -0.1995  1.8815  0.4753
   33CHL1  H26C 3618   2.306   2.385   4.943 -1.4729  0.0332  1.3283
   33CHL1   C27 3619   2.000   2.420   4.791 -0.1761  0.1187  0.3085
   33CHL1  H27A 3620   2.004   2.317   4.748 -0.1939 -0.2985  1.2676
   33CHL1  H27B 3621   1.898   2.416   4.835 -0.7261 -2.9603 -0.9969
   33CHL1  H27C 3622   2.017   2.491   4.707  1.8667  0.1499  0.7087
   34CHL1    C3 3623   2.486   4.045   6.343 -1.2147  0.1201 -0.0596
   34CHL1    H3 3624   2.596   4.028   6.347 -1.3754 -2.5347 -3.2947
   34CHL1    O3 3625   2.441   4.063   6.473  0.1052 -0.2097 -0.3922
   34CHL1   H3' 3626   2.345   4.054   6.472  0.0704 -0.4635 -3.7724
   34CHL1    C4 3627   2.458   4.166   6.263 -0.0726  0.1133 -0.4328
   34CHL1   H4A 3628   2.354   4.203   6.275  1.2927  3.9641  1.4650
   34CHL1   H4B 3629   2.515   4.250   6.308  2.0441 -1.3901 -0.1502
   34CHL1    C5 3630   2.483   4.150   6.116  0.7502  0.3350  0.2750
   34CHL1    C6 3631   2.553   4.244   6.052 -0.4190 -1.1998  0.8935
   34CHL1    H6 3632   2.580   4.335   6.108  2.7785 -2.3277  1.4287
   34CHL1    C7 3633   2.586   4.241   5.901 -0.2491  0.2060  0.4005
   34CHL1   H7A 3634   2.585   4.344   5.860  1.7881  0.4973  0.9680
   34CHL1   H7B 3635   2.688   4.198   5.885 -0.5923 -0.6784  0.5415
   34CHL1    C8 3636   2.498   4.142   5.818  0.1579  0.8327  0.2402
   34CHL1    H8 3637   2.401   4.196   5.818 -0.7056 -0.5560  2.5106
   34CHL1   C14 3638   2.556   4.125   5.681 -0.0011 -0.4144  0.6780
   34CHL1   H14 3639   2.655   4.075   5.681 -0.0389 -0.4880 -0.0088
   34CHL1   C15 3640   2.575   4.255   5.604 -0.8127 -0.8809  0.1949
   34CHL1  H15A 3641   2.491   4.326   5.619 -0.9950 -1.2080  0.7271
   34CHL1  H15B 3642   2.671   4.304   5.631 -1.1672  0.1603 -0.3851
   34CHL1   C16 3643   2.585   4.208   5.456 -0.1501  0.1422  0.4728
   34CHL1  H16A 3644   2.517   4.279   5.404  0.5377  0.0148 -0.6338
   34CHL1  H16B 3645   2.686   4.225   5.412 -0.8135  3.5916 -0.0211
   34CHL1   C17 3646   2.547   4.052   5.464 -0.4343 -0.2489 -0.0589
   34CHL1   H17 3647   2.641   3.992   5.467 -0.6973 -0.6360  1.8194
   34CHL1   C13 3648   2.473   4.033   5.601 -0.1179  0.3190  0.4858
   34CHL1   C18 3649   2.326   4.076   5.584 -0.1389 -0.6265 -0.2572
   34CHL1  H18A 3650   2.324   4.176   5.534  0.9160  0.5049  1.8129
   34CHL1  H18B 3651   2.276   4.008   5.512 -1.2092 -2.0904  1.7582
   34CHL1  H18C 3652   2.269   4.084   5.679 -0.8626  0.6335 -0.7734
   34CHL1   C12 3653   2.473   3.892   5.662 -0.2786  0.5382 -0.0442
   34CHL1  H12A 3654   2.425   3.812   5.603 -2.1735  1.0612  0.7118
   34CHL1  H12B 3655   2.581   3.865   5.664  0.0058  1.4645 -1.4939
   34CHL1   C11 3656   2.423   3.899   5.804  0.4982 -0.1624 -0.5237
   34CHL1  H11A 3657   2.316   3.926   5.793  0.1204  0.0678  2.7319
   34CHL1  H11B 3658   2.433   3.799   5.852 -1.6489 -1.0144 -1.7374
   34CHL1    C9 3659   2.485   4.011   5.896  0.5054 -0.3134  0.2907
   34CHL1    H9 3660   2.590   3.975   5.900  0.6183 -0.6048 -2.7505
   34CHL1   C10 3661   2.431   4.031   6.044  0.3915  0.7081  0.4554
   34CHL1   C19 3662   2.275   4.030   6.019  0.0012  0.0552  0.2496
   34CHL1  H19A 3663   2.252   4.114   5.950 -1.8210 -1.9480 -1.7037
   34CHL1  H19B 3664   2.241   3.936   5.971  3.3599 -0.4404 -1.4474
   34CHL1  H19C 3665   2.216   4.044   6.113  0.1526  2.0291  0.0992
   34CHL1    C1 3666   2.464   3.906   6.138 -0.2797 -0.3414 -0.0630
   34CHL1   H1A 3667   2.408   3.817   6.101  1.1717 -1.0081 -0.7611
   34CHL1   H1B 3668   2.572   3.883   6.125  0.0172  1.6078 -1.4680
   34CHL1    C2 3669   2.418   3.923   6.280  0.2212  0.1779 -0.3034
   34CHL1   H2A 3670   2.453   3.833   6.335  0.2343 -0.8765 -1.9712
   34CHL1   H2B 3671   2.308   3.935   6.282  0.4294  2.4678  0.8643
   34CHL1   C20 3672   2.476   4.010   5.331  0.6721 -0.9858 -0.0525
   34CHL1   H20 3673   2.382   4.068   5.320  0.6695 -0.2371  3.0997
   34CHL1   C21 3674   2.442   3.857   5.337 -0.1429  0.9014 -0.2053
   34CHL1  H21A 3675   2.529   3.806   5.382 -1.0550 -0.2503  0.2949
   34CHL1  H21B 3676   2.429   3.816   5.234 -0.8217  1.1702 -0.2283
   34CHL1  H21C 3677   2.356   3.830   5.401  0.3845  1.4401  0.7457
   34CHL1   C22 3678   2.559   4.037   5.209 -0.8021 -0.6188 -0.4601
   34CHL1  H22A 3679   2.582   4.145   5.195  0.7156 -1.1260 -2.2623
   34CHL1  H22B 3680   2.655   3.981   5.216 -1.2421 -1.3552 -0.2811
   34CHL1   C23 3681   2.486   4.003   5.079  0.2531 -0.1580 -0.6110
   34CHL1  H23A 3682   2.528   3.915   5.027  1.5006  0.2822 -0.3815
   34CHL1  H23B 3683   2.381   3.982   5.107  0.2960 -0.0344 -0.3584
   34CHL1   C24 3684   2.461   4.115   4.982  0.1552 -0.1217  0.0578
   34CHL1  H24A 3685   2.426   4.202   5.040  1.1927  0.5235 -0.2638
   34CHL1  H24B 3686   2.554   4.159   4.940  0.6046 -0.8977  0.2086
   34CHL1   C25 3687   2.364   4.071   4.873  0.3031  0.3544 -0.0005
   34CHL1   H25 3688   2.271   4.039   4.925 -0.2790 -1.5654 -2.0521
   34CHL1   C26 3689   2.323   4.190   4.796 -0.5716 -0.0985  0.4165
   34CHL1  H26A 3690   2.328   4.282   4.858 -0.9426  1.8268 -2.2692
   34CHL1  H26B 3691   2.383   4.210   4.705 -0.5113 -0.3515  0.3993
   34CHL1  H26C 3692   2.220   4.180   4.755  0.6372 -2.0893 -2.4170
   34CHL1   C27 3693   2.416   3.963   4.773 -0.0471  0.5504  0.4320
   34CHL1  H27A 3694   2.467   3.878   4.824  2.1883  0.0977 -2.3291
   34CHL1  H27B 3695   2.336   3.928   4.704  0.8776 -0.4037 -0.1878
   34CHL1  H27C 3696   2.491   4.010   4.707 -0.4150 -0.2078 -0.5554
   35CHL1    C3 3697   4.956   5.424   6.144  0.4022  0.1906  0.2154
   35CHL1    H3 3698   4.933   5.318   6.120 -1.4545  0.3557  1.1118
   35CHL1    O3 3699   4.950   5.459   6.274  0.0774 -0.4617 -0.6564
   35CHL1   H3' 3700   4.963   5.554   6.282 -2.1172 -0.2518  2.0929
   35CHL1    C4 3701   5.105   5.452   6.106  0.0753 -0.1295  0.1490
   35CHL1   H4A 3702   5.138   5.548   6.151 -2.0504  0.9590 -0.4471
   35CHL1   H4B 3703   5.160   5.372   6.158 -1.0352 -0.9127  0.1583
   35CHL1    C5 3704   5.120   5.458   5.955  0.1715 -0.3483 -0.2580
   35CHL1    C6 3705   5.209   5.378   5.893  0.2272  0.0450 -0.1712
   35CHL1    H6 3706   5.266   5.301   5.947  0.7563 -0.5578 -1.5449
   35CHL1    C7 3707   5.234   5.385   5.742 -0.3195  0.1021 -0.4083
   35CHL1   H7A 3708   5.345   5.381   5.736 -0.1909 -4.6782  0.5928
   35CHL1   H7B 3709   5.183   5.296   5.699 -1.0205 -0.1580  0.8803
   35CHL1    C8 3710   5.172   5.506   5.676  0.5827 -0.0399  0.0393
   35CHL1    H8 3711   5.226   5.601   5.695  1.3971 -0.5186  0.1852
   35CHL1   C14 3712   5.173   5.491   5.523  0.2418  0.4578 -0.0008
   35CHL1   H14 3713   5.114   5.397   5.514  1.5160 -0.4112  0.4560
   35CHL1   C15 3714   5.300   5.461   5.453 -0.1146 -0.3469 -0.1950
   35CHL1  H15A 3715   5.365   5.546   5.481 -1.4319  0.1616  1.4761
   35CHL1  H15B 3716   5.341   5.362   5.483  1.0446 -0.1109 -0.9760
   35CHL1   C16 3717   5.261   5.462   5.303 -0.1625 -0.3261  0.2660
   35CHL1  H16A 3718   5.346   5.519   5.261 -1.2401  0.5967 -0.6895
   35CHL1  H16B 3719   5.268   5.367   5.246  0.7410 -0.4843  0.6122
   35CHL1   C17 3720   5.124   5.534   5.291  0.0441  0.7045 -0.8003
   35CHL1   H17 3721   5.048   5.456   5.267 -0.4289  0.5480  1.0314
   35CHL1   C13 3722   5.094   5.595   5.434  0.0377  0.5840 -0.5428
   35CHL1   C18 3723   5.160   5.731   5.437 -0.3591  0.1218  0.1520
   35CHL1  H18A 3724   5.172   5.765   5.542 -0.3692  2.6406 -0.6138
   35CHL1  H18B 3725   5.258   5.737   5.385  0.0251  1.3614  0.9939
   35CHL1  H18C 3726   5.089   5.808   5.401 -3.4054 -2.1193  0.8802
   35CHL1   C12 3727   4.948   5.598   5.483 -0.7363 -0.2878 -0.8815
   35CHL1  H12A 3728   4.894   5.682   5.433  2.5571  2.2020 -0.6119
   35CHL1  H12B 3729   4.888   5.506   5.467 -0.0532 -0.8810 -0.1242
   35CHL1   C11 3730   4.945   5.631   5.634  0.1174 -0.2010 -0.6720
   35CHL1  H11A 3731   4.988   5.732   5.649  1.0181 -0.3825 -1.8924
   35CHL1  H11B 3732   4.845   5.616   5.679 -0.2573 -0.3826 -1.5424
   35CHL1    C9 3733   5.027   5.523   5.721  0.0201 -0.6306  0.5220
   35CHL1    H9 3734   4.979   5.424   5.706  2.0225 -2.1331  3.0881
   35CHL1   C10 3735   5.020   5.547   5.877 -1.5523  0.2456  0.4487
   35CHL1   C19 3736   5.061   5.696   5.901 -0.5735 -0.0380  1.1370
   35CHL1  H19A 3737   5.083   5.722   6.007 -0.3935  3.6544  0.3237
   35CHL1  H19B 3738   5.148   5.720   5.837 -0.1749 -1.0150  1.2959
   35CHL1  H19C 3739   4.972   5.757   5.871  0.7249  0.8350 -1.2040
   35CHL1    C1 3740   4.880   5.524   5.922 -0.0627 -0.1598 -0.3092
   35CHL1   H1A 3741   4.817   5.608   5.886 -0.4901  0.1055  0.9981
   35CHL1   H1B 3742   4.836   5.430   5.883 -2.7913  0.2932  1.3554
   35CHL1    C2 3743   4.868   5.524   6.072 -0.2651  0.4703 -0.0469
   35CHL1   H2A 3744   4.760   5.508   6.091  0.2831 -3.0658  0.8503
   35CHL1   H2B 3745   4.894   5.624   6.114 -0.3365  0.6967 -0.5374
   35CHL1   C20 3746   5.104   5.629   5.168 -1.2777 -0.6625  0.1822
   35CHL1   H20 3747   5.180   5.709   5.178 -1.2180 -0.7132  0.1326
   35CHL1   C21 3748   4.963   5.698   5.168 -0.5564 -0.6075  0.7084
   35CHL1  H21A 3749   4.889   5.615   5.170  0.3093 -1.7041 -3.1942
   35CHL1  H21B 3750   4.959   5.763   5.078  1.2555 -1.6640 -0.1825
   35CHL1  H21C 3751   4.961   5.775   5.248  0.0632 -0.0236  0.1771
   35CHL1   C22 3752   5.118   5.551   5.043 -0.1349  0.3960  0.5199
   35CHL1  H22A 3753   5.201   5.478   5.059 -0.9449 -1.7999 -3.6849
   35CHL1  H22B 3754   5.028   5.487   5.035 -0.0769  0.4290 -0.6705
   35CHL1   C23 3755   5.135   5.620   4.906 -0.6968 -0.7313  0.6912
   35CHL1  H23A 3756   5.041   5.677   4.889  0.4066  0.9212 -0.1595
   35CHL1  H23B 3757   5.215   5.696   4.906 -0.3810 -1.0617  0.5743
   35CHL1   C24 3758   5.153   5.524   4.792 -0.7237 -0.0946  0.0906
   35CHL1  H24A 3759   5.072   5.449   4.780 -0.8930  0.4399 -2.7834
   35CHL1  H24B 3760   5.156   5.578   4.695  1.8039 -1.5563 -0.7461
   35CHL1   C25 3761   5.282   5.434   4.793 -1.1952 -0.0091 -0.0916
   35CHL1   H25 3762   5.273   5.379   4.889 -0.4087  0.0417  0.0195
   35CHL1   C26 3763   5.271   5.341   4.673 -0.0868 -0.3769  0.0299
   35CHL1  H26A 3764   5.343   5.257   4.675 -1.1130 -1.3906 -2.2989
   35CHL1  H26B 3765   5.169   5.298   4.668  0.9093 -3.0860  1.0067
   35CHL1  H26C 3766   5.289   5.404   4.584 -1.5355 -0.0943 -0.0819
   35CHL1   C27 3767   5.415   5.512   4.784  0.3121 -0.0387 -0.7358
   35CHL1  H27A 3768   5.500   5.445   4.808 -0.7723 -0.7368  1.3707
   35CHL1  H27B 3769   5.431   5.554   4.682 -0.9083  2.0545 -0.1344
   35CHL1  H27C 3770   5.419   5.590   4.864 -0.0655 -0.4049 -0.3579
   36CHL1    C3 3771   0.855   4.792   6.488  0.1705 -0.5101  0.0842
   36CHL1    H3 3772   0.771   4.863   6.471  0.7026  0.7349  2.2336
   36CHL1    O3 3773   0.858   4.769   6.626  0.4466 -0.0923 -0.0718
   36CHL1   H3' 3774   0.933   4.813   6.669  0.5109 -0.3557  0.0880
   36CHL1    C4 3775   0.836   4.655   6.419  0.4971 -0.4102 -0.8763
   36CHL1   H4A 3776   0.915   4.580   6.442  0.6758  0.2317  0.7443
   36CHL1   H4B 3777   0.733   4.628   6.451  0.8462 -0.3850  0.2855
   36CHL1    C5 3778   0.837   4.670   6.270 -0.3334  0.0561 -0.0342
   36CHL1    C6 3779   0.739   4.633   6.188  0.5287  0.2483  0.1537
   36CHL1    H6 3780   0.650   4.577   6.219 -0.2023  0.0010 -2.1903
   36CHL1    C7 3781   0.740   4.657   6.039 -0.2463  0.0171 -0.2215
   36CHL1   H7A 3782   0.696   4.565   5.996  0.0132 -0.5885  0.7832
   36CHL1   H7B 3783   0.669   4.738   6.010 -0.7890 -0.1210  0.6998
   36CHL1    C8 3784   0.879   4.692   5.980 -0.2094 -0.1557 -0.2678
   36CHL1    H8 3785   0.940   4.599   5.974  3.8378  2.1824  0.2948
   36CHL1   C14 3786   0.873   4.762   5.846  0.4466 -0.2999 -0.0616
   36CHL1   H14 3787   0.830   4.861   5.874 -0.6892 -1.1670  1.4556
   36CHL1   C15 3788   0.771   4.712   5.738 -0.2236 -0.9033 -0.2231
   36CHL1  H15A 3789   0.806   4.610   5.711  4.6835  0.4053  0.1026
   36CHL1  H15B 3790   0.667   4.716   5.775  0.2577  1.0611  1.0756
   36CHL1   C16 3791   0.805   4.802   5.630  0.6017  0.0455  0.6833
   36CHL1  H16A 3792   0.808   4.744   5.535 -5.4329  2.4852 -1.5259
   36CHL1  H16B 3793   0.724   4.877   5.614 -0.1851 -1.1731 -1.4188
   36CHL1   C17 3794   0.939   4.874   5.648 -0.0130  0.1033  0.2385
   36CHL1   H17 3795   0.933   4.979   5.684  1.1855  0.3760 -0.2862
   36CHL1   C13 3796   1.001   4.810   5.771 -0.8307  0.3029 -0.3744
   36CHL1   C18 3797   1.083   4.679   5.737  0.2060 -0.4001  0.3298
   36CHL1  H18A 3798   1.091   4.605   5.820  2.0020 -2.1575 -1.2962
   36CHL1  H18B 3799   1.027   4.621   5.661 -1.3376  2.5766 -0.9618
   36CHL1  H18C 3800   1.180   4.700   5.687 -0.0442 -1.8475 -0.8283
   36CHL1   C12 3801   1.078   4.897   5.873 -0.1216  0.3832  0.5661
   36CHL1  H12A 3802   1.177   4.922   5.829 -1.1514 -0.4825 -2.4790
   36CHL1  H12B 3803   1.012   4.986   5.881 -1.9895 -0.8523 -0.4531
   36CHL1   C11 3804   1.100   4.829   6.011  0.5116 -0.1789  0.1667
   36CHL1  H11A 3805   1.155   4.734   5.995 -1.1818 -0.7637 -2.8791
   36CHL1  H11B 3806   1.153   4.904   6.075  0.0979  0.3949 -0.1594
   36CHL1    C9 3807   0.963   4.785   6.070 -0.5937  0.2592 -1.9444
   36CHL1    H9 3808   0.916   4.886   6.070  0.0423  0.6979  1.7499
   36CHL1   C10 3809   0.967   4.749   6.221  0.2485 -0.4153 -0.4016
   36CHL1   C19 3810   1.092   4.643   6.250  0.0507  0.4395 -0.3229
   36CHL1  H19A 3811   1.073   4.553   6.187  1.2930 -0.1162  0.0704
   36CHL1  H19B 3812   1.187   4.697   6.230  0.0956  1.0922  1.4710
   36CHL1  H19C 3813   1.094   4.609   6.355  0.4090 -1.4310 -0.8973
   36CHL1    C1 3814   0.987   4.879   6.308  0.2982 -0.5302  0.2099
   36CHL1   H1A 3815   1.087   4.924   6.295  0.0918  0.8454  2.7687
   36CHL1   H1B 3816   0.909   4.949   6.272 -0.4723 -1.9811 -1.0964
   36CHL1    C2 3817   0.984   4.863   6.454 -0.1873  0.2889 -0.1612
   36CHL1   H2A 3818   0.987   4.963   6.501  0.9246 -0.2812  1.0291
   36CHL1   H2B 3819   1.070   4.809   6.499  0.3055  1.3550  0.2146
   36CHL1   C20 3820   1.025   4.879   5.520  0.5879  0.1288 -0.3761
   36CHL1   H20 3821   1.041   4.773   5.493 -1.4182  0.2018 -2.0204
   36CHL1   C21 3822   1.149   4.964   5.560  0.1640 -0.4718  0.1034
   36CHL1  H21A 3823   1.122   5.052   5.622  0.2460  1.5301 -2.5072
   36CHL1  H21B 3824   1.198   5.013   5.473  0.5171 -0.9024  0.0567
   36CHL1  H21C 3825   1.227   4.908   5.615  2.4953 -0.5810 -3.0100
   36CHL1   C22 3826   0.957   4.928   5.395  0.1202  0.2026 -0.4027
   36CHL1  H22A 3827   1.034   4.917   5.316 -1.0819  0.2163 -1.6114
   36CHL1  H22B 3828   0.881   4.855   5.362 -0.0142 -0.8256  1.9627
   36CHL1   C23 3829   0.893   5.063   5.407 -0.0043 -0.2549  0.4273
   36CHL1  H23A 3830   0.814   5.073   5.485 -0.3899  1.0828 -0.0965
   36CHL1  H23B 3831   0.978   5.134   5.422  0.2614 -0.1087 -1.5195
   36CHL1   C24 3832   0.825   5.116   5.278  0.6340  0.6859  0.5202
   36CHL1  H24A 3833   0.735   5.053   5.261  1.7131 -0.2386 -2.2237
   36CHL1  H24B 3834   0.800   5.219   5.311  0.7609  0.5086  1.1926
   36CHL1   C25 3835   0.904   5.124   5.143 -0.1505  0.4583 -0.2183
   36CHL1   H25 3836   0.999   5.171   5.174  0.2394  0.1801 -0.9745
   36CHL1   C26 3837   0.913   4.995   5.063  0.5284 -0.0238 -0.7194
   36CHL1  H26A 3838   0.812   4.975   5.019  0.2329  1.6117 -0.8302
   36CHL1  H26B 3839   0.983   4.995   4.977  0.7442 -0.9192 -0.5519
   36CHL1  H26C 3840   0.937   4.911   5.131 -1.1887  0.5954  0.7514
   36CHL1   C27 3841   0.823   5.230   5.067 -0.1020 -0.1108  0.2534
   36CHL1  H27A 3842   0.723   5.201   5.027 -0.8947  1.9719  0.5768
   36CHL1  H27B 3843   0.809   5.330   5.114  0.1609 -0.6895  1.5934
   36CHL1  H27C 3844   0.889   5.259   4.982 -0.3915  2.1695  0.7420
   37CHL1    C3 3845   0.175   2.240   5.912 -0.3539 -0.0389  0.3123
   37CHL1    H3 3846   0.222   2.139   5.915  0.5065  0.3697  1.0954
   37CHL1    O3 3847   0.184   2.280   6.051  0.7541 -0.0088  0.8362
   37CHL1   H3' 3848   0.106   2.334   6.069  1.7467  0.9404  2.6126
   37CHL1    C4 3849   0.255   2.345   5.826  0.2740  0.1579  0.5537
   37CHL1   H4A 3850   0.217   2.449   5.840  0.7847  0.7290 -1.8650
   37CHL1   H4B 3851   0.358   2.355   5.867  0.0696 -0.6219  1.2763
   37CHL1    C5 3852   0.249   2.295   5.684  0.6156 -0.5273  0.8201
   37CHL1    C6 3853   0.363   2.269   5.615 -0.3187  0.5928  0.5408
   37CHL1    H6 3854   0.462   2.288   5.658  0.7254 -0.8196 -1.1357
   37CHL1    C7 3855   0.366   2.225   5.471 -0.7328 -0.0640  0.0573
   37CHL1   H7A 3856   0.453   2.269   5.416 -0.8288 -0.5947 -0.5298
   37CHL1   H7B 3857   0.370   2.115   5.479 -1.3737 -0.0227  1.0520
   37CHL1    C8 3858   0.238   2.261   5.394  0.1226  0.0967 -0.3144
   37CHL1    H8 3859   0.233   2.371   5.382  0.8558 -0.0081 -1.7394
   37CHL1   C14 3860   0.236   2.202   5.256 -0.9142 -0.0655  0.7434
   37CHL1   H14 3861   0.230   2.093   5.276 -0.8244 -0.6433 -1.9360
   37CHL1   C15 3862   0.362   2.224   5.167 -0.3415 -0.3993  0.0928
   37CHL1  H15A 3863   0.398   2.329   5.174 -0.8219 -0.2944  1.2499
   37CHL1  H15B 3864   0.443   2.158   5.203  0.3610 -0.8182 -2.0932
   37CHL1   C16 3865   0.312   2.197   5.023  0.1020 -0.7073 -0.1457
   37CHL1  H16A 3866   0.335   2.285   4.960  1.7091 -0.2017  1.0768
   37CHL1  H16B 3867   0.358   2.107   4.975  0.5429  0.0260 -1.1405
   37CHL1   C17 3868   0.161   2.170   5.037 -0.2878  0.3761 -1.0608
   37CHL1   H17 3869   0.149   2.062   5.060  1.6053  0.7374  2.2779
   37CHL1   C13 3870   0.119   2.237   5.170  0.0373 -0.2611  0.4535
   37CHL1   C18 3871   0.100   2.382   5.143  1.0243 -0.0236  0.1040
   37CHL1  H18A 3872   0.007   2.400   5.084  1.5742  2.9255 -0.0026
   37CHL1  H18B 3873   0.067   2.437   5.234 -1.5171 -0.7874 -0.2744
   37CHL1  H18C 3874   0.184   2.433   5.091  0.7771  0.1854 -0.0962
   37CHL1   C12 3875  -0.009   2.185   5.247 -0.2617 -0.5142 -0.0456
   37CHL1  H12A 3876  -0.098   2.232   5.202  0.2751 -0.4081 -1.0158
   37CHL1  H12B 3877  -0.004   2.074   5.240 -0.3079 -0.4383 -1.5108
   37CHL1   C11 3878  -0.015   2.232   5.393  0.1720 -0.3402 -0.1838
   37CHL1  H11A 3879  -0.055   2.335   5.386  0.0880 -0.3028  0.7373
   37CHL1  H11B 3880  -0.102   2.173   5.428  0.9570 -1.6766 -0.4168
   37CHL1    C9 3881   0.113   2.210   5.473 -0.8395 -0.1001  0.4578
   37CHL1    H9 3882   0.138   2.102   5.481 -0.1768  0.1686  2.6251
   37CHL1   C10 3883   0.112   2.271   5.616  0.9218  0.1232 -0.3027
   37CHL1   C19 3884   0.055   2.410   5.607 -0.7923 -0.5344  0.0473
   37CHL1  H19A 3885   0.099   2.479   5.532 -0.7824 -0.0412  0.4995
   37CHL1  H19B 3886  -0.055   2.414   5.590 -0.7055  2.1596 -0.3999
   37CHL1  H19C 3887   0.056   2.464   5.704  2.3883 -0.4018  0.0192
   37CHL1    C1 3888   0.032   2.184   5.715 -0.3124  0.4296  0.4459
   37CHL1   H1A 3889  -0.076   2.192   5.691  0.1150  1.8098 -1.2312
   37CHL1   H1B 3890   0.069   2.080   5.702  0.6421  1.0391 -2.2974
   37CHL1    C2 3891   0.034   2.230   5.866 -0.1160 -0.0346  0.5471
   37CHL1   H2A 3892  -0.024   2.160   5.930  0.6815  0.4631  1.8596
   37CHL1   H2B 3893  -0.013   2.331   5.876 -0.9731 -0.5070  1.5769
   37CHL1   C20 3894   0.087   2.200   4.906  0.5552  0.2784  0.3929
   37CHL1   H20 3895   0.105   2.306   4.879 -0.0305  0.3393  0.2222
   37CHL1   C21 3896  -0.067   2.181   4.916 -0.4093 -0.6147  0.2450
   37CHL1  H21A 3897  -0.108   2.240   5.001  1.2981 -0.6971  1.1655
   37CHL1  H21B 3898  -0.078   2.074   4.944  3.5480 -1.0877  0.6571
   37CHL1  H21C 3899  -0.119   2.202   4.820  0.6675  1.0704 -0.0249
   37CHL1   C22 3900   0.142   2.117   4.791  0.6205  0.5073 -0.2598
   37CHL1  H22A 3901   0.252   2.105   4.784  0.6096  1.2716 -2.7401
   37CHL1  H22B 3902   0.109   2.011   4.801  0.7760  0.3162 -1.5081
   37CHL1   C23 3903   0.102   2.182   4.656 -0.0559 -0.3804 -0.2366
   37CHL1  H23A 3904  -0.007   2.199   4.644 -0.4190 -2.3647 -0.1753
   37CHL1  H23B 3905   0.150   2.282   4.656 -0.4700 -0.1289  2.2982
   37CHL1   C24 3906   0.158   2.095   4.541 -0.6454  0.5886  0.1383
   37CHL1  H24A 3907   0.154   1.989   4.571 -0.8059  0.6100  0.1936
   37CHL1  H24B 3908   0.084   2.114   4.459 -1.3952  1.0793  0.9139
   37CHL1   C25 3909   0.302   2.120   4.498 -0.3617 -0.4408  0.7928
   37CHL1   H25 3910   0.353   2.161   4.587 -1.0010  2.1690  0.0384
   37CHL1   C26 3911   0.379   1.984   4.455  0.2761 -0.7699  1.2343
   37CHL1  H26A 3912   0.486   2.010   4.443  0.0067  0.0574  0.4923
   37CHL1  H26B 3913   0.386   1.909   4.536  0.0427  0.3881  2.3716
   37CHL1  H26C 3914   0.356   1.942   4.355  1.3526  1.7180 -0.1595
   37CHL1   C27 3915   0.314   2.233   4.384 -0.1813 -0.0505  0.4221
   37CHL1  H27A 3916   0.257   2.324   4.415 -2.6050 -0.4965 -2.2676
   37CHL1  H27B 3917   0.422   2.248   4.360  0.3230 -1.2419  1.8363
   37CHL1  H27C 3918   0.255   2.205   4.294  1.2821  3.5277 -1.8800
   38CHL1    C3 3919   3.141   0.571   6.212 -0.2505  0.4652 -0.8911
   38CHL1    H3 3920   3.126   0.462   6.230 -0.1875  0.9892  3.3257
   38CHL1    O3 3921   3.133   0.643   6.337 -0.0526 -0.2777 -0.2970
   38CHL1   H3' 3922   3.040   0.667   6.345  0.3841  1.3089  0.2610
   38CHL1    C4 3923   3.287   0.576   6.170 -0.0348  0.0291  0.6494
   38CHL1   H4A 3924   3.310   0.684   6.157  1.5469 -0.3986 -0.3343
   38CHL1   H4B 3925   3.350   0.536   6.252  1.0831  1.1683  0.3771
   38CHL1    C5 3926   3.317   0.516   6.037  0.2655 -0.2777 -0.1591
   38CHL1    C6 3927   3.410   0.420   6.017  0.1542  0.3643 -0.2762
   38CHL1    H6 3928   3.478   0.395   6.100 -1.4457 -0.6948  0.7828
   38CHL1    C7 3929   3.432   0.355   5.887 -0.2694  0.7731 -0.4592
   38CHL1   H7A 3930   3.542   0.338   5.893 -0.5159 -0.5302  1.4126
   38CHL1   H7B 3931   3.392   0.252   5.898  1.7588  0.0236  0.5927
   38CHL1    C8 3932   3.369   0.430   5.767  1.5015 -0.3563 -0.4586
   38CHL1    H8 3933   3.425   0.522   5.742 -0.2754  1.0537  0.4958
   38CHL1   C14 3934   3.377   0.343   5.640  0.8164 -0.0292  0.0803
   38CHL1   H14 3935   3.306   0.259   5.657 -0.6049  0.6273 -2.2473
   38CHL1   C15 3936   3.506   0.276   5.611  0.4598  0.2342  0.1313
   38CHL1  H15A 3937   3.590   0.347   5.623  0.2658  0.6880 -1.0704
   38CHL1  H15B 3938   3.527   0.190   5.679  2.2198  0.2431 -0.3446
   38CHL1   C16 3939   3.488   0.234   5.467 -0.0201  0.2890 -0.4165
   38CHL1  H16A 3940   3.569   0.278   5.406  1.8788 -1.5664  0.6137
   38CHL1  H16B 3941   3.486   0.125   5.449 -1.7754 -0.0660  1.4445
   38CHL1   C17 3942   3.348   0.285   5.417 -0.4928 -0.0180 -0.1621
   38CHL1   H17 3943   3.276   0.203   5.437 -0.5952  0.1698  0.2477
   38CHL1   C13 3944   3.313   0.403   5.516 -0.5127  0.3226  0.3163
   38CHL1   C18 3945   3.395   0.530   5.468 -0.7126 -0.0821 -0.0954
   38CHL1  H18A 3946   3.357   0.557   5.367  2.2203 -0.7787 -1.4717
   38CHL1  H18B 3947   3.369   0.612   5.539  0.2846 -1.1411  1.5639
   38CHL1  H18C 3948   3.504   0.511   5.464 -0.9118 -1.1311 -0.9158
   38CHL1   C12 3949   3.163   0.428   5.542 -0.2953 -0.0608 -0.1094
   38CHL1  H12A 3950   3.114   0.498   5.472  1.1476  1.7171  0.5811
   38CHL1  H12B 3951   3.113   0.329   5.547 -2.3054  0.8885 -0.3049
   38CHL1   C11 3952   3.145   0.500   5.677 -0.0805 -0.0576  0.3432
   38CHL1  H11A 3953   3.153   0.610   5.659  0.4399 -0.3232 -1.1552
   38CHL1  H11B 3954   3.039   0.486   5.706 -0.2689  0.4480 -0.0946
   38CHL1    C9 3955   3.231   0.466   5.802  0.0466  0.2825  0.5724
   38CHL1    H9 3956   3.185   0.369   5.826  1.7702 -1.2735 -1.9139
   38CHL1   C10 3957   3.214   0.556   5.927  0.1293 -0.2170 -0.1594
   38CHL1   C19 3958   3.250   0.700   5.882 -1.2906  0.2718 -0.0152
   38CHL1  H19A 3959   3.357   0.707   5.851 -0.5601  2.4476  2.6546
   38CHL1  H19B 3960   3.194   0.745   5.797 -0.9184 -0.8053 -0.8558
   38CHL1  H19C 3961   3.237   0.756   5.977 -2.3235 -1.0243  0.6354
   38CHL1    C1 3962   3.068   0.552   5.972  0.1700  0.2110  0.5794
   38CHL1   H1A 3963   3.001   0.593   5.893  0.2804 -2.4966 -1.0334
   38CHL1   H1B 3964   3.043   0.448   5.999  2.4402 -0.5555  0.0130
   38CHL1    C2 3965   3.049   0.628   6.106  0.1604 -0.4575  0.4450
   38CHL1   H2A 3966   2.944   0.625   6.144  0.0929  1.7518  0.5726
   38CHL1   H2B 3967   3.081   0.734   6.096  1.0666 -0.7051  0.6221
   38CHL1   C20 3968   3.339   0.292   5.260  0.3177  0.1488 -0.3553
   38CHL1   H20 3969   3.406   0.372   5.222 -0.4536  1.4889  0.9954
   38CHL1   C21 3970   3.196   0.335   5.219 -0.0625  0.3119  0.3344
   38CHL1  H21A 3971   3.194   0.444   5.240  0.8184  0.0184  2.1085
   38CHL1  H21B 3972   3.112   0.285   5.273 -0.5321  0.2468 -0.4390
   38CHL1  H21C 3973   3.170   0.327   5.111 -1.2845  1.8430  0.4637
   38CHL1   C22 3974   3.377   0.155   5.198  0.6673  0.5524 -0.9483
   38CHL1  H22A 3975   3.484   0.130   5.217  0.9413  0.3967 -2.5149
   38CHL1  H22B 3976   3.311   0.078   5.243  0.4938  1.1500 -0.1701
   38CHL1   C23 3977   3.354   0.146   5.042  0.1262 -0.3410 -0.3658
   38CHL1  H23A 3978   3.247   0.126   5.021 -0.7541  1.0199  2.3785
   38CHL1  H23B 3979   3.390   0.241   4.999  1.0936 -1.3507 -1.8881
   38CHL1   C24 3980   3.430   0.024   4.990  0.3690 -0.3832 -0.2525
   38CHL1  H24A 3981   3.537   0.019   5.017  0.1992 -0.4236  0.4166
   38CHL1  H24B 3982   3.387  -0.074   5.018  0.3667 -1.0099 -2.2735
   38CHL1   C25 3983   3.429   0.007   4.839  0.4440 -0.2117  0.1332
   38CHL1   H25 3984   3.473   0.104   4.808 -0.1623  0.4442  1.2689
   38CHL1   C26 3985   3.513  -0.116   4.806 -0.3922  0.1414  0.0820
   38CHL1  H26A 3986   3.517  -0.137   4.697 -1.1601 -1.8473  0.3917
   38CHL1  H26B 3987   3.615  -0.103   4.848 -1.1063 -0.5500  2.2213
   38CHL1  H26C 3988   3.459  -0.208   4.840 -0.0662 -0.6845 -1.5678
   38CHL1   C27 3989   3.293  -0.021   4.778 -0.6876  0.1951  0.3211
   38CHL1  H27A 3990   3.291  -0.023   4.667  0.1220  0.2014  0.3033
   38CHL1  H27B 3991   3.266  -0.125   4.808  1.8869 -0.9215 -0.9994
   38CHL1  H27C 3992   3.219   0.057   4.807 -1.8030 -1.0824  1.0768
   39CHL1    C3 3993   3.357   2.191   6.261  0.2069  0.4423 -0.5702
   39CHL1    H3 3994   3.319   2.092   6.228  2.2278 -0.6056  0.1306
   39CHL1    O3 3995   3.355   2.199   6.402 -0.1649  0.4353 -0.1882
   39CHL1   H3' 3996   3.411   2.273   6.424 -0.6203  0.4239  1.0736
   39CHL1    C4 3997   3.499   2.202   6.207 -0.7470 -0.0994  0.1395
   39CHL1   H4A 3998   3.549   2.291   6.251  1.3484 -1.3455  0.4355
   39CHL1   H4B 3999   3.558   2.117   6.247 -0.6008 -1.2064 -2.2642
   39CHL1    C5 4000   3.507   2.198   6.055 -0.0816 -0.1431 -0.1463
   39CHL1    C6 4001   3.589   2.123   5.982 -0.6655 -0.0093 -0.1161
   39CHL1    H6 4002   3.643   2.039   6.028 -0.2758 -0.2552 -1.0039
   39CHL1    C7 4003   3.600   2.121   5.834 -0.6175  0.4403 -0.4075
   39CHL1   H7A 4004   3.708   2.118   5.808 -0.9016  0.8459 -1.6833
   39CHL1   H7B 4005   3.557   2.027   5.794 -0.5059 -0.0667  0.6289
   39CHL1    C8 4006   3.523   2.237   5.767 -0.4981 -0.0037  0.3111
   39CHL1    H8 4007   3.583   2.331   5.756 -3.3500  1.7574 -1.5743
   39CHL1   C14 4008   3.493   2.184   5.627  0.7079 -0.1013  0.3472
   39CHL1   H14 4009   3.429   2.094   5.634 -1.2021  1.1013 -0.7906
   39CHL1   C15 4010   3.605   2.131   5.534  0.2748  0.2957  0.4694
   39CHL1  H15A 4011   3.712   2.161   5.545  0.5183 -0.0914 -0.7773
   39CHL1  H15B 4012   3.614   2.021   5.545 -2.8460 -0.1412 -0.4050
   39CHL1   C16 4013   3.550   2.157   5.395 -0.2009 -0.3033  0.0364
   39CHL1  H16A 4014   3.614   2.238   5.354 -0.5443  0.2946  0.6506
   39CHL1  H16B 4015   3.551   2.073   5.322 -1.7947 -0.2771 -0.0672
   39CHL1   C17 4016   3.410   2.209   5.410 -0.2340  0.3613  0.3321
   39CHL1   H17 4017   3.350   2.116   5.416  2.0059 -1.2965 -1.3277
   39CHL1   C13 4018   3.403   2.290   5.542 -0.1638  0.2685  0.2317
   39CHL1   C18 4019   3.477   2.430   5.532 -0.2511  0.5101  0.1037
   39CHL1  H18A 4020   3.427   2.486   5.450 -2.5338 -1.2120  0.2280
   39CHL1  H18B 4021   3.469   2.493   5.624 -0.0363  1.2665 -0.3806
   39CHL1  H18C 4022   3.584   2.417   5.506  0.2204 -2.1786  2.8423
   39CHL1   C12 4023   3.272   2.309   5.614  0.2880  0.5036  0.0012
   39CHL1  H12A 4024   3.206   2.375   5.554  0.5990  0.3832 -0.4773
   39CHL1  H12B 4025   3.213   2.216   5.620  0.7537  0.1791 -0.3749
   39CHL1   C11 4026   3.288   2.361   5.757  0.0817  0.0651  0.4318
   39CHL1  H11A 4027   3.291   2.472   5.753 -0.9031  0.0712 -2.2285
   39CHL1  H11B 4028   3.188   2.344   5.803 -0.8580 -1.0134 -1.8574
   39CHL1    C9 4029   3.397   2.273   5.836  0.9254 -0.7687 -0.7333
   39CHL1    H9 4030   3.345   2.174   5.829 -0.6879  0.1386 -2.7395
   39CHL1   C10 4031   3.413   2.309   5.989  0.5284  0.8010  0.2178
   39CHL1   C19 4032   3.476   2.447   5.988  0.2333  0.3938  0.1407
   39CHL1  H19A 4033   3.553   2.465   5.910 -0.0089 -2.1107 -0.7440
   39CHL1  H19B 4034   3.397   2.523   5.970  2.2778  2.8769  1.0465
   39CHL1  H19C 4035   3.524   2.462   6.087  1.5550  0.3532 -0.4601
   39CHL1    C1 4036   3.281   2.304   6.050  0.1351 -0.1261 -0.1064
   39CHL1   H1A 4037   3.222   2.394   6.025 -0.9773 -1.0117 -0.7201
   39CHL1   H1B 4038   3.213   2.225   6.012  0.0796  0.7151 -1.7985
   39CHL1    C2 4039   3.277   2.308   6.208 -0.0888  0.2020  0.8046
   39CHL1   H2A 4040   3.171   2.299   6.241 -1.2296  2.7141 -1.7747
   39CHL1   H2B 4041   3.316   2.404   6.248  1.0115  0.0659  0.1001
   39CHL1   C20 4042   3.367   2.281   5.284  0.3845  0.3109  0.0563
   39CHL1   H20 4043   3.395   2.388   5.295  1.3168  0.4927 -3.0983
   39CHL1   C21 4044   3.213   2.269   5.276 -0.6497 -0.3745 -0.1858
   39CHL1  H21A 4045   3.170   2.269   5.378 -3.3395  1.2722 -1.2115
   39CHL1  H21B 4046   3.180   2.180   5.219 -0.2355 -1.2426  0.9016
   39CHL1  H21C 4047   3.174   2.354   5.216 -0.3761 -1.3803 -1.8641
   39CHL1   C22 4048   3.437   2.236   5.152 -0.3788 -0.4387  0.5188
   39CHL1  H22A 4049   3.542   2.272   5.154 -0.6089  0.5930 -2.1718
   39CHL1  H22B 4050   3.431   2.127   5.132  2.0502 -0.3700 -0.9414
   39CHL1   C23 4051   3.385   2.301   5.019 -0.5776 -0.0567  0.9853
   39CHL1  H23A 4052   3.275   2.313   5.007 -0.3460  1.2159  0.0133
   39CHL1  H23B 4053   3.422   2.405   5.011 -0.7463 -0.1570 -2.1330
   39CHL1   C24 4054   3.444   2.230   4.901  0.4650  0.9200  1.1958
   39CHL1  H24A 4055   3.554   2.241   4.895  0.6574 -1.5691 -2.3910
   39CHL1  H24B 4056   3.439   2.122   4.925  3.6579 -0.0338 -1.7755
   39CHL1   C25 4057   3.373   2.262   4.772  0.2346  0.1607 -0.5225
   39CHL1   H25 4058   3.263   2.263   4.790  0.1689 -1.2564 -0.7481
   39CHL1   C26 4059   3.413   2.404   4.733 -0.3837 -0.2844  0.0260
   39CHL1  H26A 4060   3.368   2.438   4.637 -2.2722  1.4153  1.4138
   39CHL1  H26B 4061   3.391   2.475   4.816 -0.6384  0.1368 -0.3918
   39CHL1  H26C 4062   3.524   2.401   4.724 -0.4064 -4.5109 -0.4814
   39CHL1   C27 4063   3.400   2.154   4.659 -0.0434 -0.7947 -0.0911
   39CHL1  H27A 4064   3.368   2.052   4.691 -0.1412 -0.9236 -0.5993
   39CHL1  H27B 4065   3.341   2.184   4.570 -0.4699  0.6404  0.6530
   39CHL1  H27C 4066   3.505   2.170   4.625 -0.8133  1.2562 -1.7095
   40CHL1    C3 4067   3.189   4.754   6.417  0.3643  0.6722 -0.4014
   40CHL1    H3 4068   3.284   4.812   6.414 -0.5976  2.2913 -1.6096
   40CHL1    O3 4069   3.145   4.701   6.546  0.1304 -0.6389  0.6629
   40CHL1   H3' 4070   3.080   4.633   6.527 -1.0736  0.8438 -0.8208
   40CHL1    C4 4071   3.084   4.841   6.363  0.3783 -0.5591  0.2044
   40CHL1   H4A 4072   2.982   4.797   6.367 -1.2152  2.7568 -0.7631
   40CHL1   H4B 4073   3.075   4.927   6.433 -3.5966 -0.1324 -0.5904
   40CHL1    C5 4074   3.117   4.877   6.220 -0.8246 -0.3423  0.1486
   40CHL1    C6 4075   3.142   5.004   6.184  0.3336 -0.0782 -1.2134
   40CHL1    H6 4076   3.136   5.077   6.266  0.5558 -0.2058 -1.0799
   40CHL1    C7 4077   3.164   5.054   6.048 -0.3029  0.3842 -0.5356
   40CHL1   H7A 4078   3.103   5.142   6.021  1.6790  1.0996 -3.0934
   40CHL1   H7B 4079   3.274   5.070   6.045 -0.3042  0.7722  0.9265
   40CHL1    C8 4080   3.130   4.941   5.946  0.1845  0.4648 -0.7429
   40CHL1    H8 4081   3.021   4.927   5.957  0.2275  0.2452 -0.5706
   40CHL1   C14 4082   3.178   4.973   5.802  0.1362  0.0530  0.7694
   40CHL1   H14 4083   3.289   4.970   5.811  0.0039 -0.4277  2.6226
   40CHL1   C15 4084   3.143   5.110   5.751 -1.1801 -0.4711 -0.5554
   40CHL1  H15A 4085   3.034   5.112   5.773 -1.0564  0.4083  0.0238
   40CHL1  H15B 4086   3.183   5.200   5.802 -1.9447 -0.2976 -0.2435
   40CHL1   C16 4087   3.158   5.101   5.592  0.0425  0.0893  0.3373
   40CHL1  H16A 4088   3.071   5.150   5.545 -1.6797 -0.4093  2.8330
   40CHL1  H16B 4089   3.248   5.161   5.564  0.8182 -1.4249 -0.4964
   40CHL1   C17 4090   3.176   4.947   5.565  0.2092  0.5974 -0.9429
   40CHL1   H17 4091   3.285   4.926   5.558  0.8191  3.0003  0.1228
   40CHL1   C13 4092   3.124   4.879   5.694 -0.4959  1.2681 -0.6001
   40CHL1   C18 4093   2.972   4.853   5.688 -0.0497  0.3032 -0.0430
   40CHL1  H18A 4094   2.921   4.948   5.661  0.2393  1.2063  2.3797
   40CHL1  H18B 4095   2.945   4.774   5.614  1.0256  1.2432 -1.4905
   40CHL1  H18C 4096   2.942   4.832   5.792  0.8460 -1.9061 -0.1717
   40CHL1   C12 4097   3.196   4.743   5.722  0.4310 -0.1786 -0.4595
   40CHL1  H12A 4098   3.174   4.668   5.643  0.8792 -1.4402  0.5717
   40CHL1  H12B 4099   3.304   4.768   5.717 -0.4143  4.1707 -1.2620
   40CHL1   C11 4100   3.164   4.695   5.868  0.1889  0.0158  0.5253
   40CHL1  H11A 4101   3.063   4.651   5.859  0.7213 -1.1130 -0.1677
   40CHL1  H11B 4102   3.221   4.602   5.892 -0.2276  0.0465  1.6686
   40CHL1    C9 4103   3.181   4.803   5.982 -0.0663 -0.1682  0.8439
   40CHL1    H9 4104   3.292   4.811   5.978 -0.0771 -0.4379 -0.3043
   40CHL1   C10 4105   3.129   4.762   6.123  0.4843  0.5225  0.3581
   40CHL1   C19 4106   2.995   4.687   6.113  0.0853 -0.0181  0.3419
   40CHL1  H19A 4107   2.915   4.743   6.061 -1.1941 -0.0143  2.2340
   40CHL1  H19B 4108   3.012   4.586   6.070  1.7253  1.2024 -2.1493
   40CHL1  H19C 4109   2.955   4.670   6.215 -1.6342  0.1198 -0.2849
   40CHL1    C1 4110   3.233   4.663   6.182  0.1022  1.0497 -0.0571
   40CHL1   H1A 4111   3.238   4.572   6.118 -2.5306 -1.5682  3.0576
   40CHL1   H1B 4112   3.329   4.718   6.179 -0.4336  1.9635 -1.2167
   40CHL1    C2 4113   3.197   4.632   6.331  0.1263  0.2233 -0.3120
   40CHL1   H2A 4114   3.279   4.572   6.377  0.8246  1.3344 -0.0838
   40CHL1   H2B 4115   3.107   4.566   6.334  2.3580 -3.0154  0.1973
   40CHL1   C20 4116   3.118   4.899   5.425 -0.4420  1.1147  0.8258
   40CHL1   H20 4117   3.009   4.918   5.427 -0.1480  3.1677  0.0083
   40CHL1   C21 4118   3.161   4.755   5.394  0.0210  0.1755  0.3756
   40CHL1  H21A 4119   3.093   4.691   5.455  0.2976  1.3811  1.9737
   40CHL1  H21B 4120   3.265   4.749   5.430  0.1166 -1.2874 -0.0772
   40CHL1  H21C 4121   3.148   4.733   5.285  1.0207  3.3753 -0.4962
   40CHL1   C22 4122   3.176   4.994   5.314  0.0320  0.5319  0.0670
   40CHL1  H22A 4123   3.121   4.970   5.221  1.5286 -2.6656 -0.1244
   40CHL1  H22B 4124   3.153   5.101   5.334 -1.5210  0.1971  0.1951
   40CHL1   C23 4125   3.323   4.977   5.276  0.1942  0.2466 -0.1927
   40CHL1  H23A 4126   3.395   4.999   5.359  1.8185  1.6948 -1.8889
   40CHL1  H23B 4127   3.335   4.869   5.255 -0.1923  0.6629 -2.9226
   40CHL1   C24 4128   3.352   5.050   5.148  0.2236  0.4074  0.2145
   40CHL1  H24A 4129   3.274   5.009   5.081  1.8037 -1.7767 -0.4121
   40CHL1  H24B 4130   3.341   5.159   5.166  1.1551  0.1756  2.6438
   40CHL1   C25 4131   3.482   5.011   5.077  0.1546  0.0090 -0.2257
   40CHL1   H25 4132   3.484   4.903   5.052  1.0230  0.0794 -0.5170
   40CHL1   C26 4133   3.491   5.085   4.943 -0.5005  0.1817  0.4860
   40CHL1  H26A 4134   3.583   5.052   4.891 -0.0735  0.7329  0.8942
   40CHL1  H26B 4135   3.397   5.065   4.887 -0.6218  0.2509  0.6625
   40CHL1  H26C 4136   3.505   5.192   4.967  1.6159  0.2733 -0.9171
   40CHL1   C27 4137   3.600   5.055   5.162 -0.2993 -1.2814  0.2590
   40CHL1  H27A 4138   3.701   5.046   5.115 -0.9133 -2.2663 -0.9256
   40CHL1  H27B 4139   3.592   5.162   5.192 -3.1442 -1.2929 -0.1933
   40CHL1  H27C 4140   3.602   5.002   5.260  1.2120  0.3060  1.1627
   41CHL1    C3 4141   6.654   6.559   6.215 -0.1796 -0.6192 -0.6377
   41CHL1    H3 4142   6.548   6.580   6.189 -0.6803 -1.5165  0.5390
   41CHL1    O3 4143   6.665   6.513   6.349  0.0504 -0.2198  0.3464
   41CHL1   H3' 4144   6.758   6.514   6.372 -0.5510 -2.5136  3.6103
   41CHL1    C4 4145   6.706   6.443   6.125 -0.5363  0.1794  1.0655
   41CHL1   H4A 4146   6.803   6.416   6.171  0.5663  2.0721 -0.0561
   41CHL1   H4B 4147   6.634   6.359   6.138 -0.5390 -0.2068 -1.0419
   41CHL1    C5 4148   6.715   6.473   5.974  0.3137  0.3176 -0.1418
   41CHL1    C6 4149   6.662   6.387   5.881  0.2541  0.0400 -0.5797
   41CHL1    H6 4150   6.633   6.288   5.919  1.9634  0.0867  0.9894
   41CHL1    C7 4151   6.666   6.411   5.734 -0.2851 -0.2353  0.4232
   41CHL1   H7A 4152   6.682   6.309   5.693  3.5278  0.3655  0.1015
   41CHL1   H7B 4153   6.565   6.450   5.710 -0.6614 -1.2982  0.2327
   41CHL1    C8 4154   6.770   6.521   5.694  0.7709 -0.1235  0.3154
   41CHL1    H8 4155   6.874   6.480   5.700  1.0720  0.8046  3.2346
   41CHL1   C14 4156   6.738   6.571   5.548  0.5425 -0.0574  0.2152
   41CHL1   H14 4157   6.637   6.618   5.552  1.1344  1.4856 -1.5538
   41CHL1   C15 4158   6.728   6.460   5.441  0.3954 -0.2325  0.1969
   41CHL1  H15A 4159   6.809   6.385   5.455 -0.9249 -1.9075 -0.7781
   41CHL1  H15B 4160   6.626   6.416   5.439 -0.6564  2.0770  0.5429
   41CHL1   C16 4161   6.749   6.535   5.311  0.6549 -0.0975 -0.2756
   41CHL1  H16A 4162   6.843   6.504   5.259  0.7985  0.8060 -0.5739
   41CHL1  H16B 4163   6.661   6.525   5.244  0.3988 -0.0838  0.0574
   41CHL1   C17 4164   6.770   6.686   5.352  0.5958  0.0152  0.3926
   41CHL1   H17 4165   6.668   6.731   5.353 -0.4433 -2.1537 -0.7848
   41CHL1   C13 4166   6.832   6.679   5.495 -0.7288 -0.8954 -0.6331
   41CHL1   C18 4167   6.982   6.631   5.482  0.2148 -0.0528 -0.4715
   41CHL1  H18A 4168   7.035   6.719   5.439  0.4816  0.1148  0.1847
   41CHL1  H18B 4169   7.011   6.620   5.589 -0.0653  0.6693 -0.3120
   41CHL1  H18C 4170   6.990   6.541   5.419  0.7742 -0.3433  0.0044
   41CHL1   C12 4171   6.810   6.796   5.582  0.0559 -0.1095  0.3516
   41CHL1  H12A 4172   6.887   6.872   5.558 -1.2350  0.5041 -2.2302
   41CHL1  H12B 4173   6.704   6.825   5.564  0.2513  0.4868  0.1179
   41CHL1   C11 4174   6.828   6.767   5.737  0.6597  0.1163 -0.4504
   41CHL1  H11A 4175   6.935   6.742   5.752  0.9073  0.5851 -1.3699
   41CHL1  H11B 4176   6.793   6.847   5.806 -0.1298 -0.9149  0.3914
   41CHL1    C9 4177   6.757   6.638   5.793 -0.3349 -0.9040  0.0909
   41CHL1    H9 4178   6.650   6.653   5.768 -0.0589 -2.4482 -2.3473
   41CHL1   C10 4179   6.781   6.607   5.941 -0.1224  0.8109  0.1476
   41CHL1   C19 4180   6.935   6.581   5.966 -0.0304  0.4740 -0.4454
   41CHL1  H19A 4181   6.973   6.501   5.898  0.9838  0.3889  0.1970
   41CHL1  H19B 4182   6.998   6.669   5.942  1.8839 -1.1286 -1.7626
   41CHL1  H19C 4183   6.974   6.552   6.066  1.4378 -0.5320 -1.2597
   41CHL1    C1 4184   6.737   6.718   6.033 -0.1085  0.0170 -0.2229
   41CHL1   H1A 4185   6.793   6.808   6.000 -0.3500 -0.4292 -1.9175
   41CHL1   H1B 4186   6.632   6.740   6.005 -0.3178  0.2897  0.7302
   41CHL1    C2 4187   6.736   6.693   6.191  0.1727  0.0100 -0.4417
   41CHL1   H2A 4188   6.702   6.776   6.256  1.4059  0.0234  0.2317
   41CHL1   H2B 4189   6.837   6.674   6.235  0.8035  0.5753 -1.5912
   41CHL1   C20 4190   6.836   6.762   5.240 -0.0100 -0.0588 -0.2888
   41CHL1   H20 4191   6.936   6.720   5.217  0.4661  0.2538  1.1241
   41CHL1   C21 4192   6.866   6.899   5.291 -0.2223  0.4051  0.2637
   41CHL1  H21A 4193   6.887   6.973   5.211 -0.4364 -2.4410 -2.6663
   41CHL1  H21B 4194   6.953   6.885   5.357  2.2888 -0.1203 -2.8857
   41CHL1  H21C 4195   6.778   6.937   5.348 -0.8859  1.1010 -1.1621
   41CHL1   C22 4196   6.754   6.773   5.105  0.5574 -0.3356 -0.0481
   41CHL1  H22A 4197   6.743   6.668   5.070  1.3307 -1.7364  3.4777
   41CHL1  H22B 4198   6.655   6.819   5.123  1.0372  0.0061  1.9097
   41CHL1   C23 4199   6.825   6.835   4.979 -0.5566  0.3774 -0.0494
   41CHL1  H23A 4200   6.895   6.917   5.004  1.0361 -0.5740 -1.2142
   41CHL1  H23B 4201   6.884   6.753   4.933 -2.1779 -0.5573 -0.5440
   41CHL1   C24 4202   6.719   6.877   4.882  0.0120 -0.7585  0.8076
   41CHL1  H24A 4203   6.685   6.786   4.828 -1.3141  0.5331 -0.6525
   41CHL1  H24B 4204   6.628   6.918   4.930  0.1823 -0.2675  0.7138
   41CHL1   C25 4205   6.771   6.990   4.788 -0.2652 -1.1353  0.6991
   41CHL1   H25 4206   6.872   6.949   4.767  0.9847 -0.3688  4.4598
   41CHL1   C26 4207   6.687   7.013   4.661 -0.1053 -0.2642 -0.0638
   41CHL1  H26A 4208   6.583   7.044   4.680 -1.3686 -2.5669 -2.5183
   41CHL1  H26B 4209   6.730   7.097   4.601 -1.0766 -0.1923 -0.6868
   41CHL1  H26C 4210   6.681   6.920   4.600 -1.2970 -0.6227  0.5916
   41CHL1   C27 4211   6.788   7.129   4.860 -0.3063  0.3848  0.2516
   41CHL1  H27A 4212   6.809   7.220   4.800  0.3801 -0.6089 -1.0844
   41CHL1  H27B 4213   6.686   7.134   4.904  0.4839 -2.1419  2.6788
   41CHL1  H27C 4214   6.872   7.117   4.931 -0.1939  0.1331  0.0762
   42CHL1    C3 4215   5.604   3.341   6.097 -0.0507  0.5740  0.4205
   42CHL1    H3 4216   5.712   3.366   6.101  0.5130 -1.7841  2.3912
   42CHL1    O3 4217   5.573   3.290   6.225 -0.4550  0.5662 -0.1776
   42CHL1   H3' 4218   5.488   3.245   6.233  0.0511 -0.4804 -0.4695
   42CHL1    C4 4219   5.517   3.464   6.076  0.4395 -0.2022 -0.0727
   42CHL1   H4A 4220   5.415   3.426   6.099  0.2915 -1.1134 -2.0795
   42CHL1   H4B 4221   5.551   3.537   6.152  1.0417  1.3170 -1.7366
   42CHL1    C5 4222   5.521   3.523   5.936  0.3939 -0.4266  0.6749
   42CHL1    C6 4223   5.541   3.654   5.917 -0.8220  0.0127 -0.3673
   42CHL1    H6 4224   5.556   3.723   6.002 -1.2518 -2.5311  1.8756
   42CHL1    C7 4225   5.548   3.728   5.787  0.2899  0.6083  0.1351
   42CHL1   H7A 4226   5.483   3.817   5.791 -0.8610 -0.2204  0.4787
   42CHL1   H7B 4227   5.655   3.743   5.763  0.7674 -0.4511  1.4646
   42CHL1    C8 4228   5.473   3.639   5.677 -0.2037  0.8219 -0.8792
   42CHL1    H8 4229   5.363   3.638   5.689 -0.0855  1.5603  0.4714
   42CHL1   C14 4230   5.510   3.695   5.545 -0.2675  0.1013  0.1497
   42CHL1   H14 4231   5.620   3.681   5.541 -0.3551 -1.7147  2.2634
   42CHL1   C15 4232   5.482   3.848   5.514  0.6882  0.9511 -0.3503
   42CHL1  H15A 4233   5.376   3.863   5.546  1.3837  0.3131  2.4848
   42CHL1  H15B 4234   5.558   3.914   5.560  1.4071  0.2347 -0.4862
   42CHL1   C16 4235   5.480   3.855   5.359 -0.6305  0.4194  0.5684
   42CHL1  H16A 4236   5.381   3.890   5.324 -0.6697 -1.0442 -0.9028
   42CHL1  H16B 4237   5.566   3.917   5.325  0.9829 -2.1793 -0.3586
   42CHL1   C17 4238   5.501   3.713   5.309 -0.2080  0.0810 -0.0051
   42CHL1   H17 4239   5.610   3.693   5.301 -0.2694 -1.2946  1.8315
   42CHL1   C13 4240   5.446   3.618   5.428  0.1919 -0.0425  0.3309
   42CHL1   C18 4241   5.300   3.622   5.412  0.7221  0.2079 -0.1902
   42CHL1  H18A 4242   5.240   3.582   5.497 -2.3039  0.9225 -1.8255
   42CHL1  H18B 4243   5.267   3.720   5.372  4.9796  1.5034 -1.0082
   42CHL1  H18C 4244   5.284   3.550   5.330 -0.8318  0.2179  0.0587
   42CHL1   C12 4245   5.495   3.466   5.430  0.1960 -0.6691 -0.7868
   42CHL1  H12A 4246   5.448   3.406   5.349  1.9892  0.0351 -2.4288
   42CHL1  H12B 4247   5.606   3.460   5.436  0.3927  2.0719 -0.5157
   42CHL1   C11 4248   5.464   3.409   5.566  0.4253 -0.3845  0.3351
   42CHL1  H11A 4249   5.354   3.414   5.577  0.2605 -2.0949 -0.2065
   42CHL1  H11B 4250   5.484   3.300   5.563  1.2358 -0.2333  0.0771
   42CHL1    C9 4251   5.523   3.490   5.683 -0.1133 -0.0703  0.1167
   42CHL1    H9 4252   5.634   3.494   5.672 -0.2290 -2.2850 -5.3062
   42CHL1   C10 4253   5.498   3.423   5.824  0.2071 -0.0893  0.0122
   42CHL1   C19 4254   5.350   3.387   5.832 -0.0191  0.0754 -0.4429
   42CHL1  H19A 4255   5.286   3.478   5.839  0.0671  0.0111  2.4416
   42CHL1  H19B 4256   5.308   3.306   5.769 -1.2126  0.7322 -0.5257
   42CHL1  H19C 4257   5.309   3.358   5.931  0.4025  0.7436 -0.0706
   42CHL1    C1 4258   5.590   3.293   5.846  0.3286 -0.4619 -0.1693
   42CHL1   H1A 4259   5.549   3.216   5.777 -2.7811  1.1163 -0.2647
   42CHL1   H1B 4260   5.697   3.316   5.824  0.2341 -1.0732 -1.3596
   42CHL1    C2 4261   5.585   3.235   5.990  0.3159  0.2402  0.2090
   42CHL1   H2A 4262   5.669   3.162   5.988  0.7610  0.7601 -0.6016
   42CHL1   H2B 4263   5.486   3.185   6.003 -0.5537  1.8440 -0.0540
   42CHL1   C20 4264   5.449   3.688   5.165 -0.1370  0.2158  0.1343
   42CHL1   H20 4265   5.339   3.698   5.155 -0.5427 -2.9805  0.4980
   42CHL1   C21 4266   5.482   3.543   5.123 -0.0354  0.2899  0.0405
   42CHL1  H21A 4267   5.570   3.509   5.182 -1.0825 -2.7587 -0.0107
   42CHL1  H21B 4268   5.495   3.536   5.013 -2.7046  1.8597 -0.4702
   42CHL1  H21C 4269   5.396   3.487   5.163 -0.8202  2.1222  1.0334
   42CHL1   C22 4270   5.508   3.797   5.062  0.6396  0.0675 -0.0161
   42CHL1  H22A 4271   5.486   3.898   5.103  1.5697  0.2521  0.0547
   42CHL1  H22B 4272   5.619   3.791   5.065  0.5516 -1.7616  1.3607
   42CHL1   C23 4273   5.466   3.782   4.916  0.7033  1.0066  0.1577
   42CHL1  H23A 4274   5.518   3.692   4.876 -0.0155 -0.2501  1.9323
   42CHL1  H23B 4275   5.357   3.767   4.901  1.1348  0.7558 -3.6667
   42CHL1   C24 4276   5.516   3.899   4.837 -0.8133  0.0774  0.1645
   42CHL1  H24A 4277   5.471   3.898   4.736 -0.0274 -0.4461 -0.1948
   42CHL1  H24B 4278   5.485   3.995   4.883 -1.2705 -0.2157  0.4802
   42CHL1   C25 4279   5.669   3.911   4.801  0.4921 -0.7741 -0.6247
   42CHL1   H25 4280   5.728   3.937   4.891  2.4156 -1.2222 -1.7114
   42CHL1   C26 4281   5.730   3.781   4.757  0.3342  0.3837 -0.2934
   42CHL1  H26A 4282   5.700   3.751   4.654  0.6340  1.2884 -0.6615
   42CHL1  H26B 4283   5.841   3.791   4.762  0.6077 -2.4423  1.0573
   42CHL1  H26C 4284   5.698   3.696   4.820  0.6298  0.6654  0.2399
   42CHL1   C27 4285   5.701   4.017   4.704 -0.0874 -0.3574 -0.1155
   42CHL1  H27A 4286   5.811   4.025   4.695  0.1014 -1.3397  0.9518
   42CHL1  H27B 4287   5.660   3.981   4.607 -0.4419 -1.4026  0.3973
   42CHL1  H27C 4288   5.655   4.112   4.737  2.2253  0.7480  0.0852
   43CHL1    C3 4289   0.536   2.786   5.967 -0.2637 -0.4081 -1.2767
   43CHL1    H3 4290   0.642   2.757   5.948 -0.0176 -0.9002  0.6274
   43CHL1    O3 4291   0.527   2.782   6.110 -0.2663  0.0554  0.9696
   43CHL1   H3' 4292   0.432   2.788   6.126 -0.3414 -1.1608  1.0774
   43CHL1    C4 4293   0.509   2.927   5.907 -0.0634  0.1623  0.3827
   43CHL1   H4A 4294   0.417   2.960   5.959 -0.7843 -0.7050 -0.3018
   43CHL1   H4B 4295   0.592   2.994   5.937 -1.3444  1.4389  1.1757
   43CHL1    C5 4296   0.501   2.932   5.751 -0.0575 -0.3862  0.2180
   43CHL1    C6 4297   0.579   3.015   5.670  0.0013  0.7309  0.0496
   43CHL1    H6 4298   0.663   3.068   5.718  0.2004  0.6536 -0.2075
   43CHL1    C7 4299   0.561   3.022   5.526  1.0977 -0.0882  0.0137
   43CHL1   H7A 4300   0.570   3.129   5.497  4.6983 -0.4433 -0.7056
   43CHL1   H7B 4301   0.636   2.964   5.468 -0.7749 -1.8624 -0.7300
   43CHL1    C8 4302   0.414   2.982   5.484  0.1568 -0.7413 -0.5509
   43CHL1    H8 4303   0.336   3.046   5.530 -3.1031 -3.0114 -2.5343
   43CHL1   C14 4304   0.403   2.991   5.329  0.1846 -0.5819 -0.7478
   43CHL1   H14 4305   0.483   2.931   5.281  0.2992 -1.1132  0.0912
   43CHL1   C15 4306   0.421   3.130   5.265  0.5319 -0.0957 -0.3622
   43CHL1  H15A 4307   0.386   3.219   5.321  1.6118  1.9249 -2.7156
   43CHL1  H15B 4308   0.530   3.150   5.252  0.0917  2.0188 -1.0635
   43CHL1   C16 4309   0.350   3.120   5.129 -0.3306  0.1074  0.2659
   43CHL1  H16A 4310   0.260   3.185   5.121 -2.1294 -2.2692 -0.0939
   43CHL1  H16B 4311   0.413   3.125   5.037 -0.1724 -3.6062  0.0223
   43CHL1   C17 4312   0.285   2.983   5.135 -0.1765 -0.3903  0.6459
   43CHL1   H17 4313   0.355   2.905   5.098 -0.0293  0.4339 -0.8681
   43CHL1   C13 4314   0.265   2.945   5.285  0.0824 -0.4423  0.4999
   43CHL1   C18 4315   0.151   3.035   5.345  0.2198 -0.3143 -0.7562
   43CHL1  H18A 4316   0.058   2.992   5.303  0.0040 -0.8999  0.2768
   43CHL1  H18B 4317   0.145   3.029   5.456  1.7884 -0.6983 -0.6667
   43CHL1  H18C 4318   0.155   3.141   5.314  1.5690 -0.5031 -1.3256
   43CHL1   C12 4319   0.238   2.797   5.322  0.1789 -0.1029  0.4168
   43CHL1  H12A 4320   0.136   2.770   5.289  1.4757 -2.3200 -2.1626
   43CHL1  H12B 4321   0.318   2.744   5.266  0.1652  2.5574 -2.4421
   43CHL1   C11 4322   0.253   2.781   5.471  0.3780  0.9483  0.3462
   43CHL1  H11A 4323   0.159   2.815   5.521  0.4762  2.8006 -0.6490
   43CHL1  H11B 4324   0.265   2.673   5.496  1.8757  1.7172  3.5476
   43CHL1    C9 4325   0.382   2.841   5.542 -0.9495  0.7644 -0.0940
   43CHL1    H9 4326   0.472   2.785   5.510 -2.0254 -0.3496 -1.2980
   43CHL1   C10 4327   0.387   2.839   5.697  0.2305  0.3132 -0.3307
   43CHL1   C19 4328   0.243   2.871   5.746  0.8417  0.4218  0.5487
   43CHL1  H19A 4329   0.231   2.880   5.856 -0.5078  0.8720  0.3872
   43CHL1  H19B 4330   0.200   2.952   5.683 -2.0103 -2.4236 -1.4997
   43CHL1  H19C 4331   0.170   2.790   5.724 -0.8719  1.7153  1.2706
   43CHL1    C1 4332   0.436   2.700   5.743  0.2520 -0.0150 -0.5322
   43CHL1   H1A 4333   0.357   2.626   5.719 -0.3237 -0.3305  2.0915
   43CHL1   H1B 4334   0.533   2.677   5.694  0.9747  3.6886 -1.1800
   43CHL1    C2 4335   0.439   2.687   5.903  0.2951 -0.1144 -0.3699
   43CHL1   H2A 4336   0.473   2.590   5.943 -0.7926 -0.4058 -0.1153
   43CHL1   H2B 4337   0.333   2.693   5.936  0.0059 -0.0558 -1.2799
   43CHL1   C20 4338   0.174   2.970   5.037 -0.3507 -0.3881  0.5092
   43CHL1   H20 4339   0.091   3.028   5.083 -2.0843 -1.8652 -0.6070
   43CHL1   C21 4340   0.122   2.829   5.017 -0.2429  0.0533 -0.7612
   43CHL1  H21A 4341   0.044   2.803   5.091 -0.8176  0.3050 -1.2737
   43CHL1  H21B 4342   0.206   2.756   5.016 -0.5039 -0.2974  0.6528
   43CHL1  H21C 4343   0.067   2.835   4.921  1.6187  1.4305 -1.7990
   43CHL1   C22 4344   0.208   3.037   4.899 -0.5528  1.1134 -0.0203
   43CHL1  H22A 4345   0.116   3.031   4.838 -0.1872  1.9612 -0.6883
   43CHL1  H22B 4346   0.245   3.142   4.899  0.8653  0.6406 -0.0773
   43CHL1   C23 4347   0.316   2.949   4.827 -0.0578 -0.0108  0.0179
   43CHL1  H23A 4348   0.404   2.944   4.894  0.4578 -2.3455 -0.7363
   43CHL1  H23B 4349   0.291   2.842   4.815  1.1188 -0.2761 -0.1852
   43CHL1   C24 4350   0.364   3.008   4.682 -0.3432 -0.6655 -0.4058
   43CHL1  H24A 4351   0.272   3.032   4.624 -0.0185  1.5109 -0.1227
   43CHL1  H24B 4352   0.422   3.102   4.699 -0.5891 -0.5243 -0.3413
   43CHL1   C25 4353   0.443   2.905   4.600 -0.1828  0.4194  0.3078
   43CHL1   H25 4354   0.398   2.804   4.616  1.1657 -0.0877  1.0231
   43CHL1   C26 4355   0.430   2.947   4.451 -0.5124 -0.1913  0.1546
   43CHL1  H26A 4356   0.327   2.964   4.413 -0.4794 -1.3378 -0.4849
   43CHL1  H26B 4357   0.471   3.050   4.446 -1.7023  0.3078  0.1123
   43CHL1  H26C 4358   0.473   2.876   4.378 -1.3856 -0.5505 -0.0321
   43CHL1   C27 4359   0.591   2.909   4.643  0.7829 -0.2669  0.5900
   43CHL1  H27A 4360   0.643   2.837   4.576 -1.1682  0.8718 -2.3221
   43CHL1  H27B 4361   0.621   3.015   4.627  1.1700 -0.6340 -1.3712
   43CHL1  H27C 4362   0.598   2.878   4.750 -0.9427 -1.1343  0.4783
   44CHL1    C3 4363   0.300   4.464   5.967  0.2172 -0.2762  0.3825
   44CHL1    H3 4364   0.211   4.531   5.973  0.3365 -0.2381  3.7562
   44CHL1    O3 4365   0.335   4.431   6.092 -0.4477  0.1249 -0.3004
   44CHL1   H3' 4366   0.287   4.499   6.140 -0.8455 -0.4309  0.1026
   44CHL1    C4 4367   0.261   4.329   5.896 -0.1107 -0.3354 -0.3598
   44CHL1   H4A 4368   0.354   4.269   5.886  0.6961  0.5701  1.2306
   44CHL1   H4B 4369   0.190   4.278   5.965  0.2271  0.7036  0.7970
   44CHL1    C5 4370   0.221   4.361   5.750 -0.8166  0.2193  0.0619
   44CHL1    C6 4371   0.106   4.319   5.711  0.8066 -0.2447 -0.0400
   44CHL1    H6 4372   0.038   4.256   5.770 -0.9540  0.4384 -1.2353
   44CHL1    C7 4373   0.063   4.337   5.563  0.0154  0.5608  0.3905
   44CHL1   H7A 4374   0.019   4.246   5.516  2.5205 -1.6511  2.0562
   44CHL1   H7B 4375  -0.010   4.420   5.555 -1.0489 -0.3627  0.1225
   44CHL1    C8 4376   0.177   4.367   5.466 -0.4683 -0.3726 -0.2651
   44CHL1    H8 4377   0.242   4.278   5.454  1.2059  1.1133 -3.4074
   44CHL1   C14 4378   0.126   4.416   5.322  0.2409 -0.2339 -1.3299
   44CHL1   H14 4379   0.083   4.518   5.331 -0.1414 -0.2414 -2.7694
   44CHL1   C15 4380   0.034   4.323   5.247 -0.3896 -0.4362  0.4040
   44CHL1  H15A 4381   0.064   4.217   5.256 -0.6596 -0.4675  1.0341
   44CHL1  H15B 4382  -0.066   4.336   5.295 -0.6813 -0.9221 -0.0513
   44CHL1   C16 4383   0.045   4.372   5.102 -0.1287 -0.1931 -0.2200
   44CHL1  H16A 4384   0.070   4.288   5.034 -0.1085  1.7396 -2.7586
   44CHL1  H16B 4385  -0.050   4.415   5.064 -0.3471 -0.7138 -0.2606
   44CHL1   C17 4386   0.155   4.481   5.095 -0.0932  0.0350 -0.0726
   44CHL1   H17 4387   0.115   4.577   5.134  2.7076  1.0590  0.5373
   44CHL1   C13 4388   0.242   4.440   5.222  1.0404  0.2976 -0.5432
   44CHL1   C18 4389   0.317   4.313   5.181  0.1998 -0.0709 -0.2047
   44CHL1  H18A 4390   0.341   4.251   5.270 -1.3205 -0.4307 -0.0231
   44CHL1  H18B 4391   0.256   4.247   5.116  0.1507  1.3918 -1.6867
   44CHL1  H18C 4392   0.408   4.342   5.124 -0.8318  2.6290 -0.6217
   44CHL1   C12 4393   0.324   4.552   5.290 -0.2271 -0.3522 -0.1296
   44CHL1  H12A 4394   0.410   4.580   5.225  0.5978 -2.0855  0.1689
   44CHL1  H12B 4395   0.258   4.641   5.303  0.2598 -0.1316  0.9264
   44CHL1   C11 4396   0.381   4.528   5.430 -0.2074 -0.6516  0.4355
   44CHL1  H11A 4397   0.466   4.463   5.402  0.1608  0.4007 -1.0530
   44CHL1  H11B 4398   0.428   4.618   5.475 -0.4334  0.6407 -1.7654
   44CHL1    C9 4399   0.269   4.476   5.528  0.1995 -0.5761  0.4687
   44CHL1    H9 4400   0.207   4.563   5.559  3.0539  2.9301 -2.6736
   44CHL1   C10 4401   0.331   4.434   5.666  0.8056 -0.3213 -0.3955
   44CHL1   C19 4402   0.452   4.340   5.631  0.3782 -0.8209  0.2158
   44CHL1  H19A 4403   0.480   4.269   5.712 -0.6059  0.0793  1.3728
   44CHL1  H19B 4404   0.420   4.273   5.548 -1.7791  0.9449 -0.4753
   44CHL1  H19C 4405   0.545   4.396   5.608  0.4626  0.1184  2.5789
   44CHL1    C1 4406   0.383   4.557   5.738  0.2884  0.0379 -0.4719
   44CHL1   H1A 4407   0.471   4.600   5.686  0.7426 -0.7522 -0.3737
   44CHL1   H1B 4408   0.310   4.640   5.744 -0.1337 -0.2939 -0.9702
   44CHL1    C2 4409   0.420   4.520   5.886 -0.1159 -1.1186  0.2086
   44CHL1   H2A 4410   0.450   4.610   5.945  0.9901 -1.3827  0.0633
   44CHL1   H2B 4411   0.504   4.448   5.883 -0.7284 -1.8837 -3.2662
   44CHL1   C20 4412   0.217   4.501   4.957 -0.5236 -0.2060  0.0277
   44CHL1   H20 4413   0.254   4.401   4.927  1.1366  0.5369 -0.5508
   44CHL1   C21 4414   0.335   4.594   4.960 -0.1192  0.5453  0.4497
   44CHL1  H21A 4415   0.409   4.534   5.018 -2.3921 -0.5051  2.4278
   44CHL1  H21B 4416   0.305   4.684   5.018 -2.0907  0.5777 -0.5599
   44CHL1  H21C 4417   0.375   4.613   4.858  1.6986 -1.9026  0.5962
   44CHL1   C22 4418   0.097   4.557   4.868  0.3943 -0.1509  0.0159
   44CHL1  H22A 4419   0.035   4.467   4.845  1.8636 -1.0523 -0.6181
   44CHL1  H22B 4420   0.033   4.633   4.916  1.1286  0.8029 -0.4714
   44CHL1   C23 4421   0.153   4.598   4.734 -0.3170 -0.0751  0.0879
   44CHL1  H23A 4422   0.219   4.686   4.744  0.1636 -0.2274 -1.4991
   44CHL1  H23B 4423   0.221   4.514   4.709 -2.1772 -1.3348 -1.0182
   44CHL1   C24 4424   0.053   4.610   4.621 -0.1014 -0.7001  0.3416
   44CHL1  H24A 4425   0.010   4.509   4.606 -0.3075 -0.7986  1.4867
   44CHL1  H24B 4426  -0.019   4.691   4.644 -0.7375 -0.8554 -1.0432
   44CHL1   C25 4427   0.136   4.642   4.487 -0.3722  0.9586  0.2854
   44CHL1   H25 4428   0.223   4.705   4.514  1.4793 -1.5801  0.6797
   44CHL1   C26 4429   0.194   4.508   4.424 -0.2892  0.3656 -0.2918
   44CHL1  H26A 4430   0.253   4.443   4.492 -0.4563 -0.2024 -0.6840
   44CHL1  H26B 4431   0.117   4.449   4.370 -0.6177  1.6255 -1.2435
   44CHL1  H26C 4432   0.283   4.529   4.362  1.7104 -1.8319  1.6394
   44CHL1   C27 4433   0.040   4.713   4.386  0.0120  0.3568  0.1105
   44CHL1  H27A 4434  -0.036   4.642   4.348  0.9074 -0.3731 -0.3546
   44CHL1  H27B 4435  -0.001   4.800   4.443 -0.2356  0.3032  0.0174
   44CHL1  H27C 4436   0.092   4.758   4.299  1.5581 -1.6011 -0.0477
   45CHL1    C3 4437   6.750   5.389   6.306  0.4506 -0.5602  0.1336
   45CHL1    H3 4438   6.817   5.475   6.285 -0.3618  0.2919  0.9502
   45CHL1    O3 4439   6.749   5.376   6.444  0.1138 -0.1670 -0.1650
   45CHL1   H3' 4440   6.830   5.324   6.450 -0.1537 -0.4864  0.9272
   45CHL1    C4 4441   6.608   5.419   6.256  0.1291  0.5312  0.0301
   45CHL1   H4A 4442   6.537   5.337   6.279  0.5871 -0.0412 -0.5679
   45CHL1   H4B 4443   6.579   5.508   6.316  1.9080  0.4171  1.1562
   45CHL1    C5 4444   6.609   5.448   6.107 -0.3784  0.1674  0.2877
   45CHL1    C6 4445   6.562   5.558   6.049  0.2360 -0.1731 -0.6557
   45CHL1    H6 4446   6.532   5.639   6.117  0.7498  0.2095 -0.8778
   45CHL1    C7 4447   6.556   5.590   5.904  0.1620 -0.6628 -0.0293
   45CHL1   H7A 4448   6.454   5.619   5.872 -0.6607 -0.0703  2.8515
   45CHL1   H7B 4449   6.621   5.678   5.884 -0.0556 -0.1639  1.3368
   45CHL1    C8 4450   6.596   5.465   5.822  1.0247 -0.1581  0.1674
   45CHL1    H8 4451   6.501   5.409   5.806  0.7323  0.2688  0.4049
   45CHL1   C14 4452   6.642   5.520   5.682  0.1231  0.9980  0.4174
   45CHL1   H14 4453   6.742   5.566   5.696  0.3437  0.6394  0.0438
   45CHL1   C15 4454   6.545   5.609   5.604  0.6765 -0.2767 -0.1751
   45CHL1  H15A 4455   6.445   5.563   5.619  0.6076  0.5786  2.7657
   45CHL1  H15B 4456   6.526   5.714   5.637  0.6004 -0.7029  1.1878
   45CHL1   C16 4457   6.593   5.604   5.458  0.0869 -0.0971 -0.0665
   45CHL1  H16A 4458   6.503   5.565   5.406 -0.1168  1.5458 -0.9929
   45CHL1  H16B 4459   6.624   5.700   5.413 -1.0216 -0.6760 -2.2062
   45CHL1   C17 4460   6.712   5.505   5.454 -0.0434  0.2640  0.3405
   45CHL1   H17 4461   6.801   5.568   5.473 -0.0246  0.2669  0.2395
   45CHL1   C13 4462   6.687   5.414   5.577 -0.0531 -0.5693  0.0279
   45CHL1   C18 4463   6.573   5.325   5.545 -0.0581 -0.3259 -0.3781
   45CHL1  H18A 4464   6.542   5.277   5.640 -1.3982  2.0907  0.5065
   45CHL1  H18B 4465   6.488   5.375   5.493  0.8806  0.4043 -1.2453
   45CHL1  H18C 4466   6.612   5.237   5.490 -0.9834 -0.8197 -0.2762
   45CHL1   C12 4467   6.798   5.340   5.642 -0.2414 -0.0896  0.0205
   45CHL1  H12A 4468   6.818   5.247   5.584 -3.4950 -1.0411  0.2251
   45CHL1  H12B 4469   6.887   5.404   5.660 -1.9489  1.5115  3.6252
   45CHL1   C11 4470   6.762   5.279   5.776 -0.0067  0.8533 -0.3812
   45CHL1  H11A 4471   6.677   5.208   5.767  0.8026 -0.1078 -0.5924
   45CHL1  H11B 4472   6.849   5.220   5.813 -0.1860 -0.1365 -1.4887
   45CHL1    C9 4473   6.717   5.391   5.878  0.0932  0.6917 -0.0818
   45CHL1    H9 4474   6.796   5.467   5.894 -0.8458  1.4213  1.2775
   45CHL1   C10 4475   6.677   5.335   6.022 -0.2306  0.3550  0.2953
   45CHL1   C19 4476   6.570   5.221   6.012 -0.2180 -0.5672 -0.2191
   45CHL1  H19A 4477   6.472   5.253   5.970  0.8322  1.6356 -1.1162
   45CHL1  H19B 4478   6.615   5.141   5.949 -2.1528 -2.1531  0.2877
   45CHL1  H19C 4479   6.549   5.187   6.116  0.1894 -1.9403 -0.5583
   45CHL1    C1 4480   6.809   5.286   6.091 -0.8585 -0.2165  0.4412
   45CHL1   H1A 4481   6.833   5.198   6.027  0.8438  1.2781 -1.0656
   45CHL1   H1B 4482   6.896   5.353   6.075 -0.0920 -1.3642 -0.4160
   45CHL1    C2 4483   6.805   5.267   6.241  0.1445  0.6808 -0.3007
   45CHL1   H2A 4484   6.909   5.243   6.273 -0.1318  0.4461  0.4344
   45CHL1   H2B 4485   6.740   5.181   6.268  1.4153 -0.5581 -0.9874
   45CHL1   C20 4486   6.716   5.440   5.313  0.2692 -0.2781 -0.2819
   45CHL1   H20 4487   6.632   5.370   5.295  1.3699 -2.0611  1.1154
   45CHL1   C21 4488   6.845   5.350   5.313 -0.2901  0.1927  0.4594
   45CHL1  H21A 4489   6.849   5.289   5.220 -1.8615 -0.8825  1.0536
   45CHL1  H21B 4490   6.833   5.278   5.396 -2.4638 -1.1172 -0.8910
   45CHL1  H21C 4491   6.935   5.414   5.325  0.4578 -0.3361 -1.8352
   45CHL1   C22 4492   6.727   5.545   5.201  0.1531 -0.2318 -0.4099
   45CHL1  H22A 4493   6.632   5.603   5.207 -0.3310 -0.6806 -2.7079
   45CHL1  H22B 4494   6.819   5.604   5.222 -0.1643 -0.6392  2.4365
   45CHL1   C23 4495   6.724   5.483   5.059  0.1553  0.4145  0.1731
   45CHL1  H23A 4496   6.831   5.460   5.039 -0.3734 -1.4616 -0.6961
   45CHL1  H23B 4497   6.656   5.398   5.037 -0.1148  1.0737 -1.7199
   45CHL1   C24 4498   6.688   5.596   4.961  0.1787 -0.2605 -0.2124
   45CHL1  H24A 4499   6.578   5.606   4.955  0.2934  0.3905 -1.8953
   45CHL1  H24B 4500   6.730   5.691   5.000 -0.3736  0.5508 -1.5410
   45CHL1   C25 4501   6.728   5.578   4.825 -0.2979 -0.2076 -0.0225
   45CHL1   H25 4502   6.833   5.544   4.815 -0.2627 -0.6936  1.6944
   45CHL1   C26 4503   6.647   5.475   4.746  0.6586 -0.8310 -0.2055
   45CHL1  H26A 4504   6.682   5.473   4.640  2.0792  2.0947  0.0969
   45CHL1  H26B 4505   6.653   5.372   4.785 -2.0181 -1.5381 -1.4156
   45CHL1  H26C 4506   6.537   5.493   4.747  0.3702 -2.4445  1.5165
   45CHL1   C27 4507   6.705   5.709   4.747  0.7429 -0.1421 -0.3832
   45CHL1  H27A 4508   6.725   5.702   4.638  0.6729  0.1448 -0.4149
   45CHL1  H27B 4509   6.598   5.738   4.750  1.6613  3.7465  1.0878
   45CHL1  H27C 4510   6.771   5.784   4.796  3.2939 -1.9317 -0.8609
   46CHL1    C3 4511   0.896   6.071   6.148  0.5719 -0.6978 -0.3090
   46CHL1    H3 4512   0.908   6.182   6.155  0.4971 -0.6873 -0.3305
   46CHL1    O3 4513   0.883   6.017   6.282 -0.2766  0.3857  0.2685
   46CHL1   H3' 4514   0.968   6.028   6.327  0.3274 -1.7728 -0.2165
   46CHL1    C4 4515   0.757   6.047   6.080 -0.2353 -0.2800 -0.4724
   46CHL1   H4A 4516   0.732   5.940   6.100  0.1917 -0.3325 -0.2047
   46CHL1   H4B 4517   0.677   6.104   6.133 -0.6705 -1.6081  0.3667
   46CHL1    C5 4518   0.767   6.072   5.932 -0.2900  0.3875  0.1209
   46CHL1    C6 4519   0.672   6.145   5.873  0.4316  0.0441 -0.0719
   46CHL1    H6 4520   0.599   6.189   5.942  1.0756 -0.7830  1.1674
   46CHL1    C7 4521   0.649   6.174   5.727 -0.2147  0.3272  0.1275
   46CHL1   H7A 4522   0.548   6.141   5.696  0.0489  1.2950 -1.9509
   46CHL1   H7B 4523   0.651   6.281   5.696 -1.3270  0.5825  0.9060
   46CHL1    C8 4524   0.748   6.089   5.645  1.0043  0.1618  0.7560
   46CHL1    H8 4525   0.698   5.993   5.622 -2.3412  1.8443  0.4118
   46CHL1   C14 4526   0.770   6.169   5.516  0.5319  0.3001 -0.5486
   46CHL1   H14 4527   0.822   6.260   5.550  2.8380 -0.3920 -2.0350
   46CHL1   C15 4528   0.641   6.217   5.433 -0.0887 -0.1123 -0.4627
   46CHL1  H15A 4529   0.580   6.125   5.418  0.2301 -0.4853  0.4603
   46CHL1  H15B 4530   0.588   6.306   5.473  2.0914  0.8975  0.3230
   46CHL1   C16 4531   0.703   6.245   5.296 -0.3750  0.3490 -0.4627
   46CHL1  H16A 4532   0.641   6.207   5.212 -1.1757  1.8013 -0.5675
   46CHL1  H16B 4533   0.712   6.355   5.280  3.1751  0.5288  1.7299
   46CHL1   C17 4534   0.855   6.195   5.298  0.6039  0.0016  0.2021
   46CHL1   H17 4535   0.931   6.272   5.323  0.0385  0.7286 -0.2906
   46CHL1   C13 4536   0.863   6.101   5.416  0.3258  0.4879  0.0679
   46CHL1   C18 4537   0.793   5.967   5.366 -0.1997  0.2776 -0.1812
   46CHL1  H18A 4538   0.866   5.910   5.304  1.4089  2.1395 -0.0765
   46CHL1  H18B 4539   0.768   5.901   5.452 -0.1737  0.4863 -0.0149
   46CHL1  H18C 4540   0.699   5.988   5.310  0.3237  1.3495 -0.6921
   46CHL1   C12 4541   0.996   6.069   5.477 -0.0320 -0.3870  1.2595
   46CHL1  H12A 4542   1.066   6.015   5.409  0.6418 -0.0817  1.6977
   46CHL1  H12B 4543   1.043   6.167   5.501  3.3035 -1.9586  1.7160
   46CHL1   C11 4544   0.988   6.000   5.618 -0.0557 -0.0585  0.4546
   46CHL1  H11A 4545   0.947   5.899   5.595  3.5292 -1.4480 -0.6066
   46CHL1  H11B 4546   1.089   5.991   5.662  1.1642  0.1648 -2.0685
   46CHL1    C9 4547   0.882   6.074   5.712 -0.2797 -0.7154 -0.0526
   46CHL1    H9 4548   0.926   6.174   5.729  2.5132 -1.5458 -1.6437
   46CHL1   C10 4549   0.879   6.017   5.851  0.4393  0.1816 -0.1860
   46CHL1   C19 4550   0.876   5.860   5.840 -0.1457  0.5445 -0.3158
   46CHL1  H19A 4551   0.960   5.823   5.777 -0.6703 -1.3075  0.0082
   46CHL1  H19B 4552   0.882   5.800   5.933  1.0888  0.4371 -0.4493
   46CHL1  H19C 4553   0.785   5.831   5.782  1.2807 -2.4185 -1.2723
   46CHL1    C1 4554   1.015   6.054   5.925  0.3500 -0.3672 -0.1587
   46CHL1   H1A 4555   1.098   6.014   5.864  0.3250  0.3718 -0.6958
   46CHL1   H1B 4556   1.035   6.163   5.935 -0.9217 -0.2222  1.0572
   46CHL1    C2 4557   1.015   6.013   6.071  0.9335 -0.2177 -0.3472
   46CHL1   H2A 4558   1.104   6.053   6.124 -0.0864  0.9919  0.5125
   46CHL1   H2B 4559   0.993   5.905   6.084  0.0705  0.2208  2.3161
   46CHL1   C20 4560   0.890   6.145   5.159 -0.1626  0.0634  0.2477
   46CHL1   H20 4561   0.832   6.053   5.136  2.1093 -1.2574 -0.5271
   46CHL1   C21 4562   1.035   6.094   5.143 -0.6511 -0.2542  0.1365
   46CHL1  H21A 4563   1.061   6.072   5.037 -0.0659  0.3037  0.1564
   46CHL1  H21B 4564   1.052   6.004   5.206  0.4947 -0.5031 -0.4915
   46CHL1  H21C 4565   1.099   6.180   5.172 -1.1335  0.4722 -0.8969
   46CHL1   C22 4566   0.853   6.246   5.041 -0.6505  0.3844 -0.8989
   46CHL1  H22A 4567   0.805   6.195   4.955 -0.6825 -0.9732 -0.1054
   46CHL1  H22B 4568   0.771   6.316   5.067  0.1895  0.4341  1.9405
   46CHL1   C23 4569   0.971   6.333   5.004  0.3308  0.3942 -0.0952
   46CHL1  H23A 4570   1.022   6.357   5.099  0.2605 -0.8719  0.2799
   46CHL1  H23B 4571   1.038   6.283   4.931 -2.7848 -2.1768 -1.4892
   46CHL1   C24 4572   0.931   6.468   4.945  0.5935 -0.2551 -0.0725
   46CHL1  H24A 4573   0.852   6.511   5.011  0.1096 -0.2475 -0.6517
   46CHL1  H24B 4574   1.010   6.546   4.954 -2.3200  2.9242 -0.0735
   46CHL1   C25 4575   0.863   6.466   4.810 -0.3140  0.3104 -0.7021
   46CHL1   H25 4576   0.769   6.409   4.824  0.3960 -1.0919 -1.4542
   46CHL1   C26 4577   0.832   6.610   4.775 -0.3538  0.1654  0.3827
   46CHL1  H26A 4578   0.773   6.647   4.861  1.4438 -0.7514  2.0999
   46CHL1  H26B 4579   0.929   6.664   4.770  0.9484 -1.9285  1.4074
   46CHL1  H26C 4580   0.784   6.632   4.677 -0.3444  1.1295  0.5842
   46CHL1   C27 4581   0.943   6.406   4.693 -0.4389 -0.9380  0.4059
   46CHL1  H27A 4582   0.896   6.431   4.596  0.0953  1.3892  0.6981
   46CHL1  H27B 4583   1.045   6.448   4.705 -0.2812 -1.2722  0.2627
   46CHL1  H27C 4584   0.958   6.299   4.718  0.6771 -0.8311  0.2343
   47CHL1    C3 4585   4.293   5.334   5.916  0.4564 -0.3400  0.2774
   47CHL1    H3 4586   4.205   5.283   5.872 -0.3745  0.6494  0.7465
   47CHL1    O3 4587   4.269   5.326   6.051  0.0557 -0.4244  0.8955
   47CHL1   H3' 4588   4.348   5.343   6.103  0.0175 -1.7770  1.4420
   47CHL1    C4 4589   4.422   5.257   5.874  0.5747  0.2633 -0.2215
   47CHL1   H4A 4590   4.505   5.307   5.928 -0.3945 -0.8198  2.4058
   47CHL1   H4B 4591   4.408   5.154   5.915  0.9775  0.5272  0.5958
   47CHL1    C5 4592   4.431   5.263   5.719 -0.0916  0.7147 -0.3327
   47CHL1    C6 4593   4.444   5.150   5.649  0.1193  0.3237  1.7488
   47CHL1    H6 4594   4.432   5.053   5.699 -0.9827 -1.9910 -2.5267
   47CHL1    C7 4595   4.469   5.158   5.497  1.1929  0.0902 -0.1528
   47CHL1   H7A 4596   4.544   5.083   5.465  0.8176 -0.3979  0.1039
   47CHL1   H7B 4597   4.377   5.123   5.445 -0.8939  1.4841  2.3733
   47CHL1    C8 4598   4.486   5.297   5.439  0.1791 -0.2724 -0.1742
   47CHL1    H8 4599   4.595   5.319   5.445  0.0099  0.6222 -0.2010
   47CHL1   C14 4600   4.439   5.303   5.295 -0.5204  0.2282 -0.2913
   47CHL1   H14 4601   4.328   5.295   5.302 -0.6393 -0.4951 -2.2774
   47CHL1   C15 4602   4.468   5.184   5.199 -1.0296 -0.0640 -0.1645
   47CHL1  H15A 4603   4.560   5.133   5.234 -0.0942  2.3185  1.0694
   47CHL1  H15B 4604   4.376   5.124   5.216 -1.5324  0.3948 -1.1661
   47CHL1   C16 4605   4.477   5.251   5.065  0.2183  0.1004  0.0050
   47CHL1  H16A 4606   4.584   5.256   5.033  0.3817 -2.0581  0.0487
   47CHL1  H16B 4607   4.422   5.197   4.985  1.5329 -1.7928  0.2940
   47CHL1   C17 4608   4.416   5.393   5.086  0.3362  0.4699  0.5145
   47CHL1   H17 4609   4.306   5.381   5.096  0.1816  2.8952  2.8737
   47CHL1   C13 4610   4.458   5.439   5.226  0.1605  0.0629 -0.1550
   47CHL1   C18 4611   4.611   5.470   5.226 -0.4246 -0.0730  0.6837
   47CHL1  H18A 4612   4.622   5.572   5.184  0.5302 -0.3498  0.2346
   47CHL1  H18B 4613   4.650   5.463   5.329 -2.3967  1.1831  1.5781
   47CHL1  H18C 4614   4.661   5.398   5.157  0.6808 -0.2095  1.6194
   47CHL1   C12 4615   4.386   5.546   5.301  0.3801  0.2427 -0.4278
   47CHL1  H12A 4616   4.426   5.628   5.238  0.1917  1.9795  1.6077
   47CHL1  H12B 4617   4.275   5.543   5.295  0.0956  1.8152  2.4221
   47CHL1   C11 4618   4.432   5.543   5.447  1.1674  0.0529 -0.9699
   47CHL1  H11A 4619   4.539   5.569   5.454  1.0348  0.1092  1.4172
   47CHL1  H11B 4620   4.383   5.630   5.494  0.5836 -0.4942 -0.5448
   47CHL1    C9 4621   4.409   5.406   5.516 -1.0220 -0.1325  0.1707
   47CHL1    H9 4622   4.300   5.388   5.499 -0.7159 -1.5533 -0.4107
   47CHL1   C10 4623   4.432   5.405   5.662 -0.2143  0.0012 -0.2918
   47CHL1   C19 4624   4.573   5.467   5.700 -0.3772  0.4580 -1.2036
   47CHL1  H19A 4625   4.581   5.577   5.685 -0.1466  0.4385 -1.2335
   47CHL1  H19B 4626   4.593   5.461   5.809  0.7064 -3.1137 -1.4778
   47CHL1  H19C 4627   4.655   5.422   5.641  1.5615  1.6528  0.4342
   47CHL1    C1 4628   4.321   5.492   5.728  0.0540 -0.5321 -0.2023
   47CHL1   H1A 4629   4.334   5.599   5.701 -1.0275 -0.6932 -1.4976
   47CHL1   H1B 4630   4.227   5.453   5.683 -0.4986  2.2073 -1.6918
   47CHL1    C2 4631   4.301   5.479   5.878 -0.5716 -0.3792  0.5125
   47CHL1   H2A 4632   4.201   5.522   5.899 -0.7527 -0.3446 -0.3926
   47CHL1   H2B 4633   4.381   5.539   5.927 -0.6220  1.5354 -1.5809
   47CHL1   C20 4634   4.437   5.494   4.969  0.2442 -0.3799  0.5104
   47CHL1   H20 4635   4.537   5.544   4.974 -0.4126  1.5814 -2.8811
   47CHL1   C21 4636   4.338   5.610   4.978  0.1861  0.2368 -0.4212
   47CHL1  H21A 4637   4.237   5.570   5.001  0.8158 -0.4403  1.2756
   47CHL1  H21B 4638   4.326   5.670   4.885 -1.0524  0.9992  0.2055
   47CHL1  H21C 4639   4.367   5.678   5.060  0.9298  2.1779 -2.2045
   47CHL1   C22 4640   4.426   5.430   4.832  0.4683  0.1177 -0.3861
   47CHL1  H22A 4641   4.344   5.355   4.822  0.6877  0.0423 -1.7918
   47CHL1  H22B 4642   4.395   5.507   4.759 -1.7314 -0.9523 -0.6460
   47CHL1   C23 4643   4.559   5.371   4.766  0.3688  0.6935  0.3051
   47CHL1  H23A 4644   4.581   5.276   4.819  1.1180  1.0846  0.7120
   47CHL1  H23B 4645   4.536   5.335   4.664 -0.4559  1.2526  0.2845
   47CHL1   C24 4646   4.676   5.465   4.766 -0.6941 -0.4156  0.0069
   47CHL1  H24A 4647   4.687   5.503   4.870 -1.9464 -1.7081  0.6618
   47CHL1  H24B 4648   4.761   5.397   4.743  0.1728  0.4906  0.4652
   47CHL1   C25 4649   4.663   5.575   4.667  0.8150 -0.1525  0.7824
   47CHL1   H25 4650   4.561   5.570   4.623  0.6342  0.9148  1.0436
   47CHL1   C26 4651   4.689   5.711   4.729  0.2267  0.0653 -0.7458
   47CHL1  H26A 4652   4.699   5.784   4.645 -1.0955 -1.2683 -2.1161
   47CHL1  H26B 4653   4.612   5.746   4.800  0.6574  0.3742 -0.4231
   47CHL1  H26C 4654   4.789   5.705   4.776  0.0346  0.1699 -0.3226
   47CHL1   C27 4655   4.765   5.544   4.553  0.2372 -0.2737 -0.9308
   47CHL1  H27A 4656   4.773   5.638   4.495  0.4501  0.6896  0.6159
   47CHL1  H27B 4657   4.868   5.529   4.591  0.6606 -1.7200 -2.4910
   47CHL1  H27C 4658   4.732   5.465   4.481  1.4683  0.1817 -2.0312
   48CHL1    C3 4659   1.427   5.789   6.063 -0.0147  0.7776 -0.0079
   48CHL1    H3 4660   1.529   5.832   6.077  0.8256 -1.3558  0.7994
   48CHL1    O3 4661   1.378   5.757   6.196 -0.1232  0.1060  0.5483
   48CHL1   H3' 4662   1.310   5.692   6.178 -1.1557  2.1311 -4.5377
   48CHL1    C4 4663   1.337   5.890   5.991 -0.4247  0.2117  0.1520
   48CHL1   H4A 4664   1.235   5.847   6.004 -1.1432  1.8426  0.2009
   48CHL1   H4B 4665   1.348   5.980   6.056  1.0087  1.4693 -1.7288
   48CHL1    C5 4666   1.372   5.919   5.846 -0.6885 -0.4177  0.0488
   48CHL1    C6 4667   1.384   6.047   5.807  0.3582 -0.2483 -0.0171
   48CHL1    H6 4668   1.379   6.133   5.876  0.4744  0.2873 -0.6657
   48CHL1    C7 4669   1.429   6.082   5.666 -0.2693  0.7945  0.0292
   48CHL1   H7A 4670   1.374   6.172   5.632 -0.0741  0.9044 -0.0007
   48CHL1   H7B 4671   1.535   6.117   5.664 -0.4129  1.5091 -3.9383
   48CHL1    C8 4672   1.415   5.963   5.569 -0.3905  0.2742  0.1479
   48CHL1    H8 4673   1.306   5.950   5.553 -0.1065 -1.7498 -0.4436
   48CHL1   C14 4674   1.479   6.001   5.440  0.2628 -0.1516  0.1873
   48CHL1   H14 4675   1.588   6.019   5.454  0.1377  0.1193  0.8699
   48CHL1   C15 4676   1.425   6.129   5.370 -0.0682  0.2271  0.4051
   48CHL1  H15A 4677   1.314   6.134   5.369 -0.1708 -1.3853  0.6536
   48CHL1  H15B 4678   1.465   6.227   5.406  0.4145  2.0440 -4.3454
   48CHL1   C16 4679   1.474   6.113   5.224 -0.0640 -0.2476  0.1888
   48CHL1  H16A 4680   1.378   6.107   5.169  0.8676 -0.6661 -1.4463
   48CHL1  H16B 4681   1.542   6.199   5.203  1.2378 -1.1126  0.6975
   48CHL1   C17 4682   1.534   5.976   5.209 -0.0081 -0.0293  0.1594
   48CHL1   H17 4683   1.637   5.996   5.246 -0.0415  1.0602 -0.2887
   48CHL1   C13 4684   1.471   5.890   5.329 -0.0814 -0.7742 -0.5157
   48CHL1   C18 4685   1.333   5.860   5.285  0.0985 -0.4219  0.8801
   48CHL1  H18A 4686   1.281   5.948   5.241  1.5955  0.1021  0.1110
   48CHL1  H18B 4687   1.327   5.775   5.214  2.2211 -0.5255  0.7603
   48CHL1  H18C 4688   1.270   5.835   5.373 -0.7409  2.7382  1.2986
   48CHL1   C12 4689   1.545   5.759   5.377 -0.7356  0.2272 -0.7398
   48CHL1  H12A 4690   1.527   5.686   5.296  1.0015 -3.1496  1.6658
   48CHL1  H12B 4691   1.655   5.778   5.380 -0.4416 -1.4092  1.4160
   48CHL1   C11 4692   1.489   5.720   5.518  0.2223  0.2618  0.1940
   48CHL1  H11A 4693   1.388   5.680   5.495  0.7613 -0.8550 -0.2699
   48CHL1  H11B 4694   1.556   5.639   5.553  1.1975  0.7441 -0.5032
   48CHL1    C9 4695   1.480   5.835   5.632 -0.1437  0.1322  0.2551
   48CHL1    H9 4696   1.586   5.860   5.651 -0.3832  1.0727  0.3777
   48CHL1   C10 4697   1.408   5.796   5.763 -0.1696 -0.0642  0.0196
   48CHL1   C19 4698   1.273   5.720   5.740 -0.0333  0.7320 -0.0702
   48CHL1  H19A 4699   1.195   5.783   5.692 -1.3463 -1.0894 -0.4695
   48CHL1  H19B 4700   1.301   5.635   5.673  0.1099  0.3035  0.5291
   48CHL1  H19C 4701   1.233   5.680   5.835 -0.2813  0.4536 -0.2897
   48CHL1    C1 4702   1.503   5.695   5.847  0.3989  0.3188 -0.4343
   48CHL1   H1A 4703   1.504   5.609   5.777 -1.3318  1.3558 -1.8167
   48CHL1   H1B 4704   1.605   5.737   5.858  0.5707 -0.1793 -0.1100
   48CHL1    C2 4705   1.453   5.655   5.985  0.7547  0.3846 -1.3396
   48CHL1   H2A 4706   1.524   5.590   6.041 -0.1055 -0.4887 -1.2366
   48CHL1   H2B 4707   1.354   5.605   5.983  0.6295  0.6338 -1.3028
   48CHL1   C20 4708   1.521   5.917   5.060  0.3200 -0.1155 -0.1193
   48CHL1   H20 4709   1.415   5.907   5.029 -0.6558  3.9416  1.2179
   48CHL1   C21 4710   1.600   5.786   5.042 -0.0345  0.5051 -0.5949
   48CHL1  H21A 4711   1.631   5.751   4.941  1.4101 -1.1779  0.3801
   48CHL1  H21B 4712   1.684   5.789   5.114  1.5956  0.6468 -2.4292
   48CHL1  H21C 4713   1.537   5.699   5.071 -0.3981  1.0971  0.4050
   48CHL1   C22 4714   1.577   6.017   4.950 -0.0670  0.7144  0.3971
   48CHL1  H22A 4715   1.547   6.123   4.945 -2.0504  0.1477 -0.5313
   48CHL1  H22B 4716   1.687   6.010   4.968 -0.2992 -1.4495  1.3179
   48CHL1   C23 4717   1.554   5.962   4.807 -0.0864 -0.1518  0.2629
   48CHL1  H23A 4718   1.609   5.867   4.786  0.1853  0.6448 -3.3233
   48CHL1  H23B 4719   1.445   5.941   4.812 -0.2499  0.6675  0.2064
   48CHL1   C24 4720   1.573   6.056   4.685  0.2818  0.2951  0.2656
   48CHL1  H24A 4721   1.529   6.008   4.594  0.8528  3.5731 -1.9259
   48CHL1  H24B 4722   1.524   6.156   4.691  1.7003  1.8199 -5.8317
   48CHL1   C25 4723   1.727   6.092   4.663  0.5598  0.3809  0.6265
   48CHL1   H25 4724   1.776   6.132   4.754  0.5967 -1.4289  1.4360
   48CHL1   C26 4725   1.803   5.966   4.620  0.1868  0.7469 -0.0790
   48CHL1  H26A 4726   1.764   5.908   4.534  2.3053 -1.0210  0.0425
   48CHL1  H26B 4727   1.909   5.995   4.599  0.5912 -1.0992 -0.8184
   48CHL1  H26C 4728   1.824   5.901   4.707 -0.5990  1.7391  0.8843
   48CHL1   C27 4729   1.738   6.197   4.549  0.3374 -0.1880  0.1040
   48CHL1  H27A 4730   1.679   6.289   4.568 -0.7325 -1.0742  1.2968
   48CHL1  H27B 4731   1.847   6.215   4.536  0.5188  0.0323  1.7262
   48CHL1  H27C 4732   1.704   6.148   4.456  0.4115 -1.5224  0.7554
   49CHL1    C3 4733   3.652   5.764   2.599 -0.0668  0.4180 -1.0418
   49CHL1    H3 4734   3.742   5.825   2.622  1.5769 -1.6661 -1.7216
   49CHL1    O3 4735   3.630   5.766   2.457  0.1704  0.1322  0.0821
   49CHL1   H3' 4736   3.563   5.699   2.440  1.1359 -0.1816 -3.1734
   49CHL1    C4 4737   3.676   5.621   2.647 -0.4878 -0.6968  0.0958
   49CHL1   H4A 4738   3.598   5.548   2.614 -0.0173 -1.7572  1.2459
   49CHL1   H4B 4739   3.763   5.584   2.589  0.3061  0.5100  0.4791
   49CHL1    C5 4740   3.696   5.619   2.800  1.2738  0.0946 -0.0903
   49CHL1    C6 4741   3.804   5.565   2.854  0.1263 -0.7357  0.5342
   49CHL1    H6 4742   3.877   5.507   2.796  0.5206  1.5179 -1.3470
   49CHL1    C7 4743   3.820   5.566   3.005  0.3654 -1.4929 -0.1092
   49CHL1   H7A 4744   3.854   5.462   3.026 -0.6158 -1.8164 -0.1024
   49CHL1   H7B 4745   3.909   5.630   3.024  1.1431 -2.1172 -1.4547
   49CHL1    C8 4746   3.692   5.587   3.088 -0.3752  0.5917  0.4734
   49CHL1    H8 4747   3.626   5.499   3.077 -2.5207  2.3294 -1.3894
   49CHL1   C14 4748   3.732   5.613   3.230  0.5406 -0.0648  0.0886
   49CHL1   H14 4749   3.785   5.711   3.237  0.9867 -0.3407  0.6856
   49CHL1   C15 4750   3.831   5.513   3.298  0.4305  0.1019 -0.9444
   49CHL1  H15A 4751   3.827   5.407   3.264  0.4081  0.0773 -0.8648
   49CHL1  H15B 4752   3.937   5.542   3.282  0.6766 -1.0236 -1.4603
   49CHL1   C16 4753   3.794   5.532   3.450 -0.2903 -0.7280  0.3623
   49CHL1  H16A 4754   3.773   5.433   3.495  1.3060 -0.2805  2.1956
   49CHL1  H16B 4755   3.879   5.574   3.508 -2.0884 -0.4121  2.9500
   49CHL1   C17 4756   3.679   5.635   3.459 -0.8785  0.1720  0.4210
   49CHL1   H17 4757   3.732   5.733   3.463 -1.1832  0.2997  3.2042
   49CHL1   C13 4758   3.609   5.629   3.319  0.3434 -1.1359  0.6518
   49CHL1   C18 4759   3.514   5.508   3.317  0.3087 -0.1948 -0.4178
   49CHL1  H18A 4760   3.485   5.494   3.211  2.8425 -2.3865 -0.9312
   49CHL1  H18B 4761   3.552   5.411   3.356 -0.1752  0.0009  0.5948
   49CHL1  H18C 4762   3.426   5.535   3.379 -0.0049  3.3091 -2.1326
   49CHL1   C12 4763   3.537   5.754   3.272  0.0152 -0.3217 -0.1280
   49CHL1  H12A 4764   3.450   5.788   3.332  0.5002  1.3571 -0.2985
   49CHL1  H12B 4765   3.598   5.847   3.279 -0.2869 -0.1252 -0.0367
   49CHL1   C11 4766   3.499   5.744   3.122  0.4360  0.4247  0.5181
   49CHL1  H11A 4767   3.424   5.662   3.120  2.1387 -1.1977  0.4474
   49CHL1  H11B 4768   3.439   5.833   3.092 -0.8026 -0.5178  0.1300
   49CHL1    C9 4769   3.618   5.711   3.028 -0.6642  0.2279  0.0309
   49CHL1    H9 4770   3.688   5.795   3.044 -0.7904  0.5472 -1.0193
   49CHL1   C10 4771   3.586   5.692   2.876 -0.1571  0.5694 -0.2696
   49CHL1   C19 4772   3.460   5.605   2.864 -0.3167  0.0238  0.4181
   49CHL1  H19A 4773   3.370   5.658   2.900  0.0543  0.2115  1.0839
   49CHL1  H19B 4774   3.435   5.575   2.760  0.6477 -0.7804  0.4003
   49CHL1  H19C 4775   3.474   5.507   2.915 -3.1005 -0.7446 -0.1710
   49CHL1    C1 4776   3.559   5.828   2.817  0.7550  0.1757 -0.1171
   49CHL1   H1A 4777   3.472   5.875   2.868  0.5641 -0.2693 -0.0312
   49CHL1   H1B 4778   3.650   5.887   2.843  0.4007  0.2795  0.9422
   49CHL1    C2 4779   3.530   5.823   2.670  0.1183 -0.4893  0.1791
   49CHL1   H2A 4780   3.525   5.931   2.647 -0.2410 -0.1249  1.8256
   49CHL1   H2B 4781   3.437   5.768   2.643 -0.3937  0.5840 -0.3124
   49CHL1   C20 4782   3.603   5.614   3.587 -0.4388  0.0868 -0.0009
   49CHL1   H20 4783   3.545   5.520   3.583 -1.6847  0.7413  1.5589
   49CHL1   C21 4784   3.504   5.733   3.609 -0.9678  0.8639 -0.5457
   49CHL1  H21A 4785   3.550   5.831   3.585 -0.7055  0.9500  0.2631
   49CHL1  H21B 4786   3.450   5.737   3.707  0.0117 -0.0491  0.0544
   49CHL1  H21C 4787   3.411   5.719   3.550 -0.8784 -0.9074 -0.3126
   49CHL1   C22 4788   3.699   5.600   3.717  0.4444  0.5592 -0.4180
   49CHL1  H22A 4789   3.767   5.513   3.714 -1.5201 -1.0605 -0.1913
   49CHL1  H22B 4790   3.763   5.691   3.722 -0.5933  1.3798 -1.5432
   49CHL1   C23 4791   3.615   5.579   3.847  0.1931 -0.1840 -0.4121
   49CHL1  H23A 4792   3.552   5.666   3.875  1.0966  0.2136  0.4196
   49CHL1  H23B 4793   3.548   5.491   3.831 -0.4707  0.2127  0.1424
   49CHL1   C24 4794   3.703   5.540   3.970 -0.0728 -0.5728  0.7149
   49CHL1  H24A 4795   3.647   5.506   4.059 -1.5357 -0.5261 -0.1539
   49CHL1  H24B 4796   3.770   5.455   3.945  0.7650  0.1572  0.3903
   49CHL1   C25 4797   3.799   5.654   4.013  0.1233  0.0485  0.0193
   49CHL1   H25 4798   3.879   5.668   3.938  2.0960 -1.3155  1.7582
   49CHL1   C26 4799   3.719   5.785   4.040 -0.0460  0.0521 -0.0477
   49CHL1  H26A 4800   3.675   5.831   3.948 -2.3171 -1.6546  0.0996
   49CHL1  H26B 4801   3.630   5.752   4.098 -1.1792  0.2370 -1.6095
   49CHL1  H26C 4802   3.774   5.864   4.095 -1.1349  1.1342 -0.4574
   49CHL1   C27 4803   3.878   5.620   4.135  0.3983 -0.1451 -0.1542
   49CHL1  H27A 4804   3.816   5.604   4.226  1.4582  0.9551  0.8028
   49CHL1  H27B 4805   3.952   5.539   4.119  2.2084  1.6255 -1.1954
   49CHL1  H27C 4806   3.931   5.716   4.153  0.8041 -0.5006  0.6305
   50CHL1    C3 4807   1.644   2.092   2.754 -0.5963 -0.2741 -0.3310
   50CHL1    H3 4808   1.575   2.170   2.790 -0.8523 -0.2322 -0.8890
   50CHL1    O3 4809   1.642   2.091   2.614  0.2963 -1.0859 -0.0451
   50CHL1   H3' 4810   1.682   2.010   2.582  1.0111 -0.7936  0.0990
   50CHL1    C4 4811   1.786   2.112   2.806  0.4322 -0.0790  0.1737
   50CHL1   H4A 4812   1.850   2.033   2.761 -0.4021 -1.1788  0.8552
   50CHL1   H4B 4813   1.825   2.210   2.771  0.4713  0.5269  1.8437
   50CHL1    C5 4814   1.795   2.107   2.955 -0.2856  0.8990 -0.1636
   50CHL1    C6 4815   1.853   2.211   3.029 -0.5313 -0.5990 -0.2813
   50CHL1    H6 4816   1.894   2.297   2.974 -1.7819  0.0300 -0.2815
   50CHL1    C7 4817   1.863   2.219   3.182  0.4603  0.4537  0.4223
   50CHL1   H7A 4818   1.966   2.250   3.211  1.2881 -0.9729 -0.8277
   50CHL1   H7B 4819   1.796   2.298   3.221 -0.6842  0.4283 -1.3294
   50CHL1    C8 4820   1.837   2.075   3.235 -0.4636  0.1168 -0.9426
   50CHL1    H8 4821   1.926   2.013   3.210 -0.6266  0.1724 -1.6658
   50CHL1   C14 4822   1.820   2.078   3.388  0.2334 -0.0049 -0.0674
   50CHL1   H14 4823   1.739   2.151   3.410  0.3180  0.3096 -0.7839
   50CHL1   C15 4824   1.942   2.131   3.456 -0.1713 -0.1253 -1.0731
   50CHL1  H15A 4825   2.034   2.086   3.412  1.4410  0.9017  1.0552
   50CHL1  H15B 4826   1.958   2.241   3.456  0.1204 -0.1630 -1.5627
   50CHL1   C16 4827   1.936   2.087   3.609 -0.5647 -0.0217 -0.1182
   50CHL1  H16A 4828   2.032   2.036   3.634 -1.1632 -0.2787  1.8137
   50CHL1  H16B 4829   1.937   2.181   3.667  2.2205 -0.3502  0.5227
   50CHL1   C17 4830   1.803   2.005   3.615  0.3586  0.5569  0.2737
   50CHL1   H17 4831   1.726   2.081   3.640  0.4076  0.5288  0.5085
   50CHL1   C13 4832   1.778   1.951   3.469 -0.6257 -0.1498 -0.2129
   50CHL1   C18 4833   1.888   1.838   3.436  0.0628  0.3449 -0.1009
   50CHL1  H18A 4834   1.826   1.746   3.428  0.2409  0.2514 -0.4072
   50CHL1  H18B 4835   1.938   1.837   3.337  1.2071 -2.6717  0.3969
   50CHL1  H18C 4836   1.962   1.829   3.518 -1.5267  1.0966  1.4817
   50CHL1   C12 4837   1.640   1.915   3.412 -0.1854  0.1257 -0.7649
   50CHL1  H12A 4838   1.618   1.817   3.461  1.3344 -1.1664 -2.5297
   50CHL1  H12B 4839   1.565   1.992   3.441  0.3423 -0.3195  2.0869
   50CHL1   C11 4840   1.649   1.897   3.260  0.5336 -0.4126  0.0639
   50CHL1  H11A 4841   1.703   1.804   3.234 -1.7515 -1.9073  0.4026
   50CHL1  H11B 4842   1.543   1.872   3.240  0.4717  0.9846 -1.6864
   50CHL1    C9 4843   1.709   2.007   3.172 -0.1476 -0.7325 -0.0981
   50CHL1    H9 4844   1.635   2.090   3.167 -0.6753 -1.2872 -2.0014
   50CHL1   C10 4845   1.729   1.979   3.020 -0.4044 -0.1158 -0.3087
   50CHL1   C19 4846   1.827   1.859   3.005  0.1543 -0.1107  0.7060
   50CHL1  H19A 4847   1.774   1.768   3.040  1.3148 -0.4886  1.5784
   50CHL1  H19B 4848   1.851   1.840   2.899  0.8261  0.3607  0.7657
   50CHL1  H19C 4849   1.925   1.872   3.057 -0.4684  1.0180  1.6755
   50CHL1    C1 4850   1.592   1.944   2.948  0.5142  0.0243 -0.8046
   50CHL1   H1A 4851   1.550   1.850   2.989  0.3031  1.2136  1.8463
   50CHL1   H1B 4852   1.517   2.021   2.973 -1.4281 -0.6320 -3.9815
   50CHL1    C2 4853   1.596   1.948   2.797 -0.4341 -0.5478  0.0788
   50CHL1   H2A 4854   1.493   1.926   2.761  0.4410  0.5162 -3.4488
   50CHL1   H2B 4855   1.667   1.877   2.750 -1.5652  0.2254 -2.9983
   50CHL1   C20 4856   1.800   1.897   3.725 -0.2898  0.8724  0.4810
   50CHL1   H20 4857   1.881   1.821   3.711  0.7106  1.9582  0.2317
   50CHL1   C21 4858   1.661   1.828   3.730  0.4733  0.6541 -0.4673
   50CHL1  H21A 4859   1.645   1.754   3.649  1.1867 -0.8566  0.7207
   50CHL1  H21B 4860   1.587   1.911   3.723  1.2187  1.7040  2.5937
   50CHL1  H21C 4861   1.648   1.759   3.816  1.7507  2.2948  1.1181
   50CHL1   C22 4862   1.834   1.964   3.859 -0.0062  0.4432 -0.4998
   50CHL1  H22A 4863   1.926   2.027   3.854  0.0178  0.2934 -2.9272
   50CHL1  H22B 4864   1.750   2.024   3.900 -0.6758 -0.6241 -0.2614
   50CHL1   C23 4865   1.868   1.862   3.979 -0.4063 -0.2837  0.0839
   50CHL1  H23A 4866   1.766   1.836   4.015 -0.0588 -2.3288 -0.2724
   50CHL1  H23B 4867   1.926   1.773   3.943  0.6423 -0.2282  1.5333
   50CHL1   C24 4868   1.953   1.933   4.093 -0.1270 -1.1481 -0.2988
   50CHL1  H24A 4869   2.062   1.920   4.075  0.1775 -1.7619  1.7231
   50CHL1  H24B 4870   1.927   2.040   4.090  2.5815 -0.3127  1.6765
   50CHL1   C25 4871   1.936   1.874   4.228  0.2756  0.2463 -0.0590
   50CHL1   H25 4872   1.941   1.764   4.222 -0.8770  0.2180 -0.6609
   50CHL1   C26 4873   2.060   1.925   4.311  0.0254  0.5838 -0.7086
   50CHL1  H26A 4874   2.075   2.035   4.312 -1.2093  0.7746  0.8151
   50CHL1  H26B 4875   2.030   1.906   4.416 -1.6268 -1.9903 -1.5510
   50CHL1  H26C 4876   2.157   1.884   4.276 -1.4197 -0.1720 -4.3423
   50CHL1   C27 4877   1.809   1.913   4.292  0.7203 -1.1544 -0.1285
   50CHL1  H27A 4878   1.814   2.024   4.294 -0.3423 -1.0750 -0.9787
   50CHL1  H27B 4879   1.721   1.876   4.234  0.7484 -1.0894 -0.2116
   50CHL1  H27C 4880   1.798   1.873   4.395 -3.0592 -2.2291 -0.7916
   51CHL1    C3 4881   3.195   2.927   3.105  1.0222  0.8266 -0.7384
   51CHL1    H3 4882   3.279   2.995   3.131 -0.1659  1.7812  0.8028
   51CHL1    O3 4883   3.209   2.904   2.965 -0.0768 -0.1396 -0.2606
   51CHL1   H3' 4884   3.228   2.811   2.956  2.1385  0.3187 -0.9376
   51CHL1    C4 4885   3.194   2.792   3.180  0.5628  0.2039  0.3230
   51CHL1   H4A 4886   3.112   2.730   3.138 -1.1514  1.6728  1.3352
   51CHL1   H4B 4887   3.288   2.739   3.153  2.0116  2.3894  0.8005
   51CHL1    C5 4888   3.162   2.808   3.327 -0.5134  0.3565  0.1341
   51CHL1    C6 4889   3.235   2.738   3.415 -0.7674  0.0562  0.3905
   51CHL1    H6 4890   3.314   2.670   3.380 -0.6855  0.7676 -0.8304
   51CHL1    C7 4891   3.225   2.747   3.560 -0.2403  0.0689  0.2448
   51CHL1   H7A 4892   3.219   2.644   3.603  0.8509 -0.1782 -0.1711
   51CHL1   H7B 4893   3.317   2.800   3.593  0.3118 -0.1011 -0.9849
   51CHL1    C8 4894   3.095   2.826   3.605 -0.0776 -0.7017 -0.5896
   51CHL1    H8 4895   3.019   2.746   3.597 -0.8151 -0.5181  3.1923
   51CHL1   C14 4896   3.114   2.875   3.749  0.0122 -0.7040 -0.2617
   51CHL1   H14 4897   3.198   2.947   3.754 -1.6149  1.2728 -0.0264
   51CHL1   C15 4898   3.168   2.774   3.858  0.7711 -0.4151  0.2390
   51CHL1  H15A 4899   3.117   2.681   3.827 -1.9081  1.4448 -1.3258
   51CHL1  H15B 4900   3.277   2.761   3.874  0.9280  1.1940  0.7087
   51CHL1   C16 4901   3.103   2.830   3.987  0.3477  0.3514  0.4753
   51CHL1  H16A 4902   3.041   2.747   4.028  1.3275 -1.0804 -0.8891
   51CHL1  H16B 4903   3.183   2.863   4.057  0.6963 -2.8908  1.7545
   51CHL1   C17 4904   3.016   2.955   3.961 -0.3891 -0.5698 -0.3171
   51CHL1   H17 4905   3.084   3.043   3.957 -1.2766  0.0826 -2.0521
   51CHL1   C13 4906   2.983   2.929   3.813  0.1182  0.1794  0.0600
   51CHL1   C18 4907   2.866   2.821   3.818  0.4698 -0.1455  0.1854
   51CHL1  H18A 4908   2.829   2.774   3.724  0.2205 -1.1479  0.7704
   51CHL1  H18B 4909   2.886   2.747   3.898  0.5324  1.1644  1.4338
   51CHL1  H18C 4910   2.767   2.865   3.844 -0.8305 -2.2682 -0.8165
   51CHL1   C12 4911   2.932   3.047   3.721 -0.0254  0.1263 -0.5343
   51CHL1  H12A 4912   2.828   3.072   3.752 -0.5191 -2.0092 -0.2517
   51CHL1  H12B 4913   3.005   3.130   3.728 -0.9354  0.9212 -0.2527
   51CHL1   C11 4914   2.924   3.009   3.574  0.3459  0.1625 -0.1430
   51CHL1  H11A 4915   2.843   2.933   3.575  1.6295 -1.2868 -1.5012
   51CHL1  H11B 4916   2.894   3.100   3.518 -3.4133 -0.7892  0.0548
   51CHL1    C9 4917   3.057   2.949   3.519  0.7335  0.1073  0.9234
   51CHL1    H9 4918   3.140   3.023   3.522  0.8549 -0.0195  0.7466
   51CHL1   C10 4919   3.054   2.909   3.363 -0.7824 -0.1338  0.2320
   51CHL1   C19 4920   2.916   2.838   3.331 -0.7674 -0.2100  0.1800
   51CHL1  H19A 4921   2.889   2.757   3.401  0.0591 -2.0058 -1.4885
   51CHL1  H19B 4922   2.829   2.907   3.343 -1.6258 -1.5986  2.5120
   51CHL1  H19C 4923   2.912   2.804   3.225 -2.4353  1.7878 -0.4766
   51CHL1    C1 4924   3.070   3.039   3.282 -0.6690  0.0437 -0.0489
   51CHL1   H1A 4925   2.986   3.106   3.308  0.4892  0.9255  1.6080
   51CHL1   H1B 4926   3.163   3.089   3.316 -0.7893  0.1251  0.1587
   51CHL1    C2 4927   3.078   3.017   3.132 -0.0962 -0.6063  0.3319
   51CHL1   H2A 4928   3.075   3.115   3.079 -0.9653 -0.6601  0.2592
   51CHL1   H2B 4929   2.981   2.975   3.096 -0.5044  0.4502  0.1446
   51CHL1   C20 4930   2.910   2.988   4.068 -0.5770 -0.4031  0.0595
   51CHL1   H20 4931   2.814   2.933   4.056 -0.6764 -0.0190 -1.0835
   51CHL1   C21 4932   2.884   3.142   4.052 -0.1036 -0.1089  0.3321
   51CHL1  H21A 4933   2.788   3.161   4.106 -1.5589  0.8614 -2.3935
   51CHL1  H21B 4934   2.870   3.179   3.948  0.7982 -2.3158 -0.6194
   51CHL1  H21C 4935   2.961   3.212   4.092 -0.5374 -0.7611  2.4848
   51CHL1   C22 4936   2.952   2.958   4.214  0.0432  0.2951  0.2089
   51CHL1  H22A 4937   2.985   2.853   4.231 -2.0143 -0.3234  0.6319
   51CHL1  H22B 4938   3.035   3.030   4.227 -0.5547  0.9722  0.3138
   51CHL1   C23 4939   2.847   2.980   4.315 -0.6833 -0.0908  0.2636
   51CHL1  H23A 4940   2.839   3.089   4.335  1.2070 -0.0264  0.9049
   51CHL1  H23B 4941   2.750   2.944   4.275 -1.0675  1.2184 -0.0368
   51CHL1   C24 4942   2.867   2.918   4.456  0.0967  0.2743  0.1988
   51CHL1  H24A 4943   2.864   2.807   4.460  0.0855  0.2885  0.6342
   51CHL1  H24B 4944   2.969   2.939   4.494  0.5438 -0.1541 -0.7424
   51CHL1   C25 4945   2.764   2.963   4.561  0.9048  0.0344  0.2135
   51CHL1   H25 4946   2.788   2.900   4.649 -1.2335 -1.7604 -0.4032
   51CHL1   C26 4947   2.788   3.113   4.605  0.4828  0.7321  0.4899
   51CHL1  H26A 4948   2.897   3.127   4.592  0.1863  0.9606 -2.6726
   51CHL1  H26B 4949   2.740   3.191   4.541  0.8649 -0.7475 -1.7279
   51CHL1  H26C 4950   2.756   3.131   4.710  2.2574  1.5905  0.9097
   51CHL1   C27 4951   2.613   2.937   4.533  0.6922 -0.8543 -0.0149
   51CHL1  H27A 4952   2.551   2.982   4.613 -0.8516  1.9128 -2.5604
   51CHL1  H27B 4953   2.571   2.983   4.441  0.6680  2.4389  1.5198
   51CHL1  H27C 4954   2.580   2.831   4.527 -0.3585 -0.6261  1.1686
   52CHL1    C3 4955   3.443   6.317   2.881 -0.0013  0.5745 -0.3156
   52CHL1    H3 4956   3.496   6.414   2.889  0.6631  0.1497  0.5312
   52CHL1    O3 4957   3.426   6.275   2.750 -0.4966 -0.2392  0.3750
   52CHL1   H3' 4958   3.373   6.196   2.745  0.2856 -0.7479 -0.2679
   52CHL1    C4 4959   3.528   6.205   2.957 -0.4769  0.0842 -0.3176
   52CHL1   H4A 4960   3.485   6.102   2.952 -1.8706  0.5823  0.5892
   52CHL1   H4B 4961   3.625   6.205   2.903 -0.3661  2.9226 -0.2544
   52CHL1    C5 4962   3.552   6.243   3.104  0.0059  0.3855 -0.0946
   52CHL1    C6 4963   3.674   6.255   3.149 -0.4104  0.7083 -0.0583
   52CHL1    H6 4964   3.751   6.242   3.072 -1.2328 -0.1729 -0.7401
   52CHL1    C7 4965   3.713   6.293   3.293  0.1701 -0.3253  0.7843
   52CHL1   H7A 4966   3.796   6.227   3.327 -0.0414 -0.8243  0.3478
   52CHL1   H7B 4967   3.748   6.398   3.296  3.1758 -1.2345  1.1545
   52CHL1    C8 4968   3.588   6.277   3.386  0.1534  0.2480  0.0294
   52CHL1    H8 4969   3.569   6.169   3.403  1.2685 -0.0258 -0.4182
   52CHL1   C14 4970   3.608   6.353   3.518  0.5652  0.5976  0.3623
   52CHL1   H14 4971   3.613   6.461   3.490  1.6890  1.0828  2.2480
   52CHL1   C15 4972   3.742   6.331   3.593  0.4454  0.1702  0.1229
   52CHL1  H15A 4973   3.772   6.224   3.608 -1.5227 -0.2743  1.2997
   52CHL1  H15B 4974   3.828   6.386   3.550  0.3843 -1.2686 -2.0220
   52CHL1   C16 4975   3.710   6.381   3.743  0.2809  0.5409  0.4825
   52CHL1  H16A 4976   3.726   6.299   3.817 -2.0550 -2.1965 -1.7913
   52CHL1  H16B 4977   3.780   6.466   3.753  0.0169  1.0943 -1.9439
   52CHL1   C17 4978   3.563   6.430   3.735  0.3978 -0.2742  0.2169
   52CHL1   H17 4979   3.548   6.536   3.705 -3.4432 -0.6960  0.1877
   52CHL1   C13 4980   3.500   6.342   3.621 -0.3230  0.5969  0.1698
   52CHL1   C18 4981   3.479   6.194   3.661 -0.2403  0.1388 -0.0794
   52CHL1  H18A 4982   3.572   6.138   3.685 -1.1211  0.0209  3.5557
   52CHL1  H18B 4983   3.423   6.183   3.756  2.2109 -3.5367  1.1281
   52CHL1  H18C 4984   3.417   6.138   3.588  1.1250 -0.6687 -0.6657
   52CHL1   C12 4985   3.374   6.407   3.556 -0.2666 -0.2630  0.2397
   52CHL1  H12A 4986   3.285   6.404   3.623  0.3550  0.1674  1.1125
   52CHL1  H12B 4987   3.390   6.515   3.537 -1.0820 -0.3135 -0.8051
   52CHL1   C11 4988   3.332   6.329   3.429 -0.0071  0.3879  0.6755
   52CHL1  H11A 4989   3.318   6.222   3.457 -0.6224  0.0109 -0.9440
   52CHL1  H11B 4990   3.240   6.380   3.393  0.0253 -1.4070 -2.2553
   52CHL1    C9 4991   3.451   6.324   3.327 -1.0418  0.5782  0.2042
   52CHL1    H9 4992   3.470   6.431   3.304  0.9811  0.5288  1.3679
   52CHL1   C10 4993   3.415   6.266   3.185 -0.1020 -0.3858 -0.4328
   52CHL1   C19 4994   3.342   6.130   3.199 -0.0644 -0.0443 -0.2596
   52CHL1  H19A 4995   3.312   6.083   3.103 -0.7666 -1.5572  0.6792
   52CHL1  H19B 4996   3.396   6.051   3.256 -1.2082 -0.7868 -0.1819
   52CHL1  H19C 4997   3.256   6.142   3.268  0.8999 -2.1656  1.4234
   52CHL1    C1 4998   3.334   6.364   3.112 -0.7045 -0.3353  0.2753
   52CHL1   H1A 4999   3.238   6.384   3.164 -0.3005 -0.4017  1.0556
   52CHL1   H1B 5000   3.382   6.465   3.115 -0.9372 -0.2098 -0.1781
   52CHL1    C2 5001   3.315   6.331   2.959  0.1501  0.1058 -0.2697
   52CHL1   H2A 5002   3.260   6.415   2.913  2.4544  1.9241  0.0880
   52CHL1   H2B 5003   3.258   6.236   2.950 -0.1734  0.4728 -2.6211
   52CHL1   C20 5004   3.499   6.421   3.871 -0.1028 -0.0577 -0.6827
   52CHL1   H20 5005   3.509   6.318   3.910 -0.0945  0.5497  1.0198
   52CHL1   C21 5006   3.344   6.455   3.869 -0.2271 -0.6166  0.6590
   52CHL1  H21A 5007   3.313   6.481   3.972  2.9636 -1.0254  1.8312
   52CHL1  H21B 5008   3.288   6.376   3.814 -0.7959  1.8941 -2.7329
   52CHL1  H21C 5009   3.330   6.540   3.798 -0.7459 -1.8197 -0.7474
   52CHL1   C22 5010   3.584   6.499   3.975 -0.2663 -0.8785 -0.2472
   52CHL1  H22A 5011   3.692   6.470   3.976  0.2273  0.5546  3.1125
   52CHL1  H22B 5012   3.591   6.601   3.931 -0.1834 -1.5468 -1.8192
   52CHL1   C23 5013   3.547   6.496   4.123 -0.2944 -0.7672  0.8485
   52CHL1  H23A 5014   3.451   6.552   4.117 -0.4337 -1.1622 -1.6536
   52CHL1  H23B 5015   3.540   6.390   4.156 -2.1072 -0.6631  0.8844
   52CHL1   C24 5016   3.637   6.581   4.219 -0.1362 -0.2048 -0.0777
   52CHL1  H24A 5017   3.736   6.530   4.215 -0.0868 -0.1355  0.2332
   52CHL1  H24B 5018   3.648   6.681   4.173 -2.5909  0.5463  0.8360
   52CHL1   C25 5019   3.593   6.598   4.364 -0.3212  0.7434 -0.5549
   52CHL1   H25 5020   3.494   6.649   4.366 -0.8757 -0.3133 -0.2674
   52CHL1   C26 5021   3.594   6.455   4.433  0.3121 -0.0690 -0.8268
   52CHL1  H26A 5022   3.555   6.472   4.535 -1.9968 -1.5160 -1.3651
   52CHL1  H26B 5023   3.510   6.406   4.377 -1.3168  2.4911 -0.7789
   52CHL1  H26C 5024   3.691   6.402   4.428 -0.1315 -1.3628  2.1159
   52CHL1   C27 5025   3.695   6.691   4.428 -0.0718  0.1564 -0.3444
   52CHL1  H27A 5026   3.795   6.642   4.427  0.2974  0.8932 -0.5827
   52CHL1  H27B 5027   3.703   6.782   4.365 -0.7292 -0.2337 -1.0108
   52CHL1  H27C 5028   3.672   6.715   4.535 -1.1642 -2.5173  0.0897
   53CHL1    C3 5029   3.503   4.628   3.038  0.4702  0.3484 -0.4427
   53CHL1    H3 5030   3.501   4.738   3.053 -0.1063  0.1645  0.9677
   53CHL1    O3 5031   3.503   4.592   2.900 -0.4506 -0.2985  0.2246
   53CHL1   H3' 5032   3.518   4.498   2.894 -1.6310 -0.4273 -1.4627
   53CHL1    C4 5033   3.623   4.567   3.112  0.7150  0.0589  0.0656
   53CHL1   H4A 5034   3.619   4.460   3.082 -0.7471  0.1899 -0.3131
   53CHL1   H4B 5035   3.712   4.614   3.065  0.3686  1.6804  0.9730
   53CHL1    C5 5036   3.617   4.583   3.264 -0.2192 -0.1010  0.1459
   53CHL1    C6 5037   3.716   4.636   3.337  0.5367  0.7279  0.1929
   53CHL1    H6 5038   3.807   4.668   3.285  0.4350  2.8175  1.2173
   53CHL1    C7 5039   3.722   4.650   3.482  0.4788 -0.9511 -0.1319
   53CHL1   H7A 5040   3.814   4.603   3.523 -0.1610 -0.1614  2.4212
   53CHL1   H7B 5041   3.735   4.757   3.507  0.9112 -1.4549  1.9722
   53CHL1    C8 5042   3.595   4.589   3.555 -0.0691  0.1276  0.1074
   53CHL1    H8 5043   3.618   4.485   3.588  2.9296  1.3637  2.4185
   53CHL1   C14 5044   3.571   4.662   3.686  0.0973  0.4763 -0.1048
   53CHL1   H14 5045   3.558   4.771   3.669 -0.2030  0.3427 -0.7807
   53CHL1   C15 5046   3.684   4.670   3.775 -1.4438 -0.2703 -0.4980
   53CHL1  H15A 5047   3.750   4.581   3.770  3.0581  2.6490  0.6749
   53CHL1  H15B 5048   3.751   4.757   3.758 -0.9839 -0.3765  0.6900
   53CHL1   C16 5049   3.632   4.682   3.919 -0.3004 -0.2809  0.8791
   53CHL1  H16A 5050   3.648   4.590   3.979  0.9934 -0.9827 -0.4835
   53CHL1  H16B 5051   3.668   4.773   3.972 -0.1844  0.7848 -0.9653
   53CHL1   C17 5052   3.478   4.691   3.903 -0.1871  0.5376  0.1797
   53CHL1   H17 5053   3.457   4.800   3.893  0.7003  0.8464  1.4012
   53CHL1   C13 5054   3.455   4.612   3.774  1.1720 -0.2332  0.9356
   53CHL1   C18 5055   3.462   4.459   3.801  0.5167 -0.4751  0.2658
   53CHL1  H18A 5056   3.557   4.432   3.852  1.4102  0.1161 -1.0189
   53CHL1  H18B 5057   3.378   4.423   3.864 -0.0312 -0.5902 -0.5210
   53CHL1  H18C 5058   3.460   4.404   3.705 -0.4138  1.5118 -0.9238
   53CHL1   C12 5059   3.333   4.656   3.687 -0.2861  0.6977 -0.0945
   53CHL1  H12A 5060   3.237   4.627   3.734  0.1699  1.5071  1.4104
   53CHL1  H12B 5061   3.332   4.766   3.680 -0.3917  0.5929 -2.2433
   53CHL1   C11 5062   3.331   4.597   3.550  0.1273  0.0949  1.2529
   53CHL1  H11A 5063   3.322   4.487   3.558 -0.6428  0.1403  1.0951
   53CHL1  H11B 5064   3.241   4.625   3.491  0.3185  0.9191  1.3414
   53CHL1    C9 5065   3.466   4.615   3.475 -0.2418 -0.6428  0.2748
   53CHL1    H9 5066   3.464   4.726   3.464 -1.8892 -0.4117  2.3104
   53CHL1   C10 5067   3.483   4.552   3.332 -0.0037  0.6074 -0.1003
   53CHL1   C19 5068   3.481   4.401   3.352  0.1316 -1.2086 -0.2086
   53CHL1  H19A 5069   3.564   4.366   3.418  1.2346 -1.0239 -1.4565
   53CHL1  H19B 5070   3.382   4.365   3.388 -0.2020 -0.5578 -0.4705
   53CHL1  H19C 5071   3.487   4.350   3.253 -1.4277 -3.5841  0.8215
   53CHL1    C1 5072   3.363   4.606   3.244 -0.7222 -0.9401 -0.4843
   53CHL1   H1A 5073   3.264   4.574   3.284 -1.6192  2.7564  0.6602
   53CHL1   H1B 5074   3.368   4.717   3.248  3.4168 -0.9722 -0.5857
   53CHL1    C2 5075   3.368   4.572   3.090 -0.0857 -0.5584  0.1692
   53CHL1   H2A 5076   3.286   4.634   3.047  0.4837 -0.5263 -0.9124
   53CHL1   H2B 5077   3.367   4.464   3.065  0.9994 -0.0903 -2.1707
   53CHL1   C20 5078   3.400   4.645   4.029  0.0903 -0.3859 -0.1231
   53CHL1   H20 5079   3.428   4.540   4.053  1.1720 -0.6838 -2.3698
   53CHL1   C21 5080   3.253   4.655   4.011  0.3038 -0.6737  0.4426
   53CHL1  H21A 5081   3.232   4.762   3.987  1.1725 -0.6842 -0.4147
   53CHL1  H21B 5082   3.198   4.616   4.100 -2.5992  1.1954 -0.3655
   53CHL1  H21C 5083   3.234   4.593   3.920  3.5548  2.2334 -2.5062
   53CHL1   C22 5084   3.444   4.731   4.152 -0.3664 -0.7913 -0.1690
   53CHL1  H22A 5085   3.551   4.717   4.179 -0.5416  1.9903  2.3855
   53CHL1  H22B 5086   3.435   4.835   4.115  0.3659 -1.1074 -1.3259
   53CHL1   C23 5087   3.358   4.713   4.285  0.0164 -0.0923  0.4029
   53CHL1  H23A 5088   3.249   4.722   4.268 -0.1265 -1.5538  0.3519
   53CHL1  H23B 5089   3.388   4.619   4.337  3.7812  1.5525  1.5075
   53CHL1   C24 5090   3.400   4.812   4.401  0.3453  0.4016  0.2193
   53CHL1  H24A 5091   3.505   4.788   4.428 -0.2440  0.0502  2.3053
   53CHL1  H24B 5092   3.391   4.919   4.370 -0.4848  0.1447 -0.4899
   53CHL1   C25 5093   3.318   4.795   4.532 -0.5076  0.1493 -0.9468
   53CHL1   H25 5094   3.303   4.687   4.552 -2.6565  0.3967 -0.9348
   53CHL1   C26 5095   3.398   4.862   4.647  0.2064 -0.0666  0.9288
   53CHL1  H26A 5096   3.402   4.972   4.632  2.3295 -0.1392  0.6299
   53CHL1  H26B 5097   3.354   4.831   4.744 -1.0478 -1.4080 -0.0324
   53CHL1  H26C 5098   3.506   4.836   4.636  0.9160  2.7842  0.3216
   53CHL1   C27 5099   3.184   4.861   4.517  0.8275  0.2361 -0.1172
   53CHL1  H27A 5100   3.121   4.799   4.450  0.5603  0.2714  0.0972
   53CHL1  H27B 5101   3.131   4.864   4.615  3.2427  0.9925  1.2758
   53CHL1  H27C 5102   3.187   4.963   4.473  0.3375 -0.0047 -0.7244
   54CHL1    C3 5103   2.991   4.385   2.664 -0.0256  0.1888  0.2808
   54CHL1    H3 5104   3.024   4.293   2.717  0.0349  0.2455  0.3425
   54CHL1    O3 5105   2.999   4.373   2.525 -0.4262  0.2248 -0.1250
   54CHL1   H3' 5106   2.910   4.358   2.494  0.4134 -0.3387 -2.5548
   54CHL1    C4 5107   2.838   4.403   2.697 -0.0326 -0.1681  0.3331
   54CHL1   H4A 5108   2.803   4.497   2.651  0.0855  0.6354  1.8348
   54CHL1   H4B 5109   2.769   4.324   2.660 -1.5350  1.6594 -0.8903
   54CHL1    C5 5110   2.826   4.415   2.848  0.3440  0.2600 -0.3155
   54CHL1    C6 5111   2.747   4.322   2.909  0.9926 -0.2158 -0.6699
   54CHL1    H6 5112   2.690   4.244   2.856  1.0201 -0.7281  0.0413
   54CHL1    C7 5113   2.717   4.316   3.060  0.4913  0.0713  0.1022
   54CHL1   H7A 5114   2.607   4.308   3.074  0.5535  1.7088  2.0650
   54CHL1   H7B 5115   2.757   4.221   3.101 -0.6762 -0.5887 -0.2648
   54CHL1    C8 5116   2.759   4.452   3.134 -0.3401  0.2837 -0.4246
   54CHL1    H8 5117   2.684   4.527   3.102 -0.9376 -0.4802 -0.8694
   54CHL1   C14 5118   2.764   4.437   3.287  0.0324  0.4348  0.1068
   54CHL1   H14 5119   2.835   4.353   3.302  0.9268  1.1461 -0.0470
   54CHL1   C15 5120   2.630   4.390   3.360  0.2053 -0.9143 -0.1784
   54CHL1  H15A 5121   2.543   4.447   3.320  0.5574  0.0316  0.3780
   54CHL1  H15B 5122   2.603   4.282   3.359  1.3891 -1.2272 -0.6560
   54CHL1   C16 5123   2.660   4.427   3.511  0.3065 -0.5287  0.3634
   54CHL1  H16A 5124   2.583   4.503   3.536  0.8619 -0.0673  0.7233
   54CHL1  H16B 5125   2.667   4.344   3.585  0.4903 -2.7354 -2.0134
   54CHL1   C17 5126   2.797   4.503   3.515 -0.1220  0.3265 -0.3502
   54CHL1   H17 5127   2.876   4.426   3.528 -1.0291 -0.5773 -0.1105
   54CHL1   C13 5128   2.824   4.545   3.373  0.5626  0.1470  0.3715
   54CHL1   C18 5129   2.739   4.676   3.351  0.4487 -0.0163 -0.0431
   54CHL1  H18A 5130   2.718   4.687   3.243 -0.5099  1.9928  0.3037
   54CHL1  H18B 5131   2.643   4.681   3.406  0.1273  0.9792 -0.6708
   54CHL1  H18C 5132   2.795   4.768   3.379 -1.4461  1.2481 -0.2556
   54CHL1   C12 5133   2.970   4.568   3.318 -0.0303  0.4124  0.7301
   54CHL1  H12A 5134   3.032   4.649   3.363  0.7014  0.5109 -0.4224
   54CHL1  H12B 5135   3.015   4.471   3.347  0.4459  0.4664  0.1928
   54CHL1   C11 5136   2.967   4.603   3.168  0.3063 -0.3043 -0.3302
   54CHL1  H11A 5137   2.922   4.699   3.136  0.2928 -1.1463 -3.0990
   54CHL1  H11B 5138   3.076   4.613   3.148  0.7401  1.3815  2.3811
   54CHL1    C9 5139   2.905   4.492   3.084  0.5146  0.9231 -0.5094
   54CHL1    H9 5140   2.957   4.394   3.094 -1.1714 -0.0314 -0.7310
   54CHL1   C10 5141   2.909   4.519   2.931  0.1241 -0.2757 -0.0489
   54CHL1   C19 5142   2.834   4.649   2.904  0.7466 -1.1402  0.5271
   54CHL1  H19A 5143   2.741   4.673   2.961 -0.8187  1.6443 -2.8433
   54CHL1  H19B 5144   2.912   4.728   2.906 -1.1841  0.9007 -0.3549
   54CHL1  H19C 5145   2.790   4.655   2.802  0.0281  2.2037  0.8909
   54CHL1    C1 5146   3.054   4.521   2.872  0.2531  0.1304 -0.5489
   54CHL1   H1A 5147   3.104   4.617   2.900 -0.3600 -0.5023  3.2861
   54CHL1   H1B 5148   3.108   4.438   2.922 -0.2386  0.1743  0.0808
   54CHL1    C2 5149   3.065   4.508   2.721 -0.1673 -0.2007 -0.7718
   54CHL1   H2A 5150   3.172   4.513   2.691 -0.6250  1.3829 -2.3087
   54CHL1   H2B 5151   3.023   4.600   2.674  0.0760 -0.2316 -1.0552
   54CHL1   C20 5152   2.809   4.601   3.636 -0.3394 -0.7982 -0.6801
   54CHL1   H20 5153   2.733   4.681   3.624 -0.0633 -0.1149  1.5489
   54CHL1   C21 5154   2.951   4.688   3.640  0.3082 -0.7225 -0.6640
   54CHL1  H21A 5155   3.037   4.619   3.653  2.0959  1.4140 -0.6463
   54CHL1  H21B 5156   2.957   4.769   3.716 -1.2486  0.2968 -1.5790
   54CHL1  H21C 5157   2.966   4.747   3.548  0.8772  0.9935  0.4735
   54CHL1   C22 5158   2.792   4.538   3.777 -0.0036  0.1848 -0.0517
   54CHL1  H22A 5159   2.727   4.449   3.786  1.4471 -0.7400  2.0706
   54CHL1  H22B 5160   2.895   4.500   3.798  0.4409  0.1188 -2.1213
   54CHL1   C23 5161   2.744   4.649   3.876 -0.3811  0.8499  0.1864
   54CHL1  H23A 5162   2.824   4.719   3.906  0.6795 -1.4292  3.2114
   54CHL1  H23B 5163   2.656   4.700   3.833 -0.0442  1.4669  0.2233
   54CHL1   C24 5164   2.702   4.579   4.009 -0.0792 -0.9448 -0.2974
   54CHL1  H24A 5165   2.669   4.662   4.075  0.1932 -2.4199  1.8127
   54CHL1  H24B 5166   2.613   4.513   4.003 -0.9401  0.3533 -2.5764
   54CHL1   C25 5167   2.809   4.505   4.083 -0.8234  0.1059  0.0910
   54CHL1   H25 5168   2.888   4.460   4.019 -1.6041 -0.5586 -0.4052
   54CHL1   C26 5169   2.880   4.604   4.182 -0.1033 -0.8461 -0.2691
   54CHL1  H26A 5170   2.962   4.547   4.230 -0.1340 -0.8232 -0.1896
   54CHL1  H26B 5171   2.929   4.685   4.123  0.3330  0.9226  2.3585
   54CHL1  H26C 5172   2.820   4.647   4.264  0.4750  0.4409 -0.4825
   54CHL1   C27 5173   2.747   4.398   4.166  0.1751  0.6077  0.3666
   54CHL1  H27A 5174   2.679   4.452   4.236  1.2364  1.8861  0.4711
   54CHL1  H27B 5175   2.689   4.332   4.098  0.3179  1.0563 -0.1950
   54CHL1  H27C 5176   2.819   4.332   4.219 -0.7015 -0.5104  0.1928
   55CHL1    C3 5177   3.505   0.619   2.853 -0.1531  0.1484  0.2934
   55CHL1    H3 5178   3.414   0.681   2.865 -0.2722 -0.0397  0.3656
   55CHL1    O3 5179   3.528   0.593   2.719 -1.0349  0.5545 -0.0856
   55CHL1   H3' 5180   3.443   0.563   2.687 -0.5622  0.8609 -1.6971
   55CHL1    C4 5181   3.612   0.708   2.915 -0.4405  0.7639 -0.1233
   55CHL1   H4A 5182   3.713   0.664   2.905 -0.3746  1.0171 -0.5850
   55CHL1   H4B 5183   3.623   0.804   2.860  0.7656 -0.0966 -1.4392
   55CHL1    C5 5184   3.578   0.726   3.064 -1.0173  0.1508  0.4003
   55CHL1    C6 5185   3.569   0.845   3.118 -0.4993 -0.2283  0.2349
   55CHL1    H6 5186   3.571   0.934   3.053 -3.0005  0.6494  1.2586
   55CHL1    C7 5187   3.534   0.865   3.261  0.1974  0.3365  0.1217
   55CHL1   H7A 5188   3.585   0.958   3.294 -0.7906  0.9705 -0.0927
   55CHL1   H7B 5189   3.424   0.881   3.266 -0.1391  0.1848 -3.5313
   55CHL1    C8 5190   3.567   0.746   3.346 -0.4232 -0.2348 -0.8182
   55CHL1    H8 5191   3.678   0.739   3.359 -0.4301 -1.9234 -1.4073
   55CHL1   C14 5192   3.518   0.769   3.494  0.3097  0.1337  0.5429
   55CHL1   H14 5193   3.408   0.766   3.479  0.6755  0.1860 -2.8064
   55CHL1   C15 5194   3.540   0.903   3.556 -0.7902 -1.8159 -0.0023
   55CHL1  H15A 5195   3.648   0.924   3.543 -0.6853 -0.9341  1.8975
   55CHL1  H15B 5196   3.479   0.978   3.501 -0.0934 -0.4379  1.0410
   55CHL1   C16 5197   3.498   0.872   3.703  0.0149 -0.4073  0.4465
   55CHL1  H16A 5198   3.574   0.911   3.774 -0.6665 -0.3657  1.1775
   55CHL1  H16B 5199   3.408   0.926   3.740  0.8760  2.0685 -0.8949
   55CHL1   C17 5200   3.486   0.715   3.720  0.2125  1.2680 -0.3366
   55CHL1   H17 5201   3.378   0.696   3.707  0.7492 -1.0660 -1.9324
   55CHL1   C13 5202   3.556   0.660   3.594  0.7230 -0.7888 -0.4803
   55CHL1   C18 5203   3.704   0.665   3.624  0.2464 -0.0407  0.0091
   55CHL1  H18A 5204   3.739   0.588   3.697 -0.6712  0.1114  0.6308
   55CHL1  H18B 5205   3.762   0.653   3.530 -0.0706  2.0010 -0.4765
   55CHL1  H18C 5206   3.739   0.764   3.660 -0.5432  0.6234 -0.9832
   55CHL1   C12 5207   3.514   0.523   3.532  0.3266 -0.4165  0.0955
   55CHL1  H12A 5208   3.568   0.450   3.596 -0.4085 -1.4135 -0.4022
   55CHL1  H12B 5209   3.405   0.511   3.547  0.4125  1.1052  2.4970
   55CHL1   C11 5210   3.565   0.499   3.383 -0.0801  0.1229  1.0303
   55CHL1  H11A 5211   3.676   0.497   3.393  0.0539 -0.1525 -0.2761
   55CHL1  H11B 5212   3.527   0.396   3.363  0.5293 -0.4891  2.7741
   55CHL1    C9 5213   3.524   0.614   3.286  0.5598 -0.4012  0.3364
   55CHL1    H9 5214   3.414   0.599   3.293  0.6560 -0.5034  2.4141
   55CHL1   C10 5215   3.558   0.595   3.136  0.0960  0.6039  0.8157
   55CHL1   C19 5216   3.695   0.522   3.131 -0.0205 -0.5771 -0.6494
   55CHL1  H19A 5217   3.772   0.575   3.192 -1.4084 -0.2539  0.9043
   55CHL1  H19B 5218   3.689   0.418   3.169 -0.8684 -0.0046  0.8851
   55CHL1  H19C 5219   3.730   0.510   3.027  0.3635  1.2970 -0.7693
   55CHL1    C1 5220   3.452   0.504   3.063 -0.4010  0.3623 -0.0382
   55CHL1   H1A 5221   3.442   0.406   3.116 -1.2349  0.7214  0.4841
   55CHL1   H1B 5222   3.350   0.547   3.060 -0.2939  0.6285  0.1221
   55CHL1    C2 5223   3.491   0.484   2.915 -0.5389  0.6631 -0.5393
   55CHL1   H2A 5224   3.410   0.419   2.875 -0.8128 -0.2546  1.4014
   55CHL1   H2B 5225   3.587   0.430   2.902 -0.2293  0.4752  2.0106
   55CHL1   C20 5226   3.513   0.662   3.858 -0.0812  0.2465  0.6573
   55CHL1   H20 5227   3.623   0.646   3.857 -0.2039 -0.8123  1.8070
   55CHL1   C21 5228   3.438   0.526   3.876 -0.3987  0.0723 -0.0429
   55CHL1  H21A 5229   3.328   0.547   3.875 -0.6217 -0.7501  1.8192
   55CHL1  H21B 5230   3.463   0.489   3.978  0.5373  0.6546 -0.0515
   55CHL1  H21C 5231   3.466   0.450   3.800  0.9290 -0.3525  0.8413
   55CHL1   C22 5232   3.477   0.760   3.967 -0.1231  0.1320  0.2710
   55CHL1  H22A 5233   3.536   0.852   3.949 -1.6659  0.7340 -2.1709
   55CHL1  H22B 5234   3.373   0.797   3.951 -0.1364  1.6668  3.2643
   55CHL1   C23 5235   3.502   0.723   4.112  0.1704  0.0177  0.0666
   55CHL1  H23A 5236   3.406   0.682   4.147  0.6524 -1.7891 -0.6115
   55CHL1  H23B 5237   3.591   0.657   4.124  0.7361  0.3141 -2.1097
   55CHL1   C24 5238   3.555   0.841   4.204 -0.3781 -0.0055 -0.3078
   55CHL1  H24A 5239   3.657   0.859   4.164 -1.0648  3.4232 -0.8432
   55CHL1  H24B 5240   3.490   0.930   4.195 -0.0959  0.1205 -1.2748
   55CHL1   C25 5241   3.569   0.809   4.352 -1.3896 -0.1886  0.4036
   55CHL1   H25 5242   3.625   0.714   4.367 -0.1713  0.2801 -0.9570
   55CHL1   C26 5243   3.649   0.918   4.427  0.2470 -0.3059  1.1684
   55CHL1  H26A 5244   3.639   0.892   4.534 -1.0470 -0.3958  1.0429
   55CHL1  H26B 5245   3.752   0.928   4.387 -0.0460  1.1573  0.7382
   55CHL1  H26C 5246   3.594   1.014   4.417 -0.0780 -0.4801  1.2736
   55CHL1   C27 5247   3.420   0.808   4.412 -0.4271  0.0562  0.4616
   55CHL1  H27A 5248   3.376   0.715   4.370 -1.8247  0.3991  1.1153
   55CHL1  H27B 5249   3.422   0.817   4.523 -0.1185 -0.6426  0.5192
   55CHL1  H27C 5250   3.368   0.899   4.377 -1.5714 -0.3919  0.9343
   56CHL1    C3 5251   5.486   3.476   2.807  1.2274 -0.2458 -0.0886
   56CHL1    H3 5252   5.501   3.585   2.799  0.4341 -0.1401 -0.1835
   56CHL1    O3 5253   5.417   3.424   2.690 -0.0357 -0.2635  0.3019
   56CHL1   H3' 5254   5.408   3.330   2.706  0.4894 -0.4056 -0.1854
   56CHL1    C4 5255   5.612   3.396   2.832  0.5699 -0.6659 -0.1574
   56CHL1   H4A 5256   5.579   3.290   2.836 -1.0265 -0.1664  0.8647
   56CHL1   H4B 5257   5.675   3.402   2.740 -1.9046 -3.5350 -2.2709
   56CHL1    C5 5258   5.685   3.444   2.958 -0.2560  0.4294 -0.3130
   56CHL1    C6 5259   5.814   3.494   2.967  0.4240  0.1125  0.4778
   56CHL1    H6 5260   5.877   3.510   2.878  0.7737 -0.8280  0.5452
   56CHL1    C7 5261   5.875   3.534   3.099 -0.4580  0.3233 -0.3888
   56CHL1   H7A 5262   5.974   3.486   3.118 -1.1769 -0.5112  1.5114
   56CHL1   H7B 5263   5.896   3.643   3.094 -0.0694  0.2760  0.1551
   56CHL1    C8 5264   5.801   3.496   3.231  0.8755  0.5550  0.0513
   56CHL1    H8 5265   5.821   3.391   3.261  2.6304  0.3171 -1.7432
   56CHL1   C14 5266   5.844   3.575   3.349  0.2112  0.2339 -1.0768
   56CHL1   H14 5267   5.820   3.679   3.319  0.1275  1.2707  2.1820
   56CHL1   C15 5268   6.000   3.586   3.388  0.6536  0.0126  0.3103
   56CHL1  H15A 5269   6.041   3.483   3.390  0.1232 -0.2440 -0.8916
   56CHL1  H15B 5270   6.057   3.656   3.323 -1.2483  3.8764  2.4673
   56CHL1   C16 5271   5.997   3.635   3.534 -0.1055  0.2819 -0.5382
   56CHL1  H16A 5272   6.058   3.559   3.588 -0.7907 -0.0647 -0.2420
   56CHL1  H16B 5273   6.057   3.727   3.546 -0.3284  0.1584  1.9470
   56CHL1   C17 5274   5.847   3.642   3.570 -0.4326 -0.7785  0.5650
   56CHL1   H17 5275   5.809   3.743   3.541  1.9223  0.0375  0.0867
   56CHL1   C13 5276   5.762   3.552   3.477 -0.1198 -0.1368  0.3318
   56CHL1   C18 5277   5.780   3.402   3.523 -0.2873  0.0488  0.0080
   56CHL1  H18A 5278   5.883   3.389   3.564 -0.4213  0.4535  0.4780
   56CHL1  H18B 5279   5.713   3.384   3.609  0.5636 -3.4287  0.0942
   56CHL1  H18C 5280   5.741   3.324   3.455 -3.3382  0.3420  1.2703
   56CHL1   C12 5281   5.615   3.588   3.453 -0.1523  0.3926  0.5722
   56CHL1  H12A 5282   5.554   3.577   3.545  0.7236 -0.3940  1.0701
   56CHL1  H12B 5283   5.606   3.694   3.419  0.4908  0.1604 -0.3576
   56CHL1   C11 5284   5.564   3.493   3.343  0.0780  0.7896  0.5071
   56CHL1  H11A 5285   5.560   3.388   3.379  1.0930  0.4550 -0.3190
   56CHL1  H11B 5286   5.459   3.522   3.322 -1.1097 -2.7393  1.0288
   56CHL1    C9 5287   5.646   3.515   3.205 -0.1116 -0.3496  0.5568
   56CHL1    H9 5288   5.635   3.622   3.177  0.1196 -1.0957 -2.8485
   56CHL1   C10 5289   5.591   3.435   3.083 -0.6836 -0.4602  0.5708
   56CHL1   C19 5290   5.600   3.288   3.115  0.2523 -0.1238 -0.1486
   56CHL1  H19A 5291   5.698   3.252   3.153  2.0173  1.0886 -3.1649
   56CHL1  H19B 5292   5.518   3.266   3.186 -0.1885  0.3071 -0.5183
   56CHL1  H19C 5293   5.569   3.223   3.031 -0.3193  1.2392 -1.0232
   56CHL1    C1 5294   5.445   3.487   3.064 -0.4521 -0.8582  1.0802
   56CHL1   H1A 5295   5.379   3.453   3.147  1.1072 -1.6655  2.0282
   56CHL1   H1B 5296   5.457   3.597   3.053 -0.1843 -0.8251  1.6444
   56CHL1    C2 5297   5.384   3.455   2.924  0.3407 -0.2031 -0.0555
   56CHL1   H2A 5298   5.300   3.525   2.902  1.1919  1.2713  1.1793
   56CHL1   H2B 5299   5.361   3.347   2.935 -0.4747  0.0942  1.5170
   56CHL1   C20 5300   5.821   3.616   3.722 -0.0157 -0.2485 -0.1253
   56CHL1   H20 5301   5.717   3.577   3.720 -0.1489  0.1381 -1.3472
   56CHL1   C21 5302   5.845   3.748   3.792 -0.0479 -0.1048  0.1716
   56CHL1  H21A 5303   5.788   3.828   3.740  1.0459  1.1047  0.7620
   56CHL1  H21B 5304   5.955   3.766   3.794 -0.2332  1.2554 -0.5241
   56CHL1  H21C 5305   5.808   3.743   3.896 -0.7030  1.3488  0.0387
   56CHL1   C22 5306   5.897   3.507   3.803  0.3934 -0.3585 -0.5520
   56CHL1  H22A 5307   5.863   3.406   3.773 -2.8383  0.2993  0.4933
   56CHL1  H22B 5308   6.004   3.532   3.784 -0.1824  2.7018 -0.3198
   56CHL1   C23 5309   5.884   3.513   3.959  0.3178 -0.5706  0.7538
   56CHL1  H23A 5310   5.923   3.609   4.000  0.5856  1.0987 -3.0167
   56CHL1  H23B 5311   5.783   3.490   3.997 -0.3152 -0.6290 -0.8796
   56CHL1   C24 5312   5.974   3.412   4.029 -0.7661  0.0886  0.0757
   56CHL1  H24A 5313   5.955   3.312   3.984 -2.0734  0.2140  0.3290
   56CHL1  H24B 5314   6.081   3.438   4.012 -0.2456 -0.1826  2.6271
   56CHL1   C25 5315   5.958   3.406   4.185  0.3212 -1.2207  0.1000
   56CHL1   H25 5316   5.855   3.376   4.215 -0.9080  2.1081 -0.3495
   56CHL1   C26 5317   6.066   3.319   4.247 -0.9320  0.2961  0.5234
   56CHL1  H26A 5318   6.056   3.323   4.357 -0.4100  0.0530  0.5837
   56CHL1  H26B 5319   6.043   3.215   4.215  1.1308 -0.1470  0.2910
   56CHL1  H26C 5320   6.172   3.346   4.223 -1.0365  1.3043  1.1501
   56CHL1   C27 5321   5.967   3.546   4.256 -0.1253 -0.2018  0.5464
   56CHL1  H27A 5322   5.974   3.534   4.366 -1.8522 -1.3979  0.5584
   56CHL1  H27B 5323   6.046   3.607   4.206  0.6729 -1.9502 -0.4374
   56CHL1  H27C 5324   5.881   3.613   4.239  1.2265  1.1120 -1.6286
   57CHL1    C3 5325   5.312   1.535   2.989 -1.0114  0.0193 -0.5077
   57CHL1    H3 5326   5.423   1.532   3.000 -1.2647 -2.5704  2.6126
   57CHL1    O3 5327   5.285   1.508   2.852 -0.4682  0.0716 -0.5536
   57CHL1   H3' 5328   5.317   1.418   2.848  1.4218  0.6417  0.5365
   57CHL1    C4 5329   5.267   1.418   3.076 -0.0351  0.1194  0.2070
   57CHL1   H4A 5330   5.158   1.408   3.058 -0.2812  2.2048  0.2569
   57CHL1   H4B 5331   5.325   1.329   3.042 -1.3416 -0.7900  0.2938
   57CHL1    C5 5332   5.294   1.444   3.224 -0.2382 -1.0489  0.0625
   57CHL1    C6 5333   5.371   1.366   3.302 -0.1017 -0.0165  0.1809
   57CHL1    H6 5334   5.415   1.276   3.257  1.0592 -0.0415  1.3210
   57CHL1    C7 5335   5.386   1.391   3.446  0.0972  0.1869 -0.2828
   57CHL1   H7A 5336   5.362   1.294   3.495 -0.4383  1.1544  1.4394
   57CHL1   H7B 5337   5.490   1.403   3.482  0.7678 -1.0063 -1.7204
   57CHL1    C8 5338   5.293   1.490   3.509  0.3500 -0.0480  0.8106
   57CHL1    H8 5339   5.198   1.435   3.528  1.2743 -2.2846 -0.6836
   57CHL1   C14 5340   5.355   1.539   3.646  0.6420 -0.0094 -0.6793
   57CHL1   H14 5341   5.434   1.613   3.622  0.7152  1.4142  3.2463
   57CHL1   C15 5342   5.402   1.431   3.745  0.7489 -0.0077  0.1164
   57CHL1  H15A 5343   5.327   1.349   3.735 -0.5255  1.3589 -2.7548
   57CHL1  H15B 5344   5.503   1.389   3.726  0.4043 -0.5039 -0.6960
   57CHL1   C16 5345   5.383   1.502   3.876  0.1133 -0.4280 -0.7455
   57CHL1  H16A 5346   5.305   1.446   3.931  0.5790  0.3310  0.7492
   57CHL1  H16B 5347   5.471   1.499   3.944 -0.2102  0.1418 -0.2856
   57CHL1   C17 5348   5.326   1.639   3.852  0.3335 -0.6492 -0.3018
   57CHL1   H17 5349   5.424   1.688   3.832  1.0257 -2.5807 -2.0107
   57CHL1   C13 5350   5.255   1.635   3.719 -0.3395  0.4556  0.2067
   57CHL1   C18 5351   5.126   1.557   3.744 -0.0181  0.2181 -0.1162
   57CHL1  H18A 5352   5.068   1.542   3.650  0.5029  1.7178 -0.6945
   57CHL1  H18B 5353   5.130   1.449   3.771  0.4550 -0.0062 -1.0252
   57CHL1  H18C 5354   5.060   1.608   3.817 -1.3327 -0.0130 -1.0994
   57CHL1   C12 5355   5.228   1.758   3.629 -0.1384  0.0312 -0.5363
   57CHL1  H12A 5356   5.161   1.833   3.675  0.3875  0.9388 -1.2039
   57CHL1  H12B 5357   5.325   1.813   3.624  0.0918 -0.3023  0.1364
   57CHL1   C11 5358   5.186   1.716   3.492 -0.3854  1.1055  0.4008
   57CHL1  H11A 5359   5.082   1.679   3.489 -0.4795  1.4442 -1.4820
   57CHL1  H11B 5360   5.170   1.809   3.433  1.5035  1.1890 -0.0453
   57CHL1    C9 5361   5.275   1.614   3.422  0.2798  0.4715 -0.0765
   57CHL1    H9 5362   5.368   1.671   3.403 -0.6876  1.8508 -0.8765
   57CHL1   C10 5363   5.234   1.578   3.279  0.6276 -0.3265  0.2948
   57CHL1   C19 5364   5.078   1.575   3.274  0.0131 -0.0580  0.0002
   57CHL1  H19A 5365   5.035   1.504   3.349 -0.0549 -0.9865 -0.9004
   57CHL1  H19B 5366   5.023   1.666   3.306 -0.2402 -0.6713  1.4241
   57CHL1  H19C 5367   5.041   1.551   3.172  0.3061  1.6094 -0.5166
   57CHL1    C1 5368   5.282   1.695   3.180 -0.5470  0.0749  0.3241
   57CHL1   H1A 5369   5.228   1.786   3.216  0.9071  0.1476  2.5216
   57CHL1   H1B 5370   5.386   1.728   3.201 -0.1370 -0.9964  0.0204
   57CHL1    C2 5371   5.256   1.667   3.036 -0.3899 -0.2578  0.9468
   57CHL1   H2A 5372   5.291   1.749   2.970 -1.6795 -0.3664  0.0909
   57CHL1   H2B 5373   5.147   1.657   3.016 -0.2611 -1.4033  0.7251
   57CHL1   C20 5374   5.262   1.703   3.972 -1.2661 -0.0867  0.2732
   57CHL1   H20 5375   5.159   1.664   3.989 -0.3253 -2.3858  1.1669
   57CHL1   C21 5376   5.262   1.854   3.951 -0.5672 -0.7707 -0.2824
   57CHL1  H21A 5377   5.357   1.894   3.910 -0.5859  0.3063  0.6570
   57CHL1  H21B 5378   5.243   1.910   4.045  0.6002  0.1932 -0.5966
   57CHL1  H21C 5379   5.181   1.891   3.885 -0.4459  1.7843  0.8880
   57CHL1   C22 5380   5.341   1.684   4.102 -0.3063  0.3609 -0.4532
   57CHL1  H22A 5381   5.354   1.574   4.114  0.7171  0.4337 -0.8227
   57CHL1  H22B 5382   5.444   1.723   4.091 -0.0495  0.0918  0.8035
   57CHL1   C23 5383   5.270   1.737   4.228  0.1406  0.1840 -0.6792
   57CHL1  H23A 5384   5.246   1.845   4.228  2.0094  0.6199  0.2220
   57CHL1  H23B 5385   5.173   1.683   4.233 -0.4508  1.3066  0.6062
   57CHL1   C24 5386   5.341   1.702   4.360 -0.7307  0.6097  0.4663
   57CHL1  H24A 5387   5.379   1.598   4.357  1.2984  1.3187 -0.4198
   57CHL1  H24B 5388   5.433   1.765   4.355 -1.3373  1.5017  0.2017
   57CHL1   C25 5389   5.263   1.740   4.479 -0.5859 -0.1180 -0.2037
   57CHL1   H25 5390   5.156   1.718   4.460 -1.0263  1.7103  0.0158
   57CHL1   C26 5391   5.300   1.656   4.600 -0.3377  0.0270 -0.2347
   57CHL1  H26A 5392   5.410   1.653   4.617 -0.4537 -1.1520  0.4520
   57CHL1  H26B 5393   5.236   1.689   4.685 -2.8494  0.9032 -2.3510
   57CHL1  H26C 5394   5.274   1.549   4.582  1.4164 -0.5040  0.2235
   57CHL1   C27 5395   5.283   1.893   4.505 -0.0730  0.0960 -0.2557
   57CHL1  H27A 5396   5.387   1.930   4.517  0.2300 -0.3357 -1.4284
   57CHL1  H27B 5397   5.235   1.955   4.426 -4.0072 -2.8989 -0.5186
   57CHL1  H27C 5398   5.239   1.934   4.598  0.0301 -1.3171  0.4320
   58CHL1    C3 5399   5.476   2.066   2.895  0.2884  0.3516  0.0170
   58CHL1    H3 5400   5.463   1.956   2.906  1.1738  0.1631 -0.7107
   58CHL1    O3 5401   5.505   2.090   2.756 -0.0405  0.2427  0.1232
   58CHL1   H3' 5402   5.590   2.051   2.736  0.4899  1.2533  0.3635
   58CHL1    C4 5403   5.344   2.142   2.936 -0.0568  0.3123 -0.0891
   58CHL1   H4A 5404   5.359   2.245   2.897  4.2283  0.7163  2.0677
   58CHL1   H4B 5405   5.264   2.083   2.887  0.4924 -1.1487  0.7371
   58CHL1    C5 5406   5.317   2.135   3.086 -0.0187 -0.6107 -0.3293
   58CHL1    C6 5407   5.201   2.087   3.130  0.6423 -0.0918 -0.1997
   58CHL1    H6 5408   5.122   2.069   3.056 -0.9906  0.1536  1.4256
   58CHL1    C7 5409   5.179   2.093   3.281  1.1238  0.4418 -0.0445
   58CHL1   H7A 5410   5.076   2.127   3.300  1.4768  0.3239  2.3331
   58CHL1   H7B 5411   5.201   1.993   3.326 -1.0450  0.5676  1.4383
   58CHL1    C8 5412   5.275   2.177   3.365  0.4822 -0.3907 -0.6364
   58CHL1    H8 5413   5.244   2.282   3.351 -0.6708 -0.7975 -1.2187
   58CHL1   C14 5414   5.265   2.141   3.513  0.4630  0.2966 -0.1791
   58CHL1   H14 5415   5.315   2.044   3.536 -0.3310 -0.6405 -2.1359
   58CHL1   C15 5416   5.125   2.146   3.576  0.2752  0.5860  0.3632
   58CHL1  H15A 5417   5.069   2.225   3.523  0.3517 -0.7450 -1.8166
   58CHL1  H15B 5418   5.060   2.055   3.570  1.1900 -0.1447  1.1295
   58CHL1   C16 5419   5.153   2.184   3.724 -0.0023  0.2152  0.3252
   58CHL1  H16A 5420   5.106   2.280   3.755  1.0878  2.5123 -4.3431
   58CHL1  H16B 5421   5.106   2.108   3.791  1.2733  0.3579  1.4307
   58CHL1   C17 5422   5.305   2.197   3.738 -0.7052  0.3406  0.5695
   58CHL1   H17 5423   5.354   2.099   3.756  1.5700  1.2514 -0.2969
   58CHL1   C13 5424   5.346   2.241   3.595 -0.7131 -0.8645 -0.2785
   58CHL1   C18 5425   5.294   2.392   3.590  0.3406  0.1271  0.3329
   58CHL1  H18A 5426   5.333   2.459   3.670  2.8677  1.5797 -1.9452
   58CHL1  H18B 5427   5.323   2.441   3.494  0.6325 -3.1451 -1.4007
   58CHL1  H18C 5428   5.183   2.398   3.597  0.1201 -3.2986  1.4177
   58CHL1   C12 5429   5.490   2.225   3.556  0.6281 -0.7863 -1.1015
   58CHL1  H12A 5430   5.548   2.289   3.626 -0.2331 -2.5941  1.4502
   58CHL1  H12B 5431   5.517   2.118   3.573 -0.4180 -1.3175 -2.5633
   58CHL1   C11 5432   5.511   2.240   3.412  0.2151  0.3311 -0.3923
   58CHL1  H11A 5433   5.509   2.349   3.391 -1.3106  0.5000  0.5129
   58CHL1  H11B 5434   5.615   2.207   3.389  0.3831 -0.0009  0.7806
   58CHL1    C9 5435   5.416   2.160   3.322 -0.4997  0.2567 -0.2564
   58CHL1    H9 5436   5.438   2.052   3.332 -0.1187  0.1620 -1.9101
   58CHL1   C10 5437   5.438   2.183   3.178  0.3167  0.1870 -0.0229
   58CHL1   C19 5438   5.454   2.339   3.150  0.0388 -0.0334 -0.5681
   58CHL1  H19A 5439   5.387   2.403   3.212 -0.0137  1.8141 -2.4314
   58CHL1  H19B 5440   5.561   2.369   3.158  0.3788  0.1264 -4.1372
   58CHL1  H19C 5441   5.434   2.352   3.042  1.5996 -0.5973 -0.9491
   58CHL1    C1 5442   5.564   2.109   3.129 -0.3753  0.1554  0.3182
   58CHL1   H1A 5443   5.642   2.158   3.191 -0.7083 -1.5675  2.1753
   58CHL1   H1B 5444   5.560   2.003   3.162  0.8799  0.4259  1.4620
   58CHL1    C2 5445   5.591   2.111   2.980  0.7235  0.5135 -0.0019
   58CHL1   H2A 5446   5.684   2.060   2.946  0.6087  2.8512 -4.4488
   58CHL1   H2B 5447   5.625   2.216   2.970  0.3407  0.7047  0.6487
   58CHL1   C20 5448   5.346   2.275   3.867  0.7264 -0.3040 -0.5744
   58CHL1   H20 5449   5.314   2.381   3.856 -0.3893 -0.7167 -1.5355
   58CHL1   C21 5450   5.499   2.264   3.892  0.2947  0.4833 -0.6572
   58CHL1  H21A 5451   5.554   2.330   3.821  0.3520 -1.3626 -2.4268
   58CHL1  H21B 5452   5.524   2.157   3.874 -1.3099 -0.4948  2.3887
   58CHL1  H21C 5453   5.520   2.293   3.997 -1.3381 -1.7921  0.3745
   58CHL1   C22 5454   5.273   2.230   3.994 -0.2244  0.2635 -0.4890
   58CHL1  H22A 5455   5.165   2.223   3.969  0.2735 -2.0012 -2.3111
   58CHL1  H22B 5456   5.309   2.130   4.027  0.4018 -0.0787 -2.1144
   58CHL1   C23 5457   5.289   2.338   4.102 -0.1627 -0.6358 -0.5240
   58CHL1  H23A 5458   5.396   2.337   4.133 -0.2823 -0.8949 -0.1148
   58CHL1  H23B 5459   5.268   2.433   4.049 -2.5484 -1.1279 -0.5876
   58CHL1   C24 5460   5.187   2.327   4.211  0.4133 -0.1634  0.5072
   58CHL1  H24A 5461   5.080   2.328   4.181 -0.4775 -0.0985  3.3770
   58CHL1  H24B 5462   5.211   2.232   4.263  0.9508 -1.2382 -1.5793
   58CHL1   C25 5463   5.197   2.439   4.321 -0.3615  0.2979 -0.2581
   58CHL1   H25 5464   5.182   2.539   4.276  0.7108  0.4111 -0.4129
   58CHL1   C26 5465   5.083   2.422   4.429  0.2379 -0.6530  0.2085
   58CHL1  H26A 5466   5.105   2.343   4.505  1.4939 -0.5702 -0.0516
   58CHL1  H26B 5467   5.076   2.518   4.484 -2.1944 -2.4581  3.4106
   58CHL1  H26C 5468   4.985   2.402   4.381  0.6120 -0.1846 -0.7859
   58CHL1   C27 5469   5.339   2.434   4.401 -0.4051 -0.0513 -1.1907
   58CHL1  H27A 5470   5.357   2.329   4.433  0.2825  0.8799  1.8238
   58CHL1  H27B 5471   5.425   2.468   4.339  0.3482 -0.0524 -0.1702
   58CHL1  H27C 5472   5.324   2.496   4.492  0.2466 -1.0380 -0.3900
   59CHL1    C3 5473   2.586   0.222   2.895  0.0729  0.8084  0.5634
   59CHL1    H3 5474   2.691   0.225   2.931  1.5284  2.2250 -3.3092
   59CHL1    O3 5475   2.598   0.276   2.765  0.1974  0.0601  0.3115
   59CHL1   H3' 5476   2.516   0.253   2.719  0.8891  0.5535 -1.2326
   59CHL1    C4 5477   2.536   0.072   2.877 -0.6329  0.2644  0.1150
   59CHL1   H4A 5478   2.432   0.060   2.840 -0.1906 -1.9114 -0.5424
   59CHL1   H4B 5479   2.605   0.018   2.809 -0.4236  0.2350  0.3510
   59CHL1    C5 5480   2.526   0.010   3.010  0.2159 -0.5351 -0.5586
   59CHL1    C6 5481   2.581  -0.112   3.039 -0.8006 -0.2687  0.1885
   59CHL1    H6 5482   2.631  -0.163   2.956 -1.5794 -0.4420 -0.1911
   59CHL1    C7 5483   2.587  -0.180   3.177  0.1996  0.1052  0.0961
   59CHL1   H7A 5484   2.560  -0.288   3.174 -0.5957  0.3112 -1.3184
   59CHL1   H7B 5485   2.690  -0.163   3.214  0.8301 -0.5199 -1.3162
   59CHL1    C8 5486   2.482  -0.113   3.281  0.0439  0.5625 -0.3851
   59CHL1    H8 5487   2.383  -0.150   3.245  0.2996  1.8414 -2.6280
   59CHL1   C14 5488   2.528  -0.155   3.418 -0.5303 -0.0130 -0.0669
   59CHL1   H14 5489   2.620  -0.093   3.426 -0.4010  0.0180 -1.4955
   59CHL1   C15 5490   2.574  -0.301   3.442 -0.4888  0.4136 -0.5347
   59CHL1  H15A 5491   2.502  -0.370   3.392 -1.5640 -2.3317  4.1708
   59CHL1  H15B 5492   2.677  -0.323   3.408 -0.0151  1.5878  0.0819
   59CHL1   C16 5493   2.558  -0.308   3.592 -0.2438  0.5660  0.4668
   59CHL1  H16A 5494   2.479  -0.383   3.616  1.1057 -1.3970 -0.9259
   59CHL1  H16B 5495   2.648  -0.340   3.648 -1.0565  0.4015  1.7193
   59CHL1   C17 5496   2.522  -0.168   3.647  0.2849 -0.4574  0.9023
   59CHL1   H17 5497   2.619  -0.114   3.653  0.5487 -0.9349  0.9898
   59CHL1   C13 5498   2.442  -0.106   3.529  0.2532 -0.4290 -0.1778
   59CHL1   C18 5499   2.302  -0.171   3.519 -0.0590 -0.6857 -0.8584
   59CHL1  H18A 5500   2.253  -0.191   3.617 -0.2459 -1.5793 -1.1266
   59CHL1  H18B 5501   2.232  -0.113   3.455  0.7197  0.7385 -0.4525
   59CHL1  H18C 5502   2.312  -0.267   3.463  2.0686  0.4057 -2.4723
   59CHL1   C12 5503   2.440   0.052   3.514 -0.4864 -0.1968 -0.2656
   59CHL1  H12A 5504   2.367   0.094   3.586 -0.0322 -0.2348  0.2200
   59CHL1  H12B 5505   2.544   0.081   3.538  0.3223 -1.2489 -2.2548
   59CHL1   C11 5506   2.411   0.107   3.373 -0.0860 -0.7104  0.0420
   59CHL1  H11A 5507   2.301   0.095   3.358 -0.2538  0.7733 -0.0604
   59CHL1  H11B 5508   2.428   0.217   3.381 -1.0225 -0.2961 -2.6093
   59CHL1    C9 5509   2.489   0.046   3.257  0.2938  0.6393  0.5840
   59CHL1    H9 5510   2.596   0.069   3.272  0.1059  3.7518 -1.9918
   59CHL1   C10 5511   2.460   0.094   3.120  0.8225  0.8511  0.2435
   59CHL1   C19 5512   2.308   0.081   3.081 -0.5426  0.4001  0.3985
   59CHL1  H19A 5513   2.284  -0.027   3.080  0.0586  0.2640 -0.7452
   59CHL1  H19B 5514   2.246   0.141   3.152 -1.5002 -0.3215  0.1832
   59CHL1  H19C 5515   2.288   0.121   2.980 -0.6548  1.3634  0.7866
   59CHL1    C1 5516   2.490   0.245   3.114 -0.1799 -0.3215  1.2669
   59CHL1   H1A 5517   2.418   0.295   3.182 -0.1428 -2.0580  2.6603
   59CHL1   H1B 5518   2.593   0.263   3.152  0.1462  0.5381  0.0304
   59CHL1    C2 5519   2.493   0.306   2.973  0.6509  0.0376  0.1490
   59CHL1   H2A 5520   2.531   0.409   2.985 -0.2934  0.4085 -0.0026
   59CHL1   H2B 5521   2.391   0.316   2.930  0.8734 -2.3554 -1.1488
   59CHL1   C20 5522   2.464  -0.161   3.789  0.2716 -0.8936  0.0657
   59CHL1   H20 5523   2.362  -0.201   3.773  0.0343 -0.5330  0.6516
   59CHL1   C21 5524   2.474  -0.016   3.841  0.2383  0.4143 -0.1460
   59CHL1  H21A 5525   2.583   0.006   3.849  0.2409  1.7045 -2.7229
   59CHL1  H21B 5526   2.426  -0.003   3.941 -0.6442  4.1286 -0.8879
   59CHL1  H21C 5527   2.423   0.067   3.787  0.0189 -0.4126 -1.2238
   59CHL1   C22 5528   2.529  -0.256   3.893  0.1004 -0.5014 -0.2219
   59CHL1  H22A 5529   2.529  -0.358   3.849  0.5951  0.1269 -1.7449
   59CHL1  H22B 5530   2.630  -0.216   3.916 -0.9203  1.0613  1.8938
   59CHL1   C23 5531   2.470  -0.270   4.035  0.7863 -0.4000 -0.3763
   59CHL1  H23A 5532   2.491  -0.174   4.085  0.2527 -0.8871  0.8181
   59CHL1  H23B 5533   2.361  -0.289   4.024  0.7545  0.0533 -0.8639
   59CHL1   C24 5534   2.536  -0.385   4.109 -0.2999 -0.1363 -0.5159
   59CHL1  H24A 5535   2.527  -0.482   4.056  1.1889 -0.5179 -0.1249
   59CHL1  H24B 5536   2.645  -0.361   4.111 -0.5371  0.9547  0.7425
   59CHL1   C25 5537   2.477  -0.424   4.248 -0.1108 -0.3899 -0.4235
   59CHL1   H25 5538   2.456  -0.329   4.302  1.6337 -0.4182  0.3644
   59CHL1   C26 5539   2.343  -0.495   4.248  0.5560  0.1663  0.2904
   59CHL1  H26A 5540   2.281  -0.459   4.333  3.1124 -1.3372  2.9826
   59CHL1  H26B 5541   2.285  -0.478   4.155 -1.0380 -0.0678  1.2095
   59CHL1  H26C 5542   2.359  -0.605   4.253 -0.4346 -0.0296 -0.5022
   59CHL1   C27 5543   2.579  -0.500   4.336  0.4973  0.6405  0.4247
   59CHL1  H27A 5544   2.546  -0.516   4.441 -0.1499  2.1997  0.4857
   59CHL1  H27B 5545   2.585  -0.597   4.282  1.8680  1.5319 -1.1182
   59CHL1  H27C 5546   2.684  -0.468   4.321  0.7872 -0.6233 -0.4653
   60CHL1    C3 5547   4.845   1.038   2.951 -0.1106 -0.1290  0.0960
   60CHL1    H3 5548   4.774   1.112   2.993  1.3108  1.1209  0.4144
   60CHL1    O3 5549   4.845   1.039   2.813 -0.2418  0.4270  0.1711
   60CHL1   H3' 5550   4.916   0.981   2.782 -1.1772  0.1258 -1.5444
   60CHL1    C4 5551   4.987   1.070   3.003 -0.0128  0.3202  0.4898
   60CHL1   H4A 5552   5.055   1.005   2.944 -1.7241 -0.6158 -0.5485
   60CHL1   H4B 5553   4.992   1.178   2.979  0.4998  0.1166 -0.3443
   60CHL1    C5 5554   5.007   1.050   3.153  0.4047 -0.8450  0.2771
   60CHL1    C6 5555   5.037   1.151   3.232 -0.1864 -0.5656 -0.1967
   60CHL1    H6 5556   5.062   1.247   3.184  2.4309 -1.0046  0.1426
   60CHL1    C7 5557   5.052   1.149   3.385  0.1965 -0.1856  0.0588
   60CHL1   H7A 5558   5.151   1.183   3.420  1.1826 -0.8452 -1.9460
   60CHL1   H7B 5559   4.975   1.213   3.434  1.6777  0.5214  1.5427
   60CHL1    C8 5560   5.043   1.000   3.436 -0.7516  0.6206 -0.3239
   60CHL1    H8 5561   5.143   0.952   3.424 -0.9854  0.2006 -0.6202
   60CHL1   C14 5562   5.001   1.002   3.586 -0.0769 -0.4915 -0.3447
   60CHL1   H14 5563   4.899   1.047   3.589  0.6425  1.1472  1.4939
   60CHL1   C15 5564   5.064   1.103   3.676 -0.1321  0.6337  0.3097
   60CHL1  H15A 5565   5.173   1.082   3.687  0.0187  1.4272  0.4489
   60CHL1  H15B 5566   5.058   1.211   3.649 -0.4588  0.8208  1.0846
   60CHL1   C16 5567   5.019   1.058   3.815  0.1160  0.4666 -0.6404
   60CHL1  H16A 5568   5.094   1.053   3.897  1.1240  1.9274 -1.4265
   60CHL1  H16B 5569   4.944   1.123   3.865  0.8503 -0.0610  1.2327
   60CHL1   C17 5570   4.955   0.917   3.796 -0.0792  0.5718 -0.0189
   60CHL1   H17 5571   4.847   0.939   3.785 -0.4191 -0.1862  1.4437
   60CHL1   C13 5572   4.999   0.870   3.653  0.9752 -0.3419  0.5828
   60CHL1   C18 5573   5.141   0.813   3.667 -0.4229 -0.0600 -0.6417
   60CHL1  H18A 5574   5.140   0.709   3.703  2.1849 -0.1582 -0.6614
   60CHL1  H18B 5575   5.202   0.822   3.574  0.7585 -0.8104  0.0408
   60CHL1  H18C 5576   5.187   0.876   3.746  0.9837 -0.3408 -1.2142
   60CHL1   C12 5577   4.900   0.774   3.574 -0.2468 -0.2783 -0.1823
   60CHL1  H12A 5578   4.912   0.673   3.618  0.6618  0.5477  1.5893
   60CHL1  H12B 5579   4.800   0.810   3.605 -0.7087  0.5898 -2.4989
   60CHL1   C11 5580   4.933   0.777   3.423  0.0765  0.4380 -0.1762
   60CHL1  H11A 5581   5.031   0.725   3.415 -1.5072 -2.8297  0.1509
   60CHL1  H11B 5582   4.857   0.710   3.379 -0.9163  2.4872 -1.7145
   60CHL1    C9 5583   4.941   0.913   3.361  0.3636 -0.1177  0.0892
   60CHL1    H9 5584   4.843   0.961   3.376  0.2080  0.1774 -1.6790
   60CHL1   C10 5585   4.959   0.913   3.209  0.3954 -0.2506  0.5930
   60CHL1   C19 5586   5.063   0.811   3.165  0.3639  0.6397 -0.4537
   60CHL1  H19A 5587   5.051   0.711   3.213 -0.9701  1.4365  0.9323
   60CHL1  H19B 5588   5.067   0.796   3.055 -1.7589  2.4262 -0.8220
   60CHL1  H19C 5589   5.165   0.840   3.199 -0.2447  1.0248  1.0833
   60CHL1    C1 5590   4.812   0.890   3.153  0.2330  0.1443  0.1798
   60CHL1   H1A 5591   4.781   0.786   3.176 -0.2351 -0.2335 -2.0093
   60CHL1   H1B 5592   4.735   0.955   3.199  1.2323  0.3271  1.6900
   60CHL1    C2 5593   4.800   0.898   3.003 -0.1159  0.1143 -0.0426
   60CHL1   H2A 5594   4.689   0.900   2.989 -0.1609  0.2768  0.3490
   60CHL1   H2B 5595   4.851   0.820   2.943  1.0873  0.7852  0.0804
   60CHL1   C20 5596   4.965   0.814   3.910  0.3217 -0.3549 -0.2081
   60CHL1   H20 5597   5.067   0.769   3.916  0.5582  0.2164  0.1871
   60CHL1   C21 5598   4.855   0.712   3.882  0.0525  0.4130 -0.0381
   60CHL1  H21A 5599   4.756   0.763   3.885  0.0523  0.4168  2.4531
   60CHL1  H21B 5600   4.855   0.639   3.966 -0.5783 -0.9251 -1.1708
   60CHL1  H21C 5601   4.869   0.649   3.792  2.8382 -2.2154  1.9988
   60CHL1   C22 5602   4.934   0.879   4.050 -0.1317  0.5163  0.1340
   60CHL1  H22A 5603   5.015   0.952   4.072  0.9009  0.1576 -2.2507
   60CHL1  H22B 5604   4.850   0.951   4.055  1.1499  1.9746  2.4333
   60CHL1   C23 5605   4.939   0.782   4.174  0.3756  0.1401  0.3847
   60CHL1  H23A 5606   4.841   0.732   4.183  0.0151  0.8611  0.5229
   60CHL1  H23B 5607   5.019   0.709   4.151 -0.7456 -1.3310  1.0215
   60CHL1   C24 5608   4.961   0.859   4.307 -0.1174 -0.7446  0.1516
   60CHL1  H24A 5609   5.066   0.896   4.311 -0.3660  0.6247 -3.0606
   60CHL1  H24B 5610   4.890   0.944   4.301 -1.1797 -1.5793  0.4731
   60CHL1   C25 5611   4.914   0.779   4.430 -0.3729  0.3995  0.1960
   60CHL1   H25 5612   4.807   0.756   4.407 -0.2898 -1.1738  1.2321
   60CHL1   C26 5613   4.986   0.647   4.444 -0.1324  0.4853  0.9720
   60CHL1  H26A 5614   5.095   0.671   4.443 -0.0360  0.1069 -0.6070
   60CHL1  H26B 5615   4.967   0.600   4.542  0.1352  0.6909  1.1233
   60CHL1  H26C 5616   4.961   0.573   4.365 -1.3567  2.4340 -0.5821
   60CHL1   C27 5617   4.912   0.858   4.563  0.2406 -0.0917  0.2691
   60CHL1  H27A 5618   5.017   0.893   4.578  0.9214 -2.4238  1.3992
   60CHL1  H27B 5619   4.855   0.953   4.552 -0.4259 -0.4188  0.8483
   60CHL1  H27C 5620   4.874   0.792   4.643 -2.9913  1.9258  0.6041
   61CHL1    C3 5621   5.393   4.763   2.648 -0.2642 -0.1569 -0.7172
   61CHL1    H3 5622   5.403   4.871   2.672 -2.9218 -0.0827  0.4482
   61CHL1    O3 5623   5.414   4.749   2.508  0.4841 -0.3074  0.1630
   61CHL1   H3' 5624   5.431   4.655   2.494  1.2561 -0.2332  0.5931
   61CHL1    C4 5625   5.503   4.682   2.727  0.4100  0.3002  1.0090
   61CHL1   H4A 5626   5.502   4.585   2.674 -1.9925  1.5738 -1.5672
   61CHL1   H4B 5627   5.594   4.738   2.699 -1.0476  2.1631 -0.3176
   61CHL1    C5 5628   5.490   4.668   2.877 -0.0036  0.1924 -0.3321
   61CHL1    C6 5629   5.589   4.691   2.965  1.1074  0.8842 -0.1852
   61CHL1    H6 5630   5.692   4.696   2.927  0.6465  2.4690 -1.3392
   61CHL1    C7 5631   5.583   4.676   3.119 -0.2337 -0.2392 -0.3662
   61CHL1   H7A 5632   5.662   4.605   3.152  0.3543 -0.8090 -2.7868
   61CHL1   H7B 5633   5.606   4.772   3.169 -0.4540 -1.5524  2.4590
   61CHL1    C8 5634   5.445   4.622   3.164 -0.2033  0.1217 -0.1960
   61CHL1    H8 5635   5.451   4.511   3.162  2.7734  0.1960 -0.5245
   61CHL1   C14 5636   5.417   4.669   3.306 -0.2897  0.3519  0.1341
   61CHL1   H14 5637   5.402   4.779   3.300  1.2954  0.6817  1.4812
   61CHL1   C15 5638   5.523   4.647   3.410 -0.1515  0.7493  0.1084
   61CHL1  H15A 5639   5.565   4.545   3.400  1.6211  1.3011  1.4609
   61CHL1  H15B 5640   5.617   4.703   3.388 -0.0724 -0.2219 -2.3477
   61CHL1   C16 5641   5.465   4.670   3.545  0.5223  0.1078 -0.4448
   61CHL1  H16A 5642   5.498   4.584   3.607  2.7457 -0.3667 -2.1722
   61CHL1  H16B 5643   5.500   4.761   3.599  2.5907 -1.5334  1.1723
   61CHL1   C17 5644   5.308   4.666   3.519 -0.3793 -0.1419 -0.4625
   61CHL1   H17 5645   5.274   4.772   3.510 -3.1749 -0.3956  4.0640
   61CHL1   C13 5646   5.287   4.617   3.370 -0.2383  0.3671  0.0775
   61CHL1   C18 5647   5.288   4.460   3.374  0.4558  0.4868  0.0607
   61CHL1  H18A 5648   5.203   4.415   3.430  1.2050 -1.0623  0.0109
   61CHL1  H18B 5649   5.288   4.430   3.268 -1.1335  2.2913 -0.5091
   61CHL1  H18C 5650   5.377   4.415   3.423  0.4277  1.7725  1.3447
   61CHL1   C12 5651   5.169   4.667   3.286 -0.2387  0.9966 -0.4894
   61CHL1  H12A 5652   5.072   4.626   3.323 -0.4846  2.9993  1.2185
   61CHL1  H12B 5653   5.164   4.777   3.298 -0.5537  0.9232  0.0757
   61CHL1   C11 5654   5.190   4.637   3.136  0.2347 -0.2081  0.3281
   61CHL1  H11A 5655   5.167   4.529   3.120 -2.5358  0.1526  1.3924
   61CHL1  H11B 5656   5.121   4.698   3.074 -0.1058 -1.0281 -0.1231
   61CHL1    C9 5657   5.325   4.666   3.077  0.0231 -0.8943  0.2301
   61CHL1    H9 5658   5.337   4.776   3.087  3.8399 -1.1745  0.1921
   61CHL1   C10 5659   5.346   4.642   2.922  0.7833  0.3661 -0.1442
   61CHL1   C19 5660   5.328   4.489   2.897 -0.1757  0.0323  0.2280
   61CHL1  H19A 5661   5.222   4.455   2.886 -0.4225 -0.3152  2.9554
   61CHL1  H19B 5662   5.384   4.447   2.810 -0.7498  1.1569 -0.7136
   61CHL1  H19C 5663   5.373   4.435   2.983  2.4621  1.7057 -0.0035
   61CHL1    C1 5664   5.235   4.722   2.837 -0.0901 -0.4797  0.0469
   61CHL1   H1A 5665   5.141   4.666   2.857  0.1603 -0.1243  2.6078
   61CHL1   H1B 5666   5.216   4.822   2.881 -1.2475 -0.2648 -0.8925
   61CHL1    C2 5667   5.252   4.717   2.685 -0.1754  0.3296  0.6878
   61CHL1   H2A 5668   5.178   4.782   2.633  0.7150  0.8893  0.1069
   61CHL1   H2B 5669   5.247   4.610   2.654  3.0079  1.0265 -3.0073
   61CHL1   C20 5670   5.230   4.581   3.623 -0.1681  0.4318 -0.2468
   61CHL1   H20 5671   5.269   4.477   3.613  0.7192  0.8331 -1.1838
   61CHL1   C21 5672   5.080   4.567   3.605  0.3237 -0.3020  0.4925
   61CHL1  H21A 5673   5.048   4.533   3.504  0.4101 -0.4405  0.5105
   61CHL1  H21B 5674   5.024   4.662   3.616 -2.1474 -1.7573  1.1826
   61CHL1  H21C 5675   5.042   4.498   3.683  2.6708 -0.3170  1.7090
   61CHL1   C22 5676   5.260   4.632   3.770  0.2005  0.0178 -0.2346
   61CHL1  H22A 5677   5.370   4.631   3.789 -0.0635 -0.7356  1.4390
   61CHL1  H22B 5678   5.214   4.733   3.771 -0.6419 -0.3577 -0.1288
   61CHL1   C23 5679   5.210   4.554   3.886 -0.4647  0.1629  0.6094
   61CHL1  H23A 5680   5.103   4.578   3.903 -1.3469 -2.2306 -1.0212
   61CHL1  H23B 5681   5.205   4.447   3.855  0.3951  0.3940 -0.3963
   61CHL1   C24 5682   5.283   4.552   4.016  0.2700  0.3519 -0.3663
   61CHL1  H24A 5683   5.392   4.537   4.005  0.1612  0.6204 -1.9724
   61CHL1  H24B 5684   5.274   4.654   4.060 -1.5815 -0.0219  0.2364
   61CHL1   C25 5685   5.221   4.451   4.111  0.5797 -0.2857  0.3651
   61CHL1   H25 5686   5.241   4.350   4.070  0.2501  0.3852 -1.5320
   61CHL1   C26 5687   5.289   4.460   4.249 -0.1098  0.0152  0.1503
   61CHL1  H26A 5688   5.233   4.388   4.313 -1.2970  0.2447 -0.6024
   61CHL1  H26B 5689   5.398   4.443   4.248 -0.2720 -1.1169 -0.0761
   61CHL1  H26C 5690   5.271   4.559   4.295  1.4851  0.3229  0.1686
   61CHL1   C27 5691   5.066   4.470   4.136  0.6922  0.1103  1.4520
   61CHL1  H27A 5692   5.013   4.457   4.039 -0.3316  0.5491  1.9362
   61CHL1  H27B 5693   5.032   4.390   4.206 -0.7879 -0.0336  0.5927
   61CHL1  H27C 5694   5.052   4.568   4.187 -3.1330 -0.2745  1.3983
   62CHL1    C3 5695   1.186   1.887   2.852  0.3811 -0.2319 -0.0979
   62CHL1    H3 5696   1.273   1.818   2.854  1.0505  0.5963  0.5625
   62CHL1    O3 5697   1.158   1.939   2.720  0.6996  0.3006  0.2651
   62CHL1   H3' 5698   1.212   2.018   2.709 -0.3151  0.9663 -0.1160
   62CHL1    C4 5699   1.063   1.818   2.906  0.7394 -0.2013  0.0306
   62CHL1   H4A 5700   0.980   1.892   2.914 -0.0985 -0.9137 -1.4673
   62CHL1   H4B 5701   1.029   1.749   2.825 -1.5268  1.4986 -0.5899
   62CHL1    C5 5702   1.094   1.757   3.035  0.1509 -0.1284  0.0118
   62CHL1    C6 5703   1.073   1.630   3.047 -0.1950 -0.2027 -0.3232
   62CHL1    H6 5704   1.037   1.581   2.955 -1.9383  0.5501 -0.0685
   62CHL1    C7 5705   1.093   1.552   3.174 -0.3712  0.3779  0.8333
   62CHL1   H7A 5706   1.006   1.495   3.212 -0.6228  1.0621  1.2990
   62CHL1   H7B 5707   1.182   1.485   3.165 -1.2596 -0.6242 -1.4016
   62CHL1    C8 5708   1.111   1.648   3.300 -0.3263  0.1207  0.1357
   62CHL1    H8 5709   1.004   1.671   3.317 -0.4173 -1.0099  1.2126
   62CHL1   C14 5710   1.159   1.578   3.425 -1.1828 -0.4611 -0.0220
   62CHL1   H14 5711   1.259   1.532   3.408 -1.0315 -1.1684  2.3471
   62CHL1   C15 5712   1.085   1.459   3.480 -0.3115 -0.2487 -0.5784
   62CHL1  H15A 5713   0.974   1.467   3.476 -0.4106 -1.6725 -1.5850
   62CHL1  H15B 5714   1.115   1.368   3.424  0.7511 -0.5811  0.5145
   62CHL1   C16 5715   1.127   1.458   3.631 -0.3646 -0.2085  0.0758
   62CHL1  H16A 5716   1.035   1.477   3.690  0.0855  0.9581  0.4326
   62CHL1  H16B 5717   1.180   1.364   3.659  0.5526 -0.0807 -1.1073
   62CHL1   C17 5718   1.203   1.592   3.660 -0.1251  0.1037  0.1756
   62CHL1   H17 5719   1.308   1.556   3.653 -1.0018 -2.8927  1.1215
   62CHL1   C13 5720   1.172   1.678   3.541 -0.2124 -0.3187 -1.2597
   62CHL1   C18 5721   1.039   1.744   3.581  0.6933  0.6885  0.5119
   62CHL1  H18A 5722   0.961   1.671   3.611  0.9376  0.0630 -0.3127
   62CHL1  H18B 5723   1.055   1.807   3.670 -1.3335  0.3503  1.1628
   62CHL1  H18C 5724   1.004   1.804   3.494 -1.6140  0.1664  1.0268
   62CHL1   C12 5725   1.271   1.788   3.501  0.0587 -0.2177 -0.8018
   62CHL1  H12A 5726   1.283   1.862   3.583 -0.3615  2.0003 -2.6396
   62CHL1  H12B 5727   1.374   1.752   3.484  0.8538  0.9974  1.0766
   62CHL1   C11 5728   1.228   1.866   3.383  0.0078  0.3466 -0.3084
   62CHL1  H11A 5729   1.145   1.931   3.420 -0.2404  0.5217 -1.1481
   62CHL1  H11B 5730   1.307   1.937   3.350  0.9683 -0.1506  0.8254
   62CHL1    C9 5731   1.195   1.775   3.263 -0.1328  0.0280  0.4699
   62CHL1    H9 5732   1.297   1.739   3.236  0.0038  0.3221  0.5952
   62CHL1   C10 5733   1.144   1.852   3.145 -0.7799 -0.0352  0.2926
   62CHL1   C19 5734   1.017   1.934   3.184  0.3821 -0.1984 -0.3023
   62CHL1  H19A 5735   0.938   1.874   3.234 -0.2918  0.2226 -0.8448
   62CHL1  H19B 5736   1.047   2.022   3.246  0.1128  1.0412 -1.8743
   62CHL1  H19C 5737   0.957   1.979   3.103  1.4770 -0.7371 -1.4449
   62CHL1    C1 5738   1.254   1.947   3.094  0.1044 -0.3166  0.5224
   62CHL1   H1A 5739   1.271   2.031   3.165 -0.5605 -1.0833  1.6157
   62CHL1   H1B 5740   1.346   1.885   3.086  1.0431  0.9668  1.0699
   62CHL1    C2 5741   1.224   2.002   2.949  0.3549  0.0373 -0.5333
   62CHL1   H2A 5742   1.315   2.051   2.908  1.8744 -1.8629  0.3781
   62CHL1   H2B 5743   1.145   2.076   2.973  0.6980 -0.1388  1.3247
   62CHL1   C20 5744   1.197   1.638   3.810 -0.8913  0.8617 -0.2758
   62CHL1   H20 5745   1.093   1.668   3.836 -1.3399 -0.6178 -0.2537
   62CHL1   C21 5746   1.304   1.755   3.832  0.0971  0.4563  0.1897
   62CHL1  H21A 5747   1.307   1.770   3.942 -1.1667 -2.4738  0.7147
   62CHL1  H21B 5748   1.268   1.846   3.779  1.0146  0.6506 -0.1100
   62CHL1  H21C 5749   1.404   1.730   3.790 -0.0632  0.8540 -0.4407
   62CHL1   C22 5750   1.230   1.519   3.908 -0.2404 -0.3256 -0.1383
   62CHL1  H22A 5751   1.144   1.451   3.887 -0.9248  0.5261 -0.1671
   62CHL1  H22B 5752   1.327   1.477   3.875  0.8511  0.8490  1.4478
   62CHL1   C23 5753   1.232   1.554   4.057  0.0781 -0.4853 -0.6606
   62CHL1  H23A 5754   1.329   1.599   4.086 -0.9077  3.0799 -2.3525
   62CHL1  H23B 5755   1.167   1.641   4.084 -0.6566 -1.1030 -0.3832
   62CHL1   C24 5756   1.183   1.428   4.136  0.1966 -0.5373 -0.4317
   62CHL1  H24A 5757   1.086   1.383   4.104  0.0650 -1.7180  1.4640
   62CHL1  H24B 5758   1.264   1.354   4.124  0.2513 -0.3797 -1.0999
   62CHL1   C25 5759   1.153   1.443   4.285  0.3684 -0.6375 -0.3493
   62CHL1   H25 5760   1.142   1.336   4.314  0.7833 -0.9467 -1.2715
   62CHL1   C26 5761   1.272   1.500   4.364  0.1796 -0.3966  0.4865
   62CHL1  H26A 5762   1.282   1.606   4.333  0.0869 -0.7849 -0.9033
   62CHL1  H26B 5763   1.256   1.503   4.474 -0.0486  2.7293  0.4450
   62CHL1  H26C 5764   1.361   1.442   4.331 -1.7266 -1.3904 -3.4243
   62CHL1   C27 5765   1.016   1.524   4.312  0.0723  0.0754 -0.4937
   62CHL1  H27A 5766   0.993   1.537   4.420 -1.0858 -0.0900 -0.7154
   62CHL1  H27B 5767   1.028   1.622   4.262 -1.9395  0.0630 -1.0877
   62CHL1  H27C 5768   0.934   1.462   4.271 -0.4903 -0.4019  1.2433
   63CHL1    C3 5769   4.113   6.506   2.807 -0.1941  0.4249  0.2746
   63CHL1    H3 5770   4.113   6.616   2.787  0.4333  0.6665  1.5217
   63CHL1    O3 5771   4.107   6.428   2.695  0.2291 -0.0509 -0.3396
   63CHL1   H3' 5772   4.197   6.411   2.666 -0.2160 -2.2392 -0.6098
   63CHL1    C4 5773   4.235   6.463   2.888 -0.0917 -0.2022  0.2735
   63CHL1   H4A 5774   4.221   6.353   2.895 -0.7279 -0.1948 -0.6853
   63CHL1   H4B 5775   4.322   6.485   2.823 -1.1237 -3.0972 -2.3147
   63CHL1    C5 5776   4.249   6.521   3.030  0.3146 -0.0823 -0.6464
   63CHL1    C6 5777   4.357   6.591   3.072  0.0869 -0.1647 -0.0295
   63CHL1    H6 5778   4.443   6.611   3.007 -0.3502  2.3534  0.0615
   63CHL1    C7 5779   4.362   6.650   3.213  0.0396  0.4686  0.7975
   63CHL1   H7A 5780   4.462   6.642   3.262 -0.6345  4.9055  3.4331
   63CHL1   H7B 5781   4.341   6.759   3.212 -0.5452  0.3689  1.5005
   63CHL1    C8 5782   4.258   6.587   3.303  0.0114 -0.6127 -0.4834
   63CHL1    H8 5783   4.287   6.484   3.332  2.1596  0.5773  1.9996
   63CHL1   C14 5784   4.251   6.674   3.432 -0.7770 -0.0527 -0.4169
   63CHL1   H14 5785   4.221   6.779   3.412 -2.8277 -0.3693  0.7380
   63CHL1   C15 5786   4.380   6.681   3.515  0.0637  0.4179 -0.7010
   63CHL1  H15A 5787   4.431   6.582   3.523 -1.5780 -0.4033  0.0323
   63CHL1  H15B 5788   4.450   6.754   3.468  0.8218  0.9808  1.2149
   63CHL1   C16 5789   4.334   6.734   3.657  0.1902 -0.1445 -0.0215
   63CHL1  H16A 5790   4.391   6.678   3.734  0.9968 -2.7429 -2.3560
   63CHL1  H16B 5791   4.357   6.843   3.657 -0.1454 -0.0556 -1.3470
   63CHL1   C17 5792   4.178   6.706   3.661 -0.9353  0.0663 -0.8433
   63CHL1   H17 5793   4.139   6.803   3.625 -0.6102 -0.3292 -2.3200
   63CHL1   C13 5794   4.153   6.615   3.540 -0.1932  0.8829 -0.3506
   63CHL1   C18 5795   4.184   6.469   3.584 -0.3690 -0.4992 -0.7439
   63CHL1  H18A 5796   4.282   6.451   3.632 -0.1748  0.4274 -0.7668
   63CHL1  H18B 5797   4.106   6.445   3.660  0.4229 -2.4094 -0.5074
   63CHL1  H18C 5798   4.177   6.393   3.504 -1.2154 -2.9253  1.5110
   63CHL1   C12 5799   4.013   6.634   3.478 -0.3853 -0.0951 -0.5113
   63CHL1  H12A 5800   3.935   6.604   3.551 -1.4815  1.0473 -1.1804
   63CHL1  H12B 5801   3.989   6.741   3.462 -0.1642  0.1423  0.6356
   63CHL1   C11 5802   4.006   6.551   3.352 -0.1134 -0.4437  0.6095
   63CHL1  H11A 5803   4.019   6.444   3.378 -0.3917 -0.8813 -0.9301
   63CHL1  H11B 5804   3.904   6.554   3.308  0.8445  2.1548 -1.7985
   63CHL1    C9 5805   4.116   6.588   3.243  0.5963  0.9530 -0.4990
   63CHL1    H9 5806   4.101   6.695   3.216 -0.4650  0.7317 -0.8232
   63CHL1   C10 5807   4.124   6.506   3.112 -0.5286  0.3839  0.2352
   63CHL1   C19 5808   4.120   6.358   3.146  0.3744 -0.2299 -0.1412
   63CHL1  H19A 5809   4.209   6.333   3.208 -1.0436 -1.0609  1.6576
   63CHL1  H19B 5810   4.026   6.329   3.198  1.6618 -1.6931  1.5197
   63CHL1  H19C 5811   4.121   6.302   3.051  0.4760  0.0526 -0.3070
   63CHL1    C1 5812   3.996   6.545   3.038  0.1643  0.4482  0.7268
   63CHL1   H1A 5813   3.906   6.504   3.090 -1.3019  0.5091 -1.6110
   63CHL1   H1B 5814   3.984   6.655   3.039 -1.3192  0.3094  0.9870
   63CHL1    C2 5815   3.988   6.485   2.892 -0.8546  0.2137 -0.3599
   63CHL1   H2A 5816   3.902   6.542   2.851 -1.0660 -0.7105 -1.2410
   63CHL1   H2B 5817   3.951   6.383   2.914  1.1544 -0.0225  2.4220
   63CHL1   C20 5818   4.115   6.685   3.803 -0.1347  0.4909  0.2451
   63CHL1   H20 5819   4.146   6.584   3.836  0.8350  0.5712 -0.3886
   63CHL1   C21 5820   3.962   6.679   3.791  0.1870 -0.1009  0.5439
   63CHL1  H21A 5821   3.930   6.772   3.739 -2.2480  0.6641  3.1179
   63CHL1  H21B 5822   3.911   6.700   3.888 -1.5784 -1.0339 -0.1280
   63CHL1  H21C 5823   3.924   6.581   3.754 -0.0965  0.1316  0.2195
   63CHL1   C22 5824   4.162   6.801   3.895 -0.1386  0.6182 -0.3217
   63CHL1  H22A 5825   4.273   6.798   3.906 -0.2662  1.0590  1.3986
   63CHL1  H22B 5826   4.135   6.894   3.842 -0.0434 -0.6284 -2.6645
   63CHL1   C23 5827   4.094   6.807   4.037  0.3201  0.0325 -0.1061
   63CHL1  H23A 5828   3.986   6.832   4.023 -0.4478 -2.4346  0.8754
   63CHL1  H23B 5829   4.088   6.705   4.082 -1.8715  0.1014 -0.1086
   63CHL1   C24 5830   4.180   6.906   4.113 -0.3059  0.8735 -0.1301
   63CHL1  H24A 5831   4.281   6.860   4.117 -1.4963 -2.0088 -0.4808
   63CHL1  H24B 5832   4.185   7.000   4.055 -2.7787  1.2473  0.1388
   63CHL1   C25 5833   4.132   6.928   4.252  0.2761  0.2119  0.5578
   63CHL1   H25 5834   4.029   6.968   4.241  0.5415  0.6341 -0.5158
   63CHL1   C26 5835   4.146   6.806   4.340  0.4986  0.4362  0.1778
   63CHL1  H26A 5836   4.249   6.765   4.346  0.5539  0.6509  0.7596
   63CHL1  H26B 5837   4.106   6.828   4.441 -0.6130 -0.1541 -0.1150
   63CHL1  H26C 5838   4.083   6.721   4.307  1.0776  0.2711 -0.5370
   63CHL1   C27 5839   4.216   7.044   4.310 -0.5554 -0.2533  0.6094
   63CHL1  H27A 5840   4.325   7.023   4.298 -0.5825 -0.8551  1.3378
   63CHL1  H27B 5841   4.181   7.121   4.238  0.2102 -0.3383  0.1349
   63CHL1  H27C 5842   4.191   7.070   4.415 -1.1321  2.4408 -0.1285
   64CHL1    C3 5843   2.382   3.189   2.697 -0.4778 -0.5272 -0.2634
   64CHL1    H3 5844   2.476   3.247   2.705 -1.7926  1.7793 -0.5887
   64CHL1    O3 5845   2.352   3.205   2.559 -0.5100 -0.0693 -0.0243
   64CHL1   H3' 5846   2.258   3.227   2.556 -0.4264  0.2625 -0.3084
   64CHL1    C4 5847   2.406   3.042   2.732  0.3517 -0.3793  0.3172
   64CHL1   H4A 5848   2.311   2.995   2.697 -0.0247  0.6898 -0.1267
   64CHL1   H4B 5849   2.490   3.011   2.666  0.7624 -0.3082  0.7983
   64CHL1    C5 5850   2.424   3.015   2.880 -0.1538 -0.4009 -0.1887
   64CHL1    C6 5851   2.524   2.937   2.913 -0.4500 -0.0142  0.1298
   64CHL1    H6 5852   2.594   2.902   2.836 -1.3399  1.6513 -1.5003
   64CHL1    C7 5853   2.553   2.889   3.053  0.8129  0.2642  0.5255
   64CHL1   H7A 5854   2.565   2.779   3.046 -0.3470  0.2371 -1.7913
   64CHL1   H7B 5855   2.647   2.938   3.088 -0.3491  3.0973 -0.0518
   64CHL1    C8 5856   2.433   2.931   3.144 -0.0695 -0.0955 -0.3789
   64CHL1    H8 5857   2.348   2.860   3.137  0.4512 -0.9102  0.9352
   64CHL1   C14 5858   2.488   2.931   3.291 -0.1204 -0.5252 -0.3256
   64CHL1   H14 5859   2.580   2.994   3.289  1.3309 -2.5041 -2.7626
   64CHL1   C15 5860   2.548   2.800   3.330 -0.3093  0.3421 -0.2051
   64CHL1  H15A 5861   2.479   2.723   3.291 -1.1399  1.1538 -0.3779
   64CHL1  H15B 5862   2.649   2.775   3.292 -0.7721 -1.0960 -0.5430
   64CHL1   C16 5863   2.553   2.798   3.484  0.2724 -0.0468  1.2515
   64CHL1  H16A 5864   2.496   2.712   3.525 -0.7589 -1.0029 -1.9265
   64CHL1  H16B 5865   2.656   2.807   3.524  0.4152  2.3209  0.5247
   64CHL1   C17 5866   2.469   2.932   3.524 -1.0346  0.1614  0.1146
   64CHL1   H17 5867   2.557   3.000   3.531  0.0723 -0.7272 -3.1381
   64CHL1   C13 5868   2.386   2.967   3.398  0.1415  0.2799 -0.0472
   64CHL1   C18 5869   2.264   2.870   3.397  0.7109 -0.0259 -0.1241
   64CHL1  H18A 5870   2.300   2.768   3.425 -0.5984 -0.6355 -0.5412
   64CHL1  H18B 5871   2.192   2.897   3.478  1.3472 -1.0302  0.8122
   64CHL1  H18C 5872   2.207   2.882   3.302  0.7687  1.2560 -0.0115
   64CHL1   C12 5873   2.348   3.113   3.371 -0.6399 -0.6147 -0.0183
   64CHL1  H12A 5874   2.272   3.154   3.441 -1.9362 -0.5331 -1.4399
   64CHL1  H12B 5875   2.441   3.173   3.362 -0.5171 -1.0501 -2.3118
   64CHL1   C11 5876   2.291   3.140   3.234  0.2206  0.7092  0.4970
   64CHL1  H11A 5877   2.184   3.109   3.233  0.0616  1.2660 -0.0353
   64CHL1  H11B 5878   2.276   3.248   3.216 -0.8860  0.2961 -1.2646
   64CHL1    C9 5879   2.384   3.077   3.122  0.1117 -0.0082 -0.4125
   64CHL1    H9 5880   2.482   3.128   3.117  1.1577 -1.7320  0.9083
   64CHL1   C10 5881   2.324   3.085   2.975 -0.3738 -0.1067  0.2344
   64CHL1   C19 5882   2.185   3.023   2.968 -0.2104 -0.6461  0.2474
   64CHL1  H19A 5883   2.135   3.021   2.869 -1.0843  1.9302  0.5659
   64CHL1  H19B 5884   2.189   2.918   3.004 -0.7784 -0.7389  0.0401
   64CHL1  H19C 5885   2.116   3.086   3.029  1.4750  1.6434 -0.0467
   64CHL1    C1 5886   2.302   3.235   2.934  0.0255 -0.2995 -0.7977
   64CHL1   H1A 5887   2.211   3.280   2.979  0.0278 -0.1369 -0.9546
   64CHL1   H1B 5888   2.386   3.293   2.977 -1.0450  1.2930 -0.7702
   64CHL1    C2 5889   2.278   3.262   2.782 -0.0540  0.3568 -1.4826
   64CHL1   H2A 5890   2.262   3.372   2.779  0.8233  0.7011  1.8448
   64CHL1   H2B 5891   2.179   3.215   2.763  0.4544 -2.1169  1.1285
   64CHL1   C20 5892   2.402   2.926   3.664 -0.5068 -0.6344  0.3104
   64CHL1   H20 5893   2.298   2.886   3.651  0.1580 -2.7020  0.8723
   64CHL1   C21 5894   2.401   3.067   3.719  0.0132 -0.0880 -0.3782
   64CHL1  H21A 5895   2.347   3.072   3.816  1.1798  2.4391  0.2074
   64CHL1  H21B 5896   2.367   3.155   3.660  0.0149  0.9187  1.0774
   64CHL1  H21C 5897   2.506   3.089   3.744  0.5989 -4.0321  1.3370
   64CHL1   C22 5898   2.476   2.828   3.762  0.9759 -0.3093  0.1267
   64CHL1  H22A 5899   2.449   2.724   3.736  1.3794 -0.1173 -1.0884
   64CHL1  H22B 5900   2.582   2.853   3.743  0.3801  2.6617  0.1749
   64CHL1   C23 5901   2.455   2.849   3.916 -0.7708  0.1180 -0.0596
   64CHL1  H23A 5902   2.489   2.950   3.950  1.1664 -0.3858 -0.3545
   64CHL1  H23B 5903   2.347   2.836   3.936 -1.2723  1.8831 -1.3330
   64CHL1   C24 5904   2.525   2.740   3.999  0.0558  0.3768  0.4564
   64CHL1  H24A 5905   2.501   2.639   3.960 -0.7200  1.2087 -1.2952
   64CHL1  H24B 5906   2.634   2.755   3.984 -0.3146  2.2776 -0.5938
   64CHL1   C25 5907   2.492   2.755   4.149 -0.3989  0.5471 -0.2638
   64CHL1   H25 5908   2.481   2.862   4.177 -1.4086  0.0094  1.5791
   64CHL1   C26 5909   2.350   2.694   4.181  0.0630 -0.0663 -0.0804
   64CHL1  H26A 5910   2.339   2.596   4.131 -0.7798 -0.0622  0.0818
   64CHL1  H26B 5911   2.334   2.699   4.291  1.0399 -0.5015  0.0903
   64CHL1  H26C 5912   2.274   2.758   4.130  0.5590  0.5918 -0.0105
   64CHL1   C27 5913   2.606   2.695   4.236 -0.2907  0.1831 -0.4302
   64CHL1  H27A 5914   2.612   2.584   4.234  1.8176  0.2437 -2.3490
   64CHL1  H27B 5915   2.703   2.731   4.195 -1.0267  1.9749 -0.7067
   64CHL1  H27C 5916   2.592   2.732   4.340 -1.3815  1.3668 -0.9809
   65CHL1    C3 5917   0.095   1.261   3.077 -0.1620  0.7117  0.4997
   65CHL1    H3 5918   0.058   1.363   3.104 -2.9147 -0.2019  0.4882
   65CHL1    O3 5919   0.103   1.262   2.938  0.5571 -0.1505 -0.7683
   65CHL1   H3' 5920   0.011   1.288   2.928 -0.3434 -1.4207  2.7059
   65CHL1    C4 5921   0.235   1.231   3.132 -0.1288  0.0014  0.0349
   65CHL1   H4A 5922   0.257   1.131   3.089  0.2223  0.3023 -0.4988
   65CHL1   H4B 5923   0.306   1.307   3.093 -0.1597  0.5371  1.0009
   65CHL1    C5 5924   0.238   1.237   3.280  0.0375  0.5133 -0.0875
   65CHL1    C6 5925   0.317   1.321   3.342  0.6034 -0.3017  0.2730
   65CHL1    H6 5926   0.376   1.397   3.289 -1.5803  0.3110 -1.4348
   65CHL1    C7 5927   0.333   1.315   3.490 -0.1967  0.4095 -0.3093
   65CHL1   H7A 5928   0.443   1.318   3.509 -0.1884 -0.5613 -0.1275
   65CHL1   H7B 5929   0.297   1.406   3.542  0.6221 -0.3289  1.6692
   65CHL1    C8 5930   0.271   1.193   3.564 -0.0500 -0.5481 -0.4280
   65CHL1    H8 5931   0.330   1.102   3.542 -1.3810 -1.5533 -0.0202
   65CHL1   C14 5932   0.267   1.217   3.712 -0.3278  0.6456 -0.6252
   65CHL1   H14 5933   0.216   1.315   3.718 -1.3474  0.1948 -1.5046
   65CHL1   C15 5934   0.406   1.239   3.774 -0.0033 -0.3530  0.5942
   65CHL1  H15A 5935   0.484   1.171   3.735  1.7463  2.9456 -2.2123
   65CHL1  H15B 5936   0.446   1.342   3.759  0.0583  0.1468  3.5219
   65CHL1   C16 5937   0.370   1.217   3.923 -0.4196  0.5866  0.1185
   65CHL1  H16A 5938   0.438   1.135   3.954 -1.2966  0.2282  1.1273
   65CHL1  H16B 5939   0.386   1.313   3.976 -0.6026  0.7780 -0.1662
   65CHL1   C17 5940   0.224   1.162   3.935  0.3889  0.0385  0.4646
   65CHL1   H17 5941   0.169   1.258   3.938  0.7876  0.4955 -2.6699
   65CHL1   C13 5942   0.191   1.108   3.798 -0.3001  0.0573  0.1365
   65CHL1   C18 5943   0.259   0.968   3.789  0.0881  0.0302  0.0643
   65CHL1  H18A 5944   0.356   0.966   3.843 -0.5493  1.6872  1.3405
   65CHL1  H18B 5945   0.194   0.894   3.840 -0.1894  1.1135  1.3146
   65CHL1  H18C 5946   0.270   0.940   3.682 -0.2886  2.8292 -0.7966
   65CHL1   C12 5947   0.049   1.118   3.746  0.1820 -0.3517  0.5414
   65CHL1  H12A 5948  -0.013   1.044   3.799  0.9773 -1.2076  0.3043
   65CHL1  H12B 5949   0.014   1.222   3.763  2.2288  0.2651  1.3539
   65CHL1   C11 5950   0.047   1.084   3.595  0.0725  0.4515  0.1720
   65CHL1  H11A 5951   0.070   0.978   3.573  0.4698  0.6824 -0.5597
   65CHL1  H11B 5952  -0.056   1.105   3.559  0.1254 -0.9568 -0.9037
   65CHL1    C9 5953   0.132   1.177   3.506 -0.5148 -0.2538 -0.0289
   65CHL1    H9 5954   0.087   1.278   3.512  0.2457  0.3211 -2.6630
   65CHL1   C10 5955   0.137   1.140   3.354  0.5095 -0.8781  0.6747
   65CHL1   C19 5956   0.184   0.997   3.342  0.7443 -0.0281 -0.2889
   65CHL1  H19A 5957   0.117   0.925   3.392 -0.8092  0.9457 -0.8953
   65CHL1  H19B 5958   0.180   0.969   3.235  1.5613 -2.0503  0.1662
   65CHL1  H19C 5959   0.288   0.985   3.378  0.9691 -0.4487 -1.0644
   65CHL1    C1 5960  -0.001   1.170   3.288  0.1514 -0.3759  0.1764
   65CHL1   H1A 5961  -0.074   1.097   3.330  1.1835  0.3503  3.5745
   65CHL1   H1B 5962  -0.030   1.274   3.312  0.9364 -0.0322 -0.3248
   65CHL1    C2 5963  -0.013   1.159   3.132  0.0885  0.2524  0.5623
   65CHL1   H2A 5964  -0.115   1.179   3.093 -0.2876 -0.5880  1.0889
   65CHL1   H2B 5965   0.024   1.056   3.114  1.4350  0.4936  1.7951
   65CHL1   C20 5966   0.194   1.080   4.065 -0.2737 -0.3225  0.0428
   65CHL1   H20 5967   0.252   0.987   4.045  0.0400  0.2560 -2.0624
   65CHL1   C21 5968   0.047   1.038   4.072  0.0056 -0.4775 -0.3948
   65CHL1  H21A 5969   0.017   0.972   3.987 -0.7234 -0.5656 -0.0775
   65CHL1  H21B 5970  -0.017   1.128   4.062  0.8143  0.0260 -1.2167
   65CHL1  H21C 5971   0.022   0.984   4.166  1.5017 -0.0051  0.2952
   65CHL1   C22 5972   0.239   1.146   4.191 -0.6637 -0.3648 -0.6019
   65CHL1  H22A 5973   0.340   1.190   4.191 -0.1544 -1.4267  1.2902
   65CHL1  H22B 5974   0.166   1.227   4.212 -1.3804 -1.0743 -0.2596
   65CHL1   C23 5975   0.250   1.040   4.305 -0.1536  0.4549 -0.1005
   65CHL1  H23A 5976   0.169   0.964   4.308  1.0647 -0.8408  1.4941
   65CHL1  H23B 5977   0.350   0.994   4.296 -1.2041 -2.2973  1.0384
   65CHL1   C24 5978   0.242   1.111   4.447 -0.1051 -0.5559  0.4535
   65CHL1  H24A 5979   0.327   1.181   4.465 -0.1409 -0.5204  0.4848
   65CHL1  H24B 5980   0.144   1.161   4.458  0.1675 -0.3992  2.8326
   65CHL1   C25 5981   0.256   1.012   4.577 -0.4578  0.7598  0.3690
   65CHL1   H25 5982   0.258   1.085   4.662 -0.1944  0.3202  0.7439
   65CHL1   C26 5983   0.155   0.901   4.613 -0.5533  0.4069 -0.8957
   65CHL1  H26A 5984   0.052   0.941   4.624  0.2155  2.3306 -0.2300
   65CHL1  H26B 5985   0.161   0.818   4.540  1.4161 -0.1205 -0.1899
   65CHL1  H26C 5986   0.172   0.866   4.716 -0.6235  3.2767  0.1889
   65CHL1   C27 5987   0.406   0.959   4.579  0.4506 -0.2179 -0.4387
   65CHL1  H27A 5988   0.440   0.926   4.679  0.5876  0.5014 -0.2413
   65CHL1  H27B 5989   0.412   0.879   4.502  0.8256  1.0847 -1.8079
   65CHL1  H27C 5990   0.470   1.047   4.556 -2.0416  1.6421 -0.6971
   66CHL1    C3 5991   4.150   1.658   3.275 -0.1785 -0.4034  0.4028
   66CHL1    H3 5992   4.159   1.768   3.293 -0.1448 -0.6401  1.9651
   66CHL1    O3 5993   4.157   1.626   3.138 -0.4912  0.2970  0.4523
   66CHL1   H3' 5994   4.106   1.545   3.133 -0.7313  0.3953  1.1646
   66CHL1    C4 5995   4.272   1.595   3.336 -0.1350 -0.7026 -0.5548
   66CHL1   H4A 5996   4.257   1.486   3.322  0.0912 -0.5818 -1.8012
   66CHL1   H4B 5997   4.370   1.613   3.287  0.2572 -2.9731 -0.7266
   66CHL1    C5 5998   4.272   1.613   3.493 -0.1152  0.4810  0.8158
   66CHL1    C6 5999   4.377   1.661   3.560 -0.8849 -0.4665 -0.5317
   66CHL1    H6 6000   4.475   1.681   3.513 -0.0017 -1.9126  0.5982
   66CHL1    C7 6001   4.378   1.667   3.708 -0.1922 -0.4671 -0.3503
   66CHL1   H7A 6002   4.476   1.640   3.753  0.2420 -0.7176 -1.4223
   66CHL1   H7B 6003   4.371   1.771   3.746  1.1446 -0.1898 -0.8322
   66CHL1    C8 6004   4.261   1.587   3.783 -0.7464  0.6133 -0.0748
   66CHL1    H8 6005   4.301   1.484   3.787  1.3332  1.3709  0.1820
   66CHL1   C14 6006   4.244   1.644   3.924  0.3789 -0.1236 -0.7725
   66CHL1   H14 6007   4.211   1.749   3.909 -0.2594 -0.4140 -1.4973
   66CHL1   C15 6008   4.374   1.655   4.013  0.3473  0.1574 -0.5698
   66CHL1  H15A 6009   4.433   1.561   4.018  1.7813  0.9158 -2.1861
   66CHL1  H15B 6010   4.446   1.729   3.972  1.4596  0.2474  1.4298
   66CHL1   C16 6011   4.317   1.684   4.148  0.2017  0.1979 -0.1001
   66CHL1  H16A 6012   4.350   1.604   4.217 -1.9881 -1.0766 -0.4067
   66CHL1  H16B 6013   4.335   1.781   4.198  1.1072 -0.8084  1.6237
   66CHL1   C17 6014   4.161   1.657   4.143 -0.0330 -0.1626  0.9189
   66CHL1   H17 6015   4.111   1.756   4.139 -1.0400 -0.7041 -2.0007
   66CHL1   C13 6016   4.135   1.583   4.012  0.7034  0.1119  0.2968
   66CHL1   C18 6017   4.171   1.432   4.028 -0.2953 -0.3447  0.2976
   66CHL1  H18A 6018   4.133   1.385   3.936  1.5534 -0.7115 -0.3187
   66CHL1  H18B 6019   4.279   1.411   4.048  0.1664  2.0170  0.6567
   66CHL1  H18C 6020   4.110   1.393   4.112 -1.8172 -0.3841 -0.7914
   66CHL1   C12 6021   3.997   1.593   3.939  0.0010 -0.2507  0.5098
   66CHL1  H12A 6022   3.928   1.524   3.993 -2.0338  0.7855 -0.6679
   66CHL1  H12B 6023   3.959   1.697   3.936  1.7242  0.3756 -0.9891
   66CHL1   C11 6024   4.003   1.551   3.784  0.0819  0.1916 -0.2200
   66CHL1  H11A 6025   4.011   1.440   3.787  1.7739  0.3082  2.7692
   66CHL1  H11B 6026   3.910   1.594   3.741  0.2515  0.0204 -0.7666
   66CHL1    C9 6027   4.127   1.610   3.707 -0.0846 -0.0537 -0.2362
   66CHL1    H9 6028   4.106   1.719   3.699  0.2001 -0.1193 -3.7441
   66CHL1   C10 6029   4.136   1.568   3.558  0.0600  0.1345 -0.1566
   66CHL1   C19 6030   4.128   1.412   3.542  0.7210  0.3414  0.3234
   66CHL1  H19A 6031   4.167   1.369   3.448 -0.7751 -2.3068  0.7971
   66CHL1  H19B 6032   4.195   1.368   3.619 -0.9541 -1.1305  1.0413
   66CHL1  H19C 6033   4.024   1.378   3.565  0.9018  1.4377  3.2178
   66CHL1    C1 6034   4.022   1.637   3.489  0.0411  0.4739  0.0886
   66CHL1   H1A 6035   3.927   1.592   3.526 -0.3678  1.1855 -0.0641
   66CHL1   H1B 6036   4.024   1.747   3.507  1.3085  0.8447 -2.0045
   66CHL1    C2 6037   4.019   1.612   3.341 -0.1526 -0.0030  0.4994
   66CHL1   H2A 6038   3.934   1.667   3.296  1.6987  1.8453 -0.9304
   66CHL1   H2B 6039   4.010   1.504   3.318  1.3471 -0.5721  2.2817
   66CHL1   C20 6040   4.107   1.607   4.272  0.1132  0.4000 -0.4898
   66CHL1   H20 6041   4.157   1.511   4.295 -0.6601  0.4059  1.4005
   66CHL1   C21 6042   3.951   1.598   4.258  0.0359 -0.3690 -0.4627
   66CHL1  H21A 6043   3.909   1.687   4.208 -0.8506 -1.7170 -2.2504
   66CHL1  H21B 6044   3.909   1.589   4.360 -1.4380 -0.1184 -1.0212
   66CHL1  H21C 6045   3.923   1.504   4.205 -1.7616 -1.4195  2.1677
   66CHL1   C22 6046   4.141   1.703   4.390  0.5328  0.2478 -0.0386
   66CHL1  H22A 6047   4.251   1.718   4.399  0.3055  0.8580  2.4270
   66CHL1  H22B 6048   4.092   1.799   4.362 -1.4639 -0.9311 -0.7960
   66CHL1   C23 6049   4.099   1.670   4.534  0.0082  0.5697 -0.2660
   66CHL1  H23A 6050   4.143   1.751   4.597 -1.3970  2.4365 -1.5587
   66CHL1  H23B 6051   3.988   1.678   4.536 -0.1832 -1.3635  2.9239
   66CHL1   C24 6052   4.152   1.532   4.576 -0.9479 -0.6118  0.5913
   66CHL1  H24A 6053   4.083   1.455   4.536  0.9466 -1.5566 -1.0017
   66CHL1  H24B 6054   4.250   1.520   4.526 -0.6299  0.9020  0.7993
   66CHL1   C25 6055   4.168   1.521   4.724 -0.2153 -0.5612  0.1017
   66CHL1   H25 6056   4.257   1.581   4.753 -0.5771 -0.9679  2.2196
   66CHL1   C26 6057   4.055   1.585   4.810  0.2141  0.2834 -0.4886
   66CHL1  H26A 6058   3.984   1.504   4.838  0.5626  0.4827  1.0375
   66CHL1  H26B 6059   4.093   1.622   4.907  0.9093 -2.0703  0.2027
   66CHL1  H26C 6060   4.003   1.667   4.757 -1.2385 -0.9275 -1.0083
   66CHL1   C27 6061   4.186   1.374   4.762 -0.2296 -0.7195 -0.4050
   66CHL1  H27A 6062   4.223   1.357   4.865 -1.9304  0.8640  0.5169
   66CHL1  H27B 6063   4.273   1.339   4.701  0.6596 -2.1002  1.5603
   66CHL1  H27C 6064   4.093   1.315   4.751 -0.6544 -0.2183  0.4445
   67CHL1    C3 6065   4.558   0.565   3.069 -0.0744 -0.1905 -0.1658
   67CHL1    H3 6066   4.668   0.575   3.078  0.1089 -0.7522 -1.5692
   67CHL1    O3 6067   4.531   0.572   2.930  1.0107 -0.0989 -0.0580
   67CHL1   H3' 6068   4.438   0.549   2.926  0.9351 -1.0206  3.3118
   67CHL1    C4 6069   4.517   0.427   3.132  0.2552  0.2788  0.1272
   67CHL1   H4A 6070   4.408   0.420   3.111  0.5247  0.0149 -1.3086
   67CHL1   H4B 6071   4.561   0.353   3.062  2.5847  1.5951  0.1062
   67CHL1    C5 6072   4.523   0.405   3.284  0.0770 -0.5322  0.1465
   67CHL1    C6 6073   4.583   0.296   3.331 -0.1144 -0.3386 -0.3702
   67CHL1    H6 6074   4.616   0.221   3.257  0.7266  1.6347 -2.1217
   67CHL1    C7 6075   4.595   0.266   3.479 -0.9499  0.5875 -1.0649
   67CHL1   H7A 6076   4.564   0.161   3.499  1.2499  0.1344  0.2764
   67CHL1   H7B 6077   4.701   0.278   3.510 -1.1062 -1.6439  0.5735
   67CHL1    C8 6078   4.517   0.367   3.567 -0.0953  1.1143 -0.3864
   67CHL1    H8 6079   4.412   0.330   3.570  0.0074  0.7969 -0.6140
   67CHL1   C14 6080   4.567   0.364   3.709 -0.8506  0.5525 -0.7856
   67CHL1   H14 6081   4.670   0.406   3.711 -0.5876 -0.1077 -0.3102
   67CHL1   C15 6082   4.581   0.234   3.782  0.1067 -0.1058  0.8017
   67CHL1  H15A 6083   4.501   0.157   3.774 -0.0180  0.0467  0.5909
   67CHL1  H15B 6084   4.677   0.181   3.760  0.6993  1.1352  0.2582
   67CHL1   C16 6085   4.587   0.270   3.934  0.0770  0.3117 -0.0683
   67CHL1  H16A 6086   4.508   0.227   3.999  1.7944  0.0149  1.9268
   67CHL1  H16B 6087   4.689   0.249   3.974  0.5754  1.8740 -0.4533
   67CHL1   C17 6088   4.570   0.428   3.939  0.1461  0.5412 -0.5242
   67CHL1   H17 6089   4.672   0.472   3.931 -0.1185  1.2325 -0.1904
   67CHL1   C13 6090   4.494   0.457   3.809 -0.6000  0.3761 -0.6222
   67CHL1   C18 6091   4.349   0.397   3.831 -0.0265 -0.0299 -0.3015
   67CHL1  H18A 6092   4.307   0.377   3.730  0.7952 -0.6119 -0.5333
   67CHL1  H18B 6093   4.345   0.299   3.884  0.6578  0.5938  0.9625
   67CHL1  H18C 6094   4.280   0.467   3.884  1.4996  1.0893  0.2732
   67CHL1   C12 6095   4.502   0.604   3.749 -0.6143  0.4018 -0.4945
   67CHL1  H12A 6096   4.465   0.682   3.819  1.8084  0.0657  1.2802
   67CHL1  H12B 6097   4.609   0.627   3.731 -0.8909  0.9361 -1.5501
   67CHL1   C11 6098   4.442   0.614   3.606  0.1392 -0.2104 -0.1751
   67CHL1  H11A 6099   4.331   0.609   3.604  0.1155  0.2081  0.0608
   67CHL1  H11B 6100   4.468   0.712   3.562  0.7138 -0.5814 -0.6754
   67CHL1    C9 6101   4.509   0.510   3.512  0.3055  0.6673  0.1522
   67CHL1    H9 6102   4.615   0.543   3.500  0.3064  0.3091 -0.8922
   67CHL1   C10 6103   4.464   0.520   3.366  0.3454 -0.7167  0.2309
   67CHL1   C19 6104   4.310   0.507   3.361  0.1593  0.4868  0.2916
   67CHL1  H19A 6105   4.269   0.598   3.408 -0.5435  0.2487  0.1433
   67CHL1  H19B 6106   4.265   0.496   3.260 -1.5202 -0.7864  1.1213
   67CHL1  H19C 6107   4.274   0.421   3.422  2.4795 -1.0806 -0.3884
   67CHL1    C1 6108   4.511   0.653   3.305  0.5012  0.0732  0.1524
   67CHL1   H1A 6109   4.466   0.737   3.363  1.2212  0.0078  0.8245
   67CHL1   H1B 6110   4.618   0.671   3.329  0.2290  1.0286  0.7257
   67CHL1    C2 6111   4.488   0.680   3.153 -0.1561  1.0767  0.4453
   67CHL1   H2A 6112   4.520   0.780   3.117  2.1713  0.4729  0.7024
   67CHL1   H2B 6113   4.379   0.667   3.135 -0.0033 -0.3850  0.4611
   67CHL1   C20 6114   4.517   0.471   4.076  0.0909 -0.4331 -0.4415
   67CHL1   H20 6115   4.412   0.438   4.092 -0.2699  0.3969 -1.0201
   67CHL1   C21 6116   4.507   0.619   4.084 -0.3295 -0.5002  0.4876
   67CHL1  H21A 6117   4.435   0.673   4.019 -0.4231 -1.7683 -0.4967
   67CHL1  H21B 6118   4.607   0.664   4.068 -1.5405  2.3102  0.2947
   67CHL1  H21C 6119   4.486   0.651   4.189  1.6863 -3.6702  2.0272
   67CHL1   C22 6120   4.593   0.416   4.198  1.4475  0.0214 -0.0548
   67CHL1  H22A 6121   4.592   0.305   4.204  0.3549  0.0055 -0.3761
   67CHL1  H22B 6122   4.701   0.436   4.182  1.1685  2.2490  0.5196
   67CHL1   C23 6123   4.556   0.463   4.346  0.4559 -0.8407 -0.3304
   67CHL1  H23A 6124   4.588   0.566   4.371 -0.3201 -0.6425 -0.0975
   67CHL1  H23B 6125   4.445   0.453   4.337  0.5563 -2.1042 -0.2683
   67CHL1   C24 6126   4.622   0.390   4.465 -0.4699 -0.5888 -0.1160
   67CHL1  H24A 6127   4.592   0.283   4.471  0.7070 -0.9110  0.1544
   67CHL1  H24B 6128   4.731   0.394   4.446 -0.2824  1.1676  1.1114
   67CHL1   C25 6129   4.601   0.464   4.593 -0.5075 -0.5057 -1.0120
   67CHL1   H25 6130   4.641   0.566   4.575  0.1258 -0.3728  0.9109
   67CHL1   C26 6131   4.458   0.483   4.645 -0.1443 -0.2188 -0.3046
   67CHL1  H26A 6132   4.444   0.565   4.719  2.6027 -0.6622  0.8039
   67CHL1  H26B 6133   4.394   0.514   4.560 -1.1971  0.4005  0.6779
   67CHL1  H26C 6134   4.426   0.386   4.688  2.7322 -0.6928  0.9991
   67CHL1   C27 6135   4.685   0.395   4.704  0.5057 -0.8833 -0.7838
   67CHL1  H27A 6136   4.660   0.443   4.801  2.6227  1.2352 -1.2172
   67CHL1  H27B 6137   4.651   0.289   4.706 -2.4603 -0.0316 -0.0449
   67CHL1  H27C 6138   4.795   0.402   4.694  0.6599 -1.4033  0.3540
   68CHL1    C3 6139   2.028   0.369   3.410 -0.6751 -0.3182  0.1016
   68CHL1    H3 6140   2.137   0.347   3.410 -0.6341 -0.1289  0.4649
   68CHL1    O3 6141   1.990   0.421   3.285  0.4134 -0.6320 -1.2244
   68CHL1   H3' 6142   2.046   0.497   3.272 -1.9188  2.0657  2.4112
   68CHL1    C4 6143   1.935   0.251   3.448 -0.6715 -0.3863 -0.4234
   68CHL1   H4A 6144   1.830   0.288   3.452  0.2770  2.4809  0.6528
   68CHL1   H4B 6145   1.950   0.174   3.370  1.1978 -0.7005  0.2116
   68CHL1    C5 6146   1.967   0.185   3.582  0.2499 -0.3111  0.6540
   68CHL1    C6 6147   2.029   0.068   3.592 -0.3172  0.8129  0.1001
   68CHL1    H6 6148   2.051   0.011   3.500 -1.8711  1.3342 -0.6497
   68CHL1    C7 6149   2.068   0.006   3.725 -0.1324 -0.2320  0.0805
   68CHL1   H7A 6150   2.031  -0.099   3.726 -0.3348 -0.2358 -2.4307
   68CHL1   H7B 6151   2.178   0.012   3.729 -0.1951  1.6223 -0.1014
   68CHL1    C8 6152   2.004   0.092   3.849 -0.0972  0.0355 -0.1570
   68CHL1    H8 6153   1.900   0.055   3.842  0.6482 -1.8737 -3.2323
   68CHL1   C14 6154   2.078   0.056   3.976  0.5894 -0.0510  0.4467
   68CHL1   H14 6155   2.184   0.085   3.957  0.9635 -1.1007  0.8622
   68CHL1   C15 6156   2.082  -0.092   4.011  0.6657 -0.5516 -0.2031
   68CHL1  H15A 6157   1.979  -0.133   4.003  0.2656  0.3577  0.2087
   68CHL1  H15B 6158   2.163  -0.136   3.947  2.2998  0.6427  0.9565
   68CHL1   C16 6159   2.126  -0.087   4.158  0.0681 -0.2845 -0.6054
   68CHL1  H16A 6160   2.050  -0.144   4.216 -0.4193 -0.4114 -1.3506
   68CHL1  H16B 6161   2.224  -0.138   4.168 -1.4745 -3.1966  0.9857
   68CHL1   C17 6162   2.128   0.061   4.210  0.5251  0.5820  0.5862
   68CHL1   H17 6163   2.231   0.096   4.190  0.2292  0.1818 -1.9104
   68CHL1   C13 6164   2.035   0.135   4.102  0.3956 -0.1601 -0.5768
   68CHL1   C18 6165   1.883   0.119   4.131  0.1107 -0.2666  0.0956
   68CHL1  H18A 6166   1.856   0.015   4.161 -0.0633  0.0738  1.1905
   68CHL1  H18B 6167   1.849   0.184   4.214 -0.5915  2.0511 -1.9066
   68CHL1  H18C 6168   1.806   0.138   4.053  0.2473  0.1018  0.0482
   68CHL1   C12 6169   2.067   0.284   4.090  0.2889  0.1200  0.7899
   68CHL1  H12A 6170   2.038   0.343   4.179  0.7816  0.8063  0.5030
   68CHL1  H12B 6171   2.177   0.276   4.083  0.2527 -0.0811  0.3648
   68CHL1   C11 6172   1.998   0.339   3.962 -0.7303 -0.1356  0.5109
   68CHL1  H11A 6173   1.888   0.339   3.982 -0.8162 -0.6583  0.0523
   68CHL1  H11B 6174   2.038   0.440   3.938  0.4191  0.2849  3.7177
   68CHL1    C9 6175   2.019   0.245   3.832  0.3307  0.3710  0.0076
   68CHL1    H9 6176   2.129   0.254   3.818  0.3567  1.4337  0.7300
   68CHL1   C10 6177   1.949   0.288   3.697 -0.0632  0.4335 -0.1991
   68CHL1   C19 6178   1.811   0.315   3.729  0.1104 -0.3091  0.0351
   68CHL1  H19A 6179   1.801   0.401   3.799  2.8448 -1.6935  2.3878
   68CHL1  H19B 6180   1.753   0.346   3.640 -0.2271 -2.4789 -0.5508
   68CHL1  H19C 6181   1.757   0.233   3.781 -1.3749  1.1523  0.8732
   68CHL1    C1 6182   2.021   0.416   3.658  0.2809  0.2796 -1.1223
   68CHL1   H1A 6183   2.000   0.493   3.736  0.7290  0.6918 -1.4050
   68CHL1   H1B 6184   2.129   0.393   3.669  0.1757  0.1399 -0.3349
   68CHL1    C2 6185   2.000   0.473   3.520  0.5367  1.1267  0.5595
   68CHL1   H2A 6186   2.068   0.560   3.511  1.7093  0.1718  0.0030
   68CHL1   H2B 6187   1.890   0.494   3.517  0.1705 -0.7315 -1.1848
   68CHL1   C20 6188   2.097   0.081   4.352  0.6019 -0.3351  0.1568
   68CHL1   H20 6189   1.989   0.055   4.354  0.5855 -0.2405  0.6646
   68CHL1   C21 6190   2.113   0.224   4.404  0.4426  0.1313  0.1436
   68CHL1  H21A 6191   2.115   0.215   4.515  2.1312 -0.7391  0.0821
   68CHL1  H21B 6192   2.035   0.297   4.375 -0.6874 -0.5383  1.3933
   68CHL1  H21C 6193   2.215   0.260   4.378  0.5018  0.7815  1.2342
   68CHL1   C22 6194   2.159  -0.020   4.447 -0.7600  0.7242  0.1648
   68CHL1  H22A 6195   2.107  -0.020   4.545  0.6430  0.0925  0.9497
   68CHL1  H22B 6196   2.144  -0.121   4.402 -3.0002  1.2611 -0.4242
   68CHL1   C23 6197   2.309   0.008   4.482  0.4442  0.3366 -0.8088
   68CHL1  H23A 6198   2.365   0.036   4.390  0.2380  1.4994 -0.5996
   68CHL1  H23B 6199   2.312   0.089   4.559  1.9406  0.7500 -1.2792
   68CHL1   C24 6200   2.366  -0.125   4.538 -0.5229 -0.1128  0.1572
   68CHL1  H24A 6201   2.307  -0.157   4.627 -0.7035  0.2541  0.1675
   68CHL1  H24B 6202   2.347  -0.197   4.455 -2.5289 -0.2537  0.6883
   68CHL1   C25 6203   2.526  -0.129   4.565  0.6186  0.2055  0.3188
   68CHL1   H25 6204   2.528  -0.043   4.635  0.7842 -0.1033  0.6938
   68CHL1   C26 6205   2.576  -0.257   4.632 -0.1851 -0.9523 -0.6155
   68CHL1  H26A 6206   2.556  -0.346   4.568  0.1368 -0.6166 -1.1865
   68CHL1  H26B 6207   2.684  -0.256   4.659 -0.3048 -0.4812 -0.1463
   68CHL1  H26C 6208   2.516  -0.275   4.724 -1.1245 -0.1907 -1.0648
   68CHL1   C27 6209   2.607  -0.113   4.435 -0.7029 -0.4515 -0.3000
   68CHL1  H27A 6210   2.604  -0.205   4.373  2.1409  0.2699 -1.6721
   68CHL1  H27B 6211   2.558  -0.038   4.370 -0.9607 -0.6358 -0.3192
   68CHL1  H27C 6212   2.714  -0.088   4.452 -0.7685 -0.5950  0.3828
   69CHL1    C3 6213   1.385   3.886   2.675 -0.0303 -0.8896  0.3995
   69CHL1    H3 6214   1.493   3.874   2.701  0.9263  2.0381 -1.6745
   69CHL1    O3 6215   1.374   3.874   2.533 -0.4697  0.0378  0.0712
   69CHL1   H3' 6216   1.299   3.926   2.503  0.4573  2.0439  0.9885
   69CHL1    C4 6217   1.307   3.787   2.756  0.5539 -0.1438  0.8452
   69CHL1   H4A 6218   1.201   3.782   2.723  0.4550 -0.3102  1.1893
   69CHL1   H4B 6219   1.348   3.688   2.726  0.8318 -0.3265  1.8164
   69CHL1    C5 6220   1.328   3.811   2.905 -0.0366 -0.1627  0.3637
   69CHL1    C6 6221   1.384   3.716   2.976 -0.1042  0.3493  0.1400
   69CHL1    H6 6222   1.418   3.626   2.924 -1.1373 -0.1792  0.3517
   69CHL1    C7 6223   1.420   3.732   3.123  0.7267 -0.0223  0.4091
   69CHL1   H7A 6224   1.398   3.636   3.174 -0.0873  0.2211  0.5345
   69CHL1   H7B 6225   1.529   3.753   3.133  1.0579  0.1886 -2.5303
   69CHL1    C8 6226   1.347   3.850   3.186  0.1054  0.1889  0.6675
   69CHL1    H8 6227   1.241   3.828   3.207 -0.0335  1.8693  1.9868
   69CHL1   C14 6228   1.412   3.884   3.319  0.5321  0.0937 -0.3595
   69CHL1   H14 6229   1.518   3.909   3.300  0.8829 -0.5059  0.7003
   69CHL1   C15 6230   1.423   3.763   3.424  0.5465  0.4988 -0.0960
   69CHL1  H15A 6231   1.317   3.735   3.444  0.7242 -0.0272  0.1272
   69CHL1  H15B 6232   1.481   3.677   3.385  0.1126  0.4303 -0.5978
   69CHL1   C16 6233   1.461   3.845   3.548 -1.5041  1.1626  0.4308
   69CHL1  H16A 6234   1.403   3.825   3.640  0.4440  1.0714  1.7093
   69CHL1  H16B 6235   1.568   3.823   3.569 -1.3517 -0.4563 -1.6481
   69CHL1   C17 6236   1.448   3.995   3.518  0.2425  0.4208  0.0141
   69CHL1   H17 6237   1.546   4.031   3.478  1.8769 -1.9328  1.6246
   69CHL1   C13 6238   1.358   4.002   3.392 -0.0356  0.5215  0.2776
   69CHL1   C18 6239   1.205   3.990   3.436 -0.4889 -0.2529 -0.1138
   69CHL1  H18A 6240   1.136   3.961   3.354 -2.0285  0.4685  0.8710
   69CHL1  H18B 6241   1.194   3.918   3.519 -1.3908 -2.0232 -1.6938
   69CHL1  H18C 6242   1.181   4.093   3.470  0.8837 -0.5616  1.9800
   69CHL1   C12 6243   1.377   4.124   3.299 -0.9150  0.4406  0.6960
   69CHL1  H12A 6244   1.314   4.210   3.332 -2.8439 -0.2845 -0.8415
   69CHL1  H12B 6245   1.486   4.142   3.293 -0.7723 -0.6894 -0.5473
   69CHL1   C11 6246   1.302   4.098   3.160 -0.4876 -0.1366  0.1565
   69CHL1  H11A 6247   1.193   4.094   3.180  0.0588  0.3094  4.0350
   69CHL1  H11B 6248   1.320   4.186   3.094 -0.0450  0.2461  0.7730
   69CHL1    C9 6249   1.358   3.974   3.098 -0.0912  0.2855 -0.4754
   69CHL1    H9 6250   1.467   3.979   3.082  0.2378 -0.7945  1.2125
   69CHL1   C10 6251   1.300   3.957   2.949 -0.2956  0.4332 -0.3031
   69CHL1   C19 6252   1.152   3.966   2.951 -0.3532  0.4987 -0.2276
   69CHL1  H19A 6253   1.111   3.889   3.020  2.3657  0.2490  1.2240
   69CHL1  H19B 6254   1.122   4.070   2.976 -1.1872  0.4404 -0.9237
   69CHL1  H19C 6255   1.109   3.960   2.848 -0.8274 -0.5012  0.0106
   69CHL1    C1 6256   1.364   4.069   2.861 -0.6729  0.3884 -0.4434
   69CHL1   H1A 6257   1.316   4.165   2.889  2.4184  2.1012 -0.5615
   69CHL1   H1B 6258   1.471   4.080   2.889 -0.8171 -0.7597  0.6527
   69CHL1    C2 6259   1.353   4.035   2.713  0.2274  0.4242 -0.5578
   69CHL1   H2A 6260   1.417   4.111   2.665  0.7832  0.8819  0.8681
   69CHL1   H2B 6261   1.249   4.061   2.684 -0.1172 -0.9489 -0.6460
   69CHL1   C20 6262   1.417   4.073   3.640  0.4659 -0.0963  0.0708
   69CHL1   H20 6263   1.320   4.042   3.684  0.6780  0.1523  0.7352
   69CHL1   C21 6264   1.413   4.220   3.614  0.8464 -0.2359  0.2597
   69CHL1  H21A 6265   1.357   4.249   3.522  0.5761 -0.0612  0.4788
   69CHL1  H21B 6266   1.520   4.250   3.606  0.0331  3.2556  1.0811
   69CHL1  H21C 6267   1.373   4.285   3.694  1.7691 -0.6553  1.0849
   69CHL1   C22 6268   1.523   4.053   3.744  0.4080  1.0560 -0.3750
   69CHL1  H22A 6269   1.550   3.946   3.762  0.6995  1.0927 -0.5788
   69CHL1  H22B 6270   1.614   4.099   3.701  1.5415  0.8229  1.6757
   69CHL1   C23 6271   1.512   4.112   3.886  0.0253  0.7831 -0.0903
   69CHL1  H23A 6272   1.453   4.207   3.889 -0.8368  0.2296  1.4005
   69CHL1  H23B 6273   1.460   4.033   3.944  1.1752 -0.5000 -0.7414
   69CHL1   C24 6274   1.654   4.129   3.951  0.6693 -0.0187  0.2902
   69CHL1  H24A 6275   1.698   4.028   3.935 -2.7643 -1.5872 -0.0972
   69CHL1  H24B 6276   1.713   4.207   3.899  0.4096 -1.6729 -2.7180
   69CHL1   C25 6277   1.644   4.169   4.098 -0.1879  0.0003 -0.4909
   69CHL1   H25 6278   1.590   4.088   4.153  3.2313 -1.3440  1.2165
   69CHL1   C26 6279   1.785   4.166   4.154 -1.0124 -0.5907 -0.3593
   69CHL1  H26A 6280   1.829   4.065   4.167 -2.2309 -0.7763  3.5580
   69CHL1  H26B 6281   1.854   4.222   4.087  1.0602 -1.9360  0.5469
   69CHL1  H26C 6282   1.796   4.198   4.259  1.5490  0.7486 -0.9477
   69CHL1   C27 6283   1.581   4.303   4.116  0.2258 -0.5175 -0.5615
   69CHL1  H27A 6284   1.641   4.376   4.059  2.3975 -0.8619  1.1494
   69CHL1  H27B 6285   1.473   4.303   4.089 -0.4153  1.0445  1.7419
   69CHL1  H27C 6286   1.583   4.342   4.220  2.2107 -0.3165 -0.6347
   70CHL1    C3 6287   1.832   1.015   2.958 -0.0833  0.0471 -0.3130
   70CHL1    H3 6288   1.906   1.099   2.952  0.2339 -0.1892  0.2258
   70CHL1    O3 6289   1.774   0.974   2.829 -0.6293 -0.3972 -0.1560
   70CHL1   H3' 6290   1.827   0.900   2.797 -0.4963 -1.1735  1.6764
   70CHL1    C4 6291   1.902   0.898   3.025  0.1731 -0.1101 -0.0601
   70CHL1   H4A 6292   1.835   0.810   3.013 -2.1693  1.6939 -0.7592
   70CHL1   H4B 6293   1.998   0.880   2.970  0.4638  2.9285 -0.7018
   70CHL1    C5 6294   1.935   0.914   3.171  0.1852  0.3635 -0.0932
   70CHL1    C6 6295   2.056   0.873   3.220 -0.1258 -0.5530 -0.4164
   70CHL1    H6 6296   2.139   0.837   3.157  0.7972 -0.4641  0.7190
   70CHL1    C7 6297   2.079   0.872   3.368  0.4515  0.0714 -0.2609
   70CHL1   H7A 6298   2.117   0.770   3.389  0.7561  0.1744 -0.3018
   70CHL1   H7B 6299   2.160   0.942   3.400 -0.7068  0.3371  2.3341
   70CHL1    C8 6300   1.947   0.885   3.461 -0.4445 -0.4463 -0.0219
   70CHL1    H8 6301   1.874   0.802   3.452 -1.4865  0.4192  0.1729
   70CHL1   C14 6302   1.992   0.913   3.604  0.5137 -0.7639  0.2611
   70CHL1   H14 6303   2.061   0.999   3.592  0.0895 -0.5781 -1.0199
   70CHL1   C15 6304   2.075   0.810   3.685 -0.4441  0.1950  0.3325
   70CHL1  H15A 6305   2.031   0.712   3.661 -3.1764  1.3648  0.2384
   70CHL1  H15B 6306   2.182   0.822   3.657 -0.6088 -0.6255 -0.7358
   70CHL1   C16 6307   2.049   0.837   3.833  0.0173  0.2470 -0.4285
   70CHL1  H16A 6308   1.999   0.751   3.883  0.6880  0.0697 -0.0403
   70CHL1  H16B 6309   2.140   0.857   3.893 -1.2204 -0.7167  1.9019
   70CHL1   C17 6310   1.968   0.968   3.832  0.5190 -0.3472 -0.2156
   70CHL1   H17 6311   2.029   1.057   3.808 -0.9612  0.3798 -1.4798
   70CHL1   C13 6312   1.883   0.961   3.703 -0.2703  0.4519  1.0524
   70CHL1   C18 6313   1.787   0.842   3.715  0.4711 -0.6029 -0.3234
   70CHL1  H18A 6314   1.701   0.868   3.780  0.4161 -0.1388 -0.5750
   70CHL1  H18B 6315   1.741   0.819   3.616  0.4028  0.7714 -0.6273
   70CHL1  H18C 6316   1.838   0.752   3.756  1.9292  0.5864  0.5698
   70CHL1   C12 6317   1.827   1.089   3.639  0.7089  0.2118 -0.4569
   70CHL1  H12A 6318   1.745   1.130   3.702  0.1072 -0.8615 -0.5261
   70CHL1  H12B 6319   1.903   1.170   3.639  0.3073  0.6077 -1.4348
   70CHL1   C11 6320   1.767   1.066   3.498  0.0858  0.1590 -0.4700
   70CHL1  H11A 6321   1.688   0.990   3.514 -2.3171  2.2603 -1.7396
   70CHL1  H11B 6322   1.722   1.163   3.467  1.2491  0.8845  0.0373
   70CHL1    C9 6323   1.867   1.006   3.405 -0.2463  0.5751  0.9644
   70CHL1    H9 6324   1.940   1.088   3.387  1.6664 -1.6334 -2.5143
   70CHL1   C10 6325   1.816   0.969   3.256  0.5515  0.4394 -0.1648
   70CHL1   C19 6326   1.693   0.867   3.259  0.9231  0.4673  0.1415
   70CHL1  H19A 6327   1.644   0.848   3.162  0.2223 -1.1355  0.7871
   70CHL1  H19B 6328   1.712   0.768   3.306 -0.0975 -0.4542 -1.3185
   70CHL1  H19C 6329   1.622   0.913   3.331  0.5065 -4.0951  3.0262
   70CHL1    C1 6330   1.760   1.096   3.188 -0.0384  0.0318  0.1354
   70CHL1   H1A 6331   1.671   1.144   3.235 -0.1754  1.1628 -1.1880
   70CHL1   H1B 6332   1.846   1.166   3.179  0.0220  0.2182  1.8228
   70CHL1    C2 6333   1.714   1.068   3.042 -0.1836  0.0985 -0.0370
   70CHL1   H2A 6334   1.687   1.168   3.002 -0.1261 -0.3745 -1.3058
   70CHL1   H2B 6335   1.625   1.002   3.041  0.3274 -0.7134 -3.4426
   70CHL1   C20 6336   1.890   0.987   3.964  0.4045 -0.0051 -0.2561
   70CHL1   H20 6337   1.822   0.900   3.980 -1.4761  1.4212 -0.1994
   70CHL1   C21 6338   1.802   1.110   3.956 -0.2064  0.7656 -0.3423
   70CHL1  H21A 6339   1.715   1.080   3.894 -0.3607  1.2772 -0.3751
   70CHL1  H21B 6340   1.864   1.199   3.929 -0.2259  0.4470 -1.4615
   70CHL1  H21C 6341   1.761   1.137   4.056 -1.3430  0.9703 -0.8476
   70CHL1   C22 6342   1.981   1.008   4.086 -0.3661  0.0908  0.3318
   70CHL1  H22A 6343   1.907   1.016   4.168 -2.0523 -3.8673 -0.5908
   70CHL1  H22B 6344   2.036   0.912   4.096  0.8820  0.7123 -0.3262
   70CHL1   C23 6345   2.077   1.127   4.082 -0.0428  0.4080 -0.2343
   70CHL1  H23A 6346   2.131   1.115   3.986 -0.9221 -2.3671 -0.4818
   70CHL1  H23B 6347   2.021   1.223   4.078  0.4969  0.6943 -1.1657
   70CHL1   C24 6348   2.183   1.137   4.196 -0.9103 -0.6139 -0.0657
   70CHL1  H24A 6349   2.242   1.043   4.189 -1.7049 -1.2207  1.0939
   70CHL1  H24B 6350   2.238   1.231   4.177 -0.0345 -1.0452  0.2703
   70CHL1   C25 6351   2.141   1.148   4.344 -0.3087 -0.0976  0.1426
   70CHL1   H25 6352   2.077   1.062   4.373 -0.8236 -0.1784 -1.2020
   70CHL1   C26 6353   2.274   1.155   4.431 -0.0721  0.5316  0.4190
   70CHL1  H26A 6354   2.332   1.060   4.428 -1.9220 -0.7896  2.7697
   70CHL1  H26B 6355   2.336   1.235   4.384  0.2060  1.3542  2.1052
   70CHL1  H26C 6356   2.247   1.175   4.537  0.3415 -2.2008  1.1258
   70CHL1   C27 6357   2.053   1.277   4.361 -0.6771  0.5088 -0.6483
   70CHL1  H27A 6358   2.017   1.293   4.465  1.4209  4.0942 -0.2792
   70CHL1  H27B 6359   2.120   1.362   4.336  0.2843 -0.0798 -0.1452
   70CHL1  H27C 6360   1.963   1.280   4.296 -0.2582  3.4280 -1.2785
   71CHL1    C3 6361   5.653   0.305   3.420 -1.2844 -0.1488  0.0727
   71CHL1    H3 6362   5.738   0.252   3.467 -0.0465 -1.0917 -2.9608
   71CHL1    O3 6363   5.661   0.289   3.279  0.0568 -0.0503 -0.4837
   71CHL1   H3' 6364   5.589   0.335   3.236 -0.4447 -0.7572 -0.4131
   71CHL1    C4 6365   5.531   0.244   3.492  1.3762 -0.1335  0.0318
   71CHL1   H4A 6366   5.446   0.288   3.435 -0.9002 -2.6756  1.2051
   71CHL1   H4B 6367   5.532   0.133   3.487  0.0895 -0.1737  0.2764
   71CHL1    C5 6368   5.517   0.287   3.635  0.5337  0.1814 -0.6716
   71CHL1    C6 6369   5.508   0.197   3.736 -0.0444  0.4391  0.2569
   71CHL1    H6 6370   5.497   0.089   3.722  0.9753  0.1617  1.4462
   71CHL1    C7 6371   5.502   0.230   3.886  0.7345  0.2320  0.4199
   71CHL1   H7A 6372   5.429   0.165   3.939 -0.4824  1.4709  0.3105
   71CHL1   H7B 6373   5.600   0.218   3.938  0.2883  0.0844  1.2554
   71CHL1    C8 6374   5.454   0.378   3.908  0.8283 -0.1502 -0.4402
   71CHL1    H8 6375   5.345   0.388   3.891  0.3207  1.0129  2.8370
   71CHL1   C14 6376   5.477   0.416   4.052  0.3087 -0.4247  0.2976
   71CHL1   H14 6377   5.585   0.401   4.068  0.4053 -0.3234 -0.2421
   71CHL1   C15 6378   5.411   0.327   4.154 -0.5174  0.3931  0.1361
   71CHL1  H15A 6379   5.308   0.297   4.127 -0.1292 -0.4152 -0.4935
   71CHL1  H15B 6380   5.478   0.240   4.171 -1.0491  0.4535  2.9579
   71CHL1   C16 6381   5.424   0.408   4.289  0.0407  0.3430  0.3924
   71CHL1  H16A 6382   5.325   0.421   4.337 -0.4497  0.6509 -0.6700
   71CHL1  H16B 6383   5.494   0.352   4.354 -1.7148 -2.4940  0.0413
   71CHL1   C17 6384   5.484   0.548   4.243 -0.0063 -0.5605 -0.1121
   71CHL1   H17 6385   5.592   0.548   4.266 -0.4909 -1.9062  2.6739
   71CHL1   C13 6386   5.453   0.556   4.093 -0.1023 -0.0759 -0.7981
   71CHL1   C18 6387   5.301   0.594   4.075  0.6415  0.4590  0.0766
   71CHL1  H18A 6388   5.276   0.579   3.968 -0.3692 -1.0416  0.4929
   71CHL1  H18B 6389   5.235   0.547   4.152  0.4582  1.7657  0.7426
   71CHL1  H18C 6390   5.285   0.703   4.085 -0.3058  0.2077  1.7924
   71CHL1   C12 6391   5.545   0.647   4.007  0.6746  0.1183  0.2676
   71CHL1  H12A 6392   5.526   0.756   4.022  0.5206  0.2765 -1.0146
   71CHL1  H12B 6393   5.651   0.633   4.036  0.4825 -0.1328  0.8835
   71CHL1   C11 6394   5.517   0.624   3.860 -0.2734  0.6722 -0.2670
   71CHL1  H11A 6395   5.416   0.648   3.820 -0.1693  0.0864 -0.9010
   71CHL1  H11B 6396   5.586   0.678   3.792  0.5980  0.3847  0.3653
   71CHL1    C9 6397   5.532   0.473   3.820 -0.0225 -0.1625  0.1022
   71CHL1    H9 6398   5.637   0.447   3.847 -1.4183 -2.9233  3.5291
   71CHL1   C10 6399   5.523   0.437   3.663  0.6455 -0.2984  0.5713
   71CHL1   C19 6400   5.390   0.502   3.602 -0.1492  0.4835  0.0183
   71CHL1  H19A 6401   5.400   0.613   3.594 -0.1403  0.5084  0.3916
   71CHL1  H19B 6402   5.373   0.462   3.500 -0.3290  2.4289 -0.7643
   71CHL1  H19C 6403   5.300   0.476   3.662 -0.0067  0.6456  0.3037
   71CHL1    C1 6404   5.643   0.493   3.600 -0.3378 -0.0211 -0.1804
   71CHL1   H1A 6405   5.634   0.603   3.610 -2.0211 -0.0513 -1.0106
   71CHL1   H1B 6406   5.736   0.456   3.648 -0.7305  0.2454  0.8100
   71CHL1    C2 6407   5.666   0.453   3.448 -0.4263 -1.0621  0.1032
   71CHL1   H2A 6408   5.763   0.497   3.416  0.0548 -2.4326 -0.4187
   71CHL1   H2B 6409   5.594   0.517   3.391  0.8351 -0.2780 -0.6610
   71CHL1   C20 6410   5.429   0.657   4.339  0.4163  0.2213 -0.3872
   71CHL1   H20 6411   5.320   0.671   4.323  0.8245  1.3768 -2.4778
   71CHL1   C21 6412   5.484   0.794   4.301  0.0418  0.1431 -0.2150
   71CHL1  H21A 6413   5.591   0.785   4.274 -0.6125 -0.6774 -2.8048
   71CHL1  H21B 6414   5.460   0.877   4.372 -0.2389  0.0823 -0.2378
   71CHL1  H21C 6415   5.443   0.827   4.204  4.0229  1.9164 -1.4844
   71CHL1   C22 6416   5.443   0.631   4.491  0.3679 -1.0615  0.4326
   71CHL1  H22A 6417   5.383   0.541   4.518  2.6172 -2.7631  0.0216
   71CHL1  H22B 6418   5.549   0.614   4.518  0.3146  0.3750  1.6633
   71CHL1   C23 6419   5.408   0.742   4.593 -0.0433 -0.5459  0.1903
   71CHL1  H23A 6420   5.480   0.825   4.577 -1.6234  0.8026 -0.2636
   71CHL1  H23B 6421   5.304   0.777   4.571 -0.7820 -1.3679  2.1461
   71CHL1   C24 6422   5.412   0.686   4.737  0.2578 -0.8478 -0.4741
   71CHL1  H24A 6423   5.345   0.597   4.741 -0.7557 -0.0489  2.2461
   71CHL1  H24B 6424   5.514   0.646   4.754  0.4726 -0.5563 -1.0416
   71CHL1   C25 6425   5.381   0.786   4.849  0.4011  0.3190  0.5536
   71CHL1   H25 6426   5.387   0.726   4.942  0.5204  0.2396  0.4947
   71CHL1   C26 6427   5.478   0.911   4.871 -0.1333 -0.2294 -0.0360
   71CHL1  H26A 6428   5.478   0.981   4.785  0.6425  0.4603  0.5123
   71CHL1  H26B 6429   5.441   0.973   4.956 -3.2089  2.2171 -2.8502
   71CHL1  H26C 6430   5.583   0.884   4.893  0.5617  0.8356 -1.8142
   71CHL1   C27 6431   5.234   0.833   4.832  1.1554  0.3474  0.3134
   71CHL1  H27A 6432   5.207   0.890   4.923 -1.5730 -0.3710  0.0479
   71CHL1  H27B 6433   5.224   0.883   4.733 -1.9356 -0.1395  0.2931
   71CHL1  H27C 6434   5.161   0.749   4.835 -0.0993  1.4504  1.9985
   72CHL1    C3 6435   1.373   5.170   2.833  0.3127  0.0423 -0.6890
   72CHL1    H3 6436   1.477   5.206   2.848  0.5863 -0.2687 -1.8035
   72CHL1    O3 6437   1.351   5.165   2.692 -0.3348  0.1613  0.4927
   72CHL1   H3' 6438   1.256   5.172   2.680 -0.0993  2.5364 -0.4156
   72CHL1    C4 6439   1.347   5.031   2.897 -0.0670 -0.7514  0.5985
   72CHL1   H4A 6440   1.247   4.997   2.862  0.5968 -0.2999 -1.9402
   72CHL1   H4B 6441   1.429   4.972   2.850 -0.1762  0.0301 -0.6172
   72CHL1    C5 6442   1.354   5.039   3.047  0.0603  0.1326  0.0554
   72CHL1    C6 6443   1.442   4.962   3.109 -0.1309  0.6211  0.1603
   72CHL1    H6 6444   1.499   4.894   3.044  1.8331  0.9496  1.4414
   72CHL1    C7 6445   1.457   4.949   3.254  0.0839  0.1776 -0.7691
   72CHL1   H7A 6446   1.449   4.844   3.289 -2.6581  0.6137  0.1579
   72CHL1   H7B 6447   1.553   4.996   3.286  0.8265 -2.3604  1.1292
   72CHL1    C8 6448   1.340   5.026   3.329 -0.7167 -0.5422  0.4683
   72CHL1    H8 6449   1.247   4.964   3.324 -0.1663 -1.2815 -3.0041
   72CHL1   C14 6450   1.376   5.055   3.474 -0.1043  0.2970 -0.0426
   72CHL1   H14 6451   1.457   5.130   3.481 -0.6481  0.8990 -0.0931
   72CHL1   C15 6452   1.425   4.930   3.547 -1.0137 -0.1165  0.3900
   72CHL1  H15A 6453   1.344   4.861   3.515 -1.7855  1.3544 -1.0046
   72CHL1  H15B 6454   1.522   4.881   3.523 -1.2370 -1.1581  1.5040
   72CHL1   C16 6455   1.425   4.972   3.692 -0.2068 -0.6495  0.0646
   72CHL1  H16A 6456   1.373   4.892   3.748 -0.6629 -1.6564 -1.7079
   72CHL1  H16B 6457   1.530   4.978   3.726 -0.7984  2.4067  1.7145
   72CHL1   C17 6458   1.351   5.108   3.703  0.4499 -0.3054 -0.1999
   72CHL1   H17 6459   1.423   5.192   3.712 -2.7275  2.5013  1.6674
   72CHL1   C13 6460   1.271   5.111   3.572 -0.5145 -0.9726  0.2409
   72CHL1   C18 6461   1.146   5.021   3.580  0.2164 -0.2630 -0.1569
   72CHL1  H18A 6462   1.173   4.917   3.607  0.6891 -0.4083 -1.1515
   72CHL1  H18B 6463   1.073   5.059   3.655 -0.2455 -1.3471 -0.0406
   72CHL1  H18C 6464   1.098   5.015   3.479  0.6024  0.3716 -0.3863
   72CHL1   C12 6465   1.242   5.252   3.505 -0.0275  0.3619 -0.4646
   72CHL1  H12A 6466   1.158   5.307   3.551 -0.5011  1.1677 -2.1971
   72CHL1  H12B 6467   1.335   5.311   3.520  1.7820 -2.4878  0.5190
   72CHL1   C11 6468   1.212   5.246   3.358 -0.2673 -0.4722  0.8651
   72CHL1  H11A 6469   1.108   5.207   3.357 -1.0822  1.4800  2.2862
   72CHL1  H11B 6470   1.206   5.351   3.323  0.6976 -1.0665 -1.2627
   72CHL1    C9 6471   1.301   5.159   3.266 -0.4219  0.0864 -0.0582
   72CHL1    H9 6472   1.399   5.212   3.261  0.3622 -1.3951 -1.2419
   72CHL1   C10 6473   1.264   5.144   3.122  0.5595  0.1495  0.4952
   72CHL1   C19 6474   1.119   5.100   3.111  1.0595 -0.0810 -0.0495
   72CHL1  H19A 6475   1.048   5.167   3.164 -0.5589 -0.5705 -1.4915
   72CHL1  H19B 6476   1.088   5.090   3.005  0.7158 -3.1726  0.2520
   72CHL1  H19C 6477   1.091   5.006   3.163  1.7294 -0.2509  0.0118
   72CHL1    C1 6478   1.291   5.275   3.043  0.2038  0.5192 -0.5275
   72CHL1   H1A 6479   1.231   5.358   3.087  0.4655  0.7973 -0.6921
   72CHL1   H1B 6480   1.395   5.305   3.067  0.3776 -0.2541 -0.2940
   72CHL1    C2 6481   1.275   5.270   2.890  0.2272 -0.7292 -1.3475
   72CHL1   H2A 6482   1.298   5.370   2.848 -2.0736 -0.7190 -2.7697
   72CHL1   H2B 6483   1.171   5.241   2.863 -0.8888  2.6472 -1.0999
   72CHL1   C20 6484   1.274   5.127   3.839  0.5869 -0.3619  0.4528
   72CHL1   H20 6485   1.198   5.047   3.854  0.5438 -0.9597 -2.3272
   72CHL1   C21 6486   1.199   5.263   3.835 -0.1276  0.2039 -0.5113
   72CHL1  H21A 6487   1.130   5.271   3.749  0.8320  0.1657 -1.3070
   72CHL1  H21B 6488   1.274   5.342   3.813 -0.8471  0.9944 -0.1850
   72CHL1  H21C 6489   1.143   5.288   3.927  1.3026  2.0486 -0.0870
   72CHL1   C22 6490   1.381   5.114   3.951 -0.3828 -0.2594  0.1077
   72CHL1  H22A 6491   1.432   5.016   3.939  1.0895  0.0084  3.1661
   72CHL1  H22B 6492   1.458   5.192   3.932 -0.3613  0.3690  2.5269
   72CHL1   C23 6493   1.335   5.143   4.094  0.4427 -0.4859  0.4730
   72CHL1  H23A 6494   1.420   5.186   4.151  0.2803 -0.0046  0.3550
   72CHL1  H23B 6495   1.255   5.219   4.085 -2.1775 -3.2162 -1.8831
   72CHL1   C24 6496   1.295   5.018   4.169 -0.4081  0.5579  0.2119
   72CHL1  H24A 6497   1.206   4.983   4.112 -0.0598  2.4356 -1.6139
   72CHL1  H24B 6498   1.385   4.953   4.181  0.4559  1.2427 -2.0714
   72CHL1   C25 6499   1.243   5.049   4.304 -0.1187 -0.7644 -0.5604
   72CHL1   H25 6500   1.160   5.123   4.295  1.2231  0.7950 -0.6906
   72CHL1   C26 6501   1.201   4.911   4.364 -0.4828  0.0307 -0.8009
   72CHL1  H26A 6502   1.134   4.852   4.297 -2.6639  0.8627  0.5203
   72CHL1  H26B 6503   1.287   4.846   4.387 -0.4212  0.2329 -0.4569
   72CHL1  H26C 6504   1.143   4.918   4.459 -1.4538 -3.2356 -1.0371
   72CHL1   C27 6505   1.349   5.118   4.401  0.1236 -0.1883  0.3451
   72CHL1  H27A 6506   1.421   5.044   4.443 -1.6024 -0.4004  3.1620
   72CHL1  H27B 6507   1.414   5.192   4.349  0.6585  0.4413  1.8396
   72CHL1  H27C 6508   1.294   5.184   4.471 -1.1021 -1.3765  0.5390
   73CHL1    C3 6509   0.939   6.654   2.837 -0.0556  0.2619  0.0980
   73CHL1    H3 6510   1.029   6.718   2.848  0.8322 -0.5114 -2.1220
   73CHL1    O3 6511   0.906   6.660   2.698  0.1058  0.0899 -0.2099
   73CHL1   H3' 6512   0.822   6.617   2.683  0.5192  0.2736 -4.4130
   73CHL1    C4 6513   0.974   6.500   2.884 -0.2917 -0.1668  0.3432
   73CHL1   H4A 6514   0.882   6.444   2.855 -1.4040  1.8707 -0.2652
   73CHL1   H4B 6515   1.058   6.467   2.820  0.1038  2.3370 -0.5610
   73CHL1    C5 6516   0.997   6.484   3.029  0.0503 -0.3107 -0.0339
   73CHL1    C6 6517   1.101   6.413   3.073  0.1371 -0.9460 -0.3874
   73CHL1    H6 6518   1.171   6.372   2.999 -0.5422  0.8007 -2.0830
   73CHL1    C7 6519   1.139   6.391   3.218  0.0516 -0.3404 -0.3602
   73CHL1   H7A 6520   1.153   6.283   3.237  0.2688 -0.2280  0.1166
   73CHL1   H7B 6521   1.236   6.442   3.236 -0.5478  0.6364  0.2273
   73CHL1    C8 6522   1.038   6.443   3.319 -0.2272 -0.2082  0.0611
   73CHL1    H8 6523   0.970   6.356   3.330  0.1037 -0.9740 -3.0457
   73CHL1   C14 6524   1.109   6.480   3.455  0.4017  0.2717 -0.6330
   73CHL1   H14 6525   1.171   6.570   3.432 -1.6972  2.0792  0.3794
   73CHL1   C15 6526   1.194   6.372   3.523 -0.1599 -0.3672  0.5070
   73CHL1  H15A 6527   1.146   6.274   3.507  0.9120 -0.6519 -1.1092
   73CHL1  H15B 6528   1.296   6.376   3.480 -0.9445  1.1551 -1.3877
   73CHL1   C16 6529   1.203   6.424   3.669 -0.6887  0.1135  0.5905
   73CHL1  H16A 6530   1.177   6.339   3.736  2.3342 -0.5503  1.0727
   73CHL1  H16B 6531   1.301   6.454   3.711 -1.1123 -0.8183  2.3246
   73CHL1   C17 6532   1.108   6.544   3.678 -0.4050 -0.3856  0.4235
   73CHL1   H17 6533   1.169   6.632   3.649  0.2877 -1.1506 -0.4928
   73CHL1   C13 6534   1.014   6.526   3.558 -0.1711 -0.0937 -0.9408
   73CHL1   C18 6535   0.909   6.416   3.590  0.5259 -0.2806 -0.4028
   73CHL1  H18A 6536   0.951   6.324   3.637 -0.8462  0.5701  2.7107
   73CHL1  H18B 6537   0.836   6.443   3.669  2.5174 -0.0119  1.4410
   73CHL1  H18C 6538   0.851   6.377   3.504 -0.1887  0.2429 -0.1703
   73CHL1   C12 6539   0.946   6.652   3.512  0.5049  0.1300  0.6238
   73CHL1  H12A 6540   0.870   6.686   3.586 -0.6834 -0.0344 -0.4721
   73CHL1  H12B 6541   1.023   6.730   3.493  1.1116 -0.8840 -1.2694
   73CHL1   C11 6542   0.875   6.635   3.375 -0.1219  0.8880 -0.2612
   73CHL1  H11A 6543   0.792   6.565   3.397  1.3030 -1.3720 -1.7015
   73CHL1  H11B 6544   0.846   6.737   3.342 -0.8622  0.4173 -1.1345
   73CHL1    C9 6545   0.964   6.563   3.269 -0.5446 -0.4543  0.4276
   73CHL1    H9 6546   1.044   6.637   3.245 -1.3450  0.3345  0.1546
   73CHL1   C10 6547   0.895   6.558   3.124  0.3770  0.0238  0.6698
   73CHL1   C19 6548   0.769   6.477   3.127 -0.3796 -0.4545 -0.2406
   73CHL1  H19A 6549   0.782   6.378   3.175  0.5394 -1.4684 -2.4662
   73CHL1  H19B 6550   0.692   6.532   3.186 -0.8506  0.6461 -1.8258
   73CHL1  H19C 6551   0.732   6.455   3.025 -0.3408 -0.6594 -0.2114
   73CHL1    C1 6552   0.876   6.703   3.075  0.4232 -1.2863 -0.6142
   73CHL1   H1A 6553   0.800   6.763   3.130  2.7561 -0.2311  1.6933
   73CHL1   H1B 6554   0.974   6.755   3.086 -0.0839 -0.4252 -0.1230
   73CHL1    C2 6555   0.832   6.717   2.923  1.3950  0.1981  0.2650
   73CHL1   H2A 6556   0.817   6.825   2.902  2.4848  0.5820  1.3363
   73CHL1   H2B 6557   0.738   6.660   2.910  3.2450 -2.7651 -1.5716
   73CHL1   C20 6558   1.052   6.569   3.818  0.4120  0.1919  0.0560
   73CHL1   H20 6559   0.957   6.512   3.826  0.1070  0.5613 -0.7712
   73CHL1   C21 6560   1.011   6.714   3.840 -0.0672  0.5772  0.2774
   73CHL1  H21A 6561   0.964   6.729   3.939 -1.0554 -1.2979  0.1371
   73CHL1  H21B 6562   0.927   6.736   3.770 -0.8607  0.3966  1.1574
   73CHL1  H21C 6563   1.098   6.783   3.828  0.5500 -0.2563 -0.1491
   73CHL1   C22 6564   1.144   6.536   3.936  0.6468  0.3672  0.5596
   73CHL1  H22A 6565   1.171   6.428   3.939  4.0682  1.1098 -0.0182
   73CHL1  H22B 6566   1.244   6.581   3.923  1.8955 -2.7293 -2.2351
   73CHL1   C23 6567   1.099   6.576   4.080 -0.5675  0.6349  0.4119
   73CHL1  H23A 6568   1.099   6.687   4.078 -3.1932  0.7486 -3.2075
   73CHL1  H23B 6569   0.994   6.542   4.095 -1.4529  2.9130 -0.1554
   73CHL1   C24 6570   1.192   6.530   4.185 -0.5289  0.5889  0.3612
   73CHL1  H24A 6571   1.175   6.423   4.207 -0.6758  0.9630  2.2039
   73CHL1  H24B 6572   1.299   6.550   4.159 -1.1938  3.6755 -0.4805
   73CHL1   C25 6573   1.174   6.601   4.323 -0.1898 -0.4783  0.1627
   73CHL1   H25 6574   1.065   6.590   4.340 -0.3227  0.8167  0.2480
   73CHL1   C26 6575   1.256   6.543   4.440 -0.3806  0.1227  0.0867
   73CHL1  H26A 6576   1.260   6.432   4.433  1.1600 -0.0420  2.3519
   73CHL1  H26B 6577   1.359   6.586   4.435 -1.1862  2.0730 -0.9022
   73CHL1  H26C 6578   1.207   6.561   4.538  0.6480  0.9527  0.4684
   73CHL1   C27 6579   1.208   6.757   4.317 -0.2689 -0.5844  0.4317
   73CHL1  H27A 6580   1.204   6.803   4.418  0.5413 -0.3065  0.3417
   73CHL1  H27B 6581   1.308   6.783   4.276  0.3712  1.2849  2.9277
   73CHL1  H27C 6582   1.133   6.811   4.256  1.9344  1.6427 -0.4700
   74CHL1    C3 6583   1.661   5.984   2.759 -0.9343 -0.0237  0.5478
   74CHL1    H3 6584   1.595   5.895   2.762  0.0846 -0.8826 -1.1135
   74CHL1    O3 6585   1.693   6.015   2.627  0.7116 -0.4846  0.0990
   74CHL1   H3' 6586   1.692   6.111   2.621  2.1712 -0.5293 -1.4229
   74CHL1    C4 6587   1.602   6.108   2.829  0.5840 -0.2627  0.2555
   74CHL1   H4A 6588   1.675   6.192   2.820 -0.5843  1.0019  1.8397
   74CHL1   H4B 6589   1.507   6.141   2.782  0.3320 -1.0382  0.2054
   74CHL1    C5 6590   1.573   6.071   2.974  0.6184  1.0068  0.1725
   74CHL1    C6 6591   1.442   6.084   3.023  0.4069 -0.2556 -0.3126
   74CHL1    H6 6592   1.364   6.111   2.951  0.8231  1.0026 -0.3171
   74CHL1    C7 6593   1.395   6.056   3.161 -0.7124 -0.6740  0.3119
   74CHL1   H7A 6594   1.333   6.140   3.198  0.5789  0.9325 -1.0061
   74CHL1   H7B 6595   1.330   5.966   3.174 -1.1362 -0.7948 -2.1123
   74CHL1    C8 6596   1.524   6.052   3.255  0.5006  0.0674 -0.2768
   74CHL1    H8 6597   1.564   6.156   3.257 -1.0741  0.8907 -3.6925
   74CHL1   C14 6598   1.489   5.995   3.387  0.1193  0.0045 -0.2303
   74CHL1   H14 6599   1.463   5.889   3.367 -1.1038  0.2935 -0.2165
   74CHL1   C15 6600   1.366   6.051   3.460 -0.2452  0.1201  0.2207
   74CHL1  H15A 6601   1.360   6.160   3.442 -0.7469 -0.2009 -1.8119
   74CHL1  H15B 6602   1.279   5.998   3.415 -0.5437  0.5200  0.3279
   74CHL1   C16 6603   1.390   6.030   3.609  0.1731 -0.9295 -0.3935
   74CHL1  H16A 6604   1.404   6.131   3.653  0.4948 -0.2830 -1.9039
   74CHL1  H16B 6605   1.308   5.978   3.663  1.4265 -0.2108  2.3833
   74CHL1   C17 6606   1.528   5.950   3.618 -0.2696 -0.1010  0.1644
   74CHL1   H17 6607   1.496   5.846   3.597  0.0075 -0.2776  0.6045
   74CHL1   C13 6608   1.602   5.994   3.493 -0.0039 -0.0764  0.3380
   74CHL1   C18 6609   1.658   6.142   3.528  1.0416 -0.0936  0.0653
   74CHL1  H18A 6610   1.710   6.161   3.624  0.9778  1.7643 -0.2451
   74CHL1  H18B 6611   1.723   6.193   3.454 -0.1526  0.8769 -0.3562
   74CHL1  H18C 6612   1.571   6.210   3.526 -0.2765 -1.7044  0.1871
   74CHL1   C12 6613   1.705   5.890   3.445  0.0636 -1.4117 -0.6980
   74CHL1  H12A 6614   1.789   5.892   3.518 -1.2935  3.1389  1.1085
   74CHL1  H12B 6615   1.655   5.792   3.432 -2.1445 -0.1621 -2.2910
   74CHL1   C11 6616   1.749   5.941   3.298  0.2791  0.6187 -0.0500
   74CHL1  H11A 6617   1.795   6.041   3.310  0.6199  0.5492 -0.7227
   74CHL1  H11B 6618   1.834   5.883   3.256 -0.3405  0.8789 -1.7085
   74CHL1    C9 6619   1.633   5.966   3.196 -1.2584  0.3548 -0.1031
   74CHL1    H9 6620   1.577   5.872   3.177  1.2509 -1.3870  0.5827
   74CHL1   C10 6621   1.684   6.023   3.058 -0.0486  0.2849  0.1641
   74CHL1   C19 6622   1.786   6.134   3.072  0.1652 -0.1175 -0.0517
   74CHL1  H19A 6623   1.779   6.217   2.998 -0.6312 -0.8744 -0.8430
   74CHL1  H19B 6624   1.768   6.183   3.171  0.0800 -0.4216  0.0849
   74CHL1  H19C 6625   1.891   6.098   3.067  1.0502  1.9905  1.6117
   74CHL1    C1 6626   1.746   5.907   2.980  0.5717  0.0565  0.2540
   74CHL1   H1A 6627   1.815   5.842   3.038 -0.9817 -1.1134  0.8596
   74CHL1   H1B 6628   1.657   5.841   2.971 -0.4064  1.3188  0.3401
   74CHL1    C2 6629   1.784   5.933   2.836 -0.3664  0.4199  1.3492
   74CHL1   H2A 6630   1.822   5.843   2.781  1.7893  1.6366  0.7027
   74CHL1   H2B 6631   1.868   6.006   2.831 -0.0141  0.0081  1.0592
   74CHL1   C20 6632   1.586   5.947   3.760  0.6372  0.2634  0.4005
   74CHL1   H20 6633   1.666   6.023   3.770  0.0942  0.8642  0.2700
   74CHL1   C21 6634   1.651   5.805   3.786 -0.2936  0.1219 -0.1100
   74CHL1  H21A 6635   1.571   5.728   3.793  0.6826 -0.8978  0.3656
   74CHL1  H21B 6636   1.717   5.797   3.876  0.0501 -0.4278 -0.4008
   74CHL1  H21C 6637   1.719   5.781   3.701 -1.4298  1.1068 -1.3354
   74CHL1   C22 6638   1.487   5.966   3.873  0.2259  0.3001 -0.0130
   74CHL1  H22A 6639   1.427   6.056   3.848 -0.4231  0.0714  0.6648
   74CHL1  H22B 6640   1.428   5.872   3.867  0.3641 -0.0137  2.3156
   74CHL1   C23 6641   1.546   5.981   4.014  0.0800 -0.3495 -0.0883
   74CHL1  H23A 6642   1.622   5.900   4.018  0.4934 -0.0661 -1.6702
   74CHL1  H23B 6643   1.606   6.075   4.015  0.5787 -0.6566  1.3329
   74CHL1   C24 6644   1.442   5.953   4.126  0.0988 -0.2401 -0.1986
   74CHL1  H24A 6645   1.411   5.847   4.117  1.4574 -0.5097 -2.1853
   74CHL1  H24B 6646   1.502   5.945   4.219 -0.2645  0.3152  0.0904
   74CHL1   C25 6647   1.313   6.034   4.135  0.3420  0.1441  0.6065
   74CHL1   H25 6648   1.253   6.031   4.042 -1.8570 -2.9161  1.9580
   74CHL1   C26 6649   1.214   5.977   4.244 -0.0185  0.4973  0.3578
   74CHL1  H26A 6650   1.270   5.998   4.337  0.9082 -0.9465  0.1655
   74CHL1  H26B 6651   1.114   6.023   4.226 -0.7519 -0.4933  1.7444
   74CHL1  H26C 6652   1.207   5.867   4.227 -1.2410  0.7725 -1.1863
   74CHL1   C27 6653   1.344   6.187   4.168 -0.2128 -0.6102  0.9552
   74CHL1  H27A 6654   1.425   6.187   4.244  2.3590 -0.5634 -1.5626
   74CHL1  H27B 6655   1.376   6.256   4.087  0.7369 -0.3686  1.5205
   74CHL1  H27C 6656   1.250   6.235   4.200  0.1491  2.0205 -1.4760
   75CHL1    C3 6657   0.209   4.007   2.687 -0.0562 -0.1149  0.4890
   75CHL1    H3 6658   0.099   3.995   2.674 -0.2287  1.8264 -0.0712
   75CHL1    O3 6659   0.267   4.007   2.560  0.0986  0.4192 -0.0053
   75CHL1   H3' 6660   0.360   3.992   2.579 -0.2124 -0.2515  1.0858
   75CHL1    C4 6661   0.236   4.141   2.738  0.0398 -0.4278  0.4404
   75CHL1   H4A 6662   0.345   4.163   2.739  0.3485 -1.8291  1.7504
   75CHL1   H4B 6663   0.192   4.220   2.674 -0.4357 -0.4908  0.6871
   75CHL1    C5 6664   0.188   4.153   2.885 -0.0942  0.2663  0.3226
   75CHL1    C6 6665   0.110   4.253   2.926 -0.0396 -0.3147 -0.1400
   75CHL1    H6 6666   0.100   4.339   2.859  3.4287  0.1353 -0.3015
   75CHL1    C7 6667   0.066   4.278   3.067  0.0527  0.1307  0.3752
   75CHL1   H7A 6668   0.088   4.384   3.092  0.9070 -0.5678  2.9745
   75CHL1   H7B 6669  -0.042   4.253   3.067 -0.0299  0.4828  0.2968
   75CHL1    C8 6670   0.134   4.185   3.174 -0.2146 -0.3086 -0.5326
   75CHL1    H8 6671   0.236   4.228   3.185  0.3500 -1.3007 -1.6477
   75CHL1   C14 6672   0.057   4.178   3.309  0.0644  0.1107 -0.2442
   75CHL1   H14 6673  -0.042   4.147   3.272 -0.9524 -1.8663  3.5943
   75CHL1   C15 6674   0.037   4.311   3.387 -0.7017 -0.2100 -0.0074
   75CHL1  H15A 6675   0.128   4.375   3.387 -1.7591  1.3698  1.2920
   75CHL1  H15B 6676  -0.043   4.379   3.352  0.6451  1.3155 -0.2510
   75CHL1   C16 6677   0.006   4.259   3.531  0.1709  0.5452  0.0193
   75CHL1  H16A 6678   0.073   4.290   3.614  1.3657  2.5242 -1.5972
   75CHL1  H16B 6679  -0.098   4.288   3.559  0.0146  1.2846 -1.2545
   75CHL1   C17 6680   0.013   4.102   3.528  0.6672  0.5268 -0.8103
   75CHL1   H17 6681  -0.091   4.076   3.501 -0.7890  2.4046  2.3681
   75CHL1   C13 6682   0.107   4.074   3.405  0.1841  0.2346 -0.7252
   75CHL1   C18 6683   0.247   4.111   3.460 -0.3555 -0.3556 -0.6750
   75CHL1  H18A 6684   0.252   4.196   3.531 -1.4638 -2.3380  1.9706
   75CHL1  H18B 6685   0.300   4.024   3.504  1.0763  1.0744  0.5337
   75CHL1  H18C 6686   0.306   4.139   3.370 -1.5691  2.6770 -0.6301
   75CHL1   C12 6687   0.104   3.937   3.340 -0.0315 -0.2643  0.5619
   75CHL1  H12A 6688   0.148   3.858   3.406  0.7010  2.6093  3.8136
   75CHL1  H12B 6689   0.001   3.909   3.308  0.6331  1.3862 -3.5442
   75CHL1   C11 6690   0.198   3.936   3.213  0.5374  0.4272  0.5031
   75CHL1  H11A 6691   0.301   3.952   3.251  0.4411  3.5500 -0.2851
   75CHL1  H11B 6692   0.186   3.835   3.169  0.7685  0.0769  1.2298
   75CHL1    C9 6693   0.150   4.050   3.111 -0.0057  0.5216  0.6273
   75CHL1    H9 6694   0.046   4.023   3.082  0.6083  0.9102 -2.2090
   75CHL1   C10 6695   0.229   4.036   2.975  0.6902 -0.2511  0.0864
   75CHL1   C19 6696   0.378   4.053   3.005 -0.8449  0.2405 -0.2938
   75CHL1  H19A 6697   0.391   4.140   3.073  0.3661  1.3347 -1.8405
   75CHL1  H19B 6698   0.418   3.966   3.061 -2.4782 -0.7307 -0.5779
   75CHL1  H19C 6699   0.436   4.070   2.912 -0.5302 -0.5551 -0.2468
   75CHL1    C1 6700   0.193   3.903   2.911 -0.2264 -0.5456 -0.5418
   75CHL1   H1A 6701   0.236   3.816   2.964  0.2155 -1.4266 -2.2683
   75CHL1   H1B 6702   0.082   3.892   2.909 -0.2156 -1.0490  0.9378
   75CHL1    C2 6703   0.262   3.899   2.774  0.9799  0.4859 -0.8058
   75CHL1   H2A 6704   0.234   3.799   2.734  1.8575 -0.3193  0.5070
   75CHL1   H2B 6705   0.372   3.900   2.791  0.5109  1.2358  2.9511
   75CHL1   C20 6706   0.044   4.037   3.665 -0.0221  0.1909 -0.4092
   75CHL1   H20 6707   0.147   4.068   3.694  0.0404 -1.4982  1.4172
   75CHL1   C21 6708   0.016   3.885   3.654  0.1022  1.1038  0.3086
   75CHL1  H21A 6709   0.106   3.820   3.661 -1.4669 -1.1490  0.7999
   75CHL1  H21B 6710  -0.036   3.852   3.562  1.7442 -1.7738  0.2851
   75CHL1  H21C 6711  -0.040   3.848   3.743  0.3195  0.4425  0.1752
   75CHL1   C22 6712  -0.056   4.094   3.769 -0.2309 -0.1630 -0.0418
   75CHL1  H22A 6713  -0.053   4.205   3.770 -0.4914 -0.1579  0.5201
   75CHL1  H22B 6714  -0.157   4.056   3.741 -0.6626  1.3727 -0.6759
   75CHL1   C23 6715  -0.015   4.049   3.911 -0.1373 -0.3564  0.1053
   75CHL1  H23A 6716  -0.003   3.939   3.921  1.0169 -0.1373  1.4427
   75CHL1  H23B 6717   0.089   4.089   3.902 -1.1427  2.3046 -0.7465
   75CHL1   C24 6718  -0.103   4.105   4.019  0.6382  0.3904  0.0543
   75CHL1  H24A 6719  -0.109   4.216   4.009  2.1023  0.4834 -0.0674
   75CHL1  H24B 6720  -0.202   4.064   3.990  1.4405 -1.0536 -0.7751
   75CHL1   C25 6721  -0.066   4.066   4.162  0.8173  0.3798  0.2286
   75CHL1   H25 6722  -0.081   3.958   4.184 -0.0971  0.6738  1.1258
   75CHL1   C26 6723   0.075   4.103   4.194 -0.4843 -0.6597  0.0537
   75CHL1  H26A 6724   0.147   4.050   4.129 -0.1559  0.0706 -0.1887
   75CHL1  H26B 6725   0.092   4.210   4.169 -0.3489 -0.5165  0.7366
   75CHL1  H26C 6726   0.108   4.076   4.296  0.1372  0.8854  0.2779
   75CHL1   C27 6727  -0.165   4.143   4.253 -0.7217  0.3067 -0.3655
   75CHL1  H27A 6728  -0.159   4.119   4.361  0.7135 -1.5119 -0.8017
   75CHL1  H27B 6729  -0.147   4.252   4.240  1.8222  0.3727  2.4792
   75CHL1  H27C 6730  -0.271   4.118   4.232 -1.1769  1.5187  0.3938
   76CHL1    C3 6731   1.064   4.615   2.435 -0.4573  0.4631  0.5081
   76CHL1    H3 6732   1.075   4.507   2.411 -0.3423 -0.0981  2.8770
   76CHL1    O3 6733   1.030   4.675   2.313  0.0907 -0.6769  1.1951
   76CHL1   H3' 6734   0.935   4.690   2.318 -0.3052 -1.6497 -1.4874
   76CHL1    C4 6735   0.950   4.632   2.539  0.0283 -0.0703  0.0837
   76CHL1   H4A 6736   0.913   4.737   2.536  0.8162  0.1970 -0.9225
   76CHL1   H4B 6737   0.860   4.579   2.502 -0.7124  1.1573  0.0963
   76CHL1    C5 6738   0.995   4.574   2.674 -0.0826 -0.0114  0.6400
   76CHL1    C6 6739   0.933   4.471   2.734 -1.4118  0.2007  1.0572
   76CHL1    H6 6740   0.847   4.432   2.678 -1.8629  3.1787 -0.5474
   76CHL1    C7 6741   0.964   4.418   2.868  0.0663  0.1578  0.1128
   76CHL1   H7A 6742   0.869   4.398   2.920  0.1066  1.2579  0.6337
   76CHL1   H7B 6743   1.025   4.325   2.867  0.3717  0.3445 -1.0077
   76CHL1    C8 6744   1.044   4.527   2.949  0.0633  0.5315 -0.2613
   76CHL1    H8 6745   0.977   4.614   2.963 -1.1597 -0.7219  2.3425
   76CHL1   C14 6746   1.084   4.470   3.085  0.5396 -0.0757 -0.4189
   76CHL1   H14 6747   1.139   4.376   3.065  0.4149 -0.2998  0.2680
   76CHL1   C15 6748   0.967   4.409   3.177  0.1527  0.4014 -0.0929
   76CHL1  H15A 6749   0.878   4.472   3.154  0.4095  1.3833  1.4773
   76CHL1  H15B 6750   0.942   4.302   3.159 -0.5579  0.5230  0.1248
   76CHL1   C16 6751   1.019   4.432   3.321  0.1214  1.1602 -0.1870
   76CHL1  H16A 6752   0.956   4.512   3.364  1.1083  1.0124  1.6137
   76CHL1  H16B 6753   1.007   4.334   3.372  0.7194 -0.0223 -2.1825
   76CHL1   C17 6754   1.164   4.484   3.311 -0.4059  0.1618 -1.1406
   76CHL1   H17 6755   1.225   4.391   3.303  0.3038  0.3743  1.1178
   76CHL1   C13 6756   1.165   4.560   3.173 -0.0663  0.4566  1.0378
   76CHL1   C18 6757   1.097   4.693   3.200  0.1377  0.0056  0.3134
   76CHL1  H18A 6758   1.001   4.670   3.251  0.2678 -0.6173  0.2841
   76CHL1  H18B 6759   1.170   4.750   3.260 -0.9346 -0.2855  1.9723
   76CHL1  H18C 6760   1.075   4.756   3.111 -0.6377  0.6361  0.9390
   76CHL1   C12 6761   1.295   4.592   3.095  0.2772 -0.7776  0.3054
   76CHL1  H12A 6762   1.364   4.661   3.149  1.7928 -1.5577 -0.5666
   76CHL1  H12B 6763   1.350   4.498   3.074  0.7801 -0.0562 -1.9562
   76CHL1   C11 6764   1.272   4.658   2.951  0.2936 -0.1239  0.1729
   76CHL1  H11A 6765   1.234   4.762   2.962  1.9848  0.5459 -0.0716
   76CHL1  H11B 6766   1.364   4.646   2.890  0.6960 -0.2333  0.7977
   76CHL1    C9 6767   1.165   4.570   2.869  0.8510  0.0199  1.0799
   76CHL1    H9 6768   1.228   4.480   2.850  1.1787  0.4069  0.2668
   76CHL1   C10 6769   1.127   4.634   2.730  0.4703 -0.1795  0.5162
   76CHL1   C19 6770   1.105   4.785   2.743  0.4880 -0.4865  0.1834
   76CHL1  H19A 6771   1.061   4.809   2.842 -0.3917 -0.7178 -0.1460
   76CHL1  H19B 6772   1.206   4.831   2.741  0.2641  0.0620  0.9520
   76CHL1  H19C 6773   1.050   4.833   2.659  1.7755 -0.6477 -0.7952
   76CHL1    C1 6774   1.237   4.615   2.623 -0.4196  0.7304  0.7950
   76CHL1   H1A 6775   1.320   4.677   2.663  0.0569 -0.8506  2.3719
   76CHL1   H1B 6776   1.265   4.507   2.616  1.3384  1.1505  0.8723
   76CHL1    C2 6777   1.201   4.669   2.484  0.7267 -0.5577 -0.0118
   76CHL1   H2A 6778   1.274   4.654   2.401 -0.9320 -1.9392 -1.2942
   76CHL1   H2B 6779   1.199   4.780   2.486  1.9032 -0.4157 -2.4965
   76CHL1   C20 6780   1.218   4.560   3.436 -0.2233 -0.4813 -0.1095
   76CHL1   H20 6781   1.187   4.667   3.442  0.0956 -0.3431 -0.7393
   76CHL1   C21 6782   1.372   4.556   3.426  0.2390  0.3903 -0.3989
   76CHL1  H21A 6783   1.431   4.603   3.508 -1.0441 -0.2753  0.9719
   76CHL1  H21B 6784   1.409   4.616   3.340  3.0839 -1.1681 -0.3898
   76CHL1  H21C 6785   1.418   4.455   3.419  1.1360  0.6971  0.6726
   76CHL1   C22 6786   1.162   4.506   3.574 -0.4051  0.6925 -0.4522
   76CHL1  H22A 6787   1.055   4.530   3.593  0.1366  1.4752  1.8380
   76CHL1  H22B 6788   1.186   4.398   3.576 -0.3079  0.7175  1.3259
   76CHL1   C23 6789   1.240   4.557   3.697 -0.9261 -0.3241 -0.3734
   76CHL1  H23A 6790   1.347   4.524   3.694 -0.8270 -0.0030 -2.5414
   76CHL1  H23B 6791   1.243   4.667   3.691 -0.5743 -0.3248 -0.2396
   76CHL1   C24 6792   1.168   4.515   3.828  0.3168  0.3634  0.6029
   76CHL1  H24A 6793   1.064   4.551   3.823  0.3139  0.3544  0.5983
   76CHL1  H24B 6794   1.158   4.406   3.813 -1.3371  0.5303  0.3095
   76CHL1   C25 6795   1.242   4.553   3.953 -0.6174 -0.5042 -0.5955
   76CHL1   H25 6796   1.349   4.522   3.955 -0.8027 -1.1639 -0.3536
   76CHL1   C26 6797   1.236   4.704   3.968 -0.1129 -0.9586  0.1766
   76CHL1  H26A 6798   1.288   4.740   4.059 -0.3466 -0.8777  0.2784
   76CHL1  H26B 6799   1.295   4.755   3.889  0.9843 -0.7156  1.1268
   76CHL1  H26C 6800   1.129   4.735   3.966 -1.2292 -4.4075  0.4039
   76CHL1   C27 6801   1.184   4.488   4.078  0.0276  0.9857 -0.4141
   76CHL1  H27A 6802   1.074   4.505   4.081 -0.5340 -2.1582  1.2148
   76CHL1  H27B 6803   1.195   4.378   4.065  0.6903  1.0414 -0.3329
   76CHL1  H27C 6804   1.245   4.510   4.168 -0.0559 -0.7598  0.1057
   77SOPE     N 6805   3.341   4.439   7.121  0.0612  0.1565  0.5280
   77SOPE   HN1 6806   3.418   4.494   7.164  2.1399 -0.5017 -2.1192
   77SOPE   HN2 6807   3.258   4.434   7.184 -0.8179  1.6449 -0.4513
   77SOPE   HN3 6808   3.379   4.346   7.094  0.2767  0.4457 -0.1708
   77SOPE   C12 6809   3.295   4.518   6.997  0.2829 -0.6710 -0.2785
   77SOPE  H12A 6810   3.387   4.535   6.938 -0.0707 -0.2310 -0.7080
   77SOPE  H12B 6811   3.238   4.608   7.028 -1.4274 -1.9198  0.3451
   77SOPE   C11 6812   3.183   4.441   6.919  0.6826 -0.0239 -0.8914
   77SOPE  H11A 6813   3.229   4.360   6.858  1.0713 -1.4395  1.1729
   77SOPE  H11B 6814   3.138   4.515   6.849 -1.4264  1.7700  2.1164
   77SOPE     P 6815   2.941   4.352   6.950 -0.1578  0.1907  0.1446
   77SOPE   O13 6816   2.854   4.469   6.943 -0.1021 -0.5497 -0.0549
   77SOPE   O14 6817   2.884   4.249   7.034  0.4835 -0.0958 -0.1541
   77SOPE   O12 6818   3.087   4.392   7.009  0.4842  0.0595  0.0359
   77SOPE   O11 6819   2.964   4.306   6.801  0.6040 -0.1752 -0.0847
   77SOPE    C1 6820   3.027   4.181   6.766  0.3198 -0.0309 -0.2032
   77SOPE    HA 6821   3.079   4.132   6.851  2.2536  1.3270 -0.5462
   77SOPE    HB 6822   3.105   4.203   6.690  0.4139 -0.2912 -0.1837
   77SOPE    C2 6823   2.933   4.078   6.698 -0.6220  0.1700  0.5119
   77SOPE    HS 6824   2.991   3.986   6.676  1.4617  1.5844 -0.3016
   77SOPE   O21 6825   2.889   4.121   6.567 -0.4296  0.1507  0.7463
   77SOPE   C21 6826   2.984   4.136   6.470  0.5458  0.1143  0.3921
   77SOPE   O22 6827   3.094   4.090   6.467  0.0155 -0.4036 -0.2609
   77SOPE   C22 6828   2.914   4.190   6.346 -0.6696  0.7540  0.2031
   77SOPE   H2R 6829   2.861   4.283   6.375 -0.4689  1.3815 -1.3408
   77SOPE   H2S 6830   2.835   4.120   6.313 -1.9303  2.3695 -0.3281
   77SOPE    C3 6831   2.812   4.049   6.788  0.2526 -0.1027  0.4911
   77SOPE    HX 6832   2.749   4.136   6.816  1.1772  1.0074 -0.7296
   77SOPE    HY 6833   2.866   4.002   6.872  0.0676 -1.8853 -0.3424
   77SOPE   O31 6834   2.730   3.952   6.719  0.3178  0.3000  0.7089
   77SOPE   C31 6835   2.768   3.828   6.727  0.5729  0.0892  0.2919
   77SOPE   O32 6836   2.868   3.790   6.787  0.3527  0.1683  0.2813
   77SOPE   C32 6837   2.667   3.741   6.658  0.3203 -0.1383 -0.3080
   77SOPE   H2X 6838   2.609   3.802   6.586  2.8628  0.5262 -1.9396
   77SOPE   H2Y 6839   2.604   3.704   6.742  1.8450  1.2059  1.5249
   77SOPE   C23 6840   3.006   4.205   6.226 -0.2642  0.0121 -0.3306
   77SOPE   H3R 6841   3.065   4.111   6.221  3.3502  2.0707  0.0624
   77SOPE   H3S 6842   3.079   4.284   6.253 -0.9800  0.3746  0.5653
   77SOPE   C24 6843   2.933   4.243   6.100 -0.1091 -0.3565 -0.4726
   77SOPE   H4R 6844   2.861   4.168   6.061  1.5040 -1.1304 -2.1420
   77SOPE   H4S 6845   2.897   4.348   6.106  3.1799  0.8470  0.6462
   77SOPE   C25 6846   3.032   4.269   5.982 -0.2342 -0.2236 -0.6697
   77SOPE   H5R 6847   3.101   4.354   6.001  1.2169 -1.6753  0.8297
   77SOPE   H5S 6848   3.096   4.179   5.974  0.2080 -0.1153  1.3317
   77SOPE   C26 6849   2.955   4.286   5.852 -0.2580  0.1365  0.4945
   77SOPE   H6R 6850   2.901   4.192   5.827  2.9912 -1.8287  0.4084
   77SOPE   H6S 6851   2.871   4.359   5.863 -0.1680  0.5627 -1.2316
   77SOPE   C27 6852   3.031   4.339   5.734 -0.6496 -0.8372 -0.6451
   77SOPE   H7R 6853   3.069   4.439   5.763  0.4703 -1.3820 -0.2029
   77SOPE   H7S 6854   3.123   4.281   5.711  0.5111  0.4747  0.4956
   77SOPE   C28 6855   2.959   4.348   5.596  0.0415 -1.0027  0.4654
   77SOPE   H8R 6856   2.925   4.249   5.558 -0.5173  0.5353 -3.6037
   77SOPE   H8S 6857   2.876   4.415   5.629  0.9448 -0.7623  2.3345
   77SOPE   C29 6858   3.035   4.427   5.489 -0.2900 -0.3128  0.1411
   77SOPE   H91 6859   3.074   4.522   5.529 -1.4938 -0.0044  0.6018
   77SOPE  C210 6860   3.066   4.389   5.365  0.3300  0.2500  0.0964
   77SOPE  H101 6861   3.133   4.447   5.300 -0.0752 -1.0345 -1.5378
   77SOPE  C211 6862   3.033   4.260   5.300 -0.3744 -0.1812  0.1259
   77SOPE  H11R 6863   3.008   4.174   5.366  1.6073  0.5706  2.0207
   77SOPE  H11S 6864   3.129   4.225   5.255 -0.0256 -1.4013  1.7089
   77SOPE  C212 6865   2.916   4.275   5.200 -0.2443  0.0620  0.3338
   77SOPE  H12R 6866   2.827   4.306   5.260 -0.2931 -0.3480  0.4721
   77SOPE  H12S 6867   2.899   4.175   5.155  0.9070  0.6665 -1.5412
   77SOPE  C213 6868   2.943   4.372   5.082  0.5200 -0.6933  0.0231
   77SOPE  H13R 6869   3.049   4.372   5.051  0.8292 -2.7899  0.9016
   77SOPE  H13S 6870   2.902   4.471   5.109  0.1059 -0.4647 -1.3708
   77SOPE  C214 6871   2.864   4.323   4.963 -0.3182  0.4408  0.3622
   77SOPE  H14R 6872   2.757   4.319   4.993 -0.4574  1.0811 -0.0506
   77SOPE  H14S 6873   2.895   4.218   4.945  0.5457  0.6359  0.6624
   77SOPE  C215 6874   2.872   4.416   4.840 -0.9133  0.7535 -0.4726
   77SOPE  H15R 6875   2.975   4.453   4.820 -0.5278  0.3682  0.7121
   77SOPE  H15S 6876   2.815   4.509   4.858  1.1223  2.1224 -0.6863
   77SOPE  C216 6877   2.845   4.339   4.709  0.2607 -0.5403  0.4264
   77SOPE  H16R 6878   2.919   4.256   4.703 -0.3414 -1.5406  4.1640
   77SOPE  H16S 6879   2.861   4.410   4.625 -0.2502  1.4019  1.8928
   77SOPE  C217 6880   2.701   4.279   4.684 -0.3712 -0.6174 -0.0357
   77SOPE  H17R 6881   2.618   4.345   4.718 -1.0443 -1.2331 -0.4420
   77SOPE  H17S 6882   2.682   4.183   4.738 -1.1904 -0.2234  0.4004
   77SOPE  C218 6883   2.675   4.249   4.541 -0.0991  0.2681  0.5153
   77SOPE  H18R 6884   2.580   4.191   4.532  0.2840 -0.4967  1.2236
   77SOPE  H18S 6885   2.746   4.179   4.491 -0.9629  0.5502 -1.1701
   77SOPE  H18T 6886   2.665   4.342   4.482 -1.6899  1.0699  1.9536
   77SOPE   C33 6887   2.740   3.626   6.587 -0.5641 -0.0362 -0.3676
   77SOPE   H3X 6888   2.676   3.551   6.537  2.0054 -1.4232 -1.8215
   77SOPE   H3Y 6889   2.802   3.565   6.657  0.8833  1.8628  0.0846
   77SOPE   C34 6890   2.843   3.668   6.483 -0.1626 -0.5045  0.2576
   77SOPE   H4X 6891   2.878   3.582   6.423 -0.2254 -0.5663  0.3086
   77SOPE   H4Y 6892   2.926   3.716   6.539 -1.1806  0.4643  0.9783
   77SOPE   C35 6893   2.801   3.771   6.380 -0.1245  1.0025 -0.0355
   77SOPE   H5X 6894   2.774   3.859   6.441 -0.8176 -0.1467  1.3996
   77SOPE   H5Y 6895   2.709   3.733   6.331  1.8213 -1.0991 -2.3040
   77SOPE   C36 6896   2.907   3.808   6.275 -0.6166 -0.2470 -0.7488
   77SOPE   H6X 6897   2.958   3.712   6.253  2.7334  0.9841  0.9983
   77SOPE   H6Y 6898   2.981   3.885   6.306 -0.3135 -0.8878  0.1577
   77SOPE   C37 6899   2.847   3.852   6.139  0.9141  0.4884  0.4994
   77SOPE   H7X 6900   2.799   3.951   6.155 -0.5285 -0.0751 -0.1915
   77SOPE   H7Y 6901   2.762   3.787   6.110 -0.6395  3.4024 -2.1844
   77SOPE   C38 6902   2.947   3.861   6.019  0.6482  0.5610 -0.2557
   77SOPE   H8X 6903   3.018   3.777   6.034  1.3375  1.3101  0.8399
   77SOPE   H8Y 6904   3.008   3.954   6.031  2.1884 -0.4356 -0.0324
   77SOPE   C39 6905   2.878   3.867   5.875 -0.7460  0.2039  0.2902
   77SOPE   H9X 6906   2.806   3.950   5.858 -0.4865  0.2638 -0.5686
   77SOPE   H9Y 6907   2.823   3.770   5.868 -0.5369  0.0228  1.0992
   77SOPE  C310 6908   2.987   3.866   5.760  0.2590  0.3775 -1.1417
   77SOPE  H10X 6909   3.045   3.772   5.768  2.0547  1.2727 -2.6994
   77SOPE  H10Y 6910   3.061   3.948   5.769  0.4860  0.0722  0.0005
   77SOPE  C311 6911   2.924   3.871   5.621 -0.0760 -0.2504 -0.1874
   77SOPE  H11X 6912   2.873   3.970   5.618  1.5268  0.5895 -1.3292
   77SOPE  H11Y 6913   2.857   3.785   5.601  0.6896 -0.8478 -0.2014
   77SOPE  C312 6914   3.035   3.894   5.518 -0.1382 -0.2184 -0.3494
   77SOPE  H12X 6915   3.113   3.815   5.524  0.5785  0.4622 -0.5384
   77SOPE  H12Y 6916   3.094   3.986   5.536  1.8760 -1.6506  0.8487
   77SOPE  C313 6917   2.969   3.876   5.382 -0.1518  0.0808  0.0065
   77SOPE  H13X 6918   2.885   3.949   5.372 -0.4103 -0.0957  0.8598
   77SOPE  H13Y 6919   2.914   3.779   5.374  0.1833 -0.0014 -1.8788
   77SOPE  C314 6920   3.069   3.871   5.265  0.1079  0.7352 -0.0827
   77SOPE  H14X 6921   3.141   3.788   5.283  0.2698  0.9311  0.1739
   77SOPE  H14Y 6922   3.129   3.964   5.274 -0.3214  0.8553  1.8324
   77SOPE  C315 6923   3.002   3.858   5.130  0.7649 -0.1861  0.1323
   77SOPE  H15X 6924   2.961   3.951   5.085  1.1787 -0.1776 -0.2418
   77SOPE  H15Y 6925   2.916   3.788   5.135  0.6457 -0.0683 -0.2507
   77SOPE  C316 6926   3.094   3.807   5.015 -0.6853  0.5929  0.3658
   77SOPE  H16X 6927   3.038   3.777   4.923 -1.2955  1.2235  0.5191
   77SOPE  H16Y 6928   3.153   3.719   5.047  1.6883  2.1498  0.5326
   77SOPE  C317 6929   3.188   3.917   4.966 -0.1439 -0.1498  0.4847
   77SOPE  H17X 6930   3.272   3.871   4.909 -0.7826 -1.1019  0.3007
   77SOPE  H17Y 6931   3.237   3.971   5.050  0.5691  2.4090 -1.4256
   77SOPE  C318 6932   3.133   4.034   4.888  0.1520  0.3368 -1.6718
   77SOPE  H18X 6933   3.033   4.056   4.930  1.4462  0.8307  1.4349
   77SOPE  H18Y 6934   3.134   4.006   4.781 -0.2430 -0.5022 -1.4619
   77SOPE  H18Z 6935   3.195   4.125   4.907 -2.1702  1.6283  0.3624
   78SOPE     N 6936   2.398   4.340   6.591  0.0944 -1.1048  0.2271
   78SOPE   HN1 6937   2.383   4.418   6.524 -1.4603  1.2352  3.0564
   78SOPE   HN2 6938   2.397   4.247   6.545  2.1981 -0.9755 -0.1357
   78SOPE   HN3 6939   2.314   4.339   6.654 -0.2232 -0.7393 -0.1863
   78SOPE   C12 6940   2.523   4.359   6.671 -0.0737  0.0423  0.1389
   78SOPE  H12A 6941   2.517   4.279   6.747 -2.0546 -0.8584 -0.8897
   78SOPE  H12B 6942   2.523   4.460   6.719  0.8166  0.1448 -0.0657
   78SOPE   C11 6943   2.657   4.338   6.587  0.6155  0.0888  0.5141
   78SOPE  H11A 6944   2.631   4.254   6.519 -0.4772  0.5979  0.2725
   78SOPE  H11B 6945   2.755   4.317   6.634  0.5107 -0.3138  0.5642
   78SOPE     P 6946   2.732   4.590   6.544  0.0993  0.1879  0.1264
   78SOPE   O13 6947   2.879   4.591   6.521 -0.5447 -0.1907 -0.5705
   78SOPE   O14 6948   2.684   4.626   6.681 -0.1913  0.1761  0.3367
   78SOPE   O12 6949   2.671   4.453   6.500 -0.3879 -0.4061 -0.0568
   78SOPE   O11 6950   2.669   4.695   6.451  0.5426 -0.3739 -0.3007
   78SOPE    C1 6951   2.677   4.701   6.310 -0.0730  0.0701 -0.8243
   78SOPE    HA 6952   2.765   4.643   6.276 -0.8687 -2.6420  1.3338
   78SOPE    HB 6953   2.691   4.808   6.284 -1.3464  0.2381 -0.8834
   78SOPE    C2 6954   2.544   4.655   6.242 -0.1596 -0.5918  0.8910
   78SOPE    HS 6955   2.536   4.544   6.246 -1.0062 -0.5477  0.6235
   78SOPE   O21 6956   2.531   4.717   6.107  0.2640  0.2664  0.3056
   78SOPE   C21 6957   2.609   4.662   6.019  0.5536  0.0416  0.4890
   78SOPE   O22 6958   2.674   4.560   6.037  0.4582 -0.0242  0.4800
   78SOPE   C22 6959   2.611   4.750   5.893  0.2458  0.4311  0.2265
   78SOPE   H2R 6960   2.690   4.828   5.891  1.0766 -0.2727  2.1785
   78SOPE   H2S 6961   2.513   4.801   5.902 -0.1217 -0.6409  4.1410
   78SOPE    C3 6962   2.420   4.700   6.323 -0.4416  0.5011 -0.4792
   78SOPE    HX 6963   2.429   4.810   6.338  0.4315  0.2589  0.9813
   78SOPE    HY 6964   2.443   4.657   6.423 -0.1505  1.9165  0.0968
   78SOPE   O31 6965   2.301   4.671   6.259  0.6498 -0.0225 -0.4922
   78SOPE   C31 6966   2.263   4.547   6.278 -0.4842  0.3517  0.1429
   78SOPE   O32 6967   2.326   4.467   6.348  1.0819  0.1948  0.2461
   78SOPE   C32 6968   2.139   4.510   6.199 -1.1247 -0.3622  0.5121
   78SOPE   H2X 6969   2.097   4.606   6.164  0.8071  0.4632  0.3077
   78SOPE   H2Y 6970   2.073   4.444   6.259 -0.0913  0.3361  2.5028
   78SOPE   C23 6971   2.626   4.658   5.767  0.0565 -0.8478 -1.0246
   78SOPE   H3R 6972   2.550   4.577   5.766  1.7777 -2.5314 -0.9465
   78SOPE   H3S 6973   2.724   4.606   5.773  1.0579  0.7738 -2.5295
   78SOPE   C24 6974   2.618   4.739   5.643  0.0464 -0.1064  0.0770
   78SOPE   H4R 6975   2.512   4.765   5.625 -0.5227 -3.0903 -1.4505
   78SOPE   H4S 6976   2.685   4.828   5.640  0.3781 -0.3711 -0.5683
   78SOPE   C25 6977   2.656   4.669   5.509  0.3946  0.4687 -0.6034
   78SOPE   H5R 6978   2.737   4.598   5.534  0.6109  0.9658  0.1480
   78SOPE   H5S 6979   2.561   4.615   5.487  0.4429 -0.6559  1.6170
   78SOPE   C26 6980   2.701   4.760   5.398  0.2814  0.1553  1.0018
   78SOPE   H6R 6981   2.616   4.830   5.378 -1.5553 -1.6016  2.3061
   78SOPE   H6S 6982   2.800   4.806   5.419 -0.3574  1.3796  1.4900
   78SOPE   C27 6983   2.716   4.679   5.271  0.4177 -0.1390 -0.2263
   78SOPE   H7R 6984   2.768   4.743   5.197 -0.4052 -1.4172 -1.9936
   78SOPE   H7S 6985   2.770   4.587   5.301 -1.5620 -0.7409  1.7608
   78SOPE   C28 6986   2.575   4.635   5.214 -0.4721 -0.8671 -0.6549
   78SOPE   H8R 6987   2.516   4.575   5.286  2.7865 -2.1238  1.1697
   78SOPE   H8S 6988   2.523   4.731   5.193  0.9523  0.1879  0.4096
   78SOPE   C29 6989   2.601   4.552   5.090 -0.3794  0.4567 -0.1936
   78SOPE   H91 6990   2.626   4.446   5.110 -2.7718  0.1327  1.5101
   78SOPE  C210 6991   2.563   4.587   4.971  0.1994  0.4943  1.0790
   78SOPE  H101 6992   2.618   4.523   4.901  2.9420  1.1340  2.5196
   78SOPE  C211 6993   2.506   4.719   4.917 -0.3211 -0.9324  0.6523
   78SOPE  H11R 6994   2.476   4.792   4.995 -3.8051 -0.8013 -0.6268
   78SOPE  H11S 6995   2.421   4.705   4.847  1.1634  0.8101 -1.6763
   78SOPE  C212 6996   2.613   4.790   4.829  0.0228  0.1021  0.2049
   78SOPE  H12R 6997   2.569   4.887   4.798 -2.7928 -0.9842  0.4868
   78SOPE  H12S 6998   2.636   4.733   4.736 -1.1873  0.1302 -0.1303
   78SOPE  C213 6999   2.729   4.823   4.919  0.2614 -0.4551  0.3340
   78SOPE  H13R 7000   2.772   4.731   4.963 -3.5700 -2.6719 -0.0455
   78SOPE  H13S 7001   2.692   4.882   5.006 -1.8555 -1.9494  0.5364
   78SOPE  C214 7002   2.839   4.903   4.846  0.2279  0.1574 -0.2870
   78SOPE  H14R 7003   2.816   5.012   4.846 -1.4295 -0.1647 -0.3210
   78SOPE  H14S 7004   2.844   4.860   4.744 -0.3705 -0.4082 -0.0880
   78SOPE  C215 7005   2.983   4.887   4.915 -0.3003  0.5324  0.1417
   78SOPE  H15R 7006   2.971   4.934   5.014 -1.2648  2.3892 -0.8078
   78SOPE  H15S 7007   3.043   4.972   4.876  0.9786 -0.1005  0.6569
   78SOPE  C216 7008   3.046   4.743   4.911  0.9167  0.3419  0.1259
   78SOPE  H16R 7009   3.035   4.707   4.807 -3.3660 -1.4639  1.0202
   78SOPE  H16S 7010   2.975   4.679   4.968 -1.1367  2.0944 -0.3173
   78SOPE  C217 7011   3.189   4.740   4.970  0.3919  0.3468  0.0336
   78SOPE  H17R 7012   3.202   4.807   5.057  0.3636  1.3336 -0.7072
   78SOPE  H17S 7013   3.260   4.782   4.896 -1.6929  2.0570 -1.1176
   78SOPE  C218 7014   3.236   4.601   4.989 -0.3618  0.1264 -0.2167
   78SOPE  H18R 7015   3.324   4.578   5.052 -0.0122 -1.5077 -1.2380
   78SOPE  H18S 7016   3.243   4.555   4.888  0.2002  2.8524 -1.5122
   78SOPE  H18T 7017   3.162   4.540   5.045  1.8945 -2.4426  0.2036
   78SOPE   C33 7018   2.168   4.430   6.068 -0.3934  0.5931  0.1203
   78SOPE   H3X 7019   2.070   4.391   6.032  0.2233 -0.1915 -0.7645
   78SOPE   H3Y 7020   2.239   4.350   6.097 -0.8490 -0.0206 -0.4075
   78SOPE   C34 7021   2.226   4.526   5.958 -0.0787  0.6806  0.6270
   78SOPE   H4X 7022   2.329   4.559   5.985  1.1118 -0.5107 -2.0170
   78SOPE   H4Y 7023   2.167   4.619   5.945  1.3371  1.6670  0.9932
   78SOPE   C35 7024   2.227   4.453   5.825 -0.7389 -0.2048 -0.1877
   78SOPE   H5X 7025   2.129   4.403   5.806 -1.2240  0.8403 -0.5215
   78SOPE   H5Y 7026   2.311   4.381   5.824 -0.8782 -0.4389 -2.8578
   78SOPE   C36 7027   2.240   4.545   5.706 -0.4393 -0.0531  0.1506
   78SOPE   H6X 7028   2.339   4.592   5.717 -0.6240 -0.0000  1.7656
   78SOPE   H6Y 7029   2.164   4.626   5.702 -0.8320 -0.4309 -0.3470
   78SOPE   C37 7030   2.224   4.472   5.572 -0.5249  0.0000  0.3941
   78SOPE   H7X 7031   2.129   4.415   5.573 -0.7166  0.3255  1.0660
   78SOPE   H7Y 7032   2.316   4.411   5.559 -0.0347  1.1383 -2.1148
   78SOPE   C38 7033   2.225   4.556   5.445  0.0845 -0.1677  0.4407
   78SOPE   H8X 7034   2.323   4.600   5.417  0.5095  1.6526  4.2109
   78SOPE   H8Y 7035   2.155   4.639   5.465 -0.2030 -0.7158  1.8007
   78SOPE   C39 7036   2.169   4.474   5.323 -0.4854  0.7176  0.0431
   78SOPE   H9X 7037   2.066   4.440   5.347  0.3948 -1.7998  0.5029
   78SOPE   H9Y 7038   2.219   4.376   5.309 -0.3795  0.7142  0.4504
   78SOPE  C310 7039   2.177   4.550   5.195  0.5440  0.7705 -0.0676
   78SOPE  H10X 7040   2.261   4.622   5.185 -0.3245  1.7768 -0.2213
   78SOPE  H10Y 7041   2.093   4.622   5.204 -0.3682 -0.3801  0.9905
   78SOPE  C311 7042   2.167   4.454   5.080  0.3251  0.0837  0.7567
   78SOPE  H11X 7043   2.081   4.391   5.111 -1.4720  2.8923  1.8324
   78SOPE  H11Y 7044   2.261   4.395   5.079  1.0436  1.0116 -2.7687
   78SOPE  C312 7045   2.152   4.531   4.945  0.5608 -0.5274 -0.2820
   78SOPE  H12X 7046   2.208   4.494   4.856 -0.4646 -1.2814 -0.6285
   78SOPE  H12Y 7047   2.189   4.632   4.972  2.8243 -1.1248 -0.8559
   78SOPE  C313 7048   2.002   4.540   4.906  0.2693  0.3529 -0.5727
   78SOPE  H13X 7049   2.000   4.625   4.834  0.6764 -0.0944 -1.1238
   78SOPE  H13Y 7050   1.939   4.568   4.993 -2.9505 -0.0381 -2.5975
   78SOPE  C314 7051   1.943   4.407   4.840 -0.5643 -0.2545  0.4199
   78SOPE  H14X 7052   1.837   4.431   4.818 -0.6622  0.9285  1.9432
   78SOPE  H14Y 7053   1.960   4.324   4.912 -0.2047 -0.6632 -0.1279
   78SOPE  C315 7054   2.011   4.374   4.704  0.4181 -0.1872 -0.2393
   78SOPE  H15X 7055   2.114   4.336   4.719  1.0121  1.7076  0.9016
   78SOPE  H15Y 7056   2.026   4.463   4.640 -1.1512  1.2787  1.3271
   78SOPE  C316 7057   1.926   4.268   4.631 -0.8935  0.5869 -0.3374
   78SOPE  H16X 7058   1.836   4.320   4.592 -2.0214 -0.5182  0.7172
   78SOPE  H16Y 7059   1.897   4.206   4.718  1.2830 -0.4906 -0.3101
   78SOPE  C317 7060   2.009   4.194   4.524 -0.6060 -1.0491 -0.0461
   78SOPE  H17X 7061   2.115   4.191   4.556  0.5424 -1.4864 -3.5046
   78SOPE  H17Y 7062   2.000   4.242   4.425  1.3717 -0.3739  0.0512
   78SOPE  C318 7063   1.962   4.051   4.507 -0.3209 -0.1377 -0.2226
   78SOPE  H18X 7064   1.996   4.018   4.406  0.3280  0.9101 -0.3628
   78SOPE  H18Y 7065   1.851   4.042   4.508 -0.2251 -3.3895 -2.6001
   78SOPE  H18Z 7066   2.008   3.982   4.581 -2.6064 -1.2357  0.2439
   79SOPE     N 7067   4.023   1.260   7.415  0.6779 -0.2455  0.1761
   79SOPE   HN1 7068   4.038   1.256   7.518 -3.1365 -4.1058  0.8805
   79SOPE   HN2 7069   3.941   1.204   7.386 -0.0317 -0.6175  2.6817
   79SOPE   HN3 7070   4.107   1.212   7.378  0.0983 -2.6454  1.7814
   79SOPE   C12 7071   3.996   1.395   7.368  0.2781 -0.2111  0.2937
   79SOPE  H12A 7072   4.084   1.455   7.399  1.1528 -0.1586 -2.1005
   79SOPE  H12B 7073   3.907   1.433   7.423 -1.7475  0.8411 -3.3582
   79SOPE   C11 7074   3.975   1.405   7.218 -0.2899  0.7919  0.5190
   79SOPE  H11A 7075   3.950   1.506   7.181 -1.7798  0.2303 -0.0975
   79SOPE  H11B 7076   3.884   1.342   7.208 -0.6281  0.9600  2.1635
   79SOPE     P 7077   4.217   1.421   7.119 -0.3066  0.1602  0.1942
   79SOPE   O13 7078   4.320   1.330   7.171 -0.2515  0.1269 -0.3271
   79SOPE   O14 7079   4.213   1.564   7.161  0.3438 -0.0568  0.1393
   79SOPE   O12 7080   4.079   1.347   7.133 -0.4013 -0.0057  0.5405
   79SOPE   O11 7081   4.231   1.423   6.961  0.1714  0.5541 -0.4101
   79SOPE    C1 7082   4.112   1.425   6.875  0.3410  0.4103  0.0338
   79SOPE    HA 7083   4.043   1.507   6.902  0.1034 -0.4148  2.0917
   79SOPE    HB 7084   4.056   1.330   6.886  0.3465  0.6619  3.0802
   79SOPE    C2 7085   4.132   1.456   6.728 -0.3657 -0.3600  0.2321
   79SOPE    HS 7086   4.038   1.431   6.675 -0.7449  2.1865 -0.4323
   79SOPE   O21 7087   4.242   1.376   6.686  0.2740 -0.0422 -0.7940
   79SOPE   C21 7088   4.240   1.344   6.557  0.2038 -0.3078 -0.0215
   79SOPE   O22 7089   4.147   1.361   6.478  0.4884  0.1776 -0.1662
   79SOPE   C22 7090   4.373   1.279   6.516 -0.2526  0.2615  0.1067
   79SOPE   H2R 7091   4.404   1.209   6.596 -0.4509  0.9904  0.8262
   79SOPE   H2S 7092   4.446   1.363   6.518  0.1827 -0.1213  2.0181
   79SOPE    C3 7093   4.161   1.604   6.698  0.1917  0.0483  0.8370
   79SOPE    HX 7094   4.248   1.637   6.760 -1.3233 -0.8397  3.6311
   79SOPE    HY 7095   4.066   1.655   6.722 -0.9159 -1.1798 -0.7327
   79SOPE   O31 7096   4.173   1.635   6.554 -0.5520  0.2194 -0.5476
   79SOPE   C31 7097   4.284   1.686   6.508 -0.3128  0.2137  0.0378
   79SOPE   O32 7098   4.387   1.696   6.571 -0.9252 -0.1688  0.3290
   79SOPE   C32 7099   4.262   1.730   6.359  0.3330 -0.1719  0.3055
   79SOPE   H2X 7100   4.202   1.823   6.363 -0.5435 -0.6429 -1.0822
   79SOPE   H2Y 7101   4.191   1.664   6.305  0.7212  0.5416 -1.1540
   79SOPE   C23 7102   4.372   1.200   6.385 -0.4709  0.3487 -0.0304
   79SOPE   H3R 7103   4.281   1.137   6.382  0.0568 -0.4541  0.3957
   79SOPE   H3S 7104   4.464   1.140   6.368 -1.1863 -0.4211 -1.4170
   79SOPE   C24 7105   4.385   1.297   6.270  0.5241 -0.0390 -0.0551
   79SOPE   H4R 7106   4.291   1.355   6.263  0.1998 -0.5969 -0.4439
   79SOPE   H4S 7107   4.470   1.367   6.282  0.9699 -0.9500  2.5985
   79SOPE   C25 7108   4.376   1.224   6.135  0.1682  0.9353  0.6911
   79SOPE   H5R 7109   4.467   1.161   6.134 -1.6541 -1.8588  0.1217
   79SOPE   H5S 7110   4.285   1.162   6.142  0.4969  0.3712  0.0296
   79SOPE   C26 7111   4.363   1.322   6.016  0.2050  0.1613  0.3018
   79SOPE   H6R 7112   4.268   1.299   5.963  0.4255 -0.8763  0.3338
   79SOPE   H6S 7113   4.353   1.430   6.041 -1.2611  0.3908 -1.0842
   79SOPE   C27 7114   4.478   1.303   5.918  0.0960 -0.5337 -0.1427
   79SOPE   H7R 7115   4.574   1.325   5.970  0.8297  0.1733 -1.7261
   79SOPE   H7S 7116   4.478   1.199   5.879 -0.9388  0.8565 -4.2720
   79SOPE   C28 7117   4.469   1.389   5.791 -1.0548  1.0727 -0.3372
   79SOPE   H8R 7118   4.499   1.490   5.825  1.1327  0.4410 -0.2347
   79SOPE   H8S 7119   4.562   1.378   5.733 -0.8003  0.1603  0.2114
   79SOPE   C29 7120   4.338   1.385   5.710  0.0304  0.2872 -0.3866
   79SOPE   H91 7121   4.291   1.286   5.718  2.6789 -1.1661 -1.2288
   79SOPE  C210 7122   4.289   1.490   5.647 -0.6342 -0.1917  0.0154
   79SOPE  H101 7123   4.199   1.467   5.589 -1.2897 -0.3795  1.0744
   79SOPE  C211 7124   4.350   1.620   5.623 -0.1249 -0.5928  0.1178
   79SOPE  H11R 7125   4.452   1.625   5.666  0.8257 -0.7961 -2.0085
   79SOPE  H11S 7126   4.298   1.688   5.693  0.1988 -0.5211  0.2880
   79SOPE  C212 7127   4.333   1.681   5.485  0.5643  0.4637 -0.5667
   79SOPE  H12R 7128   4.354   1.790   5.494  0.3740  0.4029  0.7874
   79SOPE  H12S 7129   4.233   1.663   5.442  0.8098 -1.2008 -0.5047
   79SOPE  C213 7130   4.427   1.621   5.378  0.1432 -0.3197  0.1506
   79SOPE  H13R 7131   4.408   1.512   5.381  0.7667 -0.4496 -0.5370
   79SOPE  H13S 7132   4.535   1.620   5.407 -0.2048 -0.8767  1.5245
   79SOPE  C214 7133   4.401   1.675   5.237 -0.7972 -0.2581  0.9736
   79SOPE  H14R 7134   4.421   1.784   5.227 -0.9659 -0.3872 -1.0756
   79SOPE  H14S 7135   4.295   1.659   5.208 -0.1721  0.7098 -2.2781
   79SOPE  C215 7136   4.485   1.605   5.123  0.0675 -0.6459  0.4794
   79SOPE  H15R 7137   4.434   1.510   5.099 -1.2475  0.6820 -2.4715
   79SOPE  H15S 7138   4.592   1.599   5.153  0.5469 -1.9376 -1.3854
   79SOPE  C216 7139   4.489   1.680   4.994 -0.7556 -0.4244  0.2913
   79SOPE  H16R 7140   4.540   1.777   5.014  2.4283 -2.2132  1.6044
   79SOPE  H16S 7141   4.390   1.691   4.945 -1.4796 -2.2025  1.2668
   79SOPE  C217 7142   4.567   1.604   4.883 -0.4055 -0.4009  0.0699
   79SOPE  H17R 7143   4.535   1.498   4.877  0.4522 -0.5985 -1.5170
   79SOPE  H17S 7144   4.676   1.596   4.900 -0.1517 -2.1084 -1.8663
   79SOPE  C218 7145   4.547   1.682   4.745  0.5016  0.1318  0.1234
   79SOPE  H18R 7146   4.438   1.702   4.733  0.3953 -1.1447 -1.4092
   79SOPE  H18S 7147   4.576   1.619   4.658 -0.7977 -1.4873  0.8145
   79SOPE  H18T 7148   4.605   1.777   4.751  2.8993 -1.2010 -0.6792
   79SOPE   C33 7149   4.386   1.746   6.263  0.4980 -0.2954  0.1224
   79SOPE   H3X 7150   4.446   1.654   6.273  0.3575 -0.4511 -0.4195
   79SOPE   H3Y 7151   4.444   1.822   6.320 -1.8957  0.8438  1.2168
   79SOPE   C34 7152   4.361   1.807   6.128  0.6664 -0.6073  0.2382
   79SOPE   H4X 7153   4.323   1.911   6.138  0.4086 -0.1056 -3.9250
   79SOPE   H4Y 7154   4.290   1.754   6.061 -0.3829  0.1375  0.7355
   79SOPE   C35 7155   4.492   1.821   6.055  0.1876  0.3027 -0.1290
   79SOPE   H5X 7156   4.547   1.725   6.055  0.3194  0.3527 -1.9681
   79SOPE   H5Y 7157   4.558   1.898   6.102 -0.7726 -0.1459  2.0964
   79SOPE   C36 7158   4.471   1.866   5.912  0.8219 -0.5155  0.0304
   79SOPE   H6X 7159   4.398   1.949   5.917  1.8378  0.2932  2.8151
   79SOPE   H6Y 7160   4.430   1.793   5.838  0.7710  0.8797 -1.3550
   79SOPE   C37 7161   4.589   1.919   5.840  0.0753  0.0659 -0.3006
   79SOPE   H7X 7162   4.669   1.843   5.838 -0.1521 -0.1581 -1.7301
   79SOPE   H7Y 7163   4.618   2.012   5.894 -0.7085  0.5570 -0.7084
   79SOPE   C38 7164   4.562   1.938   5.689 -0.6274 -0.4959 -0.6732
   79SOPE   H8X 7165   4.478   2.011   5.687 -2.4401 -2.4434  0.4916
   79SOPE   H8Y 7166   4.535   1.840   5.645 -1.1150  0.0777 -1.6710
   79SOPE   C39 7167   4.689   1.982   5.618 -0.4992 -0.8156 -0.6897
   79SOPE   H9X 7168   4.775   1.916   5.641  1.4001  1.4330 -0.9142
   79SOPE   H9Y 7169   4.720   2.087   5.637 -0.3680 -1.1100  0.8894
   79SOPE  C310 7170   4.659   1.969   5.467 -0.4238  0.3079  0.5066
   79SOPE  H10X 7171   4.569   2.031   5.447 -0.9924 -0.1428  1.5631
   79SOPE  H10Y 7172   4.625   1.865   5.448  2.4625 -0.5673 -0.3339
   79SOPE  C311 7173   4.770   2.014   5.372 -0.7615 -0.4353  0.0744
   79SOPE  H11X 7174   4.855   1.943   5.386  0.2518  0.5940 -0.6857
   79SOPE  H11Y 7175   4.805   2.115   5.400  1.0202 -0.5804 -1.4053
   79SOPE  C312 7176   4.722   2.015   5.218 -0.2622  0.5802 -0.1261
   79SOPE  H12X 7177   4.625   2.068   5.210 -0.2792  0.2998 -2.1736
   79SOPE  H12Y 7178   4.711   1.912   5.178 -0.1391  1.5449 -2.7946
   79SOPE  C313 7179   4.818   2.087   5.133 -0.0477 -0.7754  0.1967
   79SOPE  H13X 7180   4.917   2.037   5.139 -0.0914 -1.3090 -2.3676
   79SOPE  H13Y 7181   4.834   2.188   5.177 -0.6178 -0.6069  0.0198
   79SOPE  C314 7182   4.791   2.090   4.984  0.3046 -0.1088  0.4209
   79SOPE  H14X 7183   4.775   1.988   4.945  1.4260  0.2872 -1.1698
   79SOPE  H14Y 7184   4.884   2.116   4.929  1.2145 -2.0941  0.9310
   79SOPE  C315 7185   4.668   2.179   4.943 -0.1789  0.7161 -0.4863
   79SOPE  H15X 7186   4.662   2.272   5.004 -1.5163 -1.3398  2.8527
   79SOPE  H15Y 7187   4.574   2.126   4.971 -0.1366  1.4226  1.1093
   79SOPE  C316 7188   4.663   2.204   4.793 -0.2059  0.9736 -0.3575
   79SOPE  H16X 7189   4.570   2.263   4.775 -1.7885 -1.5015 -0.6767
   79SOPE  H16Y 7190   4.657   2.104   4.746  3.1216 -0.0404  1.0539
   79SOPE  C317 7191   4.779   2.291   4.743 -0.0463  0.0626 -0.1356
   79SOPE  H17X 7192   4.866   2.225   4.726 -1.8283 -1.5257 -4.4615
   79SOPE  H17Y 7193   4.798   2.369   4.821  0.3207  0.5221 -0.6810
   79SOPE  C318 7194   4.758   2.351   4.604 -0.2726  0.3879  0.0609
   79SOPE  H18X 7195   4.835   2.424   4.570  0.6060  0.0495  1.2766
   79SOPE  H18Y 7196   4.658   2.399   4.601  0.5731  2.1964 -0.4096
   79SOPE  H18Z 7197   4.773   2.262   4.539  1.2397  0.2770  0.5308
   80SOPE     N 7198   2.855   5.015   6.778 -0.4518  0.8125  0.1554
   80SOPE   HN1 7199   2.958   5.018   6.760 -0.1812  1.0394  1.6725
   80SOPE   HN2 7200   2.816   5.101   6.820 -2.7811 -0.6660  1.2092
   80SOPE   HN3 7201   2.833   4.943   6.850 -1.3467  1.8465  0.9368
   80SOPE   C12 7202   2.779   4.978   6.651  0.1446  0.2052 -0.6226
   80SOPE  H12A 7203   2.793   4.868   6.642  2.9236  0.3617  0.6512
   80SOPE  H12B 7204   2.839   5.034   6.576 -0.3697  0.9063 -0.5179
   80SOPE   C11 7205   2.641   5.032   6.652  0.0809  0.3948 -0.6809
   80SOPE  H11A 7206   2.589   4.992   6.562 -2.0982 -0.0808  0.7147
   80SOPE  H11B 7207   2.639   5.143   6.649  0.2846  0.3769 -1.8246
   80SOPE     P 7208   2.443   5.058   6.834  0.0098 -0.0580 -0.0634
   80SOPE   O13 7209   2.499   5.159   6.935  0.0418 -0.8555 -0.0018
   80SOPE   O14 7210   2.352   4.947   6.876 -0.4760  0.4835 -0.1354
   80SOPE   O12 7211   2.564   4.990   6.767  0.2929  0.3358  0.2413
   80SOPE   O11 7212   2.371   5.131   6.713  0.3038  0.4224 -0.5819
   80SOPE    C1 7213   2.287   5.056   6.622 -0.3705  0.1045 -0.1471
   80SOPE    HA 7214   2.179   5.079   6.632 -0.3958  0.4932 -1.1954
   80SOPE    HB 7215   2.293   4.945   6.626 -0.5198  0.0622 -0.9146
   80SOPE    C2 7216   2.319   5.090   6.471 -0.0124 -0.5909  0.5626
   80SOPE    HS 7217   2.416   5.042   6.444 -0.7773 -0.7945 -2.1619
   80SOPE   O21 7218   2.321   5.229   6.456 -0.0341  0.4436 -0.0298
   80SOPE   C21 7219   2.432   5.284   6.430  0.0314  0.4543 -0.1352
   80SOPE   O22 7220   2.542   5.234   6.419  0.0953 -0.2798  0.0536
   80SOPE   C22 7221   2.403   5.429   6.419 -0.4768 -1.2026 -0.3544
   80SOPE   H2R 7222   2.505   5.473   6.407  0.2291 -2.2800  1.3163
   80SOPE   H2S 7223   2.377   5.472   6.518  0.8025  0.3532 -0.6541
   80SOPE    C3 7224   2.215   5.023   6.376 -0.4025 -0.4369  1.1836
   80SOPE    HX 7225   2.131   5.095   6.367 -0.3161 -0.4363  0.3388
   80SOPE    HY 7226   2.180   4.930   6.427 -1.9039 -0.4631  0.1545
   80SOPE   O31 7227   2.280   5.001   6.240  0.7974  0.2837  0.0438
   80SOPE   C31 7228   2.184   4.973   6.148 -0.4649 -0.4165 -0.4170
   80SOPE   O32 7229   2.066   4.956   6.169  0.0575 -0.8314 -0.5032
   80SOPE   C32 7230   2.247   4.975   6.008 -0.3925 -0.8705 -0.3238
   80SOPE   H2X 7231   2.317   4.888   6.011  1.1173  0.2966 -0.7620
   80SOPE   H2Y 7232   2.298   5.073   5.997  1.7394 -1.7837  0.7653
   80SOPE   C23 7233   2.315   5.470   6.297  0.1904  0.0800  0.1858
   80SOPE   H3R 7234   2.277   5.570   6.327  0.6992  0.5524 -0.7091
   80SOPE   H3S 7235   2.237   5.398   6.265  1.6915 -0.9954 -1.2102
   80SOPE   C24 7236   2.402   5.513   6.166  0.9744  0.7077 -0.9736
   80SOPE   H4R 7237   2.477   5.591   6.193  3.4489 -1.7235 -0.3530
   80SOPE   H4S 7238   2.436   5.418   6.119 -1.7869 -0.9763  0.1757
   80SOPE   C25 7239   2.318   5.579   6.051  0.3890 -0.0442 -0.1095
   80SOPE   H5R 7240   2.234   5.509   6.035  0.4459 -1.1087  3.3570
   80SOPE   H5S 7241   2.273   5.674   6.089 -1.3148 -0.4688 -0.9589
   80SOPE   C26 7242   2.392   5.599   5.922  0.2949  0.9882  0.2225
   80SOPE   H6R 7243   2.483   5.663   5.926 -0.2938  1.8205  0.6417
   80SOPE   H6S 7244   2.432   5.500   5.890  2.3328  1.5530  0.8365
   80SOPE   C27 7245   2.311   5.656   5.807 -0.1440 -0.2760  0.3482
   80SOPE   H7R 7246   2.224   5.589   5.790 -0.2922 -0.0631  0.2646
   80SOPE   H7S 7247   2.262   5.751   5.836 -2.6485 -1.0480 -1.0704
   80SOPE   C28 7248   2.393   5.666   5.671  0.2930  0.3102 -0.1679
   80SOPE   H8R 7249   2.461   5.580   5.654 -0.8554 -0.4818 -0.9275
   80SOPE   H8S 7250   2.314   5.642   5.596 -0.2941 -0.7718  0.7648
   80SOPE   C29 7251   2.471   5.796   5.652 -0.6664  0.6809 -0.2499
   80SOPE   H91 7252   2.504   5.851   5.742 -2.8575 -0.6894  1.5030
   80SOPE  C210 7253   2.479   5.854   5.534  0.2384  0.2923 -0.2068
   80SOPE  H101 7254   2.524   5.954   5.526 -1.4139  1.1489  0.5415
   80SOPE  C211 7255   2.433   5.799   5.403 -0.3639  0.0953  0.2951
   80SOPE  H11R 7256   2.350   5.861   5.363  1.0653  2.4474  0.7880
   80SOPE  H11S 7257   2.411   5.690   5.410  1.9641 -0.5063 -0.8633
   80SOPE  C212 7258   2.549   5.806   5.297 -0.0049 -0.1373 -0.4867
   80SOPE  H12R 7259   2.631   5.741   5.334  0.7203  1.8128  1.5118
   80SOPE  H12S 7260   2.582   5.911   5.288 -0.8828  0.1074 -1.0060
   80SOPE  C213 7261   2.513   5.753   5.158 -0.8625  0.1545  0.0117
   80SOPE  H13R 7262   2.410   5.775   5.122 -1.1050 -0.3893  0.3625
   80SOPE  H13S 7263   2.525   5.643   5.151 -0.3339  0.2660 -0.9420
   80SOPE  C214 7264   2.615   5.813   5.048 -0.1112 -0.1184 -0.1655
   80SOPE  H14R 7265   2.718   5.797   5.085  0.0207 -0.1005 -0.5210
   80SOPE  H14S 7266   2.598   5.923   5.052 -0.9308 -0.1977 -1.0627
   80SOPE  C215 7267   2.595   5.761   4.909  0.1597  0.9534 -0.2124
   80SOPE  H15R 7268   2.492   5.792   4.878 -0.1042 -0.5045 -0.9116
   80SOPE  H15S 7269   2.577   5.652   4.920 -1.5355  1.3277  1.0816
   80SOPE  C216 7270   2.703   5.775   4.809  0.2307 -0.3834 -0.3513
   80SOPE  H16R 7271   2.771   5.687   4.813 -1.6547 -1.8863  0.2589
   80SOPE  H16S 7272   2.763   5.866   4.831  2.3273 -2.0979  1.6246
   80SOPE  C217 7273   2.648   5.789   4.667  0.4914  1.0110  0.7113
   80SOPE  H17R 7274   2.728   5.789   4.591 -1.4644  1.8455 -1.4767
   80SOPE  H17S 7275   2.603   5.889   4.651  1.0540  0.9398 -1.6266
   80SOPE  C218 7276   2.550   5.683   4.628  0.5591 -0.5057  0.0386
   80SOPE  H18R 7277   2.445   5.719   4.626  0.7060 -0.0973 -0.6231
   80SOPE  H18S 7278   2.557   5.605   4.708  1.7091  1.2570  1.7385
   80SOPE  H18T 7279   2.583   5.638   4.532  1.8427  1.5701 -0.5400
   80SOPE   C33 7280   2.143   4.966   5.894  0.3263  0.3974  1.2078
   80SOPE   H3X 7281   2.075   5.051   5.910  0.6065  0.6390  1.1240
   80SOPE   H3Y 7282   2.075   4.878   5.901  1.5908 -0.8460 -0.7917
   80SOPE   C34 7283   2.225   4.964   5.762 -0.1918  0.4420  0.3140
   80SOPE   H4X 7284   2.297   4.880   5.774 -0.4372  0.5338  3.1830
   80SOPE   H4Y 7285   2.284   5.058   5.756  2.0151 -0.7348  1.8228
   80SOPE   C35 7286   2.145   4.946   5.625  0.1478  0.2256  0.1324
   80SOPE   H5X 7287   2.065   5.023   5.620 -2.0269 -1.7291  2.5463
   80SOPE   H5Y 7288   2.096   4.847   5.613  0.1147  0.4371 -1.9324
   80SOPE   C36 7289   2.241   4.954   5.510  0.7379 -0.7705  0.3936
   80SOPE   H6X 7290   2.308   4.866   5.512 -1.1056 -2.2348  1.3966
   80SOPE   H6Y 7291   2.291   5.053   5.518  0.5172 -0.7335  1.6155
   80SOPE   C37 7292   2.161   4.939   5.380  0.0460  0.9313 -0.0230
   80SOPE   H7X 7293   2.074   5.006   5.365 -1.8297 -1.4581 -0.4553
   80SOPE   H7Y 7294   2.115   4.838   5.380 -0.5702  1.2084 -0.3894
   80SOPE   C38 7295   2.255   4.955   5.261 -0.4979  0.2293  0.2738
   80SOPE   H8X 7296   2.337   4.881   5.271  0.4365  1.3331  0.9554
   80SOPE   H8Y 7297   2.308   5.053   5.264  1.4910 -0.7741 -0.4611
   80SOPE   C39 7298   2.175   4.951   5.132 -0.5390  0.0865  0.7980
   80SOPE   H9X 7299   2.074   4.994   5.153 -0.9210  0.0393 -0.7966
   80SOPE   H9Y 7300   2.166   4.843   5.105 -0.7620 -0.0810  1.5176
   80SOPE  C310 7301   2.233   5.036   5.004 -0.2660  0.0407 -0.1626
   80SOPE  H10X 7302   2.331   4.992   4.977  0.6037  1.2852  0.8595
   80SOPE  H10Y 7303   2.250   5.138   5.044  1.0216 -0.9791  2.0809
   80SOPE  C311 7304   2.141   5.035   4.885  0.2978  0.8356  0.3625
   80SOPE  H11X 7305   2.183   5.093   4.800 -2.3184  1.6899 -0.4335
   80SOPE  H11Y 7306   2.046   5.087   4.912  0.1674  2.7295 -3.1995
   80SOPE  C312 7307   2.095   4.908   4.838 -0.5181 -0.0540  0.5792
   80SOPE  H12X 7308   2.000   4.874   4.885 -0.2228  0.9566  1.9455
   80SOPE  H12Y 7309   2.175   4.836   4.862 -0.1968  0.6045  1.5250
   80SOPE  C313 7310   2.060   4.905   4.691  0.3479 -0.2582  0.0259
   80SOPE  H13X 7311   2.154   4.897   4.634  1.2196  1.5856  1.1278
   80SOPE  H13Y 7312   2.008   5.002   4.673  1.2165 -0.0414 -1.4987
   80SOPE  C314 7313   1.982   4.783   4.632 -0.7359  0.4557 -0.7064
   80SOPE  H14X 7314   1.886   4.770   4.685 -0.4203 -1.0878 -0.4612
   80SOPE  H14Y 7315   2.028   4.684   4.651  1.1510  1.4547  0.3219
   80SOPE  C315 7316   1.938   4.802   4.480 -0.1726  0.6991 -0.3960
   80SOPE  H15X 7317   2.035   4.804   4.427  0.0479  0.6647  0.0069
   80SOPE  H15Y 7318   1.868   4.886   4.461 -1.7741 -0.8233 -1.7266
   80SOPE  C316 7319   1.854   4.683   4.418  0.3590 -0.1318 -0.0873
   80SOPE  H16X 7320   1.903   4.585   4.434  2.0458  0.5616 -0.8289
   80SOPE  H16Y 7321   1.850   4.694   4.307  0.8236 -1.1003 -0.2073
   80SOPE  C317 7322   1.710   4.670   4.479 -0.8206 -0.1662 -0.2462
   80SOPE  H17X 7323   1.634   4.744   4.447  0.4601  0.8379 -1.0501
   80SOPE  H17Y 7324   1.724   4.676   4.589 -1.0905 -0.5094 -0.1938
   80SOPE  C318 7325   1.640   4.537   4.455  0.1492 -0.1164 -0.0496
   80SOPE  H18X 7326   1.703   4.448   4.479 -2.2764 -2.4164 -1.6209
   80SOPE  H18Y 7327   1.630   4.530   4.345  2.0295 -0.6602 -0.2197
   80SOPE  H18Z 7328   1.541   4.531   4.506  0.3446  1.8330  0.6342
   81SOPE     N 7329   3.935   2.255   7.254 -0.0670 -0.2410 -0.1685
   81SOPE   HN1 7330   3.980   2.347   7.268  0.1486 -0.7414  3.6755
   81SOPE   HN2 7331   3.852   2.263   7.192  0.7440  0.8847 -1.1437
   81SOPE   HN3 7332   3.909   2.243   7.355 -0.1146  2.0729  0.1378
   81SOPE   C12 7333   4.045   2.159   7.218  0.1881 -0.5042  0.2476
   81SOPE  H12A 7334   3.992   2.061   7.210 -1.7871  0.5518 -0.2233
   81SOPE  H12B 7335   4.120   2.156   7.300  0.1211  0.5956  0.3576
   81SOPE   C11 7336   4.107   2.195   7.085  0.0236  0.1847  0.5477
   81SOPE  H11A 7337   4.201   2.137   7.073 -0.1770 -0.1247  0.4555
   81SOPE  H11B 7338   4.155   2.295   7.088 -0.1016  0.4009 -2.1718
   81SOPE     P 7339   3.976   2.061   6.902  0.1196 -0.0590 -0.1095
   81SOPE   O13 7340   3.856   2.093   6.821 -0.8236  0.1060  0.3560
   81SOPE   O14 7341   3.955   1.945   6.996 -0.2993 -0.6992  0.0189
   81SOPE   O12 7342   4.017   2.196   6.977 -0.2460  0.0128  0.4617
   81SOPE   O11 7343   4.097   2.035   6.801  0.3279 -0.7792 -0.2720
   81SOPE    C1 7344   4.168   2.156   6.760  0.2321  0.4126  0.5119
   81SOPE    HA 7345   4.241   2.171   6.842 -0.0376 -1.2023  1.0738
   81SOPE    HB 7346   4.102   2.244   6.744  0.5712  0.3229 -1.6168
   81SOPE    C2 7347   4.246   2.131   6.625  0.3039 -0.0557  0.0601
   81SOPE    HS 7348   4.272   2.231   6.586  0.5583 -0.0678  0.1986
   81SOPE   O21 7349   4.173   2.069   6.523  0.6925  0.5532  0.2555
   81SOPE   C21 7350   4.060   2.136   6.494  0.0881  0.4138  0.8252
   81SOPE   O22 7351   4.047   2.253   6.509  0.3571 -0.7702 -0.6820
   81SOPE   C22 7352   3.949   2.043   6.463  0.5047  0.4801 -0.5575
   81SOPE   H2R 7353   3.870   2.057   6.539  1.2512  1.7744  0.0192
   81SOPE   H2S 7354   3.988   1.940   6.475  1.7515  0.8403 -1.3326
   81SOPE    C3 7355   4.379   2.054   6.644  0.2072 -0.2364  0.2559
   81SOPE    HX 7356   4.353   1.946   6.641 -0.9969  0.0480 -0.2435
   81SOPE    HY 7357   4.427   2.081   6.740  1.9551  2.6477 -1.2844
   81SOPE   O31 7358   4.458   2.084   6.529  0.2706 -0.0945 -0.5819
   81SOPE   C31 7359   4.568   2.015   6.512 -0.2252  0.5499  0.2982
   81SOPE   O32 7360   4.610   1.929   6.590 -0.4616  0.5153  0.1666
   81SOPE   C32 7361   4.640   2.054   6.385  0.0240 -0.3443 -0.2601
   81SOPE   H2X 7362   4.631   2.161   6.355  0.4614 -1.0754 -3.3885
   81SOPE   H2Y 7363   4.594   2.000   6.300  1.7883 -0.3542 -1.2633
   81SOPE   C23 7364   3.904   2.054   6.313  0.2508  0.4583 -0.0379
   81SOPE   H3R 7365   3.858   2.155   6.299  0.4377  0.2922 -2.3289
   81SOPE   H3S 7366   3.824   1.982   6.286  2.3861 -1.2479 -2.3183
   81SOPE   C24 7367   4.023   2.024   6.208  0.8544  0.2253 -0.5633
   81SOPE   H4R 7368   4.116   2.083   6.220  0.2130  1.2640 -0.5778
   81SOPE   H4S 7369   4.062   1.920   6.205 -0.5127 -0.3145 -0.5056
   81SOPE   C25 7370   3.965   2.052   6.070  0.3981 -0.6175  0.5414
   81SOPE   H5R 7371   3.861   2.013   6.060  1.1310 -1.9565 -3.5434
   81SOPE   H5S 7372   3.951   2.161   6.052 -0.4773 -0.5679  1.4156
   81SOPE   C26 7373   4.064   2.015   5.959  0.6253  0.5968 -0.1109
   81SOPE   H6R 7374   4.160   2.068   5.973  2.1254 -1.9009 -0.2610
   81SOPE   H6S 7375   4.088   1.908   5.977 -1.2027  0.3467  1.0836
   81SOPE   C27 7376   4.005   2.054   5.823 -0.2378 -0.6493 -0.4701
   81SOPE   H7R 7377   3.899   2.019   5.818 -1.1955  1.6465  1.6858
   81SOPE   H7S 7378   4.003   2.165   5.819  1.8709 -0.6197 -1.9137
   81SOPE   C28 7379   4.078   2.000   5.703 -0.1533  0.5932 -0.4343
   81SOPE   H8R 7380   4.183   2.033   5.713 -0.0401  0.2323 -0.4085
   81SOPE   H8S 7381   4.068   1.889   5.710 -0.1304  0.4421 -2.3990
   81SOPE   C29 7382   4.012   2.025   5.572 -0.0603 -0.1816 -0.5775
   81SOPE   H91 7383   3.903   2.012   5.566 -0.3253  1.7243 -0.7300
   81SOPE  C210 7384   4.081   2.070   5.468 -0.2111  0.2292  0.6969
   81SOPE  H101 7385   4.026   2.074   5.373 -2.5821 -0.8195  1.9548
   81SOPE  C211 7386   4.234   2.089   5.458  0.6236  0.4213  0.7696
   81SOPE  H11R 7387   4.281   2.030   5.539  2.2298  2.3526  1.3318
   81SOPE  H11S 7388   4.269   2.192   5.481  0.5499  1.2047 -2.2597
   81SOPE  C212 7389   4.291   2.035   5.326 -1.3773  0.2369  0.1028
   81SOPE  H12R 7390   4.248   1.936   5.300  1.5486 -1.7269  2.1314
   81SOPE  H12S 7391   4.399   2.014   5.335 -1.6662 -1.1699  0.5993
   81SOPE  C213 7392   4.269   2.148   5.226  0.0156 -0.3177  0.4644
   81SOPE  H13R 7393   4.349   2.217   5.259 -0.1430 -0.9461  2.2312
   81SOPE  H13S 7394   4.166   2.189   5.232 -1.2131 -2.0736 -4.1568
   81SOPE  C214 7395   4.306   2.109   5.078  0.5491 -0.4116  0.2200
   81SOPE  H14R 7396   4.408   2.067   5.070  0.6065  0.0779 -2.1543
   81SOPE  H14S 7397   4.305   2.207   5.026  0.6500 -0.3949  0.2504
   81SOPE  C215 7398   4.208   2.019   5.004 -0.0993  0.4333 -0.4961
   81SOPE  H15R 7399   4.112   2.064   4.972 -0.4808  0.4504  0.6192
   81SOPE  H15S 7400   4.195   1.935   5.076 -1.2079  1.2931  0.3504
   81SOPE  C216 7401   4.265   1.948   4.880 -0.3285  0.0664 -0.4802
   81SOPE  H16R 7402   4.209   1.853   4.867 -0.4673 -0.1637  1.5325
   81SOPE  H16S 7403   4.365   1.906   4.905 -1.3001 -0.8016  2.2349
   81SOPE  C217 7404   4.268   2.044   4.760  1.1620 -0.7160 -0.6442
   81SOPE  H17R 7405   4.311   2.138   4.801 -1.2408  1.0545 -1.9217
   81SOPE  H17S 7406   4.165   2.058   4.722  1.5042  0.0198 -1.3362
   81SOPE  C218 7407   4.359   1.989   4.656 -0.4628  0.9004 -0.2817
   81SOPE  H18R 7408   4.366   2.050   4.564 -0.7203 -0.7810 -1.4611
   81SOPE  H18S 7409   4.314   1.896   4.615 -0.4908  0.3199  0.9794
   81SOPE  H18T 7410   4.460   1.960   4.695 -0.5123  0.3942 -0.5186
   81SOPE   C33 7411   4.789   2.006   6.389 -1.1318  0.1159  0.3914
   81SOPE   H3X 7412   4.794   1.914   6.450 -0.0417  0.2638  0.5384
   81SOPE   H3Y 7413   4.861   2.077   6.435  2.7867 -2.8399 -0.6644
   81SOPE   C34 7414   4.832   1.969   6.244  0.4870  0.0656 -0.5830
   81SOPE   H4X 7415   4.769   2.026   6.173 -0.7312  0.7014  0.9300
   81SOPE   H4Y 7416   4.800   1.863   6.235  1.1350 -0.3464  1.3992
   81SOPE   C35 7417   4.982   1.974   6.207  0.3834 -0.1021 -0.1517
   81SOPE   H5X 7418   5.030   1.912   6.286 -2.5740 -1.6913  0.5865
   81SOPE   H5Y 7419   5.014   2.080   6.211  0.1851 -0.0801  2.9227
   81SOPE   C36 7420   5.018   1.928   6.068 -0.4680  0.0724  0.1608
   81SOPE   H6X 7421   5.012   1.817   6.063 -1.6949 -0.1292  3.2730
   81SOPE   H6Y 7422   5.123   1.961   6.059 -1.1631  2.7623  0.9737
   81SOPE   C37 7423   4.932   1.999   5.970 -0.0889 -0.0352  0.7179
   81SOPE   H7X 7424   4.907   2.100   6.009 -0.4148  0.3645 -0.4699
   81SOPE   H7Y 7425   4.834   1.949   5.954  0.5113 -0.7104 -1.1066
   81SOPE   C38 7426   4.999   2.027   5.838 -0.7988 -0.1871  0.5870
   81SOPE   H8X 7427   5.075   2.105   5.859  0.9015 -1.3671 -0.9167
   81SOPE   H8Y 7428   4.921   2.082   5.782 -0.0902  1.2799  0.9983
   81SOPE   C39 7429   5.053   1.904   5.761 -0.6903 -0.1595  1.3166
   81SOPE   H9X 7430   4.980   1.821   5.772 -0.2929 -0.6278  0.5837
   81SOPE   H9Y 7431   5.146   1.869   5.811 -0.5109 -0.6316  0.6655
   81SOPE  C310 7432   5.080   1.933   5.610  0.2301 -0.1098  0.3553
   81SOPE  H10X 7433   4.992   1.985   5.567  1.6475  1.4921 -0.7616
   81SOPE  H10Y 7434   5.101   1.847   5.543 -1.5309  0.9992 -1.7241
   81SOPE  C311 7435   5.193   2.029   5.593  0.1550  0.1983  0.4651
   81SOPE  H11X 7436   5.291   1.982   5.567 -1.7585 -2.2397 -3.2031
   81SOPE  H11Y 7437   5.206   2.090   5.685 -0.3565  0.7999  0.1430
   81SOPE  C312 7438   5.165   2.136   5.479  0.0214 -0.0863  0.1561
   81SOPE  H12X 7439   5.245   2.211   5.494  0.0417  0.4266 -2.0803
   81SOPE  H12Y 7440   5.065   2.186   5.476 -0.0120 -0.1003 -2.8635
   81SOPE  C313 7441   5.180   2.072   5.340 -0.0956 -0.6878 -0.0168
   81SOPE  H13X 7442   5.089   2.010   5.326 -1.4722  1.0090  1.0420
   81SOPE  H13Y 7443   5.269   2.006   5.331  1.1791  0.8532  0.8424
   81SOPE  C314 7444   5.178   2.185   5.227  0.5895 -0.5674 -0.3446
   81SOPE  H14X 7445   5.264   2.250   5.252  0.4645 -0.4126 -0.3137
   81SOPE  H14Y 7446   5.085   2.246   5.224 -0.4989 -2.1608 -0.7455
   81SOPE  C315 7447   5.214   2.122   5.089  0.0804  0.0608 -0.0244
   81SOPE  H15X 7448   5.146   2.037   5.068 -1.5578  0.9541  1.4369
   81SOPE  H15Y 7449   5.312   2.071   5.100  0.6795  1.3890  1.0511
   81SOPE  C316 7450   5.205   2.224   4.981  0.0446  0.1752  0.4601
   81SOPE  H16X 7451   5.264   2.311   5.016 -2.0663  1.6431  0.5340
   81SOPE  H16Y 7452   5.103   2.268   4.976 -0.8463 -1.6048  1.8136
   81SOPE  C317 7453   5.263   2.185   4.844  0.6224 -0.5524 -0.4405
   81SOPE  H17X 7454   5.216   2.098   4.794  0.0048  0.0276 -0.8908
   81SOPE  H17Y 7455   5.371   2.157   4.850  1.5244  2.7674  1.5383
   81SOPE  C318 7456   5.270   2.300   4.743 -1.2287 -0.5479 -0.2110
   81SOPE  H18X 7457   5.279   2.396   4.798 -1.8318 -0.6264  0.0332
   81SOPE  H18Y 7458   5.176   2.308   4.684 -0.6753  0.6519 -0.9538
   81SOPE  H18Z 7459   5.349   2.273   4.670 -0.1891 -0.0550  0.7130
   82SOPE     N 7460   1.150   0.780   6.855 -0.7599  0.3572  0.2242
   82SOPE   HN1 7461   1.063   0.785   6.911 -1.9096 -1.3171 -1.2698
   82SOPE   HN2 7462   1.224   0.721   6.900 -1.1379  0.6716  1.2769
   82SOPE   HN3 7463   1.176   0.880   6.851  0.9169 -0.0126  0.6433
   82SOPE   C12 7464   1.117   0.727   6.718 -0.1789  0.4891 -0.3994
   82SOPE  H12A 7465   1.076   0.625   6.728 -0.9026  0.8954  0.9973
   82SOPE  H12B 7466   1.210   0.726   6.657 -0.6105 -1.0737 -1.0875
   82SOPE   C11 7467   1.013   0.821   6.646  0.9062  0.9130  0.2086
   82SOPE  H11A 7468   0.934   0.829   6.724  2.5214  1.3936  1.8703
   82SOPE  H11B 7469   0.976   0.766   6.557  2.9960 -1.3935  0.6457
   82SOPE     P 7470   0.970   1.064   6.571 -0.1712  0.3281  0.1869
   82SOPE   O13 7471   1.037   1.199   6.573  0.6039 -0.6356 -0.1754
   82SOPE   O14 7472   0.838   1.051   6.631 -0.2732  0.0245 -0.1748
   82SOPE   O12 7473   1.069   0.945   6.627  0.1297  0.4032  0.5964
   82SOPE   O11 7474   0.965   1.042   6.419  0.1996  0.0985  0.1516
   82SOPE    C1 7475   1.073   0.989   6.340  0.3000 -0.5585  0.6160
   82SOPE    HA 7476   1.040   0.939   6.247  1.4867  1.3513 -0.9074
   82SOPE    HB 7477   1.134   0.921   6.403  0.4676 -0.1097  0.9480
   82SOPE    C2 7478   1.162   1.104   6.286 -0.6439 -0.0183  0.2940
   82SOPE    HS 7479   1.217   1.150   6.371  0.5195  1.2082 -1.0656
   82SOPE   O21 7480   1.081   1.199   6.215 -0.5491  0.5240 -0.0903
   82SOPE   C21 7481   1.140   1.317   6.190 -0.0383  0.9595  0.1088
   82SOPE   O22 7482   1.244   1.356   6.235 -0.6933 -0.0655 -0.6411
   82SOPE   C22 7483   1.049   1.415   6.106 -0.1285 -0.4222  0.1361
   82SOPE   H2R 7484   1.111   1.504   6.079 -3.5915  1.8854 -0.9015
   82SOPE   H2S 7485   0.992   1.470   6.183  0.0800  0.6621 -0.4585
   82SOPE    C3 7486   1.275   1.025   6.201  0.0333 -0.6230 -0.1068
   82SOPE    HX 7487   1.326   0.950   6.265  0.4087  0.1536  0.5199
   82SOPE    HY 7488   1.356   1.094   6.169 -1.3425  0.1154 -2.1780
   82SOPE   O31 7489   1.222   0.963   6.078  0.6982 -0.2154  0.0056
   82SOPE   C31 7490   1.210   1.035   5.971 -0.2683  0.0071 -0.2240
   82SOPE   O32 7491   1.255   1.148   5.956 -0.2326  0.3512 -0.2385
   82SOPE   C32 7492   1.117   0.974   5.868  0.0292  0.5345 -0.2222
   82SOPE   H2X 7493   1.022   0.966   5.927  1.2247 -1.0515  1.6517
   82SOPE   H2Y 7494   1.148   0.868   5.853 -0.3344  0.1850  1.2498
   82SOPE   C23 7495   0.963   1.370   5.987  0.1212  0.0308 -0.7122
   82SOPE   H3R 7496   0.868   1.426   6.001 -0.8334 -1.7139 -0.0130
   82SOPE   H3S 7497   0.942   1.262   6.001  1.1095 -0.2313 -1.2006
   82SOPE   C24 7498   1.023   1.409   5.850  1.0270  0.1658 -0.3931
   82SOPE   H4R 7499   1.132   1.393   5.840  1.2854  2.0026 -0.9621
   82SOPE   H4S 7500   0.964   1.345   5.781  0.7886 -0.6600  0.5597
   82SOPE   C25 7501   1.007   1.550   5.797 -0.2890 -0.1553 -0.6950
   82SOPE   H5R 7502   0.915   1.594   5.842 -0.9030 -0.6988 -1.4039
   82SOPE   H5S 7503   1.081   1.621   5.842 -1.7742  0.2837  1.2053
   82SOPE   C26 7504   1.012   1.566   5.642 -0.3257  0.5897 -0.7658
   82SOPE   H6R 7505   1.109   1.522   5.608  0.8527  2.9066 -0.6131
   82SOPE   H6S 7506   0.931   1.503   5.601  2.0823 -2.0196 -1.9068
   82SOPE   C27 7507   1.021   1.712   5.601  0.8255 -0.2989  0.4552
   82SOPE   H7R 7508   0.937   1.767   5.649  2.7899  2.5344  0.8801
   82SOPE   H7S 7509   1.110   1.759   5.648  0.0896  1.3829  0.2589
   82SOPE   C28 7510   1.022   1.721   5.442  0.7520  0.3396 -0.0526
   82SOPE   H8R 7511   0.923   1.695   5.399  1.2305 -1.4529 -0.1967
   82SOPE   H8S 7512   1.047   1.826   5.416  0.1168  0.4960 -0.0414
   82SOPE   C29 7513   1.122   1.647   5.372  0.0079 -0.5509 -0.3820
   82SOPE   H91 7514   1.099   1.540   5.371  0.3861 -0.6783  1.3953
   82SOPE  C210 7515   1.236   1.683   5.314 -0.3120  0.3953  1.0302
   82SOPE  H101 7516   1.298   1.604   5.268  0.9706  0.7256  2.1081
   82SOPE  C211 7517   1.296   1.820   5.304 -0.4909 -0.2774  0.0209
   82SOPE  H11R 7518   1.403   1.793   5.317  0.4826  3.2652  0.5078
   82SOPE  H11S 7519   1.266   1.878   5.394  0.6989  1.0066 -0.3689
   82SOPE  C212 7520   1.283   1.903   5.176  0.1124 -0.8469  0.5974
   82SOPE  H12R 7521   1.312   2.010   5.184  3.0512 -1.4683 -0.3420
   82SOPE  H12S 7522   1.180   1.900   5.134  0.1681 -1.6643  0.5008
   82SOPE  C213 7523   1.377   1.840   5.074  0.1749  0.8278  1.4308
   82SOPE  H13R 7524   1.355   1.731   5.068  0.4538  0.8389 -0.4623
   82SOPE  H13S 7525   1.484   1.848   5.101  1.4296 -0.3640 -2.4628
   82SOPE  C214 7526   1.359   1.894   4.934 -0.3272 -0.1762 -0.4282
   82SOPE  H14R 7527   1.383   2.002   4.932  1.1598 -0.4458 -3.6712
   82SOPE  H14S 7528   1.251   1.881   4.913 -0.3670 -1.1655  0.3461
   82SOPE  C215 7529   1.441   1.822   4.829 -0.4072 -0.2964 -0.0900
   82SOPE  H15R 7530   1.404   1.718   4.838  0.5589 -0.4813  2.8486
   82SOPE  H15S 7531   1.547   1.830   4.861 -0.4708  1.7058 -0.2313
   82SOPE  C216 7532   1.423   1.885   4.690 -0.1610  0.9383 -0.9022
   82SOPE  H16R 7533   1.479   1.980   4.682 -0.2023  0.9706 -0.8024
   82SOPE  H16S 7534   1.314   1.905   4.675 -1.0515 -2.1246  0.6477
   82SOPE  C217 7535   1.472   1.781   4.590  0.8040  0.1363 -0.1264
   82SOPE  H17R 7536   1.461   1.822   4.487  0.5644 -2.6939 -1.3336
   82SOPE  H17S 7537   1.411   1.689   4.599  1.5481 -0.5979 -1.9926
   82SOPE  C218 7538   1.613   1.722   4.605  0.0491  0.0406 -0.9028
   82SOPE  H18R 7539   1.685   1.802   4.582  0.9042 -0.3780  0.2106
   82SOPE  H18S 7540   1.636   1.632   4.545  1.6730  0.8239 -1.5123
   82SOPE  H18T 7541   1.625   1.684   4.709 -1.0877  0.9879 -0.3960
   82SOPE   C33 7542   1.099   1.057   5.737  0.0345 -0.4385 -0.7515
   82SOPE   H3X 7543   1.067   1.161   5.758  2.9657  0.4186 -0.0213
   82SOPE   H3Y 7544   1.018   1.010   5.678 -1.7934  0.0860  1.2075
   82SOPE   C34 7545   1.221   1.059   5.640 -0.0421  0.1691  0.2644
   82SOPE   H4X 7546   1.210   0.967   5.578  1.2487  1.6305 -2.2834
   82SOPE   H4Y 7547   1.316   1.049   5.696  1.4910 -1.7635 -2.3998
   82SOPE   C35 7548   1.213   1.178   5.550 -0.3714 -0.1933 -0.4531
   82SOPE   H5X 7549   1.251   1.268   5.603 -0.4256  1.6116 -3.2652
   82SOPE   H5Y 7550   1.110   1.207   5.520 -0.4604 -0.4206 -0.3720
   82SOPE   C36 7551   1.287   1.156   5.414 -0.1098  0.0937 -0.7872
   82SOPE   H6X 7552   1.232   1.070   5.369  0.2388 -0.4414 -0.2082
   82SOPE   H6Y 7553   1.391   1.120   5.430  0.1460  1.6774  1.3882
   82SOPE   C37 7554   1.286   1.275   5.319  0.3466 -0.3942  0.0851
   82SOPE   H7X 7555   1.353   1.356   5.354 -2.5891  1.8319  0.9898
   82SOPE   H7Y 7556   1.187   1.325   5.320  0.4426 -0.2044  0.8386
   82SOPE   C38 7557   1.316   1.232   5.182 -0.3011  0.3048  0.5173
   82SOPE   H8X 7558   1.236   1.161   5.154 -1.9217  1.0391  2.9666
   82SOPE   H8Y 7559   1.419   1.189   5.182 -0.8799 -1.1306  1.1051
   82SOPE   C39 7560   1.316   1.344   5.074 -0.9804  0.6240 -0.6451
   82SOPE   H9X 7561   1.371   1.307   4.985 -0.2513 -2.1651  0.8422
   82SOPE   H9Y 7562   1.365   1.442   5.095 -1.5785  1.3068 -2.3264
   82SOPE  C310 7563   1.184   1.375   5.008 -1.3272 -0.4874  0.2274
   82SOPE  H10X 7564   1.104   1.361   5.084 -0.9190  0.0409  0.7616
   82SOPE  H10Y 7565   1.161   1.293   4.937 -1.7806 -0.4180  0.2874
   82SOPE  C311 7566   1.184   1.517   4.939 -0.0734  0.2490 -0.0751
   82SOPE  H11X 7567   1.259   1.520   4.857 -0.9556  0.9265 -0.8761
   82SOPE  H11Y 7568   1.204   1.594   5.017 -1.7350  0.9845 -0.3389
   82SOPE  C312 7569   1.054   1.551   4.863  0.4203  0.4912  0.3265
   82SOPE  H12X 7570   0.980   1.535   4.944  0.1832 -3.4754 -0.4602
   82SOPE  H12Y 7571   1.032   1.480   4.780  1.5146  1.2034 -0.6082
   82SOPE  C313 7572   1.066   1.698   4.809 -0.3953  0.3001 -0.2952
   82SOPE  H13X 7573   1.150   1.696   4.737  0.2467 -1.3261  0.4565
   82SOPE  H13Y 7574   1.090   1.769   4.891 -0.8223 -1.3889  1.3568
   82SOPE  C314 7575   0.936   1.743   4.736 -0.3335  0.2492 -0.3177
   82SOPE  H14X 7576   0.868   1.756   4.823  0.7149  0.4968  0.4855
   82SOPE  H14Y 7577   0.904   1.661   4.669 -0.3566  0.8036 -1.0011
   82SOPE  C315 7578   0.956   1.876   4.653  0.8087 -0.8644 -0.6778
   82SOPE  H15X 7579   1.044   1.856   4.588  0.6851  0.6322 -1.3317
   82SOPE  H15Y 7580   0.977   1.957   4.727  3.0223 -2.0584  0.0984
   82SOPE  C316 7581   0.831   1.900   4.563  0.1179 -0.1022 -0.1453
   82SOPE  H16X 7582   0.826   1.835   4.473 -1.4786 -1.1086  0.6112
   82SOPE  H16Y 7583   0.855   1.997   4.516  1.9718 -1.3436 -1.9653
   82SOPE  C317 7584   0.693   1.878   4.627  0.4527 -0.4700  0.7080
   82SOPE  H17X 7585   0.682   1.784   4.685  2.0443 -0.4533  1.0722
   82SOPE  H17Y 7586   0.624   1.874   4.540  2.6851  0.9272 -1.2500
   82SOPE  C318 7587   0.645   1.994   4.707 -0.0443 -0.0480  0.1162
   82SOPE  H18X 7588   0.652   2.086   4.644  1.6176 -0.2126  0.0145
   82SOPE  H18Y 7589   0.725   1.994   4.784  0.2423 -1.3100 -0.1608
   82SOPE  H18Z 7590   0.538   1.991   4.738 -0.3025  0.0341 -0.7399
   83SOPE     N 7591   1.497   2.856   1.998  0.2731 -0.1782  0.0883
   83SOPE   HN1 7592   1.511   2.957   1.975  1.3556 -0.8072 -2.3248
   83SOPE   HN2 7593   1.592   2.816   2.010  0.8485  1.2991  0.6933
   83SOPE   HN3 7594   1.448   2.810   1.919  1.7223 -2.2220  0.2999
   83SOPE   C12 7595   1.421   2.820   2.128 -0.1720  0.2247  0.2933
   83SOPE  H12A 7596   1.460   2.720   2.155  1.0818  0.7421  0.4913
   83SOPE  H12B 7597   1.314   2.817   2.100  0.2255  1.2368 -1.5146
   83SOPE   C11 7598   1.454   2.912   2.242  0.4070  0.0152 -0.0200
   83SOPE  H11A 7599   1.565   2.905   2.255  0.7848  0.9201 -2.3210
   83SOPE  H11B 7600   1.406   2.878   2.336 -1.9356  0.7937 -0.8765
   83SOPE     P 7601   1.443   3.156   2.305  0.0848 -0.0668 -0.1056
   83SOPE   O13 7602   1.348   3.265   2.271 -0.6138  0.5131  0.1651
   83SOPE   O14 7603   1.591   3.176   2.302 -0.2819 -0.1246  0.3135
   83SOPE   O12 7604   1.404   3.037   2.218 -0.7756 -0.2959 -0.0482
   83SOPE   O11 7605   1.402   3.090   2.445  0.3868 -0.4601 -0.1542
   83SOPE    C1 7606   1.276   3.124   2.498 -0.1650 -0.1574 -0.3354
   83SOPE    HA 7607   1.194   3.097   2.428 -0.1904  2.5699 -1.4628
   83SOPE    HB 7608   1.258   3.233   2.506 -2.0273 -0.4425 -0.1715
   83SOPE    C2 7609   1.250   3.075   2.641  0.8054  0.5657  1.0968
   83SOPE    HS 7610   1.140   3.091   2.653  0.5936 -1.3629  2.2241
   83SOPE   O21 7611   1.326   3.148   2.738 -0.2712 -0.0694  0.1439
   83SOPE   C21 7612   1.288   3.271   2.763 -0.1999  0.7642  0.6370
   83SOPE   O22 7613   1.190   3.330   2.724 -0.3591 -0.3122 -0.5106
   83SOPE   C22 7614   1.377   3.324   2.874  0.4103 -0.5024  0.9185
   83SOPE   H2R 7615   1.395   3.430   2.846 -1.9346 -0.0653  0.8506
   83SOPE   H2S 7616   1.479   3.280   2.874 -0.0735 -1.7175  2.3500
   83SOPE    C3 7617   1.276   2.922   2.645  0.1735  0.0085 -0.1899
   83SOPE    HX 7618   1.371   2.899   2.591 -0.6234 -0.4352 -1.4373
   83SOPE    HY 7619   1.204   2.877   2.573  0.0069  0.1725 -0.1270
   83SOPE   O31 7620   1.250   2.868   2.777 -0.0155 -0.8329  0.4372
   83SOPE   C31 7621   1.353   2.863   2.864 -0.1437  0.3719  0.9813
   83SOPE   O32 7622   1.465   2.896   2.839 -0.0161 -0.3392 -0.5495
   83SOPE   C32 7623   1.297   2.824   3.003 -0.4147 -0.4518 -0.1741
   83SOPE   H2X 7624   1.275   2.715   3.005 -0.6767 -0.4386 -1.4615
   83SOPE   H2Y 7625   1.210   2.890   3.026  0.4451  0.9755 -0.8739
   83SOPE   C23 7626   1.296   3.319   3.005 -0.1169 -0.3488  0.2931
   83SOPE   H3R 7627   1.258   3.216   3.016 -0.5987 -0.4880 -2.1106
   83SOPE   H3S 7628   1.208   3.387   3.008  0.7973  0.8964  0.0330
   83SOPE   C24 7629   1.386   3.348   3.132 -0.1984  0.4260  0.4641
   83SOPE   H4R 7630   1.469   3.276   3.115  0.4929  1.5752 -1.3134
   83SOPE   H4S 7631   1.420   3.452   3.117 -1.4718  1.4639  3.8674
   83SOPE   C25 7632   1.308   3.329   3.261 -0.4661 -0.3075  0.3356
   83SOPE   H5R 7633   1.223   3.401   3.264  1.7125  2.3847  1.8976
   83SOPE   H5S 7634   1.254   3.232   3.252 -0.8977 -0.0004 -0.4526
   83SOPE   C26 7635   1.386   3.345   3.389  0.5459 -0.0895 -0.0906
   83SOPE   H6R 7636   1.456   3.263   3.416  1.3776  1.2516  2.1184
   83SOPE   H6S 7637   1.449   3.436   3.382 -0.7235  0.9192  1.0222
   83SOPE   C27 7638   1.288   3.358   3.504 -0.4682 -0.0076 -0.5930
   83SOPE   H7R 7639   1.268   3.467   3.519 -0.8794 -0.0363 -0.9362
   83SOPE   H7S 7640   1.191   3.307   3.487 -0.3126 -1.0871  1.4925
   83SOPE   C28 7641   1.343   3.302   3.636  0.0899  0.3265  0.0393
   83SOPE   H8R 7642   1.454   3.309   3.642  0.0535 -0.0462  1.6994
   83SOPE   H8S 7643   1.300   3.354   3.724 -0.1292 -1.8102  1.2644
   83SOPE   C29 7644   1.311   3.156   3.658  0.3634  0.5730 -0.6751
   83SOPE   H91 7645   1.320   3.087   3.573 -0.8014 -0.3174 -0.1142
   83SOPE  C210 7646   1.287   3.095   3.779  0.7918 -0.0300  0.2918
   83SOPE  H101 7647   1.257   2.989   3.776  0.6770  0.0186 -0.4473
   83SOPE  C211 7648   1.267   3.154   3.915  0.0295  0.9058  0.2097
   83SOPE  H11R 7649   1.229   3.258   3.906 -1.8159  0.2998  0.4777
   83SOPE  H11S 7650   1.364   3.145   3.968  0.2720 -2.9367 -0.5952
   83SOPE  C212 7651   1.165   3.073   4.001 -0.2818 -0.1699 -0.3540
   83SOPE  H12R 7652   1.196   3.094   4.106  0.3495 -0.2137 -0.5250
   83SOPE  H12S 7653   1.180   2.964   3.990 -0.4569  0.0121 -3.0247
   83SOPE  C213 7654   1.014   3.108   3.991 -1.1279  0.3731 -0.5170
   83SOPE  H13R 7655   0.970   3.070   3.896 -0.1832  0.7760 -1.1323
   83SOPE  H13S 7656   1.003   3.217   4.010 -1.2778  0.1789  0.5796
   83SOPE  C214 7657   0.930   3.036   4.100  0.4876  0.5465 -0.9235
   83SOPE  H14R 7658   0.962   2.930   4.090  0.8641  0.5314  0.2965
   83SOPE  H14S 7659   0.825   3.041   4.064  0.2362 -0.9515 -0.4709
   83SOPE  C215 7660   0.960   3.083   4.244 -0.0530 -0.4703  0.2394
   83SOPE  H15R 7661   0.934   3.191   4.244  0.3434 -0.3755  0.4249
   83SOPE  H15S 7662   1.067   3.074   4.269 -0.2223  2.0600  2.2682
   83SOPE  C216 7663   0.882   2.996   4.342 -0.5486 -1.3361  0.0149
   83SOPE  H16R 7664   0.775   2.996   4.310 -0.3865 -1.1726 -0.5484
   83SOPE  H16S 7665   0.897   3.048   4.439 -2.4815  1.1377 -0.8767
   83SOPE  C217 7666   0.932   2.854   4.344 -0.2997  0.0302  0.0254
   83SOPE  H17R 7667   1.038   2.864   4.376 -0.4055 -0.3832  0.5055
   83SOPE  H17S 7668   0.942   2.808   4.244  2.1463 -1.6316  0.9503
   83SOPE  C218 7669   0.868   2.762   4.447 -0.2581 -0.3652  0.1101
   83SOPE  H18R 7670   0.911   2.661   4.433  1.4600  0.2800  0.4073
   83SOPE  H18S 7671   0.760   2.762   4.422 -0.4891  1.8421  0.8543
   83SOPE  H18T 7672   0.871   2.791   4.555 -1.7615  0.2321  0.0170
   83SOPE   C33 7673   1.401   2.853   3.113 -0.3512 -0.3139  0.2171
   83SOPE   H3X 7674   1.454   2.946   3.086 -2.9186  1.6850  1.6169
   83SOPE   H3Y 7675   1.478   2.772   3.114  0.5469  0.5091 -0.3239
   83SOPE   C34 7676   1.343   2.867   3.254  0.2527 -0.2356  0.0265
   83SOPE   H4X 7677   1.263   2.944   3.249  1.9682  1.5425 -1.7065
   83SOPE   H4Y 7678   1.413   2.913   3.327  1.3230 -1.8117  0.0608
   83SOPE   C35 7679   1.292   2.735   3.309  0.0489  0.3439 -1.0273
   83SOPE   H5X 7680   1.367   2.657   3.334  0.0422  1.3374  2.5830
   83SOPE   H5Y 7681   1.219   2.691   3.237 -0.8486 -1.0200  0.6331
   83SOPE   C36 7682   1.226   2.750   3.444 -0.2937  0.5947  0.3225
   83SOPE   H6X 7683   1.280   2.815   3.517  0.6137 -1.4646  1.5705
   83SOPE   H6Y 7684   1.222   2.652   3.496  4.8475  0.3151  0.7059
   83SOPE   C37 7685   1.084   2.795   3.440 -0.6519  0.0865  0.5032
   83SOPE   H7X 7686   1.025   2.717   3.387  0.6927 -0.8450  0.3216
   83SOPE   H7Y 7687   1.076   2.890   3.383 -0.2362 -0.3907 -0.3798
   83SOPE   C38 7688   1.025   2.824   3.578 -0.1674 -0.6505 -0.4808
   83SOPE   H8X 7689   0.916   2.828   3.560 -0.4828 -1.1984  1.1064
   83SOPE   H8Y 7690   1.059   2.926   3.608 -0.9754 -0.7599  0.9176
   83SOPE   C39 7691   1.054   2.713   3.685  0.0108  0.4668  0.4496
   83SOPE   H9X 7692   1.156   2.716   3.728  0.6728  1.2061 -1.0643
   83SOPE   H9Y 7693   1.044   2.615   3.635 -1.3397 -0.0240  1.6227
   83SOPE  C310 7694   0.952   2.706   3.795  0.1550 -0.2359  0.0164
   83SOPE  H10X 7695   0.856   2.700   3.739 -1.2836 -1.1241  2.4263
   83SOPE  H10Y 7696   0.945   2.798   3.857 -0.8419  0.0172 -0.4398
   83SOPE  C311 7697   0.969   2.579   3.876 -0.0282 -0.6238  0.3743
   83SOPE  H11X 7698   0.940   2.491   3.815 -1.8761 -1.1384  1.9021
   83SOPE  H11Y 7699   0.897   2.580   3.960 -1.4645  0.9024 -0.8047
   83SOPE  C312 7700   1.117   2.544   3.932 -0.5602 -0.6398 -0.0920
   83SOPE  H12X 7701   1.193   2.554   3.851  2.1403  0.7402  2.4386
   83SOPE  H12Y 7702   1.119   2.436   3.959  2.5169 -0.2164  1.8571
   83SOPE  C313 7703   1.154   2.635   4.043  0.0978 -0.8597 -0.4193
   83SOPE  H13X 7704   1.106   2.731   4.012  0.1312 -0.7676 -0.1830
   83SOPE  H13Y 7705   1.265   2.642   4.045  0.0468  0.1505 -0.5289
   83SOPE  C314 7706   1.111   2.580   4.176  0.2467 -0.3061  0.0203
   83SOPE  H14X 7707   1.001   2.567   4.181  0.4140 -1.9223 -0.1136
   83SOPE  H14Y 7708   1.130   2.656   4.255  0.8504 -0.3625 -0.0694
   83SOPE  C315 7709   1.172   2.448   4.214 -0.7302 -0.0271 -0.8610
   83SOPE  H15X 7710   1.280   2.470   4.227 -0.4167 -1.0846 -1.5283
   83SOPE  H15Y 7711   1.162   2.374   4.132 -0.9166 -1.9911  0.8567
   83SOPE  C316 7712   1.117   2.395   4.345 -0.7685 -0.0961  0.6854
   83SOPE  H16X 7713   1.125   2.478   4.418  0.9349 -0.7767  1.3254
   83SOPE  H16Y 7714   1.189   2.315   4.373  0.1912  1.2173  2.1563
   83SOPE  C317 7715   0.977   2.348   4.333  0.2056 -0.1709  0.3366
   83SOPE  H17X 7716   0.908   2.435   4.330  2.4202  1.6829  0.5659
   83SOPE  H17Y 7717   0.934   2.303   4.425  0.3332 -0.1944  0.3836
   83SOPE  C318 7718   0.952   2.250   4.215  0.1754  0.5579  0.0868
   83SOPE  H18X 7719   0.863   2.188   4.235 -1.1526  2.9054  1.9797
   83SOPE  H18Y 7720   1.038   2.179   4.210  0.0930  0.4952 -0.4622
   83SOPE  H18Z 7721   0.948   2.305   4.118  0.4741 -0.6970 -0.6618
   84SOPE     N 7722   6.486   0.509   2.763 -0.4321 -0.2843  0.5728
   84SOPE   HN1 7723   6.465   0.605   2.798 -3.2502  0.2912 -2.1987
   84SOPE   HN2 7724   6.465   0.429   2.825 -0.1778 -0.6144  0.2397
   84SOPE   HN3 7725   6.579   0.511   2.715 -0.9178  3.7779 -0.5811
   84SOPE   C12 7726   6.384   0.502   2.649  0.4457  0.2615  0.4940
   84SOPE  H12A 7727   6.283   0.507   2.695  0.8853  2.7874  1.3149
   84SOPE  H12B 7728   6.397   0.403   2.600  1.1484  0.4842  0.2110
   84SOPE   C11 7729   6.398   0.612   2.546 -0.5471  0.0985 -0.6514
   84SOPE  H11A 7730   6.306   0.604   2.484 -1.1755 -0.6140  0.3419
   84SOPE  H11B 7731   6.474   0.579   2.473  2.5035 -3.0301  3.4471
   84SOPE     P 7732   6.319   0.862   2.592 -0.2681  0.3785 -0.0306
   84SOPE   O13 7733   6.206   0.834   2.679  1.0993 -0.1460 -0.7378
   84SOPE   O14 7734   6.292   0.915   2.459 -0.3017  0.4809  0.1342
   84SOPE   O12 7735   6.422   0.742   2.597 -0.5065  0.0584 -0.2529
   84SOPE   O11 7736   6.405   0.981   2.656  0.6008 -0.5289 -0.4482
   84SOPE    C1 7737   6.552   0.990   2.656  0.6704  0.3120  0.1498
   84SOPE    HA 7738   6.584   1.096   2.650  0.1090  0.4352 -0.7259
   84SOPE    HB 7739   6.603   0.952   2.565 -1.5363 -2.0598 -0.2077
   84SOPE    C2 7740   6.612   0.920   2.782 -0.1626 -0.1486  0.0388
   84SOPE    HS 7741   6.598   0.812   2.762  1.1500 -0.7086  1.8605
   84SOPE   O21 7742   6.540   0.964   2.900 -0.2222 -0.1643  0.0018
   84SOPE   C21 7743   6.465   0.870   2.960  0.3464 -0.4293 -0.2993
   84SOPE   O22 7744   6.438   0.764   2.913 -0.4319  0.2603  0.0656
   84SOPE   C22 7745   6.427   0.908   3.110  0.2751 -0.0285 -0.1005
   84SOPE   H2R 7746   6.316   0.907   3.120  0.2933  1.2729  0.4120
   84SOPE   H2S 7747   6.454   1.014   3.130 -0.1101  0.4345 -1.8443
   84SOPE    C3 7748   6.761   0.953   2.799  0.0388 -0.6298  0.2494
   84SOPE    HX 7749   6.771   1.055   2.841  0.3087 -0.5572  0.0088
   84SOPE    HY 7750   6.806   0.957   2.698 -2.9897 -2.4098 -1.3140
   84SOPE   O31 7751   6.805   0.853   2.888  0.5647 -0.2555  0.2140
   84SOPE   C31 7752   6.868   0.751   2.837  0.5982  0.4213 -0.0713
   84SOPE   O32 7753   6.907   0.738   2.720 -0.0808  0.3671 -0.4553
   84SOPE   C32 7754   6.895   0.650   2.951  0.3679  1.1582  0.3056
   84SOPE   H2X 7755   7.005   0.645   2.960  0.3968 -0.8559 -0.6420
   84SOPE   H2Y 7756   6.863   0.551   2.913  0.7418  1.7104 -1.5190
   84SOPE   C23 7757   6.508   0.811   3.199  0.3001 -0.6015 -0.7003
   84SOPE   H3R 7758   6.619   0.818   3.203  0.2117  2.6585 -0.8420
   84SOPE   H3S 7759   6.488   0.705   3.171 -0.7273 -0.5580 -0.1851
   84SOPE   C24 7760   6.462   0.844   3.348  0.0242 -0.6334  0.7583
   84SOPE   H4R 7761   6.454   0.953   3.371 -0.8406 -0.4207 -0.4732
   84SOPE   H4S 7762   6.357   0.808   3.345  0.1489 -0.9307 -0.2150
   84SOPE   C25 7763   6.547   0.775   3.461 -0.4969 -0.5705 -0.4902
   84SOPE   H5R 7764   6.536   0.665   3.447 -3.0319 -0.3498 -0.6508
   84SOPE   H5S 7765   6.651   0.803   3.434 -0.6214  0.3453 -0.0352
   84SOPE   C26 7766   6.526   0.808   3.607  0.9211 -0.3527 -0.2356
   84SOPE   H6R 7767   6.551   0.912   3.634 -0.4977  0.0188 -0.2755
   84SOPE   H6S 7768   6.422   0.790   3.642  0.0883  1.7956 -1.4252
   84SOPE   C27 7769   6.598   0.720   3.703 -0.1345 -0.5070 -0.2843
   84SOPE   H7R 7770   6.581   0.611   3.692  1.2694 -0.7199 -0.5184
   84SOPE   H7S 7771   6.696   0.729   3.653 -0.3477  0.0373 -0.6177
   84SOPE   C28 7772   6.601   0.767   3.851  0.7094 -0.2138 -0.3054
   84SOPE   H8R 7773   6.630   0.875   3.850  0.5881 -0.1810 -1.5335
   84SOPE   H8S 7774   6.498   0.768   3.893 -0.2730  1.6405 -2.5421
   84SOPE   C29 7775   6.699   0.686   3.938  0.5827  0.1960  0.3235
   84SOPE   H91 7776   6.798   0.734   3.942  1.7422 -1.9747 -0.3198
   84SOPE  C210 7777   6.673   0.582   4.023 -0.3117 -0.7509 -0.2483
   84SOPE  H101 7778   6.746   0.520   4.078  0.1316 -1.4145 -1.5387
   84SOPE  C211 7779   6.530   0.530   4.034 -0.0989  0.3144 -0.5009
   84SOPE  H11R 7780   6.514   0.441   3.969  1.0539 -0.5123  0.3025
   84SOPE  H11S 7781   6.451   0.608   4.022 -1.5877 -0.8666  0.9478
   84SOPE  C212 7782   6.508   0.462   4.174  0.3539 -0.3893 -0.5679
   84SOPE  H12R 7783   6.528   0.527   4.263 -0.9285  0.6626 -1.0168
   84SOPE  H12S 7784   6.576   0.376   4.189  3.5873  2.2234  1.3065
   84SOPE  C213 7785   6.362   0.426   4.172 -0.5783  0.0823 -0.5518
   84SOPE  H13R 7786   6.340   0.363   4.083  1.3474  0.2078 -1.1495
   84SOPE  H13S 7787   6.296   0.515   4.169 -0.8000  0.0208  1.1111
   84SOPE  C214 7788   6.302   0.368   4.303 -0.1934 -0.3694  0.3578
   84SOPE  H14R 7789   6.195   0.345   4.280  0.5628 -2.4223 -1.3563
   84SOPE  H14S 7790   6.302   0.452   4.376 -1.5277  1.7001 -1.8391
   84SOPE  C215 7791   6.374   0.246   4.357 -0.4374 -0.9896 -0.2903
   84SOPE  H15R 7792   6.472   0.277   4.399 -0.2051  0.4550 -1.7619
   84SOPE  H15S 7793   6.400   0.183   4.270 -0.3508 -0.5462 -0.5912
   84SOPE  C216 7794   6.295   0.176   4.463 -0.1038  0.3288  0.0278
   84SOPE  H16R 7795   6.265   0.243   4.547 -0.7013  0.6752 -0.4455
   84SOPE  H16S 7796   6.366   0.106   4.511  2.5403 -0.2414 -4.2023
   84SOPE  C217 7797   6.169   0.104   4.411  0.2388  0.4508  0.1715
   84SOPE  H17R 7798   6.185   0.013   4.349  0.7410 -0.5623  1.7125
   84SOPE  H17S 7799   6.106   0.180   4.360 -0.4539  0.7630  1.4328
   84SOPE  C218 7800   6.065   0.060   4.522  0.7144  0.1157 -0.2136
   84SOPE  H18R 7801   6.028   0.143   4.586  0.8276 -0.2692  0.3631
   84SOPE  H18S 7802   6.111  -0.013   4.592  2.7308  1.1051 -0.4301
   84SOPE  H18T 7803   5.976   0.023   4.469  0.7593 -0.2232 -0.0528
   84SOPE   C33 7804   6.845   0.689   3.093  0.3232 -0.3388  0.1139
   84SOPE   H3X 7805   6.735   0.674   3.090  0.2217  0.4502 -0.5091
   84SOPE   H3Y 7806   6.872   0.791   3.127  1.1563 -0.6324  0.3479
   84SOPE   C34 7807   6.898   0.587   3.195  0.4624  0.7886 -0.1652
   84SOPE   H4X 7808   7.009   0.593   3.201  0.4278  0.5974  0.7837
   84SOPE   H4Y 7809   6.873   0.481   3.176 -1.1495  0.9741  0.7527
   84SOPE   C35 7810   6.844   0.611   3.331  0.1536 -0.8774 -0.0976
   84SOPE   H5X 7811   6.735   0.597   3.343 -0.0623 -0.6974 -1.6446
   84SOPE   H5Y 7812   6.874   0.707   3.379 -0.5183 -1.1513  0.9062
   84SOPE   C36 7813   6.903   0.508   3.433  0.0468 -0.4393  0.1110
   84SOPE   H6X 7814   7.013   0.514   3.418 -0.2379 -0.9556 -2.7838
   84SOPE   H6Y 7815   6.877   0.401   3.418  0.6202 -0.9583  2.4191
   84SOPE   C37 7816   6.876   0.529   3.583 -0.1254  0.4938  0.2023
   84SOPE   H7X 7817   6.773   0.491   3.595  0.9456 -2.9753 -0.3807
   84SOPE   H7Y 7818   6.901   0.629   3.627 -0.0320  0.3400  0.5019
   84SOPE   C38 7819   6.969   0.444   3.662  0.0019  0.2996 -0.2337
   84SOPE   H8X 7820   7.077   0.468   3.664 -0.1501  0.9655  1.0680
   84SOPE   H8Y 7821   6.975   0.346   3.610  1.7706 -1.2854  2.6638
   84SOPE   C39 7822   6.919   0.412   3.805 -0.5641  0.3905  0.1042
   84SOPE   H9X 7823   6.815   0.375   3.791 -0.1241 -1.4011  1.2519
   84SOPE   H9Y 7824   6.917   0.503   3.868 -0.7195 -1.0331  2.2820
   84SOPE  C310 7825   7.000   0.293   3.862  0.9020 -0.4473  0.2693
   84SOPE  H10X 7826   7.106   0.324   3.861  0.4398  1.2315 -0.3802
   84SOPE  H10Y 7827   6.979   0.195   3.816 -1.6835 -0.0290  0.3768
   84SOPE  C311 7828   6.954   0.278   4.013 -0.3458 -0.0652  0.2716
   84SOPE  H11X 7829   6.846   0.252   4.010 -1.0762  2.7269 -0.6046
   84SOPE  H11Y 7830   6.975   0.379   4.054 -3.0842  0.2404  1.1289
   84SOPE  C312 7831   7.041   0.170   4.078  0.3038  0.1709 -0.2862
   84SOPE  H12X 7832   7.149   0.186   4.057 -0.0533  1.2598 -1.4219
   84SOPE  H12Y 7833   7.012   0.071   4.036  0.7161 -1.0637  2.1621
   84SOPE  C313 7834   7.025   0.164   4.237  0.4015  0.0288  0.1545
   84SOPE  H13X 7835   7.088   0.081   4.275  0.4720  0.1530  0.3077
   84SOPE  H13Y 7836   6.919   0.151   4.267  0.8229 -1.9840  0.8829
   84SOPE  C314 7837   7.074   0.286   4.311 -0.0188 -0.4757  0.1121
   84SOPE  H14X 7838   7.150   0.339   4.250 -1.7096  2.0169  0.0141
   84SOPE  H14Y 7839   7.113   0.249   4.408 -1.2782 -1.9045  0.1165
   84SOPE  C315 7840   6.960   0.387   4.353 -0.1041 -0.6616 -0.3512
   84SOPE  H15X 7841   6.866   0.335   4.379 -0.5945  0.1796 -0.4159
   84SOPE  H15Y 7842   6.944   0.447   4.261  0.9960 -0.1523 -0.2313
   84SOPE  C316 7843   6.994   0.491   4.458  0.2602 -0.2828  0.2915
   84SOPE  H16X 7844   6.905   0.551   4.483 -0.2669 -1.3601  1.0759
   84SOPE  H16Y 7845   7.067   0.556   4.405 -1.2687 -0.6237 -2.4101
   84SOPE  C317 7846   7.059   0.449   4.589 -0.4123 -0.2631  0.0411
   84SOPE  H17X 7847   7.146   0.383   4.570 -1.8639 -1.4252 -3.3063
   84SOPE  H17Y 7848   6.981   0.387   4.638 -2.1326  0.8759 -1.1639
   84SOPE  C318 7849   7.083   0.576   4.670  0.0118 -0.4813 -0.5695
   84SOPE  H18X 7850   7.142   0.548   4.760  0.5022 -1.9157 -1.3089
   84SOPE  H18Y 7851   6.990   0.630   4.698  0.2965 -0.1252 -0.3052
   84SOPE  H18Z 7852   7.151   0.649   4.622 -0.7458  0.3805 -0.3560
   85SOPE     N 7853   4.354   4.532   2.318 -0.4887  0.0583 -0.2904
   85SOPE   HN1 7854   4.404   4.441   2.324 -1.9725 -0.6939  2.0669
   85SOPE   HN2 7855   4.309   4.530   2.412 -1.0060 -0.1473 -0.5424
   85SOPE   HN3 7856   4.280   4.532   2.246 -0.8229 -1.5670  0.0154
   85SOPE   C12 7857   4.440   4.656   2.323  0.0628 -0.5612 -0.1209
   85SOPE  H12A 7858   4.525   4.640   2.392 -0.1746  0.4557  0.4235
   85SOPE  H12B 7859   4.387   4.748   2.354  2.9922  1.5736 -1.0694
   85SOPE   C11 7860   4.502   4.682   2.186  0.5337  0.8240 -0.9575
   85SOPE  H11A 7861   4.427   4.732   2.122  0.9440 -1.2690 -3.2994
   85SOPE  H11B 7862   4.538   4.589   2.135 -0.8721 -0.0744 -0.3720
   85SOPE     P 7863   4.758   4.731   2.251 -0.2701 -0.3245  0.4889
   85SOPE   O13 7864   4.851   4.791   2.154 -0.0825 -1.0644 -0.1318
   85SOPE   O14 7865   4.777   4.584   2.273  0.9306 -0.1380  0.3458
   85SOPE   O12 7866   4.611   4.771   2.202  0.1075  0.5381 -0.2770
   85SOPE   O11 7867   4.762   4.801   2.393  0.0214  0.0280  0.6221
   85SOPE    C1 7868   4.690   4.921   2.412  0.1383 -0.4502  0.6808
   85SOPE    HA 7869   4.581   4.908   2.395  0.2461  0.1655 -0.5641
   85SOPE    HB 7870   4.716   5.005   2.344  0.0056 -1.1112 -0.2021
   85SOPE    C2 7871   4.720   4.979   2.557  0.9766  0.0663 -0.1720
   85SOPE    HS 7872   4.675   5.080   2.554  0.4306 -0.1148 -3.9448
   85SOPE   O21 7873   4.855   4.989   2.597  0.0025 -0.5347  0.3276
   85SOPE   C21 7874   4.917   5.108   2.574  0.1169 -0.1947  0.2351
   85SOPE   O22 7875   4.867   5.195   2.507  0.2239 -0.5861 -0.1322
   85SOPE   C22 7876   5.042   5.127   2.654 -0.0535 -0.5169 -0.2862
   85SOPE   H2R 7877   5.097   5.222   2.640 -0.3708 -0.5790 -2.1957
   85SOPE   H2S 7878   5.117   5.050   2.624  1.9377  1.5234 -0.8720
   85SOPE    C3 7879   4.647   4.892   2.657  0.0288 -0.4515  0.8860
   85SOPE    HX 7880   4.688   4.791   2.635 -0.9338 -0.8718  0.9670
   85SOPE    HY 7881   4.545   4.891   2.614 -1.2258 -0.8226  3.6256
   85SOPE   O31 7882   4.662   4.946   2.795 -0.1395 -0.5142 -0.3756
   85SOPE   C31 7883   4.554   4.921   2.870  0.0128 -0.6235  0.4263
   85SOPE   O32 7884   4.463   4.850   2.842  0.0863  0.6257 -0.2492
   85SOPE   C32 7885   4.569   4.991   3.008  0.5490  0.7535 -0.0377
   85SOPE   H2X 7886   4.608   5.093   2.986  0.3970  0.5499 -1.3237
   85SOPE   H2Y 7887   4.651   4.936   3.058  1.6657  0.8558 -1.6504
   85SOPE   C23 7888   5.012   5.126   2.802 -0.3555 -0.3756 -0.3478
   85SOPE   H3R 7889   4.979   5.026   2.838  0.6006 -0.5028  0.1939
   85SOPE   H3S 7890   4.931   5.199   2.820 -1.6427 -1.0148 -2.9502
   85SOPE   C24 7891   5.138   5.165   2.880 -1.2127 -0.2692 -0.2016
   85SOPE   H4R 7892   5.219   5.109   2.829 -2.9119 -0.6000 -2.7398
   85SOPE   H4S 7893   5.167   5.272   2.868  2.3377 -1.0587  0.1726
   85SOPE   C25 7894   5.153   5.124   3.035 -0.5066  0.3401  0.3469
   85SOPE   H5R 7895   5.144   5.013   3.044  0.2956  0.4343  3.0942
   85SOPE   H5S 7896   5.261   5.127   3.063 -0.4664  1.5661  0.0910
   85SOPE   C26 7897   5.053   5.187   3.133 -0.7518  0.0936 -0.9690
   85SOPE   H6R 7898   5.083   5.293   3.149  2.1229 -0.8249  0.6076
   85SOPE   H6S 7899   4.945   5.181   3.107 -1.6084  0.3846  2.1605
   85SOPE   C27 7900   5.064   5.118   3.274 -0.4509  0.0620 -0.6122
   85SOPE   H7R 7901   5.158   5.059   3.282  0.1288  1.0155 -0.3702
   85SOPE   H7S 7902   5.071   5.205   3.343 -1.3219  0.5817 -1.1672
   85SOPE   C28 7903   4.946   5.021   3.308 -0.4393 -0.0168 -0.4084
   85SOPE   H8R 7904   4.849   5.076   3.304 -0.9802 -0.1861  4.2816
   85SOPE   H8S 7905   4.949   4.959   3.216  0.4135  1.1445 -1.2031
   85SOPE   C29 7906   4.951   4.927   3.427 -0.3559  0.3204  0.0868
   85SOPE   H91 7907   4.915   4.828   3.395  0.7158 -0.0464 -0.0137
   85SOPE  C210 7908   4.979   4.948   3.556 -0.2383  0.5163  0.2694
   85SOPE  H101 7909   4.967   4.865   3.626  2.1014  0.9523  1.2747
   85SOPE  C211 7910   5.030   5.073   3.629 -0.2096  0.0849  0.0096
   85SOPE  H11R 7911   4.942   5.104   3.690 -0.9078 -0.7900 -0.5400
   85SOPE  H11S 7912   5.062   5.152   3.558  2.8607 -0.4243  0.6821
   85SOPE  C212 7913   5.153   5.031   3.709  0.0849  0.1491  0.7315
   85SOPE  H12R 7914   5.231   5.002   3.635 -0.7028  0.4858 -0.2512
   85SOPE  H12S 7915   5.141   4.940   3.771 -0.3324 -1.4096 -1.4951
   85SOPE  C213 7916   5.208   5.137   3.804 -0.5392  0.6645 -0.0411
   85SOPE  H13R 7917   5.142   5.164   3.889  2.6745  2.8310  1.9899
   85SOPE  H13S 7918   5.231   5.232   3.750  0.6775  1.0627  1.1265
   85SOPE  C214 7919   5.339   5.111   3.870 -0.2371  0.0857  0.2784
   85SOPE  H14R 7920   5.419   5.080   3.800 -1.3782 -0.0370 -0.9987
   85SOPE  H14S 7921   5.317   5.027   3.940 -0.3778  2.0481  2.7272
   85SOPE  C215 7922   5.391   5.228   3.947  0.5027 -0.2273 -0.5881
   85SOPE  H15R 7923   5.302   5.278   3.991 -0.8328 -2.6568 -0.3960
   85SOPE  H15S 7924   5.446   5.300   3.883  1.4979  0.7356  1.2353
   85SOPE  C216 7925   5.475   5.187   4.069 -0.2464 -0.5168 -0.7059
   85SOPE  H16R 7926   5.563   5.130   4.033 -0.5727 -0.1700 -2.1206
   85SOPE  H16S 7927   5.411   5.129   4.139 -0.8922  0.5994 -0.3390
   85SOPE  C217 7928   5.525   5.307   4.145  0.2371 -0.3464 -0.4456
   85SOPE  H17R 7929   5.439   5.375   4.160  0.4839 -0.0517 -0.3479
   85SOPE  H17S 7930   5.602   5.358   4.082  0.0994  1.5577  0.8202
   85SOPE  C218 7931   5.588   5.270   4.283 -0.3028  0.4524  0.3088
   85SOPE  H18R 7932   5.617   5.364   4.334  1.5078 -0.8851  1.9289
   85SOPE  H18S 7933   5.681   5.209   4.275 -0.6878 -0.2276  0.8623
   85SOPE  H18T 7934   5.520   5.204   4.341 -1.4128  1.3386  0.0384
   85SOPE   C33 7935   4.442   4.997   3.085 -0.3006 -0.2687 -0.6065
   85SOPE   H3X 7936   4.403   4.896   3.110  0.1069 -0.1053  0.7658
   85SOPE   H3Y 7937   4.360   5.049   3.031 -1.3045  1.6272  2.4836
   85SOPE   C34 7938   4.447   5.069   3.223  0.5231 -0.1184  0.3259
   85SOPE   H4X 7939   4.347   5.091   3.265  0.6499 -0.5670  0.8685
   85SOPE   H4Y 7940   4.501   5.163   3.198  0.6043  0.3463  2.1316
   85SOPE   C35 7941   4.532   5.002   3.337 -0.3882  0.8657 -0.5564
   85SOPE   H5X 7942   4.638   5.005   3.303  0.3938  0.5277  1.7051
   85SOPE   H5Y 7943   4.506   4.894   3.344  0.6113  0.6529  0.0056
   85SOPE   C36 7944   4.531   5.063   3.476  0.4690 -0.5756  0.7940
   85SOPE   H6X 7945   4.558   5.171   3.470 -1.2761 -0.1825 -1.0728
   85SOPE   H6Y 7946   4.601   5.012   3.545 -1.5455 -1.6341  2.1540
   85SOPE   C37 7947   4.390   5.057   3.550 -0.0257 -0.2683  0.3496
   85SOPE   H7X 7948   4.385   4.949   3.573  0.7576 -0.4637 -0.3555
   85SOPE   H7Y 7949   4.296   5.080   3.495 -0.2942  0.1230  0.9632
   85SOPE   C38 7950   4.372   5.137   3.676  0.0637 -0.4565 -0.0552
   85SOPE   H8X 7951   4.381   5.245   3.652  4.0800 -1.0151 -1.9527
   85SOPE   H8Y 7952   4.460   5.124   3.743 -0.7153 -1.0882  0.8718
   85SOPE   C39 7953   4.253   5.102   3.773 -0.4307  0.2289 -0.0542
   85SOPE   H9X 7954   4.227   4.995   3.757 -1.0135  0.0891  1.6052
   85SOPE   H9Y 7955   4.165   5.153   3.728 -1.6501 -2.3442 -0.8032
   85SOPE  C310 7956   4.284   5.140   3.921  0.3436 -0.0773 -0.1784
   85SOPE  H10X 7957   4.291   5.250   3.925  1.5693 -0.1369 -0.5370
   85SOPE  H10Y 7958   4.382   5.107   3.962  0.2001  0.6945  0.8358
   85SOPE  C311 7959   4.175   5.095   4.019  0.5425 -0.6180 -0.0495
   85SOPE  H11X 7960   4.176   4.984   4.014  1.3635 -0.6775  0.9642
   85SOPE  H11Y 7961   4.075   5.134   3.992  0.1351  0.1534  2.2855
   85SOPE  C312 7962   4.194   5.140   4.158 -0.5430  0.6812  0.2861
   85SOPE  H12X 7963   4.302   5.129   4.184 -0.3901 -0.9920 -0.8296
   85SOPE  H12Y 7964   4.142   5.076   4.233 -1.2488  0.2126 -0.5820
   85SOPE  C313 7965   4.156   5.283   4.182  0.4936 -0.3394 -0.5720
   85SOPE  H13X 7966   4.052   5.305   4.149 -0.6200  0.4234  2.9733
   85SOPE  H13Y 7967   4.220   5.350   4.120 -0.7709  0.7934 -0.7125
   85SOPE  C314 7968   4.177   5.322   4.326  0.0414 -0.3197  0.3250
   85SOPE  H14X 7969   4.286   5.304   4.342 -0.2497 -0.8508  1.9890
   85SOPE  H14Y 7970   4.115   5.260   4.395 -3.4339  1.4812 -0.9471
   85SOPE  C315 7971   4.121   5.461   4.361 -0.3406  0.7771  0.1780
   85SOPE  H15X 7972   4.011   5.452   4.349 -0.3089 -1.8385  1.2764
   85SOPE  H15Y 7973   4.159   5.548   4.302 -0.0114  1.6085  1.5652
   85SOPE  C316 7974   4.137   5.490   4.512  0.2775 -0.3086  0.1574
   85SOPE  H16X 7975   4.242   5.503   4.546 -0.2941  0.3606  1.7595
   85SOPE  H16Y 7976   4.093   5.396   4.553  1.4809 -1.3299 -0.7949
   85SOPE  C317 7977   4.049   5.609   4.552 -0.9288  0.2972  0.9227
   85SOPE  H17X 7978   3.944   5.581   4.532 -0.4363 -0.0668 -1.5518
   85SOPE  H17Y 7979   4.064   5.694   4.481  2.8582 -2.7550 -2.4500
   85SOPE  C318 7980   4.064   5.652   4.697 -0.0463 -0.5333  0.8276
   85SOPE  H18X 7981   3.996   5.739   4.712 -1.6634 -0.6593 -4.0046
   85SOPE  H18Y 7982   4.170   5.670   4.722  0.9961 -1.7801 -2.2505
   85SOPE  H18Z 7983   4.027   5.566   4.758  0.8555 -2.7053 -1.5191
   86SOPE     N 7984   5.121   3.331   2.038  0.3765  0.6061  0.1784
   86SOPE   HN1 7985   5.067   3.356   1.953  0.3855  0.7196  0.2059
   86SOPE   HN2 7986   5.154   3.420   2.081 -0.6610  1.5533 -0.9095
   86SOPE   HN3 7987   5.199   3.269   2.008  0.0935  0.7203 -0.8239
   86SOPE   C12 7988   5.032   3.265   2.142 -0.9274  0.3278 -0.0735
   86SOPE  H12A 7989   4.926   3.290   2.121 -1.1488 -1.1904 -0.9590
   86SOPE  H12B 7990   5.078   3.295   2.239  0.8009  3.1513 -1.6238
   86SOPE   C11 7991   5.043   3.113   2.122  0.1197 -0.0808 -0.6770
   86SOPE  H11A 7992   5.024   3.094   2.014 -1.1208 -0.3786 -0.4217
   86SOPE  H11B 7993   4.961   3.085   2.192  0.2413  0.7928 -0.1749
   86SOPE     P 7994   5.233   2.936   2.100 -0.3627  0.0637  0.3787
   86SOPE   O13 7995   5.353   2.978   2.022 -0.0625 -0.6536  0.2017
   86SOPE   O14 7996   5.135   2.861   2.027  0.1266  0.2362  0.4138
   86SOPE   O12 7997   5.171   3.069   2.161 -0.2409  0.6048  0.1610
   86SOPE   O11 7998   5.278   2.844   2.223 -0.0109  0.3690  0.4078
   86SOPE    C1 7999   5.228   2.891   2.354 -0.7796  0.1379 -0.3874
   86SOPE    HA 8000   5.237   2.802   2.418 -2.7058 -1.3373 -2.0381
   86SOPE    HB 8001   5.126   2.935   2.351 -1.3464 -1.1925 -1.7206
   86SOPE    C2 8002   5.319   3.007   2.409 -0.1149  0.2320 -0.4961
   86SOPE    HS 8003   5.317   3.087   2.332  0.4842  0.4273 -0.3072
   86SOPE   O21 8004   5.452   2.973   2.443 -0.0098 -0.6178  0.1240
   86SOPE   C21 8005   5.538   3.067   2.418  0.0459 -0.3257 -0.0940
   86SOPE   O22 8006   5.530   3.168   2.354  0.5569 -0.6333 -0.3044
   86SOPE   C22 8007   5.667   3.013   2.486 -0.7536 -0.8035 -0.7704
   86SOPE   H2R 8008   5.751   3.085   2.477  0.2368 -1.0522  3.8563
   86SOPE   H2S 8009   5.687   2.921   2.429  0.7625 -0.7225 -0.4185
   86SOPE    C3 8010   5.242   3.080   2.524 -0.0948 -0.3682  0.0412
   86SOPE    HX 8011   5.145   3.124   2.491 -0.4745  2.1464  3.8198
   86SOPE    HY 8012   5.312   3.165   2.540  1.7254 -1.7074 -0.5435
   86SOPE   O31 8013   5.220   2.995   2.635 -1.0938 -0.2395  0.8890
   86SOPE   C31 8014   5.281   3.027   2.748 -0.0068 -0.2397 -0.3447
   86SOPE   O32 8015   5.364   3.120   2.767 -0.1677 -0.8802 -0.0730
   86SOPE   C32 8016   5.254   2.914   2.856 -1.0008  0.0282  0.0571
   86SOPE   H2X 8017   5.353   2.885   2.896 -1.6217  0.2690  1.8254
   86SOPE   H2Y 8018   5.209   2.831   2.797 -3.1161  0.9741  0.2108
   86SOPE   C23 8019   5.668   3.004   2.641 -1.0294  0.0875 -0.1426
   86SOPE   H3R 8020   5.608   2.919   2.681 -0.5978  0.0935  0.5482
   86SOPE   H3S 8021   5.620   3.095   2.682 -1.4234 -0.4971  0.7342
   86SOPE   C24 8022   5.810   3.000   2.706 -0.0458  0.0466  0.3039
   86SOPE   H4R 8023   5.835   2.893   2.690  1.0863  0.6905 -2.9807
   86SOPE   H4S 8024   5.882   3.059   2.647 -1.2638 -0.6729 -2.0253
   86SOPE   C25 8025   5.799   3.048   2.851  0.1393  0.8973 -0.4747
   86SOPE   H5R 8026   5.781   3.158   2.856  0.3998  0.8924  2.1005
   86SOPE   H5S 8027   5.713   3.005   2.906  0.8742 -0.0126 -0.0161
   86SOPE   C26 8028   5.930   3.021   2.917 -0.2245 -0.3756  0.1008
   86SOPE   H6R 8029   5.954   2.913   2.909  2.8377  0.2862 -1.1365
   86SOPE   H6S 8030   6.001   3.075   2.851  0.8433 -0.3158  1.2684
   86SOPE   C27 8031   5.932   3.057   3.060  0.9272  0.2850 -0.4280
   86SOPE   H7R 8032   5.888   3.155   3.090 -2.2317 -1.0619 -0.2558
   86SOPE   H7S 8033   5.859   2.995   3.117  1.5968  0.3567  0.5317
   86SOPE   C28 8034   6.070   3.045   3.124 -0.5354  0.1967 -0.0286
   86SOPE   H8R 8035   6.139   3.083   3.045 -0.0307 -0.3857  0.1229
   86SOPE   H8S 8036   6.098   3.114   3.207  2.7219 -2.1293  1.0318
   86SOPE   C29 8037   6.099   2.899   3.154 -0.8948 -0.0126  0.5294
   86SOPE   H91 8038   6.140   2.845   3.068 -2.9558  0.1175 -0.6088
   86SOPE  C210 8039   6.111   2.852   3.273 -0.2420  0.6157  0.0773
   86SOPE  H101 8040   6.131   2.745   3.286 -2.9193  0.0317  0.0032
   86SOPE  C211 8041   6.081   2.928   3.403 -0.0476 -0.2923 -0.2388
   86SOPE  H11R 8042   6.098   3.038   3.400 -2.0708  0.1639  2.1249
   86SOPE  H11S 8043   6.146   2.897   3.487  0.7534  0.9860 -0.3532
   86SOPE  C212 8044   5.932   2.919   3.435 -0.3089 -0.6473  0.2117
   86SOPE  H12R 8045   5.902   2.813   3.448  0.3442 -0.9808 -0.8758
   86SOPE  H12S 8046   5.875   2.961   3.350  0.0789  0.5152  0.4970
   86SOPE  C213 8047   5.893   2.999   3.556 -0.0596  0.0733 -0.2586
   86SOPE  H13R 8048   5.785   3.027   3.555 -0.0993 -0.0921 -0.8610
   86SOPE  H13S 8049   5.962   3.085   3.569  2.1880 -1.8252  1.1208
   86SOPE  C214 8050   5.905   2.928   3.693  0.1974  0.6191 -0.9127
   86SOPE  H14R 8051   6.011   2.895   3.703 -0.2070  0.1807  4.5336
   86SOPE  H14S 8052   5.836   2.840   3.691 -0.6854  1.1574  1.9304
   86SOPE  C215 8053   5.878   3.030   3.802  0.1488 -0.0101 -0.5900
   86SOPE  H15R 8054   5.789   3.093   3.781  0.6862  0.9786 -0.0216
   86SOPE  H15S 8055   5.965   3.094   3.830 -0.0899  0.7401 -1.4959
   86SOPE  C216 8056   5.851   2.949   3.932 -0.3382 -0.1982 -0.1524
   86SOPE  H16R 8057   5.930   2.872   3.943 -0.9655 -0.6811  1.1736
   86SOPE  H16S 8058   5.759   2.887   3.930  2.1297 -4.3824  1.6941
   86SOPE  C217 8059   5.853   3.035   4.062 -0.6318  0.0617 -1.1498
   86SOPE  H17R 8060   5.797   3.128   4.040  0.3702  0.7382 -0.9078
   86SOPE  H17S 8061   5.960   3.055   4.086 -1.6383  1.9654  2.5210
   86SOPE  C218 8062   5.789   2.953   4.180 -0.5721  0.0388  0.1944
   86SOPE  H18R 8063   5.687   2.924   4.147 -1.0958  2.7031 -0.7204
   86SOPE  H18S 8064   5.790   3.006   4.277  1.8677 -1.0800  0.8781
   86SOPE  H18T 8065   5.858   2.866   4.189  0.1816  0.3156 -2.2342
   86SOPE   C33 8066   5.153   2.957   2.971 -0.2187 -0.8389  1.1981
   86SOPE   H3X 8067   5.149   2.870   3.040 -1.4014 -1.3593  0.4936
   86SOPE   H3Y 8068   5.049   2.977   2.940  0.1078  1.4599  1.3882
   86SOPE   C34 8069   5.195   3.086   3.052 -0.6316 -0.6705 -0.2170
   86SOPE   H4X 8070   5.210   3.174   2.987  3.7291 -1.3644 -0.4736
   86SOPE   H4Y 8071   5.293   3.055   3.095 -0.9553  0.0070  1.0579
   86SOPE   C35 8072   5.102   3.114   3.172 -0.4794 -0.1972  0.2178
   86SOPE   H5X 8073   5.072   3.013   3.209 -1.8580  0.1247  0.0144
   86SOPE   H5Y 8074   5.017   3.174   3.133  0.8246  1.0142 -0.8276
   86SOPE   C36 8075   5.164   3.179   3.294 -0.3802 -0.4560  0.1188
   86SOPE   H6X 8076   5.223   3.266   3.260 -2.3455  0.8947  0.0390
   86SOPE   H6Y 8077   5.246   3.109   3.322  1.3154  0.4836 -2.2064
   86SOPE   C37 8078   5.065   3.202   3.405 -0.1514  0.5487  0.2444
   86SOPE   H7X 8079   4.979   3.132   3.392  1.4074 -2.0999  2.8453
   86SOPE   H7Y 8080   5.036   3.309   3.405  2.9610  1.5407  2.2917
   86SOPE   C38 8081   5.130   3.171   3.542 -0.1160 -0.7799 -0.1320
   86SOPE   H8X 8082   5.143   3.063   3.563 -0.0427 -1.3245 -2.6287
   86SOPE   H8Y 8083   5.066   3.205   3.626 -0.6014 -2.9705  0.4517
   86SOPE   C39 8084   5.271   3.231   3.557  0.7612 -0.0726 -0.4569
   86SOPE   H9X 8085   5.266   3.331   3.509 -1.4332 -1.2730 -3.0389
   86SOPE   H9Y 8086   5.355   3.174   3.512 -0.0843 -3.6263  2.0751
   86SOPE  C310 8087   5.296   3.252   3.710 -0.1082  0.3217 -0.4505
   86SOPE  H10X 8088   5.281   3.152   3.755 -0.0842 -0.3860 -1.9688
   86SOPE  H10Y 8089   5.221   3.322   3.752 -0.0554  1.1155 -1.6066
   86SOPE  C311 8090   5.430   3.318   3.742  0.0459  0.8063 -0.4273
   86SOPE  H11X 8091   5.456   3.408   3.683  1.6862  1.4077  1.1139
   86SOPE  H11Y 8092   5.517   3.250   3.728 -1.6659 -2.1073  1.8816
   86SOPE  C312 8093   5.443   3.339   3.890  0.1057  0.3048 -0.2850
   86SOPE  H12X 8094   5.349   3.313   3.942 -1.3415  0.8121 -2.5194
   86SOPE  H12Y 8095   5.464   3.445   3.915 -1.3484  0.1901  1.6401
   86SOPE  C313 8096   5.561   3.258   3.963 -0.0050 -0.3756  0.0894
   86SOPE  H13X 8097   5.657   3.281   3.911 -1.0079 -0.5004 -1.9116
   86SOPE  H13Y 8098   5.535   3.153   3.938 -3.1839  0.1520  0.7443
   86SOPE  C314 8099   5.557   3.282   4.113  0.5733  0.3148 -0.3354
   86SOPE  H14X 8100   5.566   3.390   4.138  1.8513 -0.4909  3.3904
   86SOPE  H14Y 8101   5.642   3.226   4.158 -0.8054 -0.4918  1.3795
   86SOPE  C315 8102   5.424   3.228   4.188  0.2445 -0.3858 -0.3511
   86SOPE  H15X 8103   5.342   3.287   4.142 -0.2984 -0.1937  0.8447
   86SOPE  H15Y 8104   5.433   3.242   4.297 -1.5532  0.6763 -0.2912
   86SOPE  C316 8105   5.387   3.089   4.160  0.1638  1.2279 -0.4312
   86SOPE  H16X 8106   5.475   3.022   4.173 -1.6568 -1.8961 -2.9164
   86SOPE  H16Y 8107   5.357   3.084   4.053  2.7623  0.0199 -1.1976
   86SOPE  C317 8108   5.276   3.038   4.258 -0.4720  0.1197  0.1821
   86SOPE  H17X 8109   5.193   3.110   4.272 -0.7196 -0.3250  1.0835
   86SOPE  H17Y 8110   5.317   3.044   4.360 -0.6729  0.1247  0.2642
   86SOPE  C318 8111   5.235   2.895   4.240 -0.3285  0.5649  0.0647
   86SOPE  H18X 8112   5.186   2.876   4.142 -1.6152 -0.0676  0.8081
   86SOPE  H18Y 8113   5.164   2.860   4.317  1.7004 -2.4954  0.7537
   86SOPE  H18Z 8114   5.319   2.823   4.252  0.2902  1.2780  0.1610
   87SOPE     N 8115   6.182   1.136   2.334 -1.0376 -0.0296  0.7849
   87SOPE   HN1 8116   6.174   1.192   2.421  1.7972  0.0858  1.0755
   87SOPE   HN2 8117   6.088   1.122   2.291 -0.5394 -1.0077 -0.0336
   87SOPE   HN3 8118   6.226   1.048   2.370  1.3845  0.4871 -0.6668
   87SOPE   C12 8119   6.293   1.184   2.246  0.5168 -0.1153  0.4186
   87SOPE  H12A 8120   6.265   1.284   2.205  0.1658  0.0941  1.1508
   87SOPE  H12B 8121   6.309   1.112   2.164  0.4913  1.7048 -1.2637
   87SOPE   C11 8122   6.422   1.207   2.331 -0.5975  0.6757 -0.3808
   87SOPE  H11A 8123   6.500   1.244   2.262  0.1993  2.3087  1.3052
   87SOPE  H11B 8124   6.451   1.111   2.379  1.2029  0.9978 -0.7622
   87SOPE     P 8125   6.514   1.379   2.500  0.2171 -0.1360 -0.2400
   87SOPE   O13 8126   6.634   1.354   2.423 -0.3165  0.9147 -0.4781
   87SOPE   O14 8127   6.519   1.354   2.644  0.4831  0.1771  0.2540
   87SOPE   O12 8128   6.392   1.299   2.435  0.1767  0.1250  0.1730
   87SOPE   O11 8129   6.466   1.531   2.474 -0.2835  0.1773  0.2158
   87SOPE    C1 8130   6.329   1.565   2.509  0.1688 -0.2473  0.5997
   87SOPE    HA 8131   6.258   1.487   2.475  1.0634  0.2072 -2.6614
   87SOPE    HB 8132   6.293   1.656   2.455  1.7880  0.7757  1.1675
   87SOPE    C2 8133   6.305   1.608   2.658  0.1897  0.0197 -0.0743
   87SOPE    HS 8134   6.334   1.521   2.719  1.3307  1.1651  1.0748
   87SOPE   O21 8135   6.164   1.643   2.673  0.1221 -0.5746 -0.7998
   87SOPE   C21 8136   6.107   1.625   2.793 -0.7412 -0.6096  0.0861
   87SOPE   O22 8137   6.169   1.598   2.892 -0.7410  0.1994 -0.0889
   87SOPE   C22 8138   5.960   1.654   2.789 -0.4575  0.3835  0.2125
   87SOPE   H2R 8139   5.920   1.570   2.728  1.9958 -0.2367 -0.6526
   87SOPE   H2S 8140   5.934   1.752   2.745  2.2892  0.8033 -0.6535
   87SOPE    C3 8141   6.399   1.723   2.696 -0.2114 -0.3102  0.5146
   87SOPE    HX 8142   6.372   1.806   2.627  1.4530 -1.4317 -1.6084
   87SOPE    HY 8143   6.500   1.681   2.673 -0.3939 -0.6340  0.2980
   87SOPE   O31 8144   6.380   1.767   2.825  0.2221  0.5011 -0.3397
   87SOPE   C31 8145   6.469   1.731   2.925  1.2478 -0.6407  0.3915
   87SOPE   O32 8146   6.553   1.652   2.915  0.0023  0.0955 -0.0207
   87SOPE   C32 8147   6.428   1.795   3.060 -0.3174  0.0561  0.3998
   87SOPE   H2X 8148   6.317   1.785   3.058 -0.3454 -0.4633 -3.2599
   87SOPE   H2Y 8149   6.448   1.903   3.047  0.5273 -0.3804 -3.2098
   87SOPE   C23 8150   5.887   1.643   2.923  0.3469  0.5080 -0.0945
   87SOPE   H3R 8151   5.960   1.692   2.991  0.1004  0.9112 -0.1140
   87SOPE   H3S 8152   5.882   1.534   2.940  1.0669  0.4216 -0.4254
   87SOPE   C24 8153   5.759   1.721   2.943  0.4576  0.1624 -0.2506
   87SOPE   H4R 8154   5.789   1.827   2.924 -1.3637  0.7241 -0.1491
   87SOPE   H4S 8155   5.680   1.709   2.866  1.0397  0.3696 -0.8953
   87SOPE   C25 8156   5.677   1.721   3.078 -0.5724 -0.2071  0.4997
   87SOPE   H5R 8157   5.587   1.785   3.068 -0.5171 -0.1650  0.2430
   87SOPE   H5S 8158   5.648   1.618   3.105 -0.1051  0.1988  2.7642
   87SOPE   C26 8159   5.742   1.776   3.209  0.2018  0.5583  0.4450
   87SOPE   H6R 8160   5.849   1.746   3.217  0.1360  0.5047  1.2699
   87SOPE   H6S 8161   5.750   1.886   3.198  2.1844  0.3970 -0.0470
   87SOPE   C27 8162   5.661   1.753   3.334  0.0150  0.2373  0.2746
   87SOPE   H7R 8163   5.567   1.812   3.335  0.1706  0.4889 -0.0158
   87SOPE   H7S 8164   5.644   1.643   3.328 -0.3287  0.3054  0.0385
   87SOPE   C28 8165   5.758   1.795   3.445 -0.2839  0.7395  0.0440
   87SOPE   H8R 8166   5.861   1.756   3.429 -0.6851 -0.1389 -0.4893
   87SOPE   H8S 8167   5.771   1.905   3.446 -0.6847  0.8156 -1.4324
   87SOPE   C29 8168   5.707   1.758   3.581 -0.0698  0.3615 -0.2063
   87SOPE   H91 8169   5.632   1.677   3.576  1.5659 -1.1906 -0.9547
   87SOPE  C210 8170   5.733   1.814   3.698  0.1438  0.2645 -0.1449
   87SOPE  H101 8171   5.698   1.780   3.797 -0.2372  0.5554 -0.1781
   87SOPE  C211 8172   5.843   1.918   3.710  0.4998  0.1189  0.5157
   87SOPE  H11R 8173   5.926   1.910   3.637  0.6029 -0.3249  0.6795
   87SOPE  H11S 8174   5.900   1.901   3.804  2.6352 -0.5909 -0.8430
   87SOPE  C212 8175   5.799   2.066   3.712  0.1112  0.6761 -0.5298
   87SOPE  H12R 8176   5.712   2.088   3.778  1.2928 -1.1934  1.8171
   87SOPE  H12S 8177   5.784   2.081   3.603  1.7978  0.9114 -0.7614
   87SOPE  C213 8178   5.916   2.161   3.737  0.2901  0.4498 -0.7150
   87SOPE  H13R 8179   5.999   2.126   3.671  0.7014 -0.0724  0.0731
   87SOPE  H13S 8180   5.949   2.136   3.840 -0.0754 -0.4757 -0.8182
   87SOPE  C214 8181   5.882   2.304   3.723  1.1035 -1.2397  0.1528
   87SOPE  H14R 8182   5.952   2.360   3.789  1.8851 -1.5011 -0.4447
   87SOPE  H14S 8183   5.776   2.319   3.753 -0.1580 -3.0082 -2.9251
   87SOPE  C215 8184   5.900   2.344   3.574  0.3540  0.1513 -0.0608
   87SOPE  H15R 8185   5.844   2.273   3.509  3.0502 -1.5352 -0.7026
   87SOPE  H15S 8186   6.008   2.342   3.548  0.0596  1.9414 -1.6377
   87SOPE  C216 8187   5.855   2.489   3.562  0.8422 -0.2048  0.5553
   87SOPE  H16R 8188   5.914   2.545   3.639  0.3451 -0.7102  1.3211
   87SOPE  H16S 8189   5.746   2.506   3.576  0.8243  0.7391 -0.5659
   87SOPE  C217 8190   5.892   2.545   3.422 -0.4968 -0.1517 -0.5942
   87SOPE  H17R 8191   5.999   2.574   3.408 -1.0098  0.8736 -2.8122
   87SOPE  H17S 8192   5.840   2.642   3.406  1.4601  1.2679  1.1250
   87SOPE  C218 8193   5.862   2.452   3.303 -0.1657 -0.1839 -0.1267
   87SOPE  H18R 8194   5.879   2.505   3.207 -0.0600  1.0700  0.5580
   87SOPE  H18S 8195   5.755   2.422   3.305  0.3540 -2.5301 -2.4673
   87SOPE  H18T 8196   5.932   2.366   3.295  0.3517 -0.0238  2.0811
   87SOPE   C33 8197   6.473   1.718   3.194  0.3406 -0.4393  0.5450
   87SOPE   H3X 8198   6.460   1.787   3.279  1.0677  0.6578 -0.2105
   87SOPE   H3Y 8199   6.579   1.682   3.194  1.3350  2.2848  1.4203
   87SOPE   C34 8200   6.376   1.601   3.223 -0.0279  0.0178  0.9329
   87SOPE   H4X 8201   6.369   1.530   3.138 -0.3894  0.6528  0.4235
   87SOPE   H4Y 8202   6.275   1.645   3.232 -1.0646 -1.7951 -0.9795
   87SOPE   C35 8203   6.423   1.527   3.347 -0.4402  0.4044 -0.8338
   87SOPE   H5X 8204   6.429   1.601   3.429 -2.2697  0.4581 -0.7093
   87SOPE   H5Y 8205   6.521   1.484   3.315  0.3198  2.2710 -1.1168
   87SOPE   C36 8206   6.331   1.402   3.365  0.3035 -0.7874 -0.3503
   87SOPE   H6X 8207   6.339   1.353   3.266  3.0018  0.5314 -0.8782
   87SOPE   H6Y 8208   6.224   1.429   3.377 -0.0786 -1.5745 -1.8351
   87SOPE   C37 8209   6.392   1.298   3.459  0.3763 -0.3317  0.1600
   87SOPE   H7X 8210   6.502   1.304   3.446  0.4992 -1.9364  0.3385
   87SOPE   H7Y 8211   6.360   1.197   3.428 -0.2710  0.1039 -0.6419
   87SOPE   C38 8212   6.373   1.339   3.610 -0.1448  0.0135 -0.2357
   87SOPE   H8X 8213   6.289   1.411   3.622 -0.5480 -0.3440 -0.9186
   87SOPE   H8Y 8214   6.466   1.393   3.641 -0.5962 -0.2716  1.7194
   87SOPE   C39 8215   6.351   1.209   3.684 -0.4570 -0.1244  0.5996
   87SOPE   H9X 8216   6.439   1.153   3.647 -0.1282  1.5736 -1.4097
   87SOPE   H9Y 8217   6.261   1.149   3.658 -0.2125 -0.4968  0.6094
   87SOPE  C310 8218   6.367   1.235   3.834  0.7859  0.3070  0.2697
   87SOPE  H10X 8219   6.272   1.274   3.874  0.3752  0.4221 -0.8003
   87SOPE  H10Y 8220   6.441   1.318   3.840 -0.4690  1.4498  0.3462
   87SOPE  C311 8221   6.409   1.104   3.913  0.3817 -0.1117  0.5297
   87SOPE  H11X 8222   6.510   1.071   3.880 -0.2613 -1.9427  0.2292
   87SOPE  H11Y 8223   6.339   1.021   3.888  1.6837 -0.7347 -1.3251
   87SOPE  C312 8224   6.422   1.113   4.064  0.0445  0.0756  0.3590
   87SOPE  H12X 8225   6.333   1.161   4.109 -0.7645  0.9251 -1.9791
   87SOPE  H12Y 8226   6.507   1.179   4.092  0.5936 -0.8973  1.0330
   87SOPE  C313 8227   6.443   0.980   4.140  0.2016  0.2315 -0.0398
   87SOPE  H13X 8228   6.539   0.943   4.097  0.2708 -0.5107  0.7353
   87SOPE  H13Y 8229   6.359   0.911   4.120 -0.3793  0.4629  1.5233
   87SOPE  C314 8230   6.483   1.001   4.285 -0.7073 -0.0078 -0.5524
   87SOPE  H14X 8231   6.414   1.068   4.341  1.0830  0.3078  1.3910
   87SOPE  H14Y 8232   6.580   1.054   4.292 -0.0662 -0.8030 -2.5424
   87SOPE  C315 8233   6.474   0.869   4.360 -0.0597 -0.2536 -0.4641
   87SOPE  H15X 8234   6.537   0.788   4.317  0.7538 -0.1369  0.4552
   87SOPE  H15Y 8235   6.371   0.829   4.352  0.1121 -1.3817  1.9206
   87SOPE  C316 8236   6.516   0.873   4.505 -0.5312  0.2172 -1.2643
   87SOPE  H16X 8237   6.439   0.920   4.570  0.1291 -1.9538  1.2543
   87SOPE  H16Y 8238   6.593   0.950   4.528 -1.5404  0.8432  0.1200
   87SOPE  C317 8239   6.568   0.738   4.573 -0.5645  0.4118 -0.3518
   87SOPE  H17X 8240   6.618   0.763   4.670  1.6122 -0.0586 -1.2825
   87SOPE  H17Y 8241   6.641   0.702   4.498  0.0568 -0.0351  0.4394
   87SOPE  C318 8242   6.455   0.640   4.596  0.3614  0.8324  0.3983
   87SOPE  H18X 8243   6.371   0.685   4.653 -0.4573 -0.7046  0.4692
   87SOPE  H18Y 8244   6.496   0.552   4.650 -1.0768  0.4084  0.8472
   87SOPE  H18Z 8245   6.420   0.609   4.495 -0.7135 -1.8823  1.5145
   88SOPE     N 8246   0.851   6.613   2.066 -0.1492  0.1793  0.2044
   88SOPE   HN1 8247   0.900   6.672   1.996 -0.1963  1.0622  0.9001
   88SOPE   HN2 8248   0.837   6.521   2.019  0.7827  1.0338 -1.8905
   88SOPE   HN3 8249   0.760   6.663   2.075  0.3840  1.1441  0.2928
   88SOPE   C12 8250   0.915   6.604   2.204  0.2955  0.1918 -0.0465
   88SOPE  H12A 8251   0.937   6.709   2.234  1.4027  0.0079 -0.1758
   88SOPE  H12B 8252   1.013   6.552   2.195 -0.1359 -0.6009 -0.2350
   88SOPE   C11 8253   0.827   6.540   2.313 -0.6115  0.3925 -0.2903
   88SOPE  H11A 8254   0.785   6.619   2.379 -0.4271 -1.2337  1.9143
   88SOPE  H11B 8255   0.890   6.482   2.383 -0.5644  1.6595  0.7511
   88SOPE     P 8256   0.721   6.302   2.247  0.0870 -0.4841 -0.0462
   88SOPE   O13 8257   0.739   6.275   2.101 -0.8634 -0.3177  1.0100
   88SOPE   O14 8258   0.589   6.258   2.302  0.1064 -0.0604  0.2636
   88SOPE   O12 8259   0.723   6.462   2.258 -0.6160 -0.0345  0.7465
   88SOPE   O11 8260   0.843   6.250   2.333  1.0569 -0.4780 -0.1337
   88SOPE    C1 8261   0.820   6.220   2.472 -0.3868  0.2700 -0.0951
   88SOPE    HA 8262   0.741   6.144   2.490  0.2550  0.1441  2.5991
   88SOPE    HB 8263   0.780   6.312   2.522 -2.1142 -1.5714  2.1205
   88SOPE    C2 8264   0.954   6.164   2.535  0.2008 -0.0428 -0.1709
   88SOPE    HS 8265   0.960   6.061   2.495 -0.2497  1.3274 -4.3797
   88SOPE   O21 8266   0.930   6.174   2.677 -0.0428 -0.1002  0.0216
   88SOPE   C21 8267   0.949   6.059   2.743  0.6376  0.5550  0.6183
   88SOPE   O22 8268   0.985   5.956   2.684  0.9276 -0.1822 -0.1584
   88SOPE   C22 8269   0.900   6.079   2.881 -0.4638 -0.3871  0.6896
   88SOPE   H2R 8270   0.799   6.125   2.872 -0.2647 -0.2890 -1.6945
   88SOPE   H2S 8271   0.977   6.141   2.933 -0.8667  1.1281 -0.4737
   88SOPE    C3 8272   1.074   6.241   2.489  0.3004  0.5827 -0.4293
   88SOPE    HX 8273   1.067   6.344   2.528 -0.9367 -0.0354  1.1091
   88SOPE    HY 8274   1.076   6.246   2.378  0.9619  0.2277 -0.4370
   88SOPE   O31 8275   1.190   6.168   2.530  0.1210 -0.1707 -0.0389
   88SOPE   C31 8276   1.214   6.052   2.465 -0.5765 -0.6319  0.1119
   88SOPE   O32 8277   1.157   6.025   2.357 -0.4552  0.6550 -0.1187
   88SOPE   C32 8278   1.338   5.989   2.519  0.1950 -0.2929  0.1870
   88SOPE   H2X 8279   1.352   6.005   2.628  1.0823 -2.9130  0.5114
   88SOPE   H2Y 8280   1.430   6.038   2.481 -1.0834  0.9659 -1.4354
   88SOPE   C23 8281   0.885   5.949   2.965  0.2910 -0.5080  0.6664
   88SOPE   H3R 8282   0.972   5.882   2.951  1.4486  0.2935  3.4566
   88SOPE   H3S 8283   0.784   5.905   2.944  0.6472 -1.4229  0.8252
   88SOPE   C24 8284   0.890   5.986   3.112 -0.2723 -0.2833  0.2934
   88SOPE   H4R 8285   0.997   6.003   3.137  0.5647 -0.9533 -2.4909
   88SOPE   H4S 8286   0.836   6.083   3.116  2.0950  1.1470 -0.6163
   88SOPE   C25 8287   0.840   5.866   3.195  0.1352  0.1781 -0.1747
   88SOPE   H5R 8288   0.760   5.812   3.140  2.1955 -2.3933 -0.8552
   88SOPE   H5S 8289   0.929   5.799   3.202  0.8802  1.1859  0.3100
   88SOPE   C26 8290   0.788   5.908   3.335 -0.2425  0.1606  0.6182
   88SOPE   H6R 8291   0.715   5.990   3.321 -0.5557 -0.3857 -1.2411
   88SOPE   H6S 8292   0.743   5.821   3.387  2.5747 -3.1408 -1.9526
   88SOPE   C27 8293   0.900   5.951   3.429  0.0902 -0.1410 -0.0704
   88SOPE   H7R 8294   0.973   5.869   3.439 -0.9791 -1.0262  0.6660
   88SOPE   H7S 8295   0.954   6.036   3.382  1.7261 -1.4729 -0.6976
   88SOPE   C28 8296   0.847   6.000   3.565 -0.6725  0.4486  0.4106
   88SOPE   H8R 8297   0.784   6.090   3.548 -0.7914  0.3444  0.2971
   88SOPE   H8S 8298   0.773   5.923   3.599 -0.8203 -0.5186 -1.9172
   88SOPE   C29 8299   0.967   6.033   3.648  0.1347  0.0333 -1.0677
   88SOPE   H91 8300   1.053   6.067   3.588 -0.4923  1.3183 -1.2687
   88SOPE  C210 8301   0.950   6.050   3.779 -0.0052  0.0496  0.0163
   88SOPE  H101 8302   1.036   6.064   3.847  0.0053  0.2363 -0.0350
   88SOPE  C211 8303   0.818   6.013   3.837 -0.0461  1.0949 -0.4968
   88SOPE  H11R 8304   0.804   5.903   3.840 -0.1837  1.0993 -0.8301
   88SOPE  H11S 8305   0.731   6.060   3.786 -1.3445 -1.1139 -0.4530
   88SOPE  C212 8306   0.816   6.070   3.976 -0.6436 -0.1410 -0.4671
   88SOPE  H12R 8307   0.897   6.028   4.040 -2.8703 -1.0631  1.9220
   88SOPE  H12S 8308   0.720   6.033   4.019  0.2738  0.1472  1.9902
   88SOPE  C213 8309   0.822   6.222   3.995  0.2322 -0.2036 -0.1012
   88SOPE  H13R 8310   0.745   6.264   3.926  1.1523 -0.4291 -1.2940
   88SOPE  H13S 8311   0.928   6.251   3.978 -0.0168  2.3560  2.0068
   88SOPE  C214 8312   0.776   6.277   4.135 -0.1619  0.0057  0.0591
   88SOPE  H14R 8313   0.665   6.288   4.136 -0.3810 -1.3760 -1.8380
   88SOPE  H14S 8314   0.827   6.374   4.153  1.4700 -0.6749 -0.6798
   88SOPE  C215 8315   0.823   6.188   4.255  0.1553 -0.6787 -0.1433
   88SOPE  H15R 8316   0.933   6.191   4.269  0.0052  3.7280  1.6599
   88SOPE  H15S 8317   0.792   6.084   4.230  1.9617 -1.6417  1.3832
   88SOPE  C216 8318   0.759   6.224   4.393  0.2544  0.3499  0.6184
   88SOPE  H16R 8319   0.650   6.234   4.375  0.6820  1.4961 -1.6070
   88SOPE  H16S 8320   0.793   6.324   4.430 -2.0604  0.8077  1.7514
   88SOPE  C217 8321   0.792   6.127   4.503  0.5915  0.6375 -0.3902
   88SOPE  H17R 8322   0.894   6.149   4.539  1.0333 -2.4028  0.5128
   88SOPE  H17S 8323   0.786   6.021   4.471  3.5085  0.2964 -0.0364
   88SOPE  C218 8324   0.707   6.135   4.626 -0.0059  0.0832  0.4970
   88SOPE  H18R 8325   0.747   6.048   4.683  0.6091 -1.1691 -1.7363
   88SOPE  H18S 8326   0.602   6.099   4.621  0.4955 -1.5434  0.8433
   88SOPE  H18T 8327   0.724   6.234   4.673  1.3784  0.4640 -0.7496
   88SOPE   C33 8328   1.341   5.834   2.499 -0.7614  0.5372 -0.2221
   88SOPE   H3X 8329   1.447   5.806   2.515 -0.7629 -1.6210 -3.0591
   88SOPE   H3Y 8330   1.325   5.797   2.395  2.8154 -2.1718 -0.0025
   88SOPE   C34 8331   1.251   5.760   2.596  0.9436 -0.2397  0.0473
   88SOPE   H4X 8332   1.248   5.655   2.562  2.0715 -0.5816  0.9240
   88SOPE   H4Y 8333   1.153   5.808   2.577  2.2701  2.1909 -1.0834
   88SOPE   C35 8334   1.287   5.764   2.747  0.8450  0.2989  0.0325
   88SOPE   H5X 8335   1.274   5.871   2.775 -2.1055  0.0537  0.0058
   88SOPE   H5Y 8336   1.392   5.729   2.751 -0.1980 -3.3920 -0.7339
   88SOPE   C36 8337   1.199   5.689   2.845  0.2782 -0.0469  0.1071
   88SOPE   H6X 8338   1.177   5.587   2.806 -2.0256  0.3963  0.1358
   88SOPE   H6Y 8339   1.096   5.727   2.860  0.7327  1.4527 -0.4030
   88SOPE   C37 8340   1.275   5.679   2.973 -0.0428 -0.0573  0.0567
   88SOPE   H7X 8341   1.323   5.779   2.984 -0.9486  0.3338  0.5468
   88SOPE   H7Y 8342   1.359   5.607   2.961  0.1552 -0.1294  1.6148
   88SOPE   C38 8343   1.191   5.652   3.102 -0.0424  0.7908  0.3134
   88SOPE   H8X 8344   1.124   5.564   3.097 -0.7886  1.3438  0.4569
   88SOPE   H8Y 8345   1.121   5.738   3.114  0.1870  1.2235 -1.2453
   88SOPE   C39 8346   1.269   5.646   3.236  0.4896 -0.1828  0.2352
   88SOPE   H9X 8347   1.348   5.723   3.245  0.4782 -0.3013  1.5490
   88SOPE   H9Y 8348   1.320   5.548   3.245 -1.4696 -1.7339 -3.3537
   88SOPE  C310 8349   1.168   5.660   3.354 -0.4169  0.2177  0.4311
   88SOPE  H10X 8350   1.083   5.592   3.337  0.4900 -0.6865 -0.6573
   88SOPE  H10Y 8351   1.131   5.765   3.359 -2.2388 -0.3710 -0.3141
   88SOPE  C311 8352   1.246   5.642   3.489  0.1140 -0.0149 -0.2021
   88SOPE  H11X 8353   1.345   5.692   3.482  0.1048  0.0502  0.1005
   88SOPE  H11Y 8354   1.251   5.533   3.509 -3.7687 -0.2618  0.1979
   88SOPE  C312 8355   1.169   5.697   3.614 -0.2021 -0.5685  0.2942
   88SOPE  H12X 8356   1.062   5.665   3.610 -1.1308  2.2770  0.1547
   88SOPE  H12Y 8357   1.166   5.808   3.610 -0.0392 -0.5650  0.2798
   88SOPE  C313 8358   1.228   5.645   3.746  0.0241  0.2971  0.2483
   88SOPE  H13X 8359   1.336   5.665   3.762  0.2584 -0.1851 -0.6203
   88SOPE  H13Y 8360   1.211   5.535   3.749 -0.6272  0.3766 -0.2366
   88SOPE  C314 8361   1.155   5.703   3.872 -0.5480 -0.0209  0.0953
   88SOPE  H14X 8362   1.046   5.719   3.859 -0.2038  3.6098  0.6838
   88SOPE  H14Y 8363   1.205   5.802   3.885 -1.2244  0.3091  0.2122
   88SOPE  C315 8364   1.192   5.630   4.005  0.4507 -0.4360  0.3547
   88SOPE  H15X 8365   1.128   5.540   4.008 -0.7356  0.3908  1.1033
   88SOPE  H15Y 8366   1.174   5.700   4.089  0.6125 -0.7831  0.6787
   88SOPE  C316 8367   1.335   5.577   4.020  0.5613 -0.6885  0.2665
   88SOPE  H16X 8368   1.394   5.666   3.990 -1.1503  0.4656  0.2137
   88SOPE  H16Y 8369   1.361   5.498   3.946 -0.3716 -2.3611  1.6638
   88SOPE  C317 8370   1.346   5.523   4.156 -0.4106  0.2814 -0.3407
   88SOPE  H17X 8371   1.285   5.433   4.178 -0.6565  0.3964 -0.5600
   88SOPE  H17Y 8372   1.305   5.599   4.226 -0.0514 -0.7795  1.0729
   88SOPE  C318 8373   1.493   5.498   4.189  0.9586 -0.0488  0.1576
   88SOPE  H18X 8374   1.534   5.416   4.126  1.9729  0.8193 -0.3480
   88SOPE  H18Y 8375   1.499   5.465   4.295 -1.2027  0.0404  0.3544
   88SOPE  H18Z 8376   1.560   5.585   4.171 -0.6364  0.8427 -1.8460
   89SAPC     N 8377   4.161   3.869   6.489  0.4462 -0.3972  0.3316
   89SAPC   C12 8378   4.246   3.834   6.611 -0.2323 -0.2005  0.2436
   89SAPC  H12A 8379   4.178   3.816   6.693 -0.0559  3.4508  1.3655
   89SAPC  H12B 8380   4.295   3.922   6.650  2.5196 -1.1704 -0.8147
   89SAPC   C13 8381   4.243   3.954   6.403 -0.5417  0.1769  0.0483
   89SAPC  H13A 8382   4.248   4.057   6.434  1.3362  0.2240 -0.3110
   89SAPC  H13B 8383   4.340   3.906   6.394 -0.2234  0.4811  1.5382
   89SAPC  H13C 8384   4.206   3.948   6.302 -2.0119 -0.5510  0.6073
   89SAPC   C14 8385   4.126   3.743   6.421 -0.6614 -0.0698  0.5674
   89SAPC  H14A 8386   4.226   3.714   6.390 -0.0254  0.7905  1.7240
   89SAPC  H14B 8387   4.086   3.680   6.498 -0.7022  1.3088  1.7224
   89SAPC  H14C 8388   4.061   3.744   6.334  1.1011 -2.5317 -0.9104
   89SAPC   C15 8389   4.038   3.943   6.530 -0.2370  0.2486 -0.2822
   89SAPC  H15A 8390   4.065   4.039   6.572 -0.4204 -0.7437  2.2713
   89SAPC  H15B 8391   3.966   3.950   6.450  0.1856 -1.3652 -0.8444
   89SAPC  H15C 8392   3.995   3.896   6.617  0.9157 -1.3440 -0.5348
   89SAPC   C11 8393   4.350   3.729   6.602 -0.6168  0.3773 -0.1686
   89SAPC  H11A 8394   4.403   3.734   6.700 -0.3030  0.3500 -0.3335
   89SAPC  H11B 8395   4.425   3.765   6.529 -2.0471  0.9388 -1.4038
   89SAPC     P 8396   4.390   3.495   6.488  0.3738 -0.1749 -0.2038
   89SAPC   O13 8397   4.526   3.506   6.539 -0.4501  0.6034 -0.5436
   89SAPC   O14 8398   4.317   3.367   6.498 -0.7058 -0.1834 -0.2770
   89SAPC   O12 8399   4.303   3.598   6.575 -0.2257  0.0534 -0.4150
   89SAPC   O11 8400   4.385   3.563   6.350 -0.2798  0.0717 -0.4189
   89SAPC    C1 8401   4.293   3.508   6.257  0.0442  0.1114 -0.2346
   89SAPC    HA 8402   4.339   3.416   6.214  1.5442 -0.0291  1.5512
   89SAPC    HB 8403   4.195   3.483   6.302  0.2289 -0.7887 -0.3046
   89SAPC    C2 8404   4.279   3.602   6.132 -0.8810 -0.2051  0.2153
   89SAPC    HS 8405   4.204   3.681   6.159 -0.0460  0.5260  0.4419
   89SAPC   O21 8406   4.234   3.523   6.026  0.6653 -0.3419 -0.1414
   89SAPC   C21 8407   4.167   3.585   5.928  0.7743 -0.0259  0.2970
   89SAPC   O22 8408   4.139   3.703   5.920 -0.1960 -0.5694  0.3544
   89SAPC   C22 8409   4.140   3.484   5.815  0.3771 -0.6273 -0.0825
   89SAPC   H2R 8410   4.234   3.465   5.759 -1.3813 -1.3912 -2.9906
   89SAPC   H2S 8411   4.106   3.390   5.865 -0.2202 -0.0217  0.6733
   89SAPC    C3 8412   4.418   3.659   6.095  0.0246  0.0959  0.1706
   89SAPC    HX 8413   4.479   3.572   6.062 -1.6996 -0.6619 -1.1848
   89SAPC    HY 8414   4.468   3.696   6.187 -1.4162 -0.8484  1.3990
   89SAPC   O31 8415   4.422   3.750   5.983 -0.2128 -0.7363 -0.1390
   89SAPC   C31 8416   4.373   3.880   6.015  0.6911 -0.2055 -0.1086
   89SAPC   O32 8417   4.309   3.909   6.116 -0.2208 -0.1206  0.5965
   89SAPC   C32 8418   4.417   3.974   5.908 -0.3870 -0.0733 -0.2445
   89SAPC   H2X 8419   4.526   3.987   5.929 -0.6063  0.1820  0.7773
   89SAPC   H2Y 8420   4.379   4.078   5.919 -1.1532 -0.4586  0.9644
   89SAPC   C23 8421   4.036   3.537   5.707  0.3025 -0.0038 -0.7303
   89SAPC   H3R 8422   3.941   3.576   5.752  0.0776 -0.3410 -0.9094
   89SAPC   H3S 8423   3.993   3.452   5.650  0.1510 -0.2560 -0.2470
   89SAPC   C24 8424   4.095   3.639   5.611 -0.2930 -0.6353  0.1029
   89SAPC   H4R 8425   4.183   3.593   5.561 -0.5467  0.1013 -1.0586
   89SAPC   H4S 8426   4.138   3.722   5.671  1.2215  1.0318 -3.0173
   89SAPC   C25 8427   4.007   3.705   5.508 -0.1353 -0.2144  0.6137
   89SAPC   H5R 8428   3.914   3.756   5.536 -1.5581 -0.7891 -2.6444
   89SAPC   C26 8429   4.028   3.697   5.380 -0.1652 -0.2670 -0.1849
   89SAPC   H6R 8430   3.969   3.760   5.312  2.0444  0.4753 -1.5167
   89SAPC   C27 8431   4.139   3.628   5.303  0.3967 -0.4930 -0.2601
   89SAPC   H7R 8432   4.230   3.621   5.367 -0.0884 -1.6693  0.3449
   89SAPC   H7S 8433   4.177   3.688   5.218 -0.0265 -0.8465 -0.7056
   89SAPC   C28 8434   4.090   3.490   5.263 -0.0564 -0.2278  0.6184
   89SAPC   H8R 8435   4.079   3.413   5.341 -0.3276 -0.9928 -0.1705
   89SAPC   C29 8436   4.062   3.451   5.140 -0.2431 -0.4317 -0.1237
   89SAPC   H9R 8437   4.028   3.347   5.127  1.2952 -1.1741  1.3341
   89SAPC  C210 8438   4.097   3.528   5.017 -0.4683  0.4417  0.1205
   89SAPC  H10R 8439   4.180   3.477   4.962 -2.1467 -0.6216 -1.5887
   89SAPC  H10S 8440   4.142   3.628   5.032  0.6272 -0.0347  0.1204
   89SAPC  C211 8441   3.980   3.543   4.919 -0.0197  0.0885 -0.7043
   89SAPC  H11R 8442   3.915   3.455   4.910 -1.1152  0.7486  0.3988
   89SAPC  C212 8443   3.962   3.641   4.827 -0.2614  0.0770 -0.1590
   89SAPC  H12R 8444   3.870   3.638   4.766 -0.6962  1.8885  0.3471
   89SAPC  C213 8445   4.054   3.765   4.825  0.1163  0.8005 -0.8884
   89SAPC  H13R 8446   4.160   3.744   4.799  0.2697 -1.5690  1.2557
   89SAPC  H13S 8447   4.070   3.811   4.925 -0.0943  1.9500 -1.3757
   89SAPC  C214 8448   3.982   3.868   4.741  0.5444  0.1539 -0.5462
   89SAPC  H14R 8449   3.887   3.911   4.777  1.0894  1.1171 -0.1961
   89SAPC  C215 8450   4.043   3.919   4.631 -0.6959 -0.1277 -0.1901
   89SAPC  H15R 8451   3.991   3.997   4.573 -1.5237  0.3331  1.1189
   89SAPC  C216 8452   4.178   3.884   4.566 -0.8278  0.2628 -0.1942
   89SAPC  H16R 8453   4.244   3.819   4.628  1.2518  1.2051 -1.3201
   89SAPC  H16S 8454   4.240   3.975   4.554 -3.7411  2.6264  1.1664
   89SAPC  C217 8455   4.147   3.811   4.432  0.5416 -0.6742 -0.5446
   89SAPC  H17R 8456   4.074   3.868   4.371 -0.9797 -0.5462  1.3023
   89SAPC  H17S 8457   4.094   3.716   4.453 -1.1624  0.8405  2.7353
   89SAPC  C218 8458   4.274   3.776   4.357 -0.1258 -0.3852  0.4006
   89SAPC  H18R 8459   4.352   3.722   4.415  1.8563  0.4740 -1.3251
   89SAPC  H18S 8460   4.331   3.870   4.341  0.5126 -0.3436  2.6826
   89SAPC  C219 8461   4.249   3.720   4.213 -0.6859  0.1779  0.4540
   89SAPC  H19R 8462   4.217   3.808   4.153  1.7471  1.2428  0.6136
   89SAPC  H19S 8463   4.161   3.656   4.233 -0.0855 -0.4841  0.9964
   89SAPC  C220 8464   4.366   3.646   4.156 -0.3632 -0.5880 -0.3386
   89SAPC  H20R 8465   4.459   3.706   4.145 -1.0735  0.4008 -1.1502
   89SAPC  H20S 8466   4.344   3.597   4.058  1.6848 -2.8682  0.2398
   89SAPC  H20T 8467   4.381   3.563   4.228 -0.3540  0.1590  0.5413
   89SAPC   C33 8468   4.383   3.925   5.768  0.1922  1.3121 -1.2008
   89SAPC   H3X 8469   4.273   3.916   5.752  0.2997 -1.2227 -0.8854
   89SAPC   H3Y 8470   4.426   3.824   5.749 -1.4404  0.2809  0.2054
   89SAPC   C34 8471   4.423   4.019   5.651 -0.4631  0.4305 -0.3204
   89SAPC   H4X 8472   4.534   4.014   5.644 -0.3804  0.0882  0.9539
   89SAPC   H4Y 8473   4.387   4.123   5.665  0.9725  0.6706  2.3612
   89SAPC   C35 8474   4.371   3.952   5.522  0.3468  0.2806 -2.1175
   89SAPC   H5X 8475   4.261   3.941   5.532  0.7617 -2.1513  3.0522
   89SAPC   H5Y 8476   4.404   3.846   5.514 -1.5382 -0.4880 -0.5287
   89SAPC   C36 8477   4.409   4.035   5.396 -0.6196  0.2188 -0.3650
   89SAPC   H6X 8478   4.520   4.045   5.400 -0.3802 -1.6558 -1.1849
   89SAPC   H6Y 8479   4.352   4.130   5.408 -0.6162  0.0628  1.1218
   89SAPC   C37 8480   4.370   3.961   5.265 -0.1289  0.0862 -0.0145
   89SAPC   H7X 8481   4.261   3.941   5.274  0.3353 -1.8341  2.4711
   89SAPC   H7Y 8482   4.423   3.863   5.259 -1.1016 -0.4199 -0.5922
   89SAPC   C38 8483   4.402   4.047   5.138  0.1124 -0.6959 -0.4963
   89SAPC   H8X 8484   4.507   4.084   5.149  0.5747 -0.9480 -3.2853
   89SAPC   H8Y 8485   4.328   4.129   5.133 -0.3759 -0.9703  1.5288
   89SAPC   C39 8486   4.381   3.970   5.005  0.8785 -0.1821  0.2506
   89SAPC   H9X 8487   4.272   3.951   4.996  1.2169 -2.3422  0.2947
   89SAPC   H9Y 8488   4.429   3.870   5.009 -0.7638 -0.9654  1.4336
   89SAPC  C310 8489   4.432   4.030   4.869  0.2043 -0.0355  0.5387
   89SAPC  H10X 8490   4.404   3.959   4.789 -0.4603  1.5883 -0.7399
   89SAPC  H10Y 8491   4.543   4.041   4.874  0.1989 -0.0397  0.6586
   89SAPC  C311 8492   4.381   4.166   4.828 -0.4517 -0.1529 -0.3681
   89SAPC  H11X 8493   4.406   4.237   4.910 -3.9659 -0.5829  1.2549
   89SAPC  H11Y 8494   4.271   4.160   4.823 -0.6780  0.7213  2.0502
   89SAPC  C312 8495   4.428   4.226   4.695 -0.4028 -0.1964 -0.1096
   89SAPC  H12X 8496   4.460   4.138   4.635 -0.2904 -2.0986  2.5604
   89SAPC  H12Y 8497   4.515   4.293   4.713 -0.1216 -0.9601  1.5354
   89SAPC  C313 8498   4.312   4.305   4.621 -0.3501  0.0841 -0.0126
   89SAPC  H13X 8499   4.278   4.396   4.676 -0.1206 -0.6456  1.3969
   89SAPC  H13Y 8500   4.227   4.233   4.623  0.6399 -1.1177 -0.6222
   89SAPC  C314 8501   4.345   4.341   4.477  0.4135  0.0900  0.8148
   89SAPC  H14X 8502   4.248   4.380   4.440 -0.1770 -1.1769  0.9737
   89SAPC  H14Y 8503   4.384   4.260   4.412  0.2516 -0.7348  1.7142
   89SAPC  C315 8504   4.438   4.465   4.453  0.1900 -0.6159 -0.0740
   89SAPC  H15X 8505   4.545   4.436   4.459  0.6034  0.9968  3.4399
   89SAPC  H15Y 8506   4.419   4.523   4.546 -1.3435  0.1715 -0.8459
   89SAPC  C316 8507   4.398   4.540   4.330 -0.5646  0.5836 -0.5715
   89SAPC  H16X 8508   4.298   4.587   4.347 -1.0879 -0.3963 -0.8641
   89SAPC  H16Y 8509   4.399   4.474   4.240 -1.8807 -0.2900  0.0140
   89SAPC  C317 8510   4.499   4.644   4.290 -0.2239  0.1080 -0.6194
   89SAPC  H17X 8511   4.459   4.691   4.198 -0.3114  2.1140  0.3738
   89SAPC  H17Y 8512   4.598   4.607   4.256 -0.0658  1.1704 -1.3571
   89SAPC  C318 8513   4.522   4.754   4.388 -0.1063  0.2492 -0.4858
   89SAPC  H18X 8514   4.428   4.783   4.441 -1.5285 -2.1814 -1.4874
   89SAPC  H18Y 8515   4.565   4.848   4.346  0.9716 -0.8451 -1.9047
   89SAPC  H18Z 8516   4.593   4.717   4.465 -0.1532  1.2034  0.0457
   90SAPC     N 8517   4.467   5.663   7.024  0.4263  0.3561 -0.2142
   90SAPC   C12 8518   4.348   5.691   6.935  0.3464 -0.5025  0.0130
   90SAPC  H12A 8519   4.257   5.694   6.993  0.4019 -1.0333  0.1388
   90SAPC  H12B 8520   4.331   5.616   6.859 -0.8302  1.4835 -1.7771
   90SAPC   C13 8521   4.468   5.522   7.075  0.9589  0.1288  0.5745
   90SAPC  H13A 8522   4.394   5.508   7.151  0.5890 -1.2251 -0.0010
   90SAPC  H13B 8523   4.450   5.445   7.001  1.9227  1.0683 -0.7048
   90SAPC  H13C 8524   4.564   5.495   7.117 -0.2809 -0.0611  3.4552
   90SAPC   C14 8525   4.593   5.683   6.952 -0.7833 -0.7432  0.4754
   90SAPC  H14A 8526   4.673   5.664   7.022 -0.8925 -0.8001  0.5850
   90SAPC  H14B 8527   4.604   5.621   6.865  0.7988  1.5765 -1.1162
   90SAPC  H14C 8528   4.608   5.784   6.915 -2.7947 -0.5174  0.1758
   90SAPC   C15 8529   4.471   5.755   7.152  0.3008 -0.5840  0.1760
   90SAPC  H15A 8530   4.386   5.739   7.216 -0.7620  2.9852 -0.0803
   90SAPC  H15B 8531   4.566   5.732   7.198  0.3414 -1.7409 -0.4569
   90SAPC  H15C 8532   4.469   5.862   7.134  1.6876 -0.5716 -0.0498
   90SAPC   C11 8533   4.333   5.825   6.855  0.0285  0.4843  0.2443
   90SAPC  H11A 8534   4.262   5.810   6.771  1.5716 -1.8106 -0.7555
   90SAPC  H11B 8535   4.427   5.841   6.797 -1.1392  1.2135 -1.5593
   90SAPC     P 8536   4.175   5.970   7.013  0.0387  0.2416  0.2483
   90SAPC   O13 8537   4.082   5.853   7.023 -0.4916  0.9711 -0.1745
   90SAPC   O14 8538   4.205   6.038   7.138  0.1674 -0.2872 -1.1098
   90SAPC   O12 8539   4.314   5.932   6.945  0.5547  0.1168  0.0381
   90SAPC   O11 8540   4.115   6.081   6.918  0.7974 -0.2191  0.5779
   90SAPC    C1 8541   4.196   6.131   6.806 -0.1710 -1.1348  0.2168
   90SAPC    HA 8542   4.290   6.185   6.832  0.8547 -2.8614  0.2464
   90SAPC    HB 8543   4.219   6.042   6.744 -2.5083 -2.1790  0.7471
   90SAPC    C2 8544   4.113   6.212   6.705 -0.4868  0.4484  0.1003
   90SAPC    HS 8545   4.066   6.291   6.769 -0.4370  0.5434  0.0202
   90SAPC   O21 8546   4.012   6.136   6.634  0.2209 -0.6729  0.2688
   90SAPC   C21 8547   3.924   6.202   6.573 -0.5638 -0.6320  0.3455
   90SAPC   O22 8548   3.908   6.327   6.577  0.0974 -0.3011  0.5366
   90SAPC   C22 8549   3.857   6.116   6.467 -0.4529 -0.4843  0.0298
   90SAPC   H2R 8550   3.928   6.033   6.444  1.8028  1.1726  0.6211
   90SAPC   H2S 8551   3.770   6.069   6.517 -0.7403  0.6277  0.5954
   90SAPC    C3 8552   4.213   6.285   6.608  0.2357  1.0538  0.7414
   90SAPC    HX 8553   4.286   6.339   6.672  0.9159 -0.6517  1.4612
   90SAPC    HY 8554   4.150   6.348   6.542 -1.9089 -0.1517  1.5203
   90SAPC   O31 8555   4.288   6.184   6.527 -0.2752  0.2244 -0.1464
   90SAPC   C31 8556   4.371   6.247   6.439 -0.7310  0.3165 -0.5812
   90SAPC   O32 8557   4.368   6.369   6.417  0.0965  0.0591  0.1426
   90SAPC   C32 8558   4.489   6.161   6.380 -0.2184 -0.5800  0.4952
   90SAPC   H2X 8559   4.477   6.051   6.382  2.3616 -1.0853 -3.2644
   90SAPC   H2Y 8560   4.577   6.193   6.439  2.2444  0.5707 -3.4590
   90SAPC   C23 8561   3.822   6.182   6.333  0.2279 -0.7540 -0.3184
   90SAPC   H3R 8562   3.782   6.281   6.363 -0.6634 -1.8142  2.1919
   90SAPC   H3S 8563   3.745   6.125   6.277 -1.5295 -0.3323  1.5473
   90SAPC   C24 8564   3.954   6.188   6.248 -0.5823  0.4345 -0.1689
   90SAPC   H4R 8565   3.974   6.086   6.209  0.3807  1.2530 -1.9665
   90SAPC   H4S 8566   4.040   6.222   6.308  1.8727 -3.3897 -1.1536
   90SAPC   C25 8567   3.929   6.265   6.119 -0.8464 -0.4186  0.0951
   90SAPC   H5R 8568   3.906   6.202   6.032  2.3855 -0.4596 -0.8601
   90SAPC   C26 8569   3.960   6.394   6.087 -0.2467 -0.9058  0.4640
   90SAPC   H6R 8570   3.934   6.411   5.982  0.8726 -1.7148  0.0354
   90SAPC   C27 8571   4.036   6.504   6.165  0.7305 -0.0525 -0.8365
   90SAPC   H7R 8572   4.009   6.516   6.272 -0.7524 -0.2952 -1.1591
   90SAPC   H7S 8573   3.997   6.601   6.128  1.6042  0.1607 -1.2080
   90SAPC   C28 8574   4.187   6.493   6.156  0.2966 -0.0379 -0.4027
   90SAPC   H8R 8575   4.226   6.437   6.242  0.3200  0.8201  0.1585
   90SAPC   C29 8576   4.273   6.548   6.068  0.2516  0.6396  0.0485
   90SAPC   H9R 8577   4.379   6.519   6.070  0.5894  1.6549 -1.6317
   90SAPC  C210 8578   4.246   6.632   5.947  0.2891  0.3289  0.1845
   90SAPC  H10R 8579   4.344   6.678   5.923  0.1709  0.3006 -0.3497
   90SAPC  H10S 8580   4.177   6.713   5.980 -0.5774 -0.0762 -0.5943
   90SAPC  C211 8581   4.174   6.574   5.829  0.2900  0.0446  0.1017
   90SAPC  H11R 8582   4.096   6.502   5.855 -1.8385  1.4598 -1.9892
   90SAPC  C212 8583   4.193   6.603   5.701  0.7394 -0.1703 -0.2047
   90SAPC  H12R 8584   4.140   6.541   5.627 -0.2912 -1.4954  1.5888
   90SAPC  C213 8585   4.280   6.720   5.641  1.2600  0.2541 -0.1395
   90SAPC  H13R 8586   4.337   6.669   5.561  0.3337 -1.5942  0.3304
   90SAPC  H13S 8587   4.348   6.753   5.723  0.3794 -0.2178  0.8041
   90SAPC  C214 8588   4.210   6.842   5.573 -0.0367  0.2099 -0.7054
   90SAPC  H14R 8589   4.164   6.809   5.478  1.1978 -3.2271 -0.2600
   90SAPC  C215 8590   4.209   6.972   5.612  0.5695 -1.0525 -0.4061
   90SAPC  H15R 8591   4.145   7.038   5.552 -2.7671 -3.3343  0.3414
   90SAPC  C216 8592   4.277   7.027   5.736 -0.0762 -0.4313 -0.0780
   90SAPC  H16R 8593   4.315   7.126   5.704  0.4043 -0.7440 -0.4979
   90SAPC  H16S 8594   4.363   6.962   5.763  1.0571  0.1132 -2.1760
   90SAPC  C217 8595   4.195   7.043   5.856  0.0096  1.1865  0.0075
   90SAPC  H17R 8596   4.130   6.955   5.877 -0.7771  2.1619  1.8931
   90SAPC  H17S 8597   4.114   7.119   5.840 -0.9181  0.6935  2.0430
   90SAPC  C218 8598   4.263   7.095   5.979  0.3448  0.1454  0.0586
   90SAPC  H18R 8599   4.197   7.155   6.045 -0.9514  0.6744 -1.6386
   90SAPC  H18S 8600   4.333   7.175   5.947  0.5554  0.5964  1.5976
   90SAPC  C219 8601   4.343   6.993   6.062 -0.6260  0.2191  0.5900
   90SAPC  H19R 8602   4.422   6.941   6.003  0.6916  0.4265  2.0973
   90SAPC  H19S 8603   4.280   6.907   6.094 -0.1157 -0.7591 -0.9165
   90SAPC  C220 8604   4.414   7.081   6.173  0.0032  0.2402  0.1216
   90SAPC  H20R 8605   4.473   7.020   6.244  1.3139  2.3946  0.9791
   90SAPC  H20S 8606   4.337   7.129   6.236  2.0304  0.0046  2.9995
   90SAPC  H20T 8607   4.484   7.150   6.121  1.0474 -1.0392 -0.2137
   90SAPC   C33 8608   4.531   6.203   6.234 -0.1117 -0.3163  0.5007
   90SAPC   H3X 8609   4.614   6.144   6.191  1.1941  0.6158  1.6254
   90SAPC   H3Y 8610   4.562   6.310   6.234  1.6373 -0.7843 -0.2732
   90SAPC   C34 8611   4.425   6.190   6.123 -0.5914  0.0882 -0.2964
   90SAPC   H4X 8612   4.336   6.251   6.149 -1.3675 -0.3222 -1.8847
   90SAPC   H4Y 8613   4.384   6.086   6.126 -1.3429  0.3786 -0.2514
   90SAPC   C35 8614   4.481   6.221   5.978 -0.2823  0.3727 -0.0164
   90SAPC   H5X 8615   4.571   6.170   5.938 -0.9448  0.5815 -1.8890
   90SAPC   H5Y 8616   4.518   6.325   5.975 -0.4164  0.4075 -1.9990
   90SAPC   C36 8617   4.367   6.202   5.876  0.5604  0.2357  0.0104
   90SAPC   H6X 8618   4.274   6.259   5.897  0.1731 -0.3322 -0.1133
   90SAPC   H6Y 8619   4.327   6.099   5.864 -1.1744  0.7684  0.9335
   90SAPC   C37 8620   4.409   6.256   5.736 -0.5747  0.0526 -0.5456
   90SAPC   H7X 8621   4.512   6.223   5.709 -1.0463 -0.2038 -2.1428
   90SAPC   H7Y 8622   4.420   6.367   5.737 -0.8076  0.0788  0.8191
   90SAPC   C38 8623   4.304   6.233   5.622 -0.2865  0.0468  0.5991
   90SAPC   H8X 8624   4.207   6.271   5.658  0.6729  1.6400  1.5909
   90SAPC   H8Y 8625   4.287   6.124   5.605  1.5281 -0.3213  0.8322
   90SAPC   C39 8626   4.354   6.297   5.493  0.3511 -0.1661 -0.4440
   90SAPC   H9X 8627   4.457   6.264   5.467  0.0039 -0.1866 -1.8797
   90SAPC   H9Y 8628   4.356   6.408   5.502 -3.6737 -0.0995  1.7929
   90SAPC  C310 8629   4.261   6.270   5.370  0.1477 -0.1312 -0.2385
   90SAPC  H10X 8630   4.156   6.281   5.402  0.7819 -0.0341  1.9321
   90SAPC  H10Y 8631   4.278   6.162   5.349  2.1796 -0.1153  1.0399
   90SAPC  C311 8632   4.305   6.359   5.254  0.1772 -0.2688 -0.3203
   90SAPC  H11X 8633   4.264   6.320   5.158  1.1748  1.8183 -1.6529
   90SAPC  H11Y 8634   4.415   6.353   5.243  0.4899 -0.0250  2.1167
   90SAPC  C312 8635   4.247   6.500   5.269  0.7603 -0.1196 -0.5546
   90SAPC  H12X 8636   4.313   6.569   5.326 -0.1055  0.6330 -0.4467
   90SAPC  H12Y 8637   4.148   6.497   5.320  0.6901  0.6887 -0.6236
   90SAPC  C313 8638   4.218   6.568   5.134  0.5861  0.2406  0.1735
   90SAPC  H13X 8639   4.148   6.501   5.080  1.7651 -1.4723  0.6783
   90SAPC  H13Y 8640   4.303   6.555   5.063  0.4328  0.3551 -0.0313
   90SAPC  C314 8641   4.169   6.713   5.139 -0.0021  0.0498  0.2439
   90SAPC  H14X 8642   4.079   6.725   5.203 -1.4107 -2.7481 -1.0092
   90SAPC  H14Y 8643   4.127   6.740   5.040 -1.0430 -2.6476 -0.1548
   90SAPC  C315 8644   4.277   6.814   5.194  0.6354  0.9693  0.2092
   90SAPC  H15X 8645   4.299   6.776   5.296  1.8085 -1.2816 -0.8094
   90SAPC  H15Y 8646   4.234   6.916   5.206  2.1535  1.6466  0.1182
   90SAPC  C316 8647   4.383   6.846   5.092 -0.4119 -0.9662 -0.4154
   90SAPC  H16X 8648   4.339   6.890   5.000  2.0729  0.5159 -1.0059
   90SAPC  H16Y 8649   4.444   6.759   5.061  1.3819  0.0890  0.0049
   90SAPC  C317 8650   4.476   6.946   5.160  0.1378  0.5542 -0.2322
   90SAPC  H17X 8651   4.515   6.896   5.251  0.2017  1.7741  0.4241
   90SAPC  H17Y 8652   4.434   7.040   5.200  1.3053  0.7533  0.5661
   90SAPC  C318 8653   4.584   6.992   5.066  0.3529  0.0324 -0.1331
   90SAPC  H18X 8654   4.636   6.900   5.030 -0.1915 -1.4867  2.6568
   90SAPC  H18Y 8655   4.662   7.057   5.109  0.3802  0.0357 -0.1870
   90SAPC  H18Z 8656   4.540   7.049   4.982  2.9377  0.8839 -0.9941
   91SAPC     N 8657   1.200   5.482   6.947  0.5202 -0.6834 -0.4578
   91SAPC   C12 8658   1.181   5.634   6.917  0.5727  0.4221  0.1712
   91SAPC  H12A 8659   1.131   5.646   6.822 -0.6028  1.3692  0.8719
   91SAPC  H12B 8660   1.280   5.678   6.920  0.8049 -0.1219  0.8647
   91SAPC   C13 8661   1.267   5.472   7.082 -0.7893  0.0534  0.6294
   91SAPC  H13A 8662   1.369   5.505   7.073 -0.5251 -0.3854  1.7755
   91SAPC  H13B 8663   1.229   5.547   7.151 -0.8037 -0.2157  0.9145
   91SAPC  H13C 8664   1.264   5.367   7.109  1.2480 -0.8487 -2.2652
   91SAPC   C14 8665   1.074   5.408   6.962  0.2781  0.0026  0.1257
   91SAPC  H14A 8666   1.108   5.307   6.980  0.4359  0.0596  0.1517
   91SAPC  H14B 8667   1.018   5.445   7.047 -1.5970  0.8330 -1.4124
   91SAPC  H14C 8668   1.010   5.407   6.876  0.8510  1.1722 -0.3259
   91SAPC   C15 8669   1.283   5.418   6.844  0.2451 -0.6241  0.1092
   91SAPC  H15A 8670   1.366   5.481   6.816 -1.1410  0.0023 -3.0181
   91SAPC  H15B 8671   1.318   5.321   6.878 -1.3173 -0.9781  0.7923
   91SAPC  H15C 8672   1.234   5.402   6.749  1.0344  0.7080 -0.5546
   91SAPC   C11 8673   1.093   5.717   7.015  0.2549  0.5598  0.3859
   91SAPC  H11A 8674   1.116   5.826   7.008  0.8452  0.4105 -0.0226
   91SAPC  H11B 8675   1.116   5.701   7.122 -1.4838  1.7954  1.0020
   91SAPC     P 8676   0.885   5.762   6.864  0.4933  0.2043  0.1578
   91SAPC   O13 8677   0.941   5.702   6.740 -0.4223 -0.3933  0.1044
   91SAPC   O14 8678   0.742   5.750   6.889 -0.3869 -0.4492  0.5842
   91SAPC   O12 8679   0.957   5.690   6.991 -0.0369 -0.4728 -0.0402
   91SAPC   O11 8680   0.926   5.912   6.879 -0.1193 -0.0371  0.6198
   91SAPC    C1 8681   1.034   5.971   6.804  0.1429 -0.3202  0.4128
   91SAPC    HA 8682   1.076   6.048   6.873 -1.0530  1.4399 -0.7219
   91SAPC    HB 8683   1.119   5.901   6.789 -0.7599 -1.1536 -0.9847
   91SAPC    C2 8684   0.990   6.038   6.669 -0.4837  0.5202 -0.5961
   91SAPC    HS 8685   0.991   5.955   6.596  0.1330 -0.2295  0.2502
   91SAPC   O21 8686   1.077   6.151   6.644  0.0070 -0.1253 -0.1525
   91SAPC   C21 8687   1.122   6.164   6.524 -1.2817 -0.1384  0.3487
   91SAPC   O22 8688   1.099   6.090   6.430  0.1325 -0.1787 -0.1306
   91SAPC   C22 8689   1.211   6.276   6.508 -0.1019 -0.9561 -0.8546
   91SAPC   H2R 8690   1.270   6.289   6.601  0.6863  0.5443 -1.5222
   91SAPC   H2S 8691   1.287   6.260   6.429  0.5747  0.2272 -0.4669
   91SAPC    C3 8692   0.847   6.096   6.674  0.4470  0.6315  0.2456
   91SAPC    HX 8693   0.843   6.169   6.758  0.2574  1.1309 -0.1974
   91SAPC    HY 8694   0.774   6.019   6.707  0.2974  1.0404  0.8928
   91SAPC   O31 8695   0.799   6.160   6.557  0.0180  0.1702  0.0304
   91SAPC   C31 8696   0.756   6.292   6.554  0.5943 -0.5457  0.2798
   91SAPC   O32 8697   0.762   6.367   6.649  0.0053 -0.3586 -0.2574
   91SAPC   C32 8698   0.698   6.317   6.419 -0.1510  0.2213 -0.2983
   91SAPC   H2X 8699   0.649   6.221   6.392 -1.0218  0.4823  0.3364
   91SAPC   H2Y 8700   0.781   6.330   6.346  0.0171 -2.2772 -0.6334
   91SAPC   C23 8701   1.135   6.403   6.465  0.2074  0.0587 -0.1736
   91SAPC   H3R 8702   1.217   6.477   6.464  0.7910 -0.5670  0.1549
   91SAPC   H3S 8703   1.060   6.431   6.541 -2.4073 -0.6839 -2.3227
   91SAPC   C24 8704   1.067   6.385   6.332  0.0424  0.2185 -0.1276
   91SAPC   H4R 8705   1.004   6.294   6.322 -1.1533  1.2245 -2.9422
   91SAPC   H4S 8706   1.141   6.351   6.256 -1.7400  1.4380 -2.5581
   91SAPC   C25 8707   0.999   6.501   6.275 -0.3959  0.2939  0.2681
   91SAPC   H5R 8708   0.918   6.540   6.339 -0.1040  0.3872  0.5793
   91SAPC   C26 8709   1.038   6.556   6.154  0.1570  0.4032 -0.7532
   91SAPC   H6R 8710   0.979   6.641   6.114  0.4205  1.0591  0.2032
   91SAPC   C27 8711   1.157   6.515   6.064  0.1372 -0.2921 -0.2717
   91SAPC   H7R 8712   1.147   6.411   6.028 -1.7154  0.0431 -0.8530
   91SAPC   H7S 8713   1.250   6.514   6.124 -1.0996 -0.3492  1.7312
   91SAPC   C28 8714   1.191   6.613   5.956  1.1486 -0.4841  0.1175
   91SAPC   H8R 8715   1.213   6.716   5.985  0.9772 -0.4761  0.2221
   91SAPC   C29 8716   1.212   6.579   5.830 -0.1221 -0.0271 -0.0760
   91SAPC   H9R 8717   1.252   6.654   5.759 -0.2329 -0.8342 -1.0094
   91SAPC  C210 8718   1.202   6.448   5.757  0.1803  0.3055  0.0133
   91SAPC  H10R 8719   1.203   6.370   5.836 -0.8908 -0.0518 -0.3034
   91SAPC  H10S 8720   1.282   6.424   5.684  0.0474 -0.2063  0.0327
   91SAPC  C211 8721   1.067   6.442   5.688  0.4587  0.3071 -0.8446
   91SAPC  H11R 8722   0.986   6.393   5.743  0.8622  0.7046  0.1321
   91SAPC  C212 8723   1.055   6.469   5.559  0.3518 -0.0590 -0.9469
   91SAPC  H12R 8724   0.960   6.454   5.506 -0.4904  1.0102  0.1917
   91SAPC  C213 8725   1.168   6.510   5.468 -0.5862 -0.7293 -0.1937
   91SAPC  H13R 8726   1.240   6.426   5.457 -0.9985 -1.0227 -0.6338
   91SAPC  H13S 8727   1.224   6.591   5.521  1.0756 -1.2736 -1.0408
   91SAPC  C214 8728   1.130   6.569   5.334  0.3357  0.7776  0.3687
   91SAPC  H14R 8729   1.036   6.626   5.332  0.5306  1.0905 -1.3485
   91SAPC  C215 8730   1.198   6.560   5.214 -0.2575  0.1197 -0.0046
   91SAPC  H15R 8731   1.153   6.591   5.119 -1.7506 -0.6921  0.4171
   91SAPC  C216 8732   1.329   6.492   5.190 -0.3407  0.1732  0.5271
   91SAPC  H16R 8733   1.355   6.433   5.280 -1.8888 -0.1313  0.7908
   91SAPC  H16S 8734   1.413   6.564   5.176  0.9733 -0.5377  3.8791
   91SAPC  C217 8735   1.339   6.393   5.071  0.4179  0.3839  0.5121
   91SAPC  H17R 8736   1.269   6.307   5.076  0.7100  0.1644  0.8756
   91SAPC  H17S 8737   1.435   6.337   5.081 -1.0153 -2.1793  0.5684
   91SAPC  C218 8738   1.337   6.461   4.931 -0.3940 -0.1812 -0.1630
   91SAPC  H18R 8739   1.413   6.541   4.941  1.2993 -1.9592  3.3687
   91SAPC  H18S 8740   1.239   6.507   4.908 -0.5504 -0.2738  0.3114
   91SAPC  C219 8741   1.388   6.360   4.826 -0.4896 -0.1377 -1.1526
   91SAPC  H19R 8742   1.486   6.330   4.867 -1.0719 -0.3374  0.1375
   91SAPC  H19S 8743   1.405   6.411   4.728 -2.3921 -0.1064 -1.5014
   91SAPC  C220 8744   1.295   6.243   4.809  0.4384  0.6563 -0.0217
   91SAPC  H20R 8745   1.328   6.192   4.716 -0.8268 -1.7505  0.7852
   91SAPC  H20S 8746   1.190   6.278   4.796  0.0975  0.3078  1.6764
   91SAPC  H20T 8747   1.300   6.188   4.905 -1.5218  0.9967  0.3205
   91SAPC   C33 8748   0.594   6.433   6.404 -0.0939 -0.1046 -0.3323
   91SAPC   H3X 8749   0.650   6.528   6.410  0.8385 -0.6196 -0.6045
   91SAPC   H3Y 8750   0.517   6.419   6.484 -1.9307 -1.2827 -2.2124
   91SAPC   C34 8751   0.520   6.436   6.269 -0.8408  0.0242 -0.4662
   91SAPC   H4X 8752   0.447   6.519   6.276 -1.7303 -0.8071  0.2504
   91SAPC   H4Y 8753   0.461   6.348   6.236 -0.5868 -0.7725  1.1259
   91SAPC   C35 8754   0.608   6.465   6.149  0.4506 -0.0142 -0.2790
   91SAPC   H5X 8755   0.671   6.376   6.129  2.5195  1.4205 -0.4020
   91SAPC   H5Y 8756   0.672   6.551   6.177 -1.5665  1.2175  0.7820
   91SAPC   C36 8757   0.529   6.501   6.016 -0.2758  0.1029 -0.0495
   91SAPC   H6X 8758   0.488   6.603   6.027  1.3341  0.6530  1.2435
   91SAPC   H6Y 8759   0.458   6.423   5.981 -0.1533 -0.6607  1.3282
   91SAPC   C37 8760   0.633   6.515   5.905  0.2320  0.5043 -1.1446
   91SAPC   H7X 8761   0.688   6.418   5.900  0.1861  0.3396  0.8050
   91SAPC   H7Y 8762   0.701   6.600   5.928  0.0281  0.1599  0.9672
   91SAPC   C38 8763   0.568   6.544   5.777  0.6062  0.7024  0.6406
   91SAPC   H8X 8764   0.494   6.625   5.795 -1.0530 -0.2190 -1.5852
   91SAPC   H8Y 8765   0.500   6.462   5.745 -0.9611  1.8816  0.8533
   91SAPC   C39 8766   0.664   6.580   5.661 -0.3511 -0.3891 -0.3053
   91SAPC   H9X 8767   0.743   6.502   5.660  0.7637  0.7166 -0.9488
   91SAPC   H9Y 8768   0.714   6.674   5.693 -0.5154  0.4736 -2.3800
   91SAPC  C310 8769   0.582   6.609   5.536  0.4807  0.2723  1.0118
   91SAPC  H10X 8770   0.502   6.683   5.560 -3.1589 -2.7456 -0.7062
   91SAPC  H10Y 8771   0.529   6.514   5.515 -1.7000  1.4895  0.6357
   91SAPC  C311 8772   0.668   6.657   5.415 -0.2104 -0.0219  0.8480
   91SAPC  H11X 8773   0.755   6.589   5.400  0.0625 -0.1257  2.6513
   91SAPC  H11Y 8774   0.710   6.753   5.453 -1.7371  1.9067 -1.9728
   91SAPC  C312 8775   0.605   6.698   5.277  0.3564  0.0855  0.2175
   91SAPC  H12X 8776   0.683   6.711   5.200  0.8600  3.5210  1.1471
   91SAPC  H12Y 8777   0.548   6.793   5.281 -0.8434 -0.6077  0.1298
   91SAPC  C313 8778   0.509   6.600   5.219 -0.0564 -0.2982 -0.0937
   91SAPC  H13X 8779   0.422   6.610   5.286 -0.5023 -1.9086 -0.3866
   91SAPC  H13Y 8780   0.555   6.499   5.233  1.5755  0.4426  0.1541
   91SAPC  C314 8781   0.465   6.630   5.076 -0.3781  0.8775 -1.2755
   91SAPC  H14X 8782   0.565   6.642   5.029  2.1359 -1.3247  2.8369
   91SAPC  H14Y 8783   0.406   6.723   5.087 -0.1323  0.8080  1.1788
   91SAPC  C315 8784   0.385   6.517   5.016  0.1885  0.3637  0.5744
   91SAPC  H15X 8785   0.295   6.507   5.081 -2.1492  0.3433 -2.4372
   91SAPC  H15Y 8786   0.448   6.427   5.002  1.6733  1.6785 -1.7752
   91SAPC  C316 8787   0.347   6.551   4.872 -0.3625 -0.6742  0.6211
   91SAPC  H16X 8788   0.443   6.560   4.816 -0.0782  1.8574  1.4160
   91SAPC  H16Y 8789   0.301   6.652   4.865  1.5725  0.3055  1.4335
   91SAPC  C317 8790   0.244   6.455   4.808 -0.0509 -0.0955  0.3747
   91SAPC  H17X 8791   0.280   6.350   4.816 -0.3194 -0.1555  0.7894
   91SAPC  H17Y 8792   0.229   6.480   4.701  1.7614  3.4869  0.7951
   91SAPC  C318 8793   0.111   6.473   4.882 -0.4710  0.4245  0.8840
   91SAPC  H18X 8794   0.064   6.569   4.852  0.8830  0.1143 -2.7281
   91SAPC  H18Y 8795   0.121   6.469   4.993  1.4027  1.0721  0.7793
   91SAPC  H18Z 8796   0.037   6.397   4.848  0.1813  0.5703 -1.0002
   92SAPC     N 8797   5.933   6.658   7.063 -0.3383  0.1959  0.3202
   92SAPC   C12 8798   5.968   6.514   7.106  0.1507 -0.6396 -0.4129
   92SAPC  H12A 8799   6.043   6.513   7.184  1.1904  1.2015 -1.3101
   92SAPC  H12B 8800   6.010   6.468   7.018  1.4676  0.3904 -0.3555
   92SAPC   C13 8801   5.805   6.658   6.984 -0.3642 -0.0128  0.6847
   92SAPC  H13A 8802   5.778   6.761   6.965 -2.8910 -0.0708  3.3930
   92SAPC  H13B 8803   5.822   6.606   6.891 -2.1342  1.4696 -0.5393
   92SAPC  H13C 8804   5.723   6.609   7.032 -1.5319  1.2124  0.0112
   92SAPC   C14 8805   5.917   6.740   7.186 -0.3616  0.1527  0.2662
   92SAPC  H14A 8806   5.829   6.705   7.237  1.5507 -0.7323  3.1646
   92SAPC  H14B 8807   6.009   6.740   7.243  0.0500  2.9956 -0.2392
   92SAPC  H14C 8808   5.908   6.843   7.153  2.3117  0.6504  0.7897
   92SAPC   C15 8809   6.045   6.714   6.982 -0.0425  0.8393 -0.1735
   92SAPC  H15A 8810   6.064   6.648   6.898  2.1241  1.3275 -0.1351
   92SAPC  H15B 8811   6.034   6.818   6.955 -0.2166  1.0943  0.8696
   92SAPC  H15C 8812   6.132   6.701   7.045 -0.0011 -3.2939 -0.8468
   92SAPC   C11 8813   5.854   6.422   7.175 -0.0599 -0.4950 -0.0683
   92SAPC  H11A 8814   5.800   6.485   7.249 -0.0864  0.2853 -0.7479
   92SAPC  H11B 8815   5.892   6.338   7.238 -1.8034 -0.6542  0.8488
   92SAPC     P 8816   5.812   6.247   6.985  0.0320 -0.2829 -0.6701
   92SAPC   O13 8817   5.801   6.118   7.062 -0.6105 -0.3725 -0.0250
   92SAPC   O14 8818   5.742   6.251   6.857 -0.2113 -0.7368  0.0914
   92SAPC   O12 8819   5.765   6.367   7.082 -0.2481  0.6169  0.0534
   92SAPC   O11 8820   5.967   6.273   6.975  0.8856 -0.4884  0.3295
   92SAPC    C1 8821   6.055   6.198   6.893  0.4752 -0.0765  0.4192
   92SAPC    HA 8822   6.142   6.167   6.956  1.5622  0.4091 -0.7880
   92SAPC    HB 8823   6.011   6.106   6.849 -1.1993  0.2925  1.2742
   92SAPC    C2 8824   6.111   6.292   6.784 -0.7641  0.4841  0.0704
   92SAPC    HS 8825   6.142   6.385   6.838  2.4364  1.0206 -2.4176
   92SAPC   O21 8826   6.025   6.310   6.673  0.0555 -0.1495  0.0375
   92SAPC   C21 8827   5.946   6.413   6.681  0.0132 -0.5400  0.6215
   92SAPC   O22 8828   5.937   6.499   6.770 -0.4414  0.0057 -0.5485
   92SAPC   C22 8829   5.861   6.417   6.552 -0.3233  0.2876 -0.2782
   92SAPC   H2R 8830   5.893   6.341   6.478  0.8226 -0.6436  1.1138
   92SAPC   H2S 8831   5.754   6.408   6.583 -0.4171  0.9555 -0.4034
   92SAPC    C3 8832   6.240   6.226   6.727 -0.9714  0.2860  0.0277
   92SAPC    HX 8833   6.224   6.117   6.708  0.6578  0.2636 -1.4197
   92SAPC    HY 8834   6.316   6.243   6.806 -2.8068  1.6030  1.6189
   92SAPC   O31 8835   6.291   6.295   6.609  0.2556  0.2092  0.3709
   92SAPC   C31 8836   6.287   6.236   6.494 -0.3288  0.7000 -0.5681
   92SAPC   O32 8837   6.260   6.117   6.472 -0.2254 -0.1066  0.1223
   92SAPC   C32 8838   6.299   6.345   6.381 -0.2644 -0.3752  0.6290
   92SAPC   H2X 8839   6.402   6.386   6.383  0.4458 -2.0682  1.6215
   92SAPC   H2Y 8840   6.222   6.424   6.392 -0.1883  0.1898 -2.1595
   92SAPC   C23 8841   5.870   6.553   6.480  0.2157  1.1969  0.1757
   92SAPC   H3R 8842   5.969   6.557   6.432  0.0134  1.4842 -0.2212
   92SAPC   H3S 8843   5.873   6.631   6.559 -1.2895  1.6142 -0.1321
   92SAPC   C24 8844   5.768   6.586   6.374 -0.6163 -0.0306 -0.3999
   92SAPC   H4R 8845   5.784   6.695   6.357 -1.3203  0.3372  1.1117
   92SAPC   H4S 8846   5.665   6.574   6.415 -0.7628 -0.6088 -0.9255
   92SAPC   C25 8847   5.778   6.502   6.248 -0.6625  0.1435 -0.0914
   92SAPC   H5R 8848   5.733   6.402   6.250 -0.6267  0.1281  1.9204
   92SAPC   C26 8849   5.835   6.541   6.129  0.9595 -0.0349 -0.3898
   92SAPC   H6R 8850   5.822   6.460   6.056 -0.5908 -1.6862  1.6111
   92SAPC   C27 8851   5.893   6.678   6.086  0.4389 -0.2971 -0.7914
   92SAPC   H7R 8852   5.969   6.663   6.007  0.4377 -1.5655 -0.5786
   92SAPC   H7S 8853   5.956   6.714   6.170  0.0929 -1.0896 -0.1738
   92SAPC   C28 8854   5.803   6.794   6.050 -0.0091  0.1085  0.5678
   92SAPC   H8R 8855   5.749   6.848   6.129 -3.4597 -0.8168 -0.9758
   92SAPC   C29 8856   5.787   6.830   5.921  0.1024  0.2972 -0.2383
   92SAPC   H9R 8857   5.719   6.916   5.911  0.3260  0.4413 -0.5439
   92SAPC  C210 8858   5.857   6.773   5.798 -0.5333 -0.6938  0.7017
   92SAPC  H10R 8859   5.773   6.733   5.736 -1.1224  1.1121  0.2738
   92SAPC  H10S 8860   5.928   6.690   5.818 -1.1642 -1.5167 -0.3427
   92SAPC  C211 8861   5.938   6.885   5.731  0.2992 -0.5437 -0.1602
   92SAPC  H11R 8862   6.012   6.936   5.795  1.1672 -0.2420 -1.3541
   92SAPC  C212 8863   5.931   6.919   5.598  0.2428 -0.8413  0.3366
   92SAPC  H12R 8864   5.995   6.999   5.557 -0.1577 -0.4235  0.5150
   92SAPC  C213 8865   5.837   6.862   5.493  0.3492  0.3226 -0.2411
   92SAPC  H13R 8866   5.811   6.937   5.416  0.8748 -1.4480 -2.2102
   92SAPC  H13S 8867   5.742   6.841   5.547  0.5141 -2.9419 -1.0046
   92SAPC  C214 8868   5.885   6.734   5.428  0.2900  0.0635  0.1073
   92SAPC  H14R 8869   5.884   6.642   5.489  0.1761 -1.6675 -2.3530
   92SAPC  C215 8870   5.927   6.725   5.301  0.5274 -0.2273 -0.0536
   92SAPC  H15R 8871   5.955   6.623   5.268  0.6351 -0.0446 -0.5317
   92SAPC  C216 8872   5.934   6.832   5.195 -1.0853  0.1559 -0.4112
   92SAPC  H16R 8873   5.982   6.928   5.222 -1.0489 -0.2268  0.9711
   92SAPC  H16S 8874   5.830   6.860   5.171 -1.1181 -0.1964 -0.6937
   92SAPC  C217 8875   5.992   6.780   5.053  0.6378  0.6963 -0.3104
   92SAPC  H17R 8876   6.100   6.755   5.065  0.5780  0.2902 -0.5744
   92SAPC  H17S 8877   5.992   6.862   4.978 -1.0268  1.2182  0.2368
   92SAPC  C218 8878   5.910   6.659   5.006 -0.1198 -0.4576 -0.6090
   92SAPC  H18R 8879   5.803   6.663   5.037  0.1101  2.9130  0.1674
   92SAPC  H18S 8880   5.954   6.574   5.061 -0.3560  0.6114  1.3360
   92SAPC  C219 8881   5.896   6.629   4.860  0.0228  0.4451  0.6295
   92SAPC  H19R 8882   5.862   6.523   4.853 -1.5234  0.9359  0.4441
   92SAPC  H19S 8883   5.992   6.637   4.806  0.5836 -1.1948  1.3052
   92SAPC  C220 8884   5.805   6.724   4.794  0.3386  0.5188  0.5075
   92SAPC  H20R 8885   5.710   6.704   4.847  0.4670  1.2890  1.0561
   92SAPC  H20S 8886   5.785   6.692   4.690 -0.4009  3.5587 -0.3821
   92SAPC  H20T 8887   5.847   6.827   4.804  1.1048  0.6094 -2.5480
   92SAPC   C33 8888   6.279   6.280   6.241  0.8757 -0.1590 -0.0318
   92SAPC   H3X 8889   6.173   6.250   6.240  0.6946  0.4160  0.8094
   92SAPC   H3Y 8890   6.363   6.210   6.219  2.7722  1.9916 -0.0831
   92SAPC   C34 8891   6.291   6.383   6.129 -0.0969 -0.5375 -0.0934
   92SAPC   H4X 8892   6.389   6.434   6.128  0.8399 -2.2970 -1.1268
   92SAPC   H4Y 8893   6.215   6.464   6.140 -0.1733 -0.6723  0.4129
   92SAPC   C35 8894   6.261   6.324   5.994 -0.4542 -0.7080  0.4413
   92SAPC   H5X 8895   6.163   6.273   5.998 -1.4692  0.9759 -0.9610
   92SAPC   H5Y 8896   6.327   6.241   5.961 -0.0709  0.3233 -1.5914
   92SAPC   C36 8897   6.253   6.429   5.883  0.4698 -0.2540 -0.6436
   92SAPC   H6X 8898   6.330   6.507   5.895  0.8559 -0.8556  1.1104
   92SAPC   H6Y 8899   6.152   6.472   5.900  0.6060 -0.2842  0.2997
   92SAPC   C37 8900   6.262   6.355   5.755 -0.0575 -0.2332 -0.3835
   92SAPC   H7X 8901   6.184   6.277   5.763 -1.2550  1.0960  1.4353
   92SAPC   H7Y 8902   6.361   6.307   5.739 -0.3138 -0.8809 -0.0458
   92SAPC   C38 8903   6.242   6.445   5.636  0.5652 -0.4335  0.1313
   92SAPC   H8X 8904   6.323   6.521   5.638  1.6206 -1.5374  0.9200
   92SAPC   H8Y 8905   6.147   6.499   5.655  0.2653  0.2628 -2.8741
   92SAPC   C39 8906   6.231   6.362   5.511 -0.2082  0.8393 -0.1224
   92SAPC   H9X 8907   6.182   6.265   5.533  0.2384  1.3747  3.9167
   92SAPC   H9Y 8908   6.331   6.344   5.467 -1.0376 -1.4144 -1.2281
   92SAPC  C310 8909   6.150   6.413   5.387  0.2741 -0.7741 -0.4403
   92SAPC  H10X 8910   6.183   6.517   5.366  0.5041 -0.5280  1.0166
   92SAPC  H10Y 8911   6.041   6.416   5.408  0.3680 -0.7944  0.0565
   92SAPC  C311 8912   6.179   6.331   5.255  0.4041  0.5808 -0.7063
   92SAPC  H11X 8913   6.152   6.224   5.269  0.5808  0.4466 -1.3828
   92SAPC  H11Y 8914   6.288   6.345   5.242  1.0371 -1.8168  1.1030
   92SAPC  C312 8915   6.123   6.383   5.125  0.4185  0.1470 -0.2042
   92SAPC  H12X 8916   6.132   6.493   5.130 -0.9700  0.2313  1.4346
   92SAPC  H12Y 8917   6.015   6.360   5.139  0.4251  0.8845  1.3376
   92SAPC  C313 8918   6.184   6.308   4.999  0.1890 -0.4800 -0.7777
   92SAPC  H13X 8919   6.172   6.200   5.021 -0.4603 -0.0786  1.0496
   92SAPC  H13Y 8920   6.291   6.337   5.009 -0.4096  1.4645  0.6370
   92SAPC  C314 8921   6.122   6.369   4.873 -0.0478  0.0835 -0.5616
   92SAPC  H14X 8922   6.159   6.473   4.885  0.2469 -0.3045  2.4792
   92SAPC  H14Y 8923   6.013   6.356   4.889  0.1529 -1.3792 -0.2841
   92SAPC  C315 8924   6.170   6.309   4.739  0.1924  0.5239 -0.6182
   92SAPC  H15X 8925   6.131   6.209   4.712  0.4097  0.0492  0.7596
   92SAPC  H15Y 8926   6.281   6.303   4.744  0.2255  2.0595  2.0225
   92SAPC  C316 8927   6.133   6.402   4.620  0.2789 -0.7460 -0.4921
   92SAPC  H16X 8928   6.173   6.502   4.646 -0.8367 -0.6975  1.1999
   92SAPC  H16Y 8929   6.023   6.409   4.604  0.2070  2.0823  0.6229
   92SAPC  C317 8930   6.202   6.361   4.491 -0.7595 -0.1849  0.1869
   92SAPC  H17X 8931   6.186   6.254   4.466  0.4047 -0.1076 -0.9740
   92SAPC  H17Y 8932   6.311   6.383   4.501 -1.1309  2.2576 -0.4135
   92SAPC  C318 8933   6.162   6.455   4.377  0.0754  0.5778 -0.8452
   92SAPC  H18X 8934   6.154   6.555   4.424 -0.9168 -0.7680  2.1540
   92SAPC  H18Y 8935   6.062   6.436   4.332 -0.9734  1.0674  1.1348
   92SAPC  H18Z 8936   6.230   6.464   4.290 -0.7737  2.0699 -1.3844
   93SAPC     N 8937   1.966   0.354   6.935 -0.0402 -0.9828  0.1357
   93SAPC   C12 8938   1.876   0.249   6.866 -0.3413 -0.3157 -0.4541
   93SAPC  H12A 8939   1.790   0.234   6.929  0.6699 -0.1649  0.9989
   93SAPC  H12B 8940   1.917   0.150   6.878  0.1791  0.0476  0.9347
   93SAPC   C13 8941   1.913   0.487   6.917  0.1475 -0.5372 -0.2390
   93SAPC  H13A 8942   1.807   0.499   6.933  0.6944  2.0668  2.5344
   93SAPC  H13B 8943   1.965   0.560   6.977  0.0365 -0.8970  0.3081
   93SAPC  H13C 8944   1.921   0.513   6.813  0.0762 -1.7065 -0.5402
   93SAPC   C14 8945   1.973   0.325   7.082 -0.0155  0.1122 -0.4594
   93SAPC  H14A 8946   1.877   0.343   7.128  1.3918  4.5691  1.3336
   93SAPC  H14B 8947   2.011   0.227   7.106  0.1620  0.4744  0.8284
   93SAPC  H14C 8948   2.037   0.398   7.129  0.9510  0.5156 -2.3257
   93SAPC   C15 8949   2.112   0.345   6.879  0.4164  0.0560 -0.4636
   93SAPC  H15A 8950   2.119   0.370   6.774 -2.6978  0.6642 -0.5978
   93SAPC  H15B 8951   2.167   0.426   6.925  0.5065 -0.6927  0.7864
   93SAPC  H15C 8952   2.149   0.244   6.890 -1.6331 -0.6681  0.0547
   93SAPC   C11 8953   1.848   0.259   6.715  0.3503 -1.3761 -0.0755
   93SAPC  H11A 8954   1.801   0.165   6.679 -0.5758 -2.4479  3.5185
   93SAPC  H11B 8955   1.951   0.259   6.673  0.3129  1.4934 -0.3493
   93SAPC     P 8956   1.631   0.385   6.721 -0.0732  0.1497 -0.0127
   93SAPC   O13 8957   1.565   0.256   6.742 -0.0213  0.5994 -0.0645
   93SAPC   O14 8958   1.609   0.495   6.814  0.1777 -0.0178 -0.0292
   93SAPC   O12 8959   1.785   0.385   6.687  0.2301  0.2344  0.2871
   93SAPC   O11 8960   1.575   0.442   6.584  0.1506 -0.4773 -0.9888
   93SAPC    C1 8961   1.580   0.373   6.460  0.5828  0.5113 -0.2860
   93SAPC    HA 8962   1.685   0.370   6.423  0.3472  2.0184 -1.1843
   93SAPC    HB 8963   1.541   0.270   6.480 -0.6486  1.2123  1.1116
   93SAPC    C2 8964   1.478   0.427   6.363  0.1295 -0.1599  0.4297
   93SAPC    HS 8965   1.478   0.359   6.276 -1.9315  2.4874 -1.8056
   93SAPC   O21 8966   1.507   0.563   6.329 -0.6168 -0.0437 -0.3465
   93SAPC   C21 8967   1.618   0.588   6.255  0.0253 -0.0335 -0.2540
   93SAPC   O22 8968   1.690   0.506   6.203  0.2574 -0.5538  0.4358
   93SAPC   C22 8969   1.660   0.736   6.259  0.4400  0.5130 -0.0083
   93SAPC   H2R 8970   1.670   0.768   6.365 -0.5619  0.2920  0.1615
   93SAPC   H2S 8971   1.759   0.748   6.209  0.4760  2.6735  0.4636
   93SAPC    C3 8972   1.331   0.408   6.419  0.7328  0.1511  0.3618
   93SAPC    HX 8973   1.329   0.440   6.525  0.5232  0.1515  0.3583
   93SAPC    HY 8974   1.317   0.298   6.425 -3.1629  0.5173  0.1201
   93SAPC   O31 8975   1.227   0.454   6.328 -0.6965  0.0321 -0.1624
   93SAPC   C31 8976   1.201   0.586   6.342 -0.5514  0.4644  0.8652
   93SAPC   O32 8977   1.250   0.663   6.421 -0.0591  0.5028 -0.0286
   93SAPC   C32 8978   1.076   0.625   6.265 -0.3584  0.1802  0.1302
   93SAPC   H2X 8979   1.070   0.733   6.241  2.3313  1.2746  3.5714
   93SAPC   H2Y 8980   0.985   0.596   6.322 -1.6157  0.5929 -1.5714
   93SAPC   C23 8981   1.552   0.816   6.190 -0.0954 -0.3387 -0.3092
   93SAPC   H3R 8982   1.569   0.925   6.203  2.1316 -0.6650 -0.1903
   93SAPC   H3S 8983   1.454   0.794   6.238 -1.7415 -0.0358 -3.2673
   93SAPC   C24 8984   1.524   0.786   6.039 -1.1007 -0.4587  0.2771
   93SAPC   H4R 8985   1.450   0.853   5.991  0.3980 -0.9834 -3.0508
   93SAPC   H4S 8986   1.495   0.679   6.038  0.2092 -0.8440  0.7631
   93SAPC   C25 8987   1.645   0.778   5.948  0.0839  0.0479 -0.0662
   93SAPC   H5R 8988   1.708   0.688   5.959  1.6679  1.1828  0.5668
   93SAPC   C26 8989   1.672   0.861   5.846  0.0396  0.2121 -0.5943
   93SAPC   H6R 8990   1.769   0.846   5.796 -0.4903  0.2817 -1.6772
   93SAPC   C27 8991   1.601   0.996   5.817 -0.5370 -0.1524  0.2199
   93SAPC   H7R 8992   1.614   1.066   5.902 -0.4534 -0.1555  0.2101
   93SAPC   H7S 8993   1.492   0.976   5.806 -0.6135  0.5026 -0.2679
   93SAPC   C28 8994   1.641   1.058   5.686  0.2181 -0.6114 -0.2636
   93SAPC   H8R 8995   1.700   1.150   5.697  1.7353 -1.0549 -3.4678
   93SAPC   C29 8996   1.618   1.020   5.563  0.1000  0.0809  0.4675
   93SAPC   H9R 8997   1.674   1.065   5.480 -0.4027 -1.0326 -0.5111
   93SAPC  C210 8998   1.543   0.894   5.518 -0.3121  0.3644 -0.8408
   93SAPC  H10R 8999   1.454   0.926   5.459 -1.6946  1.7276  1.7558
   93SAPC  H10S 9000   1.489   0.838   5.598  0.7440 -0.5215 -0.7347
   93SAPC  C211 9001   1.647   0.810   5.442  0.5491 -0.4940 -0.8156
   93SAPC  H11R 9002   1.696   0.740   5.511  0.3680 -0.8271 -1.0253
   93SAPC  C212 9003   1.677   0.819   5.313 -0.1577 -0.3874  0.2202
   93SAPC  H12R 9004   1.762   0.760   5.275  0.4156 -0.2208  1.2023
   93SAPC  C213 9005   1.615   0.914   5.219 -0.2657 -0.0625 -0.4132
   93SAPC  H13R 9006   1.574   1.001   5.275 -0.5199 -0.6180  0.2735
   93SAPC  H13S 9007   1.524   0.868   5.175 -1.6837  0.4595  1.8261
   93SAPC  C214 9008   1.700   0.961   5.100 -0.2212  0.2839 -0.9438
   93SAPC  H14R 9009   1.724   1.067   5.114 -0.6111  0.2760 -0.1518
   93SAPC  C215 9010   1.734   0.877   4.996 -0.0848 -0.9962  0.8034
   93SAPC  H15R 9011   1.805   0.909   4.918 -0.0566 -1.3013  0.7026
   93SAPC  C216 9012   1.713   0.732   4.966 -0.1516 -0.0129 -0.4770
   93SAPC  H16R 9013   1.648   0.681   5.041  2.6893  0.6888  2.7457
   93SAPC  H16S 9014   1.817   0.692   4.965  0.0224  0.3973  0.3859
   93SAPC  C217 9015   1.656   0.704   4.826  0.3387 -0.3049  0.1912
   93SAPC  H17R 9016   1.599   0.795   4.798  1.1624 -0.0954 -0.8771
   93SAPC  H17S 9017   1.579   0.624   4.831 -1.2218  1.1937  1.1912
   93SAPC  C218 9018   1.769   0.657   4.737 -0.2551 -0.3573 -0.0278
   93SAPC  H18R 9019   1.850   0.732   4.723  3.2504 -3.1106  3.2731
   93SAPC  H18S 9020   1.723   0.638   4.637 -2.3128  1.1463  0.5698
   93SAPC  C219 9021   1.820   0.519   4.777  0.0494 -0.5735 -0.0913
   93SAPC  H19R 9022   1.750   0.435   4.756 -1.7409 -0.1400  3.4180
   93SAPC  H19S 9023   1.824   0.507   4.887  0.9353 -0.8873 -0.1505
   93SAPC  C220 9024   1.960   0.495   4.728 -0.5293 -0.2219  0.2028
   93SAPC  H20R 9025   1.956   0.495   4.617  0.3887  0.3077  0.1524
   93SAPC  H20S 9026   2.011   0.402   4.764  1.3257  0.3356 -0.8267
   93SAPC  H20T 9027   2.030   0.577   4.755  0.1902 -0.3146 -1.2576
   93SAPC   C33 9028   1.077   0.544   6.133  0.1343  0.0466 -0.5852
   93SAPC   H3X 9029   0.979   0.567   6.087  1.0947  0.4498 -2.5415
   93SAPC   H3Y 9030   1.078   0.434   6.150 -1.3851  0.2809  1.4697
   93SAPC   C34 9031   1.188   0.580   6.025  0.3960 -0.1208 -0.8258
   93SAPC   H4X 9032   1.287   0.542   6.058  0.2433  0.7827  0.7720
   93SAPC   H4Y 9033   1.191   0.691   6.023 -1.0095 -0.0437  0.2347
   93SAPC   C35 9034   1.157   0.532   5.883  0.2263 -0.7977 -0.3754
   93SAPC   H5X 9035   1.051   0.564   5.873  0.0603 -1.0739  0.3989
   93SAPC   H5Y 9036   1.160   0.421   5.875 -0.4134 -0.8089 -0.5272
   93SAPC   C36 9037   1.243   0.584   5.769  0.5710  0.0300  0.5842
   93SAPC   H6X 9038   1.343   0.540   5.784  0.9031 -0.7005 -2.8983
   93SAPC   H6Y 9039   1.258   0.693   5.785 -0.2204  0.2725 -0.1812
   93SAPC   C37 9040   1.193   0.555   5.630 -0.2508  0.5574  0.5161
   93SAPC   H7X 9041   1.084   0.578   5.624 -0.1747  0.6143 -0.7399
   93SAPC   H7Y 9042   1.203   0.450   5.597  2.7569  1.4275 -1.8379
   93SAPC   C38 9043   1.264   0.648   5.532  0.2584  0.2764 -0.3369
   93SAPC   H8X 9044   1.370   0.620   5.543 -0.3461 -2.0701 -0.0408
   93SAPC   H8Y 9045   1.248   0.753   5.567 -2.8939 -0.6210  1.3489
   93SAPC   C39 9046   1.215   0.633   5.389 -0.6530  0.0357  0.4969
   93SAPC   H9X 9047   1.109   0.661   5.402  0.0333  2.2611  1.9601
   93SAPC   H9Y 9048   1.218   0.532   5.344  0.9882  0.6365 -0.8510
   93SAPC  C310 9049   1.262   0.740   5.290 -0.0687  0.5505 -0.2973
   93SAPC  H10X 9050   1.373   0.730   5.284  0.2410  1.7662  2.0500
   93SAPC  H10Y 9051   1.248   0.843   5.329  1.2605  0.6135  0.0788
   93SAPC  C311 9052   1.188   0.734   5.163 -0.0095  0.7820  0.3144
   93SAPC  H11X 9053   1.077   0.735   5.165 -0.0269  0.1762  2.8065
   93SAPC  H11Y 9054   1.212   0.642   5.106 -0.5853  1.1797 -0.6000
   93SAPC  C312 9055   1.228   0.849   5.072 -0.4292  0.4727 -0.3458
   93SAPC  H12X 9056   1.304   0.906   5.129 -1.6168  0.5788  1.2208
   93SAPC  H12Y 9057   1.139   0.911   5.048 -0.3182 -0.1985 -2.7550
   93SAPC  C313 9058   1.287   0.805   4.934 -1.3273 -0.5494 -0.6380
   93SAPC  H13X 9059   1.220   0.722   4.902  1.0058 -2.1513 -1.7361
   93SAPC  H13Y 9060   1.389   0.765   4.955 -1.5854 -0.6617  0.5081
   93SAPC  C314 9061   1.304   0.909   4.825 -0.8044  0.3615 -0.1537
   93SAPC  H14X 9062   1.213   0.970   4.812  0.8263  2.9347 -0.2081
   93SAPC  H14Y 9063   1.320   0.859   4.727  2.5230  1.5813 -0.3632
   93SAPC  C315 9064   1.406   1.023   4.841  0.2824  0.2464  0.0185
   93SAPC  H15X 9065   1.513   1.001   4.820 -0.3504 -1.7912 -1.3370
   93SAPC  H15Y 9066   1.414   1.048   4.949 -0.5754  0.6606 -0.0115
   93SAPC  C316 9067   1.381   1.144   4.748  0.4170 -0.4182  0.0843
   93SAPC  H16X 9068   1.296   1.209   4.780  0.0852 -1.4953  1.4724
   93SAPC  H16Y 9069   1.363   1.101   4.648  3.1565  0.1264 -0.7395
   93SAPC  C317 9070   1.509   1.234   4.735 -0.7373 -0.0504 -0.2785
   93SAPC  H17X 9071   1.583   1.172   4.680  0.3002 -1.0980  2.1558
   93SAPC  H17Y 9072   1.553   1.248   4.836  0.9809  0.7724 -1.1026
   93SAPC  C318 9073   1.500   1.370   4.660 -0.0670  0.1314 -0.2862
   93SAPC  H18X 9074   1.604   1.405   4.644  0.4820 -1.7287 -1.0986
   93SAPC  H18Y 9075   1.453   1.452   4.719  1.4100  1.2298 -0.6030
   93SAPC  H18Z 9076   1.444   1.353   4.566 -0.2043 -2.5895  0.1987
   94SAPC     N 9077   0.138   6.385   7.279 -0.4534  0.3811 -0.1480
   94SAPC   C12 9078   0.182   6.530   7.251  0.3623 -0.7774 -0.5047
   94SAPC  H12A 9079   0.274   6.543   7.307 -0.2244  2.1480 -0.0690
   94SAPC  H12B 9080   0.103   6.589   7.294 -1.1835 -2.2323 -1.2403
   94SAPC   C13 9081   0.105   6.368   7.423  0.1473  0.4701  0.2903
   94SAPC  H13A 9082   0.186   6.402   7.486 -0.6779  0.1755  1.5311
   94SAPC  H13B 9083   0.020   6.432   7.443 -0.8799  0.4276 -3.2323
   94SAPC  H13C 9084   0.085   6.264   7.441  0.1764  0.3960 -0.0895
   94SAPC   C14 9085   0.021   6.364   7.196  0.5617 -0.1402 -1.1620
   94SAPC  H14A 9086  -0.019   6.264   7.208  2.0335 -0.5466  0.9084
   94SAPC  H14B 9087  -0.053   6.436   7.230  1.2917  0.1808 -0.2148
   94SAPC  H14C 9088   0.047   6.375   7.092 -0.3031 -1.9197 -1.6137
   94SAPC   C15 9089   0.254   6.304   7.251  0.0444  0.1611  0.3012
   94SAPC  H15A 9090   0.238   6.200   7.276  0.4964 -0.2627 -1.0507
   94SAPC  H15B 9091   0.271   6.322   7.146 -1.2462  0.1976  0.0862
   94SAPC  H15C 9092   0.332   6.337   7.318  2.2368 -0.5551 -1.7279
   94SAPC   C11 9093   0.213   6.585   7.114 -0.6756 -0.0532  0.1665
   94SAPC  H11A 9094   0.254   6.687   7.131  0.6484 -0.3146 -1.1636
   94SAPC  H11B 9095   0.122   6.584   7.050  0.1590 -1.7337 -1.0993
   94SAPC     P 9096   0.441   6.547   6.987 -0.0624  0.0467  0.2925
   94SAPC   O13 9097   0.522   6.634   7.075  0.1857 -0.0727 -0.5092
   94SAPC   O14 9098   0.512   6.432   6.926 -0.1161  0.5053  0.2200
   94SAPC   O12 9099   0.308   6.503   7.052  0.0266 -0.1707 -0.2709
   94SAPC   O11 9100   0.392   6.648   6.870 -0.2173 -0.2906 -0.4297
   94SAPC    C1 9101   0.327   6.593   6.755  0.8658 -0.9931 -0.0791
   94SAPC    HA 9102   0.388   6.547   6.674  0.0640  1.9984 -2.5808
   94SAPC    HB 9103   0.266   6.504   6.783 -0.7380  0.3106  0.7436
   94SAPC    C2 9104   0.226   6.692   6.698 -0.3113 -0.2861  0.4404
   94SAPC    HS 9105   0.174   6.642   6.613  4.1509 -0.7312 -2.3660
   94SAPC   O21 9106   0.292   6.807   6.644  0.0110 -0.0213 -0.0947
   94SAPC   C21 9107   0.364   6.776   6.533  0.6602 -0.7177 -0.3603
   94SAPC   O22 9108   0.356   6.672   6.471  0.1140  0.2686  0.7431
   94SAPC   C22 9109   0.473   6.882   6.510  0.0195  0.2902  0.6209
   94SAPC   H2R 9110   0.451   6.933   6.414  1.6710  1.3183  0.7542
   94SAPC   H2S 9111   0.465   6.966   6.582  0.1987  0.9504 -0.1205
   94SAPC    C3 9112   0.113   6.745   6.788  0.1429  0.0897 -0.0560
   94SAPC    HX 9113   0.144   6.807   6.875 -2.0935  0.8128  0.3052
   94SAPC    HY 9114   0.090   6.646   6.833  1.7405 -0.3210 -0.0840
   94SAPC   O31 9115   0.003   6.803   6.707  0.1524 -0.0273  0.2665
   94SAPC   C31 9116   0.023   6.932   6.688  0.0765 -0.6751  0.8932
   94SAPC   O32 9117   0.107   7.003   6.730  0.9940 -0.6216 -0.0502
   94SAPC   C32 9118  -0.085   6.982   6.590 -0.6563  0.4603  0.2697
   94SAPC   H2X 9119  -0.143   7.058   6.648 -0.0617  1.6573 -0.6820
   94SAPC   H2Y 9120  -0.143   6.896   6.552 -0.1766  0.2891 -0.0811
   94SAPC   C23 9121   0.614   6.820   6.517 -0.1326  1.0117  0.6568
   94SAPC   H3R 9122   0.610   6.741   6.439  1.4586 -0.5531  2.0762
   94SAPC   H3S 9123   0.629   6.767   6.613  0.3084  1.2614  0.7255
   94SAPC   C24 9124   0.732   6.912   6.494  0.0366 -0.6752 -0.4188
   94SAPC   H4R 9125   0.750   6.960   6.592 -2.0402 -1.0156  0.1691
   94SAPC   H4S 9126   0.713   7.000   6.429  3.4442  0.9479  0.5060
   94SAPC   C25 9127   0.859   6.849   6.452 -0.2462  0.2277  0.7789
   94SAPC   H5R 9128   0.900   6.783   6.530  0.3823  0.0732  0.3254
   94SAPC   C26 9129   0.909   6.853   6.325 -0.6627 -0.8326  0.1544
   94SAPC   H6R 9130   1.007   6.807   6.304  0.0599  1.2229 -1.4045
   94SAPC   C27 9131   0.866   6.937   6.210 -0.4869 -0.1947  0.6755
   94SAPC   H7R 9132   0.949   6.967   6.142 -0.9317 -0.1557  0.1382
   94SAPC   H7S 9133   0.824   7.030   6.255 -1.8700 -0.7667  0.6066
   94SAPC   C28 9134   0.759   6.878   6.126  0.4948  0.0552 -0.4502
   94SAPC   H8R 9135   0.694   6.810   6.184 -0.1903  1.0247 -0.0590
   94SAPC   C29 9136   0.742   6.887   5.992  0.2055 -1.5574  0.6796
   94SAPC   H9R 9137   0.661   6.821   5.957 -0.1857 -0.3826 -0.7013
   94SAPC  C210 9138   0.823   6.959   5.883  0.0504 -0.3233 -0.0534
   94SAPC  H10R 9139   0.836   7.067   5.902 -1.7933 -0.0491 -0.1301
   94SAPC  H10S 9140   0.767   6.964   5.788 -1.8079 -0.4812  0.9751
   94SAPC  C211 9141   0.962   6.899   5.864  0.4791 -0.7165 -0.1642
   94SAPC  H11R 9142   1.018   6.872   5.955  0.0821 -1.6907 -0.2024
   94SAPC  C212 9143   1.025   6.875   5.746 -0.2553 -0.2842  0.1848
   94SAPC  H12R 9144   1.127   6.835   5.756  0.3368  0.7220 -1.4589
   94SAPC  C213 9145   0.978   6.895   5.600  0.1953 -0.5665  0.3334
   94SAPC  H13R 9146   0.935   6.998   5.602  1.0329 -0.1692 -0.8603
   94SAPC  H13S 9147   0.893   6.829   5.575  1.1812 -1.7184 -0.0418
   94SAPC  C214 9148   1.106   6.886   5.511 -0.0998 -0.1523  0.5525
   94SAPC  H14R 9149   1.206   6.887   5.556  0.5536  1.3064 -0.8104
   94SAPC  C215 9150   1.102   6.893   5.373  0.1449 -0.2562 -0.6099
   94SAPC  H15R 9151   1.197   6.881   5.320  0.1844 -0.9561 -0.3996
   94SAPC  C216 9152   0.979   6.904   5.278 -0.1058 -0.0442 -0.1262
   94SAPC  H16R 9153   0.888   6.901   5.342 -0.8485 -0.1541 -1.1657
   94SAPC  H16S 9154   0.974   6.817   5.209  0.8811  0.8349 -1.3550
   94SAPC  C217 9155   0.972   7.036   5.201 -0.1015  0.4356 -0.5706
   94SAPC  H17R 9156   0.961   7.119   5.274 -0.7370 -1.1781  1.2383
   94SAPC  H17S 9157   0.885   7.047   5.132 -0.5244  3.9658  0.2987
   94SAPC  C218 9158   1.090   7.078   5.109 -0.3366  0.2563 -0.4554
   94SAPC  H18R 9159   1.178   7.092   5.176 -1.8702 -0.1038  1.7314
   94SAPC  H18S 9160   1.063   7.171   5.055 -2.7946 -0.0439  0.1426
   94SAPC  C219 9161   1.125   6.975   5.003  0.0239 -0.4767  0.7085
   94SAPC  H19R 9162   1.126   6.875   5.051 -1.4011 -2.3639 -2.8070
   94SAPC  H19S 9163   1.222   7.006   4.960  0.5506 -1.3109  1.2624
   94SAPC  C220 9164   1.025   6.973   4.888 -0.2693 -0.2104  0.0812
   94SAPC  H20R 9165   0.932   6.915   4.904 -0.2931 -0.3825 -0.6658
   94SAPC  H20S 9166   1.068   6.929   4.796  1.0741  0.5206  0.3311
   94SAPC  H20T 9167   1.000   7.077   4.857  0.4092 -0.7054 -2.3310
   94SAPC   C33 9168  -0.011   7.049   6.468 -0.4397 -0.1053 -0.1515
   94SAPC   H3X 9169   0.063   6.978   6.426  0.7150  0.1697  1.3341
   94SAPC   H3Y 9170   0.049   7.138   6.494 -1.4251  0.5837 -0.1590
   94SAPC   C34 9171  -0.100   7.089   6.348 -0.9048 -0.1613  0.7494
   94SAPC   H4X 9172  -0.169   7.174   6.371 -0.7629 -0.1128  1.0005
   94SAPC   H4Y 9173  -0.163   7.001   6.320  0.3633 -0.2799 -2.0183
   94SAPC   C35 9174  -0.010   7.102   6.222  0.6161 -0.2240  0.9707
   94SAPC   H5X 9175   0.050   7.012   6.198  1.3934 -0.1385  2.5164
   94SAPC   H5Y 9176   0.052   7.192   6.243 -2.2421  2.1130  0.2786
   94SAPC   C36 9177  -0.089   7.133   6.094 -0.3498  0.3098  0.8483
   94SAPC   H6X 9178  -0.144   7.229   6.106 -2.6427 -0.8135 -0.0503
   94SAPC   H6Y 9179  -0.163   7.052   6.077  0.9886 -1.1302  1.6254
   94SAPC   C37 9180   0.004   7.142   5.965  0.9824  0.3872 -0.5937
   94SAPC   H7X 9181   0.081   7.062   5.973 -0.1195 -0.5858  0.8405
   94SAPC   H7Y 9182   0.061   7.233   5.992 -1.6448  2.1770 -0.7230
   94SAPC   C38 9183  -0.070   7.160   5.830 -0.4138  0.1986 -0.2655
   94SAPC   H8X 9184  -0.143   7.243   5.841 -2.0646 -0.7494 -3.0218
   94SAPC   H8Y 9185  -0.124   7.063   5.822 -0.8107  0.2811  1.1290
   94SAPC   C39 9186   0.029   7.192   5.715 -0.9952  0.0180  0.1495
   94SAPC   H9X 9187   0.105   7.111   5.716  0.0238  0.9342  1.8674
   94SAPC   H9Y 9188   0.093   7.282   5.725 -1.2176  0.2904 -0.7942
   94SAPC  C310 9189  -0.034   7.190   5.575  0.0252  0.0771 -0.0245
   94SAPC  H10X 9190  -0.099   7.100   5.572  1.2571 -0.8350 -1.2449
   94SAPC  H10Y 9191   0.049   7.193   5.501  0.7026 -1.4259  0.6167
   94SAPC  C311 9192  -0.124   7.316   5.547 -0.7534 -0.1645  0.0391
   94SAPC  H11X 9193  -0.061   7.403   5.576  1.8004 -2.7027  2.7300
   94SAPC  H11Y 9194  -0.216   7.313   5.608 -0.3299 -0.9192  0.6542
   94SAPC  C312 9195  -0.158   7.332   5.404  0.0661 -0.4613  0.0150
   94SAPC  H12X 9196  -0.059   7.328   5.354 -1.0571 -0.6667 -2.3632
   94SAPC  H12Y 9197  -0.200   7.433   5.384  0.5591 -0.0835  0.8731
   94SAPC  C313 9198  -0.254   7.232   5.348  0.4028  0.1090  0.4342
   94SAPC  H13X 9199  -0.347   7.226   5.408 -0.4447 -0.6872 -0.8966
   94SAPC  H13Y 9200  -0.212   7.130   5.357  1.5180  0.7232  2.8587
   94SAPC  C314 9201  -0.291   7.272   5.205  0.3339 -0.3270  0.3515
   94SAPC  H14X 9202  -0.199   7.304   5.152  1.1836 -2.5008  0.4368
   94SAPC  H14Y 9203  -0.356   7.362   5.214  1.2493  0.3753  0.0934
   94SAPC  C315 9204  -0.365   7.156   5.143  0.4768 -0.1031  0.6897
   94SAPC  H15X 9205  -0.464   7.157   5.194  0.4058  0.3108  0.5471
   94SAPC  H15Y 9206  -0.314   7.061   5.170 -0.7370 -0.0953  3.2292
   94SAPC  C316 9207  -0.380   7.158   4.989  0.2487 -0.0606  0.3683
   94SAPC  H16X 9208  -0.278   7.178   4.950  0.0193 -0.6997 -0.6129
   94SAPC  H16Y 9209  -0.443   7.243   4.956 -0.0345 -1.1708 -2.2573
   94SAPC  C317 9210  -0.456   7.027   4.951 -0.3013  0.5328  0.4825
   94SAPC  H17X 9211  -0.539   7.015   5.024 -0.9763 -1.1018 -0.5044
   94SAPC  H17Y 9212  -0.378   6.949   4.944  1.6127  2.4382 -0.4150
   94SAPC  C318 9213  -0.520   7.039   4.812  0.1872  0.0287  0.1468
   94SAPC  H18X 9214  -0.602   7.114   4.818 -0.3683 -0.6188  0.8688
   94SAPC  H18Y 9215  -0.570   6.943   4.785  0.7433  0.2549 -1.8815
   94SAPC  H18Z 9216  -0.445   7.071   4.737 -0.4865  1.3549  0.0055
   95SAPC     N 9217   4.014   1.009   2.269  0.6034 -0.1706  0.4148
   95SAPC   C12 9218   3.982   1.138   2.349 -0.1146 -0.2715  0.0633
   95SAPC  H12A 9219   3.942   1.213   2.282 -0.9020  0.5230  1.3716
   95SAPC  H12B 9220   4.080   1.176   2.376 -0.1856 -0.1852  0.1991
   95SAPC   C13 9221   3.890   0.968   2.190 -0.4018  0.3602 -0.0481
   95SAPC  H13A 9222   3.829   0.894   2.239  0.0961 -0.1233 -0.1541
   95SAPC  H13B 9223   3.837   1.060   2.171 -0.1664  0.0883 -2.3612
   95SAPC  H13C 9224   3.926   0.926   2.097  0.0226  1.2823 -0.3159
   95SAPC   C14 9225   4.113   1.026   2.160  0.5135  0.4048  0.0162
   95SAPC  H14A 9226   4.055   1.033   2.069 -1.8843  1.6014  1.5453
   95SAPC  H14B 9227   4.171   1.115   2.181  0.9362  0.3369 -0.8357
   95SAPC  H14C 9228   4.167   0.933   2.160 -2.5196 -1.5277 -2.2300
   95SAPC   C15 9229   4.068   0.900   2.355  0.4733  0.1858 -0.1159
   95SAPC  H15A 9230   4.174   0.916   2.367  1.2820 -2.7884 -2.0936
   95SAPC  H15B 9231   4.023   0.903   2.453  1.3335 -0.8579  0.3380
   95SAPC  H15C 9232   4.044   0.804   2.311  0.4870  1.8768 -4.2697
   95SAPC   C11 9233   3.880   1.127   2.459 -0.0183 -0.2656 -0.1569
   95SAPC  H11A 9234   3.782   1.092   2.420  0.2729 -1.5350  0.2103
   95SAPC  H11B 9235   3.855   1.227   2.499  1.7131  1.0456 -2.1466
   95SAPC     P 9236   4.001   1.090   2.687  0.2063  0.3955  0.1098
   95SAPC   O13 9237   3.991   0.984   2.788  0.2287 -0.0586 -0.3177
   95SAPC   O14 9238   4.134   1.140   2.650 -0.0923  0.1213  0.0783
   95SAPC   O12 9239   3.923   1.040   2.560 -0.4453 -0.4652  0.4630
   95SAPC   O11 9240   3.922   1.218   2.737  0.6338  0.4759  0.1498
   95SAPC    C1 9241   3.804   1.186   2.821 -0.2408  0.1834  1.1983
   95SAPC    HA 9242   3.736   1.115   2.769  0.6859 -1.2873  1.9328
   95SAPC    HB 9243   3.827   1.151   2.924  0.3063  2.4987  1.9196
   95SAPC    C2 9244   3.718   1.312   2.835 -0.4677  0.3100  0.0694
   95SAPC    HS 9245   3.697   1.351   2.733  0.6181  0.4347 -0.1255
   95SAPC   O21 9246   3.783   1.415   2.912  0.3548 -1.1648  0.6221
   95SAPC   C21 9247   3.742   1.539   2.881  0.2670  0.1507 -0.8036
   95SAPC   O22 9248   3.649   1.572   2.811 -0.2107  0.1322  0.1401
   95SAPC   C22 9249   3.834   1.642   2.954 -0.5102  0.3074  0.0656
   95SAPC   H2R 9250   3.873   1.595   3.047  1.7060  0.0862 -0.9240
   95SAPC   H2S 9251   3.931   1.661   2.902  0.1773 -1.0521  0.8060
   95SAPC    C3 9252   3.583   1.267   2.892 -0.5172 -0.1548 -0.2886
   95SAPC    HX 9253   3.542   1.184   2.831  0.1090 -1.2134  0.6905
   95SAPC    HY 9254   3.512   1.352   2.878  0.8706  0.8647 -1.4740
   95SAPC   O31 9255   3.597   1.221   3.029 -0.2545 -0.0521  0.2669
   95SAPC   C31 9256   3.578   1.316   3.124 -0.0545 -0.0663 -0.6486
   95SAPC   O32 9257   3.538   1.428   3.106 -0.0372 -0.4564  0.0732
   95SAPC   C32 9258   3.616   1.264   3.263 -0.4630  0.2975  0.3645
   95SAPC   H2X 9259   3.569   1.164   3.274 -3.0278  1.6050  2.2816
   95SAPC   H2Y 9260   3.571   1.329   3.340 -0.7682 -0.6775  1.0275
   95SAPC   C23 9261   3.768   1.778   2.983  0.3420  0.3696  1.3720
   95SAPC   H3R 9262   3.678   1.765   3.047 -0.6480  2.1902  0.4274
   95SAPC   H3S 9263   3.736   1.816   2.884 -1.1525  0.6623  1.9300
   95SAPC   C24 9264   3.867   1.872   3.036  0.4189  0.1016 -0.4041
   95SAPC   H4R 9265   3.953   1.880   2.967 -0.2067 -2.8744 -1.6508
   95SAPC   H4S 9266   3.907   1.830   3.131  2.3064  0.1139 -1.1526
   95SAPC   C25 9267   3.819   2.009   3.067 -0.9515  0.4006 -0.0884
   95SAPC   H5R 9268   3.798   2.074   2.981  2.3580  0.2663 -1.1071
   95SAPC   C26 9269   3.799   2.066   3.189 -0.4557 -0.5028 -0.1456
   95SAPC   H6R 9270   3.745   2.162   3.189 -2.3306 -1.4736 -2.4707
   95SAPC   C27 9271   3.800   2.003   3.324  0.2738 -0.0509  0.3103
   95SAPC   H7R 9272   3.868   1.915   3.328 -0.6546 -0.7352  2.7587
   95SAPC   H7S 9273   3.704   1.949   3.341  1.2444 -1.8478  0.3225
   95SAPC   C28 9274   3.824   2.098   3.432  1.0576 -0.1666 -0.4432
   95SAPC   H8R 9275   3.821   2.205   3.405 -1.9720 -0.4144 -1.4445
   95SAPC   C29 9276   3.849   2.080   3.564  0.4496 -0.1434  0.3504
   95SAPC   H9R 9277   3.874   2.172   3.617  1.7895 -0.7639  0.8248
   95SAPC  C210 9278   3.848   1.957   3.647  0.7583 -0.9992 -0.3925
   95SAPC  H10R 9279   3.937   1.955   3.713  1.0396  0.2072 -0.7110
   95SAPC  H10S 9280   3.840   1.869   3.579 -0.5236 -0.9932 -0.2719
   95SAPC  C211 9281   3.733   1.946   3.743 -0.3820  0.6466 -0.0588
   95SAPC  H11R 9282   3.645   1.894   3.701  0.5771 -0.1438 -1.1286
   95SAPC  C212 9283   3.726   1.975   3.876 -0.4656 -0.0820  0.0053
   95SAPC  H12R 9284   3.633   1.952   3.931 -1.2474  3.0457  0.1709
   95SAPC  C213 9285   3.822   2.056   3.957 -0.0904 -0.6349 -0.3285
   95SAPC  H13R 9286   3.763   2.149   3.973  1.0149 -0.1053  0.7864
   95SAPC  H13S 9287   3.908   2.082   3.893 -1.1474 -1.8834 -2.3661
   95SAPC  C214 9288   3.873   2.001   4.089 -0.4280 -0.1502  0.0096
   95SAPC  H14R 9289   3.983   1.998   4.087 -0.2598  3.1573 -1.7246
   95SAPC  C215 9290   3.809   1.987   4.204  0.4673  0.2331 -0.0944
   95SAPC  H15R 9291   3.875   1.945   4.281  0.5793 -0.0735 -0.3512
   95SAPC  C216 9292   3.669   2.021   4.239 -0.0617 -0.0971 -0.1732
   95SAPC  H16R 9293   3.620   2.046   4.143  0.8197 -0.9223 -0.8617
   95SAPC  H16S 9294   3.667   2.116   4.297 -2.1572  1.8989 -3.2256
   95SAPC  C217 9295   3.581   1.909   4.290  0.7705  0.3176 -0.3419
   95SAPC  H17R 9296   3.638   1.845   4.361  0.5390  0.6908  0.1915
   95SAPC  H17S 9297   3.563   1.843   4.203  2.6494 -0.4286 -0.2140
   95SAPC  C218 9298   3.449   1.958   4.355  0.2506 -0.6294  0.5716
   95SAPC  H18R 9299   3.466   2.051   4.413 -0.3503 -1.4927  2.1675
   95SAPC  H18S 9300   3.405   1.882   4.423 -1.0554  0.8986  1.5212
   95SAPC  C219 9301   3.332   1.980   4.258 -0.7741  0.4569  0.1786
   95SAPC  H19R 9302   3.309   1.888   4.200  1.8081 -1.5840  2.0977
   95SAPC  H19S 9303   3.369   2.056   4.186 -0.1490  0.6780  0.7203
   95SAPC  C220 9304   3.212   2.037   4.337  0.2908  0.0824 -1.1400
   95SAPC  H20R 9305   3.166   1.955   4.396 -1.2338 -0.8194 -3.4518
   95SAPC  H20S 9306   3.136   2.079   4.268 -0.2963 -0.5369 -0.8829
   95SAPC  H20T 9307   3.242   2.123   4.401  1.0659  0.3462 -1.8382
   95SAPC   C33 9308   3.768   1.263   3.281 -0.1663  0.5946 -0.7799
   95SAPC   H3X 9309   3.797   1.370   3.285 -0.4852  0.6333  1.4689
   95SAPC   H3Y 9310   3.818   1.213   3.195  0.1101  1.2025 -0.9803
   95SAPC   C34 9311   3.800   1.189   3.410 -0.0489 -0.4690 -0.1390
   95SAPC   H4X 9312   3.908   1.165   3.421 -0.3205 -2.7374 -1.6965
   95SAPC   H4Y 9313   3.753   1.088   3.410 -0.1049 -0.4480 -0.6746
   95SAPC   C35 9314   3.746   1.264   3.533  0.0411 -0.6251  0.2769
   95SAPC   H5X 9315   3.637   1.252   3.552 -0.2570  0.7168 -0.5024
   95SAPC   H5Y 9316   3.767   1.373   3.529 -0.4207 -0.5455 -0.0332
   95SAPC   C36 9317   3.808   1.196   3.656 -0.2930  0.1003 -0.9180
   95SAPC   H6X 9318   3.918   1.211   3.654 -0.1340 -0.6906  0.5494
   95SAPC   H6Y 9319   3.800   1.085   3.655  1.4870 -0.1359  1.2501
   95SAPC   C37 9320   3.755   1.248   3.788 -0.1570 -0.3572 -0.3554
   95SAPC   H7X 9321   3.646   1.265   3.804 -0.0415  0.8400 -0.7239
   95SAPC   H7Y 9322   3.788   1.354   3.787  0.7064 -0.5522  1.7618
   95SAPC   C38 9323   3.808   1.181   3.920 -0.3307  0.0619 -0.2686
   95SAPC   H8X 9324   3.918   1.181   3.929 -0.3032 -0.3796 -0.6111
   95SAPC   H8Y 9325   3.778   1.074   3.927 -1.1563  0.3585  1.6650
   95SAPC   C39 9326   3.758   1.255   4.044 -0.2044 -0.1175 -0.2124
   95SAPC   H9X 9327   3.711   1.351   4.013  0.1778 -0.2673 -1.2894
   95SAPC   H9Y 9328   3.848   1.269   4.106 -0.3281 -0.6497  0.0934
   95SAPC  C310 9329   3.662   1.170   4.122  0.0465  0.1580 -0.5302
   95SAPC  H10X 9330   3.715   1.088   4.175  0.2915 -0.3715 -1.5575
   95SAPC  H10Y 9331   3.594   1.117   4.052 -1.3675 -0.0822  0.9794
   95SAPC  C311 9332   3.585   1.259   4.216 -0.3229  0.2565  0.2397
   95SAPC  H11X 9333   3.504   1.192   4.254  2.1126 -2.9415  0.2390
   95SAPC  H11Y 9334   3.540   1.348   4.167  0.3745  1.4852  1.7380
   95SAPC  C312 9335   3.674   1.334   4.326  0.1668 -0.1708  0.1872
   95SAPC  H12X 9336   3.730   1.410   4.268  1.9246 -1.4103  0.1758
   95SAPC  H12Y 9337   3.750   1.262   4.364 -0.5337  0.2531  2.5800
   95SAPC  C313 9338   3.595   1.380   4.442 -0.0719 -0.4929 -0.3695
   95SAPC  H13X 9339   3.543   1.291   4.482 -1.4352  0.7440  0.6924
   95SAPC  H13Y 9340   3.523   1.456   4.405  1.4027 -0.0787 -2.5695
   95SAPC  C314 9341   3.675   1.448   4.556 -0.4416 -0.7242 -0.4448
   95SAPC  H14X 9342   3.604   1.484   4.633 -0.4848 -0.7706 -0.4628
   95SAPC  H14Y 9343   3.728   1.538   4.518 -1.4900  0.8512  1.6223
   95SAPC  C315 9344   3.774   1.347   4.617 -0.2399  0.4253 -0.2848
   95SAPC  H15X 9345   3.853   1.401   4.674  0.0336 -1.7485  1.5500
   95SAPC  H15Y 9346   3.833   1.296   4.538  0.7839  0.6149  0.3372
   95SAPC  C316 9347   3.703   1.254   4.711  0.6730  0.8513 -0.0568
   95SAPC  H16X 9348   3.626   1.201   4.651  0.6235  1.1174 -0.2323
   95SAPC  H16Y 9349   3.652   1.311   4.791 -2.0186  1.0622 -1.8023
   95SAPC  C317 9350   3.798   1.153   4.770 -0.2267  0.5907  0.1513
   95SAPC  H17X 9351   3.740   1.078   4.828  0.0165 -0.9616 -1.5402
   95SAPC  H17Y 9352   3.866   1.213   4.836  3.6942 -0.6335 -2.3954
   95SAPC  C318 9353   3.888   1.079   4.671  0.2433 -0.3581 -0.1561
   95SAPC  H18X 9354   3.959   1.151   4.626 -0.9584 -0.4132 -2.2448
   95SAPC  H18Y 9355   3.839   1.049   4.576  1.0060  0.4846 -0.8339
   95SAPC  H18Z 9356   3.930   0.989   4.721 -1.1878 -0.2745  1.2722
   96SAPC     N 9357   2.903   1.803   2.116 -0.8795  0.2744 -0.6172
   96SAPC   C12 9358   2.974   1.933   2.129  0.0464 -0.5687  0.0950
   96SAPC  H12A 9359   2.997   1.952   2.233  1.9246  0.8104 -0.5126
   96SAPC  H12B 9360   2.902   2.009   2.105 -0.9742 -1.9501 -1.4859
   96SAPC   C13 9361   2.991   1.695   2.173 -0.7468  0.0546  0.1077
   96SAPC  H13A 9362   3.080   1.696   2.112 -1.2044  0.6413 -0.5652
   96SAPC  H13B 9363   3.029   1.716   2.272 -1.0518  2.6158 -0.2627
   96SAPC  H13C 9364   2.941   1.599   2.168 -1.3060  0.3047  0.6739
   96SAPC   C14 9365   2.776   1.803   2.189 -0.1758 -0.0879 -0.0774
   96SAPC  H14A 9366   2.793   1.829   2.292 -1.8496 -2.5861  0.9312
   96SAPC  H14B 9367   2.704   1.872   2.148  0.1965  0.8475  0.8001
   96SAPC  H14C 9368   2.737   1.703   2.198 -0.8223  0.1666  0.0661
   96SAPC   C15 9369   2.869   1.766   1.975  0.2746  0.5841 -0.0399
   96SAPC  H15A 9370   2.962   1.771   1.920  0.4257  0.3443  0.1878
   96SAPC  H15B 9371   2.836   1.663   1.972  2.6442 -0.2816  0.9380
   96SAPC  H15C 9372   2.800   1.834   1.929  1.0379 -0.4925 -2.9789
   96SAPC   C11 9373   3.111   1.954   2.057 -0.4869  0.6279  0.3854
   96SAPC  H11A 9374   3.121   2.064   2.049  0.2573  0.4599 -1.8351
   96SAPC  H11B 9375   3.096   1.910   1.956  0.8895 -0.4087  0.6046
   96SAPC     P 9376   3.298   1.948   2.243  0.2642  0.0649  0.3679
   96SAPC   O13 9377   3.373   1.842   2.311 -0.1072  0.4656 -0.6248
   96SAPC   O14 9378   3.379   2.061   2.208 -0.1167  0.2067 -0.2930
   96SAPC   O12 9379   3.223   1.889   2.113 -0.1207  0.0459  0.4305
   96SAPC   O11 9380   3.173   2.000   2.334  0.2374 -0.0319  0.1183
   96SAPC    C1 9381   3.169   2.137   2.379 -0.2491  0.1512  0.1658
   96SAPC    HA 9382   3.216   2.218   2.320  0.0106  0.5704  0.9222
   96SAPC    HB 9383   3.064   2.156   2.409 -0.3699 -0.0256 -0.1415
   96SAPC    C2 9384   3.233   2.137   2.518  0.0580 -0.1974 -0.1657
   96SAPC    HS 9385   3.343   2.140   2.500  0.0933 -1.8288 -0.3935
   96SAPC   O21 9386   3.193   2.025   2.601  0.9135  0.5342 -0.2266
   96SAPC   C21 9387   3.301   1.968   2.665 -0.2624  0.6003  0.5164
   96SAPC   O22 9388   3.414   2.004   2.654 -0.2061  0.1548  0.1597
   96SAPC   C22 9389   3.257   1.851   2.741  0.1561  0.7454 -0.4636
   96SAPC   H2R 9390   3.155   1.866   2.781  0.4005  0.5085  0.2751
   96SAPC   H2S 9391   3.253   1.760   2.678 -2.1160 -1.1100  2.0966
   96SAPC    C3 9392   3.199   2.267   2.594  0.8791 -0.2326 -0.6480
   96SAPC    HX 9393   3.088   2.273   2.587  0.7620  0.3385  1.1532
   96SAPC    HY 9394   3.247   2.361   2.559 -0.6631  0.8228 -0.0704
   96SAPC   O31 9395   3.226   2.247   2.732 -0.1372 -0.2109 -0.2126
   96SAPC   C31 9396   3.175   2.339   2.814 -0.2447 -0.3819 -0.1232
   96SAPC   O32 9397   3.122   2.446   2.782 -0.2119 -0.4991  0.1273
   96SAPC   C32 9398   3.162   2.277   2.957  0.3963  0.5883  0.0630
   96SAPC   H2X 9399   3.260   2.240   2.994  0.4253  1.6398  1.0958
   96SAPC   H2Y 9400   3.098   2.187   2.947 -0.0152  0.9724 -0.8326
   96SAPC   C23 9401   3.367   1.809   2.845 -0.5373 -0.0755  0.2346
   96SAPC   H3R 9402   3.466   1.812   2.795 -0.6888  2.3560 -0.0486
   96SAPC   H3S 9403   3.351   1.706   2.884  0.9042 -0.4987 -0.2462
   96SAPC   C24 9404   3.377   1.914   2.961 -0.6670  0.2977 -0.3776
   96SAPC   H4R 9405   3.395   2.012   2.912  2.8210 -1.0486 -2.1947
   96SAPC   H4S 9406   3.473   1.908   3.018 -1.1292 -0.1984  0.3693
   96SAPC   C25 9407   3.254   1.900   3.057 -1.0045 -0.0523 -0.0409
   96SAPC   H5R 9408   3.153   1.918   3.018 -1.0838 -1.0230 -0.3097
   96SAPC   C26 9409   3.271   1.886   3.191 -0.0355 -0.1216 -0.1757
   96SAPC   H6R 9410   3.178   1.872   3.250  1.2455  1.6559  2.4324
   96SAPC   C27 9411   3.402   1.871   3.279  0.4655  0.5709  0.3037
   96SAPC   H7R 9412   3.376   1.878   3.387 -1.9628 -0.2980 -0.1512
   96SAPC   H7S 9413   3.470   1.956   3.257 -0.2353  0.7026 -1.5593
   96SAPC   C28 9414   3.474   1.744   3.244 -0.0390 -0.2554  0.2477
   96SAPC   H8R 9415   3.488   1.718   3.138  0.9446  1.7927 -0.1547
   96SAPC   C29 9416   3.546   1.676   3.338  0.4446 -0.5539 -0.1401
   96SAPC   H9R 9417   3.598   1.585   3.303  0.3066 -0.2813 -1.0751
   96SAPC  C210 9418   3.557   1.687   3.485  0.0394 -0.7930 -0.2520
   96SAPC  H10R 9419   3.594   1.786   3.519  0.3029 -1.2488  0.8468
   96SAPC  H10S 9420   3.632   1.613   3.522  1.3874  2.7661  5.3351
   96SAPC  C211 9421   3.428   1.680   3.559 -0.4290  0.8085 -0.8996
   96SAPC  H11R 9422   3.339   1.727   3.516  0.1411  2.3919 -0.4244
   96SAPC  C212 9423   3.411   1.627   3.685 -0.3694 -1.1566  0.2154
   96SAPC  H12R 9424   3.312   1.601   3.724 -1.1499 -0.9087 -1.5557
   96SAPC  C213 9425   3.528   1.574   3.757 -0.0782  0.4370 -0.5337
   96SAPC  H13R 9426   3.625   1.603   3.711 -0.2410  1.6995 -0.1071
   96SAPC  H13S 9427   3.527   1.463   3.760 -1.2338  0.4494  0.5510
   96SAPC  C214 9428   3.544   1.631   3.899  0.9022  0.6454 -0.5532
   96SAPC  H14R 9429   3.623   1.706   3.912 -0.1645  1.4127  2.1529
   96SAPC  C215 9430   3.482   1.587   4.015  0.8195  0.3438 -0.1251
   96SAPC  H15R 9431   3.505   1.633   4.112  0.6914 -1.8569  1.0163
   96SAPC  C216 9432   3.358   1.498   4.023 -0.1365  0.8303  0.4291
   96SAPC  H16R 9433   3.368   1.417   4.098  1.7676  1.5449  0.9961
   96SAPC  H16S 9434   3.357   1.448   3.923 -0.0154  0.3664  0.6576
   96SAPC  C217 9435   3.223   1.565   4.051  0.1722  1.1717  0.6649
   96SAPC  H17R 9436   3.142   1.523   3.988  0.6395  2.6324 -0.9691
   96SAPC  H17S 9437   3.232   1.671   4.018 -0.8865  1.9085  2.5883
   96SAPC  C218 9438   3.202   1.579   4.202 -0.4244 -0.2010 -0.2467
   96SAPC  H18R 9439   3.282   1.648   4.235  0.7637 -1.4693 -0.3631
   96SAPC  H18S 9440   3.211   1.478   4.247 -1.5647 -0.8259 -1.3545
   96SAPC  C219 9441   3.066   1.646   4.222 -0.2405  0.1790  0.3564
   96SAPC  H19R 9442   3.045   1.712   4.136  1.6934  1.3235  0.7027
   96SAPC  H19S 9443   3.056   1.711   4.312  1.0325  2.3576 -0.9949
   96SAPC  C220 9444   2.955   1.541   4.228 -0.8417 -0.6404  0.0178
   96SAPC  H20R 9445   2.854   1.587   4.235  0.3008  2.0264  0.3847
   96SAPC  H20S 9446   2.973   1.462   4.303  0.5029  0.2238  0.6488
   96SAPC  H20T 9447   2.959   1.495   4.127  0.5813 -2.0718  0.6966
   96SAPC   C33 9448   3.101   2.375   3.059  0.6885  0.0212  0.0713
   96SAPC   H3X 9449   3.010   2.422   3.015 -0.3619 -1.9513 -0.0010
   96SAPC   H3Y 9450   3.167   2.462   3.073  1.7497 -0.9178  1.1593
   96SAPC   C34 9451   3.070   2.321   3.196  0.5494  0.2959 -0.4495
   96SAPC   H4X 9452   3.161   2.289   3.251  0.7580 -1.3280 -1.6659
   96SAPC   H4Y 9453   3.018   2.223   3.185  1.1459 -0.2214  1.0458
   96SAPC   C35 9454   2.993   2.419   3.292  0.2947  0.0831  0.1287
   96SAPC   H5X 9455   2.905   2.455   3.234  1.1569 -0.3228 -1.4581
   96SAPC   H5Y 9456   3.058   2.505   3.320 -1.1269  1.7513 -1.4581
   96SAPC   C36 9457   2.940   2.343   3.415  0.5453  0.2768 -0.3641
   96SAPC   H6X 9458   3.019   2.290   3.471 -0.5146 -0.3001  0.6192
   96SAPC   H6Y 9459   2.866   2.266   3.383 -0.5192  0.2963  1.8985
   96SAPC   C37 9460   2.864   2.440   3.510  0.0335 -1.1314 -0.2735
   96SAPC   H7X 9461   2.789   2.494   3.448 -2.1683  0.1594  3.1936
   96SAPC   H7Y 9462   2.933   2.519   3.548 -0.4450 -0.3016 -1.0757
   96SAPC   C38 9463   2.789   2.372   3.620  0.4757  0.1548  0.3668
   96SAPC   H8X 9464   2.859   2.317   3.686 -1.6912 -3.5935 -0.1378
   96SAPC   H8Y 9465   2.726   2.290   3.578  0.4477 -0.2016  1.0982
   96SAPC   C39 9466   2.716   2.464   3.714  0.7356  1.2025 -0.0004
   96SAPC   H9X 9467   2.622   2.507   3.673  2.0604  3.8360 -0.4895
   96SAPC   H9Y 9468   2.787   2.549   3.723 -0.6577  2.8436 -3.0721
   96SAPC  C310 9469   2.688   2.399   3.854 -0.7121  0.4933 -0.2577
   96SAPC  H10X 9470   2.657   2.476   3.929  0.6372  1.9431 -1.1180
   96SAPC  H10Y 9471   2.780   2.348   3.888 -1.5076 -2.6605 -2.4732
   96SAPC  C311 9472   2.570   2.309   3.852  0.4307  0.2229 -0.0148
   96SAPC  H11X 9473   2.588   2.236   3.770  2.6538 -1.5765  1.9643
   96SAPC  H11Y 9474   2.480   2.370   3.827 -0.4907 -1.0376  0.1205
   96SAPC  C312 9475   2.543   2.219   3.972 -0.1694  0.5208 -0.2438
   96SAPC  H12X 9476   2.524   2.275   4.067 -1.9645 -0.8626  0.2793
   96SAPC  H12Y 9477   2.617   2.137   3.976 -2.5871 -1.8359 -0.6684
   96SAPC  C313 9478   2.411   2.138   3.954 -0.0270 -0.1307  1.0089
   96SAPC  H13X 9479   2.408   2.071   4.043 -3.1658 -0.4121  0.8250
   96SAPC  H13Y 9480   2.426   2.075   3.864  1.2501 -0.1378  1.2118
   96SAPC  C314 9481   2.283   2.216   3.970  0.2919  0.0140 -0.0350
   96SAPC  H14X 9482   2.200   2.154   3.930  0.6816  1.3288 -3.1540
   96SAPC  H14Y 9483   2.273   2.302   3.901 -2.4441  1.3085  1.8156
   96SAPC  C315 9484   2.264   2.270   4.110 -0.2878 -0.0265 -0.1423
   96SAPC  H15X 9485   2.327   2.357   4.136  0.2263 -1.1988  2.9253
   96SAPC  H15Y 9486   2.288   2.187   4.180  4.1345  2.2955  1.4882
   96SAPC  C316 9487   2.128   2.333   4.129 -0.0908  0.0645  0.0630
   96SAPC  H16X 9488   2.043   2.267   4.102  0.7292 -0.7785 -0.5524
   96SAPC  H16Y 9489   2.132   2.419   4.059 -1.6778  0.4639  0.4373
   96SAPC  C317 9490   2.092   2.396   4.265  0.4799  0.0164 -0.8860
   96SAPC  H17X 9491   2.011   2.468   4.242  0.6699  1.1114  1.5651
   96SAPC  H17Y 9492   2.181   2.459   4.287  0.9419  0.4438 -3.5837
   96SAPC  C318 9493   2.040   2.299   4.374  0.0733 -0.4293 -0.4137
   96SAPC  H18X 9494   1.943   2.253   4.345 -1.3627  0.9616  1.8011
   96SAPC  H18Y 9495   2.011   2.369   4.456 -1.2150  0.1330 -1.2997
   96SAPC  H18Z 9496   2.103   2.218   4.415 -2.7802 -1.0915  3.2307
   97SAPC     N 9497   3.777   2.243   2.098  0.1256 -0.0204 -0.4108
   97SAPC   C12 9498   3.922   2.239   2.136  0.1782 -0.0883 -0.3753
   97SAPC  H12A 9499   3.944   2.139   2.173 -0.0309  0.1700  0.4599
   97SAPC  H12B 9500   3.936   2.295   2.227  0.6092 -1.4926  0.4526
   97SAPC   C13 9501   3.712   2.375   2.097 -0.3502 -0.1669  0.0209
   97SAPC  H13A 9502   3.727   2.417   2.195 -0.3604  0.3451 -0.1927
   97SAPC  H13B 9503   3.744   2.444   2.020 -0.4080 -0.6679 -0.4553
   97SAPC  H13C 9504   3.605   2.361   2.088 -0.8683  2.7679  0.4734
   97SAPC   C14 9505   3.760   2.164   1.969 -0.0154  0.0035  0.3352
   97SAPC  H14A 9506   3.807   2.067   1.969  1.0744  0.5188 -0.3278
   97SAPC  H14B 9507   3.658   2.165   1.932 -0.0461  2.4828  0.3237
   97SAPC  H14C 9508   3.810   2.224   1.895 -0.0031 -1.4197 -0.8640
   97SAPC   C15 9509   3.701   2.173   2.207  0.5617 -0.4108 -0.5409
   97SAPC  H15A 9510   3.594   2.184   2.197  0.8263  1.1471 -2.1178
   97SAPC  H15B 9511   3.725   2.068   2.213 -0.2164 -0.5655 -0.0182
   97SAPC  H15C 9512   3.719   2.225   2.299  0.4486 -1.1435 -0.0970
   97SAPC   C11 9513   4.028   2.285   2.036  0.0678 -1.0427 -0.0026
   97SAPC  H11A 9514   4.012   2.221   1.946  0.7054 -1.9172  0.4878
   97SAPC  H11B 9515   4.129   2.279   2.080  0.4414  2.1188 -0.2168
   97SAPC     P 9516   4.041   2.542   2.072 -0.1412 -0.1763  0.3049
   97SAPC   O13 9517   4.160   2.595   2.006 -0.1458  0.4183 -0.3088
   97SAPC   O14 9518   3.929   2.642   2.082  0.8289 -0.2509 -0.3804
   97SAPC   O12 9519   3.995   2.418   1.990 -0.0256  0.0925 -0.1095
   97SAPC   O11 9520   4.085   2.478   2.211 -0.0578  0.2309 -0.6483
   97SAPC    C1 9521   4.118   2.566   2.320 -0.2121  0.0758  0.0644
   97SAPC    HA 9522   4.228   2.563   2.332  0.0340  2.8528 -0.7091
   97SAPC    HB 9523   4.077   2.669   2.310  0.5867  0.2237 -2.2721
   97SAPC    C2 9524   4.057   2.504   2.455 -0.5393  0.1757 -0.2076
   97SAPC    HS 9525   4.060   2.393   2.452  3.7271 -0.0441  2.4661
   97SAPC   O21 9526   3.919   2.557   2.467 -0.4570  0.4143 -0.1602
   97SAPC   C21 9527   3.824   2.459   2.462  0.9305  0.0965  0.0285
   97SAPC   O22 9528   3.834   2.347   2.420 -0.0287  0.3405 -0.4659
   97SAPC   C22 9529   3.693   2.507   2.526 -0.6074 -0.4594  0.1075
   97SAPC   H2R 9530   3.720   2.606   2.569  0.0531 -0.7856  0.4505
   97SAPC   H2S 9531   3.628   2.527   2.438 -0.7446 -2.5434 -0.3253
   97SAPC    C3 9532   4.130   2.534   2.588  0.1409 -0.2017  0.1768
   97SAPC    HX 9533   4.164   2.639   2.594  1.1037 -0.2797 -2.5776
   97SAPC    HY 9534   4.226   2.478   2.585  0.3826 -0.1239  3.3716
   97SAPC   O31 9535   4.054   2.500   2.707  0.6811  0.4614  0.3171
   97SAPC   C31 9536   4.121   2.465   2.817 -0.1582  0.3013  0.0033
   97SAPC   O32 9537   4.241   2.454   2.824  0.2405 -0.3055  0.2946
   97SAPC   C32 9538   4.015   2.465   2.928 -0.0481  0.0040  0.3039
   97SAPC   H2X 9539   3.930   2.403   2.895 -1.7219  1.2276  2.0949
   97SAPC   H2Y 9540   3.986   2.572   2.940 -0.4964 -0.0940  0.0747
   97SAPC   C23 9541   3.624   2.413   2.622 -0.4771  0.6404  0.3386
   97SAPC   H3R 9542   3.602   2.314   2.576  0.6938 -0.8628  2.7864
   97SAPC   H3S 9543   3.535   2.470   2.656  0.0568  0.7967  1.4982
   97SAPC   C24 9544   3.703   2.383   2.750 -0.1583 -0.6434 -0.4835
   97SAPC   H4R 9545   3.709   2.479   2.806 -2.2418 -0.9688  0.3928
   97SAPC   H4S 9546   3.802   2.347   2.714 -0.4648 -2.1373  0.1030
   97SAPC   C25 9547   3.634   2.275   2.831 -0.5692 -0.1858  0.9935
   97SAPC   H5R 9548   3.618   2.178   2.781 -2.9705  1.2032 -1.1771
   97SAPC   C26 9549   3.587   2.281   2.959 -0.9606 -0.0102 -0.2375
   97SAPC   H6R 9550   3.523   2.199   2.995 -0.6211 -0.3228 -0.3409
   97SAPC   C27 9551   3.607   2.396   3.058 -0.2253 -0.5398 -0.7279
   97SAPC   H7R 9552   3.649   2.485   3.006  1.5739  0.6499  2.4545
   97SAPC   H7S 9553   3.687   2.366   3.130  0.1497 -0.2501 -1.0253
   97SAPC   C28 9554   3.479   2.443   3.126 -0.2038 -0.1886 -0.8605
   97SAPC   H8R 9555   3.435   2.524   3.066  0.6052  0.7769 -0.2026
   97SAPC   C29 9556   3.427   2.410   3.244 -0.2423 -0.0203  0.5551
   97SAPC   H9R 9557   3.335   2.459   3.279  0.4570  1.6819  0.0918
   97SAPC  C210 9558   3.498   2.318   3.352  0.1958 -0.1733  0.2085
   97SAPC  H10R 9559   3.552   2.383   3.425  1.7882 -0.8331 -0.3436
   97SAPC  H10S 9560   3.580   2.258   3.308  0.9697  2.9305 -3.2004
   97SAPC  C211 9561   3.401   2.240   3.435  0.8692  0.4324 -0.7403
   97SAPC  H11R 9562   3.365   2.148   3.386  2.1776 -0.4448 -0.0900
   97SAPC  C212 9563   3.355   2.268   3.558  0.0740  0.0066 -0.9193
   97SAPC  H12R 9564   3.273   2.208   3.598  0.5995 -1.4587 -1.9746
   97SAPC  C213 9565   3.395   2.387   3.638 -0.6266 -0.5226 -0.4524
   97SAPC  H13R 9566   3.304   2.437   3.677 -0.4062  0.9466 -1.7255
   97SAPC  H13S 9567   3.431   2.463   3.565  1.2100  1.0048  1.8741
   97SAPC  C214 9568   3.516   2.367   3.726  0.2280 -0.1457  0.0504
   97SAPC  H14R 9569   3.581   2.288   3.687 -0.5723 -0.5312 -0.5323
   97SAPC  C215 9570   3.552   2.437   3.830  0.0411 -0.2281  0.3192
   97SAPC  H15R 9571   3.643   2.399   3.878  0.7410 -2.1920 -2.3066
   97SAPC  C216 9572   3.472   2.544   3.903  0.1210 -0.1444 -0.0697
   97SAPC  H16R 9573   3.364   2.529   3.880 -0.7448  2.1132  2.1498
   97SAPC  H16S 9574   3.491   2.644   3.858 -0.8224 -0.7767 -2.0089
   97SAPC  C217 9575   3.492   2.543   4.057  0.3785  0.0739 -0.0852
   97SAPC  H17R 9576   3.456   2.643   4.089 -1.0911 -0.1810 -0.8444
   97SAPC  H17S 9577   3.595   2.529   4.095  0.7527 -0.2823 -1.1783
   97SAPC  C218 9578   3.404   2.440   4.128  0.5088 -0.0025  0.4370
   97SAPC  H18R 9579   3.393   2.344   4.072  2.3515 -0.4831  0.8217
   97SAPC  H18S 9580   3.299   2.471   4.147  0.5822 -0.3497  1.4472
   97SAPC  C219 9581   3.469   2.396   4.259  0.7205  0.6062  0.3254
   97SAPC  H19R 9582   3.576   2.369   4.244  0.6746  0.6096 -0.0241
   97SAPC  H19S 9583   3.415   2.307   4.296  2.2041 -0.3544  0.2520
   97SAPC  C220 9584   3.475   2.509   4.361 -0.8557 -0.4543 -0.0324
   97SAPC  H20R 9585   3.372   2.550   4.371  0.3535  2.8217  0.0490
   97SAPC  H20S 9586   3.539   2.598   4.346 -1.4228  0.1776  1.0604
   97SAPC  H20T 9587   3.499   2.468   4.462  0.3315 -1.2967 -0.6440
   97SAPC   C33 9588   4.070   2.421   3.059  0.6789 -0.1239  0.4044
   97SAPC   H3X 9589   4.164   2.475   3.084 -0.4448  1.9409  0.3857
   97SAPC   H3Y 9590   4.084   2.312   3.070 -0.0319 -0.3259 -0.5471
   97SAPC   C34 9591   3.992   2.468   3.183 -0.2540  0.3433 -0.1217
   97SAPC   H4X 9592   3.896   2.412   3.188 -1.9880  2.7561 -2.7918
   97SAPC   H4Y 9593   3.970   2.577   3.180  0.6848  0.5347 -1.5043
   97SAPC   C35 9594   4.069   2.432   3.312  0.9933 -0.0934 -0.8183
   97SAPC   H5X 9595   4.164   2.490   3.316 -0.4241  2.3775  3.3100
   97SAPC   H5Y 9596   4.088   2.323   3.303  0.3319 -0.3606  0.7997
   97SAPC   C36 9597   3.971   2.465   3.429  0.5674  0.4731 -0.0783
   97SAPC   H6X 9598   3.872   2.415   3.420  1.0748 -0.4660 -0.5067
   97SAPC   H6Y 9599   3.957   2.575   3.424  2.4745  0.6698 -2.5378
   97SAPC   C37 9600   4.041   2.451   3.565 -0.0805  0.7594 -0.6281
   97SAPC   H7X 9601   4.113   2.534   3.550 -0.4732  1.3939  0.8192
   97SAPC   H7Y 9602   4.090   2.351   3.567  1.6248  1.5410 -1.4504
   97SAPC   C38 9603   3.947   2.495   3.680  0.3068  0.0284 -0.2436
   97SAPC   H8X 9604   3.867   2.418   3.677  1.3312 -1.1673  1.1407
   97SAPC   H8Y 9605   3.897   2.592   3.661  0.0824  0.0849  0.5986
   97SAPC   C39 9606   4.011   2.486   3.814 -0.3393 -0.4032 -0.0958
   97SAPC   H9X 9607   4.071   2.577   3.834  1.6950 -1.7970  0.4257
   97SAPC   H9Y 9608   4.083   2.402   3.818 -0.9365 -0.9689 -0.9632
   97SAPC  C310 9609   3.915   2.456   3.923 -0.7195  0.4577 -0.4619
   97SAPC  H10X 9610   3.868   2.358   3.898 -0.0249 -0.1847  0.6525
   97SAPC  H10Y 9611   3.837   2.534   3.929  0.8132  2.0839 -0.7490
   97SAPC  C311 9612   3.983   2.461   4.059  0.0557  0.3770 -0.1407
   97SAPC  H11X 9613   4.018   2.565   4.078  0.1399  0.3519 -0.1618
   97SAPC  H11Y 9614   4.067   2.389   4.062  0.2465  0.5625  3.1416
   97SAPC  C312 9615   3.896   2.420   4.180  0.0227 -0.1112  0.8145
   97SAPC  H12X 9616   3.868   2.314   4.166  0.6649 -0.1044 -0.7826
   97SAPC  H12Y 9617   3.808   2.488   4.182 -0.0126 -0.1524  0.7078
   97SAPC  C313 9618   3.980   2.432   4.306 -0.0555  0.3732 -0.6940
   97SAPC  H13X 9619   4.001   2.537   4.336  0.4714  0.6083 -1.8384
   97SAPC  H13Y 9620   4.077   2.376   4.301 -0.9029 -1.1272 -1.0507
   97SAPC  C314 9621   3.924   2.359   4.421  0.1096 -0.1868  0.2923
   97SAPC  H14X 9622   3.907   2.251   4.403 -0.0645  0.1725 -1.9972
   97SAPC  H14Y 9623   3.835   2.411   4.461 -2.5398 -1.7390 -3.0243
   97SAPC  C315 9624   4.020   2.364   4.543  0.1511  0.4307  0.6379
   97SAPC  H15X 9625   4.066   2.465   4.550 -0.4456  0.8356 -0.9185
   97SAPC  H15Y 9626   4.105   2.298   4.515 -1.4628 -0.5665 -2.3078
   97SAPC  C316 9627   3.958   2.302   4.670  0.1827 -0.4590  0.6528
   97SAPC  H16X 9628   3.945   2.192   4.662  1.3451 -0.6602  1.2060
   97SAPC  H16Y 9629   3.861   2.353   4.686  0.7397 -0.0856  3.3426
   97SAPC  C317 9630   4.050   2.319   4.802 -0.5163 -0.0458 -0.1054
   97SAPC  H17X 9631   4.151   2.277   4.790 -0.8938 -1.3725  1.0665
   97SAPC  H17Y 9632   4.013   2.263   4.891 -0.1531 -0.3838 -0.1630
   97SAPC  C318 9633   4.055   2.468   4.843  0.0761  0.1752 -0.1778
   97SAPC  H18X 9634   4.112   2.520   4.764  0.5368 -1.7415 -1.1622
   97SAPC  H18Y 9635   4.108   2.471   4.941 -1.8230  0.4413  0.9062
   97SAPC  H18Z 9636   3.956   2.518   4.843  0.5388  1.1500 -1.6268
   98SAPC     N 9637   6.213   2.507   2.080 -0.0817 -0.0259  0.2931
   98SAPC   C12 9638   6.209   2.560   2.217 -0.3523  0.1508 -0.6940
   98SAPC  H12A 9639   6.267   2.502   2.287 -0.4116 -1.2915 -1.8098
   98SAPC  H12B 9640   6.106   2.557   2.251 -0.6336  0.1563 -1.5368
   98SAPC   C13 9641   6.353   2.499   2.031 -0.8391 -0.1763  0.3480
   98SAPC  H13A 9642   6.355   2.486   1.924  0.2609  1.2020  0.1780
   98SAPC  H13B 9643   6.408   2.588   2.058 -2.4979  1.4639 -1.3249
   98SAPC  H13C 9644   6.405   2.417   2.079  0.0393  0.7508  1.0192
   98SAPC   C14 9645   6.153   2.366   2.083 -0.0651  0.3282 -0.0386
   98SAPC  H14A 9646   6.198   2.288   2.143  0.8836  0.5136 -0.4948
   98SAPC  H14B 9647   6.055   2.373   2.128  0.1586 -0.2664  0.5676
   98SAPC  H14C 9648   6.136   2.328   1.984 -0.0858  1.1184 -0.3406
   98SAPC   C15 9649   6.138   2.594   1.982 -0.2384 -0.4399  0.4734
   98SAPC  H15A 9650   6.052   2.642   2.027  1.5871  1.8000  1.7782
   98SAPC  H15B 9651   6.203   2.678   1.962  0.3048 -0.3546  2.3466
   98SAPC  H15C 9652   6.116   2.544   1.889 -2.5037  0.7411  0.3178
   98SAPC   C11 9653   6.256   2.703   2.249 -0.1495  0.0231  0.3946
   98SAPC  H11A 9654   6.234   2.734   2.353  2.6731 -0.8994  1.3823
   98SAPC  H11B 9655   6.192   2.772   2.190 -0.8916  0.0988  1.2799
   98SAPC     P 9656   6.508   2.682   2.315  0.2381 -0.5889 -0.1218
   98SAPC   O13 9657   6.450   2.577   2.399 -0.3794 -0.5071  0.0310
   98SAPC   O14 9658   6.631   2.645   2.242  0.4044  0.1217 -0.2551
   98SAPC   O12 9659   6.393   2.733   2.222  0.0634 -0.1843  0.1308
   98SAPC   O11 9660   6.531   2.806   2.409 -0.0213 -0.0310  0.3371
   98SAPC    C1 9661   6.650   2.882   2.406 -0.4033  0.1023 -0.2291
   98SAPC    HA 9662   6.742   2.822   2.387  0.1489  0.2718  1.6895
   98SAPC    HB 9663   6.651   2.960   2.327 -0.1911  1.6204  1.2129
   98SAPC    C2 9664   6.672   2.960   2.543 -0.0136  0.9964 -0.3495
   98SAPC    HS 9665   6.775   3.002   2.550 -0.3490  1.7297  0.5104
   98SAPC   O21 9666   6.651   2.859   2.642  0.3666  0.3874  0.6578
   98SAPC   C21 9667   6.747   2.785   2.671  0.6469 -0.2775 -0.2052
   98SAPC   O22 9668   6.864   2.794   2.625 -0.3446  0.3407 -0.7488
   98SAPC   C22 9669   6.710   2.683   2.776  0.2732 -0.3223  0.4815
   98SAPC   H2R 9670   6.618   2.723   2.824  0.5108  1.8642 -0.7548
   98SAPC   H2S 9671   6.676   2.600   2.712  2.1472 -2.7340  2.4255
   98SAPC    C3 9672   6.580   3.080   2.561 -0.3643 -0.2573 -0.2402
   98SAPC    HX 9673   6.475   3.046   2.542 -1.1237  1.2257  1.0896
   98SAPC    HY 9674   6.619   3.161   2.496 -0.6462  1.9466  2.1693
   98SAPC   O31 9675   6.603   3.143   2.694 -0.5783 -0.6729  0.8475
   98SAPC   C31 9676   6.522   3.086   2.786 -0.4228 -0.1179 -0.0565
   98SAPC   O32 9677   6.434   3.002   2.767  0.0309  0.5710 -0.6086
   98SAPC   C32 9678   6.563   3.144   2.925 -0.6311 -0.3316 -0.1856
   98SAPC   H2X 9679   6.532   3.250   2.934  1.0466  0.1037  0.7955
   98SAPC   H2Y 9680   6.674   3.145   2.930 -0.5327 -0.9643 -1.8243
   98SAPC   C23 9681   6.826   2.627   2.857 -0.5895 -0.3555 -0.1409
   98SAPC   H3R 9682   6.909   2.591   2.792  0.4192  1.3756  0.1428
   98SAPC   H3S 9683   6.786   2.537   2.909  1.0774 -1.3666 -0.5206
   98SAPC   C24 9684   6.878   2.731   2.963 -0.0096 -0.2800  0.0956
   98SAPC   H4R 9685   6.895   2.830   2.915 -1.7120  0.2224  0.4623
   98SAPC   H4S 9686   6.971   2.692   3.010 -0.0534 -1.9818 -1.1432
   98SAPC   C25 9687   6.784   2.733   3.075 -0.1434 -0.0606 -0.8361
   98SAPC   H5R 9688   6.678   2.744   3.049 -0.9440 -1.6926  1.3813
   98SAPC   C26 9689   6.802   2.733   3.212 -0.1508 -0.2133  0.3667
   98SAPC   H6R 9690   6.714   2.713   3.276  0.5534 -2.1129  0.8012
   98SAPC   C27 9691   6.934   2.736   3.280 -0.4754 -0.4920  0.5144
   98SAPC   H7R 9692   7.015   2.794   3.230 -0.7286 -0.8906 -0.3738
   98SAPC   H7S 9693   6.970   2.632   3.269  1.6491  0.4618 -3.3063
   98SAPC   C28 9694   6.928   2.765   3.429  0.0837  0.2682  0.4325
   98SAPC   H8R 9695   6.953   2.868   3.458 -0.7816  0.4865  0.4375
   98SAPC   C29 9696   6.868   2.690   3.521  0.3346 -0.5476  0.5261
   98SAPC   H9R 9697   6.869   2.727   3.624 -0.0731  1.0423 -0.0085
   98SAPC  C210 9698   6.804   2.557   3.507  0.5767  0.9544  0.2854
   98SAPC  H10R 9699   6.780   2.543   3.400 -0.0256  0.2598  0.5004
   98SAPC  H10S 9700   6.703   2.563   3.554 -0.2042  0.2215 -1.2324
   98SAPC  C211 9701   6.874   2.439   3.564  0.5087 -0.3624 -1.0345
   98SAPC  H11R 9702   6.924   2.369   3.495 -1.1950 -3.7543  0.9041
   98SAPC  C212 9703   6.868   2.397   3.697  0.4134 -0.2531  0.4513
   98SAPC  H12R 9704   6.909   2.297   3.718 -1.1218 -0.8542  0.7402
   98SAPC  C213 9705   6.794   2.476   3.803  0.0389  0.3382  0.2127
   98SAPC  H13R 9706   6.711   2.410   3.837 -1.4556  1.3801 -1.2647
   98SAPC  H13S 9707   6.745   2.568   3.765  0.4759 -0.5481 -2.7056
   98SAPC  C214 9708   6.884   2.521   3.920  0.1125 -0.0906 -0.2137
   98SAPC  H14R 9709   6.955   2.598   3.886 -2.1761  1.7387 -1.1283
   98SAPC  C215 9710   6.880   2.487   4.054 -0.1153  0.5679  0.2186
   98SAPC  H15R 9711   6.956   2.531   4.121  1.2538 -1.3769  0.0249
   98SAPC  C216 9712   6.810   2.377   4.121 -0.3338 -0.0051  0.1114
   98SAPC  H16R 9713   6.879   2.298   4.156 -0.0702 -0.5185 -1.4913
   98SAPC  H16S 9714   6.729   2.329   4.062  0.2430 -0.3009 -0.4566
   98SAPC  C217 9715   6.736   2.437   4.240 -0.1513  0.4659 -0.2911
   98SAPC  H17R 9716   6.656   2.508   4.210 -0.1113  1.9619  2.7361
   98SAPC  H17S 9717   6.801   2.503   4.302 -1.2926  1.4024 -0.0407
   98SAPC  C218 9718   6.668   2.326   4.319  0.0356 -0.8480  0.3092
   98SAPC  H18R 9719   6.742   2.256   4.364  0.7413 -0.6883 -0.5730
   98SAPC  H18S 9720   6.611   2.269   4.243 -0.0459 -2.1999  1.3347
   98SAPC  C219 9721   6.563   2.377   4.425  0.0416 -0.5869 -0.0816
   98SAPC  H19R 9722   6.488   2.445   4.378 -1.0060 -2.6967 -1.6028
   98SAPC  H19S 9723   6.620   2.444   4.492 -2.0732 -1.0962  2.3602
   98SAPC  C220 9724   6.494   2.272   4.503 -0.0723  0.7999  0.4673
   98SAPC  H20R 9725   6.557   2.196   4.553  1.6869  1.4801 -0.6140
   98SAPC  H20S 9726   6.416   2.238   4.432 -0.2373  0.8032  0.6453
   98SAPC  H20T 9727   6.431   2.320   4.581 -1.3605 -0.8161  0.4623
   98SAPC   C33 9728   6.486   3.059   3.034 -0.1182 -0.2749 -0.5529
   98SAPC   H3X 9729   6.500   2.951   3.014 -1.1844 -0.3217 -1.1439
   98SAPC   H3Y 9730   6.376   3.069   3.045 -0.5696 -2.7692 -1.9552
   98SAPC   C34 9731   6.561   3.077   3.163 -0.5587 -1.1694  0.3935
   98SAPC   H4X 9732   6.569   3.187   3.181  1.0983 -1.1098 -0.5161
   98SAPC   H4Y 9733   6.666   3.048   3.145 -0.3391 -0.9886  1.3592
   98SAPC   C35 9734   6.511   3.003   3.283  0.1072 -0.5993 -0.2337
   98SAPC   H5X 9735   6.490   2.896   3.262  0.6075 -0.3182 -2.3079
   98SAPC   H5Y 9736   6.415   3.044   3.322 -0.5819 -3.1363  0.9513
   98SAPC   C36 9737   6.622   3.002   3.390 -0.4506 -0.1513  0.0635
   98SAPC   H6X 9738   6.653   3.105   3.415 -1.8373 -0.0623  1.5757
   98SAPC   H6Y 9739   6.711   2.948   3.352  0.3305  1.2149 -0.0845
   98SAPC   C37 9740   6.570   2.934   3.515  0.9055  0.5164  0.1405
   98SAPC   H7X 9741   6.563   2.823   3.514  1.8191  0.3947  2.0912
   98SAPC   H7Y 9742   6.466   2.972   3.520  0.2283 -0.8345 -2.2138
   98SAPC   C38 9743   6.634   2.975   3.649  0.1610 -0.5158 -0.2343
   98SAPC   H8X 9744   6.629   3.086   3.649  1.4435 -0.4458  0.8455
   98SAPC   H8Y 9745   6.741   2.948   3.644  0.5812  0.6342  1.7839
   98SAPC   C39 9746   6.578   2.936   3.784 -0.3562  0.1280  0.0146
   98SAPC   H9X 9747   6.587   2.825   3.784  1.0812  0.2272 -0.3708
   98SAPC   H9Y 9748   6.472   2.967   3.794 -0.2120  0.9067 -0.8087
   98SAPC  C310 9749   6.646   3.006   3.910 -0.7969  1.4215 -0.6833
   98SAPC  H10X 9750   6.637   3.117   3.912  1.6345  1.6526  0.3138
   98SAPC  H10Y 9751   6.755   2.991   3.901 -0.8076  1.2808 -0.5860
   98SAPC  C311 9752   6.596   2.952   4.041 -0.7690  0.1615  0.0866
   98SAPC  H11X 9753   6.562   2.847   4.041 -0.2929 -0.0103 -0.9637
   98SAPC  H11Y 9754   6.516   3.021   4.075 -0.2946  1.2165 -0.8391
   98SAPC  C312 9755   6.715   2.955   4.142 -0.4478 -0.4267  0.7276
   98SAPC  H12X 9756   6.734   3.060   4.172 -0.2348 -0.5438  1.0001
   98SAPC  H12Y 9757   6.801   2.912   4.086  0.4106  3.5294 -1.3656
   98SAPC  C313 9758   6.681   2.869   4.265 -0.6566  0.1181  0.1902
   98SAPC  H13X 9759   6.629   2.775   4.237  0.7411 -0.1158 -1.7558
   98SAPC  H13Y 9760   6.619   2.928   4.336  0.4526  0.2045  1.1147
   98SAPC  C314 9761   6.803   2.835   4.349 -0.0324  0.0314  0.0629
   98SAPC  H14X 9762   6.864   2.923   4.377  0.7812 -0.5949  0.3119
   98SAPC  H14Y 9763   6.864   2.769   4.284 -0.2897 -0.5588  0.4070
   98SAPC  C315 9764   6.764   2.759   4.473  0.5384 -0.1544 -0.3579
   98SAPC  H15X 9765   6.694   2.676   4.446  0.1078  0.2832 -0.5956
   98SAPC  H15Y 9766   6.713   2.826   4.546 -0.1521 -0.0718 -0.9108
   98SAPC  C316 9767   6.890   2.702   4.536  0.9187 -0.0600 -0.3827
   98SAPC  H16X 9768   6.964   2.781   4.560  1.0158  0.2737 -1.7113
   98SAPC  H16Y 9769   6.942   2.627   4.471 -1.5392 -2.6123  0.3896
   98SAPC  C317 9770   6.844   2.625   4.661 -0.1850 -0.3673 -0.0192
   98SAPC  H17X 9771   6.787   2.536   4.627 -0.0405 -0.8742  1.0324
   98SAPC  H17Y 9772   6.785   2.696   4.722 -0.1789 -0.4038  0.0289
   98SAPC  C318 9773   6.966   2.578   4.739 -0.7761 -0.6011 -0.3390
   98SAPC  H18X 9774   7.013   2.493   4.685  0.0040 -0.3271 -0.1045
   98SAPC  H18Y 9775   6.927   2.534   4.833 -2.9638 -1.0179 -1.3575
   98SAPC  H18Z 9776   7.045   2.649   4.771 -0.3507 -0.0421 -2.4627
   99SAPC     N 9777   2.783   0.259   2.333  0.5103 -0.3312 -0.3123
   99SAPC   C12 9778   2.681   0.175   2.411  0.0454 -0.4545  0.8911
   99SAPC  H12A 9779   2.616   0.120   2.345  0.8831 -0.6602  0.2035
   99SAPC  H12B 9780   2.618   0.244   2.465  0.1122 -1.4725  2.3182
   99SAPC   C13 9781   2.886   0.181   2.262 -0.0516 -0.2481 -0.0640
   99SAPC  H13A 9782   2.931   0.106   2.325  0.9031 -1.6389 -2.2787
   99SAPC  H13B 9783   2.835   0.120   2.189 -0.4087  0.3682 -0.3375
   99SAPC  H13C 9784   2.962   0.247   2.222  1.4143 -0.7431  1.7654
   99SAPC   C14 9785   2.710   0.350   2.234 -0.8632  0.0836  0.1513
   99SAPC  H14A 9786   2.656   0.287   2.166  2.8295 -1.4007 -1.6790
   99SAPC  H14B 9787   2.639   0.414   2.284  0.0766  2.7717 -1.7216
   99SAPC  H14C 9788   2.786   0.399   2.175  1.4778 -1.3051  1.8195
   99SAPC   C15 9789   2.869   0.347   2.424 -0.3815 -0.0706 -0.6224
   99SAPC  H15A 9790   2.935   0.400   2.357 -0.0758 -1.0031 -1.0799
   99SAPC  H15B 9791   2.812   0.415   2.486  0.2436  0.0951 -0.2230
   99SAPC  H15C 9792   2.939   0.288   2.482  0.4522  1.4278 -0.0615
   99SAPC   C11 9793   2.736   0.083   2.518  0.2352 -0.0273 -0.1659
   99SAPC  H11A 9794   2.657   0.053   2.590  0.5931 -2.1291 -0.5804
   99SAPC  H11B 9795   2.812   0.136   2.580 -2.2845  0.7972  2.4573
   99SAPC     P 9796   2.713  -0.171   2.460 -0.4679  0.0752  0.4490
   99SAPC   O13 9797   2.574  -0.142   2.421  0.0663  0.2331  0.2769
   99SAPC   O14 9798   2.789  -0.255   2.363  0.1185 -0.0271  0.0669
   99SAPC   O12 9799   2.791  -0.034   2.458 -0.4653  0.0078 -0.3431
   99SAPC   O11 9800   2.717  -0.237   2.605  0.3547  0.2011 -0.1332
   99SAPC    C1 9801   2.837  -0.230   2.685 -0.2105  0.6698 -0.7417
   99SAPC    HA 9802   2.918  -0.172   2.636 -0.3239  1.2954 -0.2065
   99SAPC    HB 9803   2.816  -0.174   2.779  1.1032 -0.3397  0.2008
   99SAPC    C2 9804   2.887  -0.375   2.714  0.0275 -0.6350  0.7135
   99SAPC    HS 9805   2.916  -0.414   2.614  1.6135 -1.5751  1.4891
   99SAPC   O21 9806   2.784  -0.455   2.783 -0.2414  0.1529  0.6085
   99SAPC   C21 9807   2.804  -0.586   2.765  0.4161 -0.5041 -0.3472
   99SAPC   O22 9808   2.875  -0.637   2.681 -0.6381  0.2655 -0.7061
   99SAPC   C22 9809   2.732  -0.651   2.878  0.1000 -0.4130 -0.7491
   99SAPC   H2R 9810   2.794  -0.660   2.970 -1.9556  0.3399  0.7785
   99SAPC   H2S 9811   2.640  -0.592   2.899 -0.8654 -2.7130  2.0810
   99SAPC    C3 9812   3.027  -0.377   2.791 -0.6527  0.1296 -0.2500
   99SAPC    HX 9813   3.099  -0.316   2.732  0.3071 -1.5789 -0.9129
   99SAPC    HY 9814   3.062  -0.482   2.804 -1.4569  0.0878  1.9388
   99SAPC   O31 9815   3.010  -0.305   2.914  0.7626  0.1900  0.0846
   99SAPC   C31 9816   2.989  -0.382   3.024 -0.0888 -0.5781  0.4957
   99SAPC   O32 9817   2.985  -0.502   3.019 -0.0543  0.1071 -0.9702
   99SAPC   C32 9818   2.958  -0.296   3.143  0.3559  0.8066  0.2008
   99SAPC   H2X 9819   2.879  -0.221   3.122 -0.5824 -0.4642 -0.9944
   99SAPC   H2Y 9820   3.045  -0.230   3.165  0.9971 -0.0057  0.1331
   99SAPC   C23 9821   2.685  -0.789   2.836  0.7939  0.4116 -0.1447
   99SAPC   H3R 9822   2.767  -0.854   2.798  0.3403 -1.2816  1.5899
   99SAPC   H3S 9823   2.608  -0.775   2.757  0.4928 -2.4681 -0.4706
   99SAPC   C24 9824   2.606  -0.876   2.937  0.0043  0.4994 -0.5516
   99SAPC   H4R 9825   2.679  -0.914   3.011  0.2631 -2.1675 -2.0370
   99SAPC   H4S 9826   2.574  -0.969   2.885 -1.2635  1.0364 -0.7838
   99SAPC   C25 9827   2.481  -0.814   3.001 -0.3594  0.0957  0.2645
   99SAPC   H5R 9828   2.410  -0.777   2.926  0.9509  1.1995 -0.4660
   99SAPC   C26 9829   2.467  -0.779   3.130  0.1199 -0.6958  0.7529
   99SAPC   H6R 9830   2.375  -0.731   3.166  0.2420  0.9161 -0.9450
   99SAPC   C27 9831   2.563  -0.811   3.239 -0.0660  0.1288 -0.1226
   99SAPC   H7R 9832   2.623  -0.901   3.212 -0.4048  0.0267 -0.5479
   99SAPC   H7S 9833   2.498  -0.847   3.321  0.3247  0.9054  0.5402
   99SAPC   C28 9834   2.656  -0.709   3.307 -0.3452  0.1711 -0.6876
   99SAPC   H8R 9835   2.702  -0.632   3.243 -0.2638 -1.5174 -2.7964
   99SAPC   C29 9836   2.688  -0.693   3.441 -0.5186  0.2294 -0.9399
   99SAPC   H9R 9837   2.756  -0.611   3.470 -0.7331 -0.3417  1.3525
   99SAPC  C210 9838   2.619  -0.765   3.557  0.2086 -0.4926 -0.2932
   99SAPC  H10R 9839   2.691  -0.822   3.619 -0.2416 -0.2784  0.4339
   99SAPC  H10S 9840   2.550  -0.846   3.524  0.9651 -1.1614 -0.2759
   99SAPC  C211 9841   2.529  -0.679   3.641 -0.1524  0.0641  0.1893
   99SAPC  H11R 9842   2.423  -0.661   3.617 -0.5352  3.1585  3.3692
   99SAPC  C212 9843   2.554  -0.629   3.759 -0.5337  0.0755 -0.4307
   99SAPC  H12R 9844   2.475  -0.582   3.819 -1.3399 -2.2897  0.4635
   99SAPC  C213 9845   2.683  -0.635   3.833  0.2747  0.0208 -0.2848
   99SAPC  H13R 9846   2.688  -0.543   3.895  0.9296 -0.7422  0.8545
   99SAPC  H13S 9847   2.772  -0.637   3.766 -0.2966  0.7533 -1.0839
   99SAPC  C214 9848   2.683  -0.763   3.921  0.3701  0.1670 -0.1715
   99SAPC  H14R 9849   2.628  -0.848   3.877  0.0168 -0.5016  1.4818
   99SAPC  C215 9850   2.766  -0.788   4.027 -0.2468  0.5966  0.4395
   99SAPC  H15R 9851   2.751  -0.881   4.083 -0.7294  0.5499  0.2373
   99SAPC  C216 9852   2.861  -0.677   4.091  0.3497  0.7983 -0.3565
   99SAPC  H16R 9853   2.806  -0.581   4.082  0.9124  1.1471 -0.1409
   99SAPC  H16S 9854   2.952  -0.673   4.026  1.6825  1.4366  1.4774
   99SAPC  C217 9855   2.893  -0.688   4.237  0.3970  0.5230 -0.0712
   99SAPC  H17R 9856   2.796  -0.707   4.287  0.1838  0.7182 -0.4085
   99SAPC  H17S 9857   2.923  -0.589   4.278  1.6576  0.0411  0.2048
   99SAPC  C218 9858   2.991  -0.801   4.285  0.0894  0.5342 -1.3889
   99SAPC  H18R 9859   3.091  -0.801   4.238  0.9932 -1.9205  0.3592
   99SAPC  H18S 9860   2.940  -0.895   4.253 -1.2076  1.1224 -1.1385
   99SAPC  C219 9861   3.001  -0.799   4.448  0.2282  0.0647 -0.2084
   99SAPC  H19R 9862   2.896  -0.792   4.486  0.1717  2.0615 -0.6326
   99SAPC  H19S 9863   3.045  -0.701   4.475  1.0797 -0.2876 -0.3101
   99SAPC  C220 9864   3.078  -0.920   4.501 -0.3104 -0.2340 -0.1221
   99SAPC  H20R 9865   3.051  -0.960   4.602 -2.6210 -0.1997 -0.6826
   99SAPC  H20S 9866   3.189  -0.907   4.501  0.2400 -3.8081 -1.7788
   99SAPC  H20T 9867   3.066  -1.004   4.430 -0.8677  0.9961 -1.5161
   99SAPC   C33 9868   2.937  -0.383   3.266 -0.1364  0.0461 -0.4594
   99SAPC   H3X 9869   3.015  -0.462   3.274 -0.7805 -0.5002  0.5893
   99SAPC   H3Y 9870   2.838  -0.433   3.263  0.3764 -1.4541  3.1804
   99SAPC   C34 9871   2.944  -0.285   3.396  0.4977  0.1662 -0.3363
   99SAPC   H4X 9872   2.865  -0.208   3.385 -0.3997 -1.0005 -2.7022
   99SAPC   H4Y 9873   3.042  -0.232   3.395  0.5008  0.1732  0.1286
   99SAPC   C35 9874   2.945  -0.369   3.529  0.2790 -0.0497 -0.2912
   99SAPC   H5X 9875   3.016  -0.454   3.524  0.0758 -0.1988 -0.6245
   99SAPC   H5Y 9876   2.841  -0.397   3.558 -0.6577  1.0508 -2.3887
   99SAPC   C36 9877   2.986  -0.281   3.652  0.3889  0.0222 -0.1667
   99SAPC   H6X 9878   2.910  -0.201   3.661  1.0278  0.4837  1.5572
   99SAPC   H6Y 9879   3.088  -0.241   3.633  0.5958 -0.9935 -1.3240
   99SAPC   C37 9880   2.985  -0.356   3.793 -0.2700 -0.2495  0.0456
   99SAPC   H7X 9881   3.083  -0.409   3.802  0.6014  1.1655 -0.6140
   99SAPC   H7Y 9882   2.903  -0.430   3.796 -0.6767  0.2302  2.2791
   99SAPC   C38 9883   2.975  -0.257   3.911 -0.0081  0.5869  0.5113
   99SAPC   H8X 9884   2.882  -0.196   3.905 -0.8138 -0.6524  0.0730
   99SAPC   H8Y 9885   3.064  -0.189   3.913  1.3780 -1.0930 -0.6824
   99SAPC   C39 9886   2.970  -0.325   4.050 -0.1776  0.2144 -0.8327
   99SAPC   H9X 9887   3.047  -0.405   4.050  0.9890  1.2932  0.2797
   99SAPC   H9Y 9888   2.869  -0.366   4.071  0.3856 -0.0422  1.7108
   99SAPC  C310 9889   2.999  -0.221   4.158 -0.2660 -0.4750 -0.5726
   99SAPC  H10X 9890   2.927  -0.139   4.139 -0.7051 -1.3688 -3.2591
   99SAPC  H10Y 9891   3.106  -0.191   4.152 -0.7568  2.2198  1.8464
   99SAPC  C311 9892   2.986  -0.277   4.303  0.1106  0.2779 -0.1266
   99SAPC  H11X 9893   3.042  -0.371   4.320 -0.4106  0.0252  0.1957
   99SAPC  H11Y 9894   2.881  -0.310   4.316 -0.3501  1.1671 -1.3415
   99SAPC  C312 9895   3.009  -0.174   4.413 -0.6316 -0.2853  0.1123
   99SAPC  H12X 9896   2.951  -0.081   4.392  1.0929  0.8826  0.2608
   99SAPC  H12Y 9897   3.116  -0.143   4.410 -0.5418 -0.2783  2.0622
   99SAPC  C313 9898   2.974  -0.218   4.553 -0.2526 -0.5811  0.2210
   99SAPC  H13X 9899   2.866  -0.246   4.553 -0.1177 -1.1041  0.5547
   99SAPC  H13Y 9900   2.958  -0.136   4.628 -2.7649 -0.1784 -0.6619
   99SAPC  C314 9901   3.059  -0.328   4.608 -0.4285  0.0295 -0.2224
   99SAPC  H14X 9902   3.167  -0.305   4.613 -0.2247 -0.0294 -2.7503
   99SAPC  H14Y 9903   3.050  -0.418   4.543 -1.0827  0.4928 -0.7998
   99SAPC  C315 9904   3.025  -0.388   4.746  0.2633  0.9401 -0.8633
   99SAPC  H15X 9905   3.038  -0.316   4.830  3.1364 -1.2840  0.7949
   99SAPC  H15Y 9906   3.095  -0.471   4.768  1.4324  2.3610  1.0344
   99SAPC  C316 9907   2.883  -0.455   4.757 -0.8945  0.6275  0.1889
   99SAPC  H16X 9908   2.805  -0.379   4.734 -0.8657  0.3675 -0.8225
   99SAPC  H16Y 9909   2.866  -0.499   4.858 -0.5314  0.7678  0.3131
   99SAPC  C317 9910   2.868  -0.577   4.667 -0.5975  0.6124  0.5031
   99SAPC  H17X 9911   2.934  -0.662   4.696 -3.4620 -2.1825 -0.6637
   99SAPC  H17Y 9912   2.908  -0.554   4.566  0.3445 -0.2353  0.6617
   99SAPC  C318 9913   2.722  -0.625   4.669  0.4573 -0.2379 -0.5829
   99SAPC  H18X 9914   2.704  -0.702   4.746  0.2074 -0.7858 -1.1768
   99SAPC  H18Y 9915   2.708  -0.676   4.571 -0.5436  2.0997 -1.7571
   99SAPC  H18Z 9916   2.642  -0.548   4.668  0.4025 -0.2805 -1.8786
  100SAPC     N 9917   3.020   5.071   1.909  0.3331 -0.0499  0.3679
  100SAPC   C12 9918   2.880   5.029   1.943  0.1413  0.1260 -0.4975
  100SAPC  H12A 9919   2.891   4.956   2.022  1.1263 -1.0576 -1.6822
  100SAPC  H12B 9920   2.839   4.969   1.863 -1.0022  0.1577  0.0447
  100SAPC   C13 9921   3.094   4.966   1.826  0.2075  1.0968 -0.0306
  100SAPC  H13A 9922   3.202   4.962   1.835 -0.0069  1.1472  4.4647
  100SAPC  H13B 9923   3.071   4.866   1.861  1.3141 -0.5909 -3.5702
  100SAPC  H13C 9924   3.063   4.961   1.722 -0.7150  0.5532  0.2609
  100SAPC   C14 9925   3.019   5.189   1.822 -0.4739  0.6937 -0.5759
  100SAPC  H14A 9926   2.969   5.270   1.873  1.6407  1.5791  0.2171
  100SAPC  H14B 9927   3.121   5.225   1.820 -0.5959  1.1066  0.1468
  100SAPC  H14C 9928   2.971   5.184   1.725 -0.3397 -1.3223 -0.5777
  100SAPC   C15 9929   3.100   5.106   2.034  0.7209 -0.4171  0.5870
  100SAPC  H15A 9930   3.051   5.169   2.107  1.0652  2.7280 -1.6742
  100SAPC  H15B 9931   3.143   5.021   2.085 -0.7395 -0.9611  0.9298
  100SAPC  H15C 9932   3.190   5.152   1.993  0.5564 -0.4744  0.1599
  100SAPC   C11 9933   2.786   5.134   2.016 -0.1903  0.1091  0.9230
  100SAPC  H11A 9934   2.843   5.181   2.099 -0.6437  0.1955  1.1858
  100SAPC  H11B 9935   2.701   5.079   2.062 -1.8580  1.1346 -0.7911
  100SAPC     P 9936   2.600   5.237   1.866 -0.1441  0.0915  0.1013
  100SAPC   O13 9937   2.605   5.315   1.738  0.8225 -0.1035 -0.5953
  100SAPC   O14 9938   2.555   5.095   1.857  0.6948 -0.1390 -0.6407
  100SAPC   O12 9939   2.745   5.246   1.932 -0.0435  0.4420  0.3327
  100SAPC   O11 9940   2.502   5.305   1.966 -0.2949  0.2016 -0.8215
  100SAPC    C1 9941   2.513   5.441   2.012  0.6105  0.2205 -0.3994
  100SAPC    HA 9942   2.609   5.484   1.975  1.8363 -2.1580 -0.1892
  100SAPC    HB 9943   2.427   5.494   1.966  1.1294  1.0940 -0.3821
  100SAPC    C2 9944   2.522   5.442   2.169  0.7400 -0.1623  0.3758
  100SAPC    HS 9945   2.609   5.381   2.202  0.2937 -1.7231 -1.1840
  100SAPC   O21 9946   2.397   5.402   2.226 -0.3600 -0.4868 -0.1684
  100SAPC   C21 9947   2.403   5.287   2.297  0.0407  0.7404 -0.1577
  100SAPC   O22 9948   2.502   5.226   2.327 -0.3111 -0.4405  0.2168
  100SAPC   C22 9949   2.264   5.249   2.337  0.7230 -0.2420  0.3123
  100SAPC   H2R 9950   2.203   5.247   2.244  2.8678 -1.6204 -1.1666
  100SAPC   H2S 9951   2.260   5.148   2.382 -0.7372  0.3643  1.6440
  100SAPC    C3 9952   2.556   5.592   2.218 -0.4267  0.0819  0.8466
  100SAPC    HX 9953   2.503   5.658   2.146  1.2239  1.1529  0.5571
  100SAPC    HY 9954   2.661   5.619   2.196 -0.2338  0.2562  1.9428
  100SAPC   O31 9955   2.527   5.615   2.351  0.1175 -0.2129 -0.1694
  100SAPC   C31 9956   2.406   5.653   2.381 -0.0211 -0.2299  0.1503
  100SAPC   O32 9957   2.315   5.694   2.307  0.0766  0.6670 -0.2417
  100SAPC   C32 9958   2.391   5.643   2.530 -0.4272 -0.2352  0.0520
  100SAPC   H2X 9959   2.467   5.714   2.569  0.4809 -1.8664  1.4013
  100SAPC   H2Y 9960   2.417   5.546   2.577 -1.9945 -0.4698  0.5046
  100SAPC   C23 9961   2.194   5.343   2.438  0.0120 -0.0447  0.2462
  100SAPC   H3R 9962   2.154   5.429   2.379  1.0754 -0.9228 -1.8674
  100SAPC   H3S 9963   2.267   5.379   2.513  2.7232 -3.5731 -0.4441
  100SAPC   C24 9964   2.090   5.277   2.524  0.0059 -0.0849 -0.2128
  100SAPC   H4R 9965   2.133   5.186   2.571 -1.5272  0.5076  2.5624
  100SAPC   H4S 9966   2.005   5.239   2.464 -0.6757  0.4901  0.3594
  100SAPC   C25 9967   2.033   5.372   2.625  0.4070 -0.2468  0.1548
  100SAPC   H5R 9968   1.941   5.428   2.601  0.3639 -1.1246 -1.8506
  100SAPC   C26 9969   2.078   5.398   2.753  0.2946  0.0461  0.4359
  100SAPC   H6R 9970   2.023   5.470   2.816  1.1487  0.0323  1.2263
  100SAPC   C27 9971   2.198   5.334   2.826  0.6561 -0.1958  0.3450
  100SAPC   H7R 9972   2.227   5.414   2.897 -0.6418  2.1973 -1.6790
  100SAPC   H7S 9973   2.289   5.339   2.762  0.7949  1.6706  0.6362
  100SAPC   C28 9974   2.170   5.194   2.883  0.9521 -0.2414 -0.4455
  100SAPC   H8R 9975   2.149   5.115   2.810  0.2267  0.9340 -1.5550
  100SAPC   C29 9976   2.176   5.159   3.014  0.1403  0.4991  0.4223
  100SAPC   H9R 9977   2.157   5.052   3.029 -1.1156  0.5769 -0.4395
  100SAPC  C210 9978   2.208   5.243   3.135  0.3263 -0.2965 -0.2165
  100SAPC  H10R 9979   2.209   5.352   3.112 -2.2000  0.2647  1.7651
  100SAPC  H10S 9980   2.306   5.204   3.168  0.7630 -0.1329 -1.2873
  100SAPC  C211 9981   2.096   5.227   3.237 -0.0257 -0.6769  0.0370
  100SAPC  H11R 9982   1.992   5.222   3.203  0.5519  2.0559 -2.5717
  100SAPC  C212 9983   2.115   5.221   3.369  0.2258 -0.2457  0.3544
  100SAPC  H12R 9984   2.023   5.207   3.428 -0.7220 -0.3727 -1.0942
  100SAPC  C213 9985   2.247   5.244   3.441 -0.2441  0.1645 -0.0484
  100SAPC  H13R 9986   2.330   5.256   3.368 -1.2432  2.0935 -0.9405
  100SAPC  H13S 9987   2.269   5.158   3.508  0.4076 -0.2911 -0.8313
  100SAPC  C214 9988   2.242   5.365   3.526  0.1500  0.1016 -0.0503
  100SAPC  H14R 9989   2.200   5.461   3.491 -1.0612  0.1791  1.5202
  100SAPC  C215 9990   2.289   5.365   3.657 -0.9677  0.4498  0.3116
  100SAPC  H15R 9991   2.276   5.452   3.722 -0.8661 -0.0910  1.0751
  100SAPC  C216 9992   2.354   5.245   3.726  0.2226 -0.9609  0.2928
  100SAPC  H16R 9993   2.464   5.259   3.717  0.1303  1.1446  1.5318
  100SAPC  H16S 9994   2.330   5.145   3.685 -0.9754 -0.6678  0.2397
  100SAPC  C217 9995   2.330   5.236   3.879  0.5671  0.6254 -0.4679
  100SAPC  H17R 9996   2.415   5.178   3.919  0.2413  0.0025 -0.6708
  100SAPC  H17S 9997   2.232   5.189   3.900  0.5053  1.0013  0.1112
  100SAPC  C218 9998   2.336   5.367   3.957  0.0879  0.4942 -0.0679
  100SAPC  H18R 9999   2.235   5.409   3.942 -1.6551 -3.4033 -0.3491
  100SAPC  H18S10000   2.423   5.423   3.916  0.9504 -0.0966  0.8926
  100SAPC  C21910001   2.364   5.327   4.102  0.1020 -0.4674 -0.1136
  100SAPC  H19R10002   2.467   5.288   4.119  0.3141  0.5881  1.1566
  100SAPC  H19S10003   2.303   5.238   4.127 -0.3886  0.3805  1.8693
  100SAPC  C22010004   2.356   5.445   4.197 -0.5112 -0.9643 -0.4156
  100SAPC  H20R10005   2.418   5.535   4.175 -2.6594  0.9598  0.9137
  100SAPC  H20S10006   2.384   5.411   4.299 -0.7550  1.4845  0.5412
  100SAPC  H20T10007   2.251   5.480   4.188 -0.9732 -2.5211 -1.5063
  100SAPC   C3310008   2.253   5.681   2.593 -0.3792  0.5790  0.6110
  100SAPC   H3X10009   2.194   5.589   2.574 -0.0389 -0.5321  4.3136
  100SAPC   H3Y10010   2.202   5.760   2.533 -2.0083 -1.3160 -0.6418
  100SAPC   C3410011   2.268   5.723   2.737 -0.0032  0.2900  0.2872
  100SAPC   H4X10012   2.356   5.791   2.742  0.5670 -0.3697 -0.4523
  100SAPC   H4Y10013   2.291   5.637   2.804 -2.1591  0.7063  1.6631
  100SAPC   C3510014   2.131   5.779   2.784  0.4558 -0.2422 -0.1501
  100SAPC   H5X10015   2.053   5.701   2.766  2.4496 -2.1518 -1.0356
  100SAPC   H5Y10016   2.109   5.875   2.732 -0.9817 -0.2673  0.3711
  100SAPC   C3610017   2.119   5.825   2.931 -0.1453  0.0613  0.5295
  100SAPC   H6X10018   2.046   5.907   2.942 -1.2465 -0.9588  1.1011
  100SAPC   H6Y10019   2.220   5.866   2.950 -0.6391  3.6067 -3.1275
  100SAPC   C3710020   2.084   5.720   3.033 -0.0693 -0.3365  0.4243
  100SAPC   H7X10021   2.139   5.624   3.021 -0.4431 -0.6778  1.3616
  100SAPC   H7Y10022   1.974   5.707   3.031  0.0855 -1.9287  1.1050
  100SAPC   C3810023   2.117   5.764   3.173 -0.6357 -0.2795  0.0274
  100SAPC   H8X10024   2.075   5.865   3.187  0.2280 -0.3037  3.6694
  100SAPC   H8Y10025   2.228   5.768   3.181 -0.2997 -1.2333 -2.8987
  100SAPC   C3910026   2.067   5.660   3.277  0.0972 -0.5263  0.7258
  100SAPC   H9X10027   2.128   5.567   3.273 -0.1222 -0.6308 -1.4499
  100SAPC   H9Y10028   1.975   5.621   3.228 -0.5702  1.9256 -0.1333
  100SAPC  C31010029   2.043   5.717   3.410  0.2417 -0.0635 -0.4748
  100SAPC  H10X10030   1.984   5.646   3.471 -0.1455 -2.2397 -3.1871
  100SAPC  H10Y10031   1.970   5.801   3.405 -1.2773 -1.3143 -0.0952
  100SAPC  C31110032   2.170   5.759   3.481 -0.1007 -0.2606 -0.3144
  100SAPC  H11X10033   2.195   5.862   3.447  0.3103 -0.4278 -0.5164
  100SAPC  H11Y10034   2.252   5.686   3.464 -0.4490 -0.4272 -1.3956
  100SAPC  C31210035   2.141   5.772   3.630 -0.1223 -0.8707  0.6115
  100SAPC  H12X10036   2.105   5.671   3.659  1.1283 -2.3404 -2.5471
  100SAPC  H12Y10037   2.065   5.849   3.656  1.6234 -0.0247  3.7819
  100SAPC  C31310038   2.263   5.796   3.720  0.7057 -1.2017 -0.7060
  100SAPC  H13X10039   2.318   5.885   3.683 -1.1471 -0.3512 -1.5199
  100SAPC  H13Y10040   2.334   5.711   3.707  1.3154 -1.2729  2.3659
  100SAPC  C31410041   2.226   5.796   3.871  0.1432  0.6802  0.0606
  100SAPC  H14X10042   2.191   5.697   3.908  0.3984  0.7293  0.4385
  100SAPC  H14Y10043   2.145   5.871   3.887 -1.0537 -0.4871 -0.3403
  100SAPC  C31510044   2.345   5.827   3.956 -0.2521 -0.0433 -0.0459
  100SAPC  H15X10045   2.393   5.918   3.916 -1.3853  0.4534 -0.2953
  100SAPC  H15Y10046   2.425   5.752   3.937 -0.3444 -0.5722  1.4823
  100SAPC  C31610047   2.299   5.826   4.104  0.6806 -0.4451 -0.3368
  100SAPC  H16X10048   2.261   5.727   4.136  1.8677 -0.6897  0.3536
  100SAPC  H16Y10049   2.222   5.902   4.132  2.2202  0.3056  2.2251
  100SAPC  C31710050   2.423   5.846   4.194  0.0323 -0.0165 -0.6859
  100SAPC  H17X10051   2.463   5.949   4.180  0.6688  0.0720  1.4663
  100SAPC  H17Y10052   2.493   5.770   4.155  2.1205  1.4174  0.0860
  100SAPC  C31810053   2.414   5.824   4.346  0.5995  0.7279 -0.0370
  100SAPC  H18X10054   2.326   5.874   4.392 -1.8025 -1.1019 -2.2992
  100SAPC  H18Y10055   2.506   5.865   4.393  0.0709 -0.5587  2.2637
  100SAPC  H18Z10056   2.414   5.715   4.367 -2.0315  0.8268  0.7779
  101OSM      N10057   3.267   3.951   7.367 -0.4627  0.1264  0.1813
  101OSM    C1510058   3.384   3.977   7.449  0.3262  0.2282 -0.3591
  101OSM   H15A10059   3.415   3.888   7.502  1.5048 -1.0971 -3.0610
  101OSM   H15B10060   3.363   4.050   7.525  1.7641  1.3564 -0.9951
  101OSM   H15C10061   3.459   4.013   7.380 -1.8155  1.2872 -2.2370
  101OSM    C1410062   3.154   3.899   7.452 -1.3091 -0.6131 -0.5547
  101OSM   H14A10063   3.186   3.812   7.508  0.0758 -0.4212 -1.0056
  101OSM   H14B10064   3.068   3.874   7.393 -2.2432  0.1146  0.4475
  101OSM   H14C10065   3.128   3.981   7.518 -1.5913 -0.4121 -0.9122
  101OSM    C1310066   3.228   4.083   7.306 -0.1328 -0.2209  0.2028
  101OSM   H13A10067   3.198   4.161   7.375 -0.1752  0.5110 -0.6337
  101OSM   H13B10068   3.145   4.056   7.243 -0.1286 -2.6391  1.1464
  101OSM   H13C10069   3.307   4.112   7.238 -0.7063 -1.0337 -0.8336
  101OSM    C1210070   3.290   3.855   7.252  0.5063 -0.4577  0.4357
  101OSM   H12A10071   3.191   3.828   7.217  0.6162 -0.1705 -0.1073
  101OSM   H12B10072   3.338   3.764   7.283  2.2157  0.6359  1.1603
  101OSM    C1110073   3.350   3.905   7.123  0.2607  0.1278 -0.0881
  101OSM   H11A10074   3.268   3.951   7.064 -0.9869 -1.7959  0.0472
  101OSM   H11B10075   3.381   3.816   7.065 -0.4763  1.3491 -2.5021
  101OSM      P10076   3.509   4.081   7.011  0.2906 -0.2771 -0.2583
  101OSM    O1310077   3.465   4.222   7.033  0.3291  0.1715 -0.8127
  101OSM    O1410078   3.654   4.064   6.996 -0.0010 -0.0927  0.3933
  101OSM    O1110079   3.435   4.013   6.890  0.0739 -0.5480  0.4166
  101OSM    O1210080   3.459   3.997   7.138 -0.4197 -0.2510 -0.3509
  101OSM    C1S10081   3.420   4.101   6.774  0.5252  0.0390  0.2295
  101OSM    H1S10082   3.519   4.148   6.752  2.0618 -3.7750 -2.0902
  101OSM    H1T10083   3.328   4.162   6.788  0.1278 -1.0231  2.7797
  101OSM     NF10084   3.379   4.092   6.513 -0.0524 -0.1957 -0.8541
  101OSM    HNF10085   3.289   4.102   6.473 -0.9865  2.0793  1.5371
  101OSM    C2S10086   3.407   4.018   6.639  0.0276  0.2228  0.3329
  101OSM    H2S10087   3.511   3.980   6.630 -0.0950 -0.6414  1.9545
  101OSM    C3S10088   3.328   3.880   6.647  0.4279 -0.4595  0.2166
  101OSM    H3S10089   3.218   3.896   6.652  0.3658 -1.1550  1.7358
  101OSM     O310090   3.351   3.791   6.753  0.3945  0.1758 -0.1323
  101OSM    HO310091   3.397   3.845   6.817  0.8031  2.0476 -1.8885
  101OSM    C4S10092   3.353   3.816   6.524  0.3209 -0.1409 -0.2068
  101OSM    H4S10093   3.443   3.856   6.474 -0.1557  1.5113  0.1954
  101OSM    C5S10094   3.272   3.739   6.448  0.8063 -0.8156 -0.0069
  101OSM    H5S10095   3.174   3.699   6.477  0.3457 -0.2928 -0.7942
  101OSM    C6S10096   3.319   3.684   6.313  0.3139  0.5472  0.1387
  101OSM    H6S10097   3.251   3.604   6.277  1.7724  0.2253 -2.1309
  101OSM    H6T10098   3.421   3.638   6.314 -0.5020 -1.3569 -0.4887
  101OSM    C7S10099   3.310   3.788   6.200 -1.1524 -0.2551  0.2698
  101OSM    H7S10100   3.355   3.887   6.221 -4.0106  1.3447 -0.6101
  101OSM    H7T10101   3.206   3.825   6.184 -0.9614  0.4337  0.5907
  101OSM    C8S10102   3.371   3.736   6.063 -0.0993  0.5450 -0.7903
  101OSM    H8S10103   3.322   3.651   6.011  0.2352 -0.3253  0.2654
  101OSM    H8T10104   3.470   3.691   6.088 -0.9950  0.0728  2.2707
  101OSM    C9S10105   3.390   3.852   5.969 -0.0543 -0.0840 -0.2710
  101OSM    H9S10106   3.449   3.939   6.002  1.3158 -0.6404 -1.1469
  101OSM    H9T10107   3.296   3.906   5.943  0.9724  0.4260 -3.3339
  101OSM   C10S10108   3.454   3.806   5.841  0.3437 -0.2626  0.5029
  101OSM   H10S10109   3.380   3.738   5.794  0.6699  1.5595 -2.9910
  101OSM   H10T10110   3.546   3.747   5.859 -0.7339 -1.7907  1.2253
  101OSM   C11S10111   3.483   3.923   5.741  0.2800 -0.1957  0.2216
  101OSM   H11S10112   3.515   4.009   5.803  0.1973 -0.3565  0.4896
  101OSM   H11T10113   3.394   3.962   5.688  0.9010  1.0660  0.0786
  101OSM   C12S10114   3.588   3.881   5.637 -0.3102  0.1171 -0.6062
  101OSM   H12S10115   3.675   3.844   5.694 -1.3720 -0.6618  0.5566
  101OSM   H12T10116   3.614   3.969   5.574  0.0013 -0.5358 -1.4064
  101OSM   C13S10117   3.540   3.778   5.536  0.2435  0.4493  0.1380
  101OSM   H13S10118   3.437   3.816   5.518 -0.1080 -0.1328  0.9033
  101OSM   H13T10119   3.537   3.677   5.581  0.4497 -0.2232 -1.2898
  101OSM   C14S10120   3.620   3.767   5.408  0.0324  0.0507  0.1517
  101OSM   H14S10121   3.716   3.712   5.416  0.3220  0.2184 -1.5997
  101OSM   H14T10122   3.659   3.867   5.378  1.5492 -0.2225  1.0851
  101OSM   C15S10123   3.530   3.721   5.291 -0.3011 -0.2299 -0.4209
  101OSM   H15S10124   3.460   3.806   5.275  0.9430  0.7167 -1.0631
  101OSM   H15T10125   3.472   3.630   5.315  1.6234 -1.5091 -0.3399
  101OSM   C16S10126   3.614   3.708   5.170  0.1416  0.0301  0.3324
  101OSM   H16S10127   3.669   3.612   5.169  0.5057  0.1978  1.8990
  101OSM   H16T10128   3.685   3.793   5.155  0.9843 -0.8387 -0.7971
  101OSM   C17S10129   3.526   3.717   5.048  0.0225  0.5000 -0.2994
  101OSM   H17S10130   3.494   3.823   5.040 -0.2974  0.3588 -0.8643
  101OSM   H17T10131   3.440   3.650   5.069 -3.4344  4.8814  1.2086
  101OSM   C18S10132   3.600   3.694   4.917 -0.2597 -0.5393  0.1999
  101OSM   H18S10133   3.533   3.734   4.837  1.1921  2.7334  0.4637
  101OSM   H18T10134   3.631   3.588   4.903  0.6373 -0.2702  0.1459
  101OSM   H18U10135   3.675   3.775   4.911  0.9408 -1.5440  1.2459
  101OSM    C1F10136   3.465   4.186   6.462 -0.4487 -0.2358  0.7113
  101OSM     OF10137   3.572   4.208   6.513  0.2215  0.0199  0.0069
  101OSM    C2F10138   3.419   4.268   6.346  0.0818 -0.1776  0.1906
  101OSM    H2F10139   3.420   4.374   6.378 -2.6176  0.2457 -0.8644
  101OSM    H2G10140   3.311   4.252   6.325 -0.4040  0.5361  1.9377
  101OSM    C3F10141   3.501   4.263   6.210  0.1048 -0.4575 -0.4709
  101OSM    H3F10142   3.501   4.159   6.172 -0.0717 -0.0977 -1.4733
  101OSM    H3G10143   3.603   4.307   6.222  1.4644 -3.4529 -0.0094
  101OSM    C4F10144   3.419   4.344   6.110 -0.3642 -0.1146 -0.3569
  101OSM    H4F10145   3.419   4.452   6.134  1.0941  0.0618 -1.0342
  101OSM    H4G10146   3.315   4.307   6.120  0.2156 -1.9907 -0.7060
  101OSM    C5F10147   3.472   4.326   5.963 -0.6067 -0.2592 -1.2983
  101OSM    H5F10148   3.473   4.216   5.945  1.6768 -0.1942 -1.8774
  101OSM    H5G10149   3.579   4.352   5.978 -0.6374 -1.3566  1.4278
  101OSM    C6F10150   3.407   4.414   5.864 -0.0450  0.0366  0.6339
  101OSM    H6F10151   3.403   4.517   5.907  2.6739  0.0337  1.0674
  101OSM    H6G10152   3.307   4.374   5.837 -0.2758  1.5308 -0.8912
  101OSM    C7F10153   3.496   4.430   5.740 -0.4023  0.4894  0.5061
  101OSM    H7F10154   3.599   4.455   5.773 -0.3616 -0.7030  1.3687
  101OSM    H7G10155   3.453   4.514   5.683 -0.1291  0.2746 -0.0193
  101OSM    C8F10156   3.522   4.315   5.640 -0.4449  0.1404 -0.6717
  101OSM    H8F10157   3.595   4.253   5.696  0.6333  2.3654  0.4948
  101OSM    H8G10158   3.584   4.354   5.556 -0.3445  1.3228 -0.0665
  101OSM    C9F10159   3.397   4.244   5.586 -0.1379 -1.1966 -0.0472
  101OSM    H9F10160   3.310   4.250   5.653  1.2502  1.4807  1.7043
  101OSM   C10F10161   3.380   4.198   5.459 -0.3346  0.1086  0.3159
  101OSM   H10F10162   3.281   4.165   5.424 -1.0041  1.7368  0.5797
  101OSM   C11F10163   3.491   4.192   5.355 -0.1684 -0.8721 -0.1937
  101OSM   H11F10164   3.513   4.087   5.329 -0.5087 -0.8835 -0.4403
  101OSM   H11G10165   3.590   4.231   5.386  0.5024 -2.0883 -0.7522
  101OSM   C12F10166   3.445   4.266   5.229  0.4214 -0.3371  0.0061
  101OSM   H12F10167   3.430   4.371   5.263  0.5765 -0.6540  1.0680
  101OSM   H12G10168   3.344   4.231   5.201  0.3251 -0.8166  0.9408
  101OSM   C13F10169   3.542   4.243   5.108 -0.1821  1.0593 -0.0737
  101OSM   H13F10170   3.531   4.135   5.089  0.7718  1.0058 -0.3559
  101OSM   H13G10171   3.647   4.276   5.119  0.5129 -0.3299 -1.9494
  101OSM   C14F10172   3.499   4.330   4.992 -0.6441  0.0080  0.6397
  101OSM   H14F10173   3.509   4.439   5.011  1.7547 -0.4191  2.2993
  101OSM   H14G10174   3.391   4.307   4.976 -0.7073  0.3623  0.5513
  101OSM   C15F10175   3.571   4.295   4.861 -0.0158  0.3700  0.2558
  101OSM   H15F10176   3.538   4.362   4.779  4.0636  3.1760  0.5939
  101OSM   H15G10177   3.565   4.190   4.827  2.2853  0.2790 -0.0240
  101OSM   C16F10178   3.720   4.321   4.871  0.1005 -0.0980  0.4643
  101OSM   H16F10179   3.774   4.248   4.935  2.2035 -0.3963 -1.4937
  101OSM   H16G10180   3.732   4.424   4.910  2.0024  1.1408 -2.9214
  101OSM   C17F10181   3.790   4.328   4.728  0.2062 -0.3739  0.8321
  101OSM   H17F10182   3.764   4.412   4.660  1.2159 -2.0772 -1.8235
  101OSM   H17G10183   3.760   4.231   4.683  2.3514 -0.7686  0.1339
  101OSM   C18F10184   3.939   4.326   4.726 -0.7326 -0.5054  0.7925
  101OSM   H18F10185   3.989   4.302   4.629 -0.7853 -2.5543  1.2425
  101OSM   H18G10186   3.982   4.257   4.801  1.7779 -0.1926 -0.2320
  101OSM   H18H10187   3.988   4.422   4.753 -0.1844 -0.2040 -1.1135
  102OSM      N10188   3.328   3.370   6.844 -0.0001 -0.4604  0.4575
  102OSM    C1510189   3.202   3.356   6.921  0.2858 -0.5326  0.5414
  102OSM   H15A10190   3.139   3.280   6.877 -1.0319 -0.0771  1.5741
  102OSM   H15B10191   3.142   3.445   6.915 -1.2924 -1.5586  0.4790
  102OSM   H15C10192   3.228   3.341   7.025  0.9656  3.4474  1.0854
  102OSM    C1410193   3.400   3.491   6.896 -0.6303  0.2626  0.0373
  102OSM   H14A10194   3.390   3.488   7.004 -4.2248  0.9912 -0.1440
  102OSM   H14B10195   3.353   3.585   6.873  0.3798  0.5831 -0.7799
  102OSM   H14C10196   3.506   3.497   6.879 -0.1801 -1.4674  1.7535
  102OSM    C1310197   3.415   3.251   6.875  0.0694  0.3140 -0.2334
  102OSM   H13A10198   3.461   3.266   6.971 -0.5153 -0.5779  0.1976
  102OSM   H13B10199   3.496   3.246   6.804  0.7847  0.8287  0.5279
  102OSM   H13C10200   3.359   3.159   6.876 -1.1183  1.0049 -0.4939
  102OSM    C1210201   3.299   3.385   6.695 -0.5921  0.4869  0.4639
  102OSM   H12A10202   3.232   3.467   6.671 -0.2859  0.2768 -1.2312
  102OSM   H12B10203   3.244   3.297   6.665  0.9348 -0.1720 -0.5047
  102OSM    C1110204   3.419   3.398   6.602 -1.1047 -0.6825  0.4952
  102OSM   H11A10205   3.481   3.487   6.623 -1.0207 -0.1107 -1.8408
  102OSM   H11B10206   3.386   3.426   6.499 -2.4893  0.6025  1.2608
  102OSM      P10207   3.464   3.156   6.518  0.0740 -0.0741  0.3429
  102OSM    O1310208   3.552   3.049   6.573 -0.3460  0.2590  0.3338
  102OSM    O1410209   3.319   3.136   6.533  0.8607 -0.6744 -0.7936
  102OSM    O1110210   3.494   3.192   6.370  0.1705  0.3170 -0.0731
  102OSM    O1210211   3.500   3.286   6.594 -0.8534  0.2902  0.0331
  102OSM    C1S10212   3.624   3.160   6.319  0.0987  0.5995 -0.3593
  102OSM    H1S10213   3.650   3.053   6.331 -2.8350 -0.0155  1.5361
  102OSM    H1T10214   3.702   3.224   6.365  0.3527 -0.2040  0.3476
  102OSM     NF10215   3.753   3.142   6.118  0.0703  0.0952  0.2902
  102OSM    HNF10216   3.828   3.201   6.089 -1.1724  0.7086 -1.9315
  102OSM    C2S10217   3.630   3.196   6.172 -0.3281  0.5482 -0.0391
  102OSM    H2S10218   3.546   3.145   6.121 -0.7956  1.9669 -0.7509
  102OSM    C3S10219   3.602   3.346   6.136  0.0661  0.1126 -0.4074
  102OSM    H3S10220   3.688   3.409   6.167 -1.3858  0.8041  2.6361
  102OSM     O310221   3.486   3.390   6.208 -0.7052  0.2330  0.4339
  102OSM    HO310222   3.470   3.314   6.264 -0.0139 -0.2034  0.0566
  102OSM    C4S10223   3.588   3.372   5.990 -0.3453  0.0490  0.8868
  102OSM    H4S10224   3.488   3.353   5.947  0.5344 -1.9396 -0.4524
  102OSM    C5S10225   3.685   3.416   5.915 -0.0966 -0.4927  0.1371
  102OSM    H5S10226   3.778   3.450   5.961  0.3914 -2.5080  0.7113
  102OSM    C6S10227   3.656   3.449   5.767 -0.1242 -0.0526 -0.1928
  102OSM    H6S10228   3.727   3.527   5.732  0.4024  0.3621  1.6882
  102OSM    H6T10229   3.552   3.486   5.758 -1.2653 -2.3635  2.0960
  102OSM    C7S10230   3.685   3.340   5.668  0.0742  0.0330  0.5349
  102OSM    H7S10231   3.613   3.256   5.681 -0.0913  0.3146  1.4968
  102OSM    H7T10232   3.784   3.299   5.697  1.3341  3.3078  1.1739
  102OSM    C8S10233   3.673   3.382   5.521  0.1630 -0.5975 -0.5512
  102OSM    H8S10234   3.733   3.474   5.502  2.1851 -1.9465 -0.9565
  102OSM    H8T10235   3.569   3.417   5.506 -0.2627 -2.3388 -1.9498
  102OSM    C9S10236   3.683   3.276   5.420  0.5612  0.2853 -0.6326
  102OSM    H9S10237   3.606   3.197   5.435  1.1924 -0.4762 -1.2950
  102OSM    H9T10238   3.784   3.230   5.428  1.9940  2.6763 -2.9703
  102OSM   C10S10239   3.682   3.325   5.281  0.1378 -0.3983  0.7799
  102OSM   H10S10240   3.776   3.382   5.267 -0.1174 -0.2257 -0.3585
  102OSM   H10T10241   3.606   3.406   5.268 -0.5978 -1.1170  0.5393
  102OSM   C11S10242   3.673   3.220   5.173  0.5105 -0.4735  1.0726
  102OSM   H11S10243   3.593   3.143   5.168 -0.1841  0.3203 -0.4857
  102OSM   H11T10244   3.770   3.165   5.181  0.0486 -1.1465  2.5571
  102OSM   C12S10245   3.658   3.279   5.031 -0.0416  0.4722 -0.6067
  102OSM   H12S10246   3.747   3.337   4.999  1.0885  0.0598  1.5528
  102OSM   H12T10247   3.579   3.356   5.018  0.5148  1.0540 -0.5714
  102OSM   C13S10248   3.631   3.173   4.926 -0.5730 -0.1403 -0.1924
  102OSM   H13S10249   3.523   3.147   4.937 -0.4154 -0.2491  1.3847
  102OSM   H13T10250   3.685   3.077   4.942  0.9203  0.7139 -0.0305
  102OSM   C14S10251   3.649   3.231   4.783 -0.1877 -0.5188  0.3815
  102OSM   H14S10252   3.618   3.337   4.788  1.3073 -0.0162 -0.2197
  102OSM   H14T10253   3.587   3.177   4.709  1.8486 -0.9153 -1.1320
  102OSM   C15S10254   3.801   3.218   4.749 -0.1571  0.6623  0.7673
  102OSM   H15S10255   3.824   3.111   4.734  0.2304  1.1112 -2.4793
  102OSM   H15T10256   3.863   3.268   4.826 -0.0594  1.6098  0.0929
  102OSM   C16S10257   3.817   3.290   4.613  0.4813 -0.0938 -0.4988
  102OSM   H16S10258   3.745   3.375   4.618 -0.1117 -0.6642  1.4408
  102OSM   H16T10259   3.790   3.212   4.538 -3.8714  0.7194 -0.0521
  102OSM   C17S10260   3.953   3.339   4.583 -0.5613  0.5150  0.0989
  102OSM   H17S10261   4.024   3.255   4.599 -0.4927  0.4716 -0.4148
  102OSM   H17T10262   3.990   3.420   4.649  0.1230  2.0095 -2.0275
  102OSM   C18S10263   3.972   3.401   4.437  0.4788  1.0024 -0.2824
  102OSM   H18S10264   3.994   3.320   4.364 -2.2109 -1.4601  1.4042
  102OSM   H18T10265   4.060   3.468   4.439 -0.2784  2.0264 -0.2070
  102OSM   H18U10266   3.878   3.458   4.418 -0.0539  0.8462  1.6726
  102OSM    C1F10267   3.781   3.012   6.113 -0.1859  0.2946 -0.0868
  102OSM     OF10268   3.700   2.922   6.131 -0.3245 -0.3274  0.0813
  102OSM    C2F10269   3.923   2.975   6.091 -0.2431 -0.4495 -0.5565
  102OSM    H2F10270   3.951   2.917   6.182  0.4497  1.2019  0.3409
  102OSM    H2G10271   3.987   3.066   6.087 -1.3200  0.4523  1.1520
  102OSM    C3F10272   3.941   2.913   5.957 -0.1262  0.3171  1.1493
  102OSM    H3F10273   3.861   2.839   5.934 -1.3700  1.4076  1.8547
  102OSM    H3G10274   4.041   2.866   5.955 -1.3943 -2.8317  3.3249
  102OSM    C4F10275   3.946   3.013   5.832  0.2096 -0.0679  0.3763
  102OSM    H4F10276   3.996   3.107   5.863  1.8009 -1.2047  1.3501
  102OSM    H4G10277   3.845   3.043   5.795  0.1904 -0.8963 -0.2838
  102OSM    C5F10278   4.014   2.955   5.710 -0.5156  0.2117  0.7201
  102OSM    H5F10279   3.971   2.854   5.692  1.0334  0.0397 -3.0252
  102OSM    H5G10280   4.119   2.932   5.739 -0.1417 -1.4771 -1.5875
  102OSM    C6F10281   4.000   3.033   5.580  0.3395  0.2733 -0.6477
  102OSM    H6F10282   3.894   3.057   5.557 -0.3862  0.8352  2.6758
  102OSM    H6G10283   4.036   2.978   5.491  0.0186 -0.2132 -0.4843
  102OSM    C7F10284   4.068   3.160   5.594  0.7432 -0.9514 -0.4425
  102OSM    H7F10285   4.014   3.230   5.662 -0.9857 -1.8440 -0.8439
  102OSM    H7G10286   4.051   3.206   5.494  3.3149 -0.2700 -0.6436
  102OSM    C8F10287   4.218   3.158   5.623 -0.5017  0.4845 -0.5443
  102OSM    H8F10288   4.245   3.082   5.700 -1.3527  1.2661  0.5561
  102OSM    H8G10289   4.245   3.250   5.679  0.1976  0.4786 -0.8640
  102OSM    C9F10290   4.307   3.155   5.496 -0.5520  0.7693 -0.4793
  102OSM    H9F10291   4.289   3.065   5.437  0.6303  0.6835 -0.7256
  102OSM   C10F10292   4.383   3.255   5.444  0.0952  0.3422 -0.1914
  102OSM   H10F10293   4.424   3.243   5.342  1.3839  1.8704  0.1187
  102OSM   C11F10294   4.425   3.386   5.498 -0.0427  0.2969 -0.7980
  102OSM   H11F10295   4.427   3.377   5.609 -0.7515 -1.6915 -0.9005
  102OSM   H11G10296   4.345   3.460   5.474 -1.8056 -1.1591  0.2403
  102OSM   C12F10297   4.560   3.440   5.442 -0.1777  0.4418  0.7413
  102OSM   H12F10298   4.639   3.362   5.449  0.4795  1.1894  1.8758
  102OSM   H12G10299   4.584   3.527   5.506 -3.2309  1.3152  0.8568
  102OSM   C13F10300   4.534   3.484   5.296 -0.6116  0.1159  0.2117
  102OSM   H13F10301   4.432   3.521   5.274 -0.4893  0.6429  0.5172
  102OSM   H13G10302   4.549   3.400   5.225 -2.3885 -1.3697  1.5056
  102OSM   C14F10303   4.621   3.600   5.245 -0.3689 -0.5295 -0.3665
  102OSM   H14F10304   4.730   3.577   5.240 -0.2055  0.3350 -1.6459
  102OSM   H14G10305   4.599   3.682   5.317 -0.1921 -0.7371 -0.0760
  102OSM   C15F10306   4.575   3.649   5.107  0.0191 -0.2173  0.4588
  102OSM   H15F10307   4.594   3.759   5.110 -2.7041  0.3122  1.6654
  102OSM   H15G10308   4.466   3.629   5.097  0.3591 -2.8314  1.3430
  102OSM   C16F10309   4.653   3.610   4.977 -0.4324  0.3447 -0.0144
  102OSM   H16F10310   4.669   3.500   4.975 -3.0393 -0.0803 -2.3899
  102OSM   H16G10311   4.757   3.644   4.999  0.3575 -2.4346  0.9593
  102OSM   C17F10312   4.601   3.673   4.845 -0.0654  0.4650  0.0922
  102OSM   H17F10313   4.681   3.672   4.768 -1.1671  1.4841 -1.0833
  102OSM   H17G10314   4.572   3.778   4.862 -1.4536  0.1862 -0.4516
  102OSM   C18F10315   4.476   3.604   4.785  0.0163 -0.4129 -0.5962
  102OSM   H18F10316   4.463   3.631   4.678 -1.3540  2.2917  0.1693
  102OSM   H18G10317   4.390   3.642   4.844  0.4840  1.2766 -0.9513
  102OSM   H18H10318   4.491   3.494   4.794  0.4498 -0.3841 -0.9705
  103OSM      N10319   4.970   4.307   6.891 -0.1516  0.8411  0.2011
  103OSM    C1510320   4.927   4.446   6.907 -0.8790 -0.3638  0.2029
  103OSM   H15A10321   4.822   4.456   6.929 -0.7866  4.1881 -0.5372
  103OSM   H15B10322   4.929   4.488   6.807 -1.8882 -0.7481  0.0025
  103OSM   H15C10323   4.986   4.510   6.970 -1.2958  0.0300  0.1975
  103OSM    C1410324   4.944   4.236   7.019 -0.6752  0.4905 -0.5860
  103OSM   H14A10325   4.842   4.233   7.054  0.3846  3.5741  3.5940
  103OSM   H14B10326   5.007   4.272   7.099 -1.6720 -0.1064  0.4906
  103OSM   H14C10327   4.971   4.133   7.000 -1.8816  0.4128 -2.0511
  103OSM    C1310328   4.897   4.239   6.782  0.3463  0.3105  0.3688
  103OSM   H13A10329   4.930   4.139   6.761 -0.5779  0.0964 -0.1499
  103OSM   H13B10330   4.904   4.302   6.694  0.7095 -0.1994  0.0243
  103OSM   H13C10331   4.790   4.232   6.799  0.1119  2.5125  0.1827
  103OSM    C1210332   5.122   4.307   6.858  0.2093 -0.6457 -0.4166
  103OSM   H12A10333   5.150   4.203   6.860 -2.6361 -1.4904  0.9634
  103OSM   H12B10334   5.172   4.361   6.937 -0.3501 -0.7501  0.0111
  103OSM    C1110335   5.175   4.367   6.720  0.1448  0.4302 -0.4991
  103OSM   H11A10336   5.130   4.297   6.646  1.2633  0.6310 -1.3989
  103OSM   H11B10337   5.286   4.358   6.721  0.1835  0.6008  1.7671
  103OSM      P10338   5.206   4.572   6.573  0.0406 -0.2043  0.2321
  103OSM    O1310339   5.136   4.698   6.548  0.0886 -0.2590  0.3776
  103OSM    O1410340   5.348   4.585   6.610  0.2788 -0.4918  0.2574
  103OSM    O1110341   5.175   4.469   6.455  0.5350 -0.1049 -0.1010
  103OSM    O1210342   5.140   4.500   6.701  0.0433 -0.0482  0.0762
  103OSM    C1S10343   5.046   4.462   6.400 -1.0960 -0.0538  0.0649
  103OSM    H1S10344   4.969   4.501   6.471  1.0669  1.6579  1.6022
  103OSM    H1T10345   5.015   4.358   6.377  0.8631 -0.5851 -0.3617
  103OSM     NF10346   4.900   4.546   6.220 -0.9690 -0.2760 -0.6611
  103OSM    HNF10347   4.881   4.482   6.146 -1.7677  1.5509 -2.0974
  103OSM    C2S10348   5.038   4.545   6.266  0.0763  0.4048 -0.6226
  103OSM    H2S10349   5.068   4.649   6.290  1.8813 -0.0768 -0.6112
  103OSM    C3S10350   5.132   4.493   6.153  0.6209 -0.3401 -0.5982
  103OSM    H3S10351   5.093   4.394   6.123  0.8910 -1.4470  2.3770
  103OSM     O310352   5.259   4.448   6.192 -0.1388 -0.1931 -0.7243
  103OSM    HO310353   5.247   4.452   6.287  1.5912 -0.1971 -0.4734
  103OSM    C4S10354   5.133   4.584   6.034 -0.1272 -1.4045  0.0089
  103OSM    H4S10355   5.052   4.566   5.961  3.1064 -0.8201 -4.1013
  103OSM    C5S10356   5.227   4.685   6.017  0.7694 -0.2262  0.1957
  103OSM    H5S10357   5.299   4.698   6.099  0.3885 -0.0560  0.5074
  103OSM    C6S10358   5.245   4.772   5.891  0.3235  0.1668 -0.0295
  103OSM    H6S10359   5.351   4.805   5.893  0.3887 -0.0620  1.8852
  103OSM    H6T10360   5.180   4.862   5.881 -1.0312 -0.7841 -0.1335
  103OSM    C7S10361   5.234   4.689   5.759  0.1409 -0.1439  0.0315
  103OSM    H7S10362   5.125   4.668   5.763  0.1908 -0.2920  0.8038
  103OSM    H7T10363   5.283   4.589   5.759 -0.2742 -0.3888 -1.7719
  103OSM    C8S10364   5.278   4.778   5.636 -0.2088  0.2310 -0.1853
  103OSM    H8S10365   5.388   4.786   5.652 -0.0261  0.0904 -1.2863
  103OSM    H8T10366   5.222   4.873   5.653 -0.5573 -0.2977  1.8850
  103OSM    C9S10367   5.247   4.713   5.499  0.5516 -0.2841  0.6102
  103OSM    H9S10368   5.136   4.708   5.496  0.5292  0.4231 -0.6897
  103OSM    H9T10369   5.288   4.610   5.501  0.3877 -0.3493  0.6094
  103OSM   C10S10370   5.291   4.788   5.373  0.0006 -0.4033 -0.2968
  103OSM   H10S10371   5.401   4.792   5.362  0.0479  1.7328  0.5104
  103OSM   H10T10372   5.262   4.895   5.377  1.5068  0.1330 -2.3654
  103OSM   C11S10373   5.230   4.737   5.244 -0.9425  0.0727 -0.5444
  103OSM   H11S10374   5.236   4.814   5.164  1.2515  0.1006 -0.4139
  103OSM   H11T10375   5.123   4.713   5.262 -1.4681  2.7674  0.2945
  103OSM   C12S10376   5.304   4.607   5.193  0.4913  0.0709  0.0818
  103OSM   H12S10377   5.276   4.520   5.255 -1.7188 -0.1770 -1.1583
  103OSM   H12T10378   5.415   4.610   5.197  0.8645 -1.3617 -4.3178
  103OSM   C13S10379   5.263   4.570   5.049  0.6946 -0.7760 -0.4863
  103OSM   H13S10380   5.345   4.603   4.982  0.6327  1.5479  0.4835
  103OSM   H13T10381   5.174   4.620   5.005  0.2271  0.9108  2.1199
  103OSM   C14S10382   5.243   4.421   5.039 -0.5982  0.8346 -0.0602
  103OSM   H14S10383   5.147   4.390   5.084 -0.5831  3.3013  1.8541
  103OSM   H14T10384   5.324   4.367   5.093  0.2009  2.1497  0.1015
  103OSM   C15S10385   5.261   4.385   4.891 -0.8313 -0.0764  0.1312
  103OSM   H15S10386   5.348   4.433   4.840 -0.3342  0.5538  1.5347
  103OSM   H15T10387   5.171   4.430   4.844 -0.8215 -0.7906 -0.5848
  103OSM   C16S10388   5.268   4.231   4.870 -0.1882 -1.4773 -0.3577
  103OSM   H16S10389   5.173   4.203   4.922 -0.5307 -0.0813 -0.1939
  103OSM   H16T10390   5.346   4.182   4.933 -1.1236 -2.1390  0.3211
  103OSM   C17S10391   5.277   4.192   4.728 -0.0762 -0.4698  0.1387
  103OSM   H17S10392   5.317   4.089   4.734  1.7364  0.1924  0.2225
  103OSM   H17T10393   5.359   4.241   4.670 -0.9792 -1.1114 -1.7829
  103OSM   C18S10394   5.150   4.200   4.644 -0.1441 -0.0329 -0.6557
  103OSM   H18S10395   5.129   4.307   4.621  0.4510 -0.3133 -2.7078
  103OSM   H18T10396   5.068   4.156   4.705 -0.2641  0.2366 -0.6202
  103OSM   H18U10397   5.152   4.160   4.541 -0.6761  0.6005 -0.9216
  103OSM    C1F10398   4.801   4.608   6.283  0.1261  0.5077  0.5768
  103OSM     OF10399   4.822   4.681   6.379 -0.1808  0.7091  0.1122
  103OSM    C2F10400   4.666   4.588   6.230  0.0950 -0.4165 -0.3983
  103OSM    H2F10401   4.669   4.488   6.181  0.5070 -0.0232 -1.1943
  103OSM    H2G10402   4.637   4.654   6.146 -0.0968 -0.3903 -0.3125
  103OSM    C3F10403   4.554   4.590   6.335  0.4160 -0.3554  0.2180
  103OSM    H3F10404   4.557   4.669   6.414  0.3401 -0.4566  0.3219
  103OSM    H3G10405   4.568   4.505   6.405  0.7261 -0.2256  0.3179
  103OSM    C4F10406   4.415   4.584   6.268  0.7432  0.6087 -0.0802
  103OSM    H4F10407   4.391   4.663   6.194  1.5910 -0.2927 -1.3471
  103OSM    H4G10408   4.340   4.584   6.350 -0.6556  1.4124 -1.3043
  103OSM    C5F10409   4.388   4.450   6.199 -0.3435  0.4692 -0.6870
  103OSM    H5F10410   4.433   4.374   6.266  0.4122 -0.8989 -2.6609
  103OSM    H5G10411   4.452   4.464   6.110  2.4222  0.2166  1.1496
  103OSM    C6F10412   4.246   4.415   6.153  0.6922 -0.0771 -0.1841
  103OSM    H6F10413   4.171   4.398   6.233 -0.1526  0.3508 -0.8691
  103OSM    H6G10414   4.250   4.328   6.084 -0.1961 -0.1594 -0.1398
  103OSM    C7F10415   4.182   4.524   6.065 -0.8678 -0.1217 -0.3145
  103OSM    H7F10416   4.258   4.551   5.989 -1.5757 -0.3670 -1.1221
  103OSM    H7G10417   4.157   4.614   6.125 -1.3280 -0.1706 -0.4289
  103OSM    C8F10418   4.055   4.467   5.996 -0.2550 -0.6159 -0.0246
  103OSM    H8F10419   3.980   4.426   6.068 -0.3576 -3.0541 -1.4056
  103OSM    H8G10420   4.094   4.376   5.946  0.1969 -2.0211  2.6873
  103OSM    C9F10421   3.989   4.573   5.907  0.2338  0.9388  0.4642
  103OSM    H9F10422   3.984   4.676   5.944  0.7326 -0.0196  3.4003
  103OSM   C10F10423   3.948   4.539   5.783 -0.0661 -0.2027 -0.3886
  103OSM   H10F10424   3.901   4.616   5.721 -2.3868 -2.1899 -1.2370
  103OSM   C11F10425   3.929   4.399   5.724 -0.0444 -0.0752 -0.4653
  103OSM   H11F10426   3.836   4.409   5.664 -0.3573 -0.3341 -0.0224
  103OSM   H11G10427   3.924   4.318   5.800 -0.2463  1.3761  1.1093
  103OSM   C12F10428   4.029   4.357   5.613  0.0262  0.3668  0.7393
  103OSM   H12F10429   4.128   4.388   5.651 -1.3812  1.6916  3.6154
  103OSM   H12G10430   3.994   4.402   5.518  2.9769  1.0614 -0.1276
  103OSM   C13F10431   4.048   4.207   5.582 -0.7201  0.6082 -0.3204
  103OSM   H13F10432   4.087   4.158   5.675 -0.2993 -1.9528 -1.7401
  103OSM   H13G10433   4.129   4.189   5.508 -0.3261 -1.3678  0.4978
  103OSM   C14F10434   3.940   4.117   5.511 -0.1586 -0.3400  0.0442
  103OSM   H14F10435   3.843   4.118   5.565  0.4938  2.5718  1.3657
  103OSM   H14G10436   3.979   4.013   5.519  1.6200  0.4246  4.8477
  103OSM   C15F10437   3.903   4.164   5.369 -0.0041  0.4246  0.2111
  103OSM   H15F10438   3.862   4.265   5.351 -3.4287 -1.2694 -2.8983
  103OSM   H15G10439   3.824   4.092   5.338  0.8901 -1.1469  1.4582
  103OSM   C16F10440   4.018   4.138   5.273 -0.5238  0.3563  0.7848
  103OSM   H16F10441   4.062   4.036   5.281 -0.1379  0.2985 -1.4645
  103OSM   H16G10442   4.106   4.205   5.288  1.1536 -1.3674 -0.7721
  103OSM   C17F10443   3.977   4.146   5.126 -0.2954  0.0648  0.4098
  103OSM   H17F10444   4.064   4.150   5.058 -0.2017 -0.3894  0.5004
  103OSM   H17G10445   3.921   4.240   5.110 -1.6953 -0.7820  0.1029
  103OSM   C18F10446   3.894   4.032   5.083  0.1620  0.6145 -0.0499
  103OSM   H18F10447   3.932   3.931   5.111 -0.8861  0.3188  0.3497
  103OSM   H18G10448   3.889   4.032   4.972 -0.3963 -0.6774 -0.0465
  103OSM   H18H10449   3.790   4.042   5.121 -0.0876 -4.5669  1.4129
  104OSM      N10450   5.939   4.129   6.665  0.5232  0.3351  0.9307
  104OSM    C1510451   6.066   4.186   6.720 -0.3566  0.2616  0.0885
  104OSM   H15A10452   6.143   4.111   6.731 -0.6664 -0.5676 -2.5837
  104OSM   H15B10453   6.065   4.229   6.819 -0.9346  0.4283  0.0100
  104OSM   H15C10454   6.108   4.259   6.653 -0.5758 -0.8265 -1.2795
  104OSM    C1410455   5.889   4.038   6.776  0.2719 -0.1540 -0.3009
  104OSM   H14A10456   5.784   4.015   6.762  0.2534 -0.3306  0.1082
  104OSM   H14B10457   5.896   4.088   6.872 -0.9294  0.2850 -0.4185
  104OSM   H14C10458   5.945   3.946   6.775 -0.2176 -0.5164  1.5915
  104OSM    C1310459   5.840   4.234   6.648 -0.0550 -0.3653  0.1382
  104OSM   H13A10460   5.871   4.298   6.567 -2.7986 -1.0630 -1.6492
  104OSM   H13B10461   5.826   4.294   6.736  0.7097  0.2419 -0.1469
  104OSM   H13C10462   5.744   4.189   6.622  0.2081 -0.5197 -0.5939
  104OSM    C1210463   5.947   4.055   6.536 -0.1482  0.2155 -0.2154
  104OSM   H12A10464   6.013   3.973   6.561 -0.1261  0.1162 -0.5877
  104OSM   H12B10465   6.005   4.112   6.465  0.6368  0.7094  0.8047
  104OSM    C1110466   5.811   4.010   6.481 -0.5412  0.3333 -0.0647
  104OSM   H11A10467   5.767   4.100   6.432 -0.0654  1.1446  0.9583
  104OSM   H11B10468   5.732   3.978   6.553  0.8422  0.4238  1.5535
  104OSM      P10469   5.849   3.760   6.430 -0.1347 -0.0252  0.2020
  104OSM    O1310470   5.920   3.744   6.558 -0.3269 -0.0797  0.4817
  104OSM    O1410471   5.717   3.702   6.415 -0.0388  0.1462 -0.2195
  104OSM    O1110472   5.930   3.694   6.316  0.1156 -0.8493 -0.5370
  104OSM    O1210473   5.850   3.914   6.390  0.4731 -0.0984  0.4017
  104OSM    C1S10474   5.883   3.708   6.181  0.2248  0.2902  0.7608
  104OSM    H1S10475   5.876   3.814   6.150 -0.1270 -0.3999 -1.7986
  104OSM    H1T10476   5.783   3.662   6.161 -0.3123  0.4028  3.0055
  104OSM     NF10477   5.962   3.675   5.944  0.2639 -0.2063  0.2342
  104OSM    HNF10478   5.942   3.599   5.882  0.4295  0.0443 -0.1246
  104OSM    C2S10479   5.987   3.638   6.084  0.7053 -0.4214 -0.7011
  104OSM    H2S10480   6.084   3.691   6.095  0.2437 -0.0493  2.0746
  104OSM    C3S10481   6.005   3.488   6.114 -0.6956 -0.7804  0.7391
  104OSM    H3S10482   5.934   3.434   6.047 -0.3756 -0.3873  0.0698
  104OSM     O310483   5.988   3.447   6.249 -0.8112 -0.4144 -0.0026
  104OSM    HO310484   5.946   3.524   6.289  0.3618 -0.7735  2.0385
  104OSM    C4S10485   6.138   3.445   6.060  0.4031 -0.0830 -0.3674
  104OSM    H4S10486   6.119   3.416   5.956 -0.5196  1.4657 -0.6722
  104OSM    C5S10487   6.256   3.442   6.118  1.8491 -0.3167  0.1790
  104OSM    H5S10488   6.263   3.472   6.223 -1.3359  1.5747 -0.0320
  104OSM    C6S10489   6.384   3.414   6.047  0.6034 -0.4828 -0.2298
  104OSM    H6S10490   6.438   3.329   6.094  1.8410  1.2196  1.6171
  104OSM    H6T10491   6.452   3.502   6.057  0.2703 -0.1385 -0.8968
  104OSM    C7S10492   6.357   3.367   5.899  0.5819 -0.4800  0.0249
  104OSM    H7S10493   6.308   3.447   5.840 -2.0086 -0.2815  2.2759
  104OSM    H7T10494   6.294   3.275   5.898  2.9571 -2.2483  1.2979
  104OSM    C8S10495   6.486   3.329   5.821  0.6398  0.2795 -1.0942
  104OSM    H8S10496   6.444   3.272   5.736 -1.8967  0.0379  0.2284
  104OSM    H8T10497   6.556   3.261   5.874  0.1157 -0.0785 -0.8534
  104OSM    C9S10498   6.565   3.458   5.784  0.9615 -0.1628 -0.9026
  104OSM    H9S10499   6.603   3.481   5.886  1.1144 -1.6357 -0.6112
  104OSM    H9T10500   6.497   3.537   5.744 -0.4353 -1.1019 -0.4335
  104OSM   C10S10501   6.677   3.434   5.684  0.6164 -0.0978 -0.3271
  104OSM   H10S10502   6.745   3.356   5.726  0.2226  1.2643  3.1853
  104OSM   H10T10503   6.745   3.521   5.675 -0.6028  0.7181 -2.2858
  104OSM   C11S10504   6.622   3.403   5.552 -0.2915  0.3534  1.1003
  104OSM   H11S10505   6.521   3.449   5.541 -0.2227  0.2061 -0.2915
  104OSM   H11T10506   6.603   3.295   5.534 -0.9532  1.1107 -4.6268
  104OSM   C12S10507   6.710   3.457   5.436  0.1179 -0.0043  0.4040
  104OSM   H12S10508   6.807   3.403   5.428  1.6152  2.6570 -0.6151
  104OSM   H12T10509   6.733   3.565   5.446  0.6984 -0.1656  0.9010
  104OSM   C13S10510   6.636   3.453   5.297 -0.0994 -0.7010  1.2702
  104OSM   H13S10511   6.537   3.503   5.301  0.8207  1.6070 -1.2236
  104OSM   H13T10512   6.620   3.344   5.283 -0.3697 -0.7444  1.8760
  104OSM   C14S10513   6.724   3.500   5.171  0.8863 -1.0603 -0.3427
  104OSM   H14S10514   6.766   3.597   5.204  1.2864 -1.2953 -0.1400
  104OSM   H14T10515   6.644   3.506   5.094 -0.1489 -1.5028  0.6811
  104OSM   C15S10516   6.833   3.396   5.135 -0.4488  0.5611 -0.6382
  104OSM   H15S10517   6.792   3.293   5.127  1.5983 -0.6153  2.1200
  104OSM   H15T10518   6.908   3.391   5.217  0.6756  2.2245 -1.5041
  104OSM   C16S10519   6.915   3.442   5.012  0.6479 -0.0062 -0.1832
  104OSM   H16S10520   7.010   3.386   5.004 -0.1983 -1.4616 -0.2856
  104OSM   H16T10521   6.930   3.552   5.022 -2.5351  0.4729  0.4145
  104OSM   C17S10522   6.827   3.416   4.890  0.4555  0.3116  0.1391
  104OSM   H17S10523   6.756   3.500   4.872  0.1164 -0.3234 -1.6340
  104OSM   H17T10524   6.768   3.323   4.901  2.1751 -1.0565 -1.6396
  104OSM   C18S10525   6.912   3.403   4.762 -0.4392 -0.3366  0.4706
  104OSM   H18S10526   6.985   3.483   4.738 -0.4207 -0.6740 -0.6469
  104OSM   H18T10527   6.845   3.418   4.675  0.4973  3.4934  0.2248
  104OSM   H18U10528   6.963   3.304   4.761 -1.2586 -0.8741  3.2318
  104OSM    C1F10529   5.970   3.804   5.903 -0.4338 -0.5959 -0.8079
  104OSM     OF10530   6.007   3.892   5.982 -0.4860  0.2239 -0.4677
  104OSM    C2F10531   5.950   3.836   5.765  0.4819  0.0591  0.6842
  104OSM    H2F10532   5.856   3.792   5.725  1.3640 -0.9453 -0.3565
  104OSM    H2G10533   6.036   3.798   5.705 -0.7491  1.3586 -2.0734
  104OSM    C3F10534   5.944   3.987   5.740  0.8857 -0.2503  0.8712
  104OSM    H3F10535   6.044   4.032   5.760  1.0089 -0.7007  1.2849
  104OSM    H3G10536   5.858   4.034   5.792  0.9800 -0.8045  1.5397
  104OSM    C4F10537   5.900   4.024   5.593 -0.8321  0.0713 -0.0583
  104OSM    H4F10538   5.908   4.134   5.578 -2.8925  0.3737  0.7653
  104OSM    H4G10539   5.789   4.019   5.586 -0.8669  0.2466  0.3573
  104OSM    C5F10540   5.965   3.943   5.481 -0.1204 -0.5283 -0.3211
  104OSM    H5F10541   5.953   3.834   5.501 -1.1978 -0.3957 -0.2013
  104OSM    H5G10542   6.071   3.975   5.491 -0.9462  1.6237  3.6731
  104OSM    C6F10543   5.911   3.984   5.341  0.3814 -0.7780 -0.7507
  104OSM    H6F10544   5.909   4.095   5.343  0.2783 -0.7304  2.5994
  104OSM    H6G10545   5.804   3.954   5.332 -0.8968  2.8065  0.8331
  104OSM    C7F10546   6.014   3.934   5.232  1.0022  1.3840  0.3811
  104OSM    H7F10547   6.039   3.830   5.259  0.7345  1.5634  1.3778
  104OSM    H7G10548   6.107   3.996   5.236  4.3219 -3.0946  2.7566
  104OSM    C8F10549   5.957   3.950   5.087 -0.5312  0.2187 -0.8008
  104OSM    H8F10550   5.935   4.059   5.085  1.4600  0.6938 -0.0083
  104OSM    H8G10551   5.869   3.884   5.073  0.3309 -0.6310 -2.5785
  104OSM    C9F10552   6.053   3.929   4.975 -0.0803  0.0971  0.2497
  104OSM    H9F10553   6.109   3.835   4.977  0.5165  0.4524  0.7271
  104OSM   C10F10554   6.090   4.016   4.881  0.2932  0.2857 -0.1173
  104OSM   H10F10555   6.160   3.986   4.801  0.8057 -1.2425  0.8682
  104OSM   C11F10556   6.023   4.153   4.852 -0.2097  0.0938  0.5207
  104OSM   H11F10557   5.923   4.168   4.899 -0.2415  0.5851  0.2992
  104OSM   H11G10558   5.983   4.149   4.749 -0.9171  0.7733  0.7594
  104OSM   C12F10559   6.124   4.271   4.866  1.0177  0.3394  0.0456
  104OSM   H12F10560   6.208   4.245   4.797  0.8799  0.5192 -0.1925
  104OSM   H12G10561   6.166   4.265   4.969 -0.1330  1.1359  0.5821
  104OSM   C13F10562   6.083   4.417   4.846  0.0604 -0.0125  0.1168
  104OSM   H13F10563   5.994   4.440   4.908 -0.1965  1.8038 -0.8385
  104OSM   H13G10564   6.029   4.417   4.748 -1.9066 -1.8353  1.1284
  104OSM   C14F10565   6.187   4.530   4.853 -0.0759  0.0085 -0.4327
  104OSM   H14F10566   6.207   4.545   4.962  1.2239 -3.1309 -0.1046
  104OSM   H14G10567   6.141   4.621   4.810 -2.3628 -0.3168  1.1166
  104OSM   C15F10568   6.317   4.495   4.778  0.7044 -0.1030 -0.0677
  104OSM   H15F10569   6.357   4.398   4.812  0.9304  0.9973  3.1266
  104OSM   H15G10570   6.398   4.566   4.804  3.4278 -3.1124  0.1785
  104OSM   C16F10571   6.300   4.502   4.618  0.0815  0.6664  0.3448
  104OSM   H16F10572   6.274   4.607   4.591 -2.1357  0.4252  1.2751
  104OSM   H16G10573   6.222   4.430   4.586  0.5498  0.9343 -1.5003
  104OSM   C17F10574   6.429   4.452   4.554 -0.3665  0.5381  0.7423
  104OSM   H17F10575   6.443   4.347   4.587 -1.1838  0.0213 -0.4748
  104OSM   H17G10576   6.513   4.513   4.594  1.2004 -0.9085 -0.1984
  104OSM   C18F10577   6.422   4.458   4.398  0.3527 -0.3194  0.0192
  104OSM   H18F10578   6.340   4.387   4.374 -1.1006  0.9571  0.9889
  104OSM   H18G10579   6.517   4.415   4.359  0.9579  0.9073  0.0768
  104OSM   H18H10580   6.396   4.556   4.353 -1.2319 -0.4765  0.5303
  105OSM      N10581   6.611   3.677   6.823 -0.1247  0.3416 -0.6805
  105OSM    C1510582   6.719   3.579   6.867  0.2473  0.0305 -0.6979
  105OSM   H15A10583   6.789   3.640   6.921  0.7246  0.2933 -1.5920
  105OSM   H15B10584   6.759   3.515   6.789 -0.3254 -0.0306 -0.9464
  105OSM   H15C10585   6.692   3.519   6.952  0.2568  1.2104  0.1559
  105OSM    C1410586   6.492   3.589   6.790 -0.4689 -0.1775 -0.1582
  105OSM   H14A10587   6.419   3.650   6.738 -1.6711 -2.5095 -1.4034
  105OSM   H14B10588   6.439   3.563   6.880  1.5508  3.4471  2.3216
  105OSM   H14C10589   6.512   3.507   6.722  2.7249  1.2646 -1.1739
  105OSM    C1310590   6.590   3.783   6.928  0.3851  0.0521 -0.4707
  105OSM   H13A10591   6.539   3.735   7.010 -0.0390  1.0743 -0.1196
  105OSM   H13B10592   6.533   3.865   6.888 -0.2735  0.0756  0.4979
  105OSM   H13C10593   6.687   3.811   6.968  0.5646 -0.6412 -0.3983
  105OSM    C1210594   6.673   3.744   6.703 -0.1987 -0.7232  0.4981
  105OSM   H12A10595   6.720   3.675   6.635  2.2985  1.7320 -0.4512
  105OSM   H12B10596   6.755   3.807   6.736 -0.0385  0.2379 -1.5831
  105OSM    C1110597   6.583   3.841   6.622 -0.3631  0.0715 -0.2655
  105OSM   H11A10598   6.491   3.782   6.602 -0.7966 -0.0958  1.9235
  105OSM   H11B10599   6.635   3.869   6.528  0.0843  2.5741  0.6308
  105OSM      P10600   6.431   4.052   6.633  0.1446  0.3606  0.2994
  105OSM    O1310601   6.311   4.004   6.714 -0.2742  0.3160 -0.2984
  105OSM    O1410602   6.471   4.197   6.638  0.2033  0.3099 -0.3765
  105OSM    O1110603   6.409   4.011   6.479 -0.0413 -0.3701 -0.2502
  105OSM    O1210604   6.558   3.971   6.684  0.1936 -0.0619  0.4320
  105OSM    C1S10605   6.274   4.009   6.427 -0.3293 -0.9499 -0.0187
  105OSM    H1S10606   6.211   4.097   6.454 -0.5018 -0.7739 -0.9538
  105OSM    H1T10607   6.223   3.917   6.463 -0.6602 -1.0883 -0.8346
  105OSM     NF10608   6.141   4.028   6.206 -0.9914 -0.1471 -0.0166
  105OSM    HNF10609   6.086   3.953   6.170 -1.1294 -0.3332  0.5624
  105OSM    C2S10610   6.271   3.992   6.271 -0.3154 -0.3844  0.0899
  105OSM    H2S10611   6.348   4.066   6.239 -2.6751  1.9676 -0.4073
  105OSM    C3S10612   6.322   3.851   6.229 -0.0687 -0.0026 -0.2767
  105OSM    H3S10613   6.240   3.784   6.261 -0.5763  1.3908  1.5223
  105OSM     O310614   6.437   3.816   6.310  0.6595  0.4133 -0.5003
  105OSM    HO310615   6.435   3.880   6.381  2.8441 -2.2595  2.2096
  105OSM    C4S10616   6.344   3.835   6.080 -0.1370 -0.7160  0.4160
  105OSM    H4S10617   6.253   3.804   6.028 -3.3462  3.1187  3.0743
  105OSM    C5S10618   6.458   3.860   6.009  0.5622 -0.6436 -0.2541
  105OSM    H5S10619   6.552   3.884   6.061  0.5522  0.4509 -0.7171
  105OSM    C6S10620   6.459   3.851   5.860  0.5930  0.1763 -0.2411
  105OSM    H6S10621   6.356   3.846   5.818  0.1394  0.5327  0.7963
  105OSM    H6T10622   6.510   3.760   5.823 -1.5295 -0.9043 -0.6923
  105OSM    C7S10623   6.532   3.980   5.811 -0.0327  0.1541 -0.0310
  105OSM    H7S10624   6.625   3.996   5.869 -0.4842 -1.2512  1.1417
  105OSM    H7T10625   6.455   4.058   5.830  0.2534  0.6284 -0.8045
  105OSM    C8S10626   6.562   3.979   5.658  0.9739  0.0696 -0.4435
  105OSM    H8S10627   6.664   3.934   5.648  1.5293  1.4518 -1.2937
  105OSM    H8T10628   6.576   4.082   5.618 -0.8754  0.5583  0.0944
  105OSM    C9S10629   6.475   3.897   5.564  0.2274  0.1505  0.1797
  105OSM    H9S10630   6.376   3.947   5.559  0.7058  1.0889 -0.1530
  105OSM    H9T10631   6.485   3.791   5.596  1.4139  0.5844  1.3079
  105OSM   C10S10632   6.528   3.909   5.417  0.0668  0.5485 -0.6521
  105OSM   H10S10633   6.632   3.869   5.422 -0.6965 -1.6874 -1.4354
  105OSM   H10T10634   6.543   4.016   5.390 -1.3198  0.6724 -0.9717
  105OSM   C11S10635   6.443   3.827   5.317  0.3134 -0.4982  0.3959
  105OSM   H11S10636   6.345   3.873   5.291 -0.2563 -0.7162  2.0174
  105OSM   H11T10637   6.429   3.726   5.361  1.8359 -0.3079  1.4053
  105OSM   C12S10638   6.515   3.816   5.183  0.0747 -0.5077  0.4823
  105OSM   H12S10639   6.486   3.722   5.131 -4.0293 -0.6077  2.5346
  105OSM   H12T10640   6.623   3.815   5.207 -0.1063  1.4904  1.5952
  105OSM   C13S10641   6.500   3.939   5.092 -0.2324  0.2399 -0.1415
  105OSM   H13S10642   6.553   4.023   5.141 -0.6202  0.6016 -0.3276
  105OSM   H13T10643   6.393   3.971   5.087 -0.6068 -0.8666  0.5373
  105OSM   C14S10644   6.558   3.910   4.954 -0.2115  0.2281 -0.2082
  105OSM   H14S10645   6.484   3.841   4.907 -0.2054  0.3045 -0.3321
  105OSM   H14T10646   6.659   3.864   4.961  0.6490  2.1245  0.2589
  105OSM   C15S10647   6.581   4.043   4.878  0.6252 -0.1943 -0.1813
  105OSM   H15S10648   6.677   4.090   4.909  0.6361  0.2301 -0.8426
  105OSM   H15T10649   6.505   4.122   4.894  1.7017  0.3821  2.6736
  105OSM   C16S10650   6.575   4.021   4.728  0.0774  0.1876  0.4740
  105OSM   H16S10651   6.513   4.107   4.695  0.3962  1.0819  2.0823
  105OSM   H16T10652   6.511   3.935   4.701  0.0520  0.4345 -0.2668
  105OSM   C17S10653   6.713   4.028   4.663 -0.3436 -0.2984  0.2205
  105OSM   H17S10654   6.706   3.984   4.561  0.0500  0.1502 -0.0014
  105OSM   H17T10655   6.782   3.968   4.726 -1.1505 -0.7936  0.6581
  105OSM   C18S10656   6.765   4.172   4.655  0.0251  0.0658  0.0505
  105OSM   H18S10657   6.754   4.221   4.754  1.2059  2.4473 -0.9223
  105OSM   H18T10658   6.707   4.227   4.578 -2.2774 -2.2701 -0.0325
  105OSM   H18U10659   6.870   4.174   4.618 -0.7512 -1.4663 -2.4536
  105OSM    C1F10660   6.073   4.145   6.220  0.3492 -0.0247  0.1244
  105OSM     OF10661   6.114   4.233   6.292  0.4619  0.8685 -0.7109
  105OSM    C2F10662   5.939   4.161   6.150  0.3568  0.1430  0.1268
  105OSM    H2F10663   5.859   4.148   6.226  0.3330  1.4774  0.3503
  105OSM    H2G10664   5.921   4.084   6.072  0.3919  0.6698 -0.4074
  105OSM    C3F10665   5.926   4.304   6.100  0.6258 -0.4786 -0.1859
  105OSM    H3F10666   5.950   4.377   6.180 -3.0686  1.9134 -0.9985
  105OSM    H3G10667   5.820   4.326   6.075  0.3401 -1.4470  0.1269
  105OSM    C4F10668   5.997   4.325   5.965 -0.6755 -0.2564  0.3389
  105OSM    H4F10669   5.967   4.244   5.896  2.2397  0.0055 -1.4063
  105OSM    H4G10670   6.107   4.317   5.965 -0.6894 -1.8207 -2.7799
  105OSM    C5F10671   5.950   4.457   5.897  0.3419  0.1951  0.3424
  105OSM    H5F10672   5.975   4.535   5.971  0.7090 -0.9868  1.5078
  105OSM    H5G10673   5.842   4.458   5.874  0.2197 -1.8842  0.6221
  105OSM    C6F10674   6.026   4.485   5.768 -0.5933 -0.2781  0.2799
  105OSM    H6F10675   6.007   4.415   5.685  2.7133 -0.2213 -0.6791
  105OSM    H6G10676   6.131   4.465   5.799 -0.9403 -1.5415  0.6632
  105OSM    C7F10677   6.003   4.623   5.712 -0.2065 -0.0369  0.6256
  105OSM    H7F10678   6.067   4.646   5.625 -1.6942  1.0353 -0.2388
  105OSM    H7G10679   6.031   4.692   5.795 -2.1471  0.1682  1.1614
  105OSM    C8F10680   5.861   4.655   5.657  0.5348 -0.3394 -0.0072
  105OSM    H8F10681   5.780   4.642   5.732 -0.9097 -0.1080 -1.4706
  105OSM    H8G10682   5.832   4.574   5.586  0.5411  0.0528 -0.4617
  105OSM    C9F10683   5.851   4.791   5.614 -0.2894 -0.1634  0.3690
  105OSM    H9F10684   5.857   4.861   5.698  2.4771 -1.8007  1.6905
  105OSM   C10F10685   5.843   4.832   5.487  0.8417 -0.1520  0.1189
  105OSM   H10F10686   5.853   4.938   5.460  0.7227 -0.5063 -1.3810
  105OSM   C11F10687   5.829   4.744   5.370 -0.7447 -0.2875  1.0128
  105OSM   H11F10688   5.741   4.772   5.307  0.2569 -0.2754 -0.4367
  105OSM   H11G10689   5.816   4.636   5.389 -3.6116 -0.2923 -0.3651
  105OSM   C12F10690   5.960   4.752   5.284  0.3086 -0.4482 -0.1163
  105OSM   H12F10691   5.976   4.667   5.215 -1.2677  0.2577 -1.4153
  105OSM   H12G10692   6.057   4.769   5.336 -1.0800  2.3973  1.8385
  105OSM   C13F10693   5.942   4.873   5.190  0.4299  0.5459  0.6924
  105OSM   H13F10694   5.926   4.970   5.241 -3.1900  1.0823 -1.1215
  105OSM   H13G10695   5.845   4.856   5.138 -0.2916  1.6318  1.6604
  105OSM   C14F10696   6.051   4.881   5.085 -0.2012  0.8121  0.0676
  105OSM   H14F10697   6.060   4.791   5.021 -1.0161  1.2291 -0.6728
  105OSM   H14G10698   6.148   4.899   5.135  0.9087  2.2001 -2.3700
  105OSM   C15F10699   6.025   4.998   4.995  0.5316 -0.4797  0.9864
  105OSM   H15F10700   6.117   5.044   4.952 -0.1155  0.5059  0.6232
  105OSM   H15G10701   5.977   5.082   5.049  0.1202 -1.9800  3.0707
  105OSM   C16F10702   5.942   4.958   4.871  0.4149 -0.7847  0.0240
  105OSM   H16F10703   5.841   4.918   4.897  0.2995 -0.3600  0.2402
  105OSM   H16G10704   5.991   4.874   4.817 -3.1752 -1.3074 -2.7751
  105OSM   C17F10705   5.920   5.072   4.780 -0.2218  0.1054 -0.3887
  105OSM   H17F10706   6.019   5.106   4.743  0.1024  1.5508  1.6297
  105OSM   H17G10707   5.882   5.164   4.830 -2.2551 -1.0862  0.3808
  105OSM   C18F10708   5.818   5.038   4.665  0.2890 -0.2819 -0.6667
  105OSM   H18F10709   5.868   4.972   4.591 -1.3215  0.4251 -2.4782
  105OSM   H18G10710   5.809   5.133   4.607 -1.1171 -0.9748 -1.6275
  105OSM   H18H10711   5.716   5.002   4.690 -0.0038  0.7414 -0.3366
  106OSM      N10712   4.189   3.150   7.252 -0.0105  0.0106 -0.0444
  106OSM    C1510713   4.131   3.263   7.173  0.0536 -0.4211 -0.0889
  106OSM   H15A10714   4.198   3.339   7.136 -0.8946 -0.3361 -1.7523
  106OSM   H15B10715   4.043   3.305   7.221  1.5724  0.1051  2.4290
  106OSM   H15C10716   4.096   3.225   7.079  0.5212 -0.7826 -0.1159
  106OSM    C1410717   4.230   3.210   7.379  0.2285 -0.2249 -0.7779
  106OSM   H14A10718   4.325   3.261   7.375 -0.0159  0.1693 -2.2835
  106OSM   H14B10719   4.241   3.134   7.454 -1.6149  0.2646  0.0456
  106OSM   H14C10720   4.154   3.272   7.424 -2.6701 -3.8773 -0.1409
  106OSM    C1310721   4.073   3.057   7.282  0.4551 -0.0762  0.5395
  106OSM   H13A10722   3.977   3.107   7.276 -0.8901 -2.6107 -4.5136
  106OSM   H13B10723   4.079   3.007   7.378  0.3272 -0.0465  0.5630
  106OSM   H13C10724   4.070   2.981   7.205  0.1539  1.7429 -1.3131
  106OSM    C1210725   4.310   3.076   7.188  0.5517  0.1487 -0.6145
  106OSM   H12A10726   4.331   2.988   7.247  3.2368  0.7305 -0.5686
  106OSM   H12B10727   4.403   3.131   7.188  0.8469 -0.3150  0.6859
  106OSM    C1110728   4.289   3.033   7.038  0.3396 -0.6415  0.3636
  106OSM   H11A10729   4.382   3.020   6.978  1.5653  0.2916  1.9606
  106OSM   H11B10730   4.240   3.120   6.990  0.2502 -0.5721  0.5754
  106OSM      P10731   4.276   2.779   7.048  0.5363  0.0509  0.0238
  106OSM    O1310732   4.405   2.789   7.116 -0.2061  0.2306 -0.2324
  106OSM    O1410733   4.175   2.676   7.085 -0.2381 -0.5947 -0.2949
  106OSM    O1110734   4.300   2.758   6.890  0.1444 -0.0132 -0.3475
  106OSM    O1210735   4.201   2.918   7.034 -0.2286  0.1368 -0.2356
  106OSM    C1S10736   4.249   2.830   6.780  0.0069  0.5303 -0.7546
  106OSM    H1S10737   4.282   2.936   6.790  0.3412  0.4414 -0.9333
  106OSM    H1T10738   4.138   2.818   6.788 -0.1011  1.6127 -0.3561
  106OSM     NF10739   4.241   2.846   6.529 -0.1616  0.0570 -1.1561
  106OSM    HNF10740   4.163   2.801   6.487 -2.8496 -0.4916  3.7143
  106OSM    C2S10741   4.305   2.780   6.639 -0.2319 -0.0375  0.2049
  106OSM    H2S10742   4.415   2.792   6.638  0.1518 -2.8212  0.7610
  106OSM    C3S10743   4.287   2.624   6.623  0.1802  0.1164 -0.0144
  106OSM    H3S10744   4.177   2.606   6.629  0.2304 -1.4861 -2.4335
  106OSM     O310745   4.342   2.548   6.730  0.2033 -0.0427  0.3240
  106OSM    HO310746   4.346   2.615   6.800  2.7564  2.0435 -1.6108
  106OSM    C4S10747   4.337   2.576   6.488  0.5454 -0.0811  0.3809
  106OSM    H4S10748   4.442   2.600   6.465  0.1130  0.8206 -0.7982
  106OSM    C5S10749   4.258   2.513   6.395 -0.3408  0.6647  0.2455
  106OSM    H5S10750   4.155   2.493   6.427 -0.1572 -0.9267 -0.0774
  106OSM    C6S10751   4.296   2.453   6.263  0.4140  0.0156  0.3253
  106OSM    H6S10752   4.397   2.487   6.232  1.0224  0.3335  2.4784
  106OSM    H6T10753   4.233   2.494   6.181 -0.5673 -1.1666  0.4584
  106OSM    C7S10754   4.300   2.303   6.255  0.4034  0.8990 -0.0564
  106OSM    H7S10755   4.196   2.263   6.247  0.7924 -0.3434  0.6805
  106OSM    H7T10756   4.351   2.251   6.340  0.5418 -1.4234 -1.4799
  106OSM    C8S10757   4.382   2.253   6.126  0.4633 -0.2785  0.5067
  106OSM    H8S10758   4.365   2.144   6.121 -3.8136  0.2423  0.5770
  106OSM    H8T10759   4.491   2.271   6.138  1.1973 -3.2327 -0.8599
  106OSM    C9S10760   4.338   2.325   6.001  0.1202 -0.3723 -0.3326
  106OSM    H9S10761   4.381   2.427   6.006 -1.2034  0.3210 -1.8645
  106OSM    H9T10762   4.228   2.342   5.999  0.3573  1.1906 -1.6628
  106OSM   C10S10763   4.384   2.252   5.880  1.6217  0.0351  0.2457
  106OSM   H10S10764   4.349   2.147   5.874  0.0615  0.4386  1.5146
  106OSM   H10T10765   4.494   2.241   5.895  1.3440  0.6529  3.2760
  106OSM   C11S10766   4.354   2.322   5.744  0.3003  1.1008 -0.0837
  106OSM   H11S10767   4.254   2.285   5.710 -0.4884  1.9325  1.2379
  106OSM   H11T10768   4.422   2.283   5.666  0.5185  1.5923 -0.1418
  106OSM   C12S10769   4.360   2.472   5.721 -0.0912  0.7333  0.3119
  106OSM   H12S10770   4.464   2.501   5.749  0.3310 -0.0617 -0.4030
  106OSM   H12T10771   4.297   2.521   5.798  0.5801  1.2224  0.5628
  106OSM   C13S10772   4.326   2.532   5.587 -0.0607  0.1508  0.1149
  106OSM   H13S10773   4.339   2.642   5.575 -0.0112  0.0144 -1.2788
  106OSM   H13T10774   4.216   2.518   5.572 -0.7757  1.7925  3.1099
  106OSM   C14S10775   4.410   2.483   5.465  0.1599 -0.3036  0.2460
  106OSM   H14S10776   4.401   2.372   5.459 -0.9876 -0.1751 -0.7745
  106OSM   H14T10777   4.519   2.494   5.478  0.7763 -1.0981 -3.1780
  106OSM   C15S10778   4.370   2.556   5.336  0.4155 -0.1280  0.2291
  106OSM   H15S10779   4.384   2.663   5.361  1.3023  0.0682 -1.0286
  106OSM   H15T10780   4.262   2.532   5.323  0.3984 -0.0209  0.1719
  106OSM   C16S10781   4.445   2.526   5.209  0.0173  0.2338 -0.4267
  106OSM   H16S10782   4.474   2.420   5.193 -0.0617  0.4882 -2.6203
  106OSM   H16T10783   4.541   2.578   5.229 -0.5278  2.0273 -2.1483
  106OSM   C17S10784   4.392   2.577   5.080 -0.4789  0.0598  0.3819
  106OSM   H17S10785   4.383   2.687   5.091 -0.2146  0.0552  0.6617
  106OSM   H17T10786   4.290   2.536   5.066 -1.0161  1.1017  1.1268
  106OSM   C18S10787   4.477   2.553   4.953 -0.2355  0.2556 -0.2427
  106OSM   H18S10788   4.498   2.445   4.943 -1.8860 -0.0110 -1.0524
  106OSM   H18T10789   4.566   2.619   4.965 -1.2230  1.7969 -1.1381
  106OSM   H18U10790   4.423   2.594   4.865 -0.5922  0.4090  0.0450
  106OSM    C1F10791   4.291   2.955   6.479  0.3938 -0.5879 -0.3106
  106OSM     OF10792   4.380   3.011   6.549  0.6020  0.3510  0.7040
  106OSM    C2F10793   4.240   3.007   6.346  0.0742 -0.5019  0.0572
  106OSM    H2F10794   4.245   3.117   6.351  1.0272 -0.6042  2.1634
  106OSM    H2G10795   4.131   2.989   6.330  0.2314 -0.1744 -1.5623
  106OSM    C3F10796   4.328   2.960   6.230  0.5100 -0.2059 -0.3396
  106OSM    H3F10797   4.315   2.850   6.217  1.1712 -0.5325  1.4030
  106OSM    H3G10798   4.437   2.977   6.248  0.1005  1.1497  1.0870
  106OSM    C4F10799   4.286   3.022   6.093 -0.1475  0.2238 -0.0977
  106OSM    H4F10800   4.179   3.051   6.101 -0.2352 -0.3282  0.8500
  106OSM    H4G10801   4.302   2.953   6.008 -0.0856  0.4786 -0.2950
  106OSM    C5F10802   4.362   3.153   6.067 -0.0406 -0.0230  0.5991
  106OSM    H5F10803   4.356   3.212   6.161  1.2421  1.1725 -0.0194
  106OSM    H5G10804   4.308   3.213   5.991 -3.1982  0.0257  2.6977
  106OSM    C6F10805   4.514   3.135   6.035  0.1140  0.8118 -0.5874
  106OSM    H6F10806   4.531   3.087   5.936 -0.7591 -0.9704  0.0774
  106OSM    H6G10807   4.550   3.056   6.104 -1.5594  0.3028 -0.2628
  106OSM    C7F10808   4.595   3.260   6.063 -0.0832 -0.4360  0.3368
  106OSM    H7F10809   4.590   3.287   6.170  0.1860  1.0721 -0.0035
  106OSM    H7G10810   4.556   3.345   6.003  0.1403  0.0367  0.8500
  106OSM    C8F10811   4.743   3.229   6.022  0.0744 -0.0967 -0.3474
  106OSM    H8F10812   4.730   3.195   5.917 -0.4230  1.3760 -0.7743
  106OSM    H8G10813   4.781   3.141   6.079  1.9314  1.7707  1.5059
  106OSM    C9F10814   4.851   3.332   6.049  0.5340 -0.1241  0.3354
  106OSM    H9F10815   4.871   3.358   6.154  0.3107  0.4060  0.2493
  106OSM   C10F10816   4.890   3.428   5.955  0.4954  0.0375 -0.0869
  106OSM   H10F10817   4.964   3.501   5.989 -0.0737  0.9889 -0.8425
  106OSM   C11F10818   4.865   3.420   5.808  0.5426 -0.3561 -0.2577
  106OSM   H11F10819   4.892   3.517   5.761 -1.7167  1.0097  1.0817
  106OSM   H11G10820   4.759   3.398   5.782  0.5978 -1.5606  0.4540
  106OSM   C12F10821   4.949   3.314   5.740  0.7026  0.3792  0.5542
  106OSM   H12F10822   4.944   3.221   5.801  0.2883  0.2856  0.3812
  106OSM   H12G10823   5.057   3.340   5.745  1.0999 -1.1119  0.0944
  106OSM   C13F10824   4.902   3.281   5.600  0.4578  0.3474  0.2753
  106OSM   H13F10825   4.796   3.249   5.596  0.6902 -0.3518 -0.8927
  106OSM   H13G10826   4.944   3.180   5.579 -1.5249 -0.4882  0.1179
  106OSM   C14F10827   4.931   3.375   5.489  0.1716 -0.2225  0.3742
  106OSM   H14F10828   5.032   3.418   5.500  0.7825 -0.9585 -1.9198
  106OSM   H14G10829   4.861   3.461   5.479  1.7264  1.1070  0.6164
  106OSM   C15F10830   4.935   3.291   5.352  0.3460 -0.6826 -0.3022
  106OSM   H15F10831   4.835   3.249   5.327 -0.5271  0.4568  1.1094
  106OSM   H15G10832   5.009   3.211   5.371  0.2776 -0.1722  2.5179
  106OSM   C16F10833   4.990   3.379   5.240  0.0704 -0.4545 -0.0378
  106OSM   H16F10834   5.098   3.396   5.259  0.2137 -0.8285 -0.4874
  106OSM   H16G10835   4.928   3.470   5.229 -1.4595 -1.2641  1.5434
  106OSM   C17F10836   4.985   3.309   5.112  0.5501  0.4353  0.4751
  106OSM   H17F10837   4.886   3.262   5.099  1.3908 -1.3844  0.3411
  106OSM   H17G10838   5.055   3.223   5.106 -0.9459 -0.7863 -0.0205
  106OSM   C18F10839   5.006   3.395   4.986 -0.5283 -0.6511 -0.4325
  106OSM   H18F10840   4.995   3.332   4.895 -0.3683 -0.3125 -0.6908
  106OSM   H18G10841   5.109   3.436   4.984 -0.9593  0.4501 -0.9698
  106OSM   H18H10842   4.930   3.476   4.990  2.2776  2.1348  0.9108
  107OSM      N10843   4.188   6.439   7.234 -0.2718 -0.3195 -0.2958
  107OSM    C1510844   4.100   6.331   7.190  0.3053 -0.4333  0.1601
  107OSM   H15A10845   4.155   6.248   7.147 -1.0349 -1.7597  0.9297
  107OSM   H15B10846   4.032   6.359   7.110 -0.8530  0.0122  1.2619
  107OSM   H15C10847   4.039   6.301   7.274  0.0543 -1.4286 -0.3642
  107OSM    C1410848   4.096   6.550   7.273 -0.3312 -0.0874  0.1227
  107OSM   H14A10849   4.063   6.598   7.182 -2.3838 -2.1998 -0.3494
  107OSM   H14B10850   4.130   6.626   7.342 -0.7234  1.2644 -1.1112
  107OSM   H14C10851   4.007   6.512   7.320  1.1869 -1.8219  1.7357
  107OSM    C1310852   4.264   6.404   7.355  0.4443 -0.2034 -0.4930
  107OSM   H13A10853   4.312   6.309   7.336  1.5466  0.5754 -1.6796
  107OSM   H13B10854   4.212   6.394   7.449  2.3515 -1.2530  0.5147
  107OSM   H13C10855   4.334   6.482   7.377 -1.7611  1.6651  0.3430
  107OSM    C1210856   4.290   6.489   7.130 -0.2679 -0.3247  0.7313
  107OSM   H12A10857   4.360   6.412   7.102 -0.3395  0.1720 -0.9092
  107OSM   H12B10858   4.340   6.576   7.172  1.2473 -0.0998 -1.3743
  107OSM    C1110859   4.242   6.548   6.985  0.4866 -0.4569  0.2080
  107OSM   H11A10860   4.167   6.486   6.933  0.6633 -0.8023  0.3617
  107OSM   H11B10861   4.323   6.562   6.910  0.1211  1.2051  0.0707
  107OSM      P10862   4.244   6.798   7.031 -0.7090 -0.3734 -0.1375
  107OSM    O1310863   4.145   6.909   7.051  0.1739  0.2815 -0.7359
  107OSM    O1410864   4.331   6.783   7.152  0.7496  0.0063  0.3024
  107OSM    O1110865   4.337   6.841   6.908 -0.5532 -0.1170 -0.0867
  107OSM    O1210866   4.172   6.672   6.993  0.2103  0.1479 -0.1683
  107OSM    C1S10867   4.287   6.848   6.776  0.3549  0.6984  0.2620
  107OSM    H1S10868   4.177   6.834   6.784  0.1451  1.6788 -0.7295
  107OSM    H1T10869   4.327   6.772   6.706 -4.5055 -0.8203 -1.2749
  107OSM     NF10870   4.280   6.995   6.572 -0.6970  0.0566  0.2597
  107OSM    HNF10871   4.352   6.996   6.503  0.0229  0.0779  0.9915
  107OSM    C2S10872   4.321   6.987   6.708 -0.1834  0.0965 -0.3351
  107OSM    H2S10873   4.281   7.078   6.759 -0.6678  0.6394 -1.6358
  107OSM    C3S10874   4.482   7.012   6.723  0.2140 -0.1440 -0.3794
  107OSM    H3S10875   4.526   6.931   6.661 -0.3554 -0.9731  0.2705
  107OSM     O310876   4.541   6.998   6.852 -0.4768 -0.2982 -0.1991
  107OSM    HO310877   4.481   6.939   6.899  0.5542 -1.6401 -0.5022
  107OSM    C4S10878   4.531   7.142   6.661  0.0393  0.0247  0.3530
  107OSM    H4S10879   4.497   7.227   6.722 -1.7429 -0.9447  0.7503
  107OSM    C5S10880   4.610   7.145   6.549 -0.3340 -0.3728 -0.2393
  107OSM    H5S10881   4.642   7.054   6.497  0.3349  0.7926 -1.9762
  107OSM    C6S10882   4.659   7.272   6.482 -0.0363  0.0524 -0.0422
  107OSM    H6S10883   4.676   7.365   6.541 -0.9525  0.9580 -1.1583
  107OSM    H6T10884   4.594   7.293   6.394  0.0050 -0.5820 -0.2277
  107OSM    C7S10885   4.793   7.230   6.416  0.2778  0.1932 -0.2392
  107OSM    H7S10886   4.798   7.136   6.356  1.2250  0.7674 -1.0834
  107OSM    H7T10887   4.862   7.219   6.502 -0.2124 -1.8550 -0.0373
  107OSM    C8S10888   4.865   7.335   6.337  0.6419 -0.1790 -0.5188
  107OSM    H8S10889   4.970   7.301   6.322  0.1412 -1.2355 -1.7001
  107OSM    H8T10890   4.868   7.429   6.398  0.1183  0.7198 -1.8469
  107OSM    C9S10891   4.803   7.367   6.197  0.0084 -0.2386  0.2808
  107OSM    H9S10892   4.853   7.462   6.167  0.2822 -0.2066  0.8237
  107OSM    H9T10893   4.694   7.383   6.212  0.4640  1.4455  2.3822
  107OSM   C10S10894   4.822   7.249   6.093  0.3823  0.5208  0.0034
  107OSM   H10S10895   4.800   7.154   6.145  0.3540  1.3025  1.4809
  107OSM   H10T10896   4.931   7.245   6.069  0.9300 -1.8892  2.3521
  107OSM   C11S10897   4.738   7.262   5.967  0.4403  0.2628  0.2677
  107OSM   H11S10898   4.767   7.354   5.912  0.5659 -0.2603 -0.5511
  107OSM   H11T10899   4.633   7.268   6.001  0.7257 -0.3535  1.3167
  107OSM   C12S10900   4.740   7.140   5.875 -0.2164 -0.2058  0.2052
  107OSM   H12S10901   4.642   7.090   5.870 -0.5112  0.4956 -1.6438
  107OSM   H12T10902   4.826   7.074   5.904 -0.8604 -0.9267  0.5118
  107OSM   C13S10903   4.782   7.185   5.741  0.6958  0.6133  0.0220
  107OSM   H13S10904   4.871   7.251   5.751  0.4673  1.3844 -2.4170
  107OSM   H13T10905   4.695   7.231   5.690  2.2846 -0.2587 -3.9089
  107OSM   C14S10906   4.813   7.066   5.648  0.8759 -0.3122  0.0744
  107OSM   H14S10907   4.721   7.006   5.628 -0.2831  1.3980  0.0706
  107OSM   H14T10908   4.896   7.011   5.698  1.6125  0.4449 -0.3027
  107OSM   C15S10909   4.867   7.105   5.516  0.9162 -0.2266  0.4552
  107OSM   H15S10910   4.851   7.019   5.448  2.5671 -0.4576  0.3207
  107OSM   H15T10911   4.972   7.136   5.531  0.4713  0.9295  1.4329
  107OSM   C16S10912   4.788   7.212   5.442 -0.0409 -0.2405 -0.6666
  107OSM   H16S10913   4.678   7.213   5.463  0.4910  0.4404  2.7408
  107OSM   H16T10914   4.790   7.188   5.334 -0.8564 -0.9332 -0.5428
  107OSM   C17S10915   4.841   7.351   5.475 -0.1714 -0.4503 -0.2201
  107OSM   H17S10916   4.949   7.366   5.456 -0.7891  1.8121 -2.5524
  107OSM   H17T10917   4.819   7.370   5.582 -1.4265 -0.7162 -0.4178
  107OSM   C18S10918   4.762   7.443   5.388  0.4314  0.7949  0.1464
  107OSM   H18S10919   4.659   7.448   5.427  0.8130  1.0832  1.1375
  107OSM   H18T10920   4.754   7.412   5.281 -1.4564 -0.0012  0.4886
  107OSM   H18U10921   4.797   7.548   5.378  1.2249  0.6276  0.9937
  107OSM    C1F10922   4.147   7.002   6.542 -0.1342  0.2916 -0.3742
  107OSM     OF10923   4.064   7.020   6.632  0.1349  0.2895 -1.0443
  107OSM    C2F10924   4.102   6.990   6.397 -0.3450  0.3499  0.0725
  107OSM    H2F10925   4.190   6.951   6.340 -0.3281  0.1896  0.2082
  107OSM    H2G10926   4.090   7.095   6.362 -1.5802  0.6138  1.2377
  107OSM    C3F10927   3.984   6.897   6.358  0.1967 -0.2112 -0.0048
  107OSM    H3F10928   3.888   6.926   6.406 -0.0044  0.4135 -0.7628
  107OSM    H3G10929   4.004   6.790   6.382  0.0204 -0.6951 -1.9248
  107OSM    C4F10930   3.946   6.919   6.213 -0.0363  0.4070  0.4028
  107OSM    H4F10931   4.013   6.856   6.150  0.2530 -1.4489  2.4330
  107OSM    H4G10932   3.956   7.024   6.178  1.7517  0.4239  0.9007
  107OSM    C5F10933   3.810   6.866   6.186  0.0812 -0.3359 -0.0604
  107OSM    H5F10934   3.742   6.922   6.254 -0.8124 -1.2632 -0.1759
  107OSM    H5G10935   3.799   6.757   6.201  2.2891 -1.0812 -3.0407
  107OSM    C6F10936   3.770   6.886   6.040  0.1827 -0.2972 -0.3179
  107OSM    H6F10937   3.760   6.992   6.010 -3.7441 -0.5256 -0.2217
  107OSM    H6G10938   3.664   6.854   6.030  0.7801 -2.2750 -0.8095
  107OSM    C7F10939   3.850   6.815   5.925  0.3384 -0.2779  0.1739
  107OSM    H7F10940   3.860   6.706   5.945  1.5228 -0.0708  0.8160
  107OSM    H7G10941   3.950   6.862   5.909 -0.3793  0.4136 -3.0414
  107OSM    C8F10942   3.785   6.829   5.782  0.1397  0.3272 -0.1084
  107OSM    H8F10943   3.787   6.936   5.753 -1.9865  0.8813  1.4760
  107OSM    H8G10944   3.676   6.813   5.793  0.5379 -1.8820  1.4027
  107OSM    C9F10945   3.825   6.754   5.656  0.5597  0.4182 -0.6890
  107OSM    H9F10946   3.919   6.795   5.616  0.9858 -0.0363 -0.1829
  107OSM   C10F10947   3.768   6.653   5.590 -0.1877  0.2429 -0.2449
  107OSM   H10F10948   3.817   6.610   5.501  0.7943 -3.7310  1.9861
  107OSM   C11F10949   3.637   6.584   5.623  0.5594  0.6669  0.5556
  107OSM   H11F10950   3.577   6.570   5.531  2.7881 -3.7344 -0.4763
  107OSM   H11G10951   3.578   6.650   5.690 -1.3602  0.6145 -1.0138
  107OSM   C12F10952   3.630   6.449   5.691  0.0315 -0.3715  0.3665
  107OSM   H12F10953   3.696   6.379   5.635  0.0135  0.2142 -0.4049
  107OSM   H12G10954   3.522   6.434   5.673  0.4214  0.5655 -3.8931
  107OSM   C13F10955   3.659   6.445   5.836  0.1049 -0.0351 -0.3041
  107OSM   H13F10956   3.755   6.496   5.856 -0.7889  0.4470  3.4473
  107OSM   H13G10957   3.684   6.341   5.867  1.6355  0.8072  1.4840
  107OSM   C14F10958   3.551   6.510   5.921 -0.0909  0.4887 -0.0976
  107OSM   H14F10959   3.461   6.445   5.922  2.0366 -2.7160  0.1351
  107OSM   H14G10960   3.534   6.615   5.888  1.3957  0.3703 -1.3622
  107OSM   C15F10961   3.593   6.524   6.069 -0.6219 -0.0078 -0.6606
  107OSM   H15F10962   3.685   6.583   6.085 -0.8514  0.0114  0.6474
  107OSM   H15G10963   3.617   6.421   6.103 -0.2080  0.1631 -0.4381
  107OSM   C16F10964   3.474   6.566   6.161 -0.2121  0.3494  0.2853
  107OSM   H16F10965   3.500   6.520   6.258 -1.4071  0.7536  0.8028
  107OSM   H16G10966   3.378   6.513   6.143  0.2203 -0.4815  0.3909
  107OSM   C17F10967   3.457   6.720   6.169  0.5155  0.0394  0.0296
  107OSM   H17F10968   3.403   6.756   6.079  0.8169 -1.0193 -0.6021
  107OSM   H17G10969   3.552   6.776   6.179  0.9801 -0.4819 -1.2581
  107OSM   C18F10970   3.368   6.754   6.289  0.3563  0.1684 -0.2216
  107OSM   H18F10971   3.279   6.687   6.292  0.2302  0.3328 -0.2882
  107OSM   H18G10972   3.320   6.853   6.275 -0.3498 -0.0463  0.5627
  107OSM   H18H10973   3.426   6.748   6.384 -1.1702 -3.4839  0.6311
  108OSM      N10974   0.207   1.603   7.215  0.4750 -0.2438  0.3972
  108OSM    C1510975   0.224   1.716   7.310  0.2407  0.7101  0.9750
  108OSM   H15A10976   0.129   1.769   7.314 -0.9879 -1.1889 -0.8342
  108OSM   H15B10977   0.292   1.785   7.263 -1.4506  1.2515 -0.8060
  108OSM   H15C10978   0.256   1.687   7.409  1.7365  1.9088  0.8719
  108OSM    C1410979   0.350   1.555   7.185 -0.3257  0.0988 -0.0722
  108OSM   H14A10980   0.402   1.634   7.133 -1.9760  0.4036 -1.3438
  108OSM   H14B10981   0.342   1.466   7.123  2.3700 -1.0201  1.0516
  108OSM   H14C10982   0.398   1.535   7.279 -0.4169 -0.5562 -0.1592
  108OSM    C1310983   0.126   1.495   7.287 -0.1958 -0.2509 -0.0610
  108OSM   H13A10984   0.026   1.528   7.311 -0.0714 -1.1472  1.8553
  108OSM   H13B10985   0.178   1.467   7.377 -1.3979  1.1187  1.1162
  108OSM   H13C10986   0.116   1.413   7.217  1.0986  0.5072 -1.1825
  108OSM    C1210987   0.130   1.640   7.095 -0.5571  0.8831 -0.6116
  108OSM   H12A10988   0.146   1.740   7.056 -0.1707  1.8518  1.8629
  108OSM   H12B10989   0.025   1.650   7.121 -1.0434 -1.3857 -1.4404
  108OSM    C1110990   0.145   1.551   6.973  0.1649 -0.4418 -0.0689
  108OSM   H11A10991   0.248   1.542   6.933  1.6873  2.1844  2.8523
  108OSM   H11B10992   0.087   1.606   6.895 -0.4602 -3.6592 -2.0473
  108OSM      P10993  -0.068   1.393   6.987 -0.0836 -0.0085  0.4900
  108OSM    O1310994  -0.098   1.264   7.041  0.8134 -0.3521  0.4922
  108OSM    O1410995  -0.143   1.512   7.042  0.3054 -0.5430  0.0493
  108OSM    O1110996  -0.084   1.389   6.827 -0.0724  0.0547  0.0492
  108OSM    O1210997   0.093   1.419   7.002 -0.1163  0.1328  0.1148
  108OSM    C1S10998   0.003   1.294   6.772  0.0287  0.4732 -0.2499
  108OSM    H1S10999  -0.005   1.201   6.832  0.2643 -0.2097 -1.2508
  108OSM    H1T11000   0.111   1.316   6.785  0.2031  0.3454 -1.3690
  108OSM     NF11001   0.060   1.154   6.583 -0.1357 -0.7862  0.1412
  108OSM    HNF11002   0.152   1.170   6.548 -0.3060 -1.0825 -0.4642
  108OSM    C2S11003  -0.016   1.280   6.616  0.5491  0.3083 -0.1251
  108OSM    H2S11004  -0.121   1.251   6.598  0.8648 -1.3275  0.4844
  108OSM    C3S11005   0.005   1.405   6.539 -0.6119 -0.9677 -0.2412
  108OSM    H3S11006   0.109   1.445   6.541 -1.3652  1.0873  0.1111
  108OSM     O311007  -0.067   1.519   6.587  0.2651  0.6261 -0.2486
  108OSM    HO311008  -0.093   1.503   6.678  0.6341  2.2006  0.1547
  108OSM    C4S11009  -0.039   1.392   6.396  0.5041  0.0456  0.1625
  108OSM    H4S11010  -0.147   1.370   6.395  0.9677 -2.5513 -0.5174
  108OSM    C5S11011   0.030   1.415   6.285  0.1251  0.4121  0.6965
  108OSM    H5S11012   0.140   1.424   6.287  0.3169 -1.4092  0.0434
  108OSM    C6S11013  -0.025   1.388   6.145  0.3506 -0.1076  0.5020
  108OSM    H6S11014  -0.015   1.282   6.114  2.6240  0.3688 -0.6030
  108OSM    H6T11015   0.038   1.447   6.075  0.0607  1.1449  1.2626
  108OSM    C7S11016  -0.168   1.434   6.116  0.8975 -0.2603 -0.5553
  108OSM    H7S11017  -0.177   1.541   6.143 -1.9297 -0.2434 -1.2240
  108OSM    H7T11018  -0.238   1.380   6.184 -0.6455  0.8616 -1.1958
  108OSM    C8S11019  -0.224   1.428   5.969  0.4958  0.0911 -1.0756
  108OSM    H8S11020  -0.181   1.334   5.929 -0.2191 -0.0989 -1.4314
  108OSM    H8T11021  -0.182   1.515   5.916  2.8224 -0.0901  0.3652
  108OSM    C9S11022  -0.384   1.427   5.967 -0.1398 -0.2681 -0.4198
  108OSM    H9S11023  -0.430   1.528   5.965  1.8048  0.6735 -2.6135
  108OSM    H9T11024  -0.428   1.376   6.055  0.1111  0.4768  0.1485
  108OSM   C10S11025  -0.429   1.353   5.837 -0.0843  0.6127 -0.6279
  108OSM   H10S11026  -0.538   1.339   5.850 -0.4198  3.7407  0.9743
  108OSM   H10T11027  -0.379   1.254   5.842  1.2115  1.2989  0.6832
  108OSM   C11S11028  -0.389   1.429   5.710  0.3888 -0.1500 -0.2271
  108OSM   H11S11029  -0.279   1.438   5.717  0.3233 -0.2694  1.3211
  108OSM   H11T11030  -0.437   1.529   5.703  1.1571  0.1085 -2.6332
  108OSM   C12S11031  -0.416   1.354   5.576  0.3877 -0.6102  0.7701
  108OSM   H12S11032  -0.523   1.329   5.560  0.8883 -2.7084  0.4575
  108OSM   H12T11033  -0.363   1.257   5.576 -0.9175 -1.3554  0.3392
  108OSM   C13S11034  -0.373   1.433   5.447 -0.5203 -0.0200 -0.7812
  108OSM   H13S11035  -0.264   1.453   5.448 -0.1381 -1.9353 -0.8478
  108OSM   H13T11036  -0.439   1.523   5.450 -4.8906 -2.8843 -1.8227
  108OSM   C14S11037  -0.390   1.366   5.312  0.4826 -0.1062  0.5952
  108OSM   H14S11038  -0.495   1.329   5.310  0.2916  0.3636 -2.1941
  108OSM   H14T11039  -0.341   1.268   5.293 -3.4812 -1.9593 -1.2717
  108OSM   C15S11040  -0.381   1.462   5.193 -0.3530 -0.1575 -0.5726
  108OSM   H15S11041  -0.278   1.505   5.193  0.0264 -0.6028  3.6422
  108OSM   H15T11042  -0.454   1.544   5.209  1.0891  0.8581  1.2425
  108OSM   C16S11043  -0.409   1.386   5.062  0.1263 -0.5900  0.7215
  108OSM   H16S11044  -0.487   1.307   5.070 -0.2383 -0.3677 -0.4447
  108OSM   H16T11045  -0.317   1.323   5.059  1.6999  1.6290 -0.8259
  108OSM   C17S11046  -0.416   1.477   4.940  0.0053 -0.4379  0.5449
  108OSM   H17S11047  -0.377   1.417   4.855 -0.8799  1.1991 -1.0878
  108OSM   H17T11048  -0.348   1.565   4.948 -1.9339  1.3974 -1.6972
  108OSM   C18S11049  -0.558   1.531   4.894 -0.6737 -0.0358 -0.0872
  108OSM   H18S11050  -0.606   1.471   4.814 -1.6296  0.9606 -0.2859
  108OSM   H18T11051  -0.551   1.638   4.865 -0.1864 -0.3660 -1.2276
  108OSM   H18U11052  -0.640   1.534   4.969 -3.1836 -2.7052 -2.4467
  108OSM    C1F11053   0.020   1.039   6.619  0.3077  1.0979 -0.7285
  108OSM     OF11054  -0.095   1.025   6.661  0.4670  0.6416 -0.1104
  108OSM    C2F11055   0.125   0.932   6.615 -0.4084  0.6846  0.1562
  108OSM    H2F11056   0.158   0.916   6.720  0.6434  0.9540 -0.1154
  108OSM    H2G11057   0.216   0.968   6.562 -0.4168 -0.7615 -0.9040
  108OSM    C3F11058   0.081   0.812   6.524 -0.1846  0.3195  0.4419
  108OSM    H3F11059  -0.003   0.757   6.573 -1.2413  0.7537 -0.8235
  108OSM    H3G11060   0.177   0.758   6.511 -0.4601 -0.2834  0.8442
  108OSM    C4F11061   0.041   0.850   6.386 -0.2569 -0.4053  0.3953
  108OSM    H4F11062  -0.059   0.900   6.383 -0.2078 -0.3247 -0.0215
  108OSM    H4G11063   0.039   0.756   6.326  0.8188  1.9275 -3.6906
  108OSM    C5F11064   0.149   0.938   6.311  0.4143 -0.3642 -0.1209
  108OSM    H5F11065   0.244   0.889   6.342  0.9339 -1.2300 -2.8571
  108OSM    H5G11066   0.131   1.039   6.353 -1.4471 -1.0210  0.7731
  108OSM    C6F11067   0.140   0.923   6.156  0.0672  0.2721 -0.8555
  108OSM    H6F11068   0.056   0.986   6.121 -0.0093  0.2022 -0.7969
  108OSM    H6G11069   0.123   0.815   6.138  1.6213 -0.2441  0.4512
  108OSM    C7F11070   0.269   0.953   6.087 -0.0551  0.4457  0.0658
  108OSM    H7F11071   0.351   0.888   6.123  0.2545  1.8607  2.0947
  108OSM    H7G11072   0.291   1.057   6.119 -0.7572  0.2391  1.2635
  108OSM    C8F11073   0.268   0.940   5.929  0.2508 -0.4853 -0.6692
  108OSM    H8F11074   0.355   1.002   5.898  0.2280 -1.6374 -3.3096
  108OSM    H8G11075   0.179   0.990   5.887 -0.9588 -2.1044 -0.1530
  108OSM    C9F11076   0.259   0.794   5.882 -0.2413  0.5500  0.7684
  108OSM    H9F11077   0.181   0.736   5.933 -0.3518  1.2151  1.3786
  108OSM   C10F11078   0.341   0.736   5.791  0.3420 -0.1105  0.0297
  108OSM   H10F11079   0.309   0.641   5.745  1.2987 -0.3669 -0.1253
  108OSM   C11F11080   0.457   0.801   5.721 -0.5155 -0.3481 -0.2692
  108OSM   H11F11081   0.547   0.738   5.740 -2.3195 -3.3680 -1.1157
  108OSM   H11G11082   0.488   0.902   5.757 -3.3175 -0.1916  2.1511
  108OSM   C12F11083   0.431   0.798   5.574  0.0653  0.2685 -0.0632
  108OSM   H12F11084   0.425   0.696   5.530 -1.4063  1.3896 -2.7078
  108OSM   H12G11085   0.520   0.848   5.530 -0.3948  2.0065  0.8900
  108OSM   C13F11086   0.306   0.875   5.526 -0.1008 -0.2190 -0.7495
  108OSM   H13F11087   0.324   0.982   5.553  0.9892 -0.6998  0.5868
  108OSM   H13G11088   0.215   0.851   5.584  0.7174  0.3369  0.8406
  108OSM   C14F11089   0.261   0.867   5.379  0.0961  0.2858  0.3547
  108OSM   H14F11090   0.160   0.912   5.369  0.5812  1.5352  0.9437
  108OSM   H14G11091   0.253   0.762   5.344 -0.2376  0.9331 -1.6128
  108OSM   C15F11092   0.360   0.947   5.296 -0.8394  0.1488 -0.4562
  108OSM   H15F11093   0.457   0.892   5.297 -1.3843 -0.8231  0.1723
  108OSM   H15G11094   0.362   1.052   5.332  2.2385 -0.1261  0.4934
  108OSM   C16F11095   0.328   0.961   5.138 -0.2722 -0.6688 -0.1724
  108OSM   H16F11096   0.353   1.067   5.114 -1.1220  0.1696  2.3071
  108OSM   H16G11097   0.219   0.943   5.125 -0.3321  0.1380 -0.8682
  108OSM   C17F11098   0.402   0.852   5.065  0.1183 -0.0496 -0.0883
  108OSM   H17F11099   0.391   0.752   5.112  0.7983 -0.9984 -1.8682
  108OSM   H17G11100   0.507   0.885   5.074 -0.8466  2.9675  1.9501
  108OSM   C18F11101   0.355   0.843   4.918  0.3278  0.2948 -0.1774
  108OSM   H18F11102   0.346   0.940   4.865 -0.8525  0.2614 -0.0537
  108OSM   H18G11103   0.249   0.811   4.913  0.6661 -0.8907 -0.2803
  108OSM   H18H11104   0.422   0.773   4.864  1.7282  1.2859  0.2147
  109OSM      N11105   2.746   2.563   7.200  0.2740 -0.0309  0.2008
  109OSM    C1511106   2.852   2.472   7.253 -0.2039  0.4805 -0.8248
  109OSM   H15A11107   2.823   2.435   7.351  0.3558 -1.7961 -1.4785
  109OSM   H15B11108   2.948   2.520   7.265  0.8491 -1.5270 -0.8463
  109OSM   H15C11109   2.869   2.385   7.193  1.2345  0.5356 -0.5377
  109OSM    C1411110   2.630   2.475   7.152 -0.2068 -0.0594  0.4673
  109OSM   H14A11111   2.640   2.429   7.055  1.2188 -0.6907  0.8957
  109OSM   H14B11112   2.544   2.540   7.147  1.6565  2.4929  0.1281
  109OSM   H14C11113   2.605   2.405   7.231  2.1170 -0.9685  0.4818
  109OSM    C1311114   2.711   2.660   7.313  0.0223 -0.0149  0.1951
  109OSM   H13A11115   2.801   2.712   7.341 -1.0501  2.1970 -0.2614
  109OSM   H13B11116   2.677   2.601   7.396  1.8865 -1.1603  0.2119
  109OSM   H13C11117   2.630   2.725   7.283 -0.2189 -0.2204  0.3977
  109OSM    C1211118   2.784   2.649   7.078 -0.1719 -0.2234 -0.1555
  109OSM   H12A11119   2.868   2.716   7.096 -0.3222  0.0562 -0.4717
  109OSM   H12B11120   2.703   2.717   7.059  0.1570  0.8043  1.8413
  109OSM    C1111121   2.823   2.575   6.946  0.8978 -0.2583 -0.2794
  109OSM   H11A11122   2.896   2.498   6.977 -1.5970 -2.6763  0.0247
  109OSM   H11B11123   2.880   2.641   6.878  2.2388 -1.0516  0.0302
  109OSM      P11124   2.599   2.606   6.814 -0.1602  0.0544 -0.2215
  109OSM    O1311125   2.472   2.534   6.826 -0.4553 -0.0216 -0.0690
  109OSM    O1411126   2.609   2.747   6.869 -0.1734 -0.1186 -0.9326
  109OSM    O1111127   2.643   2.611   6.657  0.4068 -0.5235 -0.2256
  109OSM    O1211128   2.712   2.511   6.886 -0.2904  0.4911 -0.1238
  109OSM    C1S11129   2.700   2.501   6.592 -0.1035  0.0487 -0.1659
  109OSM    H1S11130   2.623   2.423   6.572  0.3380 -0.0334 -1.6547
  109OSM    H1T11131   2.792   2.465   6.643  0.8260  0.5832 -1.4135
  109OSM     NF11132   2.832   2.424   6.387 -0.5647  0.6300  0.0794
  109OSM    HNF11133   2.931   2.417   6.384 -0.5561  0.9782 -0.5518
  109OSM    C2S11134   2.763   2.536   6.446 -0.3659 -0.1049 -0.2465
  109OSM    H2S11135   2.673   2.568   6.390 -0.6452  0.3889  0.4731
  109OSM    C3S11136   2.852   2.662   6.473  0.5277  1.0933 -0.5924
  109OSM    H3S11137   2.929   2.631   6.547  0.5686  2.1638 -0.1604
  109OSM     O311138   2.787   2.773   6.529 -0.1592 -0.1872  0.1876
  109OSM    HO311139   2.702   2.741   6.559  0.2968 -1.3638  0.2753
  109OSM    C4S11140   2.920   2.704   6.345 -0.0643  0.2663 -0.4816
  109OSM    H4S11141   3.019   2.660   6.327 -1.0031 -1.2517 -2.1234
  109OSM    C5S11142   2.871   2.788   6.254  0.1550  0.1759  0.3036
  109OSM    H5S11143   2.774   2.837   6.273 -0.2944 -0.2009 -0.9804
  109OSM    C6S11144   2.934   2.818   6.123 -0.7146 -0.4170 -0.2772
  109OSM    H6S11145   3.039   2.854   6.131 -0.9977  1.0329 -2.2814
  109OSM    H6T11146   2.875   2.904   6.085 -1.9458 -0.8850  0.5414
  109OSM    C7S11147   2.934   2.699   6.026 -0.4350  0.9373  0.4963
  109OSM    H7S11148   2.836   2.648   6.036  0.1008 -0.4647 -1.0642
  109OSM    H7T11149   3.008   2.627   6.066 -0.8253  1.4811  2.2865
  109OSM    C8S11150   2.966   2.733   5.878  0.1694 -0.1245  0.2392
  109OSM    H8S11151   3.033   2.821   5.868 -0.4418  0.5240  1.5004
  109OSM    H8T11152   2.873   2.771   5.832  0.2507  1.2221  1.1255
  109OSM    C9S11153   3.028   2.621   5.788  0.0923 -0.2449 -0.3319
  109OSM    H9S11154   2.955   2.537   5.777  0.4063 -0.5157 -0.3377
  109OSM    H9T11155   3.121   2.584   5.836 -0.9776 -1.2929  1.0636
  109OSM   C10S11156   3.058   2.673   5.651 -0.2872 -0.2416 -0.3005
  109OSM   H10S11157   3.132   2.606   5.603 -0.0988 -0.9167  0.9083
  109OSM   H10T11158   3.108   2.773   5.653  1.3164 -0.9463 -1.9643
  109OSM   C11S11159   2.937   2.690   5.554 -0.4012 -0.1231 -0.2223
  109OSM   H11S11160   2.874   2.765   5.606 -1.1140 -0.6408 -0.3257
  109OSM   H11T11161   2.881   2.595   5.550 -0.9894  0.2441 -0.7235
  109OSM   C12S11162   2.977   2.728   5.407 -0.7502 -0.4665  0.0910
  109OSM   H12S11163   3.059   2.803   5.406 -1.2738  0.2189  2.3621
  109OSM   H12T11164   2.886   2.765   5.355  1.4160  3.3401 -1.4228
  109OSM   C13S11165   3.014   2.602   5.328  0.0223 -0.3490 -0.1606
  109OSM   H13S11166   2.933   2.526   5.341  0.6920 -0.7523  2.1794
  109OSM   H13T11167   3.108   2.556   5.365  1.0939  2.8192  1.3444
  109OSM   C14S11168   3.024   2.613   5.176  0.3897 -0.3385 -0.2298
  109OSM   H14S11169   2.922   2.643   5.144  0.7291 -1.4300 -2.5271
  109OSM   H14T11170   3.035   2.509   5.138 -1.6515 -0.2408 -1.2533
  109OSM   C15S11171   3.132   2.711   5.126 -0.6246 -0.0510 -0.0316
  109OSM   H15S11172   3.231   2.688   5.170  0.5616 -1.8657 -3.2820
  109OSM   H15T11173   3.120   2.814   5.165 -1.0828 -0.0731 -0.0989
  109OSM   C16S11174   3.169   2.705   4.979  0.3789  0.0137  0.1921
  109OSM   H16S11175   3.174   2.601   4.942  1.9232  0.1475 -0.0279
  109OSM   H16T11176   3.270   2.748   4.968  0.2496 -0.1027 -1.6567
  109OSM   C17S11177   3.065   2.787   4.890 -0.4285  0.4158  0.3754
  109OSM   H17S11178   3.071   2.893   4.925  1.7968 -0.1673  2.0030
  109OSM   H17T11179   2.968   2.735   4.901  0.9605 -3.1429 -2.4287
  109OSM   C18S11180   3.105   2.778   4.742 -0.0668 -0.4521  0.5589
  109OSM   H18S11181   3.188   2.852   4.733  0.5783  0.2655  7.2260
  109OSM   H18T11182   3.017   2.791   4.675  0.4784 -2.2075 -0.5571
  109OSM   H18U11183   3.143   2.678   4.713  0.8573  0.0457 -0.0046
  109OSM    C1F11184   2.760   2.315   6.361 -0.4385  0.3387  0.4434
  109OSM     OF11185   2.637   2.322   6.369 -0.3512  0.0238 -0.5995
  109OSM    C2F11186   2.834   2.195   6.313  0.1114  0.0593  0.3591
  109OSM    H2F11187   2.798   2.111   6.376 -1.4678  0.2339 -0.2835
  109OSM    H2G11188   2.944   2.210   6.321  0.1908 -0.2368 -0.1454
  109OSM    C3F11189   2.811   2.183   6.161  0.3246 -0.0643 -0.3755
  109OSM    H3F11190   2.703   2.164   6.144  0.2023  0.2434  0.0323
  109OSM    H3G11191   2.870   2.100   6.117 -0.0753  0.3486 -1.7676
  109OSM    C4F11192   2.871   2.301   6.081 -0.0858 -0.7373 -0.0457
  109OSM    H4F11193   2.970   2.337   6.117 -0.4161  1.6415 -1.2843
  109OSM    H4G11194   2.801   2.385   6.100  0.2687 -0.4895  0.2029
  109OSM    C5F11195   2.877   2.272   5.930 -0.4343 -0.3682 -0.5994
  109OSM    H5F11196   2.942   2.182   5.923 -0.2930 -0.5461  2.1458
  109OSM    H5G11197   2.921   2.361   5.880 -1.5180  0.4118 -0.1894
  109OSM    C6F11198   2.744   2.222   5.873 -0.1879 -0.1216 -0.0705
  109OSM    H6F11199   2.662   2.295   5.894 -1.0277 -1.9356  3.8536
  109OSM    H6G11200   2.726   2.128   5.929  0.9461 -0.1561  0.2620
  109OSM    C7F11201   2.747   2.197   5.722  0.0129 -0.7293  0.1497
  109OSM    H7F11202   2.644   2.182   5.684  0.2599  0.4654 -1.1046
  109OSM    H7G11203   2.811   2.107   5.712  0.5947 -0.3479  0.3105
  109OSM    C8F11204   2.798   2.311   5.628 -0.4046  0.0507 -0.3976
  109OSM    H8F11205   2.905   2.332   5.649 -0.6973 -0.1107  1.3635
  109OSM    H8G11206   2.757   2.405   5.671  1.6822 -0.0553  2.0241
  109OSM    C9F11207   2.777   2.289   5.480  0.2892  0.8145 -0.0639
  109OSM    H9F11208   2.851   2.225   5.430 -1.8703 -0.7251 -1.4311
  109OSM   C10F11209   2.660   2.317   5.421 -0.4190 -0.1468 -0.9360
  109OSM   H10F11210   2.647   2.298   5.313  0.0499  2.9447 -1.6601
  109OSM   C11F11211   2.548   2.393   5.500  0.5754  0.0698  0.7287
  109OSM   H11F11212   2.583   2.447   5.590  0.7224  2.3259 -0.6053
  109OSM   H11G11213   2.484   2.313   5.542  1.0632 -1.6377 -1.6228
  109OSM   C12F11214   2.451   2.487   5.413 -0.7348  0.1991  0.2976
  109OSM   H12F11215   2.392   2.556   5.478  0.9702  0.4763  1.6250
  109OSM   H12G11216   2.390   2.431   5.339  0.3422 -2.1731  1.1073
  109OSM   C13F11217   2.530   2.570   5.309 -0.0120 -0.0478 -0.3962
  109OSM   H13F11218   2.579   2.490   5.250 -0.6915 -0.1899 -0.7807
  109OSM   H13G11219   2.607   2.638   5.352  0.2293 -0.5268 -0.0524
  109OSM   C14F11220   2.444   2.643   5.210  0.8497 -0.2816 -0.4571
  109OSM   H14F11221   2.396   2.727   5.264  1.1364  0.4174 -1.2722
  109OSM   H14G11222   2.357   2.579   5.182  1.5429 -0.7934 -1.5013
  109OSM   C15F11223   2.523   2.702   5.094 -0.3635  0.3371 -0.1979
  109OSM   H15F11224   2.613   2.761   5.124 -0.2572  0.0364  0.0883
  109OSM   H15G11225   2.465   2.772   5.031  0.8431 -0.9094 -2.8724
  109OSM   C16F11226   2.575   2.597   4.991 -0.0275 -0.1167  0.0626
  109OSM   H16F11227   2.481   2.546   4.962  0.5437 -1.9653  1.2274
  109OSM   H16G11228   2.646   2.520   5.029  0.3782  0.0665 -0.3159
  109OSM   C17F11229   2.635   2.659   4.862  0.2587  0.6536 -0.9753
  109OSM   H17F11230   2.725   2.718   4.888  1.2681 -0.9000 -0.8869
  109OSM   H17G11231   2.556   2.728   4.824 -0.0959  0.6712 -0.2224
  109OSM   C18F11232   2.681   2.563   4.761 -0.4312 -0.1890  0.6189
  109OSM   H18F11233   2.719   2.616   4.670  2.2823 -3.4831 -0.3726
  109OSM   H18G11234   2.609   2.480   4.742 -0.2358 -0.6031  1.6167
  109OSM   H18H11235   2.764   2.503   4.804 -0.7474 -0.0258  1.4771
  110OSM      N11236   5.346   6.724   7.101  0.3359  0.0356 -0.2602
  110OSM    C1511237   5.319   6.592   7.165  0.6261  0.6137  0.1205
  110OSM   H15A11238   5.362   6.505   7.118 -0.2321  1.0144 -1.4780
  110OSM   H15B11239   5.214   6.574   7.183  0.9095 -1.8824 -0.4023
  110OSM   H15C11240   5.352   6.595   7.267 -1.2575 -3.3026  1.0365
  110OSM    C1411241   5.277   6.815   7.191 -1.0070  0.0599  0.3997
  110OSM   H14A11242   5.173   6.786   7.195 -0.1188 -3.6130  0.4845
  110OSM   H14B11243   5.287   6.917   7.158  0.6841 -0.5754 -1.3045
  110OSM   H14C11244   5.318   6.810   7.291 -0.6077 -3.2478  0.1849
  110OSM    C1311245   5.492   6.747   7.101  0.1196  0.6300  0.6906
  110OSM   H13A11246   5.533   6.711   7.193  1.3442  1.7281  0.5970
  110OSM   H13B11247   5.525   6.848   7.082  1.7181  0.4457  2.2263
  110OSM   H13C11248   5.538   6.685   7.025  0.0560  0.4587  0.7917
  110OSM    C1211249   5.279   6.731   6.961  0.3149  0.3236 -0.4615
  110OSM   H12A11250   5.315   6.648   6.902  0.4939 -0.7054  1.0114
  110OSM   H12B11251   5.311   6.824   6.917 -1.7537  1.0940 -0.4538
  110OSM    C1111252   5.117   6.725   6.950  0.1900 -0.4245  0.7622
  110OSM   H11A11253   5.086   6.745   6.845  1.6601 -1.3655  0.1174
  110OSM   H11B11254   5.076   6.814   7.002 -1.0182 -1.3527  1.4466
  110OSM      P11255   5.064   6.479   6.920 -0.1721 -0.5452  0.3663
  110OSM    O1311256   5.175   6.381   6.936  0.2293 -0.4476  0.1925
  110OSM    O1411257   4.929   6.416   6.939  0.2154 -0.1824  0.0759
  110OSM    O1111258   5.072   6.527   6.766 -0.4028  0.1402  0.2669
  110OSM    O1211259   5.065   6.612   7.000  0.2268  0.0547 -0.6783
  110OSM    C1S11260   5.055   6.416   6.672  0.1506  0.3414 -1.4696
  110OSM    H1S11261   4.948   6.401   6.647 -0.5979 -0.4494  1.6971
  110OSM    H1T11262   5.094   6.317   6.703 -3.0333 -0.5451  0.0815
  110OSM     NF11263   5.117   6.342   6.445  0.0082  0.5259 -0.0392
  110OSM    HNF11264   5.190   6.276   6.435 -0.6618 -0.2044 -0.2536
  110OSM    C2S11265   5.134   6.442   6.542 -0.0339  0.0802 -1.0989
  110OSM    H2S11266   5.079   6.530   6.503  1.2907  0.4269 -2.2711
  110OSM    C3S11267   5.278   6.497   6.569  0.5340 -0.6213 -0.5206
  110OSM    H3S11268   5.344   6.417   6.610  2.4549  0.9622 -0.4272
  110OSM     O311269   5.296   6.608   6.659  0.2473 -0.6810  0.0477
  110OSM    HO311270   5.210   6.616   6.701 -0.2384 -1.9205 -0.6307
  110OSM    C4S11271   5.332   6.535   6.428 -0.7819 -0.2813  0.4071
  110OSM    H4S11272   5.374   6.448   6.377 -0.6938  0.8960 -1.6112
  110OSM    C5S11273   5.352   6.657   6.376  0.4323  0.2106  0.1761
  110OSM    H5S11274   5.332   6.742   6.441 -0.4122 -0.2267  0.4978
  110OSM    C6S11275   5.405   6.691   6.243 -0.1679 -0.0108 -0.2552
  110OSM    H6S11276   5.509   6.724   6.266 -0.9438  1.3184  1.6298
  110OSM    H6T11277   5.361   6.780   6.192 -0.4415  0.1627  0.2830
  110OSM    C7S11278   5.419   6.577   6.141 -0.1443  0.3089  0.8863
  110OSM    H7S11279   5.457   6.489   6.196  0.4247 -0.7600 -1.1150
  110OSM    H7T11280   5.491   6.598   6.059 -0.5594 -3.0829 -0.5249
  110OSM    C8S11281   5.281   6.546   6.079  0.2120  0.6779 -0.0016
  110OSM    H8S11282   5.201   6.542   6.156  0.0454 -0.7800 -0.2186
  110OSM    H8T11283   5.291   6.440   6.048 -1.7497 -0.7762  3.6831
  110OSM    C9S11284   5.241   6.645   5.968  0.4413  0.2074  0.2518
  110OSM    H9S11285   5.331   6.656   5.903 -0.2334  0.4939 -0.6566
  110OSM    H9T11286   5.208   6.743   6.010 -0.7337  0.1631 -0.5256
  110OSM   C10S11287   5.125   6.594   5.878  0.3719 -0.1621  0.4576
  110OSM   H10S11288   5.028   6.618   5.926  0.0443  0.4860 -0.4994
  110OSM   H10T11289   5.144   6.486   5.864 -1.2809 -0.4294  0.0865
  110OSM   C11S11290   5.136   6.636   5.736  0.4676  1.1642  0.0044
  110OSM   H11S11291   5.072   6.567   5.678 -0.2648  0.5722  1.4702
  110OSM   H11T11292   5.239   6.615   5.701 -0.3387  0.3104 -1.9900
  110OSM   C12S11293   5.110   6.784   5.727 -0.1231  0.0179  0.5885
  110OSM   H12S11294   5.174   6.824   5.809  2.1341 -0.2098 -0.9946
  110OSM   H12T11295   5.003   6.810   5.745 -0.8343 -1.1913 -1.5959
  110OSM   C13S11296   5.142   6.845   5.597 -0.5013  0.0338  0.2483
  110OSM   H13S11297   5.241   6.808   5.563 -0.8093 -0.2583 -0.3546
  110OSM   H13T11298   5.134   6.955   5.609 -2.8654 -0.1401  0.7573
  110OSM   C14S11299   5.049   6.792   5.484  0.2765  1.0154 -0.4809
  110OSM   H14S11300   4.948   6.826   5.513 -0.0096 -0.2488  0.0885
  110OSM   H14T11301   5.053   6.681   5.497  3.0505  1.1971  0.8726
  110OSM   C15S11302   5.090   6.836   5.344  0.0030 -1.2657 -0.2547
  110OSM   H15S11303   5.195   6.799   5.344  0.3478 -0.3457 -1.3115
  110OSM   H15T11304   5.093   6.947   5.341  2.2169 -1.2802 -0.2911
  110OSM   C16S11305   5.009   6.773   5.228  0.4313 -0.1071 -0.8129
  110OSM   H16S11306   4.902   6.789   5.253  0.2176  2.6743 -2.9749
  110OSM   H16T11307   5.035   6.665   5.225 -1.8103 -0.7208  0.1859
  110OSM   C17S11308   5.050   6.820   5.089 -0.2836 -0.8368  0.6110
  110OSM   H17S11309   5.146   6.782   5.049 -0.6690  0.5713 -1.8387
  110OSM   H17T11310   5.084   6.923   5.112  0.1057 -1.6578  4.4051
  110OSM   C18S11311   4.937   6.806   4.990  0.1874 -0.3985 -0.5817
  110OSM   H18S11312   4.933   6.703   4.947  1.5235  0.1337 -2.0978
  110OSM   H18T11313   4.956   6.872   4.902  1.4836  0.5668  0.3832
  110OSM   H18U11314   4.842   6.837   5.037 -0.5746 -2.1248 -0.8948
  110OSM    C1F11315   5.002   6.300   6.393 -0.2008 -0.5199 -0.2724
  110OSM     OF11316   4.891   6.343   6.426  0.1704 -0.1687 -0.1454
  110OSM    C2F11317   5.024   6.198   6.284  0.0365  0.3544 -0.0110
  110OSM    H2F11318   5.054   6.101   6.329  1.0684 -0.3178 -2.0103
  110OSM    H2G11319   5.116   6.216   6.225  1.1189 -2.1706  0.7871
  110OSM    C3F11320   4.897   6.177   6.192  0.1284  0.2516 -0.3959
  110OSM    H3F11321   4.846   6.272   6.165  0.1160 -0.1797 -1.9396
  110OSM    H3G11322   4.825   6.121   6.256  1.2218 -0.1774  0.4867
  110OSM    C4F11323   4.938   6.105   6.062  0.7848  0.3011  0.1820
  110OSM    H4F11324   4.845   6.066   6.015  0.5202  0.3964  0.6175
  110OSM    H4G11325   5.002   6.018   6.090 -1.0836 -1.1103  0.2788
  110OSM    C5F11326   5.002   6.212   5.970  0.1774  0.2082 -0.0399
  110OSM    H5F11327   5.094   6.259   6.010  0.5619 -0.5579 -0.0182
  110OSM    H5G11328   4.924   6.291   5.965  1.8974  1.9488 -0.4706
  110OSM    C6F11329   5.013   6.155   5.826  0.2716 -0.0727  0.1213
  110OSM    H6F11330   4.937   6.077   5.809 -0.2738 -0.0938  2.3157
  110OSM    H6G11331   5.106   6.097   5.847  0.2575 -0.1534 -0.0374
  110OSM    C7F11332   5.026   6.245   5.705  0.4046  0.3457 -0.5495
  110OSM    H7F11333   5.057   6.344   5.746  0.6769 -0.0334  0.1735
  110OSM    H7G11334   4.925   6.257   5.660  1.1620 -0.5122 -2.6054
  110OSM    C8F11335   5.127   6.201   5.600  0.7910  0.0533  0.3892
  110OSM    H8F11336   5.095   6.105   5.554 -1.0038  1.3564 -1.2379
  110OSM    H8G11337   5.230   6.192   5.639  2.0062 -2.0476 -2.9364
  110OSM    C9F11338   5.142   6.299   5.491  0.6765 -0.1002  0.6830
  110OSM    H9F11339   5.182   6.400   5.509 -3.7686  1.9760  0.1751
  110OSM   C10F11340   5.096   6.286   5.360  0.0464 -0.6506 -0.4192
  110OSM   H10F11341   5.125   6.360   5.285 -1.2268  0.7263  0.3751
  110OSM   C11F11342   5.028   6.161   5.302 -0.8139 -0.2558 -1.0679
  110OSM   H11F11343   4.958   6.199   5.224 -0.1878 -0.2162 -1.6127
  110OSM   H11G11344   4.974   6.121   5.390  2.7029 -0.8684  0.9925
  110OSM   C12F11345   5.110   6.046   5.235 -0.1146  0.7003  0.2775
  110OSM   H12F11346   5.049   5.969   5.183 -1.9576  2.2912 -0.0387
  110OSM   H12G11347   5.164   5.984   5.309 -0.8703  1.5572  1.5959
  110OSM   C13F11348   5.224   6.089   5.140 -0.4317 -0.6731 -0.6384
  110OSM   H13F11349   5.296   6.135   5.211 -3.4152  0.3770  1.9522
  110OSM   H13G11350   5.181   6.169   5.077 -0.9723 -3.2785 -3.8584
  110OSM   C14F11351   5.288   5.980   5.056 -0.1652 -0.2656  0.3226
  110OSM   H14F11352   5.226   5.893   5.026 -1.7947  0.4853  1.3776
  110OSM   H14G11353   5.369   5.938   5.120 -0.4390 -0.5598  0.4810
  110OSM   C15F11354   5.354   6.033   4.929  0.3977  0.0394 -0.6007
  110OSM   H15F11355   5.402   6.132   4.944 -0.0519  0.3065 -0.9127
  110OSM   H15G11356   5.274   6.072   4.863  0.5296  0.5612 -0.4601
  110OSM   C16F11357   5.446   5.944   4.856  0.2052 -0.5157  0.0021
  110OSM   H16F11358   5.508   6.013   4.794  2.2898 -0.9007  1.5391
  110OSM   H16G11359   5.390   5.865   4.802 -0.4194  0.2251 -0.4430
  110OSM   C17F11360   5.559   5.869   4.937  0.9943 -0.8289 -0.3014
  110OSM   H17F11361   5.511   5.796   5.007  0.0408  0.4151  0.3846
  110OSM   H17G11362   5.631   5.935   4.989  0.9217 -1.7716  1.0644
  110OSM   C18F11363   5.663   5.804   4.849  0.1109 -0.0612 -0.1601
  110OSM   H18F11364   5.742   5.758   4.912  0.5453  0.6344 -0.1919
  110OSM   H18G11365   5.706   5.890   4.793 -0.1969  0.5213  0.4825
  110OSM   H18H11366   5.618   5.728   4.781  1.4107 -0.4437 -0.6166
  111OSM      N11367   2.074   5.407   6.694 -0.0258  0.3746  0.1223
  111OSM    C1511368   2.213   5.412   6.741 -0.0244  0.3550  0.2193
  111OSM   H15A11369   2.271   5.339   6.687 -2.7074 -0.0829 -2.3067
  111OSM   H15B11370   2.218   5.400   6.848  0.2950  1.5745  0.3581
  111OSM   H15C11371   2.259   5.509   6.726 -0.8896  0.4092 -2.6278
  111OSM    C1411372   1.993   5.500   6.784  0.4083 -0.5959  0.0706
  111OSM   H14A11373   2.020   5.603   6.764 -2.8919  0.3563 -0.2562
  111OSM   H14B11374   2.007   5.471   6.887  2.7422 -0.9234 -0.2893
  111OSM   H14C11375   1.890   5.487   6.752  0.8865 -1.5734 -1.1124
  111OSM    C1311376   2.069   5.461   6.556  0.2149  0.7963 -0.4814
  111OSM   H13A11377   2.131   5.414   6.482  0.8630 -1.8297  1.5718
  111OSM   H13B11378   2.096   5.565   6.565  1.0899  0.4938  0.5974
  111OSM   H13C11379   1.969   5.470   6.516 -0.9994 -0.5202  2.0120
  111OSM    C1211380   2.023   5.268   6.694  0.3221  0.6628  0.0705
  111OSM   H12A11381   2.035   5.209   6.784  0.2690 -1.0481 -0.9903
  111OSM   H12B11382   2.076   5.217   6.615 -1.1003  1.3810 -1.4018
  111OSM    C1111383   1.873   5.244   6.657  0.1903 -0.5335 -0.3308
  111OSM   H11A11384   1.852   5.135   6.661 -0.8981 -0.4012 -1.6448
  111OSM   H11B11385   1.856   5.284   6.555  0.9088 -0.6220 -0.4901
  111OSM      P11386   1.643   5.326   6.729 -0.3237 -0.6231 -0.5932
  111OSM    O1311387   1.593   5.192   6.774  0.4242  0.0974  0.0952
  111OSM    O1411388   1.592   5.443   6.802 -0.1448  0.3406 -0.3747
  111OSM    O1111389   1.635   5.344   6.570  0.3483 -0.1703  0.2849
  111OSM    O1211390   1.796   5.325   6.748  0.1081  0.6233  0.7634
  111OSM    C1S11391   1.632   5.472   6.506 -1.0540  0.4511 -0.7301
  111OSM    H1S11392   1.724   5.530   6.526 -1.4595  0.4825  1.1980
  111OSM    H1T11393   1.551   5.533   6.552 -0.6668 -1.2629  2.4637
  111OSM     NF11394   1.632   5.598   6.282  0.2741 -0.7664 -0.6113
  111OSM    HNF11395   1.555   5.651   6.247 -1.0814 -0.5761  2.4274
  111OSM    C2S11396   1.599   5.467   6.350  0.3577 -0.1476 -0.2858
  111OSM    H2S11397   1.668   5.391   6.309 -0.7634 -1.0924 -0.4591
  111OSM    C3S11398   1.451   5.416   6.329  0.7068 -0.8476  0.9178
  111OSM    H3S11399   1.383   5.502   6.345 -1.2869 -1.1280 -4.1684
  111OSM     O311400   1.397   5.322   6.418 -0.2159 -0.5318 -0.0189
  111OSM    HO311401   1.469   5.318   6.481  0.7403  0.3408 -1.0228
  111OSM    C4S11402   1.415   5.389   6.186 -0.4328 -0.5679 -0.9743
  111OSM    H4S11403   1.347   5.459   6.137  0.1669 -1.1739 -2.7583
  111OSM    C5S11404   1.440   5.272   6.135  0.6679 -0.2713 -0.2191
  111OSM    H5S11405   1.468   5.194   6.208 -2.4192  0.4864  1.9543
  111OSM    C6S11406   1.394   5.208   6.008 -0.0232  0.2654 -0.0883
  111OSM    H6S11407   1.305   5.143   6.015 -0.8687  1.2734 -1.0346
  111OSM    H6T11408   1.475   5.141   5.972 -1.4816 -1.8450  0.3473
  111OSM    C7S11409   1.361   5.314   5.900  0.2608 -0.6928  0.0899
  111OSM    H7S11410   1.456   5.369   5.885 -0.7005  0.6930 -1.1832
  111OSM    H7T11411   1.272   5.375   5.925  0.9285 -0.2883  1.5768
  111OSM    C8S11412   1.351   5.249   5.757 -0.0067 -0.4129  0.1130
  111OSM    H8S11413   1.268   5.176   5.766 -1.3442  0.9463 -0.8473
  111OSM    H8T11414   1.447   5.198   5.733  1.0841  0.5924  2.0516
  111OSM    C9S11415   1.329   5.350   5.648 -0.2510  0.8134 -0.3696
  111OSM    H9S11416   1.401   5.432   5.669  0.7158 -0.4322  1.3823
  111OSM    H9T11417   1.224   5.387   5.647  0.2554  2.3228 -0.7829
  111OSM   C10S11418   1.354   5.290   5.505  0.1008 -0.3316 -0.0667
  111OSM   H10S11419   1.279   5.210   5.487  2.7938 -2.4987 -2.5546
  111OSM   H10T11420   1.457   5.250   5.505  0.7025  1.1002  1.0290
  111OSM   C11S11421   1.333   5.391   5.393  0.1190 -0.5055 -0.0289
  111OSM   H11S11422   1.417   5.463   5.405 -0.5131  0.0902  0.9289
  111OSM   H11T11423   1.230   5.432   5.402  1.8915  4.6167  0.0559
  111OSM   C12S11424   1.352   5.327   5.261 -0.3004 -0.0089 -0.3203
  111OSM   H12S11425   1.268   5.261   5.229 -0.2665 -0.1261 -0.1682
  111OSM   H12T11426   1.444   5.266   5.271  1.0598  2.2367  2.0662
  111OSM   C13S11427   1.379   5.427   5.144 -0.3926 -0.2989 -0.9769
  111OSM   H13S11428   1.445   5.387   5.065  1.0822 -0.3235  0.2209
  111OSM   H13T11429   1.436   5.517   5.177 -0.9426 -0.1578 -0.3850
  111OSM   C14S11430   1.244   5.480   5.092 -0.2863  0.5388  0.5520
  111OSM   H14S11431   1.202   5.530   5.182  0.1021  1.4741  0.2259
  111OSM   H14T11432   1.179   5.391   5.079  1.7835 -1.0953  0.8386
  111OSM   C15S11433   1.251   5.572   4.970 -0.0324 -1.2566  0.5627
  111OSM   H15S11434   1.329   5.648   4.992 -0.0721 -1.0366 -0.0469
  111OSM   H15T11435   1.160   5.634   4.962  2.3123  2.2633 -2.4952
  111OSM   C16S11436   1.280   5.519   4.831  0.4263 -0.0150  0.4561
  111OSM   H16S11437   1.190   5.463   4.798 -0.2163  0.5490  1.1929
  111OSM   H16T11438   1.375   5.462   4.830  0.7341  0.4264  1.7567
  111OSM   C17S11439   1.286   5.636   4.728 -0.5025 -0.3810  0.2050
  111OSM   H17S11440   1.389   5.679   4.735 -1.3261  1.4355  2.3168
  111OSM   H17T11441   1.217   5.720   4.750  1.0353  1.8455 -2.6610
  111OSM   C18S11442   1.256   5.597   4.584  0.9564  0.0302  0.4266
  111OSM   H18S11443   1.275   5.675   4.507 -0.5155  0.4552  0.4653
  111OSM   H18T11444   1.149   5.568   4.580  0.9424  0.1467 -0.1991
  111OSM   H18U11445   1.310   5.504   4.554  0.8081  0.1914 -0.3506
  111OSM    C1F11446   1.760   5.630   6.286  0.6625  0.2127 -0.4063
  111OSM     OF11447   1.846   5.542   6.290  0.0470 -0.5093 -0.1664
  111OSM    C2F11448   1.794   5.772   6.261 -0.4240  0.2177  0.7250
  111OSM    H2F11449   1.754   5.826   6.349 -4.0033 -0.9194 -0.0538
  111OSM    H2G11450   1.733   5.800   6.172  2.8126  0.4461 -1.5980
  111OSM    C3F11451   1.944   5.793   6.215  0.5935 -1.0933 -0.0091
  111OSM    H3F11452   1.976   5.714   6.143  1.2615 -0.0956 -0.8313
  111OSM    H3G11453   2.005   5.782   6.307  1.1884  1.2660 -0.0602
  111OSM    C4F11454   1.966   5.935   6.156 -0.2616  0.2453 -0.6351
  111OSM    H4F11455   2.069   5.929   6.117  0.2338  0.9191  0.5060
  111OSM    H4G11456   1.967   6.003   6.245  1.8152 -1.3394  0.6363
  111OSM    C5F11457   1.871   5.986   6.044  0.2862  0.0726 -0.2231
  111OSM    H5F11458   1.906   6.089   6.020  0.4784  0.0840  0.1049
  111OSM    H5G11459   1.764   5.992   6.074  0.1972 -0.2496 -0.4823
  111OSM    C6F11460   1.892   5.902   5.911 -0.1644  0.0156 -0.3571
  111OSM    H6F11461   1.817   5.820   5.912  1.0361 -1.1230  1.8465
  111OSM    H6G11462   1.988   5.847   5.917 -0.1645  0.1299  1.2623
  111OSM    C7F11463   1.886   5.990   5.783  0.6473 -0.2829 -0.5244
  111OSM    H7F11464   1.975   6.055   5.770 -0.2672  1.3648  0.9621
  111OSM    H7G11465   1.791   6.048   5.773  0.0954 -1.3519 -1.9586
  111OSM    C8F11466   1.872   5.897   5.657 -0.5376 -0.7908  0.8357
  111OSM    H8F11467   1.818   5.955   5.579  2.6121 -0.1928 -1.1018
  111OSM    H8G11468   1.828   5.799   5.684  0.2057 -1.3989 -0.0944
  111OSM    C9F11469   2.018   5.875   5.613 -0.6545  1.0742 -0.0651
  111OSM    H9F11470   2.085   5.851   5.697 -1.6972 -1.7390  0.0741
  111OSM   C10F11471   2.068   5.898   5.487 -0.0538  0.5709  0.7286
  111OSM   H10F11472   2.175   5.881   5.473 -0.0479 -0.9037  2.2731
  111OSM   C11F11473   1.987   5.944   5.370  0.0808  0.5423  0.2032
  111OSM   H11F11474   1.960   6.051   5.381 -0.0276  0.8585 -2.3702
  111OSM   H11G11475   1.890   5.890   5.367  0.7494 -0.7444  0.8718
  111OSM   C12F11476   2.054   5.924   5.230 -0.3572 -0.5406 -0.4388
  111OSM   H12F11477   2.064   5.815   5.215  0.8381 -0.4471 -0.4585
  111OSM   H12G11478   2.157   5.967   5.227  0.3602 -2.1036  0.7126
  111OSM   C13F11479   1.969   5.989   5.126 -0.1966  0.1873 -0.2298
  111OSM   H13F11480   1.969   6.100   5.121  0.5412  0.2037 -0.0145
  111OSM   H13G11481   1.862   5.965   5.139 -0.4637 -0.2717 -2.7588
  111OSM   C14F11482   2.003   5.943   4.983 -0.0652  0.3754 -0.1784
  111OSM   H14F11483   1.912   5.970   4.926 -1.8171 -0.3504  2.1429
  111OSM   H14G11484   2.012   5.833   4.980 -0.7494  0.3314 -1.4763
  111OSM   C15F11485   2.134   6.004   4.927  0.5580  0.0733 -0.2267
  111OSM   H15F11486   2.210   5.971   5.001  0.3200  0.4274  0.1810
  111OSM   H15G11487   2.129   6.115   4.923 -0.8828 -0.0049 -1.3085
  111OSM   C16F11488   2.179   5.946   4.792 -0.6092 -0.2050  0.5257
  111OSM   H16F11489   2.085   5.916   4.739  0.4256 -1.9357 -0.4047
  111OSM   H16G11490   2.234   5.851   4.810  1.3884  0.8875  0.4714
  111OSM   C17F11491   2.269   6.020   4.698 -0.7540  0.7282  0.6152
  111OSM   H17F11492   2.304   5.950   4.619  0.3558 -0.5825  2.1769
  111OSM   H17G11493   2.356   6.043   4.764  2.4401 -2.0818 -2.2167
  111OSM   C18F11494   2.212   6.146   4.643 -0.3643  0.1402  0.4152
  111OSM   H18F11495   2.294   6.214   4.611 -0.2924 -1.3034 -2.9214
  111OSM   H18G11496   2.142   6.183   4.721 -1.7928 -1.9876  0.2164
  111OSM   H18H11497   2.148   6.131   4.553 -0.9136 -0.9747  0.9719
  112OSM      N11498   3.885   2.521   6.813  0.0278  0.3042 -1.0949
  112OSM    C1511499   3.891   2.458   6.677  0.4094  0.1811  0.2344
  112OSM   H15A11500   3.961   2.510   6.612 -1.2640  1.2268 -0.8143
  112OSM   H15B11501   3.792   2.467   6.636  0.6221 -0.9898 -0.5910
  112OSM   H15C11502   3.914   2.353   6.678 -0.5056 -0.0228  1.0173
  112OSM    C1411503   4.016   2.489   6.876 -0.6241  0.9895  0.0006
  112OSM   H14A11504   4.037   2.543   6.967  1.1889 -1.2258  1.0083
  112OSM   H14B11505   4.094   2.512   6.805 -0.7493  0.3198 -0.3646
  112OSM   H14C11506   4.026   2.383   6.892 -0.4538  0.4184 -3.2387
  112OSM    C1311507   3.878   2.671   6.804 -0.1815  0.0195  0.4212
  112OSM   H13A11508   3.865   2.714   6.902 -1.6850 -1.9558  1.1609
  112OSM   H13B11509   3.802   2.695   6.731 -0.5485 -0.6573  0.5733
  112OSM   H13C11510   3.967   2.705   6.754  0.5681  1.7224  2.7211
  112OSM    C1211511   3.771   2.469   6.889  0.0743  0.1042  0.6915
  112OSM   H12A11512   3.777   2.511   6.988  1.4627 -0.9585  1.0938
  112OSM   H12B11513   3.793   2.365   6.909  0.8980  0.2915  0.7892
  112OSM    C1111514   3.628   2.494   6.838 -0.7127  0.1421 -0.2864
  112OSM   H11A11515   3.608   2.603   6.839 -0.4194  0.2761  3.6211
  112OSM   H11B11516   3.559   2.448   6.912  2.4033  0.3583  2.9766
  112OSM      P11517   3.469   2.465   6.631 -0.2490  0.4875  0.2969
  112OSM    O1311518   3.472   2.396   6.504 -0.5412  0.4589 -0.3071
  112OSM    O1411519   3.361   2.441   6.727 -0.1113  0.0172  0.6344
  112OSM    O1111520   3.478   2.621   6.597 -0.7318  0.8425 -0.1165
  112OSM    O1211521   3.610   2.437   6.708  0.0328 -0.3011  0.4047
  112OSM    C1S11522   3.571   2.674   6.509 -0.1092  0.4276  0.2665
  112OSM    H1S11523   3.672   2.635   6.536 -0.5333 -0.1397  1.0606
  112OSM    H1T11524   3.580   2.782   6.531  1.9668 -0.2008  3.0965
  112OSM     NF11525   3.652   2.680   6.275 -0.3322  0.0994 -0.0067
  112OSM    HNF11526   3.636   2.748   6.203 -1.7129  0.1605  0.3246
  112OSM    C2S11527   3.536   2.653   6.357 -0.1462 -0.0138  0.1733
  112OSM    H2S11528   3.495   2.550   6.346 -2.2684  0.7342  0.5336
  112OSM    C3S11529   3.410   2.747   6.326 -0.0593  0.2691 -0.1391
  112OSM    H3S11530   3.457   2.845   6.343  2.1172 -0.7530  0.0550
  112OSM     O311531   3.304   2.724   6.422  0.3831  0.0209 -0.3295
  112OSM    HO311532   3.331   2.659   6.488 -2.1996 -0.9303 -0.0743
  112OSM    C4S11533   3.359   2.740   6.189 -0.2323  0.5986 -0.1412
  112OSM    H4S11534   3.291   2.656   6.168 -0.1253 -0.0389  1.8394
  112OSM    C5S11535   3.383   2.824   6.086  0.0343  0.2687 -0.3732
  112OSM    H5S11536   3.443   2.914   6.102 -0.7715  0.5403  1.4137
  112OSM    C6S11537   3.307   2.813   5.950  0.2787  0.4510  0.1290
  112OSM    H6S11538   3.221   2.882   5.940  0.6544  0.6284 -2.8520
  112OSM    H6T11539   3.263   2.711   5.946  3.1387 -0.8914  0.1080
  112OSM    C7S11540   3.400   2.845   5.829  0.2014 -0.2187  0.6826
  112OSM    H7S11541   3.458   2.935   5.858  1.9728 -0.8431 -0.6878
  112OSM    H7T11542   3.348   2.883   5.738  1.6570 -1.8999 -0.9598
  112OSM    C8S11543   3.506   2.747   5.784  0.6820  0.2384 -0.7538
  112OSM    H8S11544   3.460   2.670   5.719 -0.3233  1.3364 -1.3944
  112OSM    H8T11545   3.549   2.694   5.872  2.2636  0.3539 -1.4421
  112OSM    C9S11546   3.624   2.822   5.714 -0.6096 -0.2217  0.5259
  112OSM    H9S11547   3.705   2.748   5.702 -1.3664 -1.0304  0.2848
  112OSM    H9T11548   3.668   2.886   5.793  1.7116 -0.0550 -0.8255
  112OSM   C10S11549   3.610   2.911   5.589 -0.4637  0.2429 -0.0087
  112OSM   H10S11550   3.712   2.943   5.559  0.6777 -1.2137  2.0495
  112OSM   H10T11551   3.558   3.007   5.606  0.6298  0.7344  0.6560
  112OSM   C11S11552   3.544   2.822   5.474 -0.0453  0.1225  0.4514
  112OSM   H11S11553   3.440   2.791   5.498  0.4013 -2.4572 -0.5859
  112OSM   H11T11554   3.605   2.729   5.472 -1.1101 -0.7580  3.4641
  112OSM   C12S11555   3.545   2.891   5.340  0.7689  0.4734 -0.1227
  112OSM   H12S11556   3.637   2.950   5.319  0.5811  0.9293  0.3236
  112OSM   H12T11557   3.465   2.965   5.319  0.8087 -0.2246 -3.2301
  112OSM   C13S11558   3.527   2.788   5.224  0.7634  0.1786  0.1506
  112OSM   H13S11559   3.427   2.741   5.224 -0.4516  2.6250  0.0392
  112OSM   H13T11560   3.599   2.704   5.241 -0.3785 -0.4166  2.5277
  112OSM   C14S11561   3.567   2.855   5.094 -0.3735  0.2078  0.3906
  112OSM   H14S11562   3.660   2.915   5.108 -0.1273 -0.6317  2.9196
  112OSM   H14T11563   3.505   2.940   5.058  1.0076  0.9623 -0.3038
  112OSM   C15S11564   3.577   2.760   4.976 -0.3848  0.0116 -0.0667
  112OSM   H15S11565   3.491   2.689   4.980  0.4296 -0.9782  0.4663
  112OSM   H15T11566   3.663   2.692   4.997  0.5623  0.6505 -1.7366
  112OSM   C16S11567   3.609   2.835   4.845  0.0647  0.0467  0.0912
  112OSM   H16S11568   3.713   2.874   4.852 -0.0134  0.2588  0.0604
  112OSM   H16T11569   3.539   2.920   4.826 -0.9568 -1.0961 -1.6416
  112OSM   C17S11570   3.616   2.738   4.732  0.6995  0.3823 -0.1912
  112OSM   H17S11571   3.598   2.787   4.634 -0.3705  0.2963 -0.0496
  112OSM   H17T11572   3.519   2.684   4.733  1.2002 -0.5581 -0.9645
  112OSM   C18S11573   3.717   2.626   4.732 -0.0539  0.5480 -0.4548
  112OSM   H18S11574   3.817   2.671   4.748  0.0890 -0.4077  1.6490
  112OSM   H18T11575   3.707   2.565   4.639  2.3400 -0.2846 -0.2419
  112OSM   H18U11576   3.699   2.567   4.824  1.2173 -0.2532 -0.6937
  112OSM    C1F11577   3.761   2.599   6.268  0.4503 -1.0996  0.8469
  112OSM     OF11578   3.779   2.524   6.360  0.0997  0.2858 -0.3039
  112OSM    C2F11579   3.842   2.603   6.138 -0.4905  0.8630  0.4950
  112OSM    H2F11580   3.937   2.661   6.141  0.5603 -0.6398 -1.2368
  112OSM    H2G11581   3.787   2.647   6.052  0.4435  1.7677  0.3306
  112OSM    C3F11582   3.873   2.463   6.086  0.4259  0.3253  0.9113
  112OSM    H3F11583   3.790   2.389   6.075 -1.0119  2.0800 -0.5705
  112OSM    H3G11584   3.938   2.420   6.165 -0.2450  1.5714  2.1862
  112OSM    C4F11585   3.943   2.454   5.956 -0.0643 -0.0384  0.1976
  112OSM    H4F11586   3.971   2.347   5.942  2.2383  0.3548  1.3841
  112OSM    H4G11587   4.039   2.509   5.963 -0.3038  0.3843  0.1888
  112OSM    C5F11588   3.872   2.507   5.836  0.5882  0.2571 -0.2148
  112OSM    H5F11589   3.873   2.617   5.845 -2.6439  0.2845  1.2627
  112OSM    H5G11590   3.762   2.490   5.837  0.8338 -1.5991  0.3655
  112OSM    C6F11591   3.934   2.456   5.704 -0.1853 -0.6675  0.0690
  112OSM    H6F11592   3.923   2.345   5.698  0.0928 -0.7449  0.7994
  112OSM    H6G11593   4.041   2.488   5.697 -1.3039  3.6924  0.2534
  112OSM    C7F11594   3.850   2.500   5.577 -0.1042  0.5764 -0.5949
  112OSM    H7F11595   3.858   2.609   5.557  1.0499  0.6505  0.2065
  112OSM    H7G11596   3.746   2.477   5.609  0.3155  0.9842  1.1752
  112OSM    C8F11597   3.903   2.435   5.446 -0.0086 -0.3205 -0.3373
  112OSM    H8F11598   3.895   2.324   5.452  1.2511 -0.4326 -0.4932
  112OSM    H8G11599   4.011   2.459   5.439  0.4254 -1.0357  2.4403
  112OSM    C9F11600   3.824   2.484   5.331 -0.0146  0.1683 -0.2778
  112OSM    H9F11601   3.716   2.479   5.350  0.2607  1.3454  1.8642
  112OSM   C10F11602   3.858   2.545   5.220  0.3923 -0.2188  0.5267
  112OSM   H10F11603   3.777   2.578   5.154 -0.5040  0.8327  2.0982
  112OSM   C11F11604   4.002   2.576   5.186 -0.0436  0.2660 -0.8496
  112OSM   H11F11605   4.049   2.498   5.124 -1.3661 -0.9668 -0.3581
  112OSM   H11G11606   4.068   2.581   5.275  1.1234 -0.0421 -1.6925
  112OSM   C12F11607   4.023   2.719   5.121  0.0281  0.4656 -0.3703
  112OSM   H12F11608   3.961   2.706   5.030 -1.0361  0.3722  0.3467
  112OSM   H12G11609   4.129   2.737   5.095 -0.1548  1.6386 -0.3438
  112OSM   C13F11610   3.982   2.834   5.208 -0.1422  0.0261  0.2960
  112OSM   H13F11611   4.054   2.853   5.290 -2.7817  6.2401  1.7419
  112OSM   H13G11612   3.890   2.800   5.260 -0.4750  0.3531 -0.0683
  112OSM   C14F11613   3.951   2.968   5.142 -0.5771  0.5092 -0.0273
  112OSM   H14F11614   3.925   3.052   5.210  2.4865  0.1027  1.8000
  112OSM   H14G11615   3.867   2.958   5.070 -1.5895 -0.2149  1.2202
  112OSM   C15F11616   4.071   3.020   5.054  0.1251  0.1574 -0.2841
  112OSM   H15F11617   4.011   3.081   4.983  0.1454  2.2073  1.3528
  112OSM   H15G11618   4.121   2.939   4.996 -0.3186  0.8602 -1.7069
  112OSM   C16F11619   4.177   3.107   5.122 -0.3664 -0.0611  0.6311
  112OSM   H16F11620   4.256   3.043   5.167 -1.0192 -0.6641  0.9424
  112OSM   H16G11621   4.133   3.186   5.186 -1.1652 -0.3820  0.4893
  112OSM   C17F11622   4.240   3.187   5.002 -0.1949 -0.8923  0.5951
  112OSM   H17F11623   4.167   3.257   4.956  1.3798 -0.5856 -1.5968
  112OSM   H17G11624   4.284   3.119   4.926  0.6737  0.7382 -0.4259
  112OSM   C18F11625   4.361   3.272   5.041 -0.3144 -0.0251  0.6165
  112OSM   H18F11626   4.440   3.197   5.062 -1.5494 -1.4995  0.2660
  112OSM   H18G11627   4.344   3.329   5.134 -1.1066 -0.6112  0.8449
  112OSM   H18H11628   4.393   3.340   4.959 -1.8320 -0.1238 -0.0870
  113OSM      N11629   1.988   2.166   6.911 -0.5931 -0.9507 -0.1930
  113OSM    C1511630   2.056   2.183   7.050  0.2867 -0.1093  0.2903
  113OSM   H15A11631   2.162   2.164   7.049  0.0277 -1.7984  1.0674
  113OSM   H15B11632   2.009   2.104   7.108 -1.3981 -0.4712 -1.4654
  113OSM   H15C11633   2.036   2.282   7.088  1.2764  0.6388 -1.0578
  113OSM    C1411634   1.990   2.014   6.877 -0.0147 -0.4284  0.6777
  113OSM   H14A11635   1.950   2.004   6.778  0.5801  4.0835 -0.2281
  113OSM   H14B11636   1.939   1.958   6.955  3.4093 -1.0172  2.7153
  113OSM   H14C11637   2.091   1.977   6.872 -0.1193 -0.9435  1.9703
  113OSM    C1311638   1.849   2.203   6.921  0.7517 -0.2749 -0.0928
  113OSM   H13A11639   1.817   2.185   7.023 -0.9893 -1.3590 -0.7748
  113OSM   H13B11640   1.781   2.138   6.867  2.6439 -1.6582 -0.9133
  113OSM   H13C11641   1.832   2.307   6.898  0.2687 -0.5498 -1.0523
  113OSM    C1211642   2.067   2.245   6.811  0.5272 -1.1782  0.2128
  113OSM   H12A11643   2.038   2.222   6.710 -0.3316 -0.2508  0.2253
  113OSM   H12B11644   2.174   2.234   6.815  0.8594  1.3157  0.1197
  113OSM    C1111645   2.046   2.398   6.818 -0.6614  0.2421  0.5428
  113OSM   H11A11646   2.126   2.448   6.759  1.6433 -0.6277  2.7525
  113OSM   H11B11647   2.038   2.423   6.926  2.4050  0.5919  0.7942
  113OSM      P11648   1.849   2.561   6.794  0.8297  0.1567 -0.3213
  113OSM    O1311649   1.770   2.520   6.909 -0.0048  0.6264 -0.7124
  113OSM    O1411650   1.944   2.670   6.812  0.2344 -0.0507 -0.8842
  113OSM    O1111651   1.753   2.602   6.669 -0.2126 -0.0333 -0.4083
  113OSM    O1211652   1.922   2.425   6.748  0.0621 -0.0808 -0.5112
  113OSM    C1S11653   1.789   2.598   6.529  1.1234  0.5588  0.4395
  113OSM    H1S11654   1.816   2.492   6.508 -0.8166  0.1194  0.0045
  113OSM    H1T11655   1.885   2.652   6.514  0.7772  0.7914 -1.0643
  113OSM     NF11656   1.677   2.619   6.308  0.9031 -0.1050 -0.1363
  113OSM    HNF11657   1.710   2.688   6.244 -0.7717  0.9218  0.0678
  113OSM    C2S11658   1.673   2.658   6.455  0.3632 -0.1193  0.4492
  113OSM    H2S11659   1.576   2.621   6.495  0.0383  1.2045  0.9354
  113OSM    C3S11660   1.674   2.819   6.478 -0.5797  0.6434  0.2539
  113OSM    H3S11661   1.777   2.845   6.447 -0.2820  1.1308  1.6064
  113OSM     O311662   1.675   2.864   6.610  0.0226 -0.4911  0.2491
  113OSM    HO311663   1.689   2.786   6.664 -0.8890 -2.3049 -1.9924
  113OSM    C4S11664   1.567   2.889   6.397 -0.3519 -0.1029 -0.0721
  113OSM    H4S11665   1.612   2.927   6.304 -1.1695  0.7081 -0.1508
  113OSM    C5S11666   1.441   2.903   6.433 -0.1861 -0.4888 -1.1760
  113OSM    H5S11667   1.401   2.848   6.520 -1.4429  1.1877 -0.6388
  113OSM    C6S11668   1.348   2.982   6.349  0.6181  0.5534 -0.4637
  113OSM    H6S11669   1.296   3.064   6.403 -1.8909 -2.3026  1.7227
  113OSM    H6T11670   1.263   2.915   6.323  1.1794  0.4310 -2.1161
  113OSM    C7S11671   1.396   3.047   6.213  0.4896  0.2100  0.1235
  113OSM    H7S11672   1.446   2.968   6.153 -2.5605 -0.9304 -1.1077
  113OSM    H7T11673   1.464   3.129   6.242  0.3240  0.3917  0.0012
  113OSM    C8S11674   1.289   3.118   6.134  0.2215  0.3903  1.1280
  113OSM    H8S11675   1.232   3.191   6.196 -0.0940 -0.5474  1.9517
  113OSM    H8T11676   1.207   3.058   6.089  0.3841  0.0983  1.2160
  113OSM    C9S11677   1.360   3.187   6.010  0.1353  0.6108 -0.2197
  113OSM    H9S11678   1.408   3.108   5.949  0.1820 -1.1416  1.9475
  113OSM    H9T11679   1.435   3.265   6.035  1.0245 -0.7449  1.5264
  113OSM   C10S11680   1.252   3.252   5.926  0.6862  0.4121  0.2153
  113OSM   H10S11681   1.227   3.340   5.990  3.0815  0.8824  0.6308
  113OSM   H10T11682   1.160   3.190   5.928  0.8430  0.0634 -1.8020
  113OSM   C11S11683   1.312   3.289   5.796  0.2149  0.3741 -0.3866
  113OSM   H11S11684   1.327   3.199   5.733  0.5202 -0.8207  1.3014
  113OSM   H11T11685   1.404   3.347   5.818 -0.1688  0.9144 -0.2094
  113OSM   C12S11686   1.237   3.399   5.722  0.9869 -0.5129  0.0977
  113OSM   H12S11687   1.258   3.499   5.767 -0.0932 -0.3022  0.1508
  113OSM   H12T11688   1.128   3.381   5.723  0.6211  1.4700  0.4826
  113OSM   C13S11689   1.279   3.407   5.573 -0.1009  0.1929  0.5225
  113OSM   H13S11690   1.390   3.412   5.563  0.1148 -1.6665  1.5482
  113OSM   H13T11691   1.249   3.506   5.533  0.5489  1.5395  3.1425
  113OSM   C14S11692   1.231   3.297   5.474  0.5196 -0.0395 -0.0289
  113OSM   H14S11693   1.122   3.280   5.487  0.5113 -0.6038 -0.7518
  113OSM   H14T11694   1.285   3.205   5.507 -0.4842 -1.1913 -1.4674
  113OSM   C15S11695   1.263   3.334   5.327  0.3902 -0.1899 -0.4179
  113OSM   H15S11696   1.370   3.364   5.320  0.2945  0.5927  0.9844
  113OSM   H15T11697   1.206   3.427   5.306  0.7019  0.0606 -0.1742
  113OSM   C16S11698   1.245   3.221   5.223  0.2873  0.1946  0.0665
  113OSM   H16S11699   1.143   3.178   5.220  0.5214 -0.4003  0.4431
  113OSM   H16T11700   1.306   3.130   5.243 -3.1359 -2.1107  0.7571
  113OSM   C17S11701   1.264   3.253   5.074  0.5561 -0.0596  0.8320
  113OSM   H17S11702   1.314   3.352   5.084 -1.3362  1.0067  0.3262
  113OSM   H17T11703   1.166   3.279   5.027  1.0780  2.2343  0.9205
  113OSM   C18S11704   1.345   3.161   4.989  0.0985  0.0510  0.5084
  113OSM   H18S11705   1.435   3.135   5.050  0.2232 -0.7909 -0.0160
  113OSM   H18T11706   1.397   3.206   4.902  0.3835 -0.3084  0.4885
  113OSM   H18U11707   1.302   3.067   4.948  2.4884 -0.6658 -0.5024
  113OSM    C1F11708   1.627   2.496   6.267 -0.3387 -0.6522 -0.2438
  113OSM     OF11709   1.591   2.414   6.351  0.0314 -0.0633  0.9996
  113OSM    C2F11710   1.623   2.466   6.114  0.6533 -0.2839 -0.4638
  113OSM    H2F11711   1.727   2.482   6.079 -0.2693 -0.1661 -3.4229
  113OSM    H2G11712   1.549   2.537   6.070 -0.4334 -0.1572  1.4311
  113OSM    C3F11713   1.578   2.324   6.082  0.3586  0.0005 -0.0185
  113OSM    H3F11714   1.473   2.298   6.108  0.1175 -0.0730 -1.0103
  113OSM    H3G11715   1.648   2.250   6.127  0.4525 -0.1739 -0.4503
  113OSM    C4F11716   1.584   2.290   5.929 -0.1985 -0.3441  0.4195
  113OSM    H4F11717   1.545   2.192   5.893 -1.5080  0.4728 -0.4658
  113OSM    H4G11718   1.691   2.296   5.901 -0.8617 -1.9307 -3.0294
  113OSM    C5F11719   1.521   2.402   5.841 -0.0299 -0.7948 -0.0378
  113OSM    H5F11720   1.598   2.482   5.833  1.1762 -2.0263 -1.5535
  113OSM    H5G11721   1.426   2.437   5.887 -0.0543 -0.6584 -0.1902
  113OSM    C6F11722   1.497   2.348   5.701  0.0056  0.2630  0.4588
  113OSM    H6F11723   1.407   2.284   5.687  0.6182 -0.3811 -0.6828
  113OSM    H6G11724   1.585   2.289   5.667  0.4085  1.2227 -0.1930
  113OSM    C7F11725   1.472   2.442   5.586  1.0411  0.1824  0.2548
  113OSM    H7F11726   1.550   2.520   5.582 -0.7524  2.0532  0.1328
  113OSM    H7G11727   1.380   2.500   5.610  2.9153  3.7037 -0.5411
  113OSM    C8F11728   1.459   2.371   5.452 -0.4890  0.4315  0.0541
  113OSM    H8F11729   1.388   2.432   5.393 -0.9518  0.2439  0.4039
  113OSM    H8G11730   1.397   2.279   5.464 -0.7622  0.4798 -0.9390
  113OSM    C9F11731   1.594   2.332   5.389  0.8371 -0.5037  0.0316
  113OSM    H9F11732   1.687   2.329   5.447  0.1336 -0.5442  1.1988
  113OSM   C10F11733   1.597   2.292   5.262 -0.0311 -1.1438 -0.2868
  113OSM   H10F11734   1.701   2.284   5.228 -0.2272 -0.9333 -0.9529
  113OSM   C11F11735   1.480   2.281   5.177  0.0363  0.1429  0.1286
  113OSM   H11F11736   1.391   2.248   5.235 -0.1740 -2.2989 -1.4732
  113OSM   H11G11737   1.502   2.199   5.107 -2.0849  0.5239 -1.0500
  113OSM   C12F11738   1.439   2.401   5.089  0.2317 -0.0805 -0.4521
  113OSM   H12F11739   1.420   2.497   5.143  1.6735 -1.2633  2.3630
  113OSM   H12G11740   1.336   2.381   5.054 -0.6944  0.8788  1.5058
  113OSM   C13F11741   1.522   2.441   4.964 -0.1267 -0.3320  0.5177
  113OSM   H13F11742   1.622   2.467   5.003 -0.3265  3.0570 -0.9326
  113OSM   H13G11743   1.473   2.530   4.919  0.2522  0.3079  1.3529
  113OSM   C14F11744   1.532   2.323   4.868  0.4080 -0.0794 -0.4509
  113OSM   H14F11745   1.428   2.283   4.863  0.6993 -0.8007 -0.9022
  113OSM   H14G11746   1.607   2.249   4.903  1.7798  1.4969  0.0932
  113OSM   C15F11747   1.574   2.369   4.731 -0.1412 -0.1656  0.2244
  113OSM   H15F11748   1.674   2.415   4.747 -0.9309  1.4835  0.5529
  113OSM   H15G11749   1.521   2.459   4.693  1.3523  0.4214 -0.5811
  113OSM   C16F11750   1.576   2.251   4.626  0.5744 -0.5274 -0.2301
  113OSM   H16F11751   1.479   2.198   4.623  0.7134 -0.7656 -0.6800
  113OSM   H16G11752   1.645   2.177   4.672  0.6626 -0.2012  0.1614
  113OSM   C17F11753   1.618   2.288   4.486 -0.1085  0.1167 -0.0105
  113OSM   H17F11754   1.652   2.200   4.427  2.0303  0.2105  0.9726
  113OSM   H17G11755   1.709   2.352   4.487 -0.6390  0.8816 -0.0306
  113OSM   C18F11756   1.501   2.353   4.408 -0.2217 -0.0388 -0.2775
  113OSM   H18F11757   1.509   2.327   4.300  1.1085 -1.1130  0.0473
  113OSM   H18G11758   1.506   2.460   4.440 -2.3141 -0.6809  2.5721
  113OSM   H18H11759   1.397   2.325   4.433 -1.0397  2.3780 -0.6797
  114OSM      N11760   4.609   2.483   6.939  0.7235 -0.3927 -0.2183
  114OSM    C1511761   4.733   2.437   7.012 -0.0965  0.0179  0.1269
  114OSM   H15A11762   4.825   2.477   6.972  0.9778 -1.9301  0.5625
  114OSM   H15B11763   4.746   2.331   6.996  0.5698  0.2402 -0.9316
  114OSM   H15C11764   4.725   2.461   7.117 -0.5213  1.1297 -0.1417
  114OSM    C1411765   4.481   2.421   6.993 -0.5957  0.3900  0.3877
  114OSM   H14A11766   4.473   2.460   7.093  0.9068 -2.4466  1.6899
  114OSM   H14B11767   4.490   2.314   7.002 -1.9142 -0.1757 -3.2628
  114OSM   H14C11768   4.394   2.448   6.934 -0.7270 -2.4844 -0.9008
  114OSM    C1311769   4.606   2.629   6.970 -0.7116 -0.3854  0.3005
  114OSM   H13A11770   4.606   2.637   7.078  1.1689 -1.0584  0.3888
  114OSM   H13B11771   4.523   2.677   6.920 -0.8528 -0.7307  0.2033
  114OSM   H13C11772   4.697   2.676   6.935  0.1573 -2.1354  0.0991
  114OSM    C1211773   4.628   2.447   6.783 -0.0407 -0.3182 -0.2145
  114OSM   H12A11774   4.707   2.510   6.747  1.0397 -1.4749  0.0705
  114OSM   H12B11775   4.544   2.489   6.729  1.4099  1.5199 -1.1385
  114OSM    C1111776   4.650   2.303   6.749  0.5234  0.3090 -0.0601
  114OSM   H11A11777   4.632   2.281   6.642 -1.4473  2.6887 -0.3114
  114OSM   H11B11778   4.577   2.239   6.804  2.2923 -1.5961  0.1687
  114OSM      P11779   4.909   2.303   6.714 -0.1516  0.1560 -0.3187
  114OSM    O1311780   4.950   2.432   6.774  0.0989  0.7159  0.0014
  114OSM    O1411781   5.009   2.199   6.719  0.9323  0.3746  0.2522
  114OSM    O1111782   4.868   2.321   6.562  0.3151 -0.0401  0.4572
  114OSM    O1211783   4.775   2.255   6.788  0.0691 -0.5320  0.3760
  114OSM    C1S11784   4.947   2.417   6.489 -0.5260  0.4009 -0.1850
  114OSM    H1S11785   5.052   2.429   6.523 -0.3967 -0.0621 -0.4006
  114OSM    H1T11786   4.899   2.513   6.517 -3.2444 -2.1163  5.3426
  114OSM     NF11787   5.071   2.462   6.289 -0.0168  0.2649  0.0279
  114OSM    HNF11788   5.072   2.561   6.274 -0.0421 -0.0573 -2.8104
  114OSM    C2S11789   4.948   2.390   6.337  0.5113 -0.3937  0.4718
  114OSM    H2S11790   4.955   2.280   6.325  0.0371 -0.5819  1.7533
  114OSM    C3S11791   4.815   2.435   6.263  0.0800  1.1914  0.2945
  114OSM    H3S11792   4.815   2.544   6.282  2.0382  0.8980  2.3257
  114OSM     O311793   4.689   2.398   6.323 -0.1903  0.4214  0.4714
  114OSM    HO311794   4.714   2.355   6.405  0.0761 -0.2066  0.0688
  114OSM    C4S11795   4.818   2.434   6.114 -0.2647  0.2225  0.4880
  114OSM    H4S11796   4.887   2.511   6.074 -2.1001  0.7571 -1.8750
  114OSM    C5S11797   4.762   2.340   6.034 -0.4631 -0.3217 -0.3280
  114OSM    H5S11798   4.706   2.256   6.078 -1.1617  0.4781  0.3418
  114OSM    C6S11799   4.781   2.325   5.886  0.7030  0.0119  0.0195
  114OSM    H6S11800   4.691   2.360   5.830 -0.8892  0.2211  2.5548
  114OSM    H6T11801   4.788   2.218   5.855  1.6923 -0.1917  0.8983
  114OSM    C7S11802   4.899   2.411   5.833 -0.1925  0.5472 -0.6715
  114OSM    H7S11803   4.992   2.378   5.885 -1.2647  0.3728  1.2519
  114OSM    H7T11804   4.893   2.521   5.851  0.1691  0.6108 -0.9327
  114OSM    C8S11805   4.916   2.388   5.691  0.3134  0.3404  0.1318
  114OSM    H8S11806   4.818   2.382   5.640 -0.2184  1.7768  0.9128
  114OSM    H8T11807   4.969   2.292   5.674 -0.4173 -0.7104  3.2020
  114OSM    C9S11808   4.994   2.505   5.622 -0.8667  0.1496 -0.5107
  114OSM    H9S11809   5.094   2.529   5.665 -2.2304  1.1130  2.3307
  114OSM    H9T11810   4.924   2.588   5.640  0.1992  0.8352  0.6268
  114OSM   C10S11811   5.001   2.485   5.468 -0.6109  0.2120  0.1525
  114OSM   H10S11812   5.025   2.381   5.438  1.4870  0.6113  0.2639
  114OSM   H10T11813   5.077   2.554   5.424 -2.1386  0.7027 -1.8575
  114OSM   C11S11814   4.864   2.507   5.400 -0.2526  0.6372  0.4536
  114OSM   H11S11815   4.810   2.591   5.449 -1.2601  0.0360  0.4075
  114OSM   H11T11816   4.815   2.412   5.430  2.2882 -0.0742  2.6763
  114OSM   C12S11817   4.871   2.514   5.244 -0.3383 -0.4000 -0.2276
  114OSM   H12S11818   4.764   2.528   5.218 -0.1343 -0.9001 -1.4229
  114OSM   H12T11819   4.905   2.412   5.214  2.3098  0.5388 -0.6917
  114OSM   C13S11820   4.965   2.616   5.172 -0.0413  0.0177  0.4265
  114OSM   H13S11821   5.070   2.592   5.200 -0.2912 -1.5578  0.0805
  114OSM   H13T11822   4.928   2.716   5.205 -2.1325 -0.5174 -0.1870
  114OSM   C14S11823   4.939   2.624   5.020  0.3727 -0.2161 -0.5886
  114OSM   H14S11824   4.829   2.636   5.010  0.4336  1.1755  0.1956
  114OSM   H14T11825   4.963   2.532   4.962 -0.4057  0.6660 -2.3981
  114OSM   C15S11826   5.018   2.738   4.963  0.0392 -0.6238  0.5365
  114OSM   H15S11827   5.127   2.722   4.980  0.5240 -0.1603 -1.8443
  114OSM   H15T11828   4.985   2.832   5.011  1.8198 -0.8587  2.3452
  114OSM   C16S11829   5.004   2.767   4.806 -0.4450  0.5119 -0.3757
  114OSM   H16S11830   4.896   2.775   4.785 -0.4792  1.2365  0.0472
  114OSM   H16T11831   5.032   2.679   4.744 -0.1249  0.6165 -0.3793
  114OSM   C17S11832   5.095   2.883   4.774 -0.0977 -0.7014 -0.2175
  114OSM   H17S11833   5.202   2.870   4.802  0.3436 -0.6541 -1.7700
  114OSM   H17T11834   5.062   2.978   4.822  3.0912 -0.0741  0.9736
  114OSM   C18S11835   5.092   2.906   4.621  0.2656  0.2408 -0.5653
  114OSM   H18S11836   5.153   2.991   4.586 -1.3912  0.6264 -2.7220
  114OSM   H18T11837   4.984   2.923   4.603 -0.1052  1.1462  2.1984
  114OSM   H18U11838   5.120   2.814   4.564  1.6393  1.2986 -1.6781
  114OSM    C1F11839   5.188   2.410   6.296 -0.1681  0.0953 -1.0521
  114OSM     OF11840   5.200   2.289   6.331 -0.7276 -0.5876  0.6018
  114OSM    C2F11841   5.299   2.517   6.290  0.1472  0.3252  0.1438
  114OSM    H2F11842   5.344   2.544   6.387  2.3445  0.5502 -0.8826
  114OSM    H2G11843   5.257   2.604   6.234 -1.8160 -1.1791 -0.8752
  114OSM    C3F11844   5.408   2.467   6.186 -0.0336 -0.0979  0.4115
  114OSM    H3F11845   5.450   2.373   6.226  0.7510 -0.0921 -0.3734
  114OSM    H3G11846   5.487   2.545   6.192 -0.5044  0.2823  2.4093
  114OSM    C4F11847   5.360   2.447   6.045  0.0733  0.3869 -0.0057
  114OSM    H4F11848   5.317   2.543   6.008  0.9615  0.9405  0.3686
  114OSM    H4G11849   5.280   2.371   6.034 -1.2426  2.0968 -5.5718
  114OSM    C5F11850   5.477   2.402   5.949  0.4350  0.7157 -0.5452
  114OSM    H5F11851   5.516   2.305   5.987 -1.3856  0.5587  1.1291
  114OSM    H5G11852   5.556   2.478   5.967  0.1912  0.8923 -0.1996
  114OSM    C6F11853   5.446   2.403   5.803 -0.2242  0.4220  0.3302
  114OSM    H6F11854   5.362   2.331   5.791 -0.0819  0.0382  1.5129
  114OSM    H6G11855   5.539   2.360   5.760  0.0170 -0.6591  1.8462
  114OSM    C7F11856   5.403   2.540   5.723  0.1114  0.4964  0.1041
  114OSM    H7F11857   5.478   2.622   5.730  0.5170  0.0013  2.5187
  114OSM    H7G11858   5.310   2.576   5.771 -0.2251  0.4782 -0.5359
  114OSM    C8F11859   5.366   2.505   5.576  0.5062  0.7392 -0.2090
  114OSM    H8F11860   5.308   2.594   5.544  1.1442  1.2318 -0.0024
  114OSM    H8G11861   5.292   2.422   5.580 -0.6418  1.6581 -1.3368
  114OSM    C9F11862   5.472   2.449   5.485 -0.2691 -0.3572 -0.4235
  114OSM    H9F11863   5.533   2.368   5.527  1.1834 -0.7404 -3.0275
  114OSM   C10F11864   5.508   2.499   5.368  0.3751 -0.1329 -0.1647
  114OSM   H10F11865   5.580   2.445   5.304  1.2510  1.8494 -0.9737
  114OSM   C11F11866   5.453   2.619   5.295  0.2875 -0.4305 -0.5483
  114OSM   H11F11867   5.446   2.707   5.362  2.5401 -0.6765  0.0882
  114OSM   H11G11868   5.345   2.601   5.273 -0.6056 -0.4603  3.1907
  114OSM   C12F11869   5.525   2.646   5.162 -0.1745  0.2954  0.6554
  114OSM   H12F11870   5.631   2.671   5.183 -0.6581  1.9580  1.2727
  114OSM   H12G11871   5.504   2.743   5.113  0.7515 -0.7917 -2.0733
  114OSM   C13F11872   5.505   2.536   5.055 -0.7049 -0.2009 -0.1345
  114OSM   H13F11873   5.397   2.526   5.030 -1.0569  0.0932  1.1813
  114OSM   H13G11874   5.536   2.439   5.100 -0.5683  0.6188  1.6133
  114OSM   C14F11875   5.584   2.549   4.919 -0.2863  0.1130 -0.9716
  114OSM   H14F11876   5.572   2.452   4.865  0.6277 -0.2955 -0.4580
  114OSM   H14G11877   5.692   2.558   4.943 -0.7401  1.7264  0.7274
  114OSM   C15F11878   5.544   2.676   4.841  0.6603  0.4809 -0.0540
  114OSM   H15F11879   5.544   2.764   4.908  0.1294  1.6794 -1.5716
  114OSM   H15G11880   5.441   2.659   4.802  0.4386 -1.9585  1.4126
  114OSM   C16F11881   5.634   2.716   4.720 -0.1779 -0.2531  0.1064
  114OSM   H16F11882   5.743   2.710   4.743  0.1805  0.8908 -1.1815
  114OSM   H16G11883   5.609   2.817   4.682 -0.8971  0.3316  2.0256
  114OSM   C17F11884   5.595   2.624   4.604  0.5753  0.1213 -0.1442
  114OSM   H17F11885   5.491   2.651   4.574  0.2931  0.4138  1.0303
  114OSM   H17G11886   5.608   2.521   4.643 -0.0145  0.3724  0.7601
  114OSM   C18F11887   5.670   2.629   4.477  0.1312 -0.4401  0.3130
  114OSM   H18F11888   5.778   2.617   4.502  0.4241  3.2000  1.2458
  114OSM   H18G11889   5.662   2.732   4.438  2.2666 -0.1085  0.6292
  114OSM   H18H11890   5.644   2.557   4.396  1.1027  0.8166 -1.1833
  115OSM      N11891   1.017   4.418   6.835 -0.0247 -0.2260 -0.2065
  115OSM    C1511892   0.988   4.274   6.866 -0.6584 -0.0883  0.5072
  115OSM   H15A11893   0.893   4.268   6.917  0.0847 -0.9038  1.8729
  115OSM   H15B11894   1.066   4.222   6.920  1.0954  0.3673 -1.4605
  115OSM   H15C11895   0.980   4.219   6.774  2.4417 -1.5622  0.9836
  115OSM    C1411896   1.042   4.492   6.968  1.0067  0.0131  0.9402
  115OSM   H14A11897   1.054   4.599   6.957 -0.8333  0.2324  0.5937
  115OSM   H14B11898   1.134   4.465   7.016  1.9769  2.7418  0.8007
  115OSM   H14C11899   0.964   4.452   7.032  0.8645 -1.2789  0.0032
  115OSM    C1311900   1.139   4.431   6.748  0.5188 -0.1760 -0.2250
  115OSM   H13A11901   1.225   4.400   6.806  0.1507 -0.4745  0.1658
  115OSM   H13B11902   1.147   4.533   6.715  1.1025 -0.3044 -0.4999
  115OSM   H13C11903   1.125   4.360   6.668  1.2670 -0.1729 -0.3663
  115OSM    C1211904   0.903   4.466   6.755  0.4622 -0.1771 -0.4593
  115OSM   H12A11905   0.918   4.569   6.727  3.3701 -0.7258 -1.2680
  115OSM   H12B11906   0.816   4.462   6.820  0.1211 -1.2589 -0.9439
  115OSM    C1111907   0.872   4.387   6.627 -0.2438  0.4260  0.6450
  115OSM   H11A11908   0.956   4.405   6.556  1.1711 -0.7824  1.9408
  115OSM   H11B11909   0.784   4.438   6.582  0.6659  0.1226 -1.6096
  115OSM      P11910   0.710   4.194   6.682  0.1699 -0.2193 -0.2625
  115OSM    O1311911   0.696   4.048   6.656 -0.0670  0.1506  0.4144
  115OSM    O1411912   0.685   4.237   6.820  0.1438 -0.2844 -0.3303
  115OSM    O1111913   0.609   4.275   6.604 -0.1487 -0.6807 -0.0254
  115OSM    O1211914   0.846   4.247   6.631 -0.2563  0.4111 -0.1337
  115OSM    C1S11915   0.606   4.293   6.463 -0.0639  0.5010  0.1535
  115OSM    H1S11916   0.705   4.258   6.428  1.8276  3.1561  2.4451
  115OSM    H1T11917   0.593   4.402   6.442  1.8026  0.4826 -1.3006
  115OSM     NF11918   0.507   4.225   6.241 -0.4718  0.2405  0.2170
  115OSM    HNF11919   0.436   4.282   6.200 -0.2914  0.0422 -0.3869
  115OSM    C2S11920   0.493   4.209   6.387 -0.8946 -0.0900 -0.2296
  115OSM    H2S11921   0.520   4.105   6.418 -0.9746  0.6640  2.6516
  115OSM    C3S11922   0.356   4.245   6.442  0.5419  0.0935  0.0775
  115OSM    H3S11923   0.331   4.351   6.424  3.2826  0.7712 -0.2390
  115OSM     O311924   0.345   4.237   6.585 -0.3342 -0.0464 -0.0326
  115OSM    HO311925   0.436   4.265   6.603 -0.5912  0.7549  0.0849
  115OSM    C4S11926   0.255   4.159   6.382  0.1135 -0.3746 -0.2728
  115OSM    H4S11927   0.270   4.050   6.394  2.3553 -0.2675 -1.5345
  115OSM    C5S11928   0.146   4.198   6.307  0.3018 -0.1984  0.3480
  115OSM    H5S11929   0.134   4.305   6.286 -1.7080 -0.6700 -1.2046
  115OSM    C6S11930   0.055   4.098   6.237 -0.3670 -0.5709  0.2556
  115OSM    H6S11931   0.111   4.002   6.238  0.6671  0.0122  1.1748
  115OSM    H6T11932   0.047   4.115   6.128 -1.1618 -3.5827 -0.2394
  115OSM    C7S11933  -0.075   4.083   6.303  0.3403 -0.0573 -0.9384
  115OSM    H7S11934  -0.058   4.044   6.406  0.2870  1.8530 -0.1703
  115OSM    H7T11935  -0.139   4.004   6.257  0.8231 -2.2225  1.8193
  115OSM    C8S11936  -0.155   4.213   6.291 -0.6369  0.1428 -0.0552
  115OSM    H8S11937  -0.104   4.305   6.330  0.8144 -0.8105  0.4066
  115OSM    H8T11938  -0.247   4.199   6.352 -0.5238 -0.4593 -0.0173
  115OSM    C9S11939  -0.199   4.245   6.147  0.5851  0.3947 -0.6182
  115OSM    H9S11940  -0.252   4.162   6.096 -0.7483  0.5165  0.5140
  115OSM    H9T11941  -0.108   4.269   6.088  1.4690  1.6841  1.1776
  115OSM   C10S11942  -0.292   4.364   6.133 -0.7228  0.8571 -0.6992
  115OSM   H10S11943  -0.244   4.460   6.159 -0.0611  0.5973 -0.9450
  115OSM   H10T11944  -0.382   4.344   6.194 -0.6299  0.9257 -0.5416
  115OSM   C11S11945  -0.348   4.396   5.991 -0.9696  0.4290 -0.4444
  115OSM   H11S11946  -0.427   4.473   5.984 -0.6148  0.7861 -0.5808
  115OSM   H11T11947  -0.398   4.304   5.955 -0.4027 -0.1294  0.1781
  115OSM   C12S11948  -0.232   4.432   5.899  0.0249 -0.6273 -1.0799
  115OSM   H12S11949  -0.181   4.337   5.872 -2.6988 -2.2846 -0.7447
  115OSM   H12T11950  -0.171   4.512   5.947 -3.2445  0.6947  1.2281
  115OSM   C13S11951  -0.286   4.489   5.767  0.0211  0.0194  0.2713
  115OSM   H13S11952  -0.214   4.551   5.711 -1.3367  0.7827 -0.6939
  115OSM   H13T11953  -0.357   4.573   5.783  0.5097  0.4589  0.1746
  115OSM   C14S11954  -0.331   4.388   5.659 -0.7588  0.0738 -0.4430
  115OSM   H14S11955  -0.426   4.339   5.687 -1.0387  0.1007 -1.3104
  115OSM   H14T11956  -0.254   4.308   5.661 -0.4244  0.3955 -0.3641
  115OSM   C15S11957  -0.352   4.454   5.530 -0.6530  0.7368 -0.5256
  115OSM   H15S11958  -0.271   4.524   5.500  0.8800 -0.8961 -0.3267
  115OSM   H15T11959  -0.455   4.497   5.529 -0.5581  0.9928 -2.2242
  115OSM   C16S11960  -0.357   4.344   5.419  0.1521  0.5332 -0.4890
  115OSM   H16S11961  -0.442   4.279   5.449  1.1759  0.2453  1.9775
  115OSM   H16T11962  -0.259   4.296   5.401 -0.7815 -0.8851 -2.0652
  115OSM   C17S11963  -0.383   4.396   5.281  0.5359 -0.1773 -0.8293
  115OSM   H17S11964  -0.311   4.476   5.253  0.8363 -0.1476  0.0071
  115OSM   H17T11965  -0.479   4.451   5.281 -0.5776 -1.8935 -3.1685
  115OSM   C18S11966  -0.396   4.299   5.166  0.3699  0.0822 -0.0294
  115OSM   H18S11967  -0.475   4.223   5.183  0.5346 -0.7498 -2.5750
  115OSM   H18T11968  -0.302   4.242   5.149  0.7540  1.5569 -3.9214
  115OSM   H18U11969  -0.427   4.359   5.078 -0.7014  0.5292  0.6333
  115OSM    C1F11970   0.607   4.171   6.167  0.2761 -0.1516  0.1733
  115OSM     OF11971   0.674   4.088   6.221  0.1647  0.2005 -0.3830
  115OSM    C2F11972   0.620   4.211   6.025 -0.2966 -0.7332  0.4783
  115OSM    H2F11973   0.586   4.316   6.019  0.6552 -0.5133 -3.1878
  115OSM    H2G11974   0.549   4.144   5.971  0.4547 -2.3508  1.4266
  115OSM    C3F11975   0.770   4.190   5.990 -0.1995 -0.3288  0.4178
  115OSM    H3F11976   0.800   4.084   6.004  2.9208  0.1165 -1.6549
  115OSM    H3G11977   0.833   4.251   6.059  0.2527  0.1074 -0.3625
  115OSM    C4F11978   0.795   4.239   5.848 -0.2347  0.4422 -0.4505
  115OSM    H4F11979   0.816   4.348   5.856 -2.8772  1.3826 -4.0179
  115OSM    H4G11980   0.705   4.223   5.786  0.5057 -2.1686 -0.9594
  115OSM    C5F11981   0.921   4.165   5.788  0.0932 -0.0943  0.3217
  115OSM    H5F11982   0.903   4.056   5.796 -1.2134  0.0995  0.2822
  115OSM    H5G11983   1.005   4.196   5.854 -0.1253  1.1316  0.0474
  115OSM    C6F11984   0.932   4.200   5.643 -0.0285  0.1078  0.2942
  115OSM    H6F11985   0.831   4.199   5.598 -0.4231 -0.8091  1.1738
  115OSM    H6G11986   0.990   4.120   5.591 -0.7761  0.5553 -1.2713
  115OSM    C7F11987   0.993   4.337   5.613  0.2525  0.2392  0.5268
  115OSM    H7F11988   1.103   4.321   5.620  0.3691  0.5911 -0.3008
  115OSM    H7G11989   0.951   4.412   5.683  2.4426  2.0244  0.0540
  115OSM    C8F11990   0.974   4.398   5.472 -0.0075 -0.8590 -0.2467
  115OSM    H8F11991   1.006   4.335   5.385 -0.9868  2.0062 -2.8576
  115OSM    H8G11992   1.037   4.488   5.455  0.3404 -0.9552  0.5335
  115OSM    C9F11993   0.829   4.430   5.450  0.0929 -0.3986 -0.1784
  115OSM    H9F11994   0.768   4.451   5.540 -2.0442  0.4376 -1.7363
  115OSM   C10F11995   0.766   4.462   5.340 -0.2532  0.3897  0.2078
  115OSM   H10F11996   0.656   4.467   5.347 -0.5529 -2.9676 -0.4351
  115OSM   C11F11997   0.812   4.456   5.196  0.3552  1.3867 -0.4407
  115OSM   H11F11998   0.779   4.366   5.139  0.9407 -0.6689  2.2770
  115OSM   H11G11999   0.922   4.473   5.194  0.4660  0.8886  0.6535
  115OSM   C12F12000   0.773   4.584   5.123  0.8053 -0.2641 -0.4817
  115OSM   H12F12001   0.812   4.670   5.182  2.0245  0.1007 -1.7728
  115OSM   H12G12002   0.662   4.589   5.115  0.7821  2.4095  0.5349
  115OSM   C13F12003   0.827   4.598   4.980 -0.0672 -0.5738  0.0323
  115OSM   H13F12004   0.938   4.609   4.977 -0.1783  0.8147  0.1731
  115OSM   H13G12005   0.782   4.692   4.942 -2.6006 -1.1833  1.3141
  115OSM   C14F12006   0.782   4.487   4.879 -0.6116 -0.4458  0.3690
  115OSM   H14F12007   0.675   4.468   4.900  0.0528 -2.0413  2.6125
  115OSM   H14G12008   0.818   4.384   4.899 -2.6290 -1.1821  0.4402
  115OSM   C15F12009   0.787   4.526   4.729  0.9171 -0.9012 -0.2796
  115OSM   H15F12010   0.725   4.618   4.729  2.0036 -0.1307  0.7620
  115OSM   H15G12011   0.725   4.455   4.670 -0.3067 -1.6551  1.7933
  115OSM   C16F12012   0.924   4.542   4.660 -0.0728  0.2046  0.2145
  115OSM   H16F12013   0.961   4.440   4.635 -0.5600  0.1007 -0.1062
  115OSM   H16G12014   0.999   4.591   4.726  0.8501  1.7027 -1.8531
  115OSM   C17F12015   0.914   4.629   4.541  0.1394  0.1904 -0.4313
  115OSM   H17F12016   0.816   4.602   4.495 -0.8559  1.0595  1.1007
  115OSM   H17G12017   0.997   4.594   4.475 -0.7695  1.2536 -2.2191
  115OSM   C18F12018   0.907   4.782   4.568  0.0891 -0.7494 -0.0310
  115OSM   H18F12019   0.814   4.821   4.614  1.5420  1.6875  1.0623
  115OSM   H18G12020   0.910   4.826   4.466  0.0933 -0.3828  0.1275
  115OSM   H18H12021   0.997   4.817   4.623  0.5059 -1.8925  0.0505
  116OSM      N12022   2.448   1.026   7.026 -0.2440  0.1677  0.1504
  116OSM    C1512023   2.558   0.957   6.949 -0.1538  0.8450  0.3124
  116OSM   H15A12024   2.520   0.900   6.866 -1.4661  0.6983  0.9773
  116OSM   H15B12025   2.606   0.883   7.012  0.3701 -0.1856 -1.2427
  116OSM   H15C12026   2.635   1.023   6.913  0.8201 -0.2492  0.3533
  116OSM    C1412027   2.366   0.926   7.085  0.1122  1.1099 -0.1776
  116OSM   H14A12028   2.410   0.878   7.171 -0.9596 -1.7475 -1.0867
  116OSM   H14B12029   2.344   0.847   7.014 -1.2042  0.6207  0.7411
  116OSM   H14C12030   2.279   0.973   7.127  0.0215  0.1572  0.7368
  116OSM    C1312031   2.503   1.116   7.137  0.4657 -0.0515 -0.7223
  116OSM   H13A12032   2.417   1.156   7.189  0.8976  1.0877 -0.8725
  116OSM   H13B12033   2.538   1.198   7.075 -1.2687  1.1400 -0.1981
  116OSM   H13C12034   2.570   1.073   7.210 -2.0241  1.2463  2.5629
  116OSM    C1212035   2.365   1.106   6.921  0.1341 -0.1105  0.5029
  116OSM   H12A12036   2.287   1.154   6.979  0.5208 -2.1433  2.8847
  116OSM   H12B12037   2.315   1.037   6.855 -1.0105  0.0986  1.1295
  116OSM    C1112038   2.449   1.198   6.825  0.2778  0.4161  0.2277
  116OSM   H11A12039   2.377   1.271   6.781  3.4017  1.9565 -2.8474
  116OSM   H11B12040   2.492   1.137   6.743  2.2616 -0.2290  1.6471
  116OSM      P12041   2.688   1.310   6.848  0.2942  0.3744 -0.0907
  116OSM    O1312042   2.741   1.418   6.932  0.8065  0.3728  0.5638
  116OSM    O1412043   2.761   1.183   6.845 -0.8974 -0.7763 -0.2871
  116OSM    O1112044   2.669   1.362   6.699  0.5413 -0.0432  0.7223
  116OSM    O1212045   2.540   1.284   6.894  0.7846  0.7941 -0.1049
  116OSM    C1S12046   2.587   1.475   6.664  0.6815  0.5831 -0.0765
  116OSM    H1S12047   2.633   1.562   6.716  1.0172 -0.4103  1.3440
  116OSM    H1T12048   2.485   1.462   6.705  1.3968 -1.7343  1.1367
  116OSM     NF12049   2.504   1.627   6.493 -0.1896 -0.2383  0.3844
  116OSM    HNF12050   2.409   1.612   6.468 -0.5325 -0.3775  1.6512
  116OSM    C2S12051   2.571   1.499   6.516 -0.0119 -0.4966  0.0097
  116OSM    H2S12052   2.673   1.517   6.475  0.5810  2.4753  2.4045
  116OSM    C3S12053   2.500   1.367   6.453  0.2403 -1.0016  0.2391
  116OSM    H3S12054   2.397   1.373   6.493  0.9394 -0.9544  2.1378
  116OSM     O312055   2.554   1.242   6.497 -0.3359 -0.0155 -0.2220
  116OSM    HO312056   2.592   1.259   6.583 -2.9713  0.1310  1.0010
  116OSM    C4S12057   2.512   1.392   6.306  0.1915  0.5167 -0.0308
  116OSM    H4S12058   2.419   1.421   6.256  0.5759 -0.1109 -1.1530
  116OSM    C5S12059   2.613   1.364   6.222  0.8748 -0.2990  0.8607
  116OSM    H5S12060   2.708   1.320   6.258  0.8396 -1.3951 -0.3126
  116OSM    C6S12061   2.616   1.378   6.069  0.2344 -0.2822 -0.2602
  116OSM    H6S12062   2.667   1.293   6.019  0.1101  1.3424 -3.4641
  116OSM    H6T12063   2.679   1.468   6.049  0.6136 -0.8406 -1.7352
  116OSM    C7S12064   2.475   1.397   6.008  0.6543  0.5419 -0.4393
  116OSM    H7S12065   2.431   1.491   6.047 -1.6990 -0.5970 -0.1547
  116OSM    H7T12066   2.412   1.309   6.035  0.6733  0.9214  0.8802
  116OSM    C8S12067   2.480   1.410   5.859  0.7555 -0.3084 -0.3018
  116OSM    H8S12068   2.553   1.485   5.822  0.5712 -0.6748 -1.4330
  116OSM    H8T12069   2.386   1.449   5.814  2.1608  0.8694 -2.3628
  116OSM    C9S12070   2.505   1.279   5.781  0.9409 -0.3285 -0.5434
  116OSM    H9S12071   2.411   1.220   5.774  0.2917  0.7517 -1.1601
  116OSM    H9T12072   2.580   1.215   5.832 -1.0094 -0.7834  1.9743
  116OSM   C10S12073   2.553   1.314   5.638  0.4585  0.5721 -0.6376
  116OSM   H10S12074   2.662   1.304   5.621  0.5708  0.9322 -0.1394
  116OSM   H10T12075   2.517   1.417   5.620  1.1746  1.1379  1.0019
  116OSM   C11S12076   2.485   1.218   5.538  0.3272 -0.5532  0.5335
  116OSM   H11S12077   2.377   1.241   5.542  0.3958  0.1162 -0.7680
  116OSM   H11T12078   2.500   1.115   5.576 -1.5892 -1.8825 -2.0436
  116OSM   C12S12079   2.538   1.220   5.392 -0.3119 -0.2272 -0.1026
  116OSM   H12S12080   2.644   1.255   5.396 -0.0404 -0.0214 -4.3443
  116OSM   H12T12081   2.477   1.304   5.352 -0.4393  1.1179  2.6524
  116OSM   C13S12082   2.537   1.087   5.315  0.3061 -0.0501 -0.0349
  116OSM   H13S12083   2.445   1.032   5.346  0.5309  0.0667  0.8779
  116OSM   H13T12084   2.631   1.041   5.353  1.2176  2.1936  0.5892
  116OSM   C14S12085   2.566   1.126   5.164  0.2713  0.1842 -0.4261
  116OSM   H14S12086   2.658   1.188   5.168 -0.4349  1.2558 -0.2909
  116OSM   H14T12087   2.480   1.194   5.147  0.2728  0.2456 -0.1959
  116OSM   C15S12088   2.571   1.007   5.072  0.1080  0.7063  0.1227
  116OSM   H15S12089   2.483   0.945   5.097 -0.0420  0.5219 -0.8029
  116OSM   H15T12090   2.662   0.951   5.104  1.2981  2.1353 -0.5864
  116OSM   C16S12091   2.575   1.030   4.919 -0.2506  0.3617 -0.7872
  116OSM   H16S12092   2.649   1.111   4.899  0.3065 -0.3233 -1.5647
  116OSM   H16T12093   2.474   1.075   4.902 -1.6860 -1.3918  2.3429
  116OSM   C17S12094   2.601   0.901   4.847  0.0068  0.5298 -0.5546
  116OSM   H17S12095   2.523   0.823   4.863  0.6789  0.0176  0.2723
  116OSM   H17T12096   2.692   0.851   4.885 -1.1824 -1.2327  0.1337
  116OSM   C18S12097   2.612   0.909   4.696  0.4201 -0.5038 -0.0758
  116OSM   H18S12098   2.513   0.906   4.647  0.4390 -0.7620 -0.1021
  116OSM   H18T12099   2.669   0.826   4.648  0.9611  0.4286 -1.0840
  116OSM   H18U12100   2.672   0.999   4.670 -0.4765  0.1892  0.2138
  116OSM    C1F12101   2.556   1.747   6.502  0.2606  0.6021  0.4095
  116OSM     OF12102   2.663   1.758   6.553  0.0136 -0.2766 -0.4513
  116OSM    C2F12103   2.481   1.863   6.449 -0.0469 -0.3013  0.1075
  116OSM    H2F12104   2.496   1.944   6.524  1.0286 -0.3140 -0.0733
  116OSM    H2G12105   2.374   1.836   6.438 -0.2478 -0.6959  2.5330
  116OSM    C3F12106   2.542   1.923   6.315  0.2445 -0.0919  0.4244
  116OSM    H3F12107   2.648   1.946   6.337  0.3946 -0.1930 -0.1703
  116OSM    H3G12108   2.485   2.016   6.299  1.7850  0.5975 -1.3493
  116OSM    C4F12109   2.504   1.828   6.202  0.6849  0.3764 -0.0692
  116OSM    H4F12110   2.417   1.762   6.222  0.9995 -0.0875 -0.2229
  116OSM    H4G12111   2.586   1.753   6.192  0.3320  0.0116 -0.2524
  116OSM    C5F12112   2.468   1.902   6.068 -0.2785 -0.4078  0.1151
  116OSM    H5F12113   2.525   1.997   6.077  0.5897 -0.6982 -1.8934
  116OSM    H5G12114   2.358   1.916   6.061 -0.0807  1.3173  0.1442
  116OSM    C6F12115   2.526   1.829   5.950 -0.0738  0.8011 -0.1282
  116OSM    H6F12116   2.498   1.725   5.977  0.1716  1.4073  2.8825
  116OSM    H6G12117   2.635   1.844   5.942  0.1270 -0.4855 -0.0276
  116OSM    C7F12118   2.462   1.853   5.821  0.0513  0.2472  0.4670
  116OSM    H7F12119   2.481   1.962   5.811  1.3317  0.0005  0.0446
  116OSM    H7G12120   2.351   1.851   5.820  0.0288 -2.0194 -1.3372
  116OSM    C8F12121   2.526   1.789   5.699 -1.0746  0.3002  1.0020
  116OSM    H8F12122   2.484   1.686   5.694  0.6432 -0.4178  0.4901
  116OSM    H8G12123   2.634   1.769   5.714 -0.7977  2.0122  1.4809
  116OSM    C9F12124   2.517   1.853   5.569 -0.8837 -0.4263  1.5833
  116OSM    H9F12125   2.417   1.895   5.548  0.2896  1.0065 -1.8355
  116OSM   C10F12126   2.613   1.907   5.489 -0.0118 -0.2916  0.4050
  116OSM   H10F12127   2.579   1.954   5.396  0.1350 -1.2699 -0.1544
  116OSM   C11F12128   2.760   1.885   5.492  0.2779  0.6788 -0.4176
  116OSM   H11F12129   2.800   1.820   5.572  1.7454 -0.6104 -2.1051
  116OSM   H11G12130   2.813   1.981   5.508  2.7491 -0.5890 -0.5110
  116OSM   C12F12131   2.822   1.838   5.365 -0.8530 -0.1164  0.2894
  116OSM   H12F12132   2.763   1.754   5.322 -1.0540 -0.4143  1.1251
  116OSM   H12G12133   2.926   1.800   5.375 -0.0942  1.9751  0.7156
  116OSM   C13F12134   2.824   1.947   5.257 -0.9077 -0.5283 -1.0786
  116OSM   H13F12135   2.861   2.037   5.309 -0.8970 -0.1943 -1.6569
  116OSM   H13G12136   2.726   1.971   5.210 -0.7525 -1.3117 -1.8224
  116OSM   C14F12137   2.923   1.916   5.141  0.2914  0.1909  0.0957
  116OSM   H14F12138   2.904   1.817   5.094  1.5795  0.1989 -0.4958
  116OSM   H14G12139   3.024   1.907   5.188 -0.9588 -0.8604  2.8036
  116OSM   C15F12140   2.908   2.015   5.027  0.1550  0.8741 -0.1967
  116OSM   H15F12141   2.932   2.112   5.075 -0.8944  0.4111  1.3444
  116OSM   H15G12142   2.804   2.011   4.987 -0.5616 -1.1785  1.6172
  116OSM   C16F12143   3.005   2.005   4.912 -0.7319 -0.4036  0.7122
  116OSM   H16F12144   3.006   1.912   4.851  2.0754  0.8192 -1.3406
  116OSM   H16G12145   3.107   2.012   4.954  0.8415 -0.3988 -2.7255
  116OSM   C17F12146   2.980   2.111   4.802  0.2870  0.6788  0.4751
  116OSM   H17F12147   2.885   2.078   4.754 -1.7491  0.5497  4.2324
  116OSM   H17G12148   3.056   2.090   4.723  0.1423  0.2944  0.4360
  116OSM   C18F12149   2.973   2.258   4.849 -0.3208  0.3107 -0.1563
  116OSM   H18F12150   3.072   2.290   4.886 -0.2149  1.1666 -1.1067
  116OSM   H18G12151   2.917   2.274   4.943  0.9695  0.8992  0.5246
  116OSM   H18H12152   2.943   2.340   4.779  1.2738  0.6863 -0.4304
  117OSM      N12153   6.711   5.744   6.648  0.0046  0.3746 -0.1250
  117OSM    C1512154   6.759   5.613   6.703 -0.0419  0.2151 -0.1790
  117OSM   H15A12155   6.839   5.569   6.645  0.4201  0.0331  0.5815
  117OSM   H15B12156   6.686   5.535   6.718  1.5493 -0.7411  3.9120
  117OSM   H15C12157   6.798   5.640   6.800 -0.0828  1.3618 -0.4734
  117OSM    C1412158   6.823   5.831   6.611  0.2030  0.5429  0.2088
  117OSM   H14A12159   6.870   5.869   6.700 -2.2253  1.4207  1.1978
  117OSM   H14B12160   6.771   5.913   6.565  0.0669  0.7686  0.7611
  117OSM   H14C12161   6.889   5.782   6.540 -0.0929 -0.5187  0.6413
  117OSM    C1312162   6.637   5.701   6.528 -0.2541  0.4806  0.3023
  117OSM   H13A12163   6.697   5.646   6.458  0.6024  2.7331 -0.8576
  117OSM   H13B12164   6.614   5.791   6.472  0.8521 -0.0234 -1.0339
  117OSM   H13C12165   6.550   5.643   6.556  0.7947 -0.4282  1.7927
  117OSM    C1212166   6.624   5.816   6.746  0.3483 -0.5072  0.0137
  117OSM   H12A12167   6.533   5.760   6.760 -2.4633  2.9437 -2.5880
  117OSM   H12B12168   6.588   5.906   6.697  1.3104  0.1483  0.4879
  117OSM    C1112169   6.686   5.853   6.888  0.4070 -0.2861 -0.3103
  117OSM   H11A12170   6.720   5.760   6.937 -1.9431 -1.4756 -0.8088
  117OSM   H11B12171   6.602   5.898   6.944  2.2567  3.9027 -0.4986
  117OSM      P12172   6.820   6.063   6.967  0.1147 -0.1196 -0.1232
  117OSM    O1312173   6.759   6.043   7.102  0.2750 -0.3374 -0.1788
  117OSM    O1412174   6.957   6.110   6.964 -0.0348 -0.0545 -0.0044
  117OSM    O1112175   6.739   6.174   6.892 -0.8334 -0.3618 -0.1623
  117OSM    O1212176   6.807   5.931   6.876  0.4487 -0.3810 -0.2950
  117OSM    C1S12177   6.759   6.179   6.744  0.1601 -0.1895 -0.2427
  117OSM    H1S12178   6.746   6.083   6.691 -1.0063  1.4162 -3.0518
  117OSM    H1T12179   6.855   6.232   6.723  0.2175  1.3901  3.2341
  117OSM     NF12180   6.636   6.251   6.542  0.2390 -0.5353  0.3282
  117OSM    HNF12181   6.671   6.327   6.487  0.7643 -3.3337 -3.5769
  117OSM    C2S12182   6.642   6.259   6.686 -0.2124  0.1151  0.2896
  117OSM    H2S12183   6.546   6.214   6.718  0.8430 -1.9301  0.7379
  117OSM    C3S12184   6.656   6.407   6.736 -0.1280 -0.0846  0.7977
  117OSM    H3S12185   6.756   6.437   6.698  0.7574 -2.1870  1.3445
  117OSM     O312186   6.685   6.428   6.873 -0.0146  0.3402 -0.0573
  117OSM    HO312187   6.722   6.343   6.898 -1.7992 -0.5807 -0.4023
  117OSM    C4S12188   6.554   6.500   6.679  0.5293 -0.0131  1.1116
  117OSM    H4S12189   6.584   6.547   6.585  1.7465 -1.8826  0.5054
  117OSM    C5S12190   6.432   6.521   6.735  0.6475 -0.2845 -1.1066
  117OSM    H5S12191   6.406   6.470   6.829  0.2567  1.6564 -0.1018
  117OSM    C6S12192   6.317   6.605   6.683 -0.3938 -0.3618  0.7524
  117OSM    H6S12193   6.291   6.689   6.752 -1.4401  0.5714 -0.7003
  117OSM    H6T12194   6.219   6.556   6.660  0.0841 -0.5293 -1.1377
  117OSM    C7S12195   6.353   6.676   6.550 -0.1572 -0.4236 -0.2726
  117OSM    H7S12196   6.387   6.602   6.474 -2.7540 -0.7763 -1.1987
  117OSM    H7T12197   6.428   6.753   6.578  0.3954 -1.0303 -0.0509
  117OSM    C8S12198   6.235   6.759   6.499  0.4644 -0.4074  0.0878
  117OSM    H8S12199   6.190   6.822   6.578 -0.5385  0.7227 -1.3345
  117OSM    H8T12200   6.157   6.683   6.477  1.7285 -1.3879 -1.2307
  117OSM    C9S12201   6.267   6.853   6.384  0.1283  0.6248 -0.5148
  117OSM    H9S12202   6.360   6.905   6.417  1.3985 -1.7735 -0.1044
  117OSM    H9T12203   6.183   6.925   6.373 -0.1775  0.4365  0.4893
  117OSM   C10S12204   6.278   6.791   6.243  0.3908 -0.2096 -0.4651
  117OSM   H10S12205   6.173   6.757   6.230 -0.9056  2.7971  1.2013
  117OSM   H10T12206   6.346   6.702   6.242 -0.7435 -1.1004 -1.0864
  117OSM   C11S12207   6.331   6.884   6.136 -0.1299  0.2744 -0.0485
  117OSM   H11S12208   6.436   6.912   6.157 -0.9484  1.5141  3.0473
  117OSM   H11T12209   6.268   6.976   6.139 -1.0604 -0.3624  1.3891
  117OSM   C12S12210   6.330   6.814   6.002  0.6383 -0.5329  0.8407
  117OSM   H12S12211   6.225   6.781   5.985  0.1441  0.4240  1.8512
  117OSM   H12T12212   6.402   6.729   6.003 -0.6319 -1.6451  1.7546
  117OSM   C13S12213   6.372   6.893   5.873 -0.4545 -0.4529 -0.0965
  117OSM   H13S12214   6.482   6.907   5.867 -0.0872 -3.2051 -2.0382
  117OSM   H13T12215   6.313   6.987   5.881 -1.0506 -0.8604  0.3775
  117OSM   C14S12216   6.330   6.811   5.754  0.3723  0.3243 -0.1034
  117OSM   H14S12217   6.222   6.785   5.765  0.2448  1.6684  2.9015
  117OSM   H14T12218   6.394   6.722   5.769 -0.0652  0.3993  2.8602
  117OSM   C15S12219   6.357   6.876   5.619  0.6204 -0.2588 -0.2707
  117OSM   H15S12220   6.461   6.916   5.621  0.1956  0.8426  0.6261
  117OSM   H15T12221   6.294   6.968   5.611  0.4079 -0.3749  0.0672
  117OSM   C16S12222   6.336   6.792   5.496 -0.6372 -0.0493  0.3391
  117OSM   H16S12223   6.238   6.740   5.499 -0.9324  0.2582 -2.0274
  117OSM   H16T12224   6.415   6.715   5.479 -1.6995 -1.0637 -0.1304
  117OSM   C17S12225   6.326   6.870   5.374  0.0861 -0.0316  0.0332
  117OSM   H17S12226   6.399   6.953   5.370 -0.1269  0.1019 -2.5074
  117OSM   H17T12227   6.226   6.918   5.365  0.9518  1.6110 -1.4992
  117OSM   C18S12228   6.347   6.787   5.245 -0.1816 -0.0610 -0.2794
  117OSM   H18S12229   6.434   6.719   5.254 -1.2522 -1.6332 -1.2978
  117OSM   H18T12230   6.367   6.855   5.160  0.7403 -0.3953 -0.3412
  117OSM   H18U12231   6.258   6.722   5.227 -1.8151  1.4391  1.7330
  117OSM    C1F12232   6.615   6.141   6.478  0.1636  0.0328  0.5341
  117OSM     OF12233   6.574   6.033   6.530 -0.5365 -0.4364 -0.5159
  117OSM    C2F12234   6.644   6.140   6.331 -0.6547  0.8431 -0.2869
  117OSM    H2F12235   6.692   6.239   6.315  0.1664  0.6394  0.7580
  117OSM    H2G12236   6.548   6.138   6.276 -0.7755  1.9720 -0.1551
  117OSM    C3F12237   6.725   6.023   6.284 -0.0279  0.7625 -0.3847
  117OSM    H3F12238   6.682   5.926   6.316  2.8585  0.1371  1.9663
  117OSM    H3G12239   6.827   6.029   6.328 -0.3527  1.5960  0.2727
  117OSM    C4F12240   6.718   6.007   6.132 -0.5268  0.2523 -0.0250
  117OSM    H4F12241   6.730   6.113   6.104  0.8039  0.3202  0.7679
  117OSM    H4G12242   6.613   5.977   6.109 -1.5230  1.9658  2.0012
  117OSM    C5F12243   6.825   5.920   6.068  0.5458  0.0567  0.5197
  117OSM    H5F12244   6.804   5.812   6.079 -1.7739  0.5294  1.1388
  117OSM    H5G12245   6.921   5.935   6.122 -0.4354  1.6446  1.9175
  117OSM    C6F12246   6.843   5.929   5.910  0.0329 -0.8817  0.1202
  117OSM    H6F12247   6.739   5.936   5.873  0.2469  0.8167 -0.2512
  117OSM    H6G12248   6.888   5.839   5.863  0.2827  1.0909 -3.7784
  117OSM    C7F12249   6.921   6.061   5.855  0.4969  0.5259  1.1306
  117OSM    H7F12250   7.031   6.044   5.862  0.2522 -0.9035  1.8303
  117OSM    H7G12251   6.890   6.147   5.918 -0.8367  1.7199 -1.0279
  117OSM    C8F12252   6.895   6.101   5.701  0.4473  0.3290 -0.2983
  117OSM    H8F12253   6.786   6.120   5.700 -0.4335 -3.6054  1.8447
  117OSM    H8G12254   6.914   6.009   5.642 -1.4058 -0.0900 -0.2771
  117OSM    C9F12255   6.977   6.218   5.670  0.0173 -0.0758  0.5098
  117OSM    H9F12256   6.986   6.282   5.759 -0.9208  0.6038  0.1278
  117OSM   C10F12257   7.027   6.251   5.554  0.5269 -0.6644  0.2156
  117OSM   H10F12258   7.088   6.343   5.546 -0.5909  0.0597 -0.2313
  117OSM   C11F12259   7.024   6.167   5.429  0.1143 -0.1274 -0.1784
  117OSM   H11F12260   6.935   6.100   5.430 -0.5586  0.7122 -1.0920
  117OSM   H11G12261   7.111   6.099   5.428  0.3159 -0.0320  2.5446
  117OSM   C12F12262   7.001   6.237   5.289 -0.4236 -0.6772  0.0891
  117OSM   H12F12263   7.062   6.331   5.287 -2.9877  1.1097  0.4580
  117OSM   H12G12264   6.898   6.278   5.281 -0.6250 -0.6926  2.0831
  117OSM   C13F12265   7.033   6.158   5.158  0.0851 -0.8774 -0.3327
  117OSM   H13F12266   7.140   6.131   5.150 -0.0007 -0.9453 -1.4426
  117OSM   H13G12267   7.013   6.228   5.074  0.0596 -0.8594 -0.3114
  117OSM   C14F12268   6.960   6.025   5.140 -0.0029  0.2554  0.5333
  117OSM   H14F12269   6.871   6.015   5.205  1.0118  0.5524  2.0299
  117OSM   H14G12270   7.034   5.952   5.179  1.7784  3.1858  3.2230
  117OSM   C15F12271   6.919   5.992   4.994  0.4976 -0.7080  0.1162
  117OSM   H15F12272   6.858   6.078   4.960 -0.9189 -1.8864 -0.4097
  117OSM   H15G12273   6.850   5.905   5.004 -0.2334  0.0725  2.5666
  117OSM   C16F12274   7.036   5.967   4.901 -1.3295  0.3024  0.4823
  117OSM   H16F12275   7.113   6.042   4.929 -2.3597  1.5506  0.1147
  117OSM   H16G12276   7.013   5.986   4.794 -2.4441  0.6031  0.7604
  117OSM   C17F12277   7.107   5.833   4.914  0.5003 -0.1530  0.3599
  117OSM   H17F12278   7.022   5.762   4.929  0.5737 -0.7098 -1.6153
  117OSM   H17G12279   7.173   5.836   5.004  2.4196 -1.3712 -0.9418
  117OSM   C18F12280   7.194   5.785   4.792 -0.3535 -0.7087 -0.6449
  117OSM   H18F12281   7.275   5.861   4.781 -0.8290  0.1944  1.5147
  117OSM   H18G12282   7.132   5.772   4.702 -1.5429 -2.8691  0.4152
  117OSM   H18H12283   7.246   5.689   4.813 -0.9189 -0.7370  0.7179
  118OSM      N12284   1.430   3.778   7.159 -0.5396 -0.8253  0.0444
  118OSM    C1512285   1.547   3.858   7.113  0.0231 -0.0598 -0.2838
  118OSM   H15A12286   1.631   3.792   7.097 -0.6038 -0.9234 -0.0931
  118OSM   H15B12287   1.571   3.940   7.179 -1.0008  0.4754 -0.5613
  118OSM   H15C12288   1.525   3.910   7.022  1.1738  0.9147 -0.0278
  118OSM    C1412289   1.470   3.689   7.267  0.2929 -0.0917  0.1022
  118OSM   H14A12290   1.391   3.648   7.328 -0.1754 -2.1050 -1.7326
  118OSM   H14B12291   1.525   3.741   7.344 -1.2605 -0.4570  1.5226
  118OSM   H14C12292   1.537   3.608   7.238  0.6071  0.5406 -0.9869
  118OSM    C1312293   1.328   3.876   7.224 -0.5923 -0.1863  0.1253
  118OSM   H13A12294   1.384   3.925   7.302  1.8376  0.0131 -1.6489
  118OSM   H13B12295   1.242   3.818   7.255  1.0277 -2.9339 -0.2152
  118OSM   H13C12296   1.303   3.947   7.146  0.6270  0.6630  0.4861
  118OSM    C1212297   1.360   3.704   7.047 -0.7058  0.0715  0.1021
  118OSM   H12A12298   1.289   3.642   7.099  0.7514 -0.4056  1.6262
  118OSM   H12B12299   1.438   3.645   7.001 -0.3636 -0.3362  1.1665
  118OSM    C1112300   1.291   3.793   6.932 -0.2098  0.3243  0.0487
  118OSM   H11A12301   1.253   3.721   6.856 -2.3328  0.2417  1.1095
  118OSM   H11B12302   1.370   3.860   6.893 -1.0185  1.4375  0.2818
  118OSM      P12303   1.050   3.811   7.019  0.0419 -0.4394  0.2116
  118OSM    O1312304   1.075   3.685   7.097 -0.0587  0.0081 -0.0107
  118OSM    O1412305   0.957   3.909   7.076 -0.7329 -0.1334 -0.4021
  118OSM    O1112306   0.995   3.767   6.879  0.6471 -0.6647  0.5249
  118OSM    O1212307   1.189   3.873   6.985 -0.2457 -0.1998 -0.4195
  118OSM    C1S12308   0.976   3.865   6.775  0.0086 -0.2009  0.5069
  118OSM    H1S12309   1.019   3.965   6.797 -4.9657  2.4827 -0.4997
  118OSM    H1T12310   0.867   3.883   6.764  0.1241  1.6090  1.8391
  118OSM     NF12311   1.057   3.914   6.551 -0.8655 -0.0859 -0.5487
  118OSM    HNF12312   0.983   3.923   6.486 -0.9938  1.3092 -0.2475
  118OSM    C2S12313   1.038   3.804   6.646 -0.1168  0.0126 -0.2715
  118OSM    H2S12314   1.138   3.762   6.669 -0.3947  0.5935  2.2437
  118OSM    C3S12315   0.946   3.697   6.598 -0.1480 -0.9396  0.3586
  118OSM    H3S12316   0.843   3.738   6.607  0.6561  0.7574  3.5493
  118OSM     O312317   0.949   3.579   6.680  0.0959  0.0458 -0.2332
  118OSM    HO312318   0.968   3.620   6.765  0.8705  2.2129 -1.3696
  118OSM    C4S12319   0.969   3.656   6.450 -0.3265  0.4308 -0.4904
  118OSM    H4S12320   1.078   3.643   6.442  0.3852  2.9823  2.7119
  118OSM    C5S12321   0.884   3.649   6.346 -0.3485  0.2140  0.0345
  118OSM    H5S12322   0.784   3.692   6.358  0.0559  0.9662  0.8384
  118OSM    C6S12323   0.921   3.608   6.210 -0.5266 -0.0926  0.5080
  118OSM    H6S12324   0.845   3.542   6.163  0.6807 -1.2926  0.1571
  118OSM    H6T12325   1.017   3.552   6.220  0.6069  2.1093  2.7653
  118OSM    C7S12326   0.956   3.733   6.124 -0.2404 -0.1182 -0.1736
  118OSM    H7S12327   1.017   3.809   6.178  1.3059  0.1394 -2.1536
  118OSM    H7T12328   0.862   3.779   6.087 -0.4033 -1.3888 -1.4086
  118OSM    C8S12329   1.034   3.688   6.002 -0.7879 -0.0573  0.4988
  118OSM    H8S12330   0.974   3.609   5.952  2.8188 -2.9014  0.2079
  118OSM    H8T12331   1.126   3.629   6.022 -0.4450  0.0133 -0.7932
  118OSM    C9S12332   1.063   3.801   5.901  0.7341  0.7412 -0.4260
  118OSM    H9S12333   1.131   3.873   5.952  1.6382 -0.8511  0.7390
  118OSM    H9T12334   0.967   3.851   5.877 -0.7933 -1.5362  0.5394
  118OSM   C10S12335   1.126   3.764   5.772 -0.9724  0.5116  0.8116
  118OSM   H10S12336   1.072   3.675   5.732 -0.4342 -0.1349  1.5078
  118OSM   H10T12337   1.229   3.730   5.793 -1.3092  0.4696  2.5160
  118OSM   C11S12338   1.129   3.879   5.669 -0.7171  0.0339 -0.1555
  118OSM   H11S12339   1.174   3.967   5.721  1.4426 -1.3829  0.5017
  118OSM   H11T12340   1.020   3.899   5.658 -0.4154  1.4394 -0.9696
  118OSM   C12S12341   1.202   3.841   5.536  0.1165 -0.0591  0.1868
  118OSM   H12S12342   1.274   3.763   5.568 -1.1223 -1.7598 -0.9880
  118OSM   H12T12343   1.245   3.929   5.484 -0.0130  0.8535  1.5543
  118OSM   C13S12344   1.109   3.778   5.430 -0.5417 -0.0931 -1.5472
  118OSM   H13S12345   1.033   3.854   5.403 -0.6281  1.3371  2.1090
  118OSM   H13T12346   1.052   3.689   5.466  0.0039 -0.1972 -0.9064
  118OSM   C14S12347   1.189   3.737   5.300  0.1750 -0.3581 -0.4350
  118OSM   H14S12348   1.265   3.657   5.315 -0.8486 -1.0867  1.1551
  118OSM   H14T12349   1.249   3.826   5.269  0.9707 -0.1886  1.4142
  118OSM   C15S12350   1.083   3.706   5.201  0.5968 -0.7642 -0.7082
  118OSM   H15S12351   1.012   3.792   5.201 -0.2627 -1.4536 -0.1477
  118OSM   H15T12352   1.022   3.614   5.215  0.8541 -0.7276  0.8169
  118OSM   C16S12353   1.140   3.688   5.056 -0.8931  0.2853  0.6388
  118OSM   H16S12354   1.214   3.605   5.057 -1.7778 -0.5780 -1.3581
  118OSM   H16T12355   1.197   3.774   5.015 -0.6615 -0.6042 -0.9850
  118OSM   C17S12356   1.036   3.667   4.943 -0.1712  0.6636 -0.0896
  118OSM   H17S12357   0.984   3.765   4.937  0.8468  1.3137  0.9952
  118OSM   H17T12358   0.957   3.593   4.970 -1.3405  1.6901 -0.6064
  118OSM   C18S12359   1.098   3.653   4.798 -0.4225 -0.1685 -0.1144
  118OSM   H18S12360   1.125   3.548   4.775  1.0959  0.3684 -0.9156
  118OSM   H18T12361   1.192   3.711   4.785 -1.5149  1.5856 -0.5795
  118OSM   H18U12362   1.009   3.680   4.736 -1.5681  0.4450  1.7260
  118OSM    C1F12363   1.146   4.020   6.566 -0.3127  0.3224  0.1418
  118OSM     OF12364   1.218   4.021   6.667  0.1577 -0.9255 -0.0048
  118OSM    C2F12365   1.153   4.124   6.459  0.3091  0.6365  0.0559
  118OSM    H2F12366   1.112   4.223   6.489  0.4331  0.6612  0.1426
  118OSM    H2G12367   1.095   4.093   6.370 -1.2166  0.7340  0.9832
  118OSM    C3F12368   1.297   4.147   6.408  0.5725 -0.1443 -0.7682
  118OSM    H3F12369   1.326   4.049   6.365 -0.0003 -1.7349  2.2358
  118OSM    H3G12370   1.364   4.160   6.495 -0.3435  0.2854 -0.1120
  118OSM    C4F12371   1.300   4.250   6.298  0.0394 -1.0863  0.8462
  118OSM    H4F12372   1.286   4.353   6.338 -1.1627 -0.6633 -0.5711
  118OSM    H4G12373   1.209   4.233   6.236 -2.4064  3.4526  2.7008
  118OSM    C5F12374   1.425   4.236   6.204  0.3525  0.3880 -0.0901
  118OSM    H5F12375   1.418   4.129   6.176 -2.1746  0.8283 -1.3735
  118OSM    H5G12376   1.515   4.252   6.267 -1.1467 -1.1975  2.6607
  118OSM    C6F12377   1.430   4.327   6.082  0.2171  0.2728  0.1955
  118OSM    H6F12378   1.529   4.331   6.033 -0.0958 -1.6638 -0.6817
  118OSM    H6G12379   1.400   4.430   6.113 -1.0349 -0.4676  1.5708
  118OSM    C7F12380   1.327   4.296   5.973  0.3767  0.3487  0.2241
  118OSM    H7F12381   1.227   4.306   6.021  0.4290  0.9179  0.2269
  118OSM    H7G12382   1.358   4.200   5.927  0.3635  1.5521 -2.5215
  118OSM    C8F12383   1.340   4.399   5.854  0.4097 -0.1531  0.1664
  118OSM    H8F12384   1.354   4.496   5.906 -0.4548  0.8527 -1.3884
  118OSM    H8G12385   1.245   4.402   5.796  1.0309  0.6964 -0.8425
  118OSM    C9F12386   1.468   4.389   5.777 -0.0535  0.0206 -0.0371
  118OSM    H9F12387   1.563   4.374   5.831  0.6567  0.3548 -1.1560
  118OSM   C10F12388   1.471   4.407   5.643  0.4030 -0.7216  0.3335
  118OSM   H10F12389   1.574   4.398   5.606  0.7590  1.9742  0.4684
  118OSM   C11F12390   1.357   4.443   5.545  0.1111 -0.3613 -0.1977
  118OSM   H11F12391   1.273   4.503   5.584  0.4550 -1.1628  1.9051
  118OSM   H11G12392   1.307   4.349   5.514 -0.1243  0.2858 -1.8716
  118OSM   C12F12393   1.405   4.492   5.407  0.3250 -0.1899  0.8064
  118OSM   H12F12394   1.478   4.429   5.353  1.9723  0.7583  1.8218
  118OSM   H12G12395   1.464   4.586   5.419  0.5406  0.0744 -1.8440
  118OSM   C13F12396   1.291   4.504   5.303  0.8318  0.1646 -0.6980
  118OSM   H13F12397   1.202   4.564   5.332 -0.5105 -2.1010  0.0820
  118OSM   H13G12398   1.254   4.402   5.281  1.5372  0.0404 -1.3494
  118OSM   C14F12399   1.338   4.554   5.172 -1.0252 -0.4006 -0.2668
  118OSM   H14F12400   1.438   4.511   5.151 -1.5211 -1.8701  0.2282
  118OSM   H14G12401   1.345   4.665   5.174  0.0874 -0.4486 -0.7380
  118OSM   C15F12402   1.253   4.509   5.054 -0.4017 -0.3500  0.2538
  118OSM   H15F12403   1.148   4.495   5.089 -0.1902 -1.7826  0.3425
  118OSM   H15G12404   1.280   4.403   5.040 -0.9165 -0.1297 -3.1545
  118OSM   C16F12405   1.283   4.585   4.923 -0.9109  0.5051 -0.4865
  118OSM   H16F12406   1.239   4.533   4.835  1.0521 -1.7208 -0.2740
  118OSM   H16G12407   1.393   4.590   4.905 -0.5313  2.0764  1.8543
  118OSM   C17F12408   1.225   4.727   4.911  0.9211 -0.4472  0.5372
  118OSM   H17F12409   1.273   4.785   4.993 -1.8837  1.4196  0.9723
  118OSM   H17G12410   1.118   4.729   4.941  1.0156  1.2524  0.8689
  118OSM   C18F12411   1.242   4.804   4.774 -0.7011  0.2003 -0.2876
  118OSM   H18F12412   1.205   4.736   4.694  1.7203 -2.2676  0.5177
  118OSM   H18G12413   1.349   4.813   4.745 -0.8772 -1.1241 -1.4535
  118OSM   H18H12414   1.200   4.907   4.771  0.4190  0.6739 -0.4141
  119OSM      N12415   4.318   1.017   6.957  0.0189  0.1273 -0.0968
  119OSM    C1512416   4.176   1.042   6.989 -0.1376 -0.7064  0.2852
  119OSM   H15A12417   4.136   0.979   7.067 -3.0456  0.0621 -0.4930
  119OSM   H15B12418   4.109   1.017   6.909 -2.1508  0.6298  1.4634
  119OSM   H15C12419   4.162   1.145   7.019  0.5323 -0.0808 -1.4641
  119OSM    C1412420   4.357   1.110   6.845  0.1149 -0.2769 -0.3272
  119OSM   H14A12421   4.458   1.096   6.807 -0.0187 -0.6469 -0.5508
  119OSM   H14B12422   4.345   1.213   6.874 -1.9486 -0.9095  1.3270
  119OSM   H14C12423   4.297   1.092   6.757  1.3773 -1.3474 -1.0099
  119OSM    C1312424   4.399   1.048   7.072 -0.5058 -0.1107  0.3743
  119OSM   H13A12425   4.361   0.989   7.153 -1.0124  1.3265  1.2203
  119OSM   H13B12426   4.379   1.150   7.101 -2.8299 -0.7133  1.1120
  119OSM   H13C12427   4.505   1.038   7.052 -0.9512 -1.9754 -1.3495
  119OSM    C1212428   4.347   0.871   6.918  0.1268  0.2421  0.3640
  119OSM   H12A12429   4.278   0.839   6.842  1.7594  0.1513 -1.1592
  119OSM   H12B12430   4.328   0.807   7.003 -0.1214  0.9659  0.8660
  119OSM    C1112431   4.483   0.825   6.858 -0.1436  0.1079  0.4761
  119OSM   H11A12432   4.514   0.878   6.765 -0.7292 -1.0736 -0.4263
  119OSM   H11B12433   4.467   0.720   6.823 -1.0795  0.4857 -0.2872
  119OSM      P12434   4.717   0.884   6.965 -0.2199 -0.6360  0.6287
  119OSM    O1312435   4.712   0.990   7.068  0.4511 -0.7671 -0.8162
  119OSM    O1412436   4.814   0.775   6.976  0.1102 -0.4047  0.3038
  119OSM    O1112437   4.728   0.958   6.818 -0.3051  0.0205 -0.0425
  119OSM    O1212438   4.576   0.818   6.961 -0.0523 -0.7201  0.2033
  119OSM    C1S12439   4.844   0.971   6.737 -0.2672 -0.0641 -0.0601
  119OSM    H1S12440   4.931   0.918   6.781 -0.9080 -0.1124  1.1865
  119OSM    H1T12441   4.857   1.081   6.734  0.0568  0.1613  3.9012
  119OSM     NF12442   4.958   0.929   6.524  0.3758 -0.9866  0.0624
  119OSM    HNF12443   4.980   1.003   6.461  0.3545 -2.0341 -1.2221
  119OSM    C2S12444   4.830   0.925   6.590 -0.1826 -0.6856  0.4462
  119OSM    H2S12445   4.802   0.819   6.574  1.8749 -1.0232 -1.2701
  119OSM    C3S12446   4.727   1.013   6.518 -0.9592  0.6781  0.1326
  119OSM    H3S12447   4.765   1.117   6.518 -0.7270  0.5950  0.4736
  119OSM     O312448   4.613   1.033   6.585  0.7591  0.1516 -0.2835
  119OSM    HO312449   4.640   1.027   6.676 -0.2312 -0.1201  0.0066
  119OSM    C4S12450   4.711   0.961   6.378  0.7686  0.1467 -0.1302
  119OSM    H4S12451   4.675   0.857   6.374 -1.8474  0.9841 -0.2487
  119OSM    C5S12452   4.729   1.038   6.269  0.0724  1.1359  0.0913
  119OSM    H5S12453   4.776   1.138   6.268  0.0372  1.2703 -3.7973
  119OSM    C6S12454   4.711   0.973   6.135  0.0530  0.3593 -0.2811
  119OSM    H6S12455   4.635   1.030   6.078  0.6623  1.7132  0.2190
  119OSM    H6T12456   4.700   0.863   6.140 -0.6125  0.4690  1.3035
  119OSM    C7S12457   4.847   1.015   6.063 -0.3520  0.2397  0.8759
  119OSM    H7S12458   4.932   0.963   6.112  2.6570 -1.3915 -5.1389
  119OSM    H7T12459   4.872   1.123   6.062 -0.2330  0.2552 -1.6058
  119OSM    C8S12460   4.861   0.962   5.917  0.3050 -0.4703  0.6235
  119OSM    H8S12461   4.870   0.851   5.909 -1.7501 -0.8130  2.1042
  119OSM    H8T12462   4.942   1.010   5.858 -0.2479 -0.7464 -0.3955
  119OSM    C9S12463   4.747   0.997   5.813 -0.2960 -0.0542  0.0922
  119OSM    H9S12464   4.706   1.096   5.842  0.3487 -0.1203  1.2867
  119OSM    H9T12465   4.665   0.923   5.828 -1.4394  0.6544 -2.2643
  119OSM   C10S12466   4.805   1.004   5.659  0.0792 -0.3067 -0.2915
  119OSM   H10S12467   4.854   0.905   5.645 -0.3631 -0.7903  1.2649
  119OSM   H10T12468   4.889   1.074   5.640 -0.6457  0.8852  0.7315
  119OSM   C11S12469   4.695   1.025   5.554 -0.3290  0.3992  0.4372
  119OSM   H11S12470   4.627   0.939   5.565 -0.6560  0.6725  0.5842
  119OSM   H11T12471   4.734   1.031   5.450  0.9722 -0.3730  0.8531
  119OSM   C12S12472   4.605   1.151   5.573 -0.0630  0.7995 -0.7358
  119OSM   H12S12473   4.666   1.243   5.585  0.0866  0.7809 -1.3341
  119OSM   H12T12474   4.555   1.148   5.672 -0.7198  0.9049 -1.0568
  119OSM   C13S12475   4.509   1.175   5.455 -0.1445  0.2354  0.3168
  119OSM   H13S12476   4.572   1.166   5.364  2.1540  0.7325  1.7800
  119OSM   H13T12477   4.465   1.276   5.463 -1.2896 -0.1833 -0.4176
  119OSM   C14S12478   4.397   1.081   5.443  1.1862 -0.1346  0.0006
  119OSM   H14S12479   4.318   1.085   5.521 -0.3696  3.3234 -1.5485
  119OSM   H14T12480   4.440   0.979   5.446 -0.6581 -0.9417  2.2214
  119OSM   C15S12481   4.323   1.090   5.305 -0.3072  0.1612  0.1472
  119OSM   H15S12482   4.259   1.002   5.285 -0.9419  0.5971  0.2254
  119OSM   H15T12483   4.405   1.096   5.229 -0.1450  2.9477  0.4083
  119OSM   C16S12484   4.249   1.223   5.294  0.4485 -0.4790  0.0317
  119OSM   H16S12485   4.317   1.309   5.307 -0.8087  0.4924  0.3981
  119OSM   H16T12486   4.164   1.220   5.366 -1.0350 -1.2697 -1.6683
  119OSM   C17S12487   4.179   1.235   5.158  0.1746  0.1022  0.6880
  119OSM   H17S12488   4.116   1.150   5.124 -3.0530  3.0499 -1.4186
  119OSM   H17T12489   4.258   1.242   5.080 -0.3233 -0.4025  0.1350
  119OSM   C18S12490   4.086   1.357   5.160  0.4926  0.0404 -0.0461
  119OSM   H18S12491   4.137   1.447   5.200 -0.1281  0.6846 -0.6787
  119OSM   H18T12492   3.987   1.343   5.208  0.1738 -1.2048 -1.0132
  119OSM   H18U12493   4.068   1.378   5.053  3.2857 -4.6637 -1.7625
  119OSM    C1F12494   5.058   0.845   6.562  0.4136  0.5501 -0.1462
  119OSM     OF12495   5.035   0.748   6.639  0.3575 -0.3292  0.1983
  119OSM    C2F12496   5.193   0.868   6.508 -0.2873 -0.5679  0.4946
  119OSM    H2F12497   5.264   0.867   6.593 -1.6432  0.4810  1.6855
  119OSM    H2G12498   5.189   0.967   6.457  1.5951 -0.9533 -0.5058
  119OSM    C3F12499   5.228   0.759   6.404 -0.5368  0.1496 -0.3035
  119OSM    H3F12500   5.216   0.655   6.442  2.2870 -0.2340 -0.2624
  119OSM    H3G12501   5.337   0.774   6.386 -0.9487  1.7018 -1.8708
  119OSM    C4F12502   5.151   0.784   6.270 -0.3972 -0.4897 -0.8470
  119OSM    H4F12503   5.158   0.891   6.240 -0.5647  0.3018  1.7231
  119OSM    H4G12504   5.044   0.765   6.292 -0.4224  0.4984 -0.0610
  119OSM    C5F12505   5.209   0.707   6.152  0.6750 -0.2898  0.1411
  119OSM    H5F12506   5.188   0.601   6.175 -0.2374  0.0751  1.0786
  119OSM    H5G12507   5.318   0.725   6.139  0.9135 -2.1641 -0.7721
  119OSM    C6F12508   5.144   0.747   6.019  0.2987  0.0369  0.5785
  119OSM    H6F12509   5.193   0.835   5.972 -0.3444 -0.9072 -2.0660
  119OSM    H6G12510   5.037   0.771   6.035 -0.0833  2.2862 -3.8044
  119OSM    C7F12511   5.161   0.645   5.904 -0.0359  0.0880  0.3388
  119OSM    H7F12512   5.112   0.549   5.932  0.4604 -0.0746  0.6568
  119OSM    H7G12513   5.271   0.636   5.895 -0.1025  0.9542 -1.9985
  119OSM    C8F12514   5.102   0.690   5.771 -0.1137  0.3361 -0.0184
  119OSM    H8F12515   5.130   0.794   5.746  0.7395  0.3834  1.0612
  119OSM    H8G12516   4.991   0.698   5.781 -0.1660  1.5304 -1.3537
  119OSM    C9F12517   5.146   0.601   5.662  0.1636  0.2316  0.2976
  119OSM    H9F12518   5.118   0.495   5.675 -5.5508  1.2791 -0.8725
  119OSM   C10F12519   5.205   0.642   5.547 -0.3930  0.1046  0.0830
  119OSM   H10F12520   5.241   0.562   5.481 -1.2748  0.0203 -0.3074
  119OSM   C11F12521   5.248   0.781   5.518 -0.1717 -0.0247  0.4643
  119OSM   H11F12522   5.333   0.764   5.448 -0.2025 -0.2125  0.4717
  119OSM   H11G12523   5.298   0.826   5.607 -0.0102 -0.2651  0.4943
  119OSM   C12F12524   5.149   0.886   5.467 -0.1601 -0.8025  0.1285
  119OSM   H12F12525   5.065   0.895   5.540 -1.0369  0.0160 -0.9522
  119OSM   H12G12526   5.110   0.850   5.369  0.7772 -1.2452 -0.0927
  119OSM   C13F12527   5.214   1.027   5.443 -0.2292  0.9240 -0.8507
  119OSM   H13F12528   5.291   1.034   5.363  1.9582  0.3375  1.0859
  119OSM   H13G12529   5.276   1.057   5.529  0.4591 -0.0254 -0.9996
  119OSM   C14F12530   5.115   1.138   5.418 -0.2888 -0.0318 -0.1034
  119OSM   H14F12531   5.167   1.236   5.432 -0.3600  0.0629 -0.4938
  119OSM   H14G12532   5.043   1.117   5.501  0.9480  0.9277  1.2742
  119OSM   C15F12533   5.063   1.131   5.274 -0.7163  0.4857 -0.6654
  119OSM   H15F12534   4.977   1.201   5.275 -0.5034  0.8206  1.6103
  119OSM   H15G12535   5.026   1.027   5.262  1.1353 -0.2961 -0.0615
  119OSM   C16F12536   5.167   1.171   5.168 -0.0484  1.1178 -0.0176
  119OSM   H16F12537   5.229   1.080   5.154 -2.8056 -0.7009 -1.5051
  119OSM   H16G12538   5.244   1.245   5.197  0.1119  0.7741  0.4493
  119OSM   C17F12539   5.104   1.200   5.031  0.1718  0.0229  0.1447
  119OSM   H17F12540   5.185   1.206   4.955 -0.1285 -0.2806 -0.2099
  119OSM   H17G12541   5.052   1.298   5.030 -1.4084 -0.7790 -1.2026
  119OSM   C18F12542   5.006   1.097   4.980  0.2528 -0.2427 -0.3965
  119OSM   H18F12543   4.990   1.096   4.870  1.4973 -2.9915 -0.6491
  119OSM   H18G12544   4.906   1.117   5.025  0.1107 -0.3050 -0.6761
  119OSM   H18H12545   5.037   0.997   5.019 -0.6654 -0.3753  0.0291
  120OSM      N12546   5.453   3.720   6.800  0.3319  0.3368 -0.1921
  120OSM    C1512547   5.494   3.756   6.659  0.1809  0.6859  0.5580
  120OSM   H15A12548   5.579   3.821   6.645  0.9519 -0.6975 -1.5834
  120OSM   H15B12549   5.416   3.805   6.602 -1.5324 -2.9639 -0.4868
  120OSM   H15C12550   5.497   3.676   6.588 -1.8082  1.7543 -0.8242
  120OSM    C1412551   5.324   3.639   6.796 -0.4195 -0.2304 -0.3413
  120OSM   H14A12552   5.241   3.702   6.768 -1.8092 -2.5988 -1.7919
  120OSM   H14B12553   5.292   3.603   6.892 -2.7422  0.7898 -0.6551
  120OSM   H14C12554   5.337   3.545   6.746 -0.4219 -0.0853 -0.6184
  120OSM    C1312555   5.567   3.631   6.853  0.1086  0.0325  0.0134
  120OSM   H13A12556   5.613   3.565   6.781  1.3186 -0.3881  1.1322
  120OSM   H13B12557   5.545   3.590   6.950  1.2293  4.6426  2.4809
  120OSM   H13C12558   5.653   3.689   6.884  0.4439 -1.8840  3.0213
  120OSM    C1212559   5.440   3.835   6.895 -0.2834  0.1445 -0.5842
  120OSM   H12A12560   5.414   3.803   6.994 -0.7694  2.3025  0.0214
  120OSM   H12B12561   5.361   3.904   6.870 -2.2505 -1.5636  0.6132
  120OSM    C1112562   5.563   3.933   6.899  0.7866 -0.2762 -0.6992
  120OSM   H11A12563   5.648   3.863   6.913  0.5793 -0.4861 -0.4615
  120OSM   H11B12564   5.554   4.011   6.978 -0.3619  0.2213 -1.2983
  120OSM      P12565   5.484   4.117   6.736  0.1086 -0.3287 -0.6183
  120OSM    O1312566   5.343   4.074   6.746  0.2992 -0.5494 -0.4119
  120OSM    O1412567   5.519   4.238   6.811  0.5011  0.1249 -0.2698
  120OSM    O1112568   5.515   4.150   6.585 -0.2930  0.2923 -0.1182
  120OSM    O1212569   5.580   4.003   6.773  0.1875  0.4740  0.1840
  120OSM    C1S12570   5.489   4.270   6.514  0.2465 -0.1230  0.5346
  120OSM    H1S12571   5.549   4.348   6.565 -0.7131  0.2879  1.0780
  120OSM    H1T12572   5.379   4.289   6.513  0.5198  1.6425 -0.4886
  120OSM     NF12573   5.496   4.402   6.315  0.2118 -0.1538 -0.4919
  120OSM    HNF12574   5.403   4.411   6.281  0.5531 -1.8393 -1.9832
  120OSM    C2S12575   5.526   4.267   6.360  0.0284 -0.4774  0.7073
  120OSM    H2S12576   5.634   4.244   6.344 -0.3932 -0.4506 -3.5037
  120OSM    C3S12577   5.447   4.156   6.290  0.2606  0.3502  0.3161
  120OSM    H3S12578   5.337   4.171   6.291 -0.0289 -1.4959 -0.1510
  120OSM     O312579   5.455   4.027   6.349 -0.1945  0.1062 -0.1327
  120OSM    HO312580   5.461   4.046   6.442 -0.3153 -0.6975  0.0456
  120OSM    C4S12581   5.477   4.150   6.137  0.5646 -0.2948 -0.5698
  120OSM    H4S12582   5.404   4.202   6.073  0.5941  0.8188  0.2556
  120OSM    C5S12583   5.586   4.096   6.082  0.0797 -0.1197 -0.7204
  120OSM    H5S12584   5.647   4.035   6.150 -0.0167  1.8996  1.3000
  120OSM    C6S12585   5.628   4.113   5.945  0.0779  0.0216  0.2239
  120OSM    H6S12586   5.613   4.022   5.884  1.8718 -0.9316  1.1274
  120OSM    H6T12587   5.737   4.134   5.950  0.2171 -0.7516  0.4107
  120OSM    C7S12588   5.563   4.230   5.864 -0.5489 -0.8786  0.4298
  120OSM    H7S12589   5.591   4.329   5.907 -5.3356  2.3003 -2.7418
  120OSM    H7T12590   5.452   4.239   5.871 -0.3495  0.6348  2.7427
  120OSM    C8S12591   5.595   4.229   5.718  0.1703 -0.2388  0.0229
  120OSM    H8S12592   5.543   4.138   5.681  0.3811 -0.7309  0.9045
  120OSM    H8T12593   5.703   4.207   5.710  0.1290  0.2996 -4.1529
  120OSM    C9S12594   5.557   4.348   5.645  0.4411  0.4370  0.5057
  120OSM    H9S12595   5.590   4.446   5.686  0.7920  1.6687 -2.4599
  120OSM    H9T12596   5.446   4.352   5.630  0.6863 -1.7966 -3.1455
  120OSM   C10S12597   5.617   4.344   5.501 -0.1977  0.0854 -0.1866
  120OSM   H10S12598   5.727   4.330   5.504 -0.0882  0.3317 -1.7976
  120OSM   H10T12599   5.597   4.442   5.452 -1.3162 -0.3457 -0.6247
  120OSM   C11S12600   5.544   4.244   5.416 -0.0401  0.9550 -0.1070
  120OSM   H11S12601   5.441   4.282   5.398  0.6523  2.7718 -0.4874
  120OSM   H11T12602   5.528   4.139   5.450 -0.6649  1.1407  0.1822
  120OSM   C12S12603   5.603   4.236   5.274 -0.1150  0.2540  0.1186
  120OSM   H12S12604   5.528   4.177   5.218 -0.6096  1.5213 -0.6108
  120OSM   H12T12605   5.698   4.179   5.272 -1.5790 -2.3125 -0.9764
  120OSM   C13S12606   5.629   4.374   5.198 -0.1214  0.1762 -0.0713
  120OSM   H13S12607   5.717   4.427   5.243 -1.2816  0.7329  1.6626
  120OSM   H13T12608   5.540   4.436   5.220  0.4650  0.5110  1.5179
  120OSM   C14S12609   5.642   4.348   5.045 -0.2669 -0.4113 -0.4772
  120OSM   H14S12610   5.558   4.295   4.996  0.1474 -0.4880 -1.1118
  120OSM   H14T12611   5.736   4.289   5.040 -1.2895 -2.1432 -0.1238
  120OSM   C15S12612   5.654   4.489   4.981  0.0033 -0.3356  0.3941
  120OSM   H15S12613   5.725   4.551   5.039  1.1225  0.0991 -1.3766
  120OSM   H15T12614   5.559   4.545   4.997 -0.5759 -1.4778  1.0426
  120OSM   C16S12615   5.701   4.469   4.834 -0.2856  0.1941 -0.3659
  120OSM   H16S12616   5.623   4.408   4.783  1.0744 -1.2219 -0.8584
  120OSM   H16T12617   5.790   4.403   4.837 -1.8837 -2.0105  1.3565
  120OSM   C17S12618   5.740   4.597   4.764  0.0433  0.7438  0.1611
  120OSM   H17S12619   5.783   4.580   4.663 -0.4830 -2.3880  0.3527
  120OSM   H17T12620   5.821   4.643   4.825  0.8831  1.8025 -1.6668
  120OSM   C18S12621   5.621   4.690   4.741  0.4493 -0.6337 -0.2094
  120OSM   H18S12622   5.537   4.630   4.699 -0.4748 -1.7079  2.9060
  120OSM   H18T12623   5.642   4.780   4.680 -0.8004  1.4949  2.3388
  120OSM   H18U12624   5.589   4.728   4.840 -0.9045 -0.0631 -0.8444
  120OSM    C1F12625   5.589   4.499   6.306  0.0157  0.3726 -0.2164
  120OSM     OF12626   5.708   4.475   6.337  0.2944 -0.1053 -0.2441
  120OSM    C2F12627   5.542   4.635   6.271  0.2338  0.0239  0.1964
  120OSM    H2F12628   5.589   4.710   6.337  2.5471  1.3718 -2.7482
  120OSM    H2G12629   5.432   4.633   6.288 -0.1401  2.8414 -1.3424
  120OSM    C3F12630   5.572   4.664   6.113 -0.1863 -0.3115 -0.6186
  120OSM    H3F12631   5.495   4.612   6.051 -0.6487 -1.2557  0.7054
  120OSM    H3G12632   5.674   4.633   6.083  0.5552  0.2645  1.1570
  120OSM    C4F12633   5.570   4.812   6.079  0.3549  0.0154 -0.0014
  120OSM    H4F12634   5.634   4.874   6.146  1.8768 -0.3406 -1.0704
  120OSM    H4G12635   5.465   4.846   6.083  0.4828  0.5060 -0.7158
  120OSM    C5F12636   5.627   4.842   5.935  0.2736 -0.3651  0.2656
  120OSM    H5F12637   5.599   4.764   5.861  1.3858  1.0993 -1.8354
  120OSM    H5G12638   5.739   4.845   5.933  0.2618  1.0098  0.2981
  120OSM    C6F12639   5.582   4.982   5.883 -0.2659 -0.0947  0.1888
  120OSM    H6F12640   5.473   4.997   5.891 -0.1699  1.9651 -1.5188
  120OSM    H6G12641   5.620   4.997   5.780  1.9651  2.3315  1.2520
  120OSM    C7F12642   5.658   5.082   5.972  0.0239 -0.0648 -0.2798
  120OSM    H7F12643   5.739   5.036   6.033  0.2516  0.0380 -0.5057
  120OSM    H7G12644   5.590   5.108   6.056 -0.2333  1.5600 -0.9555
  120OSM    C8F12645   5.723   5.198   5.896 -0.6216 -0.1944 -0.0700
  120OSM    H8F12646   5.766   5.262   5.975 -2.0478  0.0462  0.5470
  120OSM    H8G12647   5.643   5.254   5.842 -2.8206 -2.2060  0.8983
  120OSM    C9F12648   5.834   5.158   5.808 -0.5660 -0.0866  0.6305
  120OSM    H9F12649   5.893   5.082   5.862  0.2902  0.1761  0.0868
  120OSM   C10F12650   5.855   5.207   5.681 -0.1056  0.6469  0.0744
  120OSM   H10F12651   5.942   5.176   5.620 -1.3774 -0.6060 -1.1888
  120OSM   C11F12652   5.775   5.306   5.600 -0.7461 -0.7216 -0.2395
  120OSM   H11F12653   5.844   5.384   5.561  0.4219 -1.3682  0.4777
  120OSM   H11G12654   5.701   5.354   5.668  0.4660 -0.6826  1.1122
  120OSM   C12F12655   5.689   5.258   5.480 -0.0777 -0.1146  0.1477
  120OSM   H12F12656   5.754   5.239   5.392 -0.1862  0.0483  0.0313
  120OSM   H12G12657   5.625   5.343   5.448  1.2726 -0.2784 -3.4543
  120OSM   C13F12658   5.598   5.139   5.515  0.2782  0.0372  0.6172
  120OSM   H13F12659   5.529   5.155   5.600  1.2029 -1.2172  1.6360
  120OSM   H13G12660   5.657   5.048   5.539  0.0998 -1.1637 -2.8194
  120OSM   C14F12661   5.509   5.101   5.392  0.8979 -0.2079  0.0256
  120OSM   H14F12662   5.436   5.183   5.372 -0.2668 -0.5576  2.4733
  120OSM   H14G12663   5.441   5.021   5.428 -0.4015  1.2472  0.9779
  120OSM   C15F12664   5.579   5.056   5.254  0.0159 -0.6368  0.4568
  120OSM   H15F12665   5.631   4.959   5.271 -3.2282 -2.6068 -0.0835
  120OSM   H15G12666   5.651   5.134   5.220  2.2210 -1.0193  3.8076
  120OSM   C16F12667   5.473   5.053   5.147  0.0560 -0.4233  0.2423
  120OSM   H16F12668   5.422   5.151   5.138  0.7884 -0.1627 -1.4203
  120OSM   H16G12669   5.395   4.976   5.167 -1.7937  0.9592 -1.2575
  120OSM   C17F12670   5.538   5.019   5.012  0.2341 -0.1604  0.2760
  120OSM   H17F12671   5.549   4.909   5.019  1.5268 -0.0563  0.1926
  120OSM   H17G12672   5.635   5.071   4.994 -0.3959  1.0758  0.3495
  120OSM   C18F12673   5.438   5.059   4.898  0.0734 -0.1994  0.7146
  120OSM   H18F12674   5.417   5.168   4.898 -0.2443 -0.2532  1.5917
  120OSM   H18G12675   5.340   5.014   4.925 -0.5474  0.6879 -0.0112
  120OSM   H18H12676   5.481   5.038   4.798 -1.5508  0.6945 -0.2217
  121OSM      N12677   6.575   1.923   6.816 -0.5026  0.0506 -0.0339
  121OSM    C1512678   6.653   1.992   6.917 -0.2191 -0.0495  0.5308
  121OSM   H15A12679   6.631   2.098   6.926  2.4103  0.4797  1.6548
  121OSM   H15B12680   6.758   1.996   6.892 -0.6938  1.5647 -1.5084
  121OSM   H15C12681   6.639   1.945   7.013 -1.2670 -0.9478 -0.0381
  121OSM    C1412682   6.633   1.790   6.786 -0.3731 -0.2855 -0.2738
  121OSM   H14A12683   6.739   1.783   6.766 -0.0213 -0.0547  1.4315
  121OSM   H14B12684   6.590   1.738   6.702  0.0787 -1.6776  0.3334
  121OSM   H14C12685   6.619   1.724   6.869  2.5408 -0.0228  0.5472
  121OSM    C1312686   6.442   1.895   6.887 -0.0242 -0.3999 -0.8572
  121OSM   H13A12687   6.370   1.850   6.820 -2.0006 -0.4723  1.1989
  121OSM   H13B12688   6.408   1.984   6.938  2.3611 -0.1802  0.5404
  121OSM   H13C12689   6.450   1.821   6.965 -0.2699  0.6163  0.1527
  121OSM    C1212690   6.558   2.007   6.686  0.1525  0.3737 -0.3710
  121OSM   H12A12691   6.508   1.960   6.603  1.1941  0.0244 -0.8251
  121OSM   H12B12692   6.656   2.015   6.640 -0.7219  0.4208 -2.3307
  121OSM    C1112693   6.506   2.153   6.684  0.7498  0.0176 -0.0846
  121OSM   H11A12694   6.413   2.142   6.745 -0.5699  3.0893 -1.3185
  121OSM   H11B12695   6.466   2.191   6.587  2.1179 -1.1903 -1.1605
  121OSM      P12696   6.715   2.295   6.680  0.3627 -0.3370 -0.2092
  121OSM    O1312697   6.719   2.441   6.672  0.3441  0.3198 -0.1177
  121OSM    O1412698   6.825   2.226   6.753  0.7325  0.1741 -0.0267
  121OSM    O1112699   6.701   2.224   6.537 -0.3960 -0.2322  0.7944
  121OSM    O1212700   6.587   2.247   6.753  0.0804  0.0498  0.0689
  121OSM    C1S12701   6.657   2.308   6.426  0.4032  0.1720 -0.0879
  121OSM    H1S12702   6.743   2.376   6.407 -0.3413  1.5185  1.1713
  121OSM    H1T12703   6.569   2.369   6.456 -1.2294 -1.5929 -1.0550
  121OSM     NF12704   6.546   2.309   6.202  0.0719  0.0077  0.6717
  121OSM    HNF12705   6.453   2.281   6.180 -0.4879  1.5015  1.0211
  121OSM    C2S12706   6.618   2.229   6.300 -0.3255  0.0400 -0.9500
  121OSM    H2S12707   6.714   2.202   6.250  1.2479  0.9574  1.3977
  121OSM    C3S12708   6.552   2.096   6.336  0.3337  0.2887 -0.3582
  121OSM    H3S12709   6.449   2.115   6.372  0.2928  0.7667 -0.7292
  121OSM     O312710   6.618   2.000   6.416  0.2382  0.4795 -0.2347
  121OSM    HO312711   6.690   2.052   6.453 -1.0871  1.2081  1.4161
  121OSM    C4S12712   6.531   2.035   6.207 -0.1233  0.3135  0.1044
  121OSM    H4S12713   6.622   1.982   6.174  0.9883  2.0093  0.3512
  121OSM    C5S12714   6.416   2.024   6.135  0.0231  0.1645  0.0308
  121OSM    H5S12715   6.326   2.074   6.173  0.9168  0.4560  1.8206
  121OSM    C6S12716   6.389   1.945   6.012 -0.2522  0.1524 -0.4912
  121OSM    H6S12717   6.363   2.012   5.927 -0.1275  0.5869 -0.1860
  121OSM    H6T12718   6.307   1.870   6.018  0.7978 -1.0237 -0.2378
  121OSM    C7S12719   6.516   1.869   5.965 -0.8236  0.5385 -0.4285
  121OSM    H7S12720   6.551   1.798   6.042 -1.0643  1.7021  0.7858
  121OSM    H7T12721   6.592   1.942   5.928 -0.7770  0.4163 -0.5752
  121OSM    C8S12722   6.487   1.784   5.837 -0.2879  0.4241 -0.7598
  121OSM    H8S12723   6.401   1.718   5.862 -0.9603  2.1338  1.7930
  121OSM    H8T12724   6.569   1.714   5.806 -1.7714 -0.5850 -2.6475
  121OSM    C9S12725   6.485   1.858   5.707  0.5469 -0.3116  0.9572
  121OSM    H9S12726   6.580   1.911   5.687  0.3836 -0.6013 -0.7366
  121OSM    H9T12727   6.396   1.923   5.723 -1.1915 -2.1219 -0.6596
  121OSM   C10S12728   6.449   1.782   5.578  0.2098 -0.5631  0.0042
  121OSM   H10S12729   6.353   1.731   5.604  0.8558 -1.2689  1.1173
  121OSM   H10T12730   6.516   1.698   5.550  1.7742  1.8527 -4.4725
  121OSM   C11S12731   6.456   1.877   5.458 -0.4126  0.0161 -0.8987
  121OSM   H11S12732   6.556   1.924   5.445 -0.2051  1.5084  3.9826
  121OSM   H11T12733   6.387   1.963   5.473 -1.6386 -1.2594  1.2361
  121OSM   C12S12734   6.403   1.804   5.336 -0.4872 -0.3335  0.0162
  121OSM   H12S12735   6.304   1.757   5.353 -0.4742 -0.2155  0.4403
  121OSM   H12T12736   6.477   1.728   5.304 -0.0723  1.2394 -3.0798
  121OSM   C13S12737   6.381   1.903   5.224 -0.5185  0.9518 -0.0498
  121OSM   H13S12738   6.478   1.944   5.189 -0.8584  1.3184 -0.5769
  121OSM   H13T12739   6.317   1.985   5.264 -2.2421 -0.6502  0.6355
  121OSM   C14S12740   6.307   1.856   5.095 -0.0920 -0.0450  0.0188
  121OSM   H14S12741   6.212   1.819   5.140  0.4969  3.3470  4.6986
  121OSM   H14T12742   6.366   1.779   5.041 -0.2468  0.1204 -0.3897
  121OSM   C15S12743   6.269   1.976   5.009 -0.4320 -0.2515 -0.2428
  121OSM   H15S12744   6.364   2.029   4.986 -1.9541  3.1516  0.5645
  121OSM   H15T12745   6.202   2.040   5.071 -0.7415 -0.2333 -0.5917
  121OSM   C16S12746   6.196   1.945   4.884  0.4625  0.4041 -0.1221
  121OSM   H16S12747   6.094   1.903   4.897 -0.2506  2.1709  0.2993
  121OSM   H16T12748   6.247   1.872   4.818 -2.6033  0.1297 -2.4025
  121OSM   C17S12749   6.170   2.072   4.806 -0.1953  0.2761 -0.0102
  121OSM   H17S12750   6.259   2.137   4.800  1.1193 -1.5231 -1.0972
  121OSM   H17T12751   6.092   2.131   4.858 -0.7775 -0.9930  0.6226
  121OSM   C18S12752   6.113   2.053   4.663  0.1366 -0.4876  0.5800
  121OSM   H18S12753   6.127   2.143   4.599  1.2995 -1.3947 -0.4745
  121OSM   H18T12754   6.002   2.046   4.668  0.1896 -1.2712  0.6717
  121OSM   H18U12755   6.155   1.963   4.614  2.9773  0.7977  0.4577
  121OSM    C1F12756   6.603   2.417   6.150  0.1478  0.4670 -0.7087
  121OSM     OF12757   6.716   2.437   6.177  0.2203  0.2710  0.3332
  121OSM    C2F12758   6.518   2.498   6.062  0.2347 -0.3062 -0.2483
  121OSM    H2F12759   6.443   2.554   6.121  0.8107 -0.8180  1.0054
  121OSM    H2G12760   6.469   2.424   5.995  0.0608 -2.0665  1.6836
  121OSM    C3F12761   6.610   2.582   5.977 -0.4544  0.0097  0.0001
  121OSM    H3F12762   6.685   2.527   5.916 -0.5434 -1.3502  1.0752
  121OSM    H3G12763   6.671   2.650   6.039  0.5755  0.3350 -1.3109
  121OSM    C4F12764   6.522   2.663   5.877 -0.4130 -0.4002  0.0809
  121OSM    H4F12765   6.431   2.707   5.923 -0.3517 -1.2311  1.0300
  121OSM    H4G12766   6.487   2.594   5.797 -0.8908  1.3038 -1.2546
  121OSM    C5F12767   6.597   2.779   5.813  0.0456 -0.3822  0.2229
  121OSM    H5F12768   6.705   2.755   5.805  0.8681  2.3946  1.6674
  121OSM    H5G12769   6.589   2.867   5.879 -2.1205 -0.8212  0.6316
  121OSM    C6F12770   6.555   2.827   5.677 -0.5108 -0.0802  0.4481
  121OSM    H6F12771   6.448   2.857   5.679 -0.4050  0.4255 -0.6620
  121OSM    H6G12772   6.560   2.741   5.607  0.9004  1.0735 -0.9471
  121OSM    C7F12773   6.627   2.947   5.621 -0.1840 -0.1901 -0.4186
  121OSM    H7F12774   6.735   2.925   5.639  0.3461  0.3199 -2.6248
  121OSM    H7G12775   6.600   3.032   5.688 -1.6698 -1.0207  0.0588
  121OSM    C8F12776   6.607   2.986   5.475  0.4346  0.6072  0.4166
  121OSM    H8F12777   6.642   2.905   5.408 -2.4542  1.2476 -2.0682
  121OSM    H8G12778   6.672   3.076   5.462 -1.7409  2.7650  3.3838
  121OSM    C9F12779   6.465   3.018   5.454  0.4581 -0.2960  0.5373
  121OSM    H9F12780   6.427   3.067   5.545  0.3370 -2.9323  1.9780
  121OSM   C10F12781   6.387   2.989   5.349  0.2223  0.0665 -0.2539
  121OSM   H10F12782   6.280   3.014   5.361 -0.2525  0.0020 -3.5120
  121OSM   C11F12783   6.424   2.926   5.221  0.4372 -0.1449  0.1161
  121OSM   H11F12784   6.344   2.852   5.199  1.3168 -1.7808  2.0924
  121OSM   H11G12785   6.519   2.869   5.222  0.7618  0.3799  0.0049
  121OSM   C12F12786   6.440   3.039   5.120  0.7294 -0.0997 -0.1439
  121OSM   H12F12787   6.492   3.125   5.167  1.2692  0.2490 -1.3359
  121OSM   H12G12788   6.343   3.069   5.075  0.3426 -0.5362  0.3926
  121OSM   C13F12789   6.519   2.999   4.995 -0.2110 -0.0860 -0.6020
  121OSM   H13F12790   6.495   2.898   4.957  2.4557 -0.6374 -1.0115
  121OSM   H13G12791   6.627   2.996   5.021  0.7848 -0.2577 -4.2093
  121OSM   C14F12792   6.497   3.089   4.878  0.7066  0.8843  0.8694
  121OSM   H14F12793   6.478   3.193   4.912 -0.0690  0.4289  1.8607
  121OSM   H14G12794   6.407   3.066   4.818  3.3562 -0.6771 -2.8924
  121OSM   C15F12795   6.613   3.097   4.774 -0.2238  0.5159 -0.2023
  121OSM   H15F12796   6.638   2.990   4.752 -2.8645 -0.0956 -0.6617
  121OSM   H15G12797   6.701   3.152   4.812 -0.5192  0.6851  0.2407
  121OSM   C16F12798   6.571   3.165   4.646  0.0744 -0.2084  0.3186
  121OSM   H16F12799   6.544   3.270   4.673  2.6691  0.9382 -1.1899
  121OSM   H16G12800   6.480   3.111   4.613 -0.6806  0.8902  0.5191
  121OSM   C17F12801   6.674   3.158   4.540  0.6369  0.5047 -0.0672
  121OSM   H17F12802   6.698   3.051   4.524  0.9015  0.3160  1.3945
  121OSM   H17G12803   6.764   3.194   4.595  1.7992  1.9149 -2.7279
  121OSM   C18F12804   6.663   3.237   4.413 -0.4311  0.0669 -0.0579
  121OSM   H18F12805   6.638   3.344   4.424 -0.0789  0.0628  0.8139
  121OSM   H18G12806   6.592   3.196   4.338  0.3147  1.5627 -1.6429
  121OSM   H18H12807   6.758   3.232   4.356 -0.3429  1.2388 -0.0359
  122OSM      N12808   6.483   5.212   6.725 -0.2234 -0.0094  0.1334
  122OSM    C1512809   6.428   5.088   6.798  0.6009 -0.0394  0.0790
  122OSM   H15A12810   6.495   5.004   6.808 -1.7492 -1.8442  1.3993
  122OSM   H15B12811   6.347   5.047   6.741  2.1738 -1.2942 -1.3516
  122OSM   H15C12812   6.395   5.119   6.896  0.5301 -1.6495  0.5780
  122OSM    C1412813   6.563   5.284   6.832 -0.3476  0.2280 -0.1793
  122OSM   H14A12814   6.665   5.248   6.837  0.0106  1.2285  0.1049
  122OSM   H14B12815   6.535   5.263   6.934  2.7655 -0.9948  0.5441
  122OSM   H14C12816   6.566   5.388   6.802  1.0561 -0.2232 -1.7339
  122OSM    C1312817   6.569   5.168   6.614 -0.6354  0.5209  0.5178
  122OSM   H13A12818   6.645   5.103   6.653 -1.0060  0.8276  1.8162
  122OSM   H13B12819   6.622   5.253   6.573 -1.3394  0.1789 -1.2150
  122OSM   H13C12820   6.501   5.125   6.542  0.7922 -2.1294  0.6448
  122OSM    C1212821   6.374   5.299   6.674 -0.6175 -0.5726  0.7672
  122OSM   H12A12822   6.312   5.314   6.761  1.5373  5.0002  1.7531
  122OSM   H12B12823   6.327   5.250   6.591  1.0106  1.6871 -1.6417
  122OSM    C1112824   6.405   5.442   6.628  0.0885  0.6035  0.7056
  122OSM   H11A12825   6.331   5.486   6.557  3.0857  1.8978 -1.8134
  122OSM   H11B12826   6.495   5.434   6.564  0.5963  1.7633  1.2530
  122OSM      P12827   6.314   5.590   6.835  0.2381  0.1443 -0.4813
  122OSM    O1312828   6.223   5.484   6.884 -1.1663  0.0928  0.1256
  122OSM    O1412829   6.390   5.680   6.930 -0.0234  0.2573 -0.0468
  122OSM    O1112830   6.217   5.678   6.745  0.2651  0.7338  0.0278
  122OSM    O1212831   6.422   5.530   6.740 -0.1747 -0.6020  0.2346
  122OSM    C1S12832   6.270   5.761   6.644 -0.8498  0.1075  0.8487
  122OSM    H1S12833   6.359   5.710   6.601  0.1733 -1.3602  4.3233
  122OSM    H1T12834   6.294   5.858   6.693 -3.8323  2.0308 -1.2354
  122OSM     NF12835   6.244   5.846   6.421  0.0125 -0.0827  0.6003
  122OSM    HNF12836   6.246   5.945   6.432 -0.3288 -0.0299  0.2040
  122OSM    C2S12837   6.172   5.787   6.529  0.0293 -0.2772  0.3795
  122OSM    H2S12838   6.118   5.699   6.489 -2.4039  1.6587 -0.9133
  122OSM    C3S12839   6.067   5.886   6.586  0.3795  0.1323 -0.0780
  122OSM    H3S12840   6.115   5.975   6.631 -3.0750  0.2930  4.0195
  122OSM     O312841   5.994   5.832   6.698  0.4708  0.6878 -0.0001
  122OSM    HO312842   6.052   5.765   6.733  1.5619  0.6608 -1.7845
  122OSM    C4S12843   5.963   5.926   6.480  0.2950  0.5357 -0.2287
  122OSM    H4S12844   5.913   5.845   6.424  2.0320  0.2731 -1.5156
  122OSM    C5S12845   5.927   6.047   6.446  0.3685 -0.5032  0.7140
  122OSM    H5S12846   5.977   6.125   6.504 -1.3420  1.2926 -0.1076
  122OSM    C6S12847   5.826   6.091   6.341 -0.9649 -0.0057 -0.1789
  122OSM    H6S12848   5.875   6.175   6.287 -0.6923  0.6429  1.0409
  122OSM    H6T12849   5.742   6.137   6.397 -0.0371  0.3714  0.9389
  122OSM    C7S12850   5.763   5.977   6.248 -0.4909  0.6675 -0.0119
  122OSM    H7S12851   5.693   6.031   6.180 -0.4715 -0.9165 -1.3620
  122OSM    H7T12852   5.712   5.907   6.317 -1.3122  1.9686  0.7392
  122OSM    C8S12853   5.862   5.908   6.152 -0.0215 -0.1559  0.2318
  122OSM    H8S12854   5.822   5.816   6.105  1.3671 -0.1075 -1.1405
  122OSM    H8T12855   5.947   5.871   6.214 -0.7835  2.2752  2.9592
  122OSM    C9S12856   5.908   6.002   6.041 -0.9391 -0.6597  0.0115
  122OSM    H9S12857   6.004   5.964   5.999 -0.0292  3.2861 -1.9125
  122OSM    H9T12858   5.933   6.098   6.090  1.0065 -0.5458 -1.0991
  122OSM   C10S12859   5.816   6.021   5.925  0.2838  0.3487 -0.0732
  122OSM   H10S12860   5.724   6.071   5.961 -1.1992 -2.7332  0.7372
  122OSM   H10T12861   5.788   5.918   5.892 -4.1114  0.2449  3.1988
  122OSM   C11S12862   5.875   6.097   5.803  0.2521 -0.6216 -0.4015
  122OSM   H11S12863   5.967   6.043   5.774  0.1478 -0.0083 -1.9910
  122OSM   H11T12864   5.884   6.202   5.840 -0.7963 -1.4231  2.3585
  122OSM   C12S12865   5.784   6.082   5.687 -0.5379 -0.7999 -0.1824
  122OSM   H12S12866   5.679   6.098   5.717  0.4738  1.6693  2.5443
  122OSM   H12T12867   5.796   5.985   5.635 -0.0188 -0.1324 -1.3553
  122OSM   C13S12868   5.818   6.181   5.582  0.8172 -0.6646  0.4644
  122OSM   H13S12869   5.925   6.170   5.553  1.0388  2.1230 -0.0397
  122OSM   H13T12870   5.805   6.288   5.611 -0.4183 -1.1156  1.6890
  122OSM   C14S12871   5.739   6.165   5.448  0.3112  0.3150  0.0339
  122OSM   H14S12872   5.629   6.167   5.462 -0.0170 -1.5822 -1.8625
  122OSM   H14T12873   5.765   6.061   5.421  0.8483  1.0754 -2.6452
  122OSM   C15S12874   5.768   6.271   5.342 -0.3658 -0.6608  0.3475
  122OSM   H15S12875   5.875   6.270   5.311 -0.2706 -4.0386  0.4104
  122OSM   H15T12876   5.765   6.366   5.400  1.0150  0.8647 -1.9245
  122OSM   C16S12877   5.676   6.279   5.226  0.6614  0.7889  0.7554
  122OSM   H16S12878   5.690   6.368   5.161  0.7886  0.0599 -0.2358
  122OSM   H16T12879   5.574   6.288   5.270  0.0171  3.6405 -1.0100
  122OSM   C17S12880   5.669   6.156   5.138  0.2803 -0.3157  0.4119
  122OSM   H17S12881   5.603   6.175   5.051 -0.2153 -2.4912  0.2376
  122OSM   H17T12882   5.616   6.076   5.194 -0.5696 -0.8413 -1.0754
  122OSM   C18S12883   5.802   6.102   5.111 -0.1302 -1.3259 -0.3905
  122OSM   H18S12884   5.843   6.067   5.208  0.2192 -0.7492 -0.3211
  122OSM   H18T12885   5.879   6.180   5.088 -1.9564  0.8728  0.5556
  122OSM   H18U12886   5.809   6.020   5.036  0.0950 -3.1014  1.5109
  122OSM    C1F12887   6.334   5.787   6.349 -0.2442 -0.1080 -0.1666
  122OSM     OF12888   6.370   5.673   6.373 -0.8892 -0.4295  0.6063
  122OSM    C2F12889   6.402   5.878   6.246  0.2110 -0.1744  0.1971
  122OSM    H2F12890   6.506   5.839   6.231  0.7794  1.6810 -1.0053
  122OSM    H2G12891   6.405   5.984   6.278 -0.2580  0.2039 -0.9793
  122OSM    C3F12892   6.323   5.865   6.113 -0.1385  0.5150 -0.2855
  122OSM    H3F12893   6.225   5.918   6.120  0.0812  0.7738  0.9056
  122OSM    H3G12894   6.311   5.760   6.077  0.6922  0.8913 -1.7363
  122OSM    C4F12895   6.392   5.936   5.995  0.3610 -0.4685  0.8740
  122OSM    H4F12896   6.487   5.882   5.973  0.0032 -1.6253  2.0291
  122OSM    H4G12897   6.413   6.043   6.016 -2.8269  1.0628 -2.5355
  122OSM    C5F12898   6.321   5.913   5.856  0.4969 -0.6633  0.0633
  122OSM    H5F12899   6.224   5.961   5.880  0.3034 -1.4214  0.8144
  122OSM    H5G12900   6.294   5.810   5.824  0.6286 -0.3805 -0.9948
  122OSM    C6F12901   6.398   5.992   5.741  0.7416 -0.1862  0.2475
  122OSM    H6F12902   6.498   5.944   5.733  1.2831  1.1624 -2.3719
  122OSM    H6G12903   6.416   6.098   5.768  1.1440 -0.6085  1.7581
  122OSM    C7F12904   6.333   5.995   5.609 -0.4467  0.3566 -0.3216
  122OSM    H7F12905   6.239   6.053   5.607  0.2267  1.4777 -0.3003
  122OSM    H7G12906   6.313   5.897   5.560  1.5219  0.4699 -1.4564
  122OSM    C8F12907   6.429   6.070   5.509 -0.3679  1.1793  0.3817
  122OSM    H8F12908   6.456   6.161   5.568 -1.4133  1.2243  0.8072
  122OSM    H8G12909   6.367   6.103   5.423 -1.4872  3.1178  1.8333
  122OSM    C9F12910   6.561   6.003   5.481 -0.0692  0.6446  0.6998
  122OSM    H9F12911   6.599   5.932   5.557  0.2282 -2.2348 -1.9543
  122OSM   C10F12912   6.638   6.003   5.375  0.1133  0.2959  0.0318
  122OSM   H10F12913   6.727   5.940   5.378 -0.7412 -0.9158  0.5689
  122OSM   C11F12914   6.604   6.085   5.255 -0.1448 -0.5772 -0.4654
  122OSM   H11F12915   6.678   6.168   5.255 -0.9459  0.1712 -1.3164
  122OSM   H11G12916   6.501   6.127   5.259  0.1293  0.0061  0.8724
  122OSM   C12F12917   6.604   6.005   5.122  0.2300 -0.5690 -0.6062
  122OSM   H12F12918   6.525   5.927   5.128  3.5891 -4.2222  0.3192
  122OSM   H12G12919   6.691   5.936   5.113  2.2747  1.8493 -0.4815
  122OSM   C13F12920   6.588   6.102   5.004  0.1793 -0.3259 -0.7886
  122OSM   H13F12921   6.680   6.166   5.003  0.1804 -0.2281  1.0952
  122OSM   H13G12922   6.500   6.169   5.015  0.8840  0.3901  1.0460
  122OSM   C14F12923   6.574   6.028   4.872  0.0788  0.1854  0.5161
  122OSM   H14F12924   6.493   5.954   4.889 -0.1095 -0.3662 -2.2478
  122OSM   H14G12925   6.664   5.964   4.863  0.0223  0.0933  0.6039
  122OSM   C15F12926   6.554   6.128   4.760 -0.0913  1.1768  0.0992
  122OSM   H15F12927   6.637   6.201   4.756  1.0508 -0.1495 -1.4461
  122OSM   H15G12928   6.459   6.185   4.771 -0.7451  0.0634  0.4127
  122OSM   C16F12929   6.551   6.058   4.618 -0.7653  0.2469  1.0924
  122OSM   H16F12930   6.452   6.075   4.570 -0.9198 -0.2597  1.2329
  122OSM   H16G12931   6.564   5.949   4.630 -1.9623  0.1615  1.7638
  122OSM   C17F12932   6.654   6.117   4.517  0.0362  0.2910 -0.4692
  122OSM   H17F12933   6.622   6.223   4.519  1.0266  0.6268  1.9232
  122OSM   H17G12934   6.648   6.071   4.416 -1.7167  2.9690 -1.7075
  122OSM   C18F12935   6.802   6.108   4.564  0.2191 -0.4229 -0.0030
  122OSM   H18F12936   6.845   6.006   4.570  1.7196  0.1037 -1.1266
  122OSM   H18G12937   6.811   6.148   4.667 -1.7408 -1.0380  0.4616
  122OSM   H18H12938   6.873   6.168   4.503  0.9181 -1.4456 -0.2088
  123OSM      N12939   1.781   4.270   1.739  0.0005  0.1440  0.7403
  123OSM    C1512940   1.674   4.372   1.722  0.5011  0.3163 -0.1877
  123OSM   H15A12941   1.590   4.326   1.673 -0.9030  1.2495  1.2245
  123OSM   H15B12942   1.707   4.461   1.670  1.5100 -1.3190 -2.4909
  123OSM   H15C12943   1.642   4.397   1.822 -1.6211 -0.1156 -0.7071
  123OSM    C1412944   1.828   4.231   1.605 -0.7394 -0.0541 -0.9137
  123OSM   H14A12945   1.833   4.320   1.545  0.5512  0.4861 -0.0414
  123OSM   H14B12946   1.752   4.173   1.554 -0.4740 -2.1606  0.9491
  123OSM   H14C12947   1.923   4.179   1.595 -1.8010 -2.3398  0.1046
  123OSM    C1312948   1.884   4.340   1.827  0.2753 -0.2171  1.2906
  123OSM   H13A12949   1.853   4.355   1.929  0.1799  3.1672  0.8807
  123OSM   H13B12950   1.913   4.432   1.780  3.0079 -0.4039  2.4261
  123OSM   H13C12951   1.977   4.284   1.834 -0.8692 -2.0221  3.1728
  123OSM    C1212952   1.743   4.145   1.813  0.0971 -0.2114  0.5933
  123OSM   H12A12953   1.693   4.168   1.906 -1.4528 -0.5341 -0.1253
  123OSM   H12B12954   1.827   4.087   1.847 -0.3114 -0.9381  0.3735
  123OSM    C1112955   1.650   4.043   1.742 -0.1448 -0.5190  0.4544
  123OSM   H11A12956   1.704   4.004   1.653 -0.0971  1.3568 -0.4031
  123OSM   H11B12957   1.556   4.097   1.715 -1.0677 -3.4684 -2.8806
  123OSM      P12958   1.730   3.841   1.883 -0.0682  0.1848 -0.2692
  123OSM    O1312959   1.678   3.705   1.860  0.3994  0.3763  0.1539
  123OSM    O1412960   1.863   3.865   1.823  0.2832  0.4674 -0.0803
  123OSM    O1112961   1.731   3.871   2.038 -0.1607 -0.4218 -0.5223
  123OSM    O1212962   1.623   3.935   1.826  0.0571 -0.4771 -0.2373
  123OSM    C1S12963   1.610   3.832   2.116  0.5059 -0.4334  0.1065
  123OSM    H1S12964   1.585   3.725   2.104  2.7276 -1.0236  0.2597
  123OSM    H1T12965   1.517   3.890   2.101  0.0103 -1.0589  0.6775
  123OSM     NF12966   1.555   3.760   2.348 -0.4782  0.0689 -0.5499
  123OSM    HNF12967   1.484   3.808   2.400 -0.6365 -0.8284  0.0807
  123OSM    C2S12968   1.633   3.848   2.273 -0.1294 -0.1529  0.2162
  123OSM    H2S12969   1.742   3.834   2.288  0.2124  0.2985 -1.5573
  123OSM    C3S12970   1.607   3.993   2.315  0.7891  0.1741  0.0120
  123OSM    H3S12971   1.496   3.998   2.312  0.4142 -4.1523  0.3013
  123OSM     O312972   1.648   4.080   2.206  0.3580 -0.2467  0.2803
  123OSM    HO312973   1.681   4.021   2.138 -0.0163 -0.1151 -0.0214
  123OSM    C4S12974   1.666   4.028   2.445  0.4489  1.2634  0.0355
  123OSM    H4S12975   1.591   4.028   2.526  1.2257 -1.6764  0.8750
  123OSM    C5S12976   1.793   4.070   2.470 -0.3981  0.0108  0.1918
  123OSM    H5S12977   1.858   4.085   2.383  0.1456 -2.5031  0.1105
  123OSM    C6S12978   1.864   4.082   2.604  0.1836  0.3314 -0.1453
  123OSM    H6S12979   1.868   4.188   2.637 -0.9888  0.6845 -1.0629
  123OSM    H6T12980   1.968   4.042   2.596  1.3788  2.8890  1.2864
  123OSM    C7S12981   1.800   4.014   2.729  1.0605  0.5310 -0.3407
  123OSM    H7S12982   1.813   3.904   2.727 -0.5237  0.3178 -0.3770
  123OSM    H7T12983   1.689   4.025   2.733  1.0107  0.3722 -1.1650
  123OSM    C8S12984   1.852   4.079   2.862  0.2157 -0.0869  0.7826
  123OSM    H8S12985   1.828   4.187   2.858 -0.1642 -0.1934 -0.0147
  123OSM    H8T12986   1.963   4.072   2.872  0.5331  0.3712 -1.7298
  123OSM    C9S12987   1.804   4.008   2.995 -0.2993 -0.4514  0.7380
  123OSM    H9S12988   1.799   3.898   2.979  1.3726 -0.6789  1.6507
  123OSM    H9T12989   1.705   4.054   3.017  0.0273 -0.1430  1.6168
  123OSM   C10S12990   1.887   4.042   3.115 -0.7142 -0.2476  0.3490
  123OSM   H10S12991   1.884   4.152   3.127 -0.1913 -0.2234  0.2558
  123OSM   H10T12992   1.992   4.008   3.109 -0.5435  0.1279  1.1313
  123OSM   C11S12993   1.822   3.984   3.243 -0.3718  0.3182 -0.1087
  123OSM   H11S12994   1.785   3.883   3.217 -0.2064 -0.0539  1.0654
  123OSM   H11T12995   1.730   4.039   3.270 -1.3491 -0.8452 -0.9767
  123OSM   C12S12996   1.919   3.980   3.374  0.7944  0.8086 -0.2215
  123OSM   H12S12997   1.964   4.082   3.381 -0.2111  1.2475 -0.0496
  123OSM   H12T12998   1.990   3.898   3.349  1.0427  0.4145  1.6431
  123OSM   C13S12999   1.855   3.945   3.508 -0.0411 -0.4531 -0.5486
  123OSM   H13S13000   1.820   3.839   3.513  2.3487 -1.2683  0.2858
  123OSM   H13T13001   1.760   4.001   3.521  1.1313  1.7454 -0.9439
  123OSM   C14S13002   1.955   3.961   3.627  0.4625  0.3128 -0.4339
  123OSM   H14S13003   1.970   4.070   3.644 -3.1454  0.8029  0.4232
  123OSM   H14T13004   2.048   3.911   3.591 -1.1456 -1.2147 -2.6819
  123OSM   C15S13005   1.916   3.891   3.754  0.5041 -0.6280  0.1730
  123OSM   H15S13006   1.911   3.782   3.735  1.6449 -0.2602 -2.7841
  123OSM   H15T13007   1.825   3.939   3.795 -0.9690 -1.5627 -1.8462
  123OSM   C16S13008   2.022   3.919   3.867 -0.7286 -0.0332  0.8079
  123OSM   H16S13009   2.019   4.028   3.886 -0.8917  0.2296 -0.5837
  123OSM   H16T13010   2.127   3.891   3.843 -0.5173  1.2714  0.1332
  123OSM   C17S13011   1.985   3.845   3.992  0.2910  0.3328 -0.7993
  123OSM   H17S13012   1.952   3.743   3.964 -2.6186  1.5908 -2.3721
  123OSM   H17T13013   1.906   3.897   4.050  1.2241 -0.7987  1.6216
  123OSM   C18S13014   2.101   3.848   4.088  0.1922  0.5889  0.2570
  123OSM   H18S13015   2.113   3.947   4.137  2.2618  1.7194 -2.3195
  123OSM   H18T13016   2.195   3.829   4.034  0.0025 -0.7476  0.3592
  123OSM   H18U13017   2.080   3.760   4.153  0.1343  1.3301  1.2655
  123OSM    C1F13018   1.576   3.624   2.357  0.0502 -0.2830 -0.1282
  123OSM     OF13019   1.650   3.573   2.270  0.3452  0.3803 -0.4495
  123OSM    C2F13020   1.506   3.533   2.466  0.4567 -0.9104  0.7666
  123OSM    H2F13021   1.476   3.447   2.401 -0.1609 -0.8062  0.9062
  123OSM    H2G13022   1.422   3.580   2.522  0.0580 -0.7657  0.0616
  123OSM    C3F13023   1.612   3.489   2.570 -0.2404 -0.0922 -0.8134
  123OSM    H3F13024   1.699   3.454   2.510 -0.7682 -1.1492 -0.9727
  123OSM    H3G13025   1.572   3.398   2.619 -0.1657  0.0849 -0.4228
  123OSM    C4F13026   1.663   3.596   2.671 -0.1189  0.3406  0.4111
  123OSM    H4F13027   1.571   3.639   2.717 -1.7491 -0.8516 -1.5676
  123OSM    H4G13028   1.707   3.678   2.610 -1.5287 -0.2722 -1.5412
  123OSM    C5F13029   1.749   3.538   2.774  0.2797  0.2250  0.2950
  123OSM    H5F13030   1.849   3.530   2.727 -0.6195 -0.9457 -1.5566
  123OSM    H5G13031   1.716   3.433   2.786 -1.3011  0.6274 -0.2402
  123OSM    C6F13032   1.744   3.595   2.915  0.3834  0.9669 -0.3471
  123OSM    H6F13033   1.639   3.587   2.950  0.8048  1.3333  1.0425
  123OSM    H6G13034   1.774   3.702   2.922 -1.3047  1.4758 -0.4312
  123OSM    C7F13035   1.840   3.519   3.016 -0.1207 -0.7875 -0.3706
  123OSM    H7F13036   1.809   3.413   3.006 -0.8663 -0.6281  0.1399
  123OSM    H7G13037   1.821   3.554   3.119  0.3798  1.2196 -0.9020
  123OSM    C8F13038   1.994   3.524   2.979 -0.3711 -0.1474 -0.3122
  123OSM    H8F13039   2.018   3.476   2.882 -1.7091  0.1556 -0.8173
  123OSM    H8G13040   2.047   3.460   3.052  0.2454  0.6240 -0.0611
  123OSM    C9F13041   2.048   3.667   2.995 -0.0670  0.1852  0.5614
  123OSM    H9F13042   2.024   3.723   2.904 -2.3028  1.0383  1.5936
  123OSM   C10F13043   2.129   3.724   3.087  0.3760 -0.2471 -0.2169
  123OSM   H10F13044   2.165   3.826   3.068 -1.2647 -0.0473 -2.6596
  123OSM   C11F13045   2.162   3.668   3.231  0.0644 -0.3203 -0.0198
  123OSM   H11F13046   2.117   3.566   3.238  1.6614 -1.1677 -1.2870
  123OSM   H11G13047   2.117   3.733   3.309  1.1412  1.1457 -0.5911
  123OSM   C12F13048   2.312   3.656   3.260  0.8191 -0.8692  0.3195
  123OSM   H12F13049   2.354   3.758   3.243  0.9498 -0.6091  2.0282
  123OSM   H12G13050   2.362   3.591   3.185 -0.2049  0.0128 -1.1926
  123OSM   C13F13051   2.328   3.612   3.406  1.0131  0.2823  0.2921
  123OSM   H13F13052   2.434   3.596   3.432  0.3976 -1.8862  1.7780
  123OSM   H13G13053   2.286   3.511   3.429 -1.4793  1.1034 -0.2675
  123OSM   C14F13054   2.281   3.706   3.515 -0.7305 -0.2501  0.6595
  123OSM   H14F13055   2.173   3.732   3.516 -1.4278 -2.0499  6.0117
  123OSM   H14G13056   2.339   3.801   3.502  2.8279 -2.2978  0.1884
  123OSM   C15F13057   2.313   3.652   3.656  0.0053  0.2398  0.4804
  123OSM   H15F13058   2.294   3.740   3.722  1.9752  0.6844  0.5221
  123OSM   H15G13059   2.420   3.628   3.676  0.0239 -0.6730 -0.6384
  123OSM   C16F13060   2.213   3.539   3.699 -0.4406  0.0955 -0.0822
  123OSM   H16F13061   2.205   3.455   3.627 -2.0595  1.4222 -1.5364
  123OSM   H16G13062   2.113   3.585   3.708 -0.8445 -0.6177 -0.8002
  123OSM   C17F13063   2.244   3.476   3.834  0.8498 -1.0461 -0.2458
  123OSM   H17F13064   2.272   3.563   3.897 -1.9117  0.2800 -0.7039
  123OSM   H17G13065   2.328   3.403   3.838 -0.3041 -2.3963  0.1893
  123OSM   C18F13066   2.126   3.402   3.899  0.0643 -0.2170  0.3458
  123OSM   H18F13067   2.149   3.368   4.002  1.5489 -1.9751 -0.5094
  123OSM   H18G13068   2.098   3.311   3.842  1.3145 -0.4365  0.0470
  123OSM   H18H13069   2.035   3.466   3.900 -0.5583 -1.0873  1.2913
  124OSM      N13070   2.770   4.109   1.965  0.0630  0.3492  0.1109
  124OSM    C1513071   2.701   3.994   1.887  0.3212 -0.0292  0.6589
  124OSM   H15A13072   2.677   3.906   1.945 -0.2089 -0.8746 -0.7788
  124OSM   H15B13073   2.770   3.959   1.811  1.0784 -0.0109  1.3202
  124OSM   H15C13074   2.611   4.028   1.839  0.6536  0.8746  0.6649
  124OSM    C1413075   2.868   4.060   2.066  0.1367  0.9950  0.3855
  124OSM   H14A13076   2.933   4.143   2.088  0.3844  1.0238 -0.4215
  124OSM   H14B13077   2.927   3.977   2.031 -1.2712  0.5161 -0.9817
  124OSM   H14C13078   2.821   4.028   2.159  0.5573  0.2770  0.3565
  124OSM    C1313079   2.856   4.195   1.869  0.1989  0.3201 -0.0829
  124OSM   H13A13080   2.902   4.282   1.913  1.6359  1.2243 -3.0779
  124OSM   H13B13081   2.798   4.237   1.789  1.5132  2.6407  0.0910
  124OSM   H13C13082   2.937   4.142   1.820  0.3562  1.4057 -1.0251
  124OSM    C1213083   2.662   4.184   2.032  0.4894 -0.0061  0.0330
  124OSM   H12A13084   2.591   4.205   1.953  1.2098  2.0134 -0.1324
  124OSM   H12B13085   2.701   4.278   2.067  0.3628 -0.3339  1.0787
  124OSM    C1113086   2.578   4.125   2.150 -0.0787  0.4918  0.2956
  124OSM   H11A13087   2.563   4.019   2.120 -0.3795  1.0347 -1.5781
  124OSM   H11B13088   2.477   4.170   2.158 -0.1248  1.2252 -2.9995
  124OSM      P13089   2.693   4.264   2.339 -0.0136 -0.2229  0.2313
  124OSM    O1313090   2.770   4.224   2.455  0.7490 -0.5267 -0.3609
  124OSM    O1413091   2.753   4.363   2.246  0.1279 -0.1287 -0.2722
  124OSM    O1113092   2.557   4.339   2.382 -0.0011 -0.2479 -0.2825
  124OSM    O1213093   2.643   4.133   2.271 -0.1729 -0.1662 -0.1294
  124OSM    C1S13094   2.455   4.283   2.474  0.0096  0.8807 -0.8118
  124OSM    H1S13095   2.466   4.175   2.499 -0.6207  0.6012 -1.6942
  124OSM    H1T13096   2.357   4.287   2.421  0.0467  1.3623 -0.8471
  124OSM     NF13097   2.351   4.310   2.704 -0.8879  0.4985 -0.9037
  124OSM    HNF13098   2.277   4.369   2.734 -1.2447  0.0482 -0.8906
  124OSM    C2S13099   2.456   4.361   2.613 -0.7016  0.3133  1.1209
  124OSM    H2S13100   2.555   4.331   2.654 -0.3746 -0.8151 -0.4252
  124OSM    C3S13101   2.462   4.522   2.607  0.0245 -0.0677 -0.0251
  124OSM    H3S13102   2.368   4.566   2.566 -0.0773 -1.0519 -0.8850
  124OSM     O313103   2.571   4.565   2.525  0.1745 -0.3376 -0.4494
  124OSM    HO313104   2.596   4.492   2.468  1.6029  1.8981 -2.8945
  124OSM    C4S13105   2.471   4.575   2.748  0.1911 -0.7812  0.0140
  124OSM    H4S13106   2.574   4.560   2.786  0.3471 -0.3487 -0.2269
  124OSM    C5S13107   2.377   4.628   2.825  1.0142 -0.1729  0.4177
  124OSM    H5S13108   2.279   4.651   2.779  2.3964  2.7516 -1.3982
  124OSM    C6S13109   2.394   4.661   2.973 -0.1011  0.4186 -0.3679
  124OSM    H6S13110   2.488   4.720   2.980  1.7809 -2.1118 -2.4745
  124OSM    H6T13111   2.411   4.573   3.040  2.4320  2.5575  2.0685
  124OSM    C7S13112   2.281   4.744   3.037 -0.3399  0.1187 -0.3085
  124OSM    H7S13113   2.190   4.682   3.049 -0.1383  0.2415  2.2479
  124OSM    H7T13114   2.259   4.828   2.968 -0.4238  1.6046  1.4630
  124OSM    C8S13115   2.316   4.810   3.171 -0.7552 -1.0043  0.6836
  124OSM    H8S13116   2.228   4.873   3.195  0.2230  0.5750  0.2579
  124OSM    H8T13117   2.397   4.886   3.160 -0.6741 -1.3586 -1.6795
  124OSM    C9S13118   2.332   4.720   3.291 -0.8951  0.5848  0.1408
  124OSM    H9S13119   2.426   4.664   3.267  0.1242  1.1666  2.4357
  124OSM    H9T13120   2.252   4.643   3.299  0.1185 -0.3757  1.5616
  124OSM   C10S13121   2.328   4.792   3.428 -0.0449  0.3648  0.6840
  124OSM   H10S13122   2.250   4.871   3.421 -0.7788 -0.4584 -0.8539
  124OSM   H10T13123   2.422   4.851   3.435  0.7877 -0.8270 -0.0869
  124OSM   C11S13124   2.325   4.714   3.558  0.2551 -0.5488 -0.0905
  124OSM   H11S13125   2.414   4.648   3.547  1.7005  0.8927  2.0215
  124OSM   H11T13126   2.228   4.662   3.569 -1.2003  1.2522 -3.1930
  124OSM   C12S13127   2.354   4.812   3.673 -0.0714 -0.4156  0.2849
  124OSM   H12S13128   2.289   4.902   3.674  0.7553  0.1828  1.2400
  124OSM   H12T13129   2.460   4.844   3.665  0.0930 -1.4523 -3.6572
  124OSM   C13S13130   2.325   4.756   3.816  0.0704 -0.3922 -0.2064
  124OSM   H13S13131   2.390   4.668   3.832  3.3016  1.7376 -0.6992
  124OSM   H13T13132   2.216   4.733   3.814 -0.5657  2.2782 -0.9989
  124OSM   C14S13133   2.353   4.847   3.937 -0.5815  0.3063 -0.2869
  124OSM   H14S13134   2.300   4.944   3.925 -2.6075 -0.4494  1.6831
  124OSM   H14T13135   2.463   4.857   3.938 -0.5173 -0.0548 -1.9140
  124OSM   C15S13136   2.326   4.785   4.077  0.2777  0.3378  0.8444
  124OSM   H15S13137   2.382   4.689   4.081  0.5101  0.4435  0.2726
  124OSM   H15T13138   2.219   4.764   4.094  0.7616 -2.6606  0.8484
  124OSM   C16S13139   2.391   4.877   4.183 -0.0165  0.9050 -0.7466
  124OSM   H16S13140   2.329   4.968   4.194 -2.0483 -0.1401 -2.6735
  124OSM   H16T13141   2.489   4.912   4.143  0.4870 -0.4064 -0.7117
  124OSM   C17S13142   2.428   4.809   4.325 -0.7273  0.1097  0.3747
  124OSM   H17S13143   2.506   4.733   4.302  0.5049  1.4747 -0.1031
  124OSM   H17T13144   2.332   4.760   4.352 -1.3362  1.5147  0.8347
  124OSM   C18S13145   2.484   4.901   4.436 -0.5660 -0.0882  0.0549
  124OSM   H18S13146   2.589   4.927   4.411  0.1812 -3.3721 -0.6192
  124OSM   H18T13147   2.477   4.838   4.527  1.3197 -0.0429  0.2679
  124OSM   H18U13148   2.427   4.997   4.440  1.2014  0.9705  0.7586
  124OSM    C1F13149   2.355   4.187   2.747  0.0390  0.1303 -0.1344
  124OSM     OF13150   2.455   4.113   2.750 -0.0952  0.1984  0.4807
  124OSM    C2F13151   2.222   4.128   2.782 -0.4882 -0.7209  0.6979
  124OSM    H2F13152   2.175   4.073   2.697  0.1740  2.0638 -1.6283
  124OSM    H2G13153   2.153   4.213   2.799 -1.3289 -0.6055 -2.6055
  124OSM    C3F13154   2.236   4.055   2.914  0.2121 -0.5753 -0.3064
  124OSM    H3F13155   2.324   3.987   2.908  2.2894  1.7784  1.5663
  124OSM    H3G13156   2.144   4.006   2.952 -0.5629  1.9099  1.2036
  124OSM    C4F13157   2.275   4.149   3.037  0.0852  0.5367 -0.6892
  124OSM    H4F13158   2.190   4.218   3.055 -0.6676 -0.4725 -0.2640
  124OSM    H4G13159   2.363   4.212   3.009  0.8105 -0.0774  0.1372
  124OSM    C5F13160   2.294   4.079   3.177  0.0327 -0.6615  0.4097
  124OSM    H5F13161   2.385   4.016   3.176 -1.1514 -2.4377  0.0364
  124OSM    H5G13162   2.216   4.001   3.192 -0.7434 -0.0233 -0.2163
  124OSM    C6F13163   2.302   4.175   3.290  0.3761  0.4401 -0.1507
  124OSM    H6F13164   2.223   4.254   3.290 -1.1743 -0.9589  2.7536
  124OSM    H6G13165   2.404   4.218   3.292  0.4459  0.4582 -2.1542
  124OSM    C7F13166   2.269   4.106   3.424  0.2094  0.1094  0.1244
  124OSM    H7F13167   2.324   4.009   3.417  1.0861  0.6594 -0.9475
  124OSM    H7G13168   2.161   4.087   3.441  0.2114  0.6857  0.8084
  124OSM    C8F13169   2.336   4.173   3.552  0.1718 -0.5444  0.4230
  124OSM    H8F13170   2.444   4.185   3.526 -0.0180 -0.9392 -0.6069
  124OSM    H8G13171   2.332   4.101   3.636  0.9257  0.4544  1.3385
  124OSM    C9F13172   2.293   4.318   3.585  0.3314 -0.4897  0.3107
  124OSM    H9F13173   2.301   4.387   3.500  1.6409 -1.7067 -0.5974
  124OSM   C10F13174   2.237   4.351   3.702  0.9638  0.5957  0.3025
  124OSM   H10F13175   2.213   4.457   3.721  1.6213  1.0775 -1.3291
  124OSM   C11F13176   2.207   4.257   3.821 -0.8174  0.1299 -0.0228
  124OSM   H11F13177   2.263   4.161   3.820 -2.3668 -0.8159  0.2258
  124OSM   H11G13178   2.101   4.226   3.811 -0.6948  0.1395 -1.6072
  124OSM   C12F13179   2.245   4.335   3.945  0.1625  0.0330  0.5066
  124OSM   H12F13180   2.178   4.424   3.945  0.5047  0.3653 -2.3953
  124OSM   H12G13181   2.346   4.381   3.933  0.1895 -0.6072 -2.5052
  124OSM   C13F13182   2.224   4.249   4.077  0.1026  0.5115 -0.3548
  124OSM   H13F13183   2.284   4.162   4.045  0.2749  0.3739  0.3376
  124OSM   H13G13184   2.117   4.222   4.088  0.0606 -0.6083 -2.8077
  124OSM   C14F13185   2.284   4.306   4.207 -0.0572 -0.0202  0.3089
  124OSM   H14F13186   2.394   4.292   4.197  0.2718  0.8793  2.2209
  124OSM   H14G13187   2.246   4.228   4.276  0.7399 -0.1739  0.5798
  124OSM   C15F13188   2.245   4.446   4.243  0.5218 -0.5309 -0.6523
  124OSM   H15F13189   2.137   4.452   4.219  0.8509 -1.7566 -2.5823
  124OSM   H15G13190   2.303   4.519   4.182  0.5376 -1.3096 -1.5865
  124OSM   C16F13191   2.247   4.473   4.401 -1.1467  0.1036  0.2935
  124OSM   H16F13192   2.197   4.382   4.440  0.9792 -0.1478  2.6458
  124OSM   H16G13193   2.187   4.564   4.426  0.6887  0.8892  2.0305
  124OSM   C17F13194   2.381   4.496   4.467 -1.0119  0.4533  0.5691
  124OSM   H17F13195   2.433   4.577   4.412 -0.3792  0.0157  0.5175
  124OSM   H17G13196   2.448   4.409   4.450 -1.3933  0.3553 -0.4594
  124OSM   C18F13197   2.383   4.532   4.616 -0.7438  0.6235  1.3128
  124OSM   H18F13198   2.308   4.471   4.671 -1.3109  0.0812 -0.0022
  124OSM   H18G13199   2.355   4.639   4.618 -2.3753  0.4312 -2.2001
  124OSM   H18H13200   2.481   4.514   4.664  0.4563 -1.2746 -1.5452
  125OSM      N13201   4.809   0.608   2.594 -0.0690 -0.2923 -0.0223
  125OSM    C1513202   4.934   0.618   2.516 -0.2259 -0.2641 -0.9379
  125OSM   H15A13203   4.997   0.683   2.576 -1.1558 -0.2878  0.0860
  125OSM   H15B13204   4.910   0.672   2.425  1.4456 -0.4885 -1.5387
  125OSM   H15C13205   4.979   0.522   2.498 -0.9499 -1.1024  1.4027
  125OSM    C1413206   4.709   0.522   2.527 -0.3553 -0.6390 -0.0957
  125OSM   H14A13207   4.669   0.567   2.436 -0.7333 -1.3313 -0.2796
  125OSM   H14B13208   4.629   0.511   2.598  1.3908 -0.3169  2.0125
  125OSM   H14C13209   4.746   0.423   2.508  0.0993 -0.3838 -0.5712
  125OSM    C1313210   4.848   0.540   2.715  0.8878  0.1457  0.4584
  125OSM   H13A13211   4.870   0.435   2.701  2.2236  0.3081  1.1753
  125OSM   H13B13212   4.772   0.557   2.790  0.3088 -1.0647  0.1709
  125OSM   H13C13213   4.941   0.568   2.761  1.3055 -2.0918  1.1032
  125OSM    C1213214   4.759   0.748   2.618 -0.0037 -0.0653  0.0890
  125OSM   H12A13215   4.824   0.802   2.686  1.4008 -2.9310  1.1698
  125OSM   H12B13216   4.667   0.745   2.675 -0.3710  0.9623 -0.4093
  125OSM    C1113217   4.725   0.831   2.501 -0.5712  0.5352  0.2717
  125OSM   H11A13218   4.821   0.855   2.451 -0.5092 -0.3172 -0.0199
  125OSM   H11B13219   4.685   0.927   2.540 -0.9499  0.4625  0.0631
  125OSM      P13220   4.475   0.801   2.423  0.3755  0.2755  0.4734
  125OSM    O1313221   4.457   0.946   2.394  0.5768  0.2653 -0.1794
  125OSM    O1413222   4.394   0.704   2.338 -0.3836  0.0133  0.5988
  125OSM    O1113223   4.448   0.767   2.582 -0.5091  0.2333 -0.2756
  125OSM    O1213224   4.626   0.768   2.413 -0.6139  0.1003 -0.3097
  125OSM    C1S13225   4.322   0.773   2.643  0.3923  0.4380  0.5425
  125OSM    H1S13226   4.269   0.676   2.636 -0.9515  1.2593 -3.2093
  125OSM    H1T13227   4.254   0.854   2.608 -0.7517  0.3044  2.3737
  125OSM     NF13228   4.226   0.785   2.866  0.5696 -0.3162  0.1843
  125OSM    HNF13229   4.157   0.857   2.870  0.1879 -0.7276  1.4067
  125OSM    C2S13230   4.339   0.817   2.787 -0.3537 -0.1342 -0.3377
  125OSM    H2S13231   4.426   0.758   2.823  0.7655  0.5011 -1.8821
  125OSM    C3S13232   4.385   0.964   2.790 -0.6338 -0.6598 -0.4408
  125OSM    H3S13233   4.305   1.030   2.751  0.6786  1.0615 -0.3529
  125OSM     O313234   4.501   0.999   2.711 -0.1011 -0.0591 -0.0680
  125OSM    HO313235   4.490   0.938   2.637 -2.1833  1.7660 -1.3909
  125OSM    C4S13236   4.405   1.007   2.935  0.0141  0.0635  0.1649
  125OSM    H4S13237   4.479   0.953   2.995  0.9647  0.7553 -0.3546
  125OSM    C5S13238   4.335   1.106   2.993 -0.4980 -0.7506 -0.1592
  125OSM    H5S13239   4.250   1.160   2.949  0.1764  1.0846  0.6866
  125OSM    C6S13240   4.353   1.146   3.141 -0.2398 -0.1437 -0.2323
  125OSM    H6S13241   4.260   1.166   3.199 -0.0579  0.1734 -0.0510
  125OSM    H6T13242   4.407   1.243   3.144 -0.2368 -0.1592  0.4366
  125OSM    C7S13243   4.431   1.044   3.225 -0.1231 -0.3192 -0.3532
  125OSM    H7S13244   4.528   1.013   3.179  0.3473  0.7644 -0.1263
  125OSM    H7T13245   4.367   0.956   3.245  0.6485 -0.8286 -0.0556
  125OSM    C8S13246   4.455   1.103   3.364 -0.2655 -0.7373 -0.7367
  125OSM    H8S13247   4.361   1.148   3.403  0.3836 -0.8330  1.0396
  125OSM    H8T13248   4.534   1.181   3.358 -0.3798 -0.6345 -0.8922
  125OSM    C9S13249   4.505   1.011   3.477 -0.0917 -0.4471 -0.1540
  125OSM    H9S13250   4.580   0.946   3.428 -1.2964 -0.2176 -2.4075
  125OSM    H9T13251   4.430   0.935   3.508 -0.9527  0.4866  0.0917
  125OSM   C10S13252   4.573   1.086   3.599  0.4377 -0.2858  0.3686
  125OSM   H10S13253   4.505   1.173   3.601  1.7366  0.7396  1.7864
  125OSM   H10T13254   4.677   1.100   3.564  0.6794 -0.9643  0.7861
  125OSM   C11S13255   4.574   1.005   3.726 -0.1552  0.1606 -0.5051
  125OSM   H11S13256   4.639   1.054   3.802 -0.5870  0.2940 -0.2154
  125OSM   H11T13257   4.602   0.901   3.699 -1.2204  0.2479 -2.0559
  125OSM   C12S13258   4.442   0.999   3.801 -0.7542  0.3907  0.3650
  125OSM   H12S13259   4.368   0.932   3.753 -1.6944 -0.0942  2.3935
  125OSM   H12T13260   4.387   1.095   3.786 -0.5504  0.0703 -3.1711
  125OSM   C13S13261   4.449   0.956   3.946 -0.5266 -0.2065 -0.0342
  125OSM   H13S13262   4.519   0.870   3.954  2.4423  1.8604 -1.7532
  125OSM   H13T13263   4.350   0.917   3.978 -0.1454 -0.5248  0.7701
  125OSM   C14S13264   4.491   1.072   4.042 -0.2740  0.5370  0.0544
  125OSM   H14S13265   4.410   1.146   4.026 -0.6415 -0.1384 -1.3857
  125OSM   H14T13266   4.588   1.110   4.001 -0.8817  1.2690 -0.7560
  125OSM   C15S13267   4.518   1.032   4.190 -0.6092  0.1587  0.4504
  125OSM   H15S13268   4.579   0.939   4.194 -0.7980  0.0372  0.5485
  125OSM   H15T13269   4.426   0.985   4.230 -1.2983  1.3956  0.3580
  125OSM   C16S13270   4.577   1.138   4.291 -0.0715  0.0804  0.0752
  125OSM   H16S13271   4.678   1.168   4.258  1.6783 -2.6368  2.4604
  125OSM   H16T13272   4.582   1.100   4.396  1.8692 -1.1593 -0.4116
  125OSM   C17S13273   4.480   1.251   4.303  0.8408  0.0586 -0.0537
  125OSM   H17S13274   4.383   1.205   4.333  0.9738  0.5101  1.1373
  125OSM   H17T13275   4.470   1.290   4.200  0.7688  1.1567  0.3515
  125OSM   C18S13276   4.511   1.355   4.407  0.3225 -0.1110  0.2075
  125OSM   H18S13277   4.592   1.423   4.375  2.1368 -1.5982  1.4109
  125OSM   H18T13278   4.557   1.298   4.491 -0.1758 -3.1805 -1.4359
  125OSM   H18U13279   4.423   1.413   4.442  0.9806  1.6787 -0.9920
  125OSM    C1F13280   4.191   0.656   2.897 -0.1629 -0.0112 -1.2407
  125OSM     OF13281   4.269   0.561   2.883  0.3281  0.1312 -0.5567
  125OSM    C2F13282   4.057   0.625   2.954  0.5078  0.0682 -0.3992
  125OSM    H2F13283   4.064   0.533   3.016  0.3925  1.3031  1.5474
  125OSM    H2G13284   3.994   0.609   2.865  2.0141 -0.6358 -1.3851
  125OSM    C3F13285   4.004   0.738   3.044  0.5333 -0.2589 -0.1053
  125OSM    H3F13286   3.896   0.719   3.062  0.8616 -0.7382  1.4803
  125OSM    H3G13287   3.993   0.835   2.991  0.2409  0.1171  0.6330
  125OSM    C4F13288   4.064   0.747   3.181  0.4268  0.4754 -0.1455
  125OSM    H4F13289   4.164   0.796   3.174  0.2711  0.9613  0.8550
  125OSM    H4G13290   4.078   0.646   3.225  0.0724  1.0861  1.4352
  125OSM    C5F13291   3.986   0.810   3.305  0.3281 -0.3847  0.3001
  125OSM    H5F13292   3.889   0.758   3.312  1.0158 -1.7171  0.2726
  125OSM    H5G13293   3.958   0.910   3.267  0.7767 -0.9654 -1.6745
  125OSM    C6F13294   4.070   0.810   3.435  0.3192  0.4174 -0.3598
  125OSM    H6F13295   4.165   0.864   3.414  0.3907  0.0559 -0.9557
  125OSM    H6G13296   4.078   0.702   3.460  0.1749  0.6269  0.6347
  125OSM    C7F13297   4.000   0.889   3.542 -0.0144  0.2640 -0.0290
  125OSM    H7F13298   3.893   0.862   3.547 -0.3514  1.6778  1.3391
  125OSM    H7G13299   3.996   0.997   3.516 -0.1506  0.2823  0.0718
  125OSM    C8F13300   4.071   0.883   3.677  0.1655 -0.1130 -0.4880
  125OSM    H8F13301   4.017   0.951   3.747  1.0564  1.2205 -1.0490
  125OSM    H8G13302   4.176   0.916   3.665  0.7888 -1.6206  0.6380
  125OSM    C9F13303   4.059   0.741   3.733 -0.1729 -0.2199  0.6687
  125OSM    H9F13304   4.095   0.662   3.665 -1.3277  1.0398 -1.5086
  125OSM   C10F13305   4.034   0.708   3.857  0.1097  0.0104 -0.2078
  125OSM   H10F13306   4.034   0.601   3.882  0.2761 -0.6699 -2.7665
  125OSM   C11F13307   3.991   0.797   3.971  1.2666 -0.4186  0.3075
  125OSM   H11F13308   3.880   0.803   3.980  1.3721  2.6279  0.5078
  125OSM   H11G13309   4.008   0.906   3.960 -0.2442  0.0055  1.6628
  125OSM   C12F13310   4.064   0.756   4.090 -0.5317  0.1563 -0.2494
  125OSM   H12F13311   4.170   0.785   4.074 -0.9614  2.9068  1.1556
  125OSM   H12G13312   4.054   0.646   4.097 -1.1461  0.2252 -0.0107
  125OSM   C13F13313   4.010   0.814   4.219 -0.0478 -0.3438  0.3270
  125OSM   H13F13314   3.905   0.782   4.236 -0.6233  0.1815 -1.9901
  125OSM   H13G13315   4.008   0.925   4.209  0.1831 -0.4272 -0.6662
  125OSM   C14F13316   4.106   0.782   4.332  0.4841  0.7778 -0.0350
  125OSM   H14F13317   4.126   0.879   4.382  2.2735  1.1865 -1.4595
  125OSM   H14G13318   4.202   0.733   4.306  0.1294  0.4030 -0.6844
  125OSM   C15F13319   4.029   0.693   4.436 -0.5563 -0.4900  0.8024
  125OSM   H15F13320   4.021   0.587   4.405 -3.4359 -0.3793  0.8822
  125OSM   H15G13321   3.930   0.738   4.456  0.5439  0.5691  4.6731
  125OSM   C16F13322   4.107   0.691   4.569 -0.2558  0.2253  1.1214
  125OSM   H16F13323   4.101   0.790   4.619 -1.0277  0.8795 -0.2250
  125OSM   H16G13324   4.217   0.683   4.556 -0.2871  1.4010 -0.1409
  125OSM   C17F13325   4.041   0.598   4.674 -0.2075 -0.2586 -0.0205
  125OSM   H17F13326   4.062   0.491   4.656  0.7153  0.3319 -2.9433
  125OSM   H17G13327   3.936   0.635   4.668  0.1324  0.8148  0.5077
  125OSM   C18F13328   4.106   0.619   4.814 -0.5879 -0.0604 -0.4127
  125OSM   H18F13329   4.109   0.723   4.855 -0.4014 -0.4557  0.6011
  125OSM   H18G13330   4.205   0.570   4.818 -0.6439 -0.1188  2.7479
  125OSM   H18H13331   4.052   0.558   4.890  2.5896 -0.7787  1.4849
  126OSM      N13332   1.988   1.623   1.987  0.1371  0.2171  0.3484
  126OSM    C1513333   2.118   1.668   1.920 -0.0760  0.3848  0.4575
  126OSM   H15A13334   2.114   1.773   1.895  1.8422  0.4160  0.1166
  126OSM   H15B13335   2.142   1.618   1.827  0.2907  1.0993  0.1554
  126OSM   H15C13336   2.191   1.660   1.999  1.7711  0.7574 -1.1267
  126OSM    C1413337   1.875   1.657   1.902  0.5716 -0.8124  0.0593
  126OSM   H14A13338   1.904   1.738   1.837 -0.4532 -0.5750 -0.1190
  126OSM   H14B13339   1.781   1.674   1.951  0.0059  0.6803 -1.4257
  126OSM   H14C13340   1.860   1.582   1.825  0.1460  0.8666 -1.5485
  126OSM    C1313341   1.998   1.477   2.011  0.1310  0.1578 -0.1383
  126OSM   H13A13342   1.988   1.423   1.919 -0.0707 -0.4220  0.2197
  126OSM   H13B13343   1.931   1.443   2.089  0.4571  1.0225  0.5524
  126OSM   H13C13344   2.097   1.446   2.042 -0.8503 -2.7294  0.3135
  126OSM    C1213345   1.981   1.705   2.112 -0.3762 -0.7303 -0.1622
  126OSM   H12A13346   1.879   1.704   2.149  0.6161 -1.3930  2.8209
  126OSM   H12B13347   1.993   1.810   2.088 -0.3256  0.0248  2.8204
  126OSM    C1113348   2.070   1.683   2.235 -0.5199  0.5720  0.0249
  126OSM   H11A13349   2.052   1.765   2.308 -0.2144 -0.6208  1.4725
  126OSM   H11B13350   2.175   1.690   2.201  0.0509  2.5226  1.9580
  126OSM      P13351   1.898   1.535   2.378 -0.2619  0.3427  0.0726
  126OSM    O1313352   1.809   1.650   2.367 -0.4989  0.5434 -0.0867
  126OSM    O1413353   1.851   1.407   2.328  0.6824 -0.1118  0.3327
  126OSM    O1113354   1.939   1.517   2.526 -0.3248 -0.0330  0.4228
  126OSM    O1213355   2.035   1.555   2.295  0.5111  0.4998 -0.1147
  126OSM    C1S13356   2.060   1.578   2.582 -0.7172  0.6303  0.4068
  126OSM    H1S13357   2.093   1.664   2.521 -1.9751  1.7742  1.2798
  126OSM    H1T13358   2.139   1.500   2.584 -1.2751  0.0579  0.7401
  126OSM     NF13359   2.152   1.713   2.766  0.0187  0.2372  0.0037
  126OSM    HNF13360   2.225   1.662   2.812  0.2009 -1.1839 -1.7028
  126OSM    C2S13361   2.049   1.622   2.731 -0.4143 -0.0065 -0.0872
  126OSM    H2S13362   1.957   1.683   2.740  1.2160  2.4932  0.5102
  126OSM    C3S13363   2.033   1.485   2.820 -0.9581 -0.2898 -0.1139
  126OSM    H3S13364   2.121   1.421   2.800 -0.1726 -0.2179  2.7451
  126OSM     O313365   1.924   1.410   2.767 -0.2410  0.1663 -1.1010
  126OSM    HO313366   1.915   1.454   2.683 -1.2598  1.4459 -0.3543
  126OSM    C4S13367   2.025   1.506   2.970  0.2500  0.5800  0.5694
  126OSM    H4S13368   2.119   1.500   3.027  0.7626  2.8444  0.0693
  126OSM    C5S13369   1.913   1.518   3.048 -0.0595 -0.5496  0.1871
  126OSM    H5S13370   1.816   1.512   2.996 -0.5693 -1.7216  1.2112
  126OSM    C6S13371   1.912   1.509   3.197 -0.7449 -0.3130  0.1990
  126OSM    H6S13372   1.860   1.420   3.237 -0.3381  0.4130  2.5098
  126OSM    H6T13373   1.849   1.595   3.228  0.9074  1.5326 -1.2225
  126OSM    C7S13374   2.047   1.526   3.278 -0.3882 -0.1654 -0.2212
  126OSM    H7S13375   2.096   1.625   3.266 -2.0196  0.8141  0.7826
  126OSM    H7T13376   2.123   1.452   3.245  0.7254  0.3945  0.9893
  126OSM    C8S13377   2.009   1.516   3.425  0.0202  0.1855  0.3140
  126OSM    H8S13378   1.902   1.547   3.433 -0.2929 -0.2638 -1.4788
  126OSM    H8T13379   2.063   1.593   3.483 -1.0534  1.5185 -0.3874
  126OSM    C9S13380   2.034   1.388   3.491  0.0940  1.1256 -0.3058
  126OSM    H9S13381   2.031   1.309   3.413  0.4731 -0.7172  1.4558
  126OSM    H9T13382   1.939   1.361   3.544  1.5814 -2.2479  0.9152
  126OSM   C10S13383   2.171   1.385   3.565  1.0371  0.5431  0.0485
  126OSM   H10S13384   2.171   1.469   3.637 -0.0114  1.2834 -0.7836
  126OSM   H10T13385   2.247   1.400   3.486  1.5604  0.9965  0.6280
  126OSM   C11S13386   2.203   1.261   3.652 -0.4305  0.5228  0.3135
  126OSM   H11S13387   2.175   1.170   3.594 -2.0634  0.7236  0.7425
  126OSM   H11T13388   2.135   1.273   3.739 -0.7359  0.1835  0.1237
  126OSM   C12S13389   2.344   1.259   3.708  0.4101 -0.5100  0.1257
  126OSM   H12S13390   2.376   1.365   3.716 -4.7213  1.4434 -1.2862
  126OSM   H12T13391   2.414   1.205   3.641  0.4333  0.6184 -0.7974
  126OSM   C13S13392   2.362   1.209   3.856 -0.2328 -0.4736  0.7313
  126OSM   H13S13393   2.324   1.108   3.883 -1.6573  0.6021  2.9915
  126OSM   H13T13394   2.301   1.278   3.919  2.9110 -0.8839  4.6759
  126OSM   C14S13395   2.505   1.229   3.896 -0.0659  0.1950  0.5865
  126OSM   H14S13396   2.523   1.332   3.935 -1.7576  2.2452 -3.4365
  126OSM   H14T13397   2.563   1.211   3.802 -0.5011 -0.7575  0.4960
  126OSM   C15S13398   2.560   1.141   4.003  0.1085 -0.1243  0.1894
  126OSM   H15S13399   2.593   1.039   3.973  0.4460 -0.7800  2.5620
  126OSM   H15T13400   2.479   1.131   4.078  0.0543 -1.9191 -0.0510
  126OSM   C16S13401   2.688   1.206   4.060 -0.4905 -0.7069  0.4018
  126OSM   H16S13402   2.672   1.307   4.103 -3.7645 -0.3890 -1.2374
  126OSM   H16T13403   2.760   1.214   3.975  0.0959  2.1592  1.0683
  126OSM   C17S13404   2.760   1.121   4.164  1.1353  0.0643  0.3580
  126OSM   H17S13405   2.851   1.175   4.196  0.4357  0.2007  2.1973
  126OSM   H17T13406   2.781   1.023   4.116  0.8635 -0.6701  1.7059
  126OSM   C18S13407   2.681   1.095   4.288  0.3662  0.1335 -0.3375
  126OSM   H18S13408   2.608   1.015   4.262  0.7056  0.1242 -1.3015
  126OSM   H18T13409   2.641   1.194   4.317  1.6133  1.1953 -2.0753
  126OSM   H18U13410   2.745   1.055   4.370 -1.3730  0.5095  1.2643
  126OSM    C1F13411   2.168   1.831   2.704 -0.0122  0.8335  0.0260
  126OSM     OF13412   2.084   1.881   2.632  1.0386  0.2268  0.4147
  126OSM    C2F13413   2.305   1.889   2.710  0.2436 -0.0771 -0.5144
  126OSM    H2F13414   2.346   1.912   2.609  3.2467 -0.1714  0.5769
  126OSM    H2G13415   2.369   1.810   2.754  1.5953  1.3356  0.1635
  126OSM    C3F13416   2.298   2.029   2.775 -0.9530 -0.5934  0.3713
  126OSM    H3F13417   2.233   2.090   2.708 -0.6288  0.1292  0.7138
  126OSM    H3G13418   2.403   2.066   2.776 -0.6339 -1.1981 -2.3463
  126OSM    C4F13419   2.238   2.021   2.918  0.4442 -0.1123 -0.4829
  126OSM    H4F13420   2.143   1.964   2.917 -0.3110  1.0943 -1.0617
  126OSM    H4G13421   2.206   2.126   2.937  2.4527  0.7664 -1.5804
  126OSM    C5F13422   2.345   1.957   3.009  0.7392  0.0474  0.0036
  126OSM    H5F13423   2.434   2.023   3.006 -0.4238  1.7677  1.2127
  126OSM    H5G13424   2.357   1.850   2.982 -1.7185 -0.7426  1.6660
  126OSM    C6F13425   2.298   1.973   3.153  0.6806  0.0246 -0.6638
  126OSM    H6F13426   2.203   1.916   3.155  0.6156  0.1245  1.3154
  126OSM    H6G13427   2.282   2.082   3.167 -0.0100 -0.0224 -1.0655
  126OSM    C7F13428   2.388   1.917   3.269  0.0746  0.7090 -0.1080
  126OSM    H7F13429   2.496   1.936   3.251  0.3412 -0.1250  0.5661
  126OSM    H7G13430   2.380   1.807   3.281 -1.8004  0.9006  0.7024
  126OSM    C8F13431   2.343   1.980   3.402 -0.4951  0.1013 -0.0077
  126OSM    H8F13432   2.236   1.956   3.421 -0.3664 -0.5779 -0.0959
  126OSM    H8G13433   2.358   2.089   3.392 -1.1142  0.1928  0.0198
  126OSM    C9F13434   2.433   1.930   3.515  0.0452 -0.0961 -0.6591
  126OSM    H9F13435   2.532   1.977   3.510  0.3332 -0.6372 -0.0837
  126OSM   C10F13436   2.411   1.832   3.600 -0.1287  0.0036 -0.0654
  126OSM   H10F13437   2.491   1.799   3.669  0.5468 -1.5861 -1.5428
  126OSM   C11F13438   2.287   1.745   3.602 -0.6889 -0.1126  0.1414
  126OSM   H11F13439   2.313   1.637   3.605 -1.0954 -0.2008  0.9166
  126OSM   H11G13440   2.229   1.760   3.509  0.9623 -0.0276 -0.9146
  126OSM   C12F13441   2.191   1.776   3.723  0.0499  0.2306  0.3698
  126OSM   H12F13442   2.097   1.720   3.702  0.0863  0.4171 -0.3380
  126OSM   H12G13443   2.162   1.882   3.703 -2.8548 -0.4332  0.6050
  126OSM   C13F13444   2.248   1.745   3.855  0.1035  0.1576 -0.2435
  126OSM   H13F13445   2.195   1.794   3.940  1.8978 -1.0958  1.6785
  126OSM   H13G13446   2.355   1.773   3.853  0.4611 -1.2101 -1.3497
  126OSM   C14F13447   2.244   1.599   3.886  0.5459  0.6164 -0.0653
  126OSM   H14F13448   2.319   1.531   3.840 -0.8730 -2.2309  1.5324
  126OSM   H14G13449   2.152   1.552   3.845 -0.4961  0.0707  2.6664
  126OSM   C15F13450   2.245   1.581   4.040 -0.1110 -0.0439  0.0181
  126OSM   H15F13451   2.228   1.474   4.064  0.2234 -0.3502 -1.0417
  126OSM   H15G13452   2.168   1.649   4.081  1.2584  1.2561  0.5157
  126OSM   C16F13453   2.377   1.630   4.114  0.2621  0.5129 -0.9291
  126OSM   H16F13454   2.410   1.728   4.074 -1.4058  1.6022  0.2456
  126OSM   H16G13455   2.459   1.564   4.079  2.4032  1.7867  1.3837
  126OSM   C17F13456   2.366   1.648   4.267  0.0439 -0.6697 -0.0938
  126OSM   H17F13457   2.268   1.694   4.287  1.2922  2.0613  0.2069
  126OSM   H17G13458   2.447   1.722   4.286 -0.5162 -0.2452  0.6559
  126OSM   C18F13459   2.384   1.507   4.324  0.2399 -0.3699  0.0845
  126OSM   H18F13460   2.295   1.444   4.301  1.0219 -1.8564  0.9909
  126OSM   H18G13461   2.401   1.507   4.433  1.3210 -2.3377 -0.0277
  126OSM   H18H13462   2.484   1.476   4.284  0.5203  2.6723 -1.9486
  127OSM      N13463   0.375   3.330   2.001 -0.2766  0.1388  0.0824
  127OSM    C1513464   0.346   3.202   1.936 -0.2049 -0.6454 -0.5239
  127OSM   H15A13465   0.436   3.154   1.899  2.0272  0.4789  3.0040
  127OSM   H15B13466   0.263   3.212   1.868 -0.4121  1.2104 -0.0421
  127OSM   H15C13467   0.309   3.133   2.010 -0.6549 -1.2619 -1.3033
  127OSM    C1413468   0.421   3.423   1.888 -0.4709 -0.0399  0.3048
  127OSM   H14A13469   0.343   3.436   1.816 -2.4652  3.9973  2.8208
  127OSM   H14B13470   0.513   3.387   1.843 -0.4153 -0.3428  0.6560
  127OSM   H14C13471   0.435   3.522   1.928  3.7731 -0.5737  0.6057
  127OSM    C1313472   0.244   3.390   2.059 -0.7646  0.4726 -0.0948
  127OSM   H13A13473   0.191   3.309   2.108 -1.6488  0.1685 -1.4715
  127OSM   H13B13474   0.180   3.434   1.983 -1.2974 -0.2448 -0.0734
  127OSM   H13C13475   0.270   3.469   2.127  1.3514  0.0903 -0.4094
  127OSM    C1213476   0.486   3.320   2.111  0.4115  0.6044 -0.1619
  127OSM   H12A13477   0.581   3.296   2.065 -0.7474  0.8149 -2.8763
  127OSM   H12B13478   0.461   3.233   2.169 -0.6186  0.7005 -0.4450
  127OSM    C1113479   0.505   3.446   2.202 -0.0016 -0.0166  0.2566
  127OSM   H11A13480   0.576   3.414   2.281 -0.2784  0.5615  0.7469
  127OSM   H11B13481   0.407   3.463   2.251  0.2110  0.5774  0.4815
  127OSM      P13482   0.504   3.701   2.164  0.0139  0.3503  0.2037
  127OSM    O1313483   0.610   3.801   2.120  0.3276  0.0151  0.6192
  127OSM    O1413484   0.368   3.716   2.109  1.1740 -0.1905 -0.8389
  127OSM    O1113485   0.495   3.693   2.320 -0.5520  0.1767 -0.0184
  127OSM    O1213486   0.561   3.557   2.140  0.3536 -0.0432 -0.2687
  127OSM    C1S13487   0.610   3.732   2.404 -0.0348 -0.0151  0.1013
  127OSM    H1S13488   0.646   3.831   2.370 -3.4548  1.4162  0.3591
  127OSM    H1T13489   0.691   3.656   2.395 -0.5709 -0.6925  0.8423
  127OSM     NF13490   0.664   3.823   2.631 -0.4224 -0.2328  0.6123
  127OSM    HNF13491   0.737   3.782   2.686 -0.2438  0.6784  1.0764
  127OSM    C2S13492   0.574   3.735   2.558 -0.1511  0.3130 -0.0261
  127OSM    H2S13493   0.475   3.784   2.574 -0.6485 -0.6722 -0.0534
  127OSM    C3S13494   0.551   3.590   2.608 -0.4411 -0.4399  0.1752
  127OSM    H3S13495   0.643   3.534   2.583  1.4502  2.9419 -1.0772
  127OSM     O313496   0.442   3.524   2.536  0.1687 -0.2143  0.0102
  127OSM    HO313497   0.419   3.570   2.455  0.8617 -0.0304 -0.0888
  127OSM    C4S13498   0.534   3.581   2.757  0.1289  0.3519  0.5214
  127OSM    H4S13499   0.626   3.599   2.815 -1.7787  2.2144  3.2173
  127OSM    C5S13500   0.424   3.554   2.827 -0.0584  0.9147 -0.1277
  127OSM    H5S13501   0.337   3.542   2.761 -1.0233 -0.0386  1.2661
  127OSM    C6S13502   0.416   3.546   2.983  0.4997 -0.0574  0.4014
  127OSM    H6S13503   0.330   3.482   3.012  0.4767 -0.2193 -0.0123
  127OSM    H6T13504   0.392   3.643   3.031 -0.0381  0.4598 -0.8772
  127OSM    C7S13505   0.543   3.502   3.048 -0.5012 -0.0652  0.3586
  127OSM    H7S13506   0.610   3.591   3.040  1.2646 -1.3422  0.2968
  127OSM    H7T13507   0.593   3.415   3.001 -1.4118  0.4820 -1.7113
  127OSM    C8S13508   0.536   3.473   3.194  0.0596 -1.1943 -0.3349
  127OSM    H8S13509   0.634   3.434   3.230  1.1731  2.3005  0.8612
  127OSM    H8T13510   0.452   3.406   3.223  1.4587 -3.0676 -0.4158
  127OSM    C9S13511   0.526   3.605   3.284 -0.7797 -0.2616  0.6867
  127OSM    H9S13512   0.452   3.673   3.237  0.3530 -0.3106 -1.2661
  127OSM    H9T13513   0.624   3.654   3.266 -1.1783 -0.0907 -1.1877
  127OSM   C10S13514   0.511   3.584   3.434  0.3691  0.1496 -1.1381
  127OSM   H10S13515   0.595   3.525   3.475 -1.0689 -1.0433  0.2516
  127OSM   H10T13516   0.420   3.522   3.449  1.0645 -0.6577 -0.1355
  127OSM   C11S13517   0.501   3.712   3.510  0.4543 -0.9688  0.2855
  127OSM   H11S13518   0.420   3.767   3.456 -0.0486 -2.3419 -0.3940
  127OSM   H11T13519   0.595   3.771   3.505 -0.2617  0.1794 -0.3317
  127OSM   C12S13520   0.471   3.698   3.660 -0.1971 -0.2805 -0.1180
  127OSM   H12S13521   0.557   3.646   3.707 -0.6440  1.1951  2.5920
  127OSM   H12T13522   0.380   3.637   3.679 -0.1186 -0.4455 -0.2675
  127OSM   C13S13523   0.444   3.833   3.732  0.5271  0.5279 -0.0211
  127OSM   H13S13524   0.373   3.887   3.666 -1.0461 -2.2124 -0.7355
  127OSM   H13T13525   0.539   3.889   3.744 -0.2506  2.3809 -1.9440
  127OSM   C14S13526   0.379   3.818   3.874  0.7425  0.6548 -0.1753
  127OSM   H14S13527   0.292   3.751   3.856  1.1180  0.1471 -0.1330
  127OSM   H14T13528   0.343   3.908   3.927 -2.7163 -1.1107  0.7872
  127OSM   C15S13529   0.460   3.733   3.970 -0.4231  0.6951  0.1811
  127OSM   H15S13530   0.488   3.637   3.922 -0.0028  0.6666  0.4878
  127OSM   H15T13531   0.415   3.720   4.070  1.6146  2.2342  1.3661
  127OSM   C16S13532   0.592   3.794   4.009 -0.6647 -0.5952  0.4215
  127OSM   H16S13533   0.576   3.899   4.042 -1.9209 -0.4789 -0.4749
  127OSM   H16T13534   0.654   3.802   3.917 -1.6356  0.5284 -0.1663
  127OSM   C17S13535   0.673   3.716   4.115 -0.1985 -0.1717  0.2676
  127OSM   H17S13536   0.620   3.702   4.211  2.0734  1.2179  1.7935
  127OSM   H17T13537   0.755   3.784   4.144  0.7849 -1.4244  0.5405
  127OSM   C18S13538   0.754   3.584   4.083 -0.0299  0.3672  0.2370
  127OSM   H18S13539   0.807   3.548   4.173 -0.7238 -2.3529 -0.3598
  127OSM   H18T13540   0.827   3.601   4.001  2.4367 -3.0960  1.5065
  127OSM   H18U13541   0.677   3.512   4.049  0.7440 -0.1526 -0.4463
  127OSM    C1F13542   0.658   3.955   2.618 -0.6367  0.3731  0.0365
  127OSM     OF13543   0.561   4.010   2.565  0.4634  0.8810  0.2301
  127OSM    C2F13544   0.767   4.050   2.661 -0.1620  0.3686  0.0227
  127OSM    H2F13545   0.777   4.131   2.585 -0.4331 -0.9136 -1.4444
  127OSM    H2G13546   0.861   3.990   2.662 -0.4102 -0.0249  1.1568
  127OSM    C3F13547   0.732   4.102   2.798  0.1632  0.1836 -0.5554
  127OSM    H3F13548   0.634   4.153   2.802  0.5154  0.8977 -0.7287
  127OSM    H3G13549   0.797   4.192   2.807  1.0932 -0.4851 -0.3333
  127OSM    C4F13550   0.749   4.002   2.911  0.2378 -0.1851 -0.1480
  127OSM    H4F13551   0.841   3.947   2.882 -0.8524 -1.0831 -2.0704
  127OSM    H4G13552   0.653   3.946   2.908  0.1252  0.0095 -0.1832
  127OSM    C5F13553   0.761   4.068   3.053 -0.8343 -0.2641 -0.2686
  127OSM    H5F13554   0.672   4.135   3.066 -2.1734 -2.0482  0.1269
  127OSM    H5G13555   0.858   4.120   3.040 -0.2777 -0.9130  1.1282
  127OSM    C6F13556   0.759   3.962   3.158  0.6916 -0.7373 -0.2037
  127OSM    H6F13557   0.866   3.933   3.173  0.9342 -0.7683 -1.8083
  127OSM    H6G13558   0.696   3.877   3.123 -1.8922  1.2784 -0.7547
  127OSM    C7F13559   0.684   4.009   3.291 -0.4509 -0.4162  0.1366
  127OSM    H7F13560   0.676   3.917   3.353 -1.3259 -1.1612 -1.0263
  127OSM    H7G13561   0.583   4.034   3.254 -0.5733 -0.7091  0.2693
  127OSM    C8F13562   0.751   4.117   3.369 -0.3315 -0.2192  0.0283
  127OSM    H8F13563   0.759   4.211   3.311  3.2886  0.0167  0.6633
  127OSM    H8G13564   0.854   4.079   3.386  0.1593  0.5292 -1.1234
  127OSM    C9F13565   0.673   4.144   3.499  0.3208  0.1412 -0.5371
  127OSM    H9F13566   0.564   4.132   3.491  0.3426  0.3840 -1.2800
  127OSM   C10F13567   0.729   4.176   3.613 -0.4684  0.5467 -0.5052
  127OSM   H10F13568   0.673   4.185   3.707 -1.1712 -1.1010 -0.7453
  127OSM   C11F13569   0.879   4.206   3.633  0.6005 -0.0806  0.3836
  127OSM   H11F13570   0.906   4.301   3.582  0.8066 -1.6454 -2.6568
  127OSM   H11G13571   0.946   4.130   3.588 -0.6950 -0.0725 -1.6663
  127OSM   C12F13572   0.931   4.213   3.783  0.5676 -0.2169  0.5071
  127OSM   H12F13573   0.867   4.293   3.826 -0.7728 -1.2472  0.4848
  127OSM   H12G13574   1.036   4.248   3.788  0.4611  0.4946 -1.5424
  127OSM   C13F13575   0.913   4.083   3.855  0.8510  1.1812 -0.1231
  127OSM   H13F13576   0.976   3.999   3.819 -0.0880 -0.7682  2.4613
  127OSM   H13G13577   0.809   4.043   3.854  0.8717  0.8126  2.7061
  127OSM   C14F13578   0.936   4.099   4.009  0.5355 -0.1295  1.2254
  127OSM   H14F13579   0.895   4.012   4.065 -0.0564 -0.3961  0.4094
  127OSM   H14G13580   0.890   4.196   4.039 -1.9425 -1.3278  1.5641
  127OSM   C15F13581   1.088   4.102   4.044  0.5104  0.0237 -0.0805
  127OSM   H15F13582   1.141   4.181   3.987 -0.2869 -1.7438 -3.5627
  127OSM   H15G13583   1.134   4.009   4.004  0.8117 -0.7925  2.0319
  127OSM   C16F13584   1.111   4.100   4.191  0.1230  0.2974  0.4371
  127OSM   H16F13585   1.056   4.014   4.235  2.0042 -1.7292 -0.9758
  127OSM   H16G13586   1.065   4.195   4.226 -1.1566 -0.3571  0.5762
  127OSM   C17F13587   1.260   4.087   4.241 -0.4786  0.4979  0.3565
  127OSM   H17F13588   1.304   4.173   4.185 -1.4289  1.1741  0.6144
  127OSM   H17G13589   1.299   3.989   4.207 -1.6100  0.5703 -1.2575
  127OSM   C18F13590   1.290   4.098   4.390  0.8678 -0.2124 -0.1618
  127OSM   H18F13591   1.400   4.095   4.403  0.7334  1.2818  1.7217
  127OSM   H18G13592   1.240   4.023   4.455  2.3268  0.7034  2.1672
  127OSM   H18H13593   1.259   4.201   4.419  1.6630  0.9581 -3.1492
  128OSM      N13594   1.207   2.142   1.721  0.2263 -0.3349 -0.3620
  128OSM    C1513595   1.097   2.046   1.691 -0.1043  0.2695  0.7465
  128OSM   H15A13596   0.996   2.066   1.725 -1.1126 -1.6000 -0.9520
  128OSM   H15B13597   1.133   1.962   1.749 -0.0704  0.1240  0.5122
  128OSM   H15C13598   1.096   2.022   1.586  0.0892  0.9841  0.5781
  128OSM    C1413599   1.320   2.090   1.649  0.0378  0.0615  0.3772
  128OSM   H14A13600   1.353   1.995   1.688  0.6428  0.0523 -0.1293
  128OSM   H14B13601   1.414   2.143   1.655  0.1342  0.0564 -0.8512
  128OSM   H14C13602   1.298   2.072   1.545 -1.3022  1.8388  0.3184
  128OSM    C1313603   1.168   2.281   1.670 -0.5138 -0.0817 -0.3153
  128OSM   H13A13604   1.154   2.276   1.563  1.1900  0.3790 -0.5876
  128OSM   H13B13605   1.248   2.353   1.679  0.6882 -1.4848  0.8116
  128OSM   H13C13606   1.077   2.316   1.717 -0.2125 -1.2921  1.2453
  128OSM    C1213607   1.231   2.166   1.873  0.5128 -0.3004  0.3547
  128OSM   H12A13608   1.152   2.227   1.916  1.6619  2.0185 -0.6325
  128OSM   H12B13609   1.315   2.234   1.875  0.2696  0.0174 -0.2020
  128OSM    C1113610   1.268   2.042   1.961  0.6531 -0.0177 -0.7040
  128OSM   H11A13611   1.272   2.078   2.066 -0.2471 -0.5756 -0.4675
  128OSM   H11B13612   1.369   2.006   1.932 -0.3208 -2.2314 -1.5711
  128OSM      P13613   1.197   1.793   1.970 -0.1454  0.0667 -0.1280
  128OSM    O1313614   1.071   1.721   1.933  0.0454 -0.2402  0.0555
  128OSM    O1413615   1.317   1.758   1.895 -0.0127  0.6621 -0.0335
  128OSM    O1113616   1.229   1.769   2.121 -0.4624 -0.2638  0.5498
  128OSM    O1213617   1.168   1.941   1.949  0.3454  0.1889  0.9509
  128OSM    C1S13618   1.146   1.827   2.225 -0.0548 -0.6894  0.2408
  128OSM    H1S13619   1.039   1.804   2.206  0.0433 -1.5084  0.6465
  128OSM    H1T13620   1.140   1.938   2.225 -1.5750 -0.7557 -0.1728
  128OSM     NF13621   1.073   1.773   2.463 -0.2036 -0.5710  0.5025
  128OSM    HNF13622   1.088   1.819   2.550  0.1471  0.7974 -0.2400
  128OSM    C2S13623   1.186   1.770   2.368  1.0374 -0.5845  0.6693
  128OSM    H2S13624   1.197   1.661   2.346  0.6287 -0.1264 -2.1597
  128OSM    C3S13625   1.320   1.835   2.419  0.2104  0.3967  0.0495
  128OSM    H3S13626   1.290   1.934   2.461  0.9138  0.9988 -0.8349
  128OSM     O313627   1.413   1.864   2.314  0.2549 -0.3300  0.2027
  128OSM    HO313628   1.357   1.846   2.238  0.1315 -2.3358  0.7058
  128OSM    C4S13629   1.379   1.758   2.534 -0.3768  0.7866  0.7313
  128OSM    H4S13630   1.350   1.800   2.631  0.0229  2.6833  0.0789
  128OSM    C5S13631   1.468   1.654   2.521 -0.1376 -0.4519  0.2088
  128OSM    H5S13632   1.508   1.616   2.426  2.2693  1.1312  0.5044
  128OSM    C6S13633   1.522   1.576   2.642 -0.1241 -0.0424  0.3886
  128OSM    H6S13634   1.630   1.598   2.650 -0.2549  1.2481 -0.9831
  128OSM    H6T13635   1.506   1.469   2.620 -1.6556  0.5248 -1.6031
  128OSM    C7S13636   1.457   1.598   2.776  0.2559  0.6353  0.0732
  128OSM    H7S13637   1.350   1.568   2.781  0.4198 -0.4133 -1.6263
  128OSM    H7T13638   1.476   1.701   2.811 -1.7205  0.4679  1.8349
  128OSM    C8S13639   1.528   1.515   2.885  0.1504  0.6921  0.1696
  128OSM    H8S13640   1.636   1.543   2.889  0.8150 -1.6122 -0.6402
  128OSM    H8T13641   1.529   1.409   2.854 -0.4348  0.6863  0.1569
  128OSM    C9S13642   1.462   1.535   3.028  0.5530 -0.2274  0.4411
  128OSM    H9S13643   1.364   1.483   3.031 -0.4529  1.5544 -0.1546
  128OSM    H9T13644   1.439   1.639   3.057 -0.2287 -1.1934  3.7696
  128OSM   C10S13645   1.559   1.477   3.132 -0.4565 -0.9622 -0.1279
  128OSM   H10S13646   1.648   1.544   3.125 -1.1124 -0.1851 -1.4955
  128OSM   H10T13647   1.592   1.373   3.109 -0.1341 -0.7874 -0.4723
  128OSM   C11S13648   1.492   1.494   3.274 -0.6856  0.2388 -0.7122
  128OSM   H11S13649   1.405   1.426   3.267 -1.7401  1.3776  0.7924
  128OSM   H11T13650   1.465   1.598   3.301  1.0823  0.2262  1.3452
  128OSM   C12S13651   1.588   1.432   3.383  0.2398 -0.5246 -0.3778
  128OSM   H12S13652   1.691   1.473   3.379  0.3163 -0.6795 -0.0055
  128OSM   H12T13653   1.597   1.322   3.369  0.6132 -0.7072  1.1728
  128OSM   C13S13654   1.537   1.457   3.525 -0.1914 -0.3448  0.9352
  128OSM   H13S13655   1.457   1.382   3.544 -0.2309 -0.3350  0.8111
  128OSM   H13T13656   1.492   1.559   3.524 -1.6205 -0.9438 -0.3610
  128OSM   C14S13657   1.649   1.445   3.625  0.7139  0.0990 -0.4274
  128OSM   H14S13658   1.728   1.518   3.598  0.9966 -0.6977 -1.8349
  128OSM   H14T13659   1.696   1.345   3.619  0.6163 -0.0494  0.9144
  128OSM   C15S13660   1.594   1.467   3.770 -0.0074  0.2181  0.0275
  128OSM   H15S13661   1.525   1.383   3.794  0.6791 -0.5722 -0.7050
  128OSM   H15T13662   1.530   1.557   3.766 -2.0962 -1.1894  0.3960
  128OSM   C16S13663   1.692   1.471   3.884  0.4489  0.2118  0.3696
  128OSM   H16S13664   1.776   1.533   3.846  0.1845  1.1994  1.3633
  128OSM   H16T13665   1.734   1.373   3.917  1.2226  0.8893  1.4498
  128OSM   C17S13666   1.627   1.530   4.012  0.4217  0.2001 -0.4136
  128OSM   H17S13667   1.548   1.453   4.025  0.0167  0.6007 -0.4634
  128OSM   H17T13668   1.580   1.629   3.993 -0.7065  0.0164  1.1629
  128OSM   C18S13669   1.723   1.535   4.137  0.4352  0.4702  1.3161
  128OSM   H18S13670   1.667   1.557   4.231 -0.3476  2.2670  0.4707
  128OSM   H18T13671   1.805   1.603   4.106 -0.6133  1.0716 -0.2613
  128OSM   H18U13672   1.766   1.433   4.145 -0.0802  0.2311  1.0593
  128OSM    C1F13673   0.947   1.728   2.447 -0.4958 -0.3212 -0.4720
  128OSM     OF13674   0.899   1.684   2.348  0.4212 -0.4810  0.0416
  128OSM    C2F13675   0.866   1.747   2.573  0.3565  0.6468 -0.0831
  128OSM    H2F13676   0.791   1.827   2.555  0.1084  0.7087  1.1175
  128OSM    H2G13677   0.936   1.789   2.648  1.6944 -0.4053 -0.7005
  128OSM    C3F13678   0.788   1.612   2.599  0.5885 -0.6984  0.0255
  128OSM    H3F13679   0.855   1.525   2.617  0.0878 -1.6064 -2.1147
  128OSM    H3G13680   0.732   1.584   2.507  0.6578 -0.0817 -0.2116
  128OSM    C4F13681   0.687   1.624   2.714 -0.1252  0.4690 -0.3607
  128OSM    H4F13682   0.646   1.521   2.718 -2.2246  1.2787  2.4241
  128OSM    H4G13683   0.607   1.698   2.691  0.8732  1.6463 -0.1834
  128OSM    C5F13684   0.757   1.677   2.846 -0.2438  0.2063 -0.1400
  128OSM    H5F13685   0.799   1.775   2.817 -3.6626  1.5463 -1.0083
  128OSM    H5G13686   0.840   1.608   2.872 -2.5403 -2.1626  1.5064
  128OSM    C6F13687   0.660   1.680   2.968  0.6934 -0.0253 -0.3989
  128OSM    H6F13688   0.627   1.579   3.000  0.4761 -0.2871 -1.3990
  128OSM    H6G13689   0.571   1.734   2.930  0.9377  0.2818 -0.5366
  128OSM    C7F13690   0.728   1.735   3.095  0.1473  0.1434  0.3650
  128OSM    H7F13691   0.762   1.839   3.074 -1.3404  0.7781  0.9755
  128OSM    H7G13692   0.812   1.666   3.117 -0.9709 -0.5417  2.7653
  128OSM    C8F13693   0.626   1.729   3.214 -0.9434 -0.2827  0.5003
  128OSM    H8F13694   0.612   1.619   3.228 -0.2973 -0.4013  0.2420
  128OSM    H8G13695   0.540   1.791   3.183  0.5362  1.1284 -0.9300
  128OSM    C9F13696   0.675   1.788   3.343 -0.2746 -0.5910 -0.3334
  128OSM    H9F13697   0.708   1.893   3.340 -0.0204 -0.6784 -0.5874
  128OSM   C10F13698   0.657   1.728   3.469  0.5726  0.0550 -0.1394
  128OSM   H10F13699   0.717   1.775   3.548  0.6673  2.7951 -1.7232
  128OSM   C11F13700   0.595   1.599   3.512  0.2707  0.3738 -0.8325
  128OSM   H11F13701   0.593   1.533   3.422 -2.2818  1.5665 -1.7543
  128OSM   H11G13702   0.489   1.619   3.539  0.8806  2.0747  0.4584
  128OSM   C12F13703   0.666   1.529   3.630  0.1474  0.0536  0.0329
  128OSM   H12F13704   0.773   1.506   3.611 -0.2851 -1.5205 -0.7494
  128OSM   H12G13705   0.615   1.430   3.639 -1.1132  0.6967  0.1327
  128OSM   C13F13706   0.650   1.605   3.761 -0.3255 -0.7197 -0.1684
  128OSM   H13F13707   0.552   1.657   3.761  0.8114  1.5417 -0.1729
  128OSM   H13G13708   0.723   1.689   3.758  0.7003 -1.5631  0.4813
  128OSM   C14F13709   0.680   1.523   3.890  0.3582  0.2047 -0.1907
  128OSM   H14F13710   0.772   1.463   3.880  0.0129 -0.8092  2.1287
  128OSM   H14G13711   0.597   1.450   3.899 -1.1368  2.0533  2.8597
  128OSM   C15F13712   0.686   1.598   4.024  0.2156 -0.1118  0.9417
  128OSM   H15F13713   0.696   1.521   4.103 -2.6201 -1.9921 -0.3835
  128OSM   H15G13714   0.587   1.648   4.028 -0.0384 -0.6429  1.3780
  128OSM   C16F13715   0.805   1.695   4.043 -0.2763 -0.2329  0.4775
  128OSM   H16F13716   0.801   1.761   3.953  2.4417 -2.5585 -1.5533
  128OSM   H16G13717   0.900   1.641   4.024 -1.1027 -1.9210  0.9345
  128OSM   C17F13718   0.803   1.768   4.170 -0.9078  0.3221 -0.8309
  128OSM   H17F13719   0.808   1.712   4.266  0.0334  1.2732 -0.3031
  128OSM   H17G13720   0.703   1.811   4.192 -0.2303  1.6259 -0.1888
  128OSM   C18F13721   0.910   1.876   4.187  0.9848 -0.5733  0.1073
  128OSM   H18F13722   0.914   1.903   4.295  0.6293 -1.7232  0.4252
  128OSM   H18G13723   0.889   1.964   4.122 -0.6665 -0.4710  0.7162
  128OSM   H18H13724   1.006   1.830   4.157  1.5613  0.3974  0.4363
  129OSM      N13725   4.668   2.055   2.287  0.6988 -0.5995  1.0229
  129OSM    C1513726   4.808   2.023   2.307 -0.8138 -0.9227 -0.2781
  129OSM   H15A13727   4.856   2.105   2.358  0.1267 -1.2831 -0.5596
  129OSM   H15B13728   4.846   2.002   2.208 -0.2416 -0.6861 -0.1115
  129OSM   H15C13729   4.817   1.929   2.360  0.5952 -1.3870 -1.2924
  129OSM    C1413730   4.657   2.175   2.196  0.0673  0.2241 -0.9072
  129OSM   H14A13731   4.700   2.254   2.255 -0.8011 -1.8876  2.9017
  129OSM   H14B13732   4.554   2.190   2.170  0.2699 -0.5921 -2.2785
  129OSM   H14C13733   4.715   2.163   2.106  1.9149 -1.3914  0.4165
  129OSM    C1313734   4.612   1.937   2.215 -0.0530  0.6665  0.3342
  129OSM   H13A13735   4.510   1.958   2.188  0.0808  3.0725  1.3990
  129OSM   H13B13736   4.612   1.851   2.280  1.3718 -0.4480 -1.0346
  129OSM   H13C13737   4.670   1.911   2.127 -1.5760  0.8958 -0.7823
  129OSM    C1213738   4.590   2.085   2.420  0.3103  0.5992 -0.6799
  129OSM   H12A13739   4.494   2.129   2.403  0.1550  1.1417  1.2936
  129OSM   H12B13740   4.641   2.168   2.467  0.1284  1.0689 -1.3041
  129OSM    C1113741   4.582   1.970   2.529 -0.7536 -0.1963 -0.0193
  129OSM   H11A13742   4.526   1.993   2.623  0.1341 -1.8631  0.9508
  129OSM   H11B13743   4.684   1.940   2.560  0.1493  1.7024 -0.9881
  129OSM      P13744   4.380   1.822   2.441 -0.1229 -0.1493 -0.0816
  129OSM    O1313745   4.318   1.919   2.353  0.1221 -0.2877 -0.1198
  129OSM    O1413746   4.371   1.679   2.406  0.1895 -0.2315  0.5462
  129OSM    O1113747   4.317   1.835   2.577 -0.2661 -0.7992 -0.1791
  129OSM    O1213748   4.527   1.853   2.471 -0.4321 -0.7278 -0.2122
  129OSM    C1S13749   4.314   1.738   2.686 -0.6231 -0.0999  0.5141
  129OSM    H1S13750   4.380   1.649   2.681 -1.9741 -1.1555  0.9406
  129OSM    H1T13751   4.210   1.700   2.695 -1.9783  3.0239 -0.3123
  129OSM     NF13752   4.359   1.698   2.919  0.3375 -0.6280 -0.2426
  129OSM    HNF13753   4.289   1.672   2.984 -0.3854  0.0828 -0.7081
  129OSM    C2S13754   4.337   1.809   2.824  0.4529 -0.4724 -0.3403
  129OSM    H2S13755   4.423   1.878   2.823 -1.3511  1.9804  1.4177
  129OSM    C3S13756   4.214   1.894   2.865 -0.3352 -0.5569 -0.0473
  129OSM    H3S13757   4.129   1.826   2.886 -0.3148 -1.2568 -2.0555
  129OSM     O313758   4.162   1.983   2.766  0.4458 -0.1243 -0.3766
  129OSM    HO313759   4.216   1.966   2.688 -0.8817  1.3380 -1.6812
  129OSM    C4S13760   4.248   1.955   3.002  0.3056 -0.2883  0.7280
  129OSM    H4S13761   4.217   1.900   3.091  1.4310 -0.0674  1.2677
  129OSM    C5S13762   4.290   2.076   3.027  0.0110  0.0963  0.6950
  129OSM    H5S13763   4.305   2.154   2.950 -1.9459 -0.5501 -0.4122
  129OSM    C6S13764   4.300   2.118   3.168 -0.0898 -0.0720  0.4623
  129OSM    H6S13765   4.252   2.218   3.172 -0.2448  0.0955 -2.6159
  129OSM    H6T13766   4.409   2.127   3.187  0.5472 -3.9577 -0.4586
  129OSM    C7S13767   4.254   2.037   3.296 -0.2606 -0.8812 -0.7874
  129OSM    H7S13768   4.316   1.945   3.297  2.6907  0.9837 -0.5278
  129OSM    H7T13769   4.145   2.021   3.291 -0.6567  1.0803  0.3549
  129OSM    C8S13770   4.289   2.118   3.424  0.7617 -0.0664 -0.8347
  129OSM    H8S13771   4.229   2.211   3.415  0.4494 -0.2842 -1.0037
  129OSM    H8T13772   4.399   2.132   3.410  0.4042  1.1462 -2.7877
  129OSM    C9S13773   4.261   2.041   3.556 -0.4229  0.1888  0.4924
  129OSM    H9S13774   4.350   1.976   3.574 -0.1974  0.9302  2.2263
  129OSM    H9T13775   4.172   1.976   3.540 -0.5768  0.7105 -0.9590
  129OSM   C10S13776   4.261   2.127   3.685  0.2935  0.2156 -0.2950
  129OSM   H10S13777   4.166   2.185   3.680 -0.5065 -1.1344 -2.7087
  129OSM   H10T13778   4.337   2.207   3.678 -0.3404  1.2723  3.0469
  129OSM   C11S13779   4.263   2.048   3.816  0.2633 -0.0853 -0.7256
  129OSM   H11S13780   4.362   2.000   3.829  0.5380  0.6519 -0.0661
  129OSM   H11T13781   4.187   1.966   3.815 -0.8932  0.9612 -1.0181
  129OSM   C12S13782   4.247   2.132   3.937 -0.1306 -0.0944 -0.6718
  129OSM   H12S13783   4.144   2.175   3.937 -0.6161 -1.0930  1.9028
  129OSM   H12T13784   4.326   2.209   3.925 -0.9341  0.4512 -3.3202
  129OSM   C13S13785   4.291   2.050   4.064  0.2107  0.4133 -0.0825
  129OSM   H13S13786   4.395   2.014   4.056  0.2647  0.5432  0.0269
  129OSM   H13T13787   4.229   1.958   4.068 -1.8297  1.6794 -0.8360
  129OSM   C14S13788   4.279   2.123   4.192  0.4426  0.1235  0.4025
  129OSM   H14S13789   4.307   2.055   4.275  0.0893 -0.0879  0.3483
  129OSM   H14T13790   4.174   2.152   4.215 -0.6156 -0.8282 -2.7876
  129OSM   C15S13791   4.369   2.256   4.208 -0.1156  0.3869  0.7806
  129OSM   H15S13792   4.337   2.333   4.134 -0.4957  1.5310  2.0796
  129OSM   H15T13793   4.474   2.228   4.184 -1.0336 -2.9122  0.1112
  129OSM   C16S13794   4.373   2.326   4.345  0.0879  0.8171  0.0745
  129OSM   H16S13795   4.427   2.260   4.416 -0.5196  0.8525  0.5780
  129OSM   H16T13796   4.271   2.342   4.386 -0.1120 -1.0839  0.4215
  129OSM   C17S13797   4.444   2.459   4.336 -0.2880  0.3076  0.4382
  129OSM   H17S13798   4.519   2.452   4.254  0.9813  0.1638  1.5958
  129OSM   H17T13799   4.500   2.469   4.431 -0.2365 -1.1789  0.5835
  129OSM   C18S13800   4.343   2.567   4.305 -0.0688  0.2530  0.3065
  129OSM   H18S13801   4.292   2.542   4.210  0.8349 -0.1523 -0.0877
  129OSM   H18T13802   4.392   2.664   4.285 -0.6302  0.2264 -1.2889
  129OSM   H18U13803   4.271   2.584   4.388  0.2378 -1.5527  0.9992
  129OSM    C1F13804   4.475   1.642   2.935  0.0563 -0.2599 -0.3206
  129OSM     OF13805   4.570   1.667   2.861 -0.0938 -0.4337  0.1336
  129OSM    C2F13806   4.494   1.533   3.038 -0.1441  0.6829  0.1866
  129OSM    H2F13807   4.523   1.439   2.986  0.2752  0.2961  1.0807
  129OSM    H2G13808   4.393   1.522   3.083 -0.3118  1.2437 -0.0573
  129OSM    C3F13809   4.600   1.576   3.143  0.5847 -0.1259  0.1604
  129OSM    H3F13810   4.578   1.678   3.182 -0.7145 -0.5753  0.6423
  129OSM    H3G13811   4.706   1.584   3.111  1.1377  0.5785  2.0298
  129OSM    C4F13812   4.605   1.474   3.263  0.3527  0.2192 -0.7329
  129OSM    H4F13813   4.626   1.376   3.215  1.2984 -1.2044  2.3091
  129OSM    H4G13814   4.497   1.459   3.284  0.2382  0.7521 -0.9211
  129OSM    C5F13815   4.691   1.520   3.381 -0.5184 -0.2375  0.4375
  129OSM    H5F13816   4.656   1.616   3.423  0.6024 -0.2318  1.4152
  129OSM    H5G13817   4.788   1.547   3.334 -0.7812  0.6846  0.4145
  129OSM    C6F13818   4.701   1.419   3.488 -0.0256  0.5108 -0.1942
  129OSM    H6F13819   4.757   1.328   3.457  0.8632  0.0871  2.3919
  129OSM    H6G13820   4.603   1.383   3.524 -0.0902  0.1213 -0.7602
  129OSM    C7F13821   4.784   1.473   3.605 -0.7759 -0.0561  0.9796
  129OSM    H7F13822   4.763   1.581   3.622 -4.2704 -0.0434 -2.0559
  129OSM    H7G13823   4.884   1.483   3.558 -2.0348  1.7395 -1.5348
  129OSM    C8F13824   4.796   1.378   3.720 -0.6142  1.0678 -0.9799
  129OSM    H8F13825   4.891   1.405   3.771 -0.5166 -1.5639  0.4081
  129OSM    H8G13826   4.810   1.277   3.677 -3.2158  0.2234 -0.0477
  129OSM    C9F13827   4.688   1.369   3.822 -0.0665 -0.4049  0.0119
  129OSM    H9F13828   4.601   1.307   3.797  0.3794 -0.7925 -0.6107
  129OSM   C10F13829   4.678   1.420   3.943 -0.0739 -0.6670 -0.3548
  129OSM   H10F13830   4.592   1.396   4.008 -0.8608 -2.4970 -1.9633
  129OSM   C11F13831   4.792   1.487   4.028  0.7208 -0.2975 -0.1589
  129OSM   H11F13832   4.753   1.582   4.069  0.6430 -1.1734  1.9401
  129OSM   H11G13833   4.879   1.512   3.964 -0.8577  3.1890 -1.1475
  129OSM   C12F13834   4.845   1.404   4.151 -0.0451  0.1394  0.4930
  129OSM   H12F13835   4.873   1.303   4.113  2.2633  1.2822 -1.0616
  129OSM   H12G13836   4.766   1.393   4.229  1.0000  0.8748  1.6907
  129OSM   C13F13837   4.964   1.484   4.208 -0.2289  0.1714 -0.0371
  129OSM   H13F13838   4.922   1.583   4.236  1.4733  0.8421  0.2622
  129OSM   H13G13839   5.041   1.496   4.130 -0.5282 -0.1477 -0.3831
  129OSM   C14F13840   5.028   1.424   4.334 -0.3923 -0.5058 -0.0289
  129OSM   H14F13841   4.949   1.408   4.411 -0.0103 -2.6139 -0.0179
  129OSM   H14G13842   5.116   1.482   4.367 -0.4639  0.7168 -1.8400
  129OSM   C15F13843   5.078   1.288   4.289  0.0259 -0.5236 -0.1497
  129OSM   H15F13844   5.124   1.281   4.188  2.8280 -0.0651  1.0026
  129OSM   H15G13845   4.986   1.227   4.286 -0.6760  0.5522 -2.6400
  129OSM   C16F13846   5.194   1.241   4.381 -1.1398  0.2957  0.3582
  129OSM   H16F13847   5.294   1.281   4.354 -0.8564  0.0393  1.0030
  129OSM   H16G13848   5.206   1.132   4.363 -0.3518  0.5826 -0.9070
  129OSM   C17F13849   5.152   1.257   4.525 -0.4207  0.1032 -0.9464
  129OSM   H17F13850   5.046   1.224   4.534 -0.3361 -1.0872 -3.3753
  129OSM   H17G13851   5.158   1.366   4.542  3.5551 -0.2040  0.5729
  129OSM   C18F13852   5.239   1.185   4.624 -0.0454  0.0001 -0.0415
  129OSM   H18F13853   5.348   1.208   4.613 -0.2615  1.2952  0.3154
  129OSM   H18G13854   5.231   1.075   4.615  0.8810 -0.1468  0.7809
  129OSM   H18H13855   5.207   1.196   4.730 -1.5543 -1.8368 -0.2593
  130OSM      N13856   3.577   4.881   1.717 -0.2083 -0.1138  0.0703
  130OSM    C1513857   3.471   4.982   1.694 -0.3924 -0.6165  0.6318
  130OSM   H15A13858   3.422   5.027   1.779  0.9889  0.9549  0.6343
  130OSM   H15B13859   3.393   4.944   1.629 -1.2062  0.6698  0.8217
  130OSM   H15C13860   3.503   5.069   1.639 -2.7606 -1.2294 -1.9800
  130OSM    C1413861   3.517   4.748   1.764  0.1230 -0.8863  0.8097
  130OSM   H14A13862   3.462   4.704   1.682  0.3616 -0.6063  0.4974
  130OSM   H14B13863   3.448   4.779   1.841  0.4210 -0.4463  0.9054
  130OSM   H14C13864   3.590   4.674   1.792  0.3129 -2.3778 -3.0445
  130OSM    C1313865   3.649   4.850   1.587 -0.0112  0.1335  0.2727
  130OSM   H13A13866   3.564   4.826   1.525 -0.9293  1.0731  1.1099
  130OSM   H13B13867   3.723   4.772   1.596 -1.3722 -1.4407 -1.4261
  130OSM   H13C13868   3.700   4.941   1.557  0.4484 -0.0229  0.5674
  130OSM    C1213869   3.677   4.930   1.821  0.9393  0.2102 -0.3524
  130OSM   H12A13870   3.729   5.015   1.780  1.2202  1.2982  2.1067
  130OSM   H12B13871   3.748   4.850   1.834  0.9049  0.5780  2.8376
  130OSM    C1113872   3.631   4.975   1.962  0.0885 -0.3749  0.3295
  130OSM   H11A13873   3.552   5.052   1.956  0.7231  0.3878  1.3515
  130OSM   H11B13874   3.717   5.025   2.013  1.2668 -2.3935  0.4184
  130OSM      P13875   3.667   4.765   2.117  0.1547 -0.4253 -0.2687
  130OSM    O1313876   3.663   4.633   2.060 -0.1944  0.1350  0.3110
  130OSM    O1413877   3.799   4.824   2.140  0.3609 -0.3993  0.8450
  130OSM    O1113878   3.598   4.765   2.264  0.1124 -0.1888  0.3137
  130OSM    O1213879   3.579   4.870   2.033  0.1133 -0.0176 -0.0287
  130OSM    C1S13880   3.678   4.735   2.376 -0.1960  0.8003 -0.4366
  130OSM    H1S13881   3.779   4.782   2.380 -1.0380  2.9553 -2.0173
  130OSM    H1T13882   3.695   4.627   2.395  3.2856  1.0012 -1.6823
  130OSM     NF13883   3.684   4.750   2.626 -0.6824 -0.2780 -0.3285
  130OSM    HNF13884   3.680   4.659   2.666  2.0201 -1.5344 -2.5545
  130OSM    C2S13885   3.601   4.775   2.513  0.6100  1.1902 -0.0745
  130OSM    H2S13886   3.592   4.886   2.503  1.5013  1.1736 -1.3260
  130OSM    C3S13887   3.457   4.713   2.522  0.5908  1.0345 -0.0589
  130OSM    H3S13888   3.486   4.606   2.536 -3.3387 -0.0422  1.0592
  130OSM     O313889   3.374   4.704   2.403 -0.2998 -0.1078 -0.1418
  130OSM    HO313890   3.444   4.725   2.340 -0.4048 -0.0093 -0.2254
  130OSM    C4S13891   3.379   4.753   2.643 -0.3479  0.0153  0.1294
  130OSM    H4S13892   3.379   4.675   2.721 -2.9033  0.7669  0.9936
  130OSM    C5S13893   3.312   4.871   2.667  0.2224  0.2456 -0.1353
  130OSM    H5S13894   3.305   4.952   2.593 -0.4335  0.9499  0.6782
  130OSM    C6S13895   3.267   4.890   2.810 -0.1420  0.1138  0.0461
  130OSM    H6S13896   3.344   4.950   2.861 -2.9214  4.3075 -0.2003
  130OSM    H6T13897   3.269   4.792   2.863 -0.4101 -1.0832 -2.0081
  130OSM    C7S13898   3.144   4.962   2.852  0.3147 -0.2886  0.8884
  130OSM    H7S13899   3.058   4.930   2.789 -0.2839  1.8651  0.5059
  130OSM    H7T13900   3.146   5.069   2.822 -0.1809 -0.6601 -0.5552
  130OSM    C8S13901   3.100   4.946   2.996 -0.0555 -0.9675 -0.3726
  130OSM    H8S13902   3.073   4.839   3.000  1.2576 -1.2961  0.6132
  130OSM    H8T13903   3.011   5.008   3.018  0.8010  0.2737 -0.2724
  130OSM    C9S13904   3.203   4.975   3.107 -0.3826 -0.2882 -0.0931
  130OSM    H9S13905   3.237   5.080   3.097  1.5146 -0.6924  1.5391
  130OSM    H9T13906   3.299   4.921   3.092  1.6097  2.6118  1.3576
  130OSM   C10S13907   3.136   4.968   3.243 -0.0182  0.1261  0.0097
  130OSM   H10S13908   3.101   4.863   3.256  0.4939  0.1094  1.4264
  130OSM   H10T13909   3.045   5.031   3.249  0.2016  0.5174 -0.7296
  130OSM   C11S13910   3.231   5.008   3.346 -0.0550  0.6402 -0.7799
  130OSM   H11S13911   3.274   5.108   3.325  0.4427  0.8508  1.0012
  130OSM   H11T13912   3.319   4.940   3.345  0.5036  1.2761  0.8942
  130OSM   C12S13913   3.173   5.008   3.484  0.1599 -0.7202  0.2787
  130OSM   H12S13914   3.147   4.904   3.511  2.9028 -1.7469 -0.7270
  130OSM   H12T13915   3.081   5.071   3.493  0.4918 -0.2717  0.6040
  130OSM   C13S13916   3.277   5.058   3.590 -0.2252 -0.2747  0.0683
  130OSM   H13S13917   3.306   5.156   3.548 -1.0708  0.1781  0.5072
  130OSM   H13T13918   3.370   4.998   3.599 -1.2854 -1.7944  1.6166
  130OSM   C14S13919   3.230   5.074   3.739  0.5935  0.1282  0.5506
  130OSM   H14S13920   3.193   4.974   3.771 -1.0505  1.0446  1.6016
  130OSM   H14T13921   3.146   5.146   3.743  0.2265 -0.1212 -1.4078
  130OSM   C15S13922   3.348   5.106   3.835  0.4667 -0.1526  0.0617
  130OSM   H15S13923   3.396   5.192   3.783  1.7669 -2.9051 -3.7375
  130OSM   H15T13924   3.415   5.018   3.839  0.3869 -0.2153 -0.0271
  130OSM   C16S13925   3.307   5.123   3.979 -0.5188 -0.1227 -0.3057
  130OSM   H16S13926   3.276   5.026   4.025  0.8093  0.6430  2.4586
  130OSM   H16T13927   3.219   5.190   3.981  0.0945  0.6894  1.2756
  130OSM   C17S13928   3.422   5.180   4.072  0.1574 -0.3612 -0.7381
  130OSM   H17S13929   3.449   5.280   4.032 -0.1588 -0.2136 -0.5836
  130OSM   H17T13930   3.512   5.115   4.066  0.9591  0.6980 -0.5246
  130OSM   C18S13931   3.377   5.217   4.213 -0.1669  0.2552 -0.3922
  130OSM   H18S13932   3.310   5.305   4.211  1.4419  1.9564  4.3602
  130OSM   H18T13933   3.453   5.254   4.287 -0.8722 -0.0070  0.4811
  130OSM   H18U13934   3.320   5.134   4.261 -1.7371  0.3510 -2.0111
  130OSM    C1F13935   3.795   4.822   2.652 -0.0921 -0.0104 -0.0609
  130OSM     OF13936   3.828   4.911   2.569  0.7008  0.4261 -0.0188
  130OSM    C2F13937   3.871   4.771   2.769  0.4007 -0.0056  0.3226
  130OSM    H2F13938   3.918   4.673   2.749  2.0354  1.2081 -2.3723
  130OSM    H2G13939   3.791   4.761   2.845 -0.0129  2.7730  0.3815
  130OSM    C3F13940   3.984   4.852   2.838  0.0840  0.5501 -0.5383
  130OSM    H3F13941   3.970   4.961   2.826  0.7862  1.0066  2.1216
  130OSM    H3G13942   4.076   4.826   2.781  0.1146 -0.0700 -0.2206
  130OSM    C4F13943   4.006   4.807   2.986 -0.8780  0.0410 -0.2268
  130OSM    H4F13944   4.026   4.698   2.987  0.4736  0.2482 -1.6401
  130OSM    H4G13945   3.909   4.821   3.038  0.3641  0.1115  2.1918
  130OSM    C5F13946   4.116   4.886   3.061  0.7852  0.1912  0.3164
  130OSM    H5F13947   4.100   4.993   3.037 -1.2558 -0.2349 -0.4417
  130OSM    H5G13948   4.216   4.855   3.023  0.6525 -1.0065  0.8947
  130OSM    C6F13949   4.133   4.861   3.210  0.3918 -0.4047  0.2218
  130OSM    H6F13950   4.042   4.902   3.260 -1.3046 -2.5055 -0.9662
  130OSM    H6G13951   4.217   4.919   3.255  0.0938  0.5746 -0.4550
  130OSM    C7F13952   4.137   4.715   3.257 -0.2965  0.3299 -0.2168
  130OSM    H7F13953   4.205   4.671   3.181 -0.5535  0.8701 -0.7671
  130OSM    H7G13954   4.042   4.657   3.256 -1.7793  2.6126 -0.9637
  130OSM    C8F13955   4.196   4.688   3.397 -0.7457 -0.4899 -0.0596
  130OSM    H8F13956   4.286   4.753   3.401 -1.9626  1.4425 -1.7927
  130OSM    H8G13957   4.226   4.581   3.401  1.3921 -0.1244 -3.0539
  130OSM    C9F13958   4.100   4.726   3.503  0.4821  0.1981 -0.1078
  130OSM    H9F13959   4.025   4.794   3.459  1.1358  2.0758  1.5643
  130OSM   C10F13960   4.075   4.665   3.620 -1.0904 -0.1567 -0.2601
  130OSM   H10F13961   3.998   4.706   3.686  0.3359  2.0430  0.1499
  130OSM   C11F13962   4.167   4.565   3.689 -0.1124 -0.2492  0.9250
  130OSM   H11F13963   4.237   4.519   3.615 -0.7867 -0.1226  0.2015
  130OSM   H11G13964   4.109   4.478   3.726  0.9390 -2.3936 -2.1220
  130OSM   C12F13965   4.248   4.622   3.811 -0.0269 -0.2624  0.2140
  130OSM   H12F13966   4.330   4.692   3.783  1.0233 -0.7512  1.9326
  130OSM   H12G13967   4.304   4.537   3.855  0.6695  0.7050  1.2435
  130OSM   C13F13968   4.175   4.707   3.914 -0.4458 -0.0742 -0.0607
  130OSM   H13F13969   4.128   4.800   3.876  0.6744  0.4104 -0.2899
  130OSM   H13G13970   4.245   4.730   3.998  1.2933  0.6902 -1.6504
  130OSM   C14F13971   4.054   4.630   3.975  0.1420  0.0745 -0.8804
  130OSM   H14F13972   4.072   4.520   3.975 -1.0834 -0.1403 -1.4828
  130OSM   H14G13973   3.966   4.632   3.908  1.0143 -0.9721 -2.1090
  130OSM   C15F13974   4.028   4.679   4.120 -0.4057  0.0314  0.9853
  130OSM   H15F13975   4.018   4.790   4.116 -2.0551  0.0173  3.0141
  130OSM   H15G13976   4.115   4.664   4.187  0.2530  0.4205  0.2383
  130OSM   C16F13977   3.908   4.613   4.188  0.6592 -0.1789 -0.7081
  130OSM   H16F13978   3.905   4.503   4.181  1.9307 -0.2363 -0.6880
  130OSM   H16G13979   3.822   4.656   4.133  0.0535  0.5446  0.7641
  130OSM   C17F13980   3.896   4.665   4.328  0.2691 -0.3607 -0.2461
  130OSM   H17F13981   3.918   4.774   4.326  1.0643 -0.2202  4.2498
  130OSM   H17G13982   3.982   4.626   4.387  2.5952  1.3669 -2.2909
  130OSM   C18F13983   3.771   4.632   4.408  0.1740  0.1670  0.3333
  130OSM   H18F13984   3.673   4.649   4.358 -0.1412 -0.1820  0.8315
  130OSM   H18G13985   3.763   4.675   4.510 -0.7507  0.7266  0.0393
  130OSM   H18H13986   3.783   4.527   4.440 -0.5263  0.3554  1.2431
  131OSM      N13987   0.785   1.453   2.039 -0.2421  0.7894 -0.3629
  131OSM    C1513988   0.907   1.516   2.096  0.2994 -0.9720 -0.4695
  131OSM   H15A13989   0.989   1.446   2.111  1.6269  0.7882  0.8478
  131OSM   H15B13990   0.893   1.558   2.194 -0.0866 -1.2967 -0.3808
  131OSM   H15C13991   0.935   1.597   2.030 -0.3213 -1.9427 -1.9921
  131OSM    C1413992   0.681   1.563   2.033  0.2641 -0.5395 -0.2711
  131OSM   H14A13993   0.708   1.659   1.993 -0.3570  0.5635  1.8066
  131OSM   H14B13994   0.645   1.580   2.133  3.8170  0.1801  1.0277
  131OSM   H14C13995   0.595   1.522   1.981  1.2804 -2.6990 -0.3798
  131OSM    C1313996   0.813   1.406   1.898 -0.5568 -0.3097 -0.5528
  131OSM   H13A13997   0.727   1.364   1.849 -1.4839 -0.7711  1.3667
  131OSM   H13B13998   0.884   1.325   1.899 -3.7393 -3.3871 -2.6746
  131OSM   H13C13999   0.851   1.493   1.847  0.1776  0.7799  1.6890
  131OSM    C1214000   0.724   1.347   2.131  0.2585  0.5709 -0.3029
  131OSM   H12A14001   0.791   1.262   2.130 -0.8494 -0.3359 -0.1220
  131OSM   H12B14002   0.632   1.317   2.082 -0.4747  0.4932  1.0850
  131OSM    C1114003   0.685   1.383   2.276 -0.0913  0.4967 -0.1027
  131OSM   H11A14004   0.750   1.466   2.309 -0.6340  1.1466 -0.6519
  131OSM   H11B14005   0.700   1.302   2.351 -0.8778  2.7171  2.6251
  131OSM      P14006   0.429   1.351   2.314  0.0831  0.0567  0.1598
  131OSM    O1314007   0.314   1.445   2.325 -0.0676  0.4699 -0.8343
  131OSM    O1414008   0.410   1.247   2.216 -0.4696 -0.3714  0.6844
  131OSM    O1114009   0.461   1.294   2.453 -0.0042  0.2762  0.3260
  131OSM    O1214010   0.559   1.443   2.272  0.4026 -0.1267 -0.0373
  131OSM    C1S14011   0.428   1.362   2.575  0.5493  0.2202 -0.0227
  131OSM    H1S14012   0.445   1.472   2.571 -1.4108  0.6907  2.3394
  131OSM    H1T14013   0.497   1.329   2.656  1.5127  0.7027 -0.6281
  131OSM     NF14014   0.252   1.401   2.750 -0.4701  0.3594 -0.4462
  131OSM    HNF14015   0.220   1.335   2.817  0.1173 -0.1152 -0.6255
  131OSM    C2S14016   0.280   1.337   2.628  0.4294 -0.4267 -0.1499
  131OSM    H2S14017   0.212   1.390   2.558  2.4525  2.0896 -0.3353
  131OSM    C3S14018   0.229   1.185   2.627 -0.5269 -0.8472 -0.0002
  131OSM    H3S14019   0.254   1.143   2.527  0.6994 -1.7744  0.6745
  131OSM     O314020   0.085   1.186   2.630 -0.4169  0.0313 -0.2591
  131OSM    HO314021   0.061   1.279   2.636 -2.0230 -0.3457 -0.3937
  131OSM    C4S14022   0.287   1.100   2.728  0.5722  0.5826  0.5043
  131OSM    H4S14023   0.244   1.120   2.828 -3.4837  1.5192 -1.2078
  131OSM    C5S14024   0.388   1.013   2.699  0.0136 -0.4694  0.1203
  131OSM    H5S14025   0.433   1.004   2.600  0.1522 -1.3246  0.2523
  131OSM    C6S14026   0.457   0.924   2.796 -0.3827  0.0640  0.1771
  131OSM    H6S14027   0.567   0.936   2.805 -0.2304 -1.4722  0.7128
  131OSM    H6T14028   0.441   0.817   2.771 -0.3386  0.4345 -1.5375
  131OSM    C7S14029   0.417   0.939   2.940 -0.3433 -0.3529  0.2725
  131OSM    H7S14030   0.313   0.907   2.962 -1.1495  0.9630 -1.4139
  131OSM    H7T14031   0.426   1.045   2.970 -0.7056 -0.5663  1.1383
  131OSM    C8S14032   0.503   0.852   3.032  0.6158  0.3855  0.7989
  131OSM    H8S14033   0.607   0.890   3.025  0.4527  1.0286  1.6763
  131OSM    H8T14034   0.495   0.749   2.991 -0.6913  1.0736 -0.7498
  131OSM    C9S14035   0.465   0.864   3.176  0.4101  0.0686 -0.3374
  131OSM    H9S14036   0.366   0.816   3.187  0.8502 -0.6484  0.6935
  131OSM    H9T14037   0.463   0.974   3.193  0.7001  0.4104 -2.2530
  131OSM   C10S14038   0.555   0.788   3.273 -0.2602 -0.1094 -0.0682
  131OSM   H10S14039   0.653   0.840   3.269 -1.4717  2.3278  0.1489
  131OSM   H10T14040   0.562   0.683   3.236 -2.0881 -0.7007  1.1126
  131OSM   C11S14041   0.498   0.797   3.418 -0.4186 -0.3579 -0.6100
  131OSM   H11S14042   0.401   0.743   3.422 -0.4380 -0.5130 -2.3478
  131OSM   H11T14043   0.480   0.904   3.441  2.9496  0.1506  0.2495
  131OSM   C12S14044   0.603   0.752   3.521  0.6322 -0.1755  0.8428
  131OSM   H12S14045   0.703   0.788   3.490  0.1711 -0.7474 -1.4975
  131OSM   H12T14046   0.612   0.641   3.511  0.3525 -0.1818  0.6557
  131OSM   C13S14047   0.568   0.788   3.662 -0.2639 -0.1144  0.3942
  131OSM   H13S14048   0.462   0.763   3.681 -0.5546  0.5386 -0.3065
  131OSM   H13T14049   0.561   0.899   3.669 -0.7558 -0.0691 -0.6346
  131OSM   C14S14050   0.661   0.726   3.763 -0.3635 -0.3588 -0.4953
  131OSM   H14S14051   0.768   0.748   3.742  0.1510 -2.2313  0.0150
  131OSM   H14T14052   0.667   0.616   3.751 -0.6897 -0.4829  0.3975
  131OSM   C15S14053   0.617   0.756   3.904  0.1861  0.5879  0.2728
  131OSM   H15S14054   0.586   0.862   3.908  1.8921  1.0918  1.9116
  131OSM   H15T14055   0.691   0.743   3.986 -1.0984  1.9866  1.6891
  131OSM   C16S14056   0.486   0.673   3.944 -0.5521 -0.8744 -0.5711
  131OSM   H16S14057   0.528   0.574   3.973 -0.1274 -0.5054  0.1050
  131OSM   H16T14058   0.418   0.660   3.857 -0.9995 -3.2160  0.0313
  131OSM   C17S14059   0.416   0.745   4.056  0.6533  0.6489  0.2119
  131OSM   H17S14060   0.369   0.842   4.031  0.3088 -0.0085 -1.9529
  131OSM   H17T14061   0.488   0.752   4.140  0.7731 -1.8239  0.3953
  131OSM   C18S14062   0.313   0.640   4.111  0.0338  0.0262  0.9035
  131OSM   H18S14063   0.367   0.543   4.117  0.7898  0.4140  0.4915
  131OSM   H18T14064   0.224   0.632   4.044  1.1873  0.8592 -0.7978
  131OSM   H18U14065   0.278   0.668   4.213  0.3482 -1.1047  1.3334
  131OSM    C1F14066   0.259   1.532   2.783 -0.7538 -0.3229 -0.5708
  131OSM     OF14067   0.289   1.617   2.699 -0.4948 -0.2809 -0.5710
  131OSM    C2F14068   0.244   1.576   2.928  0.4028 -0.1460 -0.1213
  131OSM    H2F14069   0.327   1.530   2.987 -0.1379 -1.0687 -0.0639
  131OSM    H2G14070   0.148   1.531   2.961  1.0614 -1.7968 -0.3585
  131OSM    C3F14071   0.234   1.730   2.949 -0.1203  0.1618  0.4037
  131OSM    H3F14072   0.137   1.761   2.905  0.1650  1.9540  0.9907
  131OSM    H3G14073   0.302   1.783   2.879 -0.6668  0.5618  0.1722
  131OSM    C4F14074   0.238   1.787   3.094 -0.1618  0.4292  0.2233
  131OSM    H4F14075   0.216   1.894   3.117 -0.7156  0.8690 -2.1199
  131OSM    H4G14076   0.342   1.757   3.118 -0.4362 -2.0545 -1.4165
  131OSM    C5F14077   0.142   1.704   3.191 -0.2642  0.0539  0.3754
  131OSM    H5F14078   0.151   1.594   3.174 -3.4125 -0.2435 -0.0040
  131OSM    H5G14079   0.037   1.732   3.166 -1.0689 -0.3152  3.0022
  131OSM    C6F14080   0.167   1.729   3.342 -0.0605  0.0173 -0.1881
  131OSM    H6F14081   0.140   1.832   3.373 -1.1965 -0.4143  0.3288
  131OSM    H6G14082   0.270   1.706   3.378 -0.0708 -2.0420 -1.3257
  131OSM    C7F14083   0.071   1.638   3.426  0.2795 -0.5424  0.4712
  131OSM    H7F14084   0.119   1.539   3.418 -2.3663 -1.8978  0.3017
  131OSM    H7G14085  -0.024   1.644   3.369  0.6687  0.0617 -0.1271
  131OSM    C8F14086   0.051   1.686   3.573 -0.3413  0.2291  0.2814
  131OSM    H8F14087  -0.016   1.775   3.574 -1.7157 -0.7320 -1.3108
  131OSM    H8G14088   0.145   1.724   3.617 -0.2616 -1.2389  1.4447
  131OSM    C9F14089  -0.004   1.570   3.651 -0.1346  0.1224 -0.1295
  131OSM    H9F14090  -0.098   1.524   3.619  0.4858 -1.8186  0.7173
  131OSM   C10F14091   0.045   1.516   3.764  0.1487 -0.2194 -0.3807
  131OSM   H10F14092  -0.015   1.435   3.807 -2.4413  1.8215  0.1037
  131OSM   C11F14093   0.158   1.580   3.845  0.6286  0.0009 -0.6147
  131OSM   H11F14094   0.173   1.687   3.821  1.0762 -0.1704 -1.1206
  131OSM   H11G14095   0.255   1.529   3.829  0.1962 -0.8094 -0.7260
  131OSM   C12F14096   0.114   1.559   3.988  0.1423  0.1376 -0.0434
  131OSM   H12F14097   0.095   1.450   4.004 -0.2827  0.2976  0.5713
  131OSM   H12G14098   0.021   1.615   4.011 -0.3624 -0.6919  0.0164
  131OSM   C13F14099   0.213   1.613   4.098  0.0933 -0.5735  0.4121
  131OSM   H13F14100   0.205   1.723   4.110 -2.4693 -0.6832  0.1490
  131OSM   H13G14101   0.318   1.586   4.074 -0.0327 -0.4619 -0.2795
  131OSM   C14F14102   0.179   1.545   4.227  0.2267  0.1786 -0.7636
  131OSM   H14F14103   0.227   1.445   4.234 -1.2864 -0.4781  1.2176
  131OSM   H14G14104   0.069   1.531   4.235  0.3903 -0.4600  0.9798
  131OSM   C15F14105   0.228   1.620   4.346 -0.1158 -0.2048 -0.6462
  131OSM   H15F14106   0.188   1.564   4.433  2.0010 -0.8302 -0.0169
  131OSM   H15G14107   0.187   1.723   4.337  0.3053  0.2344  1.8416
  131OSM   C16F14108   0.378   1.621   4.363 -0.4768 -0.1992  0.8810
  131OSM   H16F14109   0.414   1.686   4.445 -0.3825 -0.0271  0.7022
  131OSM   H16G14110   0.418   1.664   4.269 -0.1320  0.7634  1.4553
  131OSM   C17F14111   0.444   1.483   4.388 -0.1567 -0.4277 -0.5454
  131OSM   H17F14112   0.434   1.433   4.290  0.6425 -0.2406 -0.7324
  131OSM   H17G14113   0.394   1.431   4.473 -1.9001 -0.9474 -1.8342
  131OSM   C18F14114   0.587   1.489   4.436  0.6702 -0.0304 -0.0016
  131OSM   H18F14115   0.596   1.540   4.534  1.8735  0.2201 -0.2227
  131OSM   H18G14116   0.659   1.537   4.365  2.6285 -1.2406  1.0854
  131OSM   H18H14117   0.624   1.387   4.458 -0.1232 -0.1548  0.7673
  132OSM      N14118   5.854   6.639   2.414 -0.0149 -0.7485 -0.2506
  132OSM    C1514119   5.851   6.566   2.282  0.7136 -0.3381  0.2038
  132OSM   H15A14120   5.826   6.465   2.311  1.1456 -0.3025  0.7177
  132OSM   H15B14121   5.950   6.559   2.238 -0.1841 -0.1000 -1.9847
  132OSM   H15C14122   5.775   6.591   2.210 -0.4694 -0.1435  1.4686
  132OSM    C1414123   5.753   6.593   2.516 -0.2018  0.0540 -0.4184
  132OSM   H14A14124   5.750   6.665   2.597  0.7934 -0.0972 -0.2317
  132OSM   H14B14125   5.783   6.499   2.560  1.7039  1.7293  2.2294
  132OSM   H14C14126   5.653   6.592   2.475 -0.1998 -0.4254 -0.4171
  132OSM    C1314127   5.994   6.637   2.468 -0.1155  0.0285  0.3541
  132OSM   H13A14128   6.005   6.720   2.536 -0.6938 -0.0216  0.5141
  132OSM   H13B14129   6.067   6.660   2.392 -1.4345  0.8159 -0.7315
  132OSM   H13C14130   6.022   6.544   2.516  3.2856  1.3399  1.1483
  132OSM    C1214131   5.813   6.787   2.382 -0.5042  1.2847  0.0202
  132OSM   H12A14132   5.707   6.783   2.362 -0.4291  2.4460 -0.6942
  132OSM   H12B14133   5.860   6.814   2.289 -1.1800 -0.3865 -0.8469
  132OSM    C1114134   5.831   6.901   2.486  0.0059 -0.4431  0.7357
  132OSM   H11A14135   5.804   6.879   2.591 -2.8816 -0.7833  0.0126
  132OSM   H11B14136   5.762   6.980   2.449  2.0822  0.5503 -1.2774
  132OSM      P14137   6.019   7.081   2.457  0.0175  0.3418 -0.3014
  132OSM    O1314138   6.159   7.076   2.423 -0.1417  0.4826  0.3026
  132OSM    O1414139   5.927   7.145   2.356  0.4687  0.4557  0.2279
  132OSM    O1114140   5.995   7.164   2.594 -0.8196  0.4456 -0.0305
  132OSM    O1214141   5.973   6.935   2.500  0.4356  0.0144 -0.0284
  132OSM    C1S14142   6.023   7.080   2.712  0.4548  0.3562  0.0231
  132OSM    H1S14143   6.123   7.031   2.708 -0.4833 -1.6507  0.1151
  132OSM    H1T14144   5.942   7.007   2.729 -0.1993  0.8805 -0.7649
  132OSM     NF14145   6.062   7.107   2.955  0.3185 -0.5625 -0.1639
  132OSM    HNF14146   6.001   7.073   3.026  2.7468 -3.1588  0.8795
  132OSM    C2S14147   6.017   7.178   2.839 -0.4370  0.0226 -0.2682
  132OSM    H2S14148   6.096   7.251   2.811 -1.3667  0.7654 -1.0017
  132OSM    C3S14149   5.882   7.249   2.856  0.1921 -0.4234 -0.2488
  132OSM    H3S14150   5.806   7.171   2.874 -0.5005  0.5004  1.0407
  132OSM     O314151   5.845   7.314   2.730 -0.3888  0.0180 -0.6623
  132OSM    HO314152   5.907   7.280   2.665 -0.4479  1.3232 -1.4184
  132OSM    C4S14153   5.880   7.347   2.980  0.2028  0.5799  0.3447
  132OSM    H4S14154   5.817   7.291   3.050 -0.1986  1.1814  0.4680
  132OSM    C5S14155   5.930   7.468   2.991  0.3305 -0.0435  0.5335
  132OSM    H5S14156   6.002   7.503   2.915 -0.6773 -1.5507 -1.2284
  132OSM    C6S14157   5.936   7.548   3.124 -0.1738 -0.4634  1.0099
  132OSM    H6S14158   5.859   7.628   3.122 -1.5985 -1.7571 -1.8992
  132OSM    H6T14159   6.039   7.589   3.126 -0.3411 -0.0658  1.7745
  132OSM    C7S14160   5.922   7.471   3.257 -0.1996  0.2518  0.3059
  132OSM    H7S14161   5.998   7.390   3.259 -0.1079  0.2149 -1.9642
  132OSM    H7T14162   5.819   7.428   3.262 -1.2648  2.6292  0.2392
  132OSM    C8S14163   5.955   7.563   3.377  1.1049 -0.3166 -0.2279
  132OSM    H8S14164   5.894   7.656   3.374  1.3874 -0.1501 -0.7980
  132OSM    H8T14165   6.064   7.584   3.378  0.6578  2.3961  1.4851
  132OSM    C9S14166   5.944   7.493   3.520 -0.2295 -0.7187  0.3820
  132OSM    H9S14167   5.998   7.396   3.508  2.1679  0.7026 -1.1226
  132OSM    H9T14168   5.837   7.472   3.538 -0.4276 -0.4227 -0.4270
  132OSM   C10S14169   5.997   7.592   3.626 -0.5142 -0.0071  0.0232
  132OSM   H10S14170   5.957   7.695   3.617 -0.3166  0.3195  2.1674
  132OSM   H10T14171   6.107   7.599   3.609  0.1041 -4.9120  0.5465
  132OSM   C11S14172   5.990   7.530   3.769  0.1848  0.1045  0.3544
  132OSM   H11S14173   6.075   7.460   3.787 -0.4163 -0.8423 -0.4123
  132OSM   H11T14174   5.892   7.478   3.771 -1.8111  3.5020 -1.7162
  132OSM   C12S14175   5.992   7.633   3.878 -0.0127 -0.3599 -0.1328
  132OSM   H12S14176   5.905   7.701   3.867  0.0456 -0.3955 -0.8716
  132OSM   H12T14177   6.083   7.695   3.870 -0.6588  0.3898 -2.8590
  132OSM   C13S14178   6.006   7.581   4.020 -0.4687 -0.1828  0.0993
  132OSM   H13S14179   6.102   7.526   4.014  0.0732  0.7442 -0.0606
  132OSM   H13T14180   5.924   7.513   4.051 -1.2041  0.3149 -0.6940
  132OSM   C14S14181   6.038   7.687   4.120 -0.5944  0.5407 -0.1610
  132OSM   H14S14182   6.111   7.758   4.076 -0.6322 -0.1125 -1.3195
  132OSM   H14T14183   6.084   7.633   4.206 -4.6120 -0.6234  1.4887
  132OSM   C15S14184   5.919   7.764   4.166 -0.4725  0.4212  0.3901
  132OSM   H15S14185   5.830   7.713   4.124  0.8155 -0.0987 -1.8945
  132OSM   H15T14186   5.911   7.867   4.124 -0.5347  1.9310  3.8256
  132OSM   C16S14187   5.902   7.755   4.315  0.1622 -0.3642  0.2585
  132OSM   H16S14188   5.907   7.648   4.345  2.8424 -0.7740 -1.3214
  132OSM   H16T14189   5.800   7.795   4.334 -0.3975 -1.3686 -0.5231
  132OSM   C17S14190   6.013   7.833   4.391 -0.6597  0.3447 -0.3508
  132OSM   H17S14191   6.003   7.942   4.374  0.2021  0.9508  2.5781
  132OSM   H17T14192   6.110   7.806   4.342  0.1168  1.5254  0.4836
  132OSM   C18S14193   6.012   7.801   4.544 -0.1381  0.2742 -0.0323
  132OSM   H18S14194   5.911   7.824   4.586  0.0942 -0.1913  0.7950
  132OSM   H18T14195   6.094   7.862   4.587  0.1036  1.8598 -2.4966
  132OSM   H18U14196   6.027   7.692   4.562  0.6443  0.6231  1.6410
  132OSM    C1F14197   6.190   7.074   2.969  0.4681  0.8592 -0.1396
  132OSM     OF14198   6.273   7.099   2.886  0.5362 -0.4035  0.4046
  132OSM    C2F14199   6.222   6.999   3.098  0.3449 -0.1687 -0.6229
  132OSM    H2F14200   6.267   6.904   3.061 -3.6857 -2.0881 -1.0922
  132OSM    H2G14201   6.126   6.979   3.150  0.5643 -0.4604 -0.3265
  132OSM    C3F14202   6.307   7.080   3.197 -0.8110 -0.0488 -0.2000
  132OSM    H3F14203   6.400   7.092   3.137 -0.0363  0.4684  1.0707
  132OSM    H3G14204   6.324   7.020   3.289  0.7753  1.8280  0.8155
  132OSM    C4F14205   6.240   7.218   3.230 -0.4485 -0.5098 -0.1928
  132OSM    H4F14206   6.132   7.211   3.204 -0.5286 -0.1269  0.0346
  132OSM    H4G14207   6.271   7.301   3.163 -1.0973 -0.7319 -0.7845
  132OSM    C5F14208   6.254   7.269   3.372  0.2063  0.5531  0.2507
  132OSM    H5F14209   6.188   7.354   3.401  0.6991  0.3327  2.1140
  132OSM    H5G14210   6.355   7.313   3.374  0.7966 -0.6711 -0.7731
  132OSM    C6F14211   6.240   7.172   3.492 -0.1456  0.1310 -0.2524
  132OSM    H6F14212   6.328   7.104   3.504  1.5538  1.7265 -2.7928
  132OSM    H6G14213   6.149   7.110   3.473  0.8128 -0.4779 -3.5088
  132OSM    C7F14214   6.223   7.252   3.628 -0.0713  0.0940  0.1425
  132OSM    H7F14215   6.127   7.308   3.629 -1.7971 -2.6663 -0.7734
  132OSM    H7G14216   6.312   7.319   3.626  1.1207 -1.4363 -1.3266
  132OSM    C8F14217   6.226   7.177   3.755  0.4141  0.6388 -0.7070
  132OSM    H8F14218   6.222   7.237   3.848 -0.7689 -2.2399  1.2674
  132OSM    H8G14219   6.320   7.117   3.757 -0.1599 -0.3271  2.0527
  132OSM    C9F14220   6.109   7.075   3.757 -0.2233 -0.6513 -0.9089
  132OSM    H9F14221   6.124   6.990   3.689 -0.8858 -0.3228 -1.4749
  132OSM   C10F14222   5.995   7.101   3.822 -0.4953  0.3242  0.5386
  132OSM   H10F14223   5.912   7.031   3.806  1.2559 -1.3148 -2.2684
  132OSM   C11F14224   5.960   7.205   3.923  0.5043 -0.2715  0.5207
  132OSM   H11F14225   5.870   7.265   3.896  1.1334  0.5591  0.2291
  132OSM   H11G14226   6.033   7.289   3.925  0.4243 -0.1847  0.0112
  132OSM   C12F14227   5.941   7.137   4.052  0.0257 -0.4595 -0.8203
  132OSM   H12F14228   6.041   7.092   4.070 -0.4747 -0.2784  3.3138
  132OSM   H12G14229   5.861   7.062   4.067 -0.4672  0.6756  3.0817
  132OSM   C13F14230   5.913   7.236   4.164 -0.2177 -0.1073  0.2839
  132OSM   H13F14231   5.823   7.293   4.130  1.5350  1.5792 -1.8237
  132OSM   H13G14232   5.999   7.305   4.167 -0.4880  0.2008  1.6580
  132OSM   C14F14233   5.896   7.170   4.297 -0.3108 -0.7835 -0.2521
  132OSM   H14F14234   5.975   7.092   4.289 -2.2512 -2.7492 -1.1551
  132OSM   H14G14235   5.800   7.117   4.313  0.1401 -1.9393 -1.1952
  132OSM   C15F14236   5.918   7.280   4.404  0.1177 -0.5336 -0.5252
  132OSM   H15F14237   5.848   7.364   4.385  0.7626  0.8403  2.6053
  132OSM   H15G14238   6.026   7.307   4.396  0.3171 -1.0171  0.3644
  132OSM   C16F14239   5.900   7.227   4.544  0.0598  0.0638 -0.2561
  132OSM   H16F14240   5.977   7.151   4.570 -0.7696 -0.3921  0.9462
  132OSM   H16G14241   5.808   7.165   4.550  0.7070 -0.7860  1.5967
  132OSM   C17F14242   5.917   7.332   4.655  0.1493 -0.4762  0.1836
  132OSM   H17F14243   6.007   7.394   4.632 -0.0247 -0.7023 -1.1499
  132OSM   H17G14244   5.916   7.279   4.752  0.4614 -0.4785  0.1881
  132OSM   C18F14245   5.795   7.425   4.672  0.3936 -0.7052 -0.2987
  132OSM   H18F14246   5.700   7.369   4.685  0.2052 -0.1756  0.7091
  132OSM   H18G14247   5.782   7.483   4.578 -0.4275 -0.5378 -0.0862
  132OSM   H18H14248   5.805   7.491   4.761 -0.2195  1.1609 -1.5588
  133OSM      N14249   3.394   2.833   2.037 -0.0334  0.5869 -0.0140
  133OSM    C1514250   3.421   2.843   1.893  0.0987 -0.3070 -0.1687
  133OSM   H15A14251   3.444   2.946   1.870  0.5190 -0.5404 -0.8110
  133OSM   H15B14252   3.343   2.796   1.835  0.7722 -2.1460  0.3554
  133OSM   H15C14253   3.512   2.789   1.871  0.4466  0.7407 -1.4543
  133OSM    C1414254   3.437   2.697   2.069  0.2605  0.2505 -0.0847
  133OSM   H14A14255   3.520   2.663   2.009  0.6519  0.2158  0.4667
  133OSM   H14B14256   3.362   2.624   2.043 -1.2084  0.8548  2.1515
  133OSM   H14C14257   3.470   2.682   2.171  1.6364 -0.5088 -0.6085
  133OSM    C1314258   3.490   2.926   2.087 -0.5642 -0.4066  0.0996
  133OSM   H13A14259   3.509   2.919   2.193  1.3408 -0.3780 -0.2066
  133OSM   H13B14260   3.446   3.023   2.067 -0.0902 -0.0804  0.6117
  133OSM   H13C14261   3.585   2.919   2.037 -0.3427  1.2908  0.2203
  133OSM    C1214262   3.247   2.861   2.068  0.1287  0.4129 -0.1524
  133OSM   H12A14263   3.187   2.786   2.018  1.2552 -0.5898 -0.0592
  133OSM   H12B14264   3.224   2.955   2.022 -0.9796  0.2258 -0.0023
  133OSM    C1114265   3.208   2.856   2.221 -0.0646 -0.2059  0.1619
  133OSM   H11A14266   3.234   2.759   2.268  0.7890 -1.2296 -2.2866
  133OSM   H11B14267   3.098   2.858   2.233 -0.2987 -0.9172 -1.6038
  133OSM      P14268   3.220   3.108   2.273  0.2494  0.0853 -0.4478
  133OSM    O1314269   3.327   3.206   2.288 -0.2589  0.1217  0.0773
  133OSM    O1414270   3.128   3.121   2.158  0.1220 -0.2364  0.3536
  133OSM    O1114271   3.139   3.113   2.407  0.3790  0.2120  0.5796
  133OSM    O1214272   3.283   2.968   2.282  0.1050 -0.0499 -0.0652
  133OSM    C1S14273   3.186   3.045   2.530  0.1637 -0.9846  0.2187
  133OSM    H1S14274   3.296   3.036   2.543  0.1059  0.1193  1.6658
  133OSM    H1T14275   3.145   2.942   2.535 -1.4077 -0.3485  0.9705
  133OSM     NF14276   3.209   3.122   2.772  0.5021 -0.3603 -0.0738
  133OSM    HNF14277   3.198   3.042   2.830 -2.2355 -0.4798 -0.6508
  133OSM    C2S14278   3.122   3.119   2.654 -0.0484 -0.1422  0.7570
  133OSM    H2S14279   3.101   3.220   2.612 -1.0576  0.2689  2.1386
  133OSM    C3S14280   2.980   3.058   2.675 -0.6390  0.0662 -0.0312
  133OSM    H3S14281   3.000   2.950   2.693  0.5318  0.2313 -0.2704
  133OSM     O314282   2.910   3.064   2.553 -0.3649 -0.1248  0.4364
  133OSM    HO314283   2.984   3.074   2.494  0.0576 -0.9219  0.8148
  133OSM    C4S14284   2.910   3.128   2.791 -0.4840 -0.1570 -0.3215
  133OSM    H4S14285   2.937   3.099   2.893  1.1824 -1.0696 -0.9918
  133OSM    C5S14286   2.813   3.221   2.784 -0.0645 -0.0533 -0.6219
  133OSM    H5S14287   2.758   3.226   2.689 -2.9232 -1.8109  0.8204
  133OSM    C6S14288   2.744   3.295   2.899  0.2681  0.1159  0.5115
  133OSM    H6S14289   2.637   3.274   2.878  1.3705 -2.6122 -3.5336
  133OSM    H6T14290   2.772   3.403   2.904 -0.2536  0.3010 -0.2935
  133OSM    C7S14291   2.767   3.238   3.040 -0.2985 -0.5432  0.5959
  133OSM    H7S14292   2.871   3.206   3.061 -0.0842  0.6435  1.4732
  133OSM    H7T14293   2.699   3.150   3.036  2.3097 -2.7425  1.4680
  133OSM    C8S14294   2.708   3.337   3.149 -0.4880  0.1340  0.0061
  133OSM    H8S14295   2.599   3.359   3.139  0.1797  4.1094  0.0866
  133OSM    H8T14296   2.758   3.433   3.127 -0.9507  0.3822  0.0085
  133OSM    C9S14297   2.749   3.291   3.290 -0.2834  0.0737  0.4879
  133OSM    H9S14298   2.858   3.311   3.291 -0.1408 -0.2575 -2.2381
  133OSM    H9T14299   2.737   3.181   3.300 -2.3113  0.0730 -1.3439
  133OSM   C10S14300   2.678   3.369   3.395 -0.2946 -0.0417  0.3059
  133OSM   H10S14301   2.570   3.363   3.369 -0.1139 -0.7195 -0.3022
  133OSM   H10T14302   2.704   3.477   3.398 -1.4721  0.3568 -1.8077
  133OSM   C11S14303   2.705   3.314   3.534  0.0759  0.2072 -0.3514
  133OSM   H11S14304   2.814   3.313   3.555 -0.1018  0.3446  0.6455
  133OSM   H11T14305   2.672   3.208   3.539  0.7593 -0.0298 -0.8109
  133OSM   C12S14306   2.627   3.391   3.639  0.1242 -0.5961  0.6339
  133OSM   H12S14307   2.517   3.400   3.627 -0.3772 -2.2033  3.2849
  133OSM   H12T14308   2.669   3.494   3.634  2.4052 -1.5229 -0.8596
  133OSM   C13S14309   2.677   3.349   3.784  0.5393  0.2502  0.0915
  133OSM   H13S14310   2.780   3.308   3.798  0.9143  0.6354 -1.3493
  133OSM   H13T14311   2.611   3.263   3.806 -1.4185  1.5379 -0.5388
  133OSM   C14S14312   2.642   3.463   3.880  0.2394 -1.2907  0.4170
  133OSM   H14S14313   2.537   3.494   3.861  1.0915  0.7440 -1.4155
  133OSM   H14T14314   2.707   3.545   3.843 -0.4556 -1.7301 -1.9442
  133OSM   C15S14315   2.654   3.423   4.026 -0.1353 -0.4199 -0.4799
  133OSM   H15S14316   2.669   3.514   4.087  1.3637 -1.0449  0.1367
  133OSM   H15T14317   2.742   3.356   4.031 -0.6360 -1.0041  0.9192
  133OSM   C16S14318   2.525   3.346   4.065  0.2185 -0.1752  0.4910
  133OSM   H16S14319   2.533   3.254   4.003  2.0413 -0.8697  1.6674
  133OSM   H16T14320   2.431   3.395   4.032  0.4295 -0.2946 -0.3086
  133OSM   C17S14321   2.517   3.306   4.215 -0.4679 -0.9842  0.0163
  133OSM   H17S14322   2.474   3.387   4.277 -0.1509 -1.5122  0.9398
  133OSM   H17T14323   2.610   3.259   4.251  1.2500  0.9086 -1.6795
  133OSM   C18S14324   2.424   3.183   4.235 -0.0961 -0.2298  0.6943
  133OSM   H18S14325   2.461   3.100   4.171  1.2387  2.3261 -2.1084
  133OSM   H18T14326   2.319   3.201   4.205 -0.7392 -1.4896  2.0416
  133OSM   H18U14327   2.424   3.146   4.340  2.8002  2.5612  1.8495
  133OSM    C1F14328   3.314   3.205   2.784  0.3279  0.3094 -0.4149
  133OSM     OF14329   3.334   3.287   2.698 -0.7570 -0.0828  0.1097
  133OSM    C2F14330   3.407   3.184   2.902 -1.1531  0.1529 -0.2291
  133OSM    H2F14331   3.473   3.097   2.881 -0.2461  0.3458  1.6909
  133OSM    H2G14332   3.350   3.154   2.992 -0.5018  0.9641  0.4696
  133OSM    C3F14333   3.476   3.313   2.962 -0.1617 -0.3116  0.6735
  133OSM    H3F14334   3.398   3.390   2.980 -2.6159 -3.1780  3.8112
  133OSM    H3G14335   3.548   3.348   2.886  1.6255 -1.5692  1.7109
  133OSM    C4F14336   3.562   3.291   3.087  0.7024 -0.8343 -0.3463
  133OSM    H4F14337   3.617   3.386   3.099  0.7347 -0.4975 -2.7823
  133OSM    H4G14338   3.637   3.210   3.076  0.1740 -1.2288 -1.1631
  133OSM    C5F14339   3.490   3.255   3.214  0.4262  0.5326 -0.5139
  133OSM    H5F14340   3.463   3.147   3.216  0.6446  0.4387 -1.7978
  133OSM    H5G14341   3.400   3.318   3.229  0.8763  0.7263  1.6922
  133OSM    C6F14342   3.585   3.271   3.336 -0.3880  0.0289 -0.4959
  133OSM    H6F14343   3.602   3.377   3.365  0.1264 -0.0472 -0.5166
  133OSM    H6G14344   3.680   3.224   3.304 -0.6819  0.3262 -1.8976
  133OSM    C7F14345   3.525   3.205   3.460  0.0705 -0.3231 -0.0252
  133OSM    H7F14346   3.600   3.210   3.542 -0.4735  0.5607  0.4424
  133OSM    H7G14347   3.493   3.102   3.435 -0.9044 -0.0760  0.1722
  133OSM    C8F14348   3.401   3.276   3.529 -0.1422  1.0581  1.0153
  133OSM    H8F14349   3.321   3.276   3.452  0.2497 -1.9472  0.4990
  133OSM    H8G14350   3.429   3.381   3.554  0.9592  1.2002 -0.6756
  133OSM    C9F14351   3.354   3.200   3.656 -1.0877 -0.1839  0.6250
  133OSM    H9F14352   3.306   3.104   3.634 -0.6621 -0.1325 -0.5948
  133OSM   C10F14353   3.338   3.250   3.784  0.3153  0.1379  0.0443
  133OSM   H10F14354   3.295   3.197   3.870 -1.0126  1.4963  0.2387
  133OSM   C11F14355   3.379   3.382   3.836  0.1263 -0.0091  0.0095
  133OSM   H11F14356   3.286   3.440   3.853  0.8400  1.3246 -0.5332
  133OSM   H11G14357   3.440   3.425   3.754  1.3928 -1.9105 -0.1167
  133OSM   C12F14358   3.491   3.386   3.946  0.3725 -0.2044 -0.6227
  133OSM   H12F14359   3.507   3.491   3.978 -2.7057  0.2273 -0.2010
  133OSM   H12G14360   3.591   3.347   3.918  0.7821  1.3178 -1.4074
  133OSM   C13F14361   3.450   3.305   4.073  0.5128  0.0974  0.0341
  133OSM   H13F14362   3.407   3.210   4.034  1.6979 -0.4805  0.0973
  133OSM   H13G14363   3.371   3.366   4.121  0.9693  1.7243 -1.2245
  133OSM   C14F14364   3.560   3.263   4.173  0.2522 -0.3490  0.5903
  133OSM   H14F14365   3.627   3.352   4.177 -0.3227  0.0500  3.3574
  133OSM   H14G14366   3.602   3.169   4.133  0.0815  0.1649 -0.8526
  133OSM   C15F14367   3.514   3.230   4.314 -0.7980 -0.3291  0.7236
  133OSM   H15F14368   3.487   3.324   4.366  0.7582  0.3129  0.4452
  133OSM   H15G14369   3.602   3.182   4.362 -0.2228  0.1479  0.1750
  133OSM   C16F14370   3.400   3.131   4.310 -0.2030  0.4115 -1.0141
  133OSM   H16F14371   3.424   3.045   4.244 -1.5298 -0.0329 -0.9371
  133OSM   H16G14372   3.313   3.178   4.258 -0.5759  0.3779 -0.4197
  133OSM   C17F14373   3.369   3.085   4.453 -0.2270  0.1193  0.4433
  133OSM   H17F14374   3.322   3.164   4.516 -1.5218  0.5400 -1.0006
  133OSM   H17G14375   3.462   3.051   4.504  0.4888  1.5220  0.1388
  133OSM   C18F14376   3.267   2.965   4.448 -0.3552  0.3398  0.0433
  133OSM   H18F14377   3.326   2.880   4.408  0.7185  1.4016 -0.6550
  133OSM   H18G14378   3.178   2.992   4.387  0.0535  3.7573  0.7686
  133OSM   H18H14379   3.242   2.947   4.555  3.6501 -0.5228  0.9786
  134OSM      N14380   6.625   0.049   2.044 -0.2182 -0.0140 -1.0708
  134OSM    C1514381   6.730   0.160   2.057 -0.0332 -0.2922  0.1193
  134OSM   H15A14382   6.701   0.240   2.124 -0.5567  2.3260 -3.0023
  134OSM   H15B14383   6.735   0.216   1.965 -1.1225 -2.3825 -1.2985
  134OSM   H15C14384   6.829   0.120   2.069 -1.0643 -2.8399  0.7607
  134OSM    C1414385   6.490   0.111   2.040  0.2083  0.2243 -0.7777
  134OSM   H14A14386   6.484   0.172   2.129  3.8238  0.3133 -0.4525
  134OSM   H14B14387   6.410   0.040   2.046  1.2976 -1.1193 -1.6437
  134OSM   H14C14388   6.476   0.179   1.957 -1.0427 -1.6258 -2.1309
  134OSM    C1314389   6.642  -0.025   1.915 -0.7958 -0.2150 -0.2380
  134OSM   H13A14390   6.572  -0.106   1.903 -1.9544  0.5301  1.1262
  134OSM   H13B14391   6.742  -0.064   1.903 -0.9469 -0.4614 -0.7214
  134OSM   H13C14392   6.629   0.042   1.832  2.2530 -0.6822 -1.2196
  134OSM    C1214393   6.635  -0.039   2.171  0.7522 -0.0749 -0.0346
  134OSM   H12A14394   6.732  -0.085   2.181 -0.0493 -1.9421 -0.5541
  134OSM   H12B14395   6.567  -0.122   2.181  0.2657  0.5846  3.3181
  134OSM    C1114396   6.601   0.029   2.308  0.0267 -0.5069 -0.2870
  134OSM   H11A14397   6.585  -0.044   2.390  0.3161 -0.1382  0.0955
  134OSM   H11B14398   6.496   0.066   2.303  0.6456  1.5382  0.8556
  134OSM      P14399   6.631   0.273   2.400  0.0141 -0.4912 -0.3736
  134OSM    O1314400   6.739   0.360   2.445 -0.7005  0.1389  0.3161
  134OSM    O1414401   6.538   0.331   2.297 -0.2494  0.1558  0.8464
  134OSM    O1114402   6.543   0.223   2.522 -0.2324 -0.7159 -0.2622
  134OSM    O1214403   6.686   0.138   2.339 -0.0569  0.4814  0.2788
  134OSM    C1S14404   6.600   0.165   2.640 -0.1365 -0.1684 -0.0964
  134OSM    H1S14405   6.656   0.243   2.696  1.3178 -0.4969 -1.0322
  134OSM    H1T14406   6.675   0.087   2.614  2.7202  1.9205  1.2523
  134OSM     NF14407   6.538   0.061   2.865 -0.0883 -0.0301 -0.1625
  134OSM    HNF14408   6.538  -0.032   2.899 -0.0821 -0.6932 -1.9061
  134OSM    C2S14409   6.491   0.095   2.732 -0.2885  0.2498  0.0143
  134OSM    H2S14410   6.407   0.167   2.743 -1.4107 -0.9867 -0.2979
  134OSM    C3S14411   6.427  -0.024   2.650  0.2881 -0.1809 -0.3538
  134OSM    H3S14412   6.510  -0.098   2.639  0.7883  0.2635  0.3219
  134OSM     O314413   6.364   0.015   2.523  0.5134 -0.2840 -0.1966
  134OSM    HO314414   6.414   0.096   2.509  0.1211 -0.0710 -0.3652
  134OSM    C4S14415   6.320  -0.076   2.742  0.4910  0.3870  0.2961
  134OSM    H4S14416   6.353  -0.164   2.800 -1.9808 -0.4963  0.4615
  134OSM    C5S14417   6.198  -0.026   2.768 -0.9309  0.6495  0.0959
  134OSM    H5S14418   6.159   0.064   2.718 -0.8526  0.5234 -0.1938
  134OSM    C6S14419   6.103  -0.082   2.868 -0.4673 -0.0471 -0.1038
  134OSM    H6S14420   6.008  -0.085   2.810 -0.5398  3.1193 -0.3194
  134OSM    H6T14421   6.085  -0.001   2.941 -1.7389  0.2685 -0.7422
  134OSM    C7S14422   6.142  -0.216   2.934 -0.0507  0.0357 -0.0535
  134OSM    H7S14423   6.250  -0.230   2.959  0.1846 -0.4257 -1.2565
  134OSM    H7T14424   6.122  -0.300   2.863  0.8293  1.5251 -2.1991
  134OSM    C8S14425   6.049  -0.242   3.059  0.4901  0.1701  0.8555
  134OSM    H8S14426   6.064  -0.351   3.074  0.6975  0.2032  0.8838
  134OSM    H8T14427   5.949  -0.228   3.011  1.9387  1.3541 -2.1068
  134OSM    C9S14428   6.081  -0.150   3.174  0.4636 -0.1790 -0.0849
  134OSM    H9S14429   6.025  -0.190   3.261 -0.7782 -0.1850 -0.8612
  134OSM    H9T14430   6.048  -0.045   3.156 -1.2267 -0.5859  0.4812
  134OSM   C10S14431   6.231  -0.142   3.204  0.3648 -0.1880 -0.7088
  134OSM   H10S14432   6.288  -0.079   3.132  1.7899  0.1707  0.6736
  134OSM   H10T14433   6.271  -0.246   3.204  2.2600  0.4111  2.1343
  134OSM   C11S14434   6.250  -0.068   3.337 -0.0751 -0.4724 -0.4958
  134OSM   H11S14435   6.195   0.027   3.351  0.3045 -0.0304 -1.8492
  134OSM   H11T14436   6.358  -0.040   3.331 -0.1062  0.4607  2.0978
  134OSM   C12S14437   6.241  -0.176   3.454 -0.1847 -0.4893 -0.3631
  134OSM   H12S14438   6.292  -0.267   3.415  1.9987  0.8135 -0.6806
  134OSM   H12T14439   6.138  -0.214   3.474 -1.1370  2.3520  0.6501
  134OSM   C13S14440   6.317  -0.137   3.581  0.3142 -0.5178  0.3230
  134OSM   H13S14441   6.281  -0.037   3.613  2.3699  0.5931 -0.6672
  134OSM   H13T14442   6.425  -0.129   3.555 -0.0152 -0.0233 -0.9640
  134OSM   C14S14443   6.290  -0.242   3.687 -1.1435 -0.1479  0.0397
  134OSM   H14S14444   6.293  -0.345   3.644  2.3726  0.2395 -0.9242
  134OSM   H14T14445   6.187  -0.228   3.726 -0.8266 -0.5182  1.0536
  134OSM   C15S14446   6.400  -0.237   3.801  0.1750 -0.3375 -0.0469
  134OSM   H15S14447   6.403  -0.131   3.832  1.6153 -0.0244 -1.1455
  134OSM   H15T14448   6.504  -0.252   3.766  0.7591  2.5512  0.1771
  134OSM   C16S14449   6.350  -0.322   3.915  0.4327 -0.4646 -0.0812
  134OSM   H16S14450   6.241  -0.304   3.923  0.4459  0.2746 -1.3342
  134OSM   H16T14451   6.378  -0.283   4.015 -2.5697  0.0195  0.6672
  134OSM   C17S14452   6.375  -0.475   3.897  0.3795 -0.4221 -0.2482
  134OSM   H17S14453   6.480  -0.501   3.921  0.9052  0.7749 -1.1852
  134OSM   H17T14454   6.350  -0.514   3.796 -2.6114 -1.1845  0.6729
  134OSM   C18S14455   6.295  -0.562   3.982  0.4315 -0.1765 -0.2166
  134OSM   H18S14456   6.319  -0.541   4.089  0.4009  0.4910 -0.3400
  134OSM   H18T14457   6.321  -0.669   3.967 -1.4709 -0.6241 -0.5976
  134OSM   H18U14458   6.187  -0.541   3.968  0.6865  0.2599 -1.6497
  134OSM    C1F14459   6.574   0.164   2.943  0.7819  0.2731 -0.5432
  134OSM     OF14460   6.571   0.275   2.900 -0.2010 -0.2270 -0.0840
  134OSM    C2F14461   6.607   0.133   3.078  0.0874  0.5600 -0.6504
  134OSM    H2F14462   6.631   0.025   3.081  2.2333  0.8824 -2.7397
  134OSM    H2G14463   6.514   0.160   3.133  0.4692  1.5720 -0.4858
  134OSM    C3F14464   6.724   0.219   3.124 -0.0344  0.1792  0.6901
  134OSM    H3F14465   6.705   0.327   3.106  2.0076  0.6765  1.2358
  134OSM    H3G14466   6.807   0.200   3.053 -0.5620  1.1794 -0.2200
  134OSM    C4F14467   6.779   0.184   3.268 -0.4267  0.2842  0.1562
  134OSM    H4F14468   6.870   0.239   3.301  0.5056  0.3889 -2.3245
  134OSM    H4G14469   6.802   0.075   3.265  0.7184  0.5290 -1.3749
  134OSM    C5F14470   6.669   0.205   3.370  0.0627 -0.3707 -0.0823
  134OSM    H5F14471   6.568   0.171   3.340 -0.4165  0.1473  0.8915
  134OSM    H5G14472   6.659   0.314   3.392  1.8119 -0.1841 -0.0784
  134OSM    C6F14473   6.696   0.131   3.505  0.3259 -0.1539  0.1781
  134OSM    H6F14474   6.803   0.136   3.532  0.7282  0.9217 -1.4839
  134OSM    H6G14475   6.675   0.024   3.485 -1.7431  0.3443 -0.6045
  134OSM    C7F14476   6.600   0.180   3.618 -0.4209  0.8126 -1.1787
  134OSM    H7F14477   6.495   0.148   3.603 -0.8089  0.6060  1.4225
  134OSM    H7G14478   6.607   0.289   3.638 -0.3808  0.3287  1.9285
  134OSM    C8F14479   6.634   0.103   3.746  0.4421  0.0057 -0.5010
  134OSM    H8F14480   6.735   0.127   3.784 -0.3276 -0.0246  1.7648
  134OSM    H8G14481   6.621  -0.003   3.715 -0.9703  0.3826 -1.2937
  134OSM    C9F14482   6.543   0.138   3.858 -0.2022  0.1845 -0.4623
  134OSM    H9F14483   6.476   0.214   3.816 -0.7376 -0.9772 -1.7628
  134OSM   C10F14484   6.538   0.072   3.980  0.9626  0.3433 -0.2419
  134OSM   H10F14485   6.455   0.104   4.045  0.8448 -0.3799 -0.0287
  134OSM   C11F14486   6.621  -0.045   4.018  0.0622  1.2498  0.1571
  134OSM   H11F14487   6.699  -0.087   3.951  0.3624 -0.5056  1.5038
  134OSM   H11G14488   6.557  -0.136   4.029  3.0219 -1.3667 -2.3295
  134OSM   C12F14489   6.689  -0.026   4.150  0.1797 -0.3960 -0.6597
  134OSM   H12F14490   6.632   0.039   4.220  1.0519 -0.2160 -0.1001
  134OSM   H12G14491   6.781   0.035   4.138  0.0252  1.0966  3.8848
  134OSM   C13F14492   6.723  -0.154   4.232 -1.4679  0.1008 -0.0354
  134OSM   H13F14493   6.823  -0.190   4.201 -0.1650  2.3429  1.3419
  134OSM   H13G14494   6.657  -0.243   4.223  0.2807 -1.2139 -0.3231
  134OSM   C14F14495   6.726  -0.149   4.387  0.1129  0.3506  0.3728
  134OSM   H14F14496   6.797  -0.068   4.414  1.3864 -0.7766  0.5065
  134OSM   H14G14497   6.760  -0.250   4.418 -0.7616 -0.8815 -2.3423
  134OSM   C15F14498   6.591  -0.121   4.456 -0.7596  0.3644 -0.2856
  134OSM   H15F14499   6.511  -0.178   4.406 -1.7863  1.3768  0.1433
  134OSM   H15G14500   6.566  -0.012   4.459 -1.9315  0.0959  1.3369
  134OSM   C16F14501   6.596  -0.160   4.610  0.2590 -0.0611 -0.1576
  134OSM   H16F14502   6.673  -0.093   4.654 -1.0827  0.1654  1.9942
  134OSM   H16G14503   6.630  -0.265   4.618  1.8586  0.4075 -0.5264
  134OSM   C17F14504   6.464  -0.131   4.679  0.2791  0.6905 -0.2612
  134OSM   H17F14505   6.388  -0.174   4.611  0.2547  0.1769  0.0855
  134OSM   H17G14506   6.431  -0.026   4.663 -2.6403 -0.1874 -0.5646
  134OSM   C18F14507   6.457  -0.189   4.817 -0.1085  0.6950 -1.0165
  134OSM   H18F14508   6.441  -0.299   4.807 -0.1814  0.4422  1.3253
  134OSM   H18G14509   6.369  -0.146   4.870  0.4941  0.8270 -0.1027
  134OSM   H18H14510   6.551  -0.169   4.873  1.4136  0.6316 -3.3904
  135OSM      N14511   0.416   2.449   1.841 -0.1674  0.1647  0.0476
  135OSM    C1514512   0.318   2.433   1.726  0.0917  0.4987  0.1313
  135OSM   H15A14513   0.373   2.407   1.637 -0.3193  2.2626 -0.6790
  135OSM   H15B14514   0.263   2.526   1.724 -1.8426 -0.6006 -2.0525
  135OSM   H15C14515   0.259   2.345   1.751  1.0873  0.1547  1.3965
  135OSM    C1414516   0.341   2.467   1.968  0.4009 -0.4342 -0.4855
  135OSM   H14A14517   0.267   2.544   1.948  0.6980 -0.1500 -0.5016
  135OSM   H14B14518   0.389   2.522   2.048  0.4038 -0.1030 -0.7086
  135OSM   H14C14519   0.282   2.383   2.001 -2.5886  0.9400 -1.8622
  135OSM    C1314520   0.497   2.328   1.850  0.6554 -0.3224  0.4077
  135OSM   H13A14521   0.547   2.315   1.755 -0.5814  0.7097 -0.4316
  135OSM   H13B14522   0.441   2.244   1.887 -0.8602 -0.0215 -1.0695
  135OSM   H13C14523   0.571   2.336   1.928  1.3091 -2.5385  0.0787
  135OSM    C1214524   0.503   2.568   1.832 -0.2710  0.3338 -0.5823
  135OSM   H12A14525   0.441   2.655   1.815  1.6212  2.3885  2.1616
  135OSM   H12B14526   0.560   2.548   1.743  0.6878  3.3970 -0.7583
  135OSM    C1114527   0.607   2.595   1.946 -0.2588 -0.0707  0.0408
  135OSM   H11A14528   0.701   2.649   1.918  0.4828 -0.9453  0.7707
  135OSM   H11B14529   0.654   2.502   1.984  2.1293 -0.4240 -3.2925
  135OSM      P14530   0.512   2.827   2.034  0.1621 -0.3319  0.4001
  135OSM    O1314531   0.622   2.902   1.966 -0.3099  0.5800  0.1911
  135OSM    O1414532   0.378   2.847   1.975 -0.1488  0.0397  0.5942
  135OSM    O1114533   0.498   2.893   2.179  0.0111  0.0044 -0.3342
  135OSM    O1214534   0.540   2.671   2.050 -0.2671  0.0197 -0.3388
  135OSM    C1S14535   0.452   2.796   2.281  0.5966 -0.3922 -0.6100
  135OSM    H1S14536   0.515   2.705   2.292  0.5890 -0.5735 -1.8809
  135OSM    H1T14537   0.350   2.761   2.254 -1.2294  3.3858  0.6590
  135OSM     NF14538   0.425   2.763   2.516  0.3580 -0.1653 -0.6419
  135OSM    HNF14539   0.330   2.744   2.539  0.8789 -1.4193  0.5906
  135OSM    C2S14540   0.446   2.865   2.418 -0.4617  0.3698 -0.2420
  135OSM    H2S14541   0.541   2.918   2.439 -0.6317  1.5353 -2.2107
  135OSM    C3S14542   0.340   2.982   2.410 -0.3940  0.2116  0.0646
  135OSM    H3S14543   0.240   2.943   2.382 -0.0018 -1.4485  0.8316
  135OSM     O314544   0.379   3.083   2.321 -0.0776 -0.2377 -0.2116
  135OSM    HO314545   0.451   3.047   2.269 -0.7472 -0.9855 -0.6418
  135OSM    C4S14546   0.313   3.042   2.557  0.3962 -0.2768  0.7238
  135OSM    H4S14547   0.231   2.990   2.608  1.5733 -1.6198  1.3265
  135OSM    C5S14548   0.382   3.137   2.623 -0.3949 -0.0212  0.1507
  135OSM    H5S14549   0.474   3.179   2.578  1.2081 -0.5008  2.7497
  135OSM    C6S14550   0.357   3.195   2.764 -0.3371  0.0180  0.1182
  135OSM    H6S14551   0.357   3.306   2.762  0.4759  0.0707  1.9305
  135OSM    H6T14552   0.449   3.168   2.820 -0.8560 -1.4976  0.2896
  135OSM    C7S14553   0.227   3.146   2.845  0.0846  0.2556 -0.2880
  135OSM    H7S14554   0.232   3.035   2.846  1.0251  0.2868 -0.5279
  135OSM    H7T14555   0.145   3.180   2.778 -1.1505 -0.2131  0.9398
  135OSM    C8S14556   0.216   3.185   2.986 -0.3505 -0.0985 -0.2052
  135OSM    H8S14557   0.111   3.190   3.024 -1.4384  3.9483 -3.0570
  135OSM    H8T14558   0.248   3.291   2.992 -1.4799  0.3211 -1.1573
  135OSM    C9S14559   0.296   3.091   3.085  0.8706  0.0764 -0.4591
  135OSM    H9S14560   0.405   3.107   3.067  1.6121 -1.2135  2.2317
  135OSM    H9T14561   0.280   2.982   3.068 -0.6947  0.3390 -0.7592
  135OSM   C10S14562   0.277   3.126   3.233  0.5711 -0.5512 -0.3306
  135OSM   H10S14563   0.187   3.078   3.277 -0.6106 -0.2211 -2.2620
  135OSM   H10T14564   0.265   3.236   3.244 -2.0979 -0.7300 -0.6577
  135OSM   C11S14565   0.395   3.081   3.319  0.0665 -0.0877 -0.2365
  135OSM   H11S14566   0.494   3.087   3.269 -1.1910  1.0477 -2.7713
  135OSM   H11T14567   0.385   2.973   3.342  1.4642  0.0138  0.9738
  135OSM   C12S14568   0.409   3.153   3.458 -0.3348  0.3056  0.2206
  135OSM   H12S14569   0.440   3.258   3.440 -1.8110  0.4558 -1.7767
  135OSM   H12T14570   0.483   3.094   3.516 -2.2759 -2.1979  0.3133
  135OSM   C13S14571   0.271   3.141   3.525 -0.0629  0.5005  0.1384
  135OSM   H13S14572   0.211   3.050   3.506  1.9179 -1.7346  3.6361
  135OSM   H13T14573   0.216   3.229   3.483  2.9079  1.2747 -2.5416
  135OSM   C14S14574   0.282   3.156   3.682 -0.1530  0.9941 -0.4394
  135OSM   H14S14575   0.179   3.170   3.720 -1.0244 -3.6418 -0.5442
  135OSM   H14T14576   0.357   3.229   3.720  0.2479 -0.1591  1.1034
  135OSM   C15S14577   0.323   3.017   3.741  0.3952 -0.6505  0.5797
  135OSM   H15S14578   0.418   2.970   3.709  0.1522 -1.1703  0.6162
  135OSM   H15T14579   0.240   2.948   3.716 -1.9988  2.1970 -0.0441
  135OSM   C16S14580   0.339   3.014   3.891 -0.2454 -0.5510  0.3431
  135OSM   H16S14581   0.274   3.089   3.940  0.6686  0.3931  0.1511
  135OSM   H16T14582   0.442   3.050   3.913 -0.3174 -1.5436  2.5562
  135OSM   C17S14583   0.315   2.878   3.954 -0.1771 -0.4597  0.1994
  135OSM   H17S14584   0.382   2.812   3.895  1.3759  1.3658 -0.1747
  135OSM   H17T14585   0.211   2.853   3.924 -0.3962  1.4161 -0.7575
  135OSM   C18S14586   0.337   2.867   4.103 -0.3496 -0.7401  0.1852
  135OSM   H18S14587   0.445   2.851   4.126 -0.8397 -1.6866  2.0891
  135OSM   H18T14588   0.283   2.775   4.137 -0.3608 -0.8868 -0.2257
  135OSM   H18U14589   0.309   2.961   4.154  1.6338 -0.1175  0.2183
  135OSM    C1F14590   0.524   2.680   2.560 -0.5495  0.3665  0.6979
  135OSM     OF14591   0.642   2.693   2.534  0.3189  0.4166 -0.1540
  135OSM    C2F14592   0.478   2.559   2.638 -0.0767 -0.1634  0.0104
  135OSM    H2F14593   0.435   2.480   2.573 -0.9020  1.6338 -1.7601
  135OSM    H2G14594   0.402   2.589   2.712  0.8517 -1.7384  1.6802
  135OSM    C3F14595   0.600   2.516   2.716 -0.3831 -0.2003  0.8237
  135OSM    H3F14596   0.689   2.491   2.654  1.4399  0.6044  2.9663
  135OSM    H3G14597   0.561   2.422   2.760  2.1012 -1.9669 -0.5268
  135OSM    C4F14598   0.635   2.607   2.828 -0.3981 -0.7804  0.3258
  135OSM    H4F14599   0.666   2.707   2.791 -2.4657 -1.0622 -2.5726
  135OSM    H4G14600   0.715   2.553   2.883  1.0771 -0.7157 -1.6151
  135OSM    C5F14601   0.518   2.641   2.928  0.5532  0.3569 -0.4617
  135OSM    H5F14602   0.443   2.559   2.914 -0.2813  0.9502  0.4066
  135OSM    H5G14603   0.468   2.736   2.902  1.0599  0.7114 -0.1567
  135OSM    C6F14604   0.575   2.651   3.073 -1.0883  0.5952 -0.0547
  135OSM    H6F14605   0.618   2.554   3.106  1.1694  1.9286  1.1615
  135OSM    H6G14606   0.493   2.677   3.144 -0.7785  1.1051  0.1191
  135OSM    C7F14607   0.685   2.756   3.097  0.3347 -0.5777 -0.1332
  135OSM    H7F14608   0.642   2.857   3.079  2.6573  0.3519 -0.7331
  135OSM    H7G14609   0.772   2.748   3.029 -0.2503  0.3445 -1.0325
  135OSM    C8F14610   0.735   2.763   3.246  0.2007  0.2208  0.7107
  135OSM    H8F14611   0.824   2.828   3.247 -0.1340  0.6775  0.9550
  135OSM    H8G14612   0.768   2.662   3.280  1.6949  0.6445  0.5679
  135OSM    C9F14613   0.633   2.811   3.347  0.5084  0.2824 -0.0356
  135OSM    H9F14614   0.603   2.916   3.333 -0.1363  0.2381  0.9747
  135OSM   C10F14615   0.605   2.743   3.463 -0.0592  0.3470  0.6582
  135OSM   H10F14616   0.519   2.777   3.523  0.9377  0.7873  1.8663
  135OSM   C11F14617   0.657   2.609   3.512  0.3490  0.3073 -0.5018
  135OSM   H11F14618   0.751   2.633   3.567 -0.1705  0.8144  0.1768
  135OSM   H11G14619   0.676   2.545   3.423  0.4578  0.5644 -0.6656
  135OSM   C12F14620   0.566   2.523   3.602  0.2009  0.2679  0.1307
  135OSM   H12F14621   0.611   2.425   3.628 -2.1694 -0.5337  1.4896
  135OSM   H12G14622   0.471   2.494   3.553 -0.2325 -1.0960  1.7060
  135OSM   C13F14623   0.534   2.594   3.730 -0.7427 -0.4351 -0.2341
  135OSM   H13F14624   0.459   2.673   3.707  0.4526 -0.3121 -4.5899
  135OSM   H13G14625   0.616   2.649   3.782 -0.4551 -0.3370 -0.7795
  135OSM   C14F14626   0.475   2.497   3.836 -0.4381 -0.1121 -0.5643
  135OSM   H14F14627   0.389   2.450   3.784 -0.5324 -1.9172  1.1294
  135OSM   H14G14628   0.432   2.571   3.906  0.6574  1.1071 -1.1326
  135OSM   C15F14629   0.572   2.404   3.911  0.6128  0.5363  0.1413
  135OSM   H15F14630   0.648   2.360   3.843  0.4572  1.2485 -0.5003
  135OSM   H15G14631   0.511   2.319   3.949 -1.5251  0.7989 -2.3853
  135OSM   C16F14632   0.633   2.460   4.035 -0.7720 -0.1877 -0.0289
  135OSM   H16F14633   0.692   2.552   4.016  2.0896 -1.8650  0.2295
  135OSM   H16G14634   0.709   2.388   4.072 -2.7184 -0.7978  3.1982
  135OSM   C17F14635   0.542   2.478   4.150 -0.1930 -0.0856  0.4167
  135OSM   H17F14636   0.459   2.404   4.143  0.6215 -1.0138  0.2400
  135OSM   H17G14637   0.503   2.582   4.151  0.5870  0.2145  0.8020
  135OSM   C18F14638   0.624   2.490   4.280  0.0763  0.3644 -0.0860
  135OSM   H18F14639   0.680   2.395   4.294 -2.0005 -0.8199  0.6604
  135OSM   H18G14640   0.558   2.503   4.369 -0.3547 -0.7327 -0.2256
  135OSM   H18H14641   0.701   2.569   4.280  1.2195 -0.6769 -2.1739
  136OSM      N14642   3.515   6.033   1.982  0.2755 -0.5056 -0.3896
  136OSM    C1514643   3.480   6.179   1.983  0.1821 -0.1936 -0.8261
  136OSM   H15A14644   3.530   6.233   1.903  0.6687 -0.2245 -0.5495
  136OSM   H15B14645   3.519   6.229   2.071  0.8836  1.3013 -1.9302
  136OSM   H15C14646   3.373   6.185   1.985  0.1583 -0.7478  0.1797
  136OSM    C1414647   3.474   5.980   1.853 -0.3614 -0.3644 -0.0871
  136OSM   H14A14648   3.370   5.951   1.845 -0.3351  0.0666 -2.8199
  136OSM   H14B14649   3.532   5.894   1.824  1.3375  0.5988  0.3164
  136OSM   H14C14650   3.496   6.047   1.771 -0.0678  1.4440  1.4018
  136OSM    C1314651   3.666   6.025   1.978  0.5135 -0.0310 -0.0910
  136OSM   H13A14652   3.713   6.081   1.899  1.6997 -2.0556 -0.8938
  136OSM   H13B14653   3.700   5.928   1.948 -1.1184  0.0287 -2.3594
  136OSM   H13C14654   3.705   6.058   2.074 -1.8976 -1.0777  1.3463
  136OSM    C1214655   3.458   5.968   2.103  0.6780 -0.4484 -0.6722
  136OSM   H12A14656   3.510   6.013   2.187 -0.5575 -0.2445  0.0128
  136OSM   H12B14657   3.482   5.864   2.088 -1.3365 -1.2041  0.9030
  136OSM    C1114658   3.307   5.990   2.139  0.3471 -0.1127  0.2602
  136OSM   H11A14659   3.282   6.098   2.138  1.4000  0.1427 -0.7356
  136OSM   H11B14660   3.291   5.956   2.243 -0.0846 -0.3656  0.1140
  136OSM      P14661   3.143   5.795   2.059 -0.1827 -0.0164 -0.2420
  136OSM    O1314662   3.002   5.822   2.015  0.7280  0.0148 -0.2184
  136OSM    O1414663   3.213   5.686   1.980  0.3053  0.4679 -0.4281
  136OSM    O1114664   3.142   5.760   2.217 -0.4176  0.6113 -0.5503
  136OSM    O1214665   3.226   5.930   2.042 -0.1157  0.3696  0.2212
  136OSM    C1S14666   3.016   5.709   2.273  0.5446  0.2503  0.3875
  136OSM    H1S14667   2.984   5.615   2.223 -1.8684  0.0337  2.1628
  136OSM    H1T14668   2.934   5.784   2.272  0.8342  0.5931 -1.4533
  136OSM     NF14669   2.915   5.587   2.462  0.1478  0.3745  0.0751
  136OSM    HNF14670   2.834   5.636   2.496 -0.8998 -0.5355 -1.0532
  136OSM    C2S14671   3.030   5.662   2.423 -0.3680  0.4305  0.0416
  136OSM    H2S14672   3.125   5.604   2.420  1.2291  2.8183  1.1669
  136OSM    C3S14673   3.046   5.791   2.504  0.6808 -0.7448  0.5635
  136OSM    H3S14674   2.945   5.832   2.524  1.4391  1.5368 -0.0029
  136OSM     O314675   3.127   5.900   2.446  0.2655  0.2018  0.0604
  136OSM    HO314676   3.152   5.858   2.363  1.4321 -0.8273  0.9078
  136OSM    C4S14677   3.095   5.763   2.640 -0.3520  0.4151 -0.1444
  136OSM    H4S14678   3.170   5.684   2.650  1.0675  1.7956  0.7151
  136OSM    C5S14679   3.055   5.825   2.752 -0.2546  0.3095 -0.4035
  136OSM    H5S14680   2.984   5.909   2.754 -0.2143  0.3408 -0.2439
  136OSM    C6S14681   3.113   5.801   2.890 -0.8470  0.2315  0.3378
  136OSM    H6S14682   3.202   5.865   2.911 -1.1547  0.1875  1.8641
  136OSM    H6T14683   3.154   5.698   2.903  1.2901  0.8588 -0.8740
  136OSM    C7S14684   3.006   5.835   2.997 -0.2706  0.4232  0.2495
  136OSM    H7S14685   2.909   5.782   2.990  0.2475 -0.3546 -2.0252
  136OSM    H7T14686   2.975   5.941   2.983  0.4476  0.4994 -0.9125
  136OSM    C8S14687   3.057   5.804   3.144  0.1087 -0.6184 -0.2339
  136OSM    H8S14688   3.168   5.803   3.133  0.1231 -1.3141 -0.0524
  136OSM    H8T14689   3.051   5.694   3.156  1.1695 -0.7425 -0.6590
  136OSM    C9S14690   3.013   5.891   3.261  0.1969  0.8583 -0.0728
  136OSM    H9S14691   2.913   5.859   3.296 -0.2720 -0.6115 -2.5836
  136OSM    H9T14692   3.021   6.001   3.244  0.9900  1.2364  2.2988
  136OSM   C10S14693   3.112   5.873   3.376 -0.5121  0.2911 -0.4729
  136OSM   H10S14694   3.219   5.881   3.347 -0.3551 -1.3052 -0.4259
  136OSM   H10T14695   3.095   5.774   3.424 -0.3275 -0.0935 -1.1942
  136OSM   C11S14696   3.088   5.980   3.487 -0.0124 -0.7984 -0.3973
  136OSM   H11S14697   2.980   5.986   3.512  0.2817 -2.3114  1.4951
  136OSM   H11T14698   3.119   6.076   3.441 -0.6912 -0.5600 -0.3634
  136OSM   C12S14699   3.178   5.944   3.603 -0.2675  0.2929 -0.7115
  136OSM   H12S14700   3.286   5.961   3.586  0.1181 -1.5876 -0.3342
  136OSM   H12T14701   3.170   5.837   3.634 -0.7744  0.1083 -1.4474
  136OSM   C13S14702   3.149   6.032   3.725 -0.0491 -0.2076 -0.0897
  136OSM   H13S14703   3.046   6.035   3.766 -1.2305  2.2447 -2.8531
  136OSM   H13T14704   3.171   6.136   3.692  1.8648 -0.9444 -1.3052
  136OSM   C14S14705   3.240   5.982   3.847 -0.6988  0.3816  0.6381
  136OSM   H14S14706   3.347   5.996   3.823 -0.6479  1.7773  1.5400
  136OSM   H14T14707   3.208   5.878   3.866  1.9899 -1.0798 -2.0718
  136OSM   C15S14708   3.213   6.062   3.973  1.1529  0.0133 -0.5772
  136OSM   H15S14709   3.131   6.012   4.030  0.7160  1.0271 -0.3095
  136OSM   H15T14710   3.183   6.163   3.941  1.4815 -0.3641 -2.1409
  136OSM   C16S14711   3.324   6.068   4.079  0.3037 -0.1015  0.2922
  136OSM   H16S14712   3.412   6.122   4.039  0.0860 -1.8117 -2.7360
  136OSM   H16T14713   3.349   5.962   4.099 -0.2632 -0.3566 -0.3050
  136OSM   C17S14714   3.279   6.160   4.201 -0.0517  0.2682 -0.7579
  136OSM   H17S14715   3.169   6.151   4.214  0.2565  0.0668  2.3953
  136OSM   H17T14716   3.299   6.266   4.176  1.6062 -0.1260 -1.2252
  136OSM   C18S14717   3.347   6.127   4.331  0.6486  0.5905  0.3298
  136OSM   H18S14718   3.326   6.203   4.409 -1.6465  0.5469 -0.1813
  136OSM   H18T14719   3.457   6.116   4.324  0.6506  1.2775 -1.2968
  136OSM   H18U14720   3.305   6.036   4.380  1.9503 -0.2134  0.0170
  136OSM    C1F14721   2.905   5.456   2.445 -0.3433 -0.2519 -0.2354
  136OSM     OF14722   3.006   5.394   2.410  0.1549 -0.3072  0.1571
  136OSM    C2F14723   2.779   5.379   2.478  0.1744  0.7923  0.2387
  136OSM    H2F14724   2.829   5.295   2.530  0.6699  0.7391 -0.3241
  136OSM    H2G14725   2.733   5.345   2.383 -0.6963  2.2972  0.0850
  136OSM    C3F14726   2.682   5.442   2.570 -0.5512 -0.0699 -0.3649
  136OSM    H3F14727   2.587   5.384   2.572 -0.0901 -0.8386 -0.4175
  136OSM    H3G14728   2.663   5.547   2.541  0.7920  0.6076  1.0423
  136OSM    C4F14729   2.732   5.465   2.715 -0.2676  0.7508 -0.0356
  136OSM    H4F14730   2.799   5.553   2.721  0.7121 -0.0056  0.4642
  136OSM    H4G14731   2.793   5.374   2.736 -1.1917  0.0499 -0.3300
  136OSM    C5F14732   2.618   5.482   2.816 -0.4890  0.2081 -0.2105
  136OSM    H5F14733   2.537   5.407   2.805 -0.9668  0.6540  0.2155
  136OSM    H5G14734   2.562   5.578   2.803  0.5741  1.0197  0.9745
  136OSM    C6F14735   2.668   5.499   2.965 -0.5102 -0.3744  0.6485
  136OSM    H6F14736   2.753   5.571   2.962 -1.3526  0.7729 -4.3294
  136OSM    H6G14737   2.701   5.393   2.974 -1.2360 -0.7561 -0.9493
  136OSM    C7F14738   2.554   5.525   3.065  0.0544 -0.5415 -1.1981
  136OSM    H7F14739   2.456   5.480   3.036 -0.9542 -0.3503  1.5612
  136OSM    H7G14740   2.515   5.627   3.082  1.2540 -0.4478  1.4769
  136OSM    C8F14741   2.596   5.474   3.205 -0.2936 -0.5325 -0.2802
  136OSM    H8F14742   2.638   5.373   3.185  0.6558 -0.5842  1.7274
  136OSM    H8G14743   2.501   5.460   3.260 -2.4744  1.3511 -3.2436
  136OSM    C9F14744   2.696   5.570   3.268 -0.8973 -0.1379  0.0637
  136OSM    H9F14745   2.771   5.609   3.198  0.1199  1.8452  2.1521
  136OSM   C10F14746   2.701   5.621   3.395  0.2963 -0.2122  0.8599
  136OSM   H10F14747   2.788   5.678   3.431 -1.0652  0.6149  3.0653
  136OSM   C11F14748   2.610   5.590   3.511 -0.0836  0.5882  0.0628
  136OSM   H11F14749   2.547   5.502   3.485 -1.5055  1.2626  1.0825
  136OSM   H11G14750   2.549   5.681   3.528 -0.1274  0.6091 -0.1954
  136OSM   C12F14751   2.696   5.573   3.643 -0.2039 -0.3687  0.0079
  136OSM   H12F14752   2.762   5.660   3.663 -2.8351  1.4657  1.2177
  136OSM   H12G14753   2.746   5.473   3.637 -0.5079 -0.5091 -0.1971
  136OSM   C13F14754   2.622   5.567   3.776 -0.3859 -0.5318 -0.2933
  136OSM   H13F14755   2.544   5.489   3.783 -1.9806  1.1239  1.8119
  136OSM   H13G14756   2.562   5.656   3.803 -0.9484 -0.4279 -1.7618
  136OSM   C14F14757   2.725   5.547   3.888  1.0968  0.2845  0.4559
  136OSM   H14F14758   2.789   5.638   3.891 -0.6876  1.8066 -2.8499
  136OSM   H14G14759   2.793   5.463   3.864 -0.4330 -1.4111  1.7382
  136OSM   C15F14760   2.672   5.521   4.028 -0.5371 -0.0067 -0.4830
  136OSM   H15F14761   2.627   5.420   4.038  0.1848 -0.3026 -0.1344
  136OSM   H15G14762   2.594   5.588   4.071  0.1674 -0.3217  1.3953
  136OSM   C16F14763   2.776   5.541   4.139 -0.2554 -0.1310 -0.0932
  136OSM   H16F14764   2.799   5.650   4.136  0.1901 -0.2359 -0.4537
  136OSM   H16G14765   2.864   5.478   4.114 -0.8213 -0.5207 -1.1635
  136OSM   C17F14766   2.729   5.496   4.272  0.3553  0.0465 -1.7221
  136OSM   H17F14767   2.740   5.387   4.290 -0.0518  0.5603  2.8662
  136OSM   H17G14768   2.619   5.516   4.273  0.7435  2.4702 -2.0065
  136OSM   C18F14769   2.799   5.568   4.386  0.8859 -0.5274  0.1312
  136OSM   H18F14770   2.810   5.494   4.468  2.8411 -1.6086 -1.0264
  136OSM   H18G14771   2.747   5.664   4.402  1.5474  0.0758 -1.2152
  136OSM   H18H14772   2.904   5.583   4.352  1.0435  1.0557  1.2073
  137OSM      N14773   0.811   4.297   2.316  0.0680  0.6324  0.4947
  137OSM    C1514774   0.918   4.288   2.416  0.0540 -0.8646 -0.9498
  137OSM   H15A14775   0.917   4.372   2.484 -2.5763 -2.6844  1.4593
  137OSM   H15B14776   1.014   4.293   2.367  1.7766  2.1660  2.2398
  137OSM   H15C14777   0.920   4.199   2.476  0.0768 -0.3009 -0.0919
  137OSM    C1414778   0.671   4.303   2.375 -0.4591  0.6832 -0.4635
  137OSM   H14A14779   0.668   4.366   2.463 -1.5349  0.6250 -0.4528
  137OSM   H14B14780   0.650   4.202   2.406 -2.0867  1.6439  1.8086
  137OSM   H14C14781   0.604   4.337   2.298  0.6641  0.6508 -1.4892
  137OSM    C1314782   0.822   4.424   2.234  0.7894 -0.0042  0.4618
  137OSM   H13A14783   0.761   4.406   2.146 -0.9710  0.7712  1.4710
  137OSM   H13B14784   0.924   4.450   2.209 -0.1278  1.7578 -1.8171
  137OSM   H13C14785   0.780   4.507   2.289 -0.1457 -0.6138  0.6951
  137OSM    C1214786   0.821   4.179   2.224  0.0701 -0.3913  0.5408
  137OSM   H12A14787   0.907   4.190   2.159 -0.6644 -1.7597 -0.7236
  137OSM   H12B14788   0.734   4.182   2.161  1.2796  0.1495 -1.1814
  137OSM    C1114789   0.817   4.038   2.295  0.4092 -0.0726 -0.4549
  137OSM   H11A14790   0.811   3.955   2.221  3.7577 -0.9001  0.0180
  137OSM   H11B14791   0.723   4.026   2.351  0.7617 -0.7483  0.0036
  137OSM      P14792   1.046   3.934   2.356  0.2072 -0.4943  0.0177
  137OSM    O1314793   1.076   3.945   2.211  0.1117 -0.7970  0.4586
  137OSM    O1414794   1.165   3.975   2.436 -0.0840 -0.5834  0.4336
  137OSM    O1114795   1.006   3.782   2.393 -0.9974 -1.0660 -0.5565
  137OSM    O1214796   0.916   4.014   2.397 -0.4819  0.5427 -0.3944
  137OSM    C1S14797   1.038   3.730   2.523 -0.5544 -0.8774  0.3554
  137OSM    H1S14798   1.003   3.808   2.594  1.4254  0.1510  0.2559
  137OSM    H1T14799   1.145   3.702   2.528 -0.8217 -2.1168 -0.4894
  137OSM     NF14800   1.004   3.549   2.675 -0.1804  0.6623 -0.0964
  137OSM    HNF14801   1.074   3.479   2.687  0.4324  0.8034 -2.3877
  137OSM    C2S14802   0.976   3.586   2.540  0.2984  0.0403 -0.1569
  137OSM    H2S14803   0.866   3.587   2.533  0.2978 -2.6660 -1.7122
  137OSM    C3S14804   1.018   3.484   2.427 -0.8721 -0.0547 -0.4672
  137OSM    H3S14805   1.125   3.456   2.437 -1.1379 -0.9823 -0.1159
  137OSM     O314806   1.003   3.543   2.297  0.6357  0.5429 -0.0425
  137OSM    HO314807   0.985   3.634   2.320 -2.4600  0.2768 -0.9835
  137OSM    C4S14808   0.939   3.352   2.438 -0.5934  0.2827  0.3205
  137OSM    H4S14809   0.994   3.268   2.482 -1.2615 -1.5542 -2.1194
  137OSM    C5S14810   0.810   3.339   2.404  0.5762  0.2168 -0.2188
  137OSM    H5S14811   0.748   3.424   2.372 -1.9790 -1.9872 -1.5721
  137OSM    C6S14812   0.735   3.209   2.424 -0.1829  0.0297 -0.4495
  137OSM    H6S14813   0.740   3.148   2.331  0.0399  0.7629 -0.9293
  137OSM    H6T14814   0.628   3.228   2.444 -0.4743 -2.6262  0.9232
  137OSM    C7S14815   0.776   3.114   2.539  0.9656  0.9371  0.0408
  137OSM    H7S14816   0.875   3.067   2.520  0.8150 -0.8514  3.0112
  137OSM    H7T14817   0.703   3.031   2.534  0.4893  1.3855 -0.7310
  137OSM    C8S14818   0.781   3.175   2.678 -0.3684 -0.0630 -0.5008
  137OSM    H8S14819   0.707   3.257   2.688 -1.8348 -1.4943  1.0740
  137OSM    H8T14820   0.883   3.216   2.691 -0.9052  1.0158  0.4041
  137OSM    C9S14821   0.752   3.082   2.796 -0.1799 -0.6494  0.2443
  137OSM    H9S14822   0.814   2.991   2.784  0.5129  0.2066 -4.0470
  137OSM    H9T14823   0.647   3.051   2.778 -0.6524  1.8489 -1.7746
  137OSM   C10S14824   0.758   3.138   2.939 -0.4402 -0.3385 -0.6265
  137OSM   H10S14825   0.717   3.052   2.996 -0.5317 -1.3225 -2.1298
  137OSM   H10T14826   0.690   3.226   2.943  0.0644  0.0670 -0.8784
  137OSM   C11S14827   0.894   3.191   2.984 -0.4873 -0.1444 -0.2646
  137OSM   H11S14828   0.919   3.289   2.938  0.1468 -0.4136 -0.5076
  137OSM   H11T14829   0.975   3.120   2.958  0.3210  0.0296  1.6539
  137OSM   C12S14830   0.913   3.223   3.133  0.0036  0.3126  0.1457
  137OSM   H12S14831   0.853   3.311   3.165 -2.2051 -1.1337  0.2011
  137OSM   H12T14832   1.017   3.246   3.165  0.0462 -0.2532  0.4133
  137OSM   C13S14833   0.872   3.105   3.222  0.0037  0.3648  0.9197
  137OSM   H13S14834   0.939   3.020   3.196 -1.1347 -1.0312  2.3580
  137OSM   H13T14835   0.770   3.065   3.206  0.5991 -1.3084  1.0150
  137OSM   C14S14836   0.893   3.129   3.375  0.7909  0.3330 -0.5523
  137OSM   H14S14837   0.999   3.161   3.387  0.4443  1.2127  0.2624
  137OSM   H14T14838   0.886   3.037   3.438  3.1865  2.9307  4.0333
  137OSM   C15S14839   0.795   3.231   3.434 -0.0818 -0.3527  0.7754
  137OSM   H15S14840   0.689   3.224   3.399  1.1174 -1.2792 -3.1314
  137OSM   H15T14841   0.828   3.334   3.410  0.5637  0.1088  3.4034
  137OSM   C16S14842   0.794   3.226   3.590 -0.4023  0.4100  0.7855
  137OSM   H16S14843   0.892   3.256   3.631 -0.4688  0.3566  0.9892
  137OSM   H16T14844   0.779   3.123   3.630  0.3839  0.6006  1.6138
  137OSM   C17S14845   0.695   3.315   3.663 -0.3127  0.4024  0.8089
  137OSM   H17S14846   0.595   3.277   3.634  1.3244 -2.3964 -1.6760
  137OSM   H17T14847   0.704   3.422   3.634 -0.7383 -0.1747 -1.6825
  137OSM   C18S14848   0.694   3.302   3.816  0.3399  0.3945  0.1594
  137OSM   H18S14849   0.603   3.347   3.862 -0.6499 -0.6848 -0.6495
  137OSM   H18T14850   0.789   3.338   3.861  1.7820 -1.9947 -0.7868
  137OSM   H18U14851   0.685   3.194   3.841  0.5863 -0.0823 -1.6788
  137OSM    C1F14852   0.956   3.608   2.783 -0.2904 -0.4031 -0.1417
  137OSM     OF14853   0.862   3.688   2.769 -0.2663  0.1460 -0.1685
  137OSM    C2F14854   1.010   3.576   2.920 -0.2188 -0.6968  0.4052
  137OSM    H2F14855   1.118   3.603   2.920 -0.6754  1.3094  0.9378
  137OSM    H2G14856   1.000   3.466   2.928 -1.2413 -0.7510 -1.0558
  137OSM    C3F14857   0.937   3.638   3.047 -0.1364  0.1967  0.3770
  137OSM    H3F14858   0.830   3.613   3.062 -0.6283  1.9416  0.0690
  137OSM    H3G14859   0.954   3.748   3.042  0.9978  0.0961  1.6398
  137OSM    C4F14860   0.998   3.578   3.177 -0.8180 -0.2437  0.5392
  137OSM    H4F14861   1.104   3.611   3.185 -0.1510 -2.2127  0.3275
  137OSM    H4G14862   1.002   3.467   3.179 -2.0730 -0.2962  0.6382
  137OSM    C5F14863   0.936   3.618   3.303 -0.1749  0.3713 -0.4671
  137OSM    H5F14864   0.838   3.566   3.298  0.3084 -0.5498 -0.6517
  137OSM    H5G14865   0.916   3.727   3.314  1.2424  0.6579 -0.6236
  137OSM    C6F14866   1.008   3.556   3.430  0.1921  0.0973 -0.2869
  137OSM    H6F14867   1.116   3.582   3.427 -0.2734  2.1774 -2.8910
  137OSM    H6G14868   0.995   3.446   3.437 -1.1091  0.2440 -0.2401
  137OSM    C7F14869   0.954   3.610   3.566 -0.4658 -0.6341  0.5927
  137OSM    H7F14870   0.845   3.590   3.565 -0.8491  1.2961  0.2364
  137OSM    H7G14871   0.965   3.720   3.560 -2.3035 -0.4738 -0.4035
  137OSM    C8F14872   1.033   3.566   3.691 -0.3419  0.4604 -0.1027
  137OSM    H8F14873   1.142   3.563   3.667 -0.1354 -0.7761  0.8861
  137OSM    H8G14874   1.001   3.463   3.718 -0.7173  0.7284  0.4992
  137OSM    C9F14875   0.998   3.666   3.798  0.2529 -0.0309 -0.6720
  137OSM    H9F14876   0.893   3.698   3.792 -0.0324 -1.1123 -1.8399
  137OSM   C10F14877   1.073   3.709   3.903  0.6166 -0.3424 -0.1463
  137OSM   H10F14878   1.031   3.790   3.965 -1.4224 -0.6969 -0.9995
  137OSM   C11F14879   1.213   3.665   3.950  0.1784 -0.3517  0.4041
  137OSM   H11F14880   1.264   3.760   3.977 -2.1590  0.7805  1.0668
  137OSM   H11G14881   1.266   3.615   3.866 -0.2040  0.0374 -0.0749
  137OSM   C12F14882   1.202   3.574   4.070 -0.0045 -0.0376 -1.3777
  137OSM   H12F14883   1.296   3.515   4.068  1.1085  1.6481 -1.9883
  137OSM   H12G14884   1.115   3.505   4.072 -0.4043  0.4420  1.4670
  137OSM   C13F14885   1.194   3.649   4.210 -0.0384  0.2986  0.3541
  137OSM   H13F14886   1.229   3.751   4.184  2.3436 -0.5923 -0.2679
  137OSM   H13G14887   1.268   3.593   4.271  0.6662  0.6304 -0.1836
  137OSM   C14F14888   1.051   3.647   4.265 -0.3790  0.2700  0.4833
  137OSM   H14F14889   1.027   3.539   4.279  2.2520 -0.3340  0.9686
  137OSM   H14G14890   0.997   3.680   4.174  0.7929  1.9709  0.3699
  137OSM   C15F14891   1.029   3.742   4.383  0.5012  0.1711  0.3317
  137OSM   H15F14892   1.045   3.843   4.339 -0.7416  0.2713  0.0769
  137OSM   H15G14893   1.108   3.715   4.456  1.9219 -2.4161 -1.9526
  137OSM   C16F14894   0.883   3.727   4.439 -0.1994  0.3352 -0.3592
  137OSM   H16F14895   0.882   3.630   4.493  3.5094  0.9963  1.1855
  137OSM   H16G14896   0.824   3.724   4.345 -1.5787 -0.3129  0.5023
  137OSM   C17F14897   0.840   3.841   4.528  0.1725 -0.8449 -0.5531
  137OSM   H17F14898   0.880   3.925   4.466 -0.5343 -0.7070 -0.8343
  137OSM   H17G14899   0.891   3.839   4.626  0.0184  0.3114 -0.4296
  137OSM   C18F14900   0.696   3.868   4.551  0.3554  0.7701 -0.4758
  137OSM   H18F14901   0.636   3.892   4.461  1.1285 -2.0676 -1.8574
  137OSM   H18G14902   0.675   3.937   4.636  0.4201  0.6736 -0.3792
  137OSM   H18H14903   0.662   3.773   4.599  3.7033 -0.2389  0.1878
  138OSM      N14904   4.962   1.274   2.444  0.4804 -0.0364  0.1406
  138OSM    C1514905   4.835   1.230   2.378 -0.2856 -0.2674 -0.0995
  138OSM   H15A14906   4.751   1.220   2.445  1.8659  1.8652  3.2213
  138OSM   H15B14907   4.848   1.133   2.332 -0.7233 -1.4834  2.1772
  138OSM   H15C14908   4.800   1.301   2.305 -2.5972 -1.5738 -0.3704
  138OSM    C1414909   5.067   1.289   2.332  0.1136  0.3656  0.2366
  138OSM   H14A14910   5.069   1.204   2.266 -0.1803  0.5134  0.0350
  138OSM   H14B14911   5.167   1.309   2.369 -0.4009  2.5572  0.5859
  138OSM   H14C14912   5.038   1.374   2.272  0.2156 -0.3416 -0.8609
  138OSM    C1314913   4.932   1.402   2.509  0.5164 -0.2376  0.1367
  138OSM   H13A14914   5.018   1.467   2.511  1.0587 -0.9424  0.0985
  138OSM   H13B14915   4.892   1.402   2.610 -0.9658  1.5564 -0.3851
  138OSM   H13C14916   4.856   1.457   2.455  1.8884  1.4413 -0.1979
  138OSM    C1214917   5.003   1.163   2.540 -0.3757  0.3093 -0.8273
  138OSM   H12A14918   5.009   1.074   2.480 -1.1939  0.2965 -0.9025
  138OSM   H12B14919   4.922   1.142   2.607 -0.8811  0.4178 -1.3894
  138OSM    C1114920   5.131   1.184   2.617 -0.1206  0.2354 -0.7293
  138OSM   H11A14921   5.142   1.121   2.708  0.3872  1.8491  0.3763
  138OSM   H11B14922   5.132   1.290   2.652  1.4206  0.1009 -0.2833
  138OSM      P14923   5.277   1.013   2.481  0.3325 -0.0803  0.6169
  138OSM    O1314924   5.154   0.931   2.478 -0.9477  0.2599  0.2488
  138OSM    O1414925   5.354   1.031   2.353 -0.4535  0.5364  0.4120
  138OSM    O1114926   5.370   0.959   2.594 -0.3811  0.0362 -0.1176
  138OSM    O1214927   5.247   1.158   2.537  0.0537  0.5568 -0.0943
  138OSM    C1S14928   5.486   1.040   2.634  0.0827  0.5578 -0.1272
  138OSM    H1S14929   5.467   1.149   2.627  0.1578  0.6325  0.7620
  138OSM    H1T14930   5.578   1.006   2.582  0.4701  0.1876  0.7707
  138OSM     NF14931   5.611   1.104   2.831 -0.4976  0.1278 -0.3061
  138OSM    HNF14932   5.706   1.079   2.849 -0.3147  0.8721 -0.1827
  138OSM    C2S14933   5.512   1.009   2.787  0.3875  0.4294  0.6384
  138OSM    H2S14934   5.415   1.028   2.837  0.4238  2.1028  0.1312
  138OSM    C3S14935   5.550   0.857   2.798 -0.1037 -0.1625 -0.8487
  138OSM    H3S14936   5.650   0.842   2.753  0.3119  0.9100 -0.3180
  138OSM     O314937   5.466   0.772   2.727  0.3438 -0.5538 -0.4830
  138OSM    HO314938   5.418   0.824   2.662  0.6897 -0.7522 -0.9085
  138OSM    C4S14939   5.551   0.813   2.941 -0.4658  0.0990  0.4393
  138OSM    H4S14940   5.647   0.836   2.988  0.1219  0.0623 -0.7247
  138OSM    C5S14941   5.456   0.773   3.030 -0.8146  0.4346  0.5135
  138OSM    H5S14942   5.353   0.762   2.991 -0.3028 -1.8118 -0.3007
  138OSM    C6S14943   5.497   0.738   3.169 -0.4079  0.6949  0.1882
  138OSM    H6S14944   5.601   0.699   3.169 -0.3157  0.9371  0.4397
  138OSM    H6T14945   5.429   0.662   3.211  1.5080 -1.9552 -1.2019
  138OSM    C7S14946   5.478   0.861   3.255  0.0555  0.6970  0.2637
  138OSM    H7S14947   5.379   0.904   3.229 -1.0667 -0.8704  1.7288
  138OSM    H7T14948   5.563   0.927   3.229 -0.9480  2.1529  0.5600
  138OSM    C8S14949   5.474   0.831   3.409  0.0521 -0.6905 -0.4696
  138OSM    H8S14950   5.538   0.745   3.438 -0.4536 -0.6986  0.6663
  138OSM    H8T14951   5.371   0.793   3.426 -0.5047  0.9400  0.0943
  138OSM    C9S14952   5.497   0.957   3.491  0.5175  0.0483 -0.2134
  138OSM    H9S14953   5.406   1.020   3.494  0.9847  0.6919  2.5298
  138OSM    H9T14954   5.583   1.016   3.452 -0.6131 -0.1817 -3.3027
  138OSM   C10S14955   5.533   0.922   3.643  0.1088 -0.3596  0.1619
  138OSM   H10S14956   5.642   0.905   3.652 -0.0036  0.0326  3.1909
  138OSM   H10T14957   5.467   0.836   3.669  0.2196 -0.7350 -0.7493
  138OSM   C11S14958   5.483   1.035   3.738 -0.2798 -0.5349  0.1024
  138OSM   H11S14959   5.374   1.017   3.747 -0.3950  0.2721  0.3221
  138OSM   H11T14960   5.516   1.129   3.688 -2.0511 -0.1004 -0.3210
  138OSM   C12S14961   5.538   1.027   3.882 -0.5457 -0.5312 -0.0599
  138OSM   H12S14962   5.647   1.004   3.876 -0.6744 -1.8068  1.7370
  138OSM   H12T14963   5.500   0.943   3.943  0.5251  0.4362  2.0318
  138OSM   C13S14964   5.507   1.160   3.952  0.3621  0.2548  0.2289
  138OSM   H13S14965   5.397   1.176   3.954 -0.3534 -3.6492 -0.6681
  138OSM   H13T14966   5.563   1.246   3.910  0.1245  1.9427  3.1471
  138OSM   C14S14967   5.555   1.156   4.096 -0.1521  0.1714 -0.5198
  138OSM   H14S14968   5.662   1.127   4.089 -0.0635  0.5882 -0.8825
  138OSM   H14T14969   5.500   1.086   4.163 -1.7565  3.2558  1.6717
  138OSM   C15S14970   5.546   1.288   4.176 -0.1302 -0.2347  0.1909
  138OSM   H15S14971   5.438   1.312   4.172  0.1549  1.3300  0.9278
  138OSM   H15T14972   5.594   1.378   4.132 -1.2569  0.2809 -0.0097
  138OSM   C16S14973   5.592   1.262   4.317 -0.2911  0.0898  0.0507
  138OSM   H16S14974   5.695   1.221   4.310  0.1523  1.0353  0.8578
  138OSM   H16T14975   5.534   1.179   4.363  0.0668 -0.2243 -0.0495
  138OSM   C17S14976   5.605   1.389   4.407  0.2900  0.4094 -0.5948
  138OSM   H17S14977   5.511   1.448   4.412 -0.3043 -0.5002 -0.8076
  138OSM   H17T14978   5.675   1.455   4.351  1.9131  0.3984  1.3132
  138OSM   C18S14979   5.670   1.365   4.546  0.4847  0.1400  0.7407
  138OSM   H18S14980   5.775   1.338   4.521 -0.1767 -0.6042 -1.5028
  138OSM   H18T14981   5.610   1.279   4.583  2.9697 -2.3288 -0.5767
  138OSM   H18U14982   5.658   1.458   4.605  0.1472  0.0958  0.7423
  138OSM    C1F14983   5.568   1.225   2.873 -0.1411 -0.6549  0.5782
  138OSM     OF14984   5.452   1.261   2.841  0.4366 -0.0373  0.1324
  138OSM    C2F14985   5.652   1.306   2.963 -0.0111  0.6379 -0.2140
  138OSM    H2F14986   5.580   1.388   2.982 -0.5836  0.2030 -0.4971
  138OSM    H2G14987   5.737   1.357   2.913  1.4606 -1.0155  0.4928
  138OSM    C3F14988   5.686   1.234   3.102 -0.0554  0.0565  0.2531
  138OSM    H3F14989   5.734   1.136   3.084  0.3655 -0.0837  1.9731
  138OSM    H3G14990   5.599   1.217   3.168  1.4944 -0.7160  2.2166
  138OSM    C4F14991   5.777   1.327   3.180 -0.1226  0.3102  0.0384
  138OSM    H4F14992   5.730   1.427   3.195 -0.2873  0.1217  0.8649
  138OSM    H4G14993   5.868   1.342   3.119  0.3631  0.8967  0.8772
  138OSM    C5F14994   5.808   1.268   3.320  0.5191 -0.0566 -0.6090
  138OSM    H5F14995   5.855   1.168   3.312 -1.9571 -1.4463  0.8389
  138OSM    H5G14996   5.714   1.257   3.378  0.8424 -1.8822 -0.3698
  138OSM    C6F14997   5.899   1.350   3.415  0.1487  0.2465 -0.5361
  138OSM    H6F14998   5.845   1.447   3.410 -0.7098 -0.2561 -1.3168
  138OSM    H6G14999   6.006   1.348   3.384  0.5282  0.0539  0.6941
  138OSM    C7F15000   5.880   1.300   3.561 -0.0738 -0.1181  0.1259
  138OSM    H7F15001   5.907   1.192   3.564 -0.9026 -0.3197  1.5255
  138OSM    H7G15002   5.772   1.311   3.586 -0.1039  0.5945 -0.3161
  138OSM    C8F15003   5.967   1.382   3.665 -0.0021  0.0526  0.2306
  138OSM    H8F15004   5.920   1.482   3.659  0.2833  0.2828  1.5104
  138OSM    H8G15005   6.072   1.383   3.629  0.5930 -2.4123  1.5893
  138OSM    C9F15006   5.971   1.326   3.805 -0.1580  0.1078 -0.1541
  138OSM    H9F15007   5.978   1.216   3.802  0.0310  0.1329 -2.3702
  138OSM   C10F15008   5.935   1.389   3.917 -0.3915 -0.2013 -0.1125
  138OSM   H10F15009   5.927   1.338   4.014  0.5071  0.4350  0.3103
  138OSM   C11F15010   5.906   1.546   3.932 -0.3661  0.0255 -0.1417
  138OSM   H11F15011   5.798   1.569   3.939 -0.2520  0.1350  1.5200
  138OSM   H11G15012   5.938   1.600   3.840 -0.1437 -0.0674 -0.1199
  138OSM   C12F15013   5.975   1.609   4.053 -0.2690 -0.5048  0.0453
  138OSM   H12F15014   5.991   1.717   4.031  2.6395 -0.6856  0.9640
  138OSM   H12G15015   6.079   1.572   4.061 -0.9381 -2.3460  0.6779
  138OSM   C13F15016   5.919   1.595   4.196  0.1213 -0.1125 -0.2367
  138OSM   H13F15017   5.908   1.486   4.213  0.1592 -0.0601  0.1238
  138OSM   H13G15018   5.817   1.638   4.199  0.7203  1.3027  1.1494
  138OSM   C14F15019   5.989   1.671   4.304 -0.0489 -0.5208  0.4605
  138OSM   H14F15020   6.005   1.776   4.272 -1.7948 -0.4414 -0.2780
  138OSM   H14G15021   6.086   1.622   4.325  0.4952  0.8032  1.1846
  138OSM   C15F15022   5.894   1.666   4.426  0.1217 -0.7584 -0.0189
  138OSM   H15F15023   5.840   1.570   4.439 -2.5985  0.6430 -0.1428
  138OSM   H15G15024   5.820   1.745   4.402  1.1708  0.1822 -0.2400
  138OSM   C16F15025   5.962   1.697   4.564  0.2921 -0.8906  0.4133
  138OSM   H16F15026   5.998   1.802   4.570 -1.6215  0.1159 -3.0431
  138OSM   H16G15027   6.049   1.628   4.563  0.1652 -1.0725  1.2488
  138OSM   C17F15028   5.871   1.671   4.681 -0.0301 -0.9262 -1.1887
  138OSM   H17F15029   5.915   1.721   4.770  0.0651  1.9469 -2.7228
  138OSM   H17G15030   5.849   1.563   4.693 -1.5374 -0.4783  0.4670
  138OSM   C18F15031   5.719   1.720   4.669 -0.6726 -0.2429 -0.2020
  138OSM   H18F15032   5.671   1.666   4.585 -2.2513  1.6599 -0.6025
  138OSM   H18G15033   5.716   1.829   4.644 -0.8818  0.2926  1.9824
  138OSM   H18H15034   5.672   1.711   4.768  1.4964 -0.5377  0.8635
  139OSM      N15035   1.079   3.294   1.956 -0.2290 -0.1589  0.2297
  139OSM    C1515036   1.016   3.225   1.839 -0.6727  0.7781 -0.2828
  139OSM   H15A15037   1.095   3.164   1.797  0.9040  1.3710  1.6898
  139OSM   H15B15038   0.982   3.295   1.764 -0.8641  0.7354 -0.2365
  139OSM   H15C15039   0.930   3.164   1.860 -0.0312 -0.6702 -1.6472
  139OSM    C1415040   1.180   3.374   1.880 -0.4238 -0.6703  0.4578
  139OSM   H14A15041   1.246   3.425   1.949  1.0860 -1.3086 -0.4753
  139OSM   H14B15042   1.126   3.443   1.816 -2.6449  0.0100  2.8883
  139OSM   H14C15043   1.227   3.306   1.812 -1.4377 -1.0689  0.1330
  139OSM    C1315044   0.976   3.374   2.024 -0.2688 -0.2840 -0.0026
  139OSM   H13A15045   0.921   3.437   1.956  1.4093  0.8474 -0.3440
  139OSM   H13B15046   1.019   3.428   2.107 -1.7202 -2.2259  2.1617
  139OSM   H13C15047   0.906   3.308   2.075 -1.2777  1.1933  0.5998
  139OSM    C1215048   1.152   3.193   2.044 -1.1298 -0.4340 -0.1616
  139OSM   H12A15049   1.217   3.253   2.106 -0.9753 -0.6091 -0.1508
  139OSM   H12B15050   1.223   3.134   1.988  1.6676  0.4515  2.2168
  139OSM    C1115051   1.070   3.099   2.133  0.1850 -0.3900  0.1562
  139OSM   H11A15052   1.018   3.170   2.201  1.0655  1.1549 -0.7116
  139OSM   H11B15053   1.133   3.040   2.203  2.6401  0.5062 -1.1433
  139OSM      P15054   1.034   2.907   1.975  0.3722 -0.3592 -0.1198
  139OSM    O1315055   0.936   2.871   1.864 -0.1439  0.5039 -0.0376
  139OSM    O1415056   1.169   2.942   1.925  0.1268 -0.4433 -0.0913
  139OSM    O1115057   1.051   2.795   2.081 -0.4042 -0.3447  0.2954
  139OSM    O1215058   0.971   3.025   2.060  0.2514  0.2703 -0.1819
  139OSM    C1S15059   0.929   2.741   2.140  0.0812  0.5207  0.2090
  139OSM    H1S15060   0.888   2.665   2.070  1.5512  0.1469 -0.3014
  139OSM    H1T15061   0.861   2.822   2.173  1.6382  1.4393  1.2890
  139OSM     NF15062   0.827   2.594   2.322  0.0979 -0.7274 -0.4483
  139OSM    HNF15063   0.779   2.655   2.384  0.4990 -0.2669 -0.5887
  139OSM    C2S15064   0.954   2.656   2.274 -0.2886  0.0047 -0.7971
  139OSM    H2S15065   1.026   2.575   2.249 -0.9135 -0.4969 -0.9982
  139OSM    C3S15066   1.021   2.740   2.383  0.2776  0.7929 -0.3329
  139OSM    H3S15067   0.960   2.825   2.422  2.3218  3.3020 -2.2516
  139OSM     O315068   1.136   2.810   2.340  0.3481  0.2284  0.1464
  139OSM    HO315069   1.135   2.822   2.245 -2.1701  0.0139  0.0907
  139OSM    C4S15070   1.046   2.652   2.503  0.1040 -0.5019 -0.0185
  139OSM    H4S15071   0.961   2.675   2.570 -0.1464  2.2900 -1.1835
  139OSM    C5S15072   1.147   2.568   2.541  0.8733 -0.3064  0.1614
  139OSM    H5S15073   1.232   2.555   2.473 -0.9437 -0.4557 -2.2084
  139OSM    C6S15074   1.158   2.504   2.676  0.0289  0.6770 -0.0623
  139OSM    H6S15075   1.256   2.540   2.714  0.8861  0.1512 -1.6591
  139OSM    H6T15076   1.172   2.394   2.676  2.1909  0.8955 -1.2210
  139OSM    C7S15077   1.049   2.534   2.784 -0.2895  0.3983  0.3350
  139OSM    H7S15078   0.957   2.483   2.748 -0.0392  0.9040 -1.0792
  139OSM    H7T15079   1.036   2.644   2.794  0.3289  0.5186 -0.1374
  139OSM    C8S15080   1.091   2.477   2.920 -0.3533  0.5806 -0.4719
  139OSM    H8S15081   1.185   2.531   2.946  0.6240 -0.9907 -0.6068
  139OSM    H8T15082   1.104   2.367   2.915 -1.9410  0.4334 -2.6230
  139OSM    C9S15083   0.986   2.498   3.030 -0.3102 -0.1931  0.5921
  139OSM    H9S15084   0.887   2.467   2.989 -1.2693 -0.3214  2.8401
  139OSM    H9T15085   0.990   2.605   3.057  1.5092 -0.5826  2.0299
  139OSM   C10S15086   0.999   2.409   3.154 -0.5837 -0.5342  0.5673
  139OSM   H10S15087   1.101   2.411   3.197 -0.3044 -1.0174 -0.0606
  139OSM   H10T15088   0.988   2.301   3.134 -0.4692 -0.5389  0.5289
  139OSM   C11S15089   0.907   2.438   3.275 -0.0035 -0.0828 -0.1932
  139OSM   H11S15090   0.801   2.440   3.243 -0.3233 -0.4651  0.7986
  139OSM   H11T15091   0.925   2.541   3.312 -0.8881  0.6317 -1.6579
  139OSM   C12S15092   0.923   2.329   3.385  0.1685  0.5587 -0.0176
  139OSM   H12S15093   0.916   2.227   3.341 -0.0412  1.0762 -1.2397
  139OSM   H12T15094   0.847   2.330   3.466  2.7767  1.0970  2.5717
  139OSM   C13S15095   1.055   2.331   3.463 -0.3671  0.5280  0.6139
  139OSM   H13S15096   1.081   2.439   3.456  2.4191 -0.1610 -0.9300
  139OSM   H13T15097   1.127   2.266   3.409  0.3993  0.9627  1.1037
  139OSM   C14S15098   1.060   2.297   3.610  0.2062  0.8050 -0.3499
  139OSM   H14S15099   0.982   2.350   3.669 -1.3034  1.3081 -2.6637
  139OSM   H14T15100   1.164   2.327   3.634 -0.4562  3.1855 -0.2436
  139OSM   C15S15101   1.038   2.150   3.635 -0.3512  0.6812 -0.0292
  139OSM   H15S15102   1.122   2.094   3.589  1.4274  0.7019  2.9506
  139OSM   H15T15103   0.947   2.122   3.577  0.7825 -1.4495 -0.8844
  139OSM   C16S15104   1.036   2.109   3.779  0.0817 -0.1364  0.3433
  139OSM   H16S15105   1.137   2.132   3.818  0.1675  0.5748 -0.2920
  139OSM   H16T15106   1.038   1.998   3.782 -1.3830 -0.1907  0.2985
  139OSM   C17S15107   0.910   2.147   3.856  0.1363 -0.3321 -0.0133
  139OSM   H17S15108   0.901   2.256   3.874  1.3764 -0.0283 -1.0687
  139OSM   H17T15109   0.907   2.099   3.956  1.3678  0.3078  0.3443
  139OSM   C18S15110   0.777   2.124   3.784 -0.5940 -0.1417 -0.1675
  139OSM   H18S15111   0.686   2.142   3.845 -0.2743  0.2861  0.1939
  139OSM   H18T15112   0.774   2.017   3.757  3.4968  0.1042 -2.3844
  139OSM   H18U15113   0.768   2.192   3.696  0.9247 -0.8332 -0.8905
  139OSM    C1F15114   0.766   2.488   2.268  0.7063 -0.1503 -0.4542
  139OSM     OF15115   0.823   2.429   2.176  0.4728  0.0279 -0.1149
  139OSM    C2F15116   0.637   2.441   2.324  0.5209 -0.2278 -0.4519
  139OSM    H2F15117   0.565   2.525   2.321  2.4596  1.4824 -1.5763
  139OSM    H2G15118   0.658   2.396   2.423 -1.6720 -3.9652 -1.4725
  139OSM    C3F15119   0.567   2.315   2.249 -0.6379 -0.3936  0.1284
  139OSM    H3F15120   0.632   2.229   2.223  0.5452 -0.1465  2.0605
  139OSM    H3G15121   0.530   2.355   2.152  3.4676  0.6836 -1.1771
  139OSM    C4F15122   0.447   2.263   2.326  0.2828  0.7426 -0.0303
  139OSM    H4F15123   0.386   2.188   2.272  0.5209 -0.0980  0.8473
  139OSM    H4G15124   0.386   2.353   2.351  2.7406  2.0075  1.9358
  139OSM    C5F15125   0.477   2.208   2.465  0.3095  0.0755 -0.2065
  139OSM    H5F15126   0.514   2.288   2.533  0.1391  0.9187 -1.0836
  139OSM    H5G15127   0.557   2.132   2.476 -0.3129 -0.4114  1.2095
  139OSM    C6F15128   0.352   2.142   2.523  0.7073 -0.2571  0.1379
  139OSM    H6F15129   0.323   2.058   2.457 -2.4489  0.4499  0.4885
  139OSM    H6G15130   0.274   2.221   2.520  1.6352  0.6629 -0.8057
  139OSM    C7F15131   0.362   2.103   2.665  0.0027  0.1714  0.2834
  139OSM    H7F15132   0.396   2.186   2.731 -0.1873  0.4013  0.0958
  139OSM    H7G15133   0.435   2.019   2.660 -0.0792  0.0505  1.0432
  139OSM    C8F15134   0.229   2.039   2.708  0.5739 -0.9270 -0.5087
  139OSM    H8F15135   0.255   1.990   2.804 -0.4356  1.3384  0.9876
  139OSM    H8G15136   0.199   1.962   2.634  0.4306 -1.6607  0.2982
  139OSM    C9F15137   0.111   2.133   2.723 -0.0926 -0.3392 -0.0393
  139OSM    H9F15138   0.056   2.150   2.629  3.4746  3.3865 -1.7346
  139OSM   C10F15139   0.064   2.198   2.835  0.7477  0.7230 -0.1729
  139OSM   H10F15140  -0.027   2.258   2.822 -0.7816 -1.6296 -1.1231
  139OSM   C11F15141   0.139   2.193   2.962  1.0979 -0.3826 -0.7407
  139OSM   H11F15142   0.159   2.298   2.992 -0.4932 -0.9823  3.0538
  139OSM   H11G15143   0.243   2.154   2.960  1.5710  0.8315 -0.4746
  139OSM   C12F15144   0.057   2.135   3.084  0.0031 -0.8536 -0.7020
  139OSM   H12F15145   0.110   2.160   3.178 -0.0935 -2.8606 -0.0685
  139OSM   H12G15146   0.046   2.025   3.075  0.2280 -0.8960 -0.4567
  139OSM   C13F15147  -0.086   2.191   3.106 -0.6853 -0.2579 -0.2486
  139OSM   H13F15148  -0.156   2.140   3.038 -0.4004 -0.8612 -0.0924
  139OSM   H13G15149  -0.089   2.297   3.072  1.7130  0.0809  0.4284
  139OSM   C14F15150  -0.122   2.200   3.253  0.5040  0.1451  0.2030
  139OSM   H14F15151  -0.226   2.239   3.252  0.0779 -0.9703 -0.6130
  139OSM   H14G15152  -0.064   2.274   3.312 -1.2362  0.9897  0.9202
  139OSM   C15F15153  -0.111   2.063   3.324  0.0601 -0.5213 -0.0345
  139OSM   H15F15154  -0.012   2.014   3.315  1.2440  1.9628 -1.7392
  139OSM   H15G15155  -0.184   1.995   3.274 -0.5483  1.1300 -1.5206
  139OSM   C16F15156  -0.149   2.071   3.471  0.3504 -0.7549  0.6832
  139OSM   H16F15157  -0.182   1.966   3.490  0.7791 -1.2058 -0.9050
  139OSM   H16G15158  -0.229   2.144   3.494  2.1147  1.0215  1.3788
  139OSM   C17F15159  -0.031   2.092   3.569  0.2897  0.8210  0.4133
  139OSM   H17F15160   0.002   2.198   3.566  1.7764  0.4283  1.4927
  139OSM   H17G15161   0.059   2.034   3.537 -1.3703 -2.3589  1.1104
  139OSM   C18F15162  -0.075   2.054   3.711 -0.4649 -0.4558 -0.8213
  139OSM   H18F15163   0.007   2.078   3.782 -0.5631 -2.5777  0.1069
  139OSM   H18G15164  -0.092   1.947   3.738 -1.3199 -0.9485 -3.0843
  139OSM   H18H15165  -0.160   2.111   3.756  2.3582  1.7648  2.1514
  140OSM      N15166   5.406   2.483   1.770  0.0421 -0.1884 -0.3571
  140OSM    C1515167   5.341   2.576   1.869 -0.5259  1.0868  0.2520
  140OSM   H15A15168   5.408   2.648   1.913  0.4884 -0.2951  1.0726
  140OSM   H15B15169   5.312   2.524   1.959  1.7571 -1.8611 -0.5456
  140OSM   H15C15170   5.253   2.622   1.827 -0.7222  0.3180 -0.1977
  140OSM    C1415171   5.306   2.386   1.716  0.0242 -0.2483  0.0259
  140OSM   H14A15172   5.353   2.327   1.639  1.5243 -0.7764  1.2807
  140OSM   H14B15173   5.214   2.432   1.684 -2.7124 -2.8835  3.2684
  140OSM   H14C15174   5.266   2.310   1.782 -1.9826 -0.1446 -0.9998
  140OSM    C1315175   5.454   2.565   1.657 -0.7019 -0.5107 -0.6563
  140OSM   H13A15176   5.514   2.512   1.585 -0.6309  0.2450 -1.1642
  140OSM   H13B15177   5.509   2.652   1.690 -1.1015 -1.0358  1.5667
  140OSM   H13C15178   5.365   2.596   1.603 -0.9285  1.4821  0.7348
  140OSM    C1215179   5.522   2.416   1.838 -0.1577  0.1025 -0.0615
  140OSM   H12A15180   5.596   2.493   1.857 -1.3400  1.1484  0.4632
  140OSM   H12B15181   5.562   2.335   1.779  0.5367 -2.3459  3.4727
  140OSM    C1115182   5.510   2.354   1.977  0.3451 -0.0655 -0.2791
  140OSM   H11A15183   5.418   2.292   1.982 -0.0560  0.4880 -0.7258
  140OSM   H11B15184   5.502   2.432   2.055 -0.9036  1.1565 -1.5668
  140OSM      P15185   5.744   2.316   2.083 -0.4826 -0.5340  0.2526
  140OSM    O1315186   5.841   2.212   2.097 -0.0210 -0.3388 -0.8720
  140OSM    O1415187   5.782   2.438   2.016 -0.3225 -0.3505  0.5618
  140OSM    O1115188   5.684   2.357   2.225 -0.8337 -0.1026 -0.5063
  140OSM    O1215189   5.619   2.260   2.002  0.0162  0.5721 -0.1873
  140OSM    C1S15190   5.708   2.284   2.341 -0.0174  0.8374 -0.4368
  140OSM    H1S15191   5.818   2.280   2.351  0.1317  1.3177 -1.6816
  140OSM    H1T15192   5.666   2.182   2.339 -0.2488  0.8414  1.6099
  140OSM     NF15193   5.714   2.315   2.589 -0.3523 -0.4519  0.1122
  140OSM    HNF15194   5.692   2.236   2.646  1.3249 -0.5045  0.7458
  140OSM    C2S15195   5.641   2.346   2.468 -0.0977  0.1135  0.4373
  140OSM    H2S15196   5.658   2.455   2.455  0.3659  0.0694  0.6615
  140OSM    C3S15197   5.498   2.303   2.461  0.4101 -0.3810  0.8313
  140OSM    H3S15198   5.489   2.194   2.479 -0.8428 -0.7132 -1.4200
  140OSM     O315199   5.435   2.304   2.329 -0.0237  0.5238  0.3729
  140OSM    HO315200   5.505   2.331   2.269  2.2038 -3.3925  0.8873
  140OSM    C4S15201   5.415   2.380   2.561 -0.4693 -0.5955 -0.2265
  140OSM    H4S15202   5.413   2.332   2.660 -0.3330 -1.1720 -0.4971
  140OSM    C5S15203   5.340   2.489   2.542 -0.0924 -0.3239 -0.3346
  140OSM    H5S15204   5.333   2.531   2.441 -0.1998 -1.4666 -0.8224
  140OSM    C6S15205   5.251   2.558   2.649 -0.6447  0.4223 -0.4146
  140OSM    H6S15206   5.147   2.572   2.613 -0.8427  1.4744  0.5163
  140OSM    H6T15207   5.299   2.658   2.659 -0.9675  0.4447  1.2963
  140OSM    C7S15208   5.250   2.481   2.788  0.3162 -0.4216 -0.1832
  140OSM    H7S15209   5.352   2.468   2.831  1.1531  1.1117 -1.5640
  140OSM    H7T15210   5.201   2.382   2.775  0.2637 -0.3960 -0.1810
  140OSM    C8S15211   5.144   2.546   2.887 -0.6727 -0.9967  0.9200
  140OSM    H8S15212   5.049   2.568   2.834  0.5159 -1.9147 -1.7436
  140OSM    H8T15213   5.191   2.641   2.920  1.4090 -1.6092 -0.1438
  140OSM    C9S15214   5.123   2.462   3.015 -0.1178  0.2622  0.2119
  140OSM    H9S15215   5.214   2.417   3.062  0.7996  0.3535 -1.4199
  140OSM    H9T15216   5.057   2.374   2.996 -0.8434  0.6233  0.9872
  140OSM   C10S15217   5.039   2.555   3.113 -0.2812 -0.1850 -0.0681
  140OSM   H10S15218   4.941   2.575   3.065 -1.0124  1.6501  2.0461
  140OSM   H10T15219   5.098   2.649   3.120 -0.7064 -0.0345  2.3213
  140OSM   C11S15220   5.011   2.493   3.246  0.1702 -0.3707  0.1896
  140OSM   H11S15221   5.103   2.439   3.277  1.8651  1.9948 -0.4037
  140OSM   H11T15222   4.928   2.420   3.249 -0.5716  0.4074 -0.9172
  140OSM   C12S15223   4.955   2.593   3.352 -0.5469  1.0926  0.7999
  140OSM   H12S15224   4.945   2.538   3.448  0.8635  0.0387  0.3898
  140OSM   H12T15225   4.853   2.626   3.323 -0.6011  1.0912  0.9912
  140OSM   C13S15226   5.055   2.706   3.373 -0.3472  0.3410 -0.1915
  140OSM   H13S15227   5.062   2.772   3.284  2.0686 -0.6616 -0.8353
  140OSM   H13T15228   5.155   2.658   3.385 -0.8652 -0.4278  1.3047
  140OSM   C14S15229   5.033   2.776   3.510 -0.4327 -0.3884  0.6097
  140OSM   H14S15230   5.109   2.856   3.524 -0.2144 -0.6851  1.1785
  140OSM   H14T15231   5.065   2.695   3.579  1.1957 -0.0659  0.2752
  140OSM   C15S15232   4.907   2.851   3.521  0.5545  0.3168 -0.4467
  140OSM   H15S15233   4.827   2.782   3.489 -0.1357  0.6913  0.4247
  140OSM   H15T15234   4.899   2.927   3.441 -0.5444 -1.4059 -2.0473
  140OSM   C16S15235   4.900   2.914   3.662 -0.0437  0.4275  0.5471
  140OSM   H16S15236   4.985   2.980   3.689 -1.7481  1.8278  2.9293
  140OSM   H16T15237   4.905   2.828   3.732 -1.9516 -0.1517  0.0384
  140OSM   C17S15238   4.768   2.986   3.675 -0.2800  0.0571 -0.1420
  140OSM   H17S15239   4.761   3.064   3.596 -0.1049  2.5749  2.1727
  140OSM   H17T15240   4.764   3.048   3.767 -0.2768  1.5770 -1.1251
  140OSM   C18S15241   4.646   2.899   3.673  0.0064 -0.1060  0.6021
  140OSM   H18S15242   4.565   2.957   3.722  0.2849  0.6697  0.1668
  140OSM   H18T15243   4.662   2.805   3.729  0.0307  1.0888  2.6874
  140OSM   H18U15244   4.618   2.867   3.570  0.0864  1.4802  0.0591
  140OSM    C1F15245   5.836   2.367   2.610  0.6243  0.2148 -0.4762
  140OSM     OF15246   5.899   2.429   2.526 -0.1194  0.4775 -0.1140
  140OSM    C2F15247   5.901   2.347   2.746  0.3302 -0.0057  0.2674
  140OSM    H2F15248   5.992   2.286   2.728  0.8156  1.5302 -3.4015
  140OSM    H2G15249   5.835   2.283   2.807  0.6151 -0.0802  0.5020
  140OSM    C3F15250   5.924   2.489   2.815 -0.4355 -0.2173 -0.3395
  140OSM    H3F15251   6.006   2.542   2.763 -2.6173  2.2849 -1.4516
  140OSM    H3G15252   5.965   2.460   2.914 -0.6889 -1.9190 -0.6841
  140OSM    C4F15253   5.804   2.595   2.824  0.2961  0.0635 -0.4879
  140OSM    H4F15254   5.782   2.646   2.729  1.1532 -0.5166 -1.0141
  140OSM    H4G15255   5.852   2.659   2.902  1.2677 -2.1308  0.8514
  140OSM    C5F15256   5.691   2.533   2.900 -0.3266 -0.1529  0.5839
  140OSM    H5F15257   5.731   2.483   2.990 -0.4441  1.1527  1.3941
  140OSM    H5G15258   5.636   2.463   2.834  0.4219 -0.8793  0.7185
  140OSM    C6F15259   5.592   2.635   2.949 -0.4104 -0.4589  0.0334
  140OSM    H6F15260   5.496   2.584   2.973 -1.7787 -0.1088 -3.8880
  140OSM    H6G15261   5.580   2.704   2.863 -0.3567 -0.0882  0.3196
  140OSM    C7F15262   5.642   2.717   3.072 -0.1554 -0.0534 -0.1956
  140OSM    H7F15263   5.728   2.776   3.036 -2.6112  3.3046 -1.0923
  140OSM    H7G15264   5.680   2.652   3.154  0.9712  1.6578  0.7028
  140OSM    C8F15265   5.537   2.820   3.129 -0.1951  0.5212  0.5065
  140OSM    H8F15266   5.447   2.763   3.158 -0.8228  0.4768 -1.3716
  140OSM    H8G15267   5.514   2.887   3.043 -0.0441  0.6128  0.5358
  140OSM    C9F15268   5.599   2.898   3.242  0.1055 -0.6843  0.3194
  140OSM    H9F15269   5.690   2.959   3.230 -1.5361  1.4678 -2.2721
  140OSM   C10F15270   5.543   2.911   3.364 -1.0494  0.3918  0.0488
  140OSM   H10F15271   5.598   2.960   3.446 -1.6705  1.0305  0.0894
  140OSM   C11F15272   5.424   2.841   3.420  0.5605 -0.5014 -0.7539
  140OSM   H11F15273   5.401   2.749   3.361 -3.1857  0.2063 -0.6070
  140OSM   H11G15274   5.330   2.895   3.397 -0.7145 -1.8651  0.9200
  140OSM   C12F15275   5.420   2.818   3.576  0.2444  0.5080 -0.0968
  140OSM   H12F15276   5.321   2.777   3.605  0.4223  1.2671  1.7771
  140OSM   H12G15277   5.419   2.916   3.628 -4.8089  0.7049 -0.1106
  140OSM   C13F15278   5.532   2.724   3.626 -0.4218 -0.1507 -0.1621
  140OSM   H13F15279   5.634   2.767   3.615  0.2397 -0.0648  4.5181
  140OSM   H13G15280   5.536   2.625   3.574 -1.1492 -1.2300  1.7525
  140OSM   C14F15281   5.536   2.701   3.784 -0.4025  0.0460  0.1077
  140OSM   H14F15282   5.444   2.641   3.799 -0.8027  0.5537 -0.2668
  140OSM   H14G15283   5.536   2.806   3.819  0.1882  0.2696 -0.5263
  140OSM   C15F15284   5.662   2.621   3.822 -0.1676  0.0142  0.6280
  140OSM   H15F15285   5.754   2.674   3.791  0.5740 -0.2482  2.2796
  140OSM   H15G15286   5.656   2.526   3.766  1.4415  1.2198 -1.7195
  140OSM   C16F15287   5.671   2.604   3.977  0.7096  0.7172  0.1231
  140OSM   H16F15288   5.584   2.537   3.993  0.4662  0.8811 -0.5147
  140OSM   H16G15289   5.642   2.691   4.039  1.6632  1.5919 -0.6128
  140OSM   C17F15290   5.804   2.541   4.023 -0.5667 -0.5868  0.4451
  140OSM   H17F15291   5.888   2.613   4.012 -0.0144 -0.9454  1.9770
  140OSM   H17G15292   5.834   2.451   3.965  0.9298  0.3999 -0.3783
  140OSM   C18F15293   5.812   2.514   4.174  0.3815  0.2045  0.6363
  140OSM   H18F15294   5.909   2.475   4.212 -1.1212 -1.7264  2.7586
  140OSM   H18G15295   5.724   2.454   4.205  0.9967 -0.8765  0.3698
  140OSM   H18H15296   5.808   2.610   4.229 -1.3799  0.5831 -0.0877
  141OSM      N15297   1.888   5.062   1.872  1.3094 -0.7833  0.2188
  141OSM    C1515298   1.961   4.969   1.967  0.7872 -0.0034 -0.2149
  141OSM   H15A15299   2.029   4.907   1.911 -1.6905 -0.7167 -2.6623
  141OSM   H15B15300   1.893   4.901   2.016  0.8820  0.8444  1.1578
  141OSM   H15C15301   2.000   5.027   2.049 -1.5500  1.9168 -0.3409
  141OSM    C1415302   1.972   5.114   1.761  0.3342 -0.1337  0.1288
  141OSM   H14A15303   2.059   5.173   1.787 -1.2916  1.9017  1.2759
  141OSM   H14B15304   1.913   5.183   1.703 -2.7981 -1.1683  1.8375
  141OSM   H14C15305   2.008   5.035   1.697  1.5232  0.8763 -0.4904
  141OSM    C1315306   1.771   4.984   1.816 -0.6601  0.1793 -0.5435
  141OSM   H13A15307   1.716   5.049   1.751  1.2472  0.7638 -1.6509
  141OSM   H13B15308   1.710   4.936   1.892 -1.7242 -1.6399 -2.4316
  141OSM   H13C15309   1.813   4.902   1.760  1.4218 -1.2873  2.7964
  141OSM    C1215310   1.835   5.174   1.954  0.0551 -0.3262 -0.5203
  141OSM   H12A15311   1.923   5.231   1.980 -0.4621 -0.4975  1.8075
  141OSM   H12B15312   1.781   5.138   2.041  1.0097 -2.3377 -0.7008
  141OSM    C1115313   1.740   5.281   1.898 -0.4084  0.2328  0.1779
  141OSM   H11A15314   1.783   5.327   1.806  0.8736  1.4757  1.3640
  141OSM   H11B15315   1.741   5.371   1.964  0.8608  1.0090 -0.8472
  141OSM      P15316   1.521   5.175   1.998  0.6226 -0.0220 -0.4294
  141OSM    O1315317   1.399   5.254   2.022  0.7480  0.2555 -0.0526
  141OSM    O1415318   1.503   5.032   1.977  0.0169  0.6840  0.0484
  141OSM    O1115319   1.613   5.193   2.127 -0.9923 -0.4877 -0.1184
  141OSM    O1215320   1.610   5.230   1.873 -0.1675 -0.3806 -0.3139
  141OSM    C1S15321   1.602   5.115   2.249 -0.1927 -0.4844 -0.5709
  141OSM    H1S15322   1.670   5.028   2.250 -0.0084 -0.3470 -0.9405
  141OSM    H1T15323   1.500   5.074   2.260 -0.5750  0.6200  0.2795
  141OSM     NF15324   1.616   5.096   2.500 -0.2533 -0.1751  0.2627
  141OSM    HNF15325   1.539   5.120   2.559  1.2321  2.6592  1.2388
  141OSM    C2S15326   1.629   5.188   2.389  0.0647 -0.2465 -0.1941
  141OSM    H2S15327   1.732   5.228   2.381  0.2442 -0.4504  0.9358
  141OSM    C3S15328   1.537   5.322   2.394 -0.0756 -0.6453  0.3756
  141OSM    H3S15329   1.428   5.297   2.400 -0.8652  1.6928 -2.1755
  141OSM     O315330   1.533   5.415   2.282  0.3565  0.4020 -0.1103
  141OSM    HO315331   1.573   5.367   2.210  2.4474  0.7659  0.7352
  141OSM    C4S15332   1.556   5.397   2.527  0.2732 -0.3922 -0.5196
  141OSM    H4S15333   1.510   5.339   2.608 -0.3870  1.7602  0.7418
  141OSM    C5S15334   1.620   5.507   2.548 -0.6625  0.1876 -0.0092
  141OSM    H5S15335   1.675   5.567   2.474 -1.4782  1.8516  0.6726
  141OSM    C6S15336   1.645   5.565   2.685 -0.0913 -0.2571  0.4905
  141OSM    H6S15337   1.561   5.630   2.720 -0.5470 -1.5620  1.9016
  141OSM    H6T15338   1.741   5.621   2.686  0.3496 -0.9405 -1.1016
  141OSM    C7S15339   1.672   5.457   2.788  0.4312 -0.5637  0.4730
  141OSM    H7S15340   1.743   5.382   2.749  0.5195  0.2282 -0.9462
  141OSM    H7T15341   1.579   5.399   2.805 -0.0240  0.4707  1.7401
  141OSM    C8S15342   1.704   5.502   2.927 -1.3210  0.6743 -0.3349
  141OSM    H8S15343   1.646   5.589   2.963  0.4324  0.9165  2.1890
  141OSM    H8T15344   1.808   5.538   2.910 -1.1900  0.2444 -0.4614
  141OSM    C9S15345   1.717   5.392   3.040  0.0052 -0.6180 -0.5029
  141OSM    H9S15346   1.815   5.341   3.026  0.0035 -0.7492 -0.0672
  141OSM    H9T15347   1.636   5.319   3.021 -0.0318 -1.2920  1.9477
  141OSM   C10S15348   1.713   5.451   3.185  0.2073 -0.0072  0.6774
  141OSM   H10S15349   1.619   5.509   3.191  0.0778 -0.1260 -0.0632
  141OSM   H10T15350   1.794   5.528   3.190  1.1691 -0.5724 -3.0571
  141OSM   C11S15351   1.715   5.344   3.294 -0.1440  0.1793 -0.1268
  141OSM   H11S15352   1.783   5.259   3.272  0.6649  1.1742 -1.6736
  141OSM   H11T15353   1.614   5.298   3.290 -0.5303  0.7804  1.8019
  141OSM   C12S15354   1.737   5.398   3.438 -0.2019 -0.3380 -0.2727
  141OSM   H12S15355   1.703   5.504   3.441  1.1505  0.1438 -0.8234
  141OSM   H12T15356   1.843   5.402   3.471  0.9773 -0.5766 -3.6156
  141OSM   C13S15357   1.662   5.324   3.553  1.1789  0.0318 -0.0619
  141OSM   H13S15358   1.709   5.227   3.578 -0.0240 -1.0146 -1.6884
  141OSM   H13T15359   1.557   5.316   3.519  1.4969  0.4911 -1.2132
  141OSM   C14S15360   1.672   5.392   3.690  0.2659  0.4793 -0.3204
  141OSM   H14S15361   1.599   5.347   3.761  1.2802 -1.5087 -0.4899
  141OSM   H14T15362   1.634   5.495   3.671  1.0609  0.8572  0.0941
  141OSM   C15S15363   1.817   5.399   3.750 -0.4030 -0.5607 -0.4880
  141OSM   H15S15364   1.866   5.475   3.686  1.6839 -0.4170  1.1772
  141OSM   H15T15365   1.879   5.307   3.753 -0.3283 -0.4940  0.4187
  141OSM   C16S15366   1.804   5.463   3.894 -0.1067 -0.8617  0.2838
  141OSM   H16S15367   1.745   5.391   3.955 -1.3844  1.5082  1.9942
  141OSM   H16T15368   1.755   5.562   3.880 -0.6666 -1.2618 -0.7295
  141OSM   C17S15369   1.929   5.492   3.974  0.0701 -0.0276 -0.0179
  141OSM   H17S15370   2.009   5.542   3.915  0.1212 -0.1568 -0.0588
  141OSM   H17T15371   1.981   5.397   3.997 -1.2382 -0.7611 -0.0296
  141OSM   C18S15372   1.926   5.577   4.104 -0.2650  0.4495 -0.0027
  141OSM   H18S15373   2.017   5.575   4.167  0.6113 -0.2196 -1.2653
  141OSM   H18T15374   1.834   5.548   4.160  0.1723  1.1067  1.0939
  141OSM   H18U15375   1.920   5.682   4.067 -0.1118 -0.6457 -3.5217
  141OSM    C1F15376   1.702   4.996   2.528 -0.4067 -0.1361 -0.0996
  141OSM     OF15377   1.795   4.972   2.456 -0.7855 -0.4263 -0.1513
  141OSM    C2F15378   1.672   4.925   2.657 -0.4541  0.6195 -0.0134
  141OSM    H2F15379   1.605   4.840   2.629 -2.1386  0.4351  3.8213
  141OSM    H2G15380   1.622   4.989   2.733  0.2384 -0.0734  1.0505
  141OSM    C3F15381   1.799   4.877   2.725 -0.1288  0.0300 -0.0429
  141OSM    H3F15382   1.860   4.823   2.649  1.0909  2.8493 -1.2240
  141OSM    H3G15383   1.776   4.792   2.792  0.4544 -2.3772 -2.7075
  141OSM    C4F15384   1.881   4.985   2.792 -0.1727  0.1404  1.0170
  141OSM    H4F15385   1.917   5.056   2.716 -0.5273  2.2896  2.7648
  141OSM    H4G15386   1.959   4.918   2.834  1.0756 -2.1283 -4.1132
  141OSM    C5F15387   1.810   5.059   2.907 -0.4650 -0.0367 -0.3001
  141OSM    H5F15388   1.715   5.109   2.877 -1.2552 -0.0921  1.9627
  141OSM    H5G15389   1.878   5.141   2.935 -0.5311  1.0067 -2.8879
  141OSM    C6F15390   1.768   4.980   3.036 -0.5424  0.2021 -0.5641
  141OSM    H6F15391   1.684   4.912   3.013 -0.1104 -0.0712 -1.3933
  141OSM    H6G15392   1.729   5.055   3.108 -0.3137  1.0818 -1.3336
  141OSM    C7F15393   1.874   4.891   3.095 -0.6416  0.6972  0.4654
  141OSM    H7F15394   1.968   4.947   3.079  0.0566 -1.0563 -2.2498
  141OSM    H7G15395   1.891   4.797   3.039 -3.3431  1.0193 -1.1024
  141OSM    C8F15396   1.845   4.861   3.238 -0.3156 -0.0215 -0.3539
  141OSM    H8F15397   1.750   4.803   3.239 -1.9766  2.4565 -2.2098
  141OSM    H8G15398   1.818   4.959   3.284  2.6585  0.7306 -0.0390
  141OSM    C9F15399   1.951   4.768   3.305 -0.0743 -0.0478  0.2747
  141OSM    H9F15400   2.002   4.700   3.236  0.0431 -1.1196  1.3808
  141OSM   C10F15401   1.969   4.768   3.438  0.2729 -0.5234  0.0113
  141OSM   H10F15402   2.056   4.712   3.475  1.5477 -0.6377 -2.8759
  141OSM   C11F15403   1.905   4.861   3.544  0.0585 -0.0769  0.0661
  141OSM   H11F15404   1.836   4.812   3.617  0.1876 -1.2913 -0.6062
  141OSM   H11G15405   1.835   4.937   3.504 -1.1630 -2.0906 -1.8475
  141OSM   C12F15406   2.023   4.937   3.624 -0.6805 -0.2357  0.0382
  141OSM   H12F15407   2.093   4.977   3.547  0.6367 -1.2612  0.6530
  141OSM   H12G15408   2.089   4.876   3.690 -0.0223  0.5131  0.0925
  141OSM   C13F15409   1.969   5.055   3.705 -0.2619 -0.7769 -0.0342
  141OSM   H13F15410   1.903   5.124   3.647 -0.1937  0.2188  1.0237
  141OSM   H13G15411   2.058   5.111   3.741  0.4588 -0.5179 -2.1189
  141OSM   C14F15412   1.893   4.996   3.823  0.4840  0.4123 -0.4543
  141OSM   H14F15413   1.966   4.924   3.866 -0.2195 -0.5379 -0.8214
  141OSM   H14G15414   1.803   4.938   3.794  1.0663 -0.1450 -1.1691
  141OSM   C15F15415   1.850   5.105   3.926 -0.3677  0.1154  0.2540
  141OSM   H15F15416   1.763   5.156   3.881  0.8144  0.5785 -1.6076
  141OSM   H15G15417   1.937   5.172   3.944 -0.9152  0.5570  1.3933
  141OSM   C16F15418   1.809   5.044   4.068 -0.2407 -0.7591 -0.2930
  141OSM   H16F15419   1.901   5.004   4.117  0.1647  0.6390  0.1385
  141OSM   H16G15420   1.726   4.972   4.054  0.9602 -2.1396 -0.6055
  141OSM   C17F15421   1.773   5.169   4.150  0.3942  0.0914  0.0538
  141OSM   H17F15422   1.676   5.203   4.107  0.1238  1.2993  1.5229
  141OSM   H17G15423   1.865   5.232   4.143 -0.1647  0.8047 -1.1477
  141OSM   C18F15424   1.754   5.141   4.302  0.9786  0.3493 -0.0588
  141OSM   H18F15425   1.851   5.109   4.348  1.9090  1.6195 -1.0669
  141OSM   H18G15426   1.676   5.064   4.323  0.2368  1.3168  0.8110
  141OSM   H18H15427   1.710   5.229   4.354 -0.9624  0.6589 -2.1089
  142OSM      N15428   1.493   0.866   2.501 -0.0510 -0.3453 -0.3106
  142OSM    C1515429   1.383   0.904   2.595  0.4903  0.0784  0.6415
  142OSM   H15A15430   1.395   0.873   2.698  0.1092 -1.0726  0.3554
  142OSM   H15B15431   1.294   0.855   2.559  0.6961  1.1461 -1.4592
  142OSM   H15C15432   1.380   1.012   2.594  2.7429  0.4037 -4.8469
  142OSM    C1415433   1.460   0.909   2.362 -0.4669 -0.4751  0.0488
  142OSM   H14A15434   1.443   1.015   2.364  2.0324 -0.0382  0.8722
  142OSM   H14B15435   1.369   0.861   2.327 -0.9082  0.1733  0.2801
  142OSM   H14C15436   1.541   0.883   2.295  1.1863  1.3784  1.2201
  142OSM    C1315437   1.613   0.941   2.553  0.0289 -0.6645  0.3243
  142OSM   H13A15438   1.691   0.941   2.477  0.3556  0.8076  0.6207
  142OSM   H13B15439   1.655   0.910   2.647 -0.0992  1.0914  1.0044
  142OSM   H13C15440   1.598   1.048   2.561  0.9058 -0.3759 -1.4251
  142OSM    C1215441   1.514   0.717   2.503 -0.8467 -0.0645  0.1580
  142OSM   H12A15442   1.593   0.703   2.431 -2.0625  1.7552 -1.6644
  142OSM   H12B15443   1.432   0.664   2.457 -0.5578  0.0515 -0.5039
  142OSM    C1115444   1.556   0.644   2.630 -0.1823  0.9069  0.8264
  142OSM   H11A15445   1.579   0.538   2.605  0.9526  1.4435 -0.5465
  142OSM   H11B15446   1.473   0.642   2.704 -2.1196  0.6788 -1.2381
  142OSM      P15447   1.817   0.672   2.654 -0.0609  0.1155  0.4955
  142OSM    O1315448   1.826   0.626   2.513 -0.4654 -0.1408 -0.3730
  142OSM    O1415449   1.902   0.786   2.697 -0.6266 -0.8294 -0.3295
  142OSM    O1115450   1.850   0.550   2.744  0.6253 -0.2107  0.5132
  142OSM    O1215451   1.670   0.696   2.699 -0.0193  0.4943  0.2971
  142OSM    C1S15452   1.827   0.545   2.885  0.2334  0.4431 -0.0891
  142OSM    H1S15453   1.737   0.603   2.916 -0.3291  0.1280 -1.1029
  142OSM    H1T15454   1.908   0.599   2.939 -1.5241  1.8754  1.2621
  142OSM     NF15455   1.784   0.394   3.074 -0.0183 -0.7282  0.2238
  142OSM    HNF15456   1.858   0.385   3.141 -0.5486  0.2733  0.9597
  142OSM    C2S15457   1.820   0.396   2.931 -0.3333  0.8653 -0.5967
  142OSM    H2S15458   1.747   0.337   2.872  1.7553  0.0924 -2.5520
  142OSM    C3S15459   1.958   0.314   2.915  0.0665 -0.1077  0.3977
  142OSM    H3S15460   2.037   0.359   2.979 -0.4243 -1.6159  2.1306
  142OSM     O315461   2.016   0.317   2.784  0.4762  0.7535 -0.0347
  142OSM    HO315462   1.965   0.384   2.737  1.3705  0.1541 -1.9766
  142OSM    C4S15463   1.961   0.174   2.977  0.6805  0.9833 -0.3709
  142OSM    H4S15464   1.941   0.180   3.085  1.3677  1.4752 -0.2645
  142OSM    C5S15465   1.999   0.050   2.940  0.3488 -0.1486 -0.2036
  142OSM    H5S15466   2.056   0.050   2.846 -0.0974  1.4281 -0.5082
  142OSM    C6S15467   1.976  -0.078   3.016 -0.6675  0.8286  0.4036
  142OSM    H6S15468   2.081  -0.104   3.042 -0.0037  2.3060 -0.6179
  142OSM    H6T15469   1.939  -0.155   2.945 -1.8929  1.0908  0.7325
  142OSM    C7S15470   1.893  -0.068   3.134 -0.3500 -0.6581  0.0198
  142OSM    H7S15471   1.801  -0.006   3.124 -0.5929 -0.8316  1.0858
  142OSM    H7T15472   1.953  -0.021   3.214 -0.5440  1.4579 -1.0041
  142OSM    C8S15473   1.862  -0.203   3.187  0.2240  0.3932 -1.0455
  142OSM    H8S15474   1.957  -0.257   3.210 -0.0672 -0.3223 -1.4783
  142OSM    H8T15475   1.816  -0.250   3.098 -1.4803  0.1849 -0.0994
  142OSM    C9S15476   1.758  -0.214   3.295 -0.6860  0.0336  0.7540
  142OSM    H9S15477   1.733  -0.321   3.308 -0.4870  0.0630  1.4428
  142OSM    H9T15478   1.667  -0.154   3.277 -1.0666 -0.5864  0.6040
  142OSM   C10S15479   1.812  -0.167   3.438  0.4627  0.3372  0.6934
  142OSM   H10S15480   1.807  -0.056   3.437  1.7331  0.4577  2.4343
  142OSM   H10T15481   1.916  -0.204   3.445  1.1834  2.3289  1.1116
  142OSM   C11S15482   1.735  -0.244   3.542 -0.2477 -0.2580  0.6335
  142OSM   H11S15483   1.743  -0.353   3.521 -1.6180 -0.6954  2.2172
  142OSM   H11T15484   1.627  -0.221   3.538 -0.3544 -0.8039  0.2892
  142OSM   C12S15485   1.775  -0.224   3.688  0.9630  0.8015 -0.4191
  142OSM   H12S15486   1.777  -0.115   3.711  0.7140  0.6987  0.0947
  142OSM   H12T15487   1.873  -0.272   3.710 -0.0234 -0.0483  2.5266
  142OSM   C13S15488   1.663  -0.277   3.787 -0.5742 -0.3659 -0.2840
  142OSM   H13S15489   1.666  -0.388   3.780 -0.3977 -0.3974  0.2235
  142OSM   H13T15490   1.562  -0.255   3.748 -1.3324 -0.8746  1.3035
  142OSM   C14S15491   1.689  -0.256   3.939 -0.6358  0.4165  0.5195
  142OSM   H14S15492   1.723  -0.151   3.956 -1.8848  1.2021 -1.4677
  142OSM   H14T15493   1.775  -0.322   3.964  0.2315  1.1606 -0.4143
  142OSM   C15S15494   1.574  -0.293   4.030 -0.4421 -0.7738  0.4652
  142OSM   H15S15495   1.501  -0.356   3.974  0.8915 -2.0132  0.0724
  142OSM   H15T15496   1.513  -0.202   4.051  0.5101 -0.1241  0.4469
  142OSM   C16S15497   1.622  -0.361   4.156 -0.3279  0.2989  0.1593
  142OSM   H16S15498   1.663  -0.461   4.131 -0.7111 -0.3801  2.0823
  142OSM   H16T15499   1.533  -0.383   4.218  0.1667 -1.5502  0.2626
  142OSM   C17S15500   1.720  -0.285   4.242  0.3301 -0.4295 -0.1543
  142OSM   H17S15501   1.823  -0.272   4.202  0.8961 -0.1872  1.3157
  142OSM   H17T15502   1.744  -0.333   4.339 -0.3544 -0.6362 -0.0845
  142OSM   C18S15503   1.675  -0.144   4.286  0.7055  0.3061 -0.7200
  142OSM   H18S15504   1.670  -0.078   4.197  0.3607 -0.7942 -1.5464
  142OSM   H18T15505   1.742  -0.098   4.363 -0.5061 -1.0232  1.2193
  142OSM   H18U15506   1.573  -0.137   4.329  1.7898 -0.5023  2.2457
  142OSM    C1F15507   1.665   0.429   3.112 -0.4719  0.1385 -0.8459
  142OSM     OF15508   1.572   0.413   3.036  0.2091  0.1339  0.3899
  142OSM    C2F15509   1.649   0.485   3.254 -0.0808 -0.2537 -0.3474
  142OSM    H2F15510   1.710   0.577   3.241  0.3230 -0.4401  0.2134
  142OSM    H2G15511   1.694   0.421   3.332 -1.6925 -0.6790  0.2722
  142OSM    C3F15512   1.509   0.525   3.288  0.6653 -0.1723 -0.2205
  142OSM    H3F15513   1.445   0.435   3.301  0.2874  0.2028  0.6340
  142OSM    H3G15514   1.463   0.597   3.217 -2.4249  0.1750  1.8912
  142OSM    C4F15515   1.505   0.603   3.425 -0.1042 -0.1771  0.5356
  142OSM    H4F15516   1.396   0.621   3.442 -0.4000 -1.1491 -0.2240
  142OSM    H4G15517   1.561   0.699   3.423  1.1054 -0.8349  1.8150
  142OSM    C5F15518   1.569   0.526   3.542 -0.0488 -0.8991 -0.0382
  142OSM    H5F15519   1.677   0.520   3.517  0.3849  1.1770  1.0766
  142OSM    H5G15520   1.520   0.427   3.549 -0.3852 -0.9495 -2.5410
  142OSM    C6F15521   1.561   0.598   3.674  0.5166 -0.1237  1.2492
  142OSM    H6F15522   1.495   0.685   3.654 -1.1951 -2.0139 -2.5207
  142OSM    H6G15523   1.661   0.627   3.713  0.3162  0.7895  1.0868
  142OSM    C7F15524   1.493   0.513   3.786 -0.4895 -0.0783 -0.0577
  142OSM    H7F15525   1.548   0.417   3.779  0.8181  0.7427 -1.3870
  142OSM    H7G15526   1.388   0.491   3.758  0.0299 -0.5311 -1.7034
  142OSM    C8F15527   1.496   0.583   3.921  0.1965  0.2852 -0.0680
  142OSM    H8F15528   1.430   0.531   3.993  1.9103 -1.4758  0.3180
  142OSM    H8G15529   1.461   0.688   3.910 -1.8095 -0.2633  0.6623
  142OSM    C9F15530   1.638   0.594   3.971  0.1566 -0.9593 -0.0529
  142OSM    H9F15531   1.700   0.668   3.917 -0.4644 -2.0530 -2.3388
  142OSM   C10F15532   1.694   0.543   4.080  0.0110 -0.6926 -0.1464
  142OSM   H10F15533   1.802   0.563   4.087 -0.3610  1.5889 -0.3714
  142OSM   C11F15534   1.641   0.440   4.179  1.1070  0.6672 -0.3969
  142OSM   H11F15535   1.698   0.347   4.160 -0.9563 -0.6958 -0.2839
  142OSM   H11G15536   1.534   0.411   4.168  0.4721  2.5335  0.4436
  142OSM   C12F15537   1.647   0.473   4.325 -0.1274  0.2860  0.3793
  142OSM   H12F15538   1.598   0.570   4.347 -2.6044 -0.5120 -1.2291
  142OSM   H12G15539   1.754   0.491   4.350  0.1854  0.1116 -0.7780
  142OSM   C13F15540   1.595   0.358   4.416 -0.4690 -0.4694  0.4602
  142OSM   H13F15541   1.486   0.347   4.398 -0.3054 -2.2281  0.3114
  142OSM   H13G15542   1.606   0.401   4.518 -0.8268  1.0487 -0.1224
  142OSM   C14F15543   1.674   0.229   4.403 -0.0624  0.5532 -0.1123
  142OSM   H14F15544   1.784   0.246   4.406  0.1889  0.0061 -3.0434
  142OSM   H14G15545   1.640   0.170   4.315  1.7915 -0.8464  0.0498
  142OSM   C15F15546   1.642   0.141   4.534  0.8466  0.5439  0.3939
  142OSM   H15F15547   1.696   0.161   4.628  1.2689  0.8200  0.0936
  142OSM   H15G15548   1.655   0.033   4.510 -2.1827  0.0178  0.6542
  142OSM   C16F15549   1.494   0.154   4.588 -0.4563 -0.4857  0.3818
  142OSM   H16F15550   1.413   0.148   4.513 -0.8901  1.1399  0.6797
  142OSM   H16G15551   1.486   0.254   4.635  2.8213  0.3427 -0.5720
  142OSM   C17F15552   1.478   0.051   4.699  0.2153  0.1197  1.2587
  142OSM   H17F15553   1.576   0.026   4.746  0.0365 -3.5432  0.0100
  142OSM   H17G15554   1.443  -0.037   4.641 -2.1397  0.4192  2.1060
  142OSM   C18F15555   1.384   0.087   4.810 -0.0422  0.0962 -0.1215
  142OSM   H18F15556   1.417   0.184   4.854  2.2207 -0.7612  0.2315
  142OSM   H18G15557   1.390   0.012   4.891 -2.5253  1.1610  1.1277
  142OSM   H18H15558   1.278   0.094   4.778 -0.0494 -2.7908 -1.0361
  143OSM      N15559   1.430   6.082   2.082 -0.0193 -1.1209  0.1085
  143OSM    C1515560   1.333   5.981   2.132  0.2386 -0.3613  0.4698
  143OSM   H15A15561   1.242   6.021   2.174  0.7696 -0.2619  1.5515
  143OSM   H15B15562   1.379   5.909   2.199 -1.6165 -0.9180  1.2226
  143OSM   H15C15563   1.299   5.925   2.046 -0.2842  0.1964  0.3046
  143OSM    C1415564   1.517   6.004   1.986  0.1992  0.2248 -0.2606
  143OSM   H14A15565   1.455   5.973   1.903 -0.1733  1.3265 -0.4108
  143OSM   H14B15566   1.571   5.921   2.030 -0.7156 -1.0202 -1.4120
  143OSM   H14C15567   1.589   6.081   1.962  1.3292 -0.3170  1.2322
  143OSM    C1315568   1.356   6.198   2.021  0.9460 -0.4197 -0.4010
  143OSM   H13A15569   1.318   6.167   1.925 -0.4869 -1.1242  0.3623
  143OSM   H13B15570   1.402   6.295   2.011  1.5188 -0.8263 -2.0140
  143OSM   H13C15571   1.264   6.208   2.078  0.6855 -2.0842 -0.4561
  143OSM    C1215572   1.523   6.136   2.197  0.8030 -0.5834  0.0249
  143OSM   H12A15573   1.457   6.191   2.262  0.5748 -1.2601  0.3775
  143OSM   H12B15574   1.583   6.215   2.155 -0.3633  0.3529  0.0947
  143OSM    C1115575   1.623   6.048   2.270  0.0888  0.0024 -0.2913
  143OSM   H11A15576   1.568   5.951   2.277 -1.0085  0.7046  1.4891
  143OSM   H11B15577   1.651   6.089   2.370  2.7322 -0.2948 -0.8299
  143OSM      P15578   1.838   6.144   2.157 -0.1346  0.1174  0.2509
  143OSM    O1315579   1.957   6.097   2.081 -0.2648  0.1441  0.5546
  143OSM    O1415580   1.766   6.258   2.100  0.0150  0.7763  0.1120
  143OSM    O1115581   1.884   6.178   2.310  0.3075 -0.1574  0.0414
  143OSM    O1215582   1.735   6.021   2.182  0.0630 -0.1563 -0.4674
  143OSM    C1S15583   1.837   6.294   2.377  0.0785  0.3019  0.5817
  143OSM    H1S15584   1.727   6.288   2.389  0.3129 -1.1682  2.3755
  143OSM    H1T15585   1.872   6.376   2.310  0.3822  0.2964  0.7300
  143OSM     NF15586   1.851   6.387   2.604  0.0606 -0.6029  0.0082
  143OSM    HNF15587   1.906   6.468   2.623  1.4776 -1.3397 -0.7705
  143OSM    C2S15588   1.915   6.297   2.513 -0.2824 -0.2050  0.0656
  143OSM    H2S15589   1.896   6.195   2.553 -1.2630  0.6118  1.7702
  143OSM    C3S15590   2.074   6.302   2.509 -0.3426 -0.1351  0.6026
  143OSM    H3S15591   2.089   6.400   2.457  0.0231 -0.6686 -0.3367
  143OSM     O315592   2.138   6.197   2.431 -0.2240 -0.0002 -0.0417
  143OSM    HO315593   2.076   6.178   2.360 -0.9312 -1.2359  0.8745
  143OSM    C4S15594   2.137   6.312   2.643  0.2269  0.3169  0.2269
  143OSM    H4S15595   2.189   6.406   2.667  2.0494 -0.6810  0.2996
  143OSM    C5S15596   2.137   6.206   2.729  0.3429 -0.1677  0.0551
  143OSM    H5S15597   2.072   6.121   2.704 -0.1524 -0.2121  1.3930
  143OSM    C6S15598   2.190   6.210   2.870  0.3664  0.0039 -0.2985
  143OSM    H6S15599   2.297   6.182   2.862  0.5786  0.7705 -0.2212
  143OSM    H6T15600   2.139   6.127   2.923  0.5483  0.5516  0.7631
  143OSM    C7S15601   2.180   6.333   2.963  0.1975  0.3182  0.3476
  143OSM    H7S15602   2.076   6.370   2.958  0.0732  0.0949  1.0711
  143OSM    H7T15603   2.249   6.409   2.921 -0.5586  1.3677  0.9548
  143OSM    C8S15604   2.225   6.311   3.104  0.0991  0.1399 -0.1860
  143OSM    H8S15605   2.255   6.412   3.140  1.2093 -0.1102 -0.3690
  143OSM    H8T15606   2.323   6.262   3.121  0.9751  1.9888  0.3633
  143OSM    C9S15607   2.114   6.244   3.192  0.3367  0.3460  1.1450
  143OSM    H9S15608   2.107   6.140   3.153  0.3487  0.8116 -0.1311
  143OSM    H9T15609   2.017   6.295   3.179 -0.0327 -0.8595 -1.6613
  143OSM   C10S15610   2.143   6.236   3.344  1.0689  0.8174 -1.1241
  143OSM   H10S15611   2.155   6.340   3.381  1.2585 -0.3322  2.4023
  143OSM   H10T15612   2.244   6.195   3.366  0.5160  0.1210  0.2288
  143OSM   C11S15613   2.031   6.158   3.415  0.3137 -0.6982  0.2272
  143OSM   H11S15614   2.045   6.049   3.401 -0.7794 -0.7768 -0.3567
  143OSM   H11T15615   1.938   6.193   3.365  1.5845  1.8288 -0.5661
  143OSM   C12S15616   2.011   6.190   3.568  0.8960 -0.4510  0.1794
  143OSM   H12S15617   1.928   6.119   3.590 -2.7111  3.3808  0.2459
  143OSM   H12T15618   1.959   6.286   3.589 -0.3300  0.0493 -4.1485
  143OSM   C13S15619   2.123   6.185   3.667  0.5355 -0.6736 -0.1859
  143OSM   H13S15620   2.172   6.283   3.685  0.9349 -0.9916  0.5125
  143OSM   H13T15621   2.203   6.118   3.631  1.2572  0.3246 -0.4846
  143OSM   C14S15622   2.085   6.141   3.809  0.0955  0.0500 -0.3115
  143OSM   H14S15623   2.183   6.128   3.859  0.8009 -0.2669 -1.7031
  143OSM   H14T15624   2.031   6.044   3.816 -0.2330  0.2383 -0.2160
  143OSM   C15S15625   2.004   6.246   3.881 -0.5683 -0.6142  0.0104
  143OSM   H15S15626   1.909   6.272   3.830 -0.2096  3.6896  1.0964
  143OSM   H15T15627   2.063   6.341   3.877  2.4672 -2.1412  3.1348
  143OSM   C16S15628   1.983   6.225   4.038 -0.2096 -0.3402  0.2682
  143OSM   H16S15629   1.908   6.304   4.058 -0.3710 -0.2089 -0.8062
  143OSM   H16T15630   2.070   6.262   4.097  1.7442 -0.6257 -2.2788
  143OSM   C17S15631   1.947   6.081   4.079  0.1859 -0.1251 -0.0612
  143OSM   H17S15632   2.038   6.019   4.065  1.8413  2.3408 -0.7977
  143OSM   H17T15633   1.860   6.045   4.019  0.7631  1.1649 -1.7349
  143OSM   C18S15634   1.900   6.073   4.225 -0.8602 -0.7543 -0.2173
  143OSM   H18S15635   1.828   6.155   4.249 -1.0906 -0.7410 -0.9345
  143OSM   H18T15636   1.980   6.078   4.302  0.4166  1.3407 -1.5873
  143OSM   H18U15637   1.860   5.970   4.233  0.3188 -1.1728  0.4297
  143OSM    C1F15638   1.719   6.390   2.631  0.4956  0.4218 -0.1616
  143OSM     OF15639   1.637   6.304   2.601  0.3974 -0.2246  0.1547
  143OSM    C2F15640   1.682   6.519   2.705  0.4168  0.1383  0.7258
  143OSM    H2F15641   1.694   6.608   2.641 -0.2745 -0.0641  0.3072
  143OSM    H2G15642   1.759   6.521   2.785  1.1813  1.8524 -0.0158
  143OSM    C3F15643   1.533   6.510   2.756  0.0158 -0.0533  0.6407
  143OSM    H3F15644   1.514   6.421   2.820  0.3411 -1.7080 -1.4587
  143OSM    H3G15645   1.467   6.514   2.666 -1.0210 -0.9640  1.3373
  143OSM    C4F15646   1.496   6.631   2.838 -0.4434  0.6166  0.2035
  143OSM    H4F15647   1.439   6.709   2.782 -1.9496  0.2632  1.1644
  143OSM    H4G15648   1.588   6.686   2.865 -1.7802  3.0968  0.0669
  143OSM    C5F15649   1.419   6.589   2.966 -0.2604 -0.1509 -0.4048
  143OSM    H5F15650   1.490   6.521   3.017 -0.5041 -0.2268 -0.1693
  143OSM    H5G15651   1.325   6.541   2.934  0.6385 -1.5334 -1.0692
  143OSM    C6F15652   1.392   6.696   3.074  0.5838 -0.9893  0.1442
  143OSM    H6F15653   1.482   6.753   3.105 -0.2446  1.8375 -2.2828
  143OSM    H6G15654   1.335   6.659   3.162  0.0207  1.4989  0.9037
  143OSM    C7F15655   1.305   6.804   3.014  0.9708  0.1389  0.1237
  143OSM    H7F15656   1.204   6.770   2.985  0.9914  1.1970 -1.2876
  143OSM    H7G15657   1.354   6.833   2.918  0.6904  1.7501  0.4471
  143OSM    C8F15658   1.285   6.939   3.096 -0.4258  0.5096  0.4103
  143OSM    H8F15659   1.255   7.022   3.028  0.2728  0.4959  0.0761
  143OSM    H8G15660   1.383   6.971   3.137 -0.6147 -0.1739  1.4166
  143OSM    C9F15661   1.182   6.934   3.199  0.3810  0.7993 -0.1664
  143OSM    H9F15662   1.078   6.959   3.175  0.4859 -0.3211 -1.9613
  143OSM   C10F15663   1.205   6.893   3.327 -0.6323 -0.0387 -1.0854
  143OSM   H10F15664   1.128   6.910   3.403  0.1899 -2.2415  0.3372
  143OSM   C11F15665   1.337   6.857   3.385  0.3403  0.0439 -0.2810
  143OSM   H11F15666   1.418   6.859   3.310 -1.2238 -0.8039 -2.0905
  143OSM   H11G15667   1.337   6.754   3.427 -0.1637  0.5582  1.0456
  143OSM   C12F15668   1.375   6.943   3.508 -0.4644 -0.4781 -0.0901
  143OSM   H12F15669   1.287   6.957   3.574  0.0473  2.6822  0.0864
  143OSM   H12G15670   1.383   7.043   3.460  0.5744 -0.2791  0.4638
  143OSM   C13F15671   1.500   6.903   3.574  0.0220 -0.2647  0.3939
  143OSM   H13F15672   1.542   6.990   3.629  1.6884 -0.0821 -1.0713
  143OSM   H13G15673   1.571   6.883   3.491 -1.5991  2.0696 -1.7219
  143OSM   C14F15674   1.498   6.775   3.653 -0.2333  0.3433 -0.0606
  143OSM   H14F15675   1.607   6.754   3.661 -0.1060  1.3310  1.2196
  143OSM   H14G15676   1.436   6.707   3.592  0.5421 -0.8423  0.4297
  143OSM   C15F15677   1.422   6.791   3.789  0.2892 -0.3485 -0.3147
  143OSM   H15F15678   1.398   6.689   3.823  1.2419 -0.2592  0.6735
  143OSM   H15G15679   1.321   6.831   3.767  0.3080 -0.4360 -0.5586
  143OSM   C16F15680   1.501   6.870   3.891  0.2882  0.5866  0.2706
  143OSM   H16F15681   1.535   6.967   3.850  0.7529  0.3592  0.1156
  143OSM   H16G15682   1.590   6.813   3.925 -0.7435 -2.1132 -1.1627
  143OSM   C17F15683   1.420   6.895   4.018 -0.5455  0.7780 -0.1945
  143OSM   H17F15684   1.494   6.939   4.089  0.7148 -0.8699 -0.4215
  143OSM   H17G15685   1.385   6.800   4.064  0.5958  0.9406  1.0869
  143OSM   C18F15686   1.308   6.994   3.998  0.0332  0.1330 -0.4980
  143OSM   H18F15687   1.337   7.093   3.958 -1.3529  2.1421  3.0163
  143OSM   H18G15688   1.283   7.014   4.104  0.4738 -0.3166 -0.3040
  143OSM   H18H15689   1.225   6.942   3.946 -3.0169  2.0985  2.0639
  144OSM      N15690   1.003   5.533   1.887  0.1161  0.1595 -0.1341
  144OSM    C1515691   1.040   5.391   1.858 -0.5132  0.2821  0.0743
  144OSM   H15A15692   1.031   5.361   1.755  1.0059  1.8099 -0.5290
  144OSM   H15B15693   0.976   5.323   1.913  0.1799  0.0888  0.6552
  144OSM   H15C15694   1.141   5.380   1.893 -0.3810  1.7888  0.2218
  144OSM    C1415695   1.108   5.626   1.843  0.4823 -0.5814 -0.7705
  144OSM   H14A15696   1.071   5.727   1.849 -0.3218 -0.9435  0.8874
  144OSM   H14B15697   1.139   5.616   1.740 -1.2880  1.5100 -1.5767
  144OSM   H14C15698   1.191   5.620   1.912 -1.5593 -1.1312  1.8090
  144OSM    C1315699   0.881   5.567   1.804  1.0209  0.0455 -0.0694
  144OSM   H13A15700   0.891   5.536   1.701  1.0992 -1.4504  0.3601
  144OSM   H13B15701   0.854   5.671   1.800 -3.0105 -0.8830 -1.6058
  144OSM   H13C15702   0.795   5.521   1.849 -0.0159  2.3990  0.5036
  144OSM    C1215703   0.972   5.557   2.034  0.0585  0.0274  0.0925
  144OSM   H12A15704   0.953   5.663   2.040  2.8429  0.6373 -0.3529
  144OSM   H12B15705   1.065   5.549   2.090  1.0043 -0.6953 -1.5286
  144OSM    C1115706   0.858   5.470   2.097  0.3075  0.5415 -0.6319
  144OSM   H11A15707   0.869   5.450   2.205 -2.7759 -4.0561 -0.9234
  144OSM   H11B15708   0.872   5.367   2.058 -1.7997 -0.2906  0.6790
  144OSM      P15709   0.671   5.660   2.111 -0.1980 -0.3769  0.3880
  144OSM    O1315710   0.710   5.763   2.013  0.0995 -0.0772  0.4348
  144OSM    O1415711   0.536   5.644   2.157  0.3611 -0.1703  0.7366
  144OSM    O1115712   0.768   5.685   2.239  0.3912 -0.6396  0.1243
  144OSM    O1215713   0.727   5.517   2.063 -0.3640 -0.5912  0.3148
  144OSM    C1S15714   0.759   5.792   2.325 -0.2121  0.2103 -0.7641
  144OSM    H1S15715   0.671   5.859   2.311  1.1817  1.9951 -1.5074
  144OSM    H1T15716   0.843   5.861   2.299  0.5299 -1.6900 -3.9803
  144OSM     NF15717   0.727   5.863   2.564 -0.1386  0.3674  0.5988
  144OSM    HNF15718   0.799   5.927   2.591 -2.4753  3.0328  0.9912
  144OSM    C2S15719   0.767   5.750   2.480 -0.2510  0.2656 -0.5489
  144OSM    H2S15720   0.697   5.665   2.496 -1.4943  1.5633  1.5164
  144OSM    C3S15721   0.913   5.697   2.506 -0.7164 -0.2262  0.3413
  144OSM    H3S15722   0.992   5.775   2.516  0.1658 -1.0664  0.0724
  144OSM     O315723   0.965   5.616   2.395  0.3339 -0.7415 -0.4821
  144OSM    HO315724   0.893   5.611   2.331  0.3776  1.0065 -0.7237
  144OSM    C4S15725   0.909   5.624   2.641 -0.0893 -0.3856  0.0679
  144OSM    H4S15726   0.879   5.698   2.717  0.9856  1.0779 -0.8852
  144OSM    C5S15727   0.924   5.486   2.660  0.6065  0.4932  0.1876
  144OSM    H5S15728   0.938   5.417   2.575 -0.6896 -1.4905  1.5055
  144OSM    C6S15729   0.903   5.413   2.796  0.4357 -0.0099 -0.5827
  144OSM    H6S15730   0.999   5.368   2.831 -0.7131 -1.2122  1.2346
  144OSM    H6T15731   0.833   5.327   2.784 -1.1034  1.0571  0.4413
  144OSM    C7S15732   0.856   5.494   2.909 -0.6305 -0.2480  0.6256
  144OSM    H7S15733   0.760   5.537   2.871  0.6774  1.7984 -0.5664
  144OSM    H7T15734   0.924   5.581   2.922  0.6639 -1.2694  0.8740
  144OSM    C8S15735   0.853   5.406   3.037  0.0045  1.2297 -0.3346
  144OSM    H8S15736   0.952   5.364   3.064 -1.1719  0.6234  3.8129
  144OSM    H8T15737   0.794   5.313   3.023  2.2999 -0.5755  1.1344
  144OSM    C9S15738   0.809   5.488   3.162 -0.5653 -0.4263  0.3960
  144OSM    H9S15739   0.703   5.517   3.145 -0.3915 -0.0411 -0.0597
  144OSM    H9T15740   0.879   5.573   3.171  0.6806 -1.4849  1.1341
  144OSM   C10S15741   0.823   5.421   3.293 -0.0896  0.0303 -0.6465
  144OSM   H10S15742   0.930   5.396   3.310 -0.3376  0.2666  1.5422
  144OSM   H10T15743   0.764   5.328   3.300  0.2393 -0.1219  0.2639
  144OSM   C11S15744   0.778   5.504   3.414 -0.8407 -0.2170  0.3906
  144OSM   H11S15745   0.674   5.534   3.390 -0.4039  1.5292  0.5485
  144OSM   H11T15746   0.833   5.600   3.404 -1.5483  0.0476 -1.1650
  144OSM   C12S15747   0.790   5.430   3.550  0.6028 -0.5308 -0.3987
  144OSM   H12S15748   0.892   5.388   3.564  0.9332 -0.0575 -1.3380
  144OSM   H12T15749   0.704   5.360   3.550  0.5468 -0.4867 -1.4917
  144OSM   C13S15750   0.757   5.536   3.661  0.7725  0.1875 -0.3966
  144OSM   H13S15751   0.651   5.567   3.653  0.8111  0.4659  0.1824
  144OSM   H13T15752   0.820   5.627   3.662  1.4769 -0.2915  0.8510
  144OSM   C14S15753   0.783   5.473   3.805 -0.1281  0.4515  0.3266
  144OSM   H14S15754   0.787   5.560   3.875  0.7905 -1.3153  2.6155
  144OSM   H14T15755   0.884   5.429   3.791 -0.9500 -1.3487 -0.2477
  144OSM   C15S15756   0.677   5.364   3.842 -0.0733 -0.4078 -1.2559
  144OSM   H15S15757   0.685   5.273   3.779  1.4721 -0.5738 -0.8497
  144OSM   H15T15758   0.577   5.411   3.834  0.4894  1.2065  0.5239
  144OSM   C16S15759   0.698   5.335   3.994 -0.1368 -0.0234 -0.3461
  144OSM   H16S15760   0.622   5.256   4.010 -0.3563  0.1778 -0.3862
  144OSM   H16T15761   0.665   5.426   4.049 -1.7458  0.6935 -2.3653
  144OSM   C17S15762   0.834   5.277   4.035  0.3077 -0.1861  0.1414
  144OSM   H17S15763   0.919   5.349   4.027  2.2534 -2.5609 -2.2576
  144OSM   H17T15764   0.873   5.207   3.959  0.1509  1.9129 -2.0189
  144OSM   C18S15765   0.836   5.203   4.169 -0.8015 -0.3124 -1.1753
  144OSM   H18S15766   0.941   5.183   4.198 -1.5080 -3.4524 -0.4276
  144OSM   H18T15767   0.784   5.105   4.172  2.3143 -2.1339 -1.7438
  144OSM   H18U15768   0.786   5.264   4.247 -3.9703 -1.2629 -2.3067
  144OSM    C1F15769   0.597   5.896   2.566  0.2804 -0.2074 -0.0062
  144OSM     OF15770   0.517   5.836   2.498 -0.2229  0.2178  0.6712
  144OSM    C2F15771   0.548   6.006   2.657 -0.3580 -1.1014 -0.1224
  144OSM    H2F15772   0.510   6.081   2.585  2.3791 -0.6893 -1.2498
  144OSM    H2G15773   0.620   6.060   2.722 -1.7012  0.5111  0.0846
  144OSM    C3F15774   0.439   5.963   2.755 -0.1860  0.6768  0.1036
  144OSM    H3F15775   0.384   5.873   2.717  3.6609 -1.2292 -1.4232
  144OSM    H3G15776   0.379   6.050   2.788  1.5572  0.5066  4.4204
  144OSM    C4F15777   0.496   5.896   2.874 -0.0627 -0.3912  0.3301
  144OSM    H4F15778   0.564   5.973   2.917 -2.2174  2.4691 -1.0470
  144OSM    H4G15779   0.548   5.804   2.840  2.3039  1.1314 -0.3525
  144OSM    C5F15780   0.391   5.867   2.986 -0.5562 -0.5083 -0.2118
  144OSM    H5F15781   0.306   5.808   2.945 -0.9456  0.3647 -0.6750
  144OSM    H5G15782   0.355   5.963   3.026  2.8204  0.2848  1.3028
  144OSM    C6F15783   0.446   5.782   3.094 -0.0160 -0.3503  0.0638
  144OSM    H6F15784   0.537   5.829   3.138  1.3222 -1.3452 -1.5476
  144OSM    H6G15785   0.485   5.683   3.065 -0.4931 -0.6643  0.4807
  144OSM    C7F15786   0.336   5.744   3.192 -0.0681  0.7312 -0.1128
  144OSM    H7F15787   0.260   5.685   3.138 -0.2677 -0.6585  1.5935
  144OSM    H7G15788   0.279   5.835   3.221 -1.0185  0.0389  0.2101
  144OSM    C8F15789   0.370   5.671   3.326  0.0452 -0.6203 -0.4940
  144OSM    H8F15790   0.445   5.727   3.385  0.5072  0.1631 -1.7860
  144OSM    H8G15791   0.424   5.584   3.284  0.3669 -0.1947 -0.9689
  144OSM    C9F15792   0.252   5.627   3.403  1.3138  0.0987  0.5441
  144OSM    H9F15793   0.169   5.596   3.338 -0.4866  1.2251  2.1762
  144OSM   C10F15794   0.225   5.622   3.536 -0.3031 -0.2724  0.4429
  144OSM   H10F15795   0.126   5.579   3.558 -0.8714  0.3662 -0.7708
  144OSM   C11F15796   0.324   5.646   3.644 -0.2592 -0.7537 -0.3542
  144OSM   H11F15797   0.406   5.706   3.598  0.1911 -1.5352 -0.6133
  144OSM   H11G15798   0.380   5.560   3.687 -1.6754 -1.7459 -0.4403
  144OSM   C12F15799   0.248   5.721   3.758 -0.2667 -0.8616 -0.8543
  144OSM   H12F15800   0.183   5.647   3.808  0.1328 -0.3673  0.4496
  144OSM   H12G15801   0.207   5.817   3.721 -0.9626 -0.9061 -0.2310
  144OSM   C13F15802   0.348   5.755   3.870  0.3112 -0.4349 -0.3759
  144OSM   H13F15803   0.378   5.660   3.921 -1.0031 -1.3449 -1.2360
  144OSM   H13G15804   0.285   5.809   3.944  1.7996 -0.8055  1.2435
  144OSM   C14F15805   0.470   5.838   3.841  0.3269 -0.0880 -0.2564
  144OSM   H14F15806   0.533   5.782   3.768 -1.3115 -0.6025 -1.3418
  144OSM   H14G15807   0.540   5.854   3.926  1.4596 -0.3195 -1.1286
  144OSM   C15F15808   0.433   5.981   3.796  0.8054 -0.1371 -0.2744
  144OSM   H15F15809   0.489   6.061   3.850  2.1999 -0.8674 -0.5876
  144OSM   H15G15810   0.328   5.998   3.828 -0.0034 -3.3583 -0.8299
  144OSM   C16F15811   0.445   6.001   3.645  0.1905 -0.3562  0.5104
  144OSM   H16F15812   0.368   5.951   3.582 -0.5200  0.2962  0.8492
  144OSM   H16G15813   0.531   5.941   3.607 -0.1491 -1.2777  1.1653
  144OSM   C17F15814   0.449   6.149   3.617 -0.1147 -0.9662  0.1273
  144OSM   H17F15815   0.550   6.192   3.633 -0.7415  0.0105  1.7672
  144OSM   H17G15816   0.386   6.196   3.696  0.7013  3.2208 -1.4618
  144OSM   C18F15817   0.389   6.195   3.481  0.2051  0.6278  0.2494
  144OSM   H18F15818   0.410   6.127   3.396  0.4486 -2.4555  2.6012
  144OSM   H18G15819   0.427   6.295   3.448  0.9043  1.0064  2.0149
  144OSM   H18H15820   0.279   6.198   3.488  0.1662 -1.8436  1.5195
  145SAPE     N15821   1.026   1.667   7.117 -0.2370 -0.4652 -0.2010
  145SAPE   HN115822   1.074   1.574   7.123 -1.2178 -1.1251 -1.7189
  145SAPE   HN215823   0.929   1.652   7.151 -0.4824  0.6983 -0.3521
  145SAPE   HN315824   1.025   1.686   7.014  0.7341  0.6105 -0.0292
  145SAPE   C1215825   1.093   1.781   7.185  0.3933  0.8942 -0.1486
  145SAPE  H12A15826   1.202   1.765   7.172  0.1761 -0.7218 -0.1745
  145SAPE  H12B15827   1.050   1.789   7.288 -1.6755  0.4887 -0.9335
  145SAPE   C1115828   1.042   1.908   7.121 -0.5716 -0.0781 -0.2057
  145SAPE  H11A15829   1.074   1.912   7.015 -1.0589  1.4502 -0.3233
  145SAPE  H11B15830   1.079   1.996   7.179 -1.9788 -0.7512  1.8142
  145SAPE     P15831   0.830   2.053   7.063  0.2876 -0.0229  0.0832
  145SAPE   O1315832   0.682   2.049   7.082  1.2585 -0.4699 -0.1492
  145SAPE   O1415833   0.898   2.170   7.113  0.3252  0.0592  0.0842
  145SAPE   O1215834   0.899   1.921   7.122  0.3178  0.4027 -0.9326
  145SAPE   O1115835   0.861   2.041   6.911  0.3665 -0.0998  0.1884
  145SAPE    C115836   0.811   1.931   6.839  0.0149  1.2654  0.1640
  145SAPE    HA15837   0.848   1.834   6.880  2.0124  2.3016  0.9890
  145SAPE    HB15838   0.701   1.941   6.840 -0.1133  0.5433  2.9941
  145SAPE    C215839   0.862   1.948   6.692 -0.6865  0.0506 -0.7554
  145SAPE    HS15840   0.967   1.978   6.709 -1.3099  2.7585 -1.2040
  145SAPE   O2115841   0.791   2.052   6.623 -0.4177 -0.1443  0.0278
  145SAPE   C2115842   0.859   2.136   6.559  0.0764 -0.0610  0.0017
  145SAPE   O2215843   0.979   2.159   6.569 -0.1189  0.2020 -0.4582
  145SAPE   C2215844   0.753   2.219   6.477 -0.2531 -0.0470  0.0131
  145SAPE   H2R15845   0.678   2.144   6.445 -1.0020  1.5079 -2.0750
  145SAPE   H2S15846   0.710   2.287   6.553  0.9048  2.8473 -1.7301
  145SAPE    C315847   0.856   1.817   6.594 -0.2549  0.1636 -0.0275
  145SAPE    HX15848   0.756   1.769   6.591 -0.7153  1.0986 -0.1113
  145SAPE    HY15849   0.919   1.740   6.642 -0.3347  0.3496  0.3807
  145SAPE   O3115850   0.905   1.845   6.460  0.0117  0.0344 -0.2686
  145SAPE   C3115851   1.038   1.855   6.452 -0.0453  0.1309  0.1676
  145SAPE   O3215852   1.112   1.842   6.547 -0.0423 -0.1886  0.4699
  145SAPE   C3215853   1.079   1.882   6.301 -0.1293  0.6693 -0.0652
  145SAPE   H2X15854   1.027   1.975   6.270  0.0434  0.9739  0.5432
  145SAPE   H2Y15855   1.025   1.797   6.254 -0.9679 -0.5732  2.8841
  145SAPE   C2315856   0.817   2.297   6.368 -0.3521 -0.3341  0.6546
  145SAPE   H3R15857   0.877   2.243   6.292 -0.9268  1.6033 -1.2665
  145SAPE   H3S15858   0.883   2.370   6.420  1.6611 -0.0131 -2.1187
  145SAPE   C2415859   0.720   2.390   6.294 -0.1067  0.1912 -0.4940
  145SAPE   H4R15860   0.778   2.444   6.216  0.1573  1.4239  0.5277
  145SAPE   H4S15861   0.685   2.464   6.369 -0.2288 -2.3841  2.1743
  145SAPE   C2515862   0.602   2.325   6.221 -0.0408 -0.2414 -0.4622
  145SAPE   H5R15863   0.516   2.310   6.288  0.6454  0.2276  0.5323
  145SAPE   C2615864   0.585   2.297   6.090 -0.4742  0.1445 -0.5204
  145SAPE   H6R15865   0.493   2.250   6.053 -0.7840  1.0520 -0.9277
  145SAPE   C2715866   0.689   2.306   5.977 -0.3481  0.0891  0.1553
  145SAPE   H7R15867   0.683   2.214   5.915  1.1399 -0.2169  0.4321
  145SAPE   H7S15868   0.781   2.286   6.037 -0.9587 -4.0840  0.0308
  145SAPE   C2815869   0.693   2.437   5.895  0.4521 -0.9898  0.4833
  145SAPE   H8R15870   0.657   2.524   5.951  1.1907 -0.3329 -0.0410
  145SAPE   C2915871   0.734   2.455   5.768  0.2973  0.4557 -0.1036
  145SAPE   H9R15872   0.725   2.554   5.721 -0.9261  0.8507  0.9166
  145SAPE  C21015873   0.776   2.349   5.672  0.4094  0.0270 -0.5962
  145SAPE  H10R15874   0.784   2.249   5.720 -0.2555  0.3422  0.1880
  145SAPE  H10S15875   0.882   2.374   5.650 -0.2776  2.0830 -1.8182
  145SAPE  C21115876   0.712   2.348   5.537 -0.1386  0.0797 -0.4950
  145SAPE  H11R15877   0.638   2.268   5.525  1.4744 -1.5136 -0.2995
  145SAPE  C21215878   0.721   2.442   5.438 -0.1332  0.6823  0.1353
  145SAPE  H12R15879   0.661   2.410   5.352  1.0707 -0.1600 -0.4209
  145SAPE  C21315880   0.803   2.566   5.432 -0.7810  1.0923 -0.3062
  145SAPE  H13R15881   0.894   2.553   5.369 -1.0040  2.4769 -0.9497
  145SAPE  H13S15882   0.845   2.582   5.533  1.1979  0.0265 -0.8957
  145SAPE  C21415883   0.741   2.694   5.388  0.1257  0.0137 -0.3896
  145SAPE  H14R15884   0.705   2.758   5.470 -1.4557 -0.1610 -0.9038
  145SAPE  C21515885   0.687   2.719   5.265 -0.2868 -0.6554 -0.2830
  145SAPE  H15R15886   0.660   2.821   5.233 -0.3955 -1.0326 -1.4526
  145SAPE  C21615887   0.684   2.624   5.152  0.1850  0.2180 -0.5602
  145SAPE  H16R15888   0.687   2.515   5.176 -2.6674  0.1868 -0.0188
  145SAPE  H16S15889   0.772   2.645   5.088  0.6681 -1.5521 -0.5251
  145SAPE  C21715890   0.560   2.635   5.066 -0.3764  0.3559 -0.1769
  145SAPE  H17R15891   0.565   2.732   5.013  0.7650 -0.3865 -1.4946
  145SAPE  H17S15892   0.464   2.629   5.121 -0.8738  2.1952 -0.7712
  145SAPE  C21815893   0.549   2.524   4.961 -0.1470 -0.1126 -0.4109
  145SAPE  H18R15894   0.444   2.530   4.924  0.0869  1.1708 -0.9345
  145SAPE  H18S15895   0.579   2.431   5.014  1.9565  1.4655  1.3330
  145SAPE  C21915896   0.635   2.545   4.831  0.0597  1.0701  0.5117
  145SAPE  H19R15897   0.741   2.528   4.862  0.2269 -0.9868 -0.9905
  145SAPE  H19S15898   0.621   2.649   4.796  2.6446  0.5952 -2.3176
  145SAPE  C22015899   0.593   2.444   4.730 -0.0104 -0.0499  0.0626
  145SAPE  H20R15900   0.490   2.474   4.704 -0.0639 -1.3607 -1.4032
  145SAPE  H20S15901   0.607   2.339   4.766 -0.4514 -0.7066 -1.6005
  145SAPE  H20T15902   0.651   2.458   4.636  0.8310 -0.1032  0.5543
  145SAPE   C3315903   1.229   1.888   6.274 -0.4869 -0.2495  0.4048
  145SAPE   H3X15904   1.278   1.798   6.317 -1.0819 -1.4096 -1.2549
  145SAPE   H3Y15905   1.284   1.979   6.306  0.3647  0.3833 -2.5725
  145SAPE   C3415906   1.260   1.881   6.123  0.6179 -1.1287  0.2064
  145SAPE   H4X15907   1.206   1.795   6.078  0.0882 -0.8459  0.3003
  145SAPE   H4Y15908   1.365   1.854   6.098  0.9161  0.7622 -0.7632
  145SAPE   C3515909   1.209   2.004   6.038  0.4342  0.1304 -0.2787
  145SAPE   H5X15910   1.281   2.083   6.068  1.8202 -0.6698 -1.3771
  145SAPE   H5Y15911   1.104   2.023   6.071  0.7166  2.2375 -0.4762
  145SAPE   C3615912   1.210   1.987   5.888 -0.2581  0.2796  0.2708
  145SAPE   H6X15913   1.147   1.903   5.852 -2.7295  2.1506 -0.0790
  145SAPE   H6Y15914   1.313   1.970   5.850 -0.6317  0.7739 -1.0207
  145SAPE   C3715915   1.157   2.110   5.807  0.6869  0.4521  0.3171
  145SAPE   H7X15916   1.211   2.200   5.845  2.2623 -1.7581  3.9275
  145SAPE   H7Y15917   1.048   2.118   5.824  0.3336  0.0638 -1.5591
  145SAPE   C3815918   1.170   2.091   5.655 -0.0235  0.5516 -0.5069
  145SAPE   H8X15919   1.114   2.002   5.620  1.2996  0.5117 -2.6921
  145SAPE   H8Y15920   1.277   2.085   5.626  0.5188  0.7435  1.3124
  145SAPE   C3915921   1.122   2.209   5.566 -0.0087 -0.0711 -0.2668
  145SAPE   H9X15922   1.196   2.292   5.575  0.2855 -0.2026 -1.3585
  145SAPE   H9Y15923   1.024   2.242   5.607  0.1873 -0.2218  0.3386
  145SAPE  C31015924   1.090   2.180   5.415 -0.2166  1.0802 -0.0781
  145SAPE  H10X15925   0.996   2.122   5.415  0.6985 -0.4662 -0.6489
  145SAPE  H10Y15926   1.169   2.110   5.381  1.9863  2.8532  1.0560
  145SAPE  C31115927   1.085   2.306   5.331  0.3634  0.0845  0.1336
  145SAPE  H11X15928   1.188   2.342   5.310 -0.0824  2.2753  1.3563
  145SAPE  H11Y15929   1.033   2.385   5.389 -0.2306 -1.7613  2.2608
  145SAPE  C31215930   0.996   2.283   5.202  0.3473 -0.2149  0.3018
  145SAPE  H12X15931   0.963   2.380   5.159 -3.8783 -1.2428  0.8345
  145SAPE  H12Y15932   0.904   2.233   5.236  0.5592 -1.2429 -0.5778
  145SAPE  C31315933   1.068   2.202   5.097 -0.1083 -0.3809  0.2973
  145SAPE  H13X15934   1.124   2.119   5.146  2.5460  1.0228 -0.1774
  145SAPE  H13Y15935   1.150   2.268   5.060  0.5342 -1.4507 -0.2530
  145SAPE  C31415936   0.969   2.164   4.989 -0.3951 -1.6884  0.8066
  145SAPE  H14X15937   0.891   2.109   5.045  0.3443 -0.0242  3.6556
  145SAPE  H14Y15938   1.020   2.093   4.919  0.7440 -0.4825  0.3699
  145SAPE  C31515939   0.895   2.271   4.905 -0.4646 -0.0001 -0.3708
  145SAPE  H15X15940   0.815   2.322   4.963 -1.2623 -1.4443 -0.1465
  145SAPE  H15Y15941   0.836   2.214   4.829 -0.6567 -2.4929  1.5306
  145SAPE  C31615942   0.994   2.371   4.838 -0.0612 -0.4097 -0.2486
  145SAPE  H16X15943   1.047   2.423   4.921 -0.3774 -1.5677  0.7034
  145SAPE  H16Y15944   0.931   2.442   4.781  1.6759 -0.4825 -2.4138
  145SAPE  C31715945   1.100   2.316   4.745  0.0227  0.7046  0.2033
  145SAPE  H17X15946   1.065   2.281   4.645  1.2508 -2.3225  0.7251
  145SAPE  H17Y15947   1.149   2.230   4.796 -0.3470  0.3178 -0.0866
  145SAPE  C31815948   1.204   2.423   4.712  0.2816 -0.3044  0.0326
  145SAPE  H18X15949   1.262   2.464   4.797  0.6589 -0.2083 -0.2714
  145SAPE  H18Y15950   1.160   2.512   4.662 -0.4031 -0.0305  1.0930
  145SAPE  H18Z15951   1.272   2.377   4.637 -0.3126  0.1572 -0.8126
  146SAPE     N15952   5.061   0.741   7.093 -0.1479  0.4636  0.2724
  146SAPE   HN115953   5.139   0.757   7.026  1.0405 -1.9434  0.9576
  146SAPE   HN215954   4.974   0.769   7.044  0.5500 -1.5395 -2.3637
  146SAPE   HN315955   5.088   0.810   7.166 -0.8680  0.3467  0.6561
  146SAPE   C1215956   5.051   0.592   7.127  0.6158  0.9247  0.2148
  146SAPE  H12A15957   4.993   0.543   7.046 -0.6166 -0.5808  1.9117
  146SAPE  H12B15958   4.983   0.579   7.215  0.5524 -1.9173 -0.1869
  146SAPE   C1115959   5.196   0.534   7.150 -0.6659  0.0975 -0.2477
  146SAPE  H11A15960   5.189   0.430   7.190 -0.2514  0.3397  0.4844
  146SAPE  H11B15961   5.250   0.599   7.222  1.5443 -0.5922 -1.1901
  146SAPE     P15962   5.365   0.412   6.995 -0.0565  0.0022 -0.3085
  146SAPE   O1315963   5.466   0.436   6.888  0.2266  0.3718  0.1197
  146SAPE   O1415964   5.426   0.360   7.122  0.1800  0.1275 -0.1547
  146SAPE   O1215965   5.274   0.542   7.026  0.3660 -0.2734 -0.5019
  146SAPE   O1115966   5.250   0.307   6.948  0.0580 -0.2529  0.2314
  146SAPE    C115967   5.134   0.335   6.877  0.2714  0.1801  0.3149
  146SAPE    HA15968   5.048   0.303   6.940 -0.9127 -0.5602 -1.5758
  146SAPE    HB15969   5.122   0.441   6.847  0.1335 -0.3105 -1.4853
  146SAPE    C215970   5.128   0.262   6.737  0.0511 -0.5340  0.3654
  146SAPE    HS15971   5.168   0.159   6.749 -2.5325 -1.3803  2.5651
  146SAPE   O2115972   5.202   0.340   6.639 -0.4680 -0.0027 -0.0718
  146SAPE   C2115973   5.323   0.289   6.617 -0.4604 -0.3213 -0.1325
  146SAPE   O2215974   5.372   0.193   6.672  0.3182 -0.2175 -0.3370
  146SAPE   C2215975   5.400   0.385   6.521 -0.2985  0.9135  0.2904
  146SAPE   H2R15976   5.412   0.483   6.571  1.0502  0.9933 -0.1511
  146SAPE   H2S15977   5.496   0.333   6.500 -1.2464 -0.3107 -1.2777
  146SAPE    C315978   4.981   0.246   6.688 -0.5177 -0.3491 -0.1997
  146SAPE    HX15979   4.933   0.345   6.684 -3.0882 -1.3999  1.6809
  146SAPE    HY15980   4.934   0.190   6.772 -1.8194  0.5619 -0.3113
  146SAPE   O3115981   4.969   0.174   6.562  0.0128 -0.1521  0.4523
  146SAPE   C3115982   4.873   0.086   6.559 -0.4479  0.5999  0.8510
  146SAPE   O3215983   4.796   0.061   6.647 -0.6452  0.3742 -0.0461
  146SAPE   C3215984   4.873   0.021   6.415 -0.0487  0.2814  0.1283
  146SAPE   H2X15985   4.767   0.023   6.382  0.2695  0.0636 -0.9430
  146SAPE   H2Y15986   4.904  -0.086   6.425 -0.4706  0.3391  2.4935
  146SAPE   C2315987   5.337   0.413   6.383 -0.4813  0.2989  0.4496
  146SAPE   H3R15988   5.392   0.498   6.337 -0.6285 -0.4971 -1.3093
  146SAPE   H3S15989   5.236   0.459   6.389 -0.2384  1.1483 -1.2528
  146SAPE   C2415990   5.333   0.293   6.284 -0.1200  0.4814  0.7323
  146SAPE   H4R15991   5.289   0.204   6.333  0.2506 -0.8549 -1.2177
  146SAPE   H4S15992   5.435   0.261   6.251 -0.4531 -0.9543  1.0426
  146SAPE   C2515993   5.255   0.318   6.159 -0.0210 -0.3892 -0.0219
  146SAPE   H5R15994   5.146   0.327   6.171  0.1976  4.0410  0.3301
  146SAPE   C2615995   5.294   0.307   6.026 -0.2719 -0.3675 -0.5550
  146SAPE   H6R15996   5.232   0.335   5.939  0.1573 -2.1248 -1.4691
  146SAPE   C2715997   5.442   0.291   5.987 -0.0120  0.1804 -0.4000
  146SAPE   H7R15998   5.513   0.250   6.062  0.9447 -0.0808 -1.4239
  146SAPE   H7S15999   5.487   0.389   5.959  2.0368 -0.7058 -0.3497
  146SAPE   C2816000   5.441   0.188   5.867 -0.4002  0.6957 -0.0325
  146SAPE   H8R16001   5.457   0.084   5.900 -0.6974  0.0583 -1.7784
  146SAPE   C2916002   5.447   0.204   5.735 -0.1662 -0.3980 -0.1291
  146SAPE   H9R16003   5.446   0.117   5.667  1.2238  0.2181 -0.9694
  146SAPE  C21016004   5.441   0.335   5.670 -0.5357 -0.0460  0.3383
  146SAPE  H10R16005   5.438   0.419   5.743 -1.6964 -0.5104  0.8461
  146SAPE  H10S16006   5.336   0.338   5.635 -0.0245 -0.2343 -1.3326
  146SAPE  C21116007   5.539   0.360   5.553  0.4639 -0.0509  0.2298
  146SAPE  H11R16008   5.644   0.367   5.585 -0.1246  0.8859  2.0948
  146SAPE  C21216009   5.521   0.335   5.419 -0.4639  0.1368 -0.0140
  146SAPE  H12R16010   5.601   0.346   5.344 -0.6756 -2.6741 -0.8006
  146SAPE  C21316011   5.387   0.298   5.353  0.3813  0.0297  0.2353
  146SAPE  H13R16012   5.310   0.351   5.413  0.8435 -1.5535  2.3444
  146SAPE  H13S16013   5.364   0.189   5.352  0.3048  0.0457 -0.5642
  146SAPE  C21416014   5.377   0.322   5.206  0.1681  0.1749  0.0677
  146SAPE  H14R16015   5.441   0.267   5.135 -1.4199  0.7587 -1.8792
  146SAPE  C21516016   5.286   0.391   5.140  0.4699  0.6506  0.0290
  146SAPE  H15R16017   5.299   0.405   5.032 -0.6790 -0.3039 -0.2533
  146SAPE  C21616018   5.189   0.480   5.204  0.1479 -0.5782  0.9347
  146SAPE  H16R16019   5.251   0.551   5.264 -1.1139  1.2013  0.2001
  146SAPE  H16S16020   5.101   0.434   5.252 -0.4816 -1.6182 -1.1447
  146SAPE  C21716021   5.099   0.569   5.108  0.7227  0.0894  0.0963
  146SAPE  H17R16022   5.170   0.636   5.055  0.9021 -1.4694 -1.7460
  146SAPE  H17S16023   5.041   0.633   5.179  3.0504  0.7997  1.4430
  146SAPE  C21816024   4.998   0.500   5.013 -0.0092  0.0768 -0.3533
  146SAPE  H18R16025   4.962   0.408   5.065 -3.5508  2.3417  1.6654
  146SAPE  H18S16026   5.048   0.462   4.921 -2.6594 -0.1142 -1.8525
  146SAPE  C21916027   4.869   0.573   4.978 -0.5733 -0.2347  0.5218
  146SAPE  H19R16028   4.816   0.581   5.075  0.5330 -1.8992  1.3122
  146SAPE  H19S16029   4.809   0.501   4.918  0.3615  0.8928 -1.9216
  146SAPE  C22016030   4.890   0.703   4.896  0.2721 -0.2981  0.1298
  146SAPE  H20R16031   4.797   0.748   4.856  2.0566  2.1297 -1.6208
  146SAPE  H20S16032   4.966   0.685   4.817  0.1873  1.3782 -0.3778
  146SAPE  H20T16033   4.938   0.780   4.960 -1.2499 -0.6224  1.7280
  146SAPE   C3316034   4.958   0.105   6.319  0.1493  0.2952  0.2005
  146SAPE   H3X16035   5.064   0.086   6.344  0.3894  3.8997  2.8236
  146SAPE   H3Y16036   4.931   0.212   6.333 -0.8803 -0.3719  5.1945
  146SAPE   C3416037   4.941   0.061   6.173 -0.7292 -0.2947  0.4098
  146SAPE   H4X16038   4.962  -0.048   6.167 -2.7881 -0.8706  2.2431
  146SAPE   H4Y16039   5.013   0.106   6.101  0.6797 -1.3226  1.1401
  146SAPE   C3516040   4.804   0.093   6.110  1.0111 -0.1926  0.0312
  146SAPE   H5X16041   4.793   0.203   6.116  1.5016 -0.1535  0.2958
  146SAPE   H5Y16042   4.724   0.056   6.178  1.6062 -1.6114  0.0094
  146SAPE   C3616043   4.778   0.039   5.966  0.4124  0.5329  0.8422
  146SAPE   H6X16044   4.867   0.063   5.904 -0.0281 -0.7619 -0.3575
  146SAPE   H6Y16045   4.699   0.100   5.918 -1.8729  0.0543  3.7299
  146SAPE   C3716046   4.745  -0.106   5.974  0.1356 -0.6345 -0.2450
  146SAPE   H7X16047   4.641  -0.119   6.010 -0.8877 -0.1511 -2.7900
  146SAPE   H7Y16048   4.809  -0.163   6.045 -1.0903 -0.5509  0.9755
  146SAPE   C3816049   4.752  -0.185   5.840 -0.5415  0.5061  0.6714
  146SAPE   H8X16050   4.757  -0.295   5.858  1.6501  0.9029  3.1562
  146SAPE   H8Y16051   4.856  -0.169   5.803 -0.6551 -2.8643 -1.5848
  146SAPE   C3916052   4.654  -0.144   5.727  0.3944  0.8718 -0.0209
  146SAPE   H9X16053   4.665  -0.036   5.707 -1.5254  1.0069 -0.5966
  146SAPE   H9Y16054   4.554  -0.168   5.768  0.7949 -2.2486 -0.6202
  146SAPE  C31016055   4.659  -0.219   5.596  0.5937 -0.0324  0.4860
  146SAPE  H10X16056   4.578  -0.176   5.534  0.1926  1.7472  2.1555
  146SAPE  H10Y16057   4.643  -0.327   5.619  1.5232 -0.3858 -0.4823
  146SAPE  C31116058   4.785  -0.199   5.507 -0.2990  0.2594 -0.2662
  146SAPE  H11X16059   4.874  -0.224   5.569  0.6938  0.9978 -1.3232
  146SAPE  H11Y16060   4.805  -0.094   5.477 -0.1867  0.1445 -0.6001
  146SAPE  C31216061   4.805  -0.270   5.367  0.1861  0.2493 -0.8604
  146SAPE  H12X16062   4.787  -0.379   5.382 -2.6087  0.8335  0.9049
  146SAPE  H12Y16063   4.906  -0.247   5.328  0.3039 -0.8243 -1.2202
  146SAPE  C31316064   4.715  -0.219   5.253  0.3516 -0.1196  0.2938
  146SAPE  H13X16065   4.709  -0.108   5.255 -2.3932 -0.1611 -0.9207
  146SAPE  H13Y16066   4.609  -0.250   5.268 -0.2170  1.7492  0.3328
  146SAPE  C31416067   4.756  -0.275   5.115 -0.1536  0.6429 -0.2034
  146SAPE  H14X16068   4.749  -0.385   5.126 -1.9647  0.6692 -0.8071
  146SAPE  H14Y16069   4.864  -0.250   5.110 -0.6228  2.6555 -2.2503
  146SAPE  C31516070   4.683  -0.213   4.995  0.8340  0.1028 -0.5126
  146SAPE  H15X16071   4.682  -0.102   5.006 -1.8260  0.3736 -2.4655
  146SAPE  H15Y16072   4.575  -0.238   5.000  1.0069 -0.3995  1.9378
  146SAPE  C31616073   4.734  -0.258   4.859 -0.1982  0.4450  0.2733
  146SAPE  H16X16074   4.699  -0.363   4.848 -0.8072  0.2625  3.0041
  146SAPE  H16Y16075   4.844  -0.252   4.849 -0.1782 -0.2943 -0.0237
  146SAPE  C31716076   4.664  -0.173   4.750  0.2697 -0.6404 -0.1887
  146SAPE  H17X16077   4.555  -0.176   4.770  0.4789  0.6177  1.3617
  146SAPE  H17Y16078   4.686  -0.222   4.653 -2.2751 -1.0900 -0.6264
  146SAPE  C31816079   4.715  -0.030   4.731 -0.2393 -0.4554 -0.6474
  146SAPE  H18X16080   4.698   0.036   4.818  1.8827 -0.6278 -0.0478
  146SAPE  H18Y16081   4.671   0.019   4.642 -1.7764  2.1824  1.4245
  146SAPE  H18Z16082   4.826  -0.039   4.726 -0.1699 -2.0632  1.9149
  147SAPE     N16083   5.492   4.804   6.659 -0.4301  0.2899  0.4090
  147SAPE   HN116084   5.580   4.754   6.682  0.0867  1.1012  0.2349
  147SAPE   HN216085   5.427   4.723   6.654  0.5831 -0.6092  1.2216
  147SAPE   HN316086   5.492   4.845   6.564 -3.5490  0.6619  0.4860
  147SAPE   C1216087   5.436   4.899   6.760  0.2301  0.3819 -0.4546
  147SAPE  H12A16088   5.471   4.854   6.855 -1.8566  1.2689  0.7896
  147SAPE  H12B16089   5.326   4.893   6.755  0.2463 -0.8468  0.3498
  147SAPE   C1116090   5.485   5.048   6.749  0.3875  0.5754 -0.2708
  147SAPE  H11A16091   5.452   5.107   6.838  1.3539  0.2302  0.3397
  147SAPE  H11B16092   5.435   5.092   6.661 -2.1172  0.3134  0.9305
  147SAPE     P16093   5.701   5.199   6.778 -0.4355 -0.5318 -0.4339
  147SAPE   O1316094   5.604   5.307   6.770 -0.3672 -0.0979 -0.2471
  147SAPE   O1416095   5.767   5.177   6.909 -0.3239  0.3411  0.2912
  147SAPE   O1216096   5.626   5.059   6.742  0.1061  0.2213 -0.1306
  147SAPE   O1116097   5.818   5.214   6.674  0.4436  0.7330  0.1755
  147SAPE    C116098   5.916   5.105   6.661  0.1909 -0.3971 -0.2684
  147SAPE    HA16099   6.013   5.139   6.703 -0.9504  0.9841  1.4514
  147SAPE    HB16100   5.900   5.014   6.723 -0.4674  1.1670  2.0438
  147SAPE    C216101   5.917   5.046   6.521  0.1460 -0.0970  0.9992
  147SAPE    HS16102   6.005   4.978   6.516  1.9432  2.0953  0.8455
  147SAPE   O2116103   5.933   5.147   6.419 -0.0983  0.5110  0.3906
  147SAPE   C2116104   6.050   5.209   6.417  0.1654  0.0174  0.0036
  147SAPE   O2216105   6.147   5.170   6.485 -0.1357  0.5711  0.1582
  147SAPE   C2216106   6.047   5.323   6.316  0.2838 -0.2358  0.8178
  147SAPE   H2R16107   5.983   5.294   6.229 -0.0644  1.1711  0.5886
  147SAPE   H2S16108   5.992   5.405   6.365  0.8139 -1.5473  3.8045
  147SAPE    C316109   5.801   4.951   6.485 -0.0401  0.5157 -0.2494
  147SAPE    HX16110   5.711   5.010   6.460 -0.4516  0.3396  0.7633
  147SAPE    HY16111   5.780   4.882   6.569  0.6255 -0.1240 -0.5970
  147SAPE   O3116112   5.835   4.875   6.365  0.5625 -0.0395 -0.0664
  147SAPE   C3116113   5.899   4.760   6.377 -0.4614 -0.6489 -0.0852
  147SAPE   O3216114   5.939   4.698   6.476 -0.3476  0.1407  0.6432
  147SAPE   C3216115   5.934   4.721   6.241  0.2919  0.2652  0.7749
  147SAPE   H2X16116   5.886   4.785   6.164  0.7903 -0.5331 -0.2240
  147SAPE   H2Y16117   5.884   4.624   6.220 -2.3320  1.6775  0.0732
  147SAPE   C2316118   6.183   5.385   6.266 -0.1857 -0.7624 -0.2733
  147SAPE   H3R16119   6.250   5.303   6.233  2.4636  0.9756  0.4478
  147SAPE   H3S16120   6.239   5.437   6.347 -0.8446  0.2457 -0.4495
  147SAPE   C2416121   6.146   5.479   6.146 -0.0957 -0.3810  0.0309
  147SAPE   H4R16122   6.232   5.549   6.139 -1.0891  1.2630  2.5066
  147SAPE   H4S16123   6.063   5.548   6.175  0.0946 -0.6240  1.2057
  147SAPE   C2516124   6.108   5.403   6.015 -0.6367  0.0520  0.4855
  147SAPE   H5R16125   6.094   5.294   6.015 -0.2915 -0.0826 -2.6430
  147SAPE   C2616126   6.101   5.463   5.892  0.2520  0.5029 -0.4215
  147SAPE   H6R16127   6.070   5.390   5.816 -1.5988  0.3651  0.4034
  147SAPE   C2716128   6.123   5.600   5.863 -1.0169 -0.0507  0.1571
  147SAPE   H7R16129   6.196   5.607   5.779  0.4234  2.3742  1.4912
  147SAPE   H7S16130   6.171   5.662   5.942 -3.0448 -1.7244  2.8966
  147SAPE   C2816131   5.994   5.663   5.824 -0.1764 -0.6209  0.2910
  147SAPE   H8R16132   5.929   5.694   5.907 -0.9202  1.5961 -1.0239
  147SAPE   C2916133   5.957   5.687   5.695  0.3396 -0.1657 -0.1284
  147SAPE   H9R16134   5.851   5.714   5.686  0.2362  0.3565  2.1232
  147SAPE  C21016135   6.027   5.662   5.564 -0.0644 -0.1932  0.1136
  147SAPE  H10R16136   5.955   5.605   5.502 -0.2807 -1.2898  1.3418
  147SAPE  H10S16137   6.120   5.609   5.591  0.1397 -0.1135 -0.4114
  147SAPE  C21116138   6.060   5.782   5.482 -0.1752 -0.1393  0.3444
  147SAPE  H11R16139   6.038   5.878   5.531 -1.9463  0.5595 -1.6889
  147SAPE  C21216140   6.106   5.781   5.354  0.0884 -0.2874 -0.1500
  147SAPE  H12R16141   6.124   5.883   5.316  0.9164  0.7741  2.7890
  147SAPE  C21316142   6.126   5.658   5.273  0.3701  0.6809 -0.4664
  147SAPE  H13R16143   6.056   5.657   5.187  0.3322 -0.6323 -0.4317
  147SAPE  H13S16144   6.096   5.565   5.324 -1.4487  1.8467  0.7320
  147SAPE  C21416145   6.263   5.645   5.198  0.4842 -0.2192 -0.8231
  147SAPE  H14R16146   6.321   5.556   5.228 -2.1686 -1.3266  1.4578
  147SAPE  C21516147   6.306   5.729   5.100  0.2201 -0.4287  0.0061
  147SAPE  H15R16148   6.411   5.732   5.066  0.9220 -0.0471  2.0908
  147SAPE  C21616149   6.232   5.839   5.047  0.3196 -0.6805  0.1376
  147SAPE  H16R16150   6.296   5.929   5.047  1.2663 -1.3393 -0.2586
  147SAPE  H16S16151   6.142   5.861   5.108  0.8481 -0.4783  0.8527
  147SAPE  C21716152   6.188   5.823   4.897  0.2661  0.1859 -0.5759
  147SAPE  H17R16153   6.126   5.731   4.889 -0.5067  0.7435 -1.0500
  147SAPE  H17S16154   6.277   5.810   4.832  0.6062 -3.4621  0.3721
  147SAPE  C21816155   6.102   5.939   4.855  0.1364  0.6767 -0.2851
  147SAPE  H18R16156   6.177   6.019   4.838  0.1673  1.5501  3.2681
  147SAPE  H18S16157   6.044   5.956   4.948  1.7218 -2.9044  1.5301
  147SAPE  C21916158   6.011   5.912   4.740  0.6521 -0.1301  0.0469
  147SAPE  H19R16159   5.936   5.993   4.731  1.1731  0.8456  3.1134
  147SAPE  H19S16160   5.968   5.813   4.765 -0.2851  0.3463  0.3799
  147SAPE  C22016161   6.081   5.900   4.600 -0.0250 -1.1371 -0.4675
  147SAPE  H20R16162   6.164   5.826   4.606  2.6825  1.7993  1.7710
  147SAPE  H20S16163   6.125   5.997   4.570 -0.5287 -1.0437 -0.9081
  147SAPE  H20T16164   6.010   5.871   4.520 -0.4391  0.7571 -0.8403
  147SAPE   C3316165   6.090   4.711   6.218 -0.1234 -0.1936  0.6470
  147SAPE   H3X16166   6.119   4.679   6.115  2.5019 -0.3727  1.3540
  147SAPE   H3Y16167   6.132   4.644   6.297 -1.8430 -0.1076  1.6659
  147SAPE   C3416168   6.159   4.840   6.245 -0.8117 -0.7606 -0.0502
  147SAPE   H4X16169   6.268   4.834   6.226 -1.1578  0.8526 -3.3376
  147SAPE   H4Y16170   6.154   4.859   6.354 -0.5889  0.0677 -0.1812
  147SAPE   C3516171   6.115   4.957   6.159  0.0378 -0.6677  0.6675
  147SAPE   H5X16172   6.161   5.041   6.215  0.4468 -0.8986  0.6879
  147SAPE   H5Y16173   6.005   4.959   6.152  0.1010  1.1210 -0.6246
  147SAPE   C3616174   6.148   4.951   6.011  0.0398 -0.2160 -0.5288
  147SAPE   H6X16175   6.098   5.037   5.962 -0.1736 -0.1328 -0.1626
  147SAPE   H6Y16176   6.108   4.861   5.958 -1.2793 -1.1647  1.9391
  147SAPE   C3716177   6.299   4.931   5.990 -0.4975 -0.6966 -0.3142
  147SAPE   H7X16178   6.334   4.827   6.003  1.6772 -0.4801 -3.2756
  147SAPE   H7Y16179   6.358   5.009   6.044 -2.6388 -0.0001  1.1460
  147SAPE   C3816180   6.345   4.969   5.848  0.3383 -0.1948 -0.0963
  147SAPE   H8X16181   6.450   4.999   5.828  0.2963 -0.3620 -0.5825
  147SAPE   H8Y16182   6.290   5.062   5.820  0.1689 -0.3888 -0.4058
  147SAPE   C3916183   6.305   4.864   5.738 -0.0253  0.2269  0.3663
  147SAPE   H9X16184   6.212   4.815   5.776 -0.6750  0.9909 -0.2059
  147SAPE   H9Y16185   6.384   4.786   5.734  0.7490  1.0000  0.4942
  147SAPE  C31016186   6.282   4.926   5.603  0.0769 -0.3446 -0.9233
  147SAPE  H10X16187   6.269   4.843   5.530  0.1971 -0.6471 -0.6041
  147SAPE  H10Y16188   6.374   4.982   5.576 -0.7180  1.7846  0.5889
  147SAPE  C31116189   6.156   5.010   5.590 -0.1040 -0.4719  0.0350
  147SAPE  H11X16190   6.141   5.081   5.674 -0.6788 -1.8950  1.1934
  147SAPE  H11Y16191   6.070   4.940   5.585  0.8552 -1.6571 -0.5999
  147SAPE  C31216192   6.152   5.086   5.460 -0.2494  0.3399 -0.0960
  147SAPE  H12X16193   6.048   5.121   5.439 -0.6557  0.5115  1.9691
  147SAPE  H12Y16194   6.191   5.025   5.376 -1.4836  1.7447 -1.7686
  147SAPE  C31316195   6.239   5.217   5.464 -0.2115  0.9447 -0.1014
  147SAPE  H13X16196   6.338   5.200   5.512 -0.4223  0.0298  0.0367
  147SAPE  H13Y16197   6.174   5.286   5.522 -0.3456  0.8562 -0.1483
  147SAPE  C31416198   6.275   5.279   5.330 -0.4257  0.3526 -0.9292
  147SAPE  H14X16199   6.325   5.377   5.346  1.0401 -0.3922 -0.8170
  147SAPE  H14Y16200   6.170   5.292   5.295 -2.6080 -1.4619  4.0425
  147SAPE  C31516201   6.358   5.199   5.235  0.0932  0.6367 -0.2543
  147SAPE  H15X16202   6.306   5.102   5.223 -0.4463  0.6477  1.7118
  147SAPE  H15Y16203   6.454   5.175   5.286 -1.1527  1.4010  2.6561
  147SAPE  C31616204   6.387   5.264   5.095 -0.1446  0.2246  0.3542
  147SAPE  H16X16205   6.441   5.191   5.031 -1.0439 -1.0308  0.9783
  147SAPE  H16Y16206   6.458   5.345   5.120 -0.7966  0.1959  2.4838
  147SAPE  C31716207   6.265   5.324   5.023 -0.4284 -0.5272 -0.4102
  147SAPE  H17X16208   6.209   5.392   5.091  1.6761 -0.0869  0.9743
  147SAPE  H17Y16209   6.199   5.241   4.988  0.6768 -1.6457  0.0917
  147SAPE  C31816210   6.311   5.406   4.903  0.1423 -0.1604 -0.9167
  147SAPE  H18X16211   6.220   5.446   4.853  0.8231  1.7223 -0.7176
  147SAPE  H18Y16212   6.358   5.336   4.830  2.6443  1.2518 -0.7857
  147SAPE  H18Z16213   6.387   5.483   4.925 -0.5172 -0.3300  2.4357
  148SAPE     N16214   3.043   0.797   6.800 -0.1655 -0.1986  0.0969
  148SAPE   HN116215   3.056   0.721   6.870  0.1959  0.5783  0.8973
  148SAPE   HN216216   3.093   0.883   6.833  1.2140 -0.6737 -0.6826
  148SAPE   HN316217   2.942   0.822   6.792 -0.1510 -0.3932 -0.7396
  148SAPE   C1216218   3.098   0.748   6.671  0.0400  0.5583  0.5109
  148SAPE  H12A16219   3.073   0.823   6.593 -0.8719 -0.4528 -0.2102
  148SAPE  H12B16220   3.059   0.646   6.648  1.8651  0.1547 -1.0116
  148SAPE   C1116221   3.247   0.728   6.680  0.6458  0.2841 -0.3204
  148SAPE  H11A16222   3.307   0.819   6.659  1.6778 -0.4654 -0.7418
  148SAPE  H11B16223   3.279   0.671   6.590 -1.7522  0.5164 -1.4094
  148SAPE     P16224   3.271   0.503   6.829 -0.0159  0.0498 -0.3219
  148SAPE   O1316225   3.404   0.446   6.869  0.1883  0.2531 -0.1519
  148SAPE   O1416226   3.167   0.488   6.932 -0.4536 -0.3980 -0.0515
  148SAPE   O1216227   3.295   0.653   6.796 -0.0805  0.2147 -0.3145
  148SAPE   O1116228   3.222   0.445   6.690 -0.2616  0.2425  0.0228
  148SAPE    C116229   3.193   0.305   6.681  0.4355 -0.4156 -0.3390
  148SAPE    HA16230   3.269   0.245   6.736  0.2350  1.5398  2.2584
  148SAPE    HB16231   3.093   0.283   6.725  0.7035 -0.1012  0.4453
  148SAPE    C216232   3.192   0.257   6.532  0.1006  0.1054 -0.0350
  148SAPE    HS16233   3.214   0.149   6.527  0.5646  0.2345 -2.6209
  148SAPE   O2116234   3.293   0.315   6.449  0.2989 -0.2669  0.0366
  148SAPE   C2116235   3.410   0.289   6.490 -0.4002  0.1586  0.2994
  148SAPE   O2216236   3.438   0.187   6.547 -0.4243  0.1739  0.1828
  148SAPE   C2216237   3.513   0.387   6.445 -0.1027 -0.3329 -0.3585
  148SAPE   H2R16238   3.537   0.373   6.337  0.7690 -2.4904  0.0561
  148SAPE   H2S16239   3.470   0.483   6.481 -4.1619 -0.8123 -3.1591
  148SAPE    C316240   3.056   0.284   6.467  0.2270 -0.3432  0.4914
  148SAPE    HX16241   3.046   0.393   6.447 -1.1248 -0.4186  0.6615
  148SAPE    HY16242   2.969   0.248   6.526 -2.1387  2.2089 -1.1868
  148SAPE   O3116243   3.053   0.221   6.340 -0.0092 -0.6479  0.5110
  148SAPE   C3116244   2.971   0.121   6.317  0.1830  0.7864 -1.0562
  148SAPE   O3216245   2.916   0.047   6.400 -0.2904 -0.2213 -0.1304
  148SAPE   C3216246   2.950   0.112   6.159 -0.8530  0.6918 -0.2790
  148SAPE   H2X16247   2.898   0.205   6.129 -1.6020  0.0906 -0.8842
  148SAPE   H2Y16248   2.880   0.029   6.140  1.2866 -0.9861 -1.2734
  148SAPE   C2316249   3.643   0.365   6.533 -0.3677  0.4287  0.2395
  148SAPE   H3R16250   3.680   0.262   6.512 -1.2481  0.1057  0.2490
  148SAPE   H3S16251   3.614   0.380   6.639  0.7134  0.5599  0.5361
  148SAPE   C2416252   3.764   0.445   6.494  0.0445 -0.1352 -0.1576
  148SAPE   H4R16253   3.794   0.403   6.395  1.2692 -1.9625  0.9232
  148SAPE   H4S16254   3.859   0.424   6.547  0.1564  3.9183  1.6129
  148SAPE   C2516255   3.740   0.591   6.500  0.0959  0.2033  0.2196
  148SAPE   H5R16256   3.724   0.627   6.603  0.9484  2.3733 -0.3538
  148SAPE   C2616257   3.742   0.678   6.400 -0.2347 -0.1126  0.3634
  148SAPE   H6R16258   3.720   0.785   6.411  1.9263  0.2444  1.8296
  148SAPE   C2716259   3.768   0.642   6.253  0.7991 -0.0232 -0.3772
  148SAPE   H7R16260   3.733   0.727   6.190 -1.5708 -0.9496 -0.4216
  148SAPE   H7S16261   3.697   0.560   6.230  0.4871  0.1409 -0.0096
  148SAPE   C2816262   3.909   0.597   6.219 -0.2946 -0.7417  0.4189
  148SAPE   H8R16263   3.986   0.616   6.296  0.7872 -0.5513 -0.6894
  148SAPE   C2916264   3.942   0.546   6.098 -1.1311  0.1143  0.6147
  148SAPE   H9R16265   4.044   0.507   6.092 -0.8961  0.6124  1.1948
  148SAPE  C21016266   3.851   0.522   5.983  0.5813 -0.6673 -0.1039
  148SAPE  H10R16267   3.752   0.481   6.014  0.2772 -1.5707 -2.0927
  148SAPE  H10S16268   3.887   0.441   5.916  0.0439 -1.2813  0.3283
  148SAPE  C21116269   3.835   0.650   5.903  0.9064 -0.2027  0.7351
  148SAPE  H11R16270   3.770   0.728   5.946  1.2328 -0.5674  1.8994
  148SAPE  C21216271   3.875   0.673   5.775  0.0577 -0.1445 -0.3142
  148SAPE  H12R16272   3.860   0.775   5.736  0.3144 -0.0412 -0.1437
  148SAPE  C21316273   3.952   0.584   5.680  0.3065  0.7106  0.1965
  148SAPE  H13R16274   4.042   0.540   5.728  1.0519  1.1704 -0.7422
  148SAPE  H13S16275   3.986   0.658   5.605 -0.6526  1.5260  0.5387
  148SAPE  C21416276   3.869   0.468   5.626  0.1520 -0.1246 -0.2416
  148SAPE  H14R16277   3.833   0.408   5.711  0.6298 -0.5277 -0.3239
  148SAPE  C21516278   3.832   0.435   5.500  0.3492  0.6510 -0.7762
  148SAPE  H15R16279   3.779   0.340   5.485  3.7118 -1.3197 -1.4480
  148SAPE  C21616280   3.870   0.518   5.378 -0.2547  0.0355  0.3291
  148SAPE  H16R16281   3.951   0.590   5.404  1.2027 -1.8053  1.1351
  148SAPE  H16S16282   3.781   0.569   5.336 -0.5969 -2.5656 -2.5391
  148SAPE  C21716283   3.930   0.436   5.262 -0.9183  0.5604 -0.7846
  148SAPE  H17R16284   3.991   0.355   5.306 -2.4675 -0.1433  0.1673
  148SAPE  H17S16285   3.993   0.494   5.192 -2.2667  1.6716 -1.1360
  148SAPE  C21816286   3.822   0.369   5.175  0.4169  0.4874  0.2969
  148SAPE  H18R16287   3.768   0.442   5.111 -0.3423 -0.2576  0.0641
  148SAPE  H18S16288   3.748   0.319   5.241  0.5188  0.9131  0.7340
  148SAPE  C21916289   3.885   0.278   5.070 -0.0137  0.6025 -0.1319
  148SAPE  H19R16290   3.927   0.185   5.114 -0.2593  0.0514 -1.0441
  148SAPE  H19S16291   3.963   0.331   5.012  1.1747  0.8892  1.6248
  148SAPE  C22016292   3.785   0.233   4.955 -0.0141  0.1180  0.1342
  148SAPE  H20R16293   3.765   0.324   4.895  0.2639 -0.4026 -0.7617
  148SAPE  H20S16294   3.683   0.207   4.993  0.5209 -1.6247  0.4765
  148SAPE  H20T16295   3.820   0.161   4.879 -0.5512  0.3928 -0.3777
  148SAPE   C3316296   3.077   0.091   6.085  0.7593 -0.6002 -0.1405
  148SAPE   H3X16297   3.108  -0.013   6.112 -1.3294 -0.9367  1.1453
  148SAPE   H3Y16298   3.160   0.161   6.110 -0.1570  0.1838  0.7553
  148SAPE   C3416299   3.061   0.088   5.933  0.2901  0.6579  0.5118
  148SAPE   H4X16300   3.087   0.189   5.894  2.3445 -0.2283 -0.6166
  148SAPE   H4Y16301   2.959   0.062   5.897  0.9511  0.2009 -1.1643
  148SAPE   C3516302   3.171  -0.004   5.865  0.0911 -0.1150 -0.1055
  148SAPE   H5X16303   3.172  -0.103   5.916 -0.1354  0.1712  0.4599
  148SAPE   H5Y16304   3.268   0.049   5.876 -0.9528  1.6168  1.2151
  148SAPE   C3616305   3.124  -0.029   5.711 -0.1385 -0.2301 -0.4283
  148SAPE   H6X16306   3.134   0.065   5.653  0.1359 -0.9226 -1.5274
  148SAPE   H6Y16307   3.015  -0.049   5.722 -0.6380  2.5363  0.3050
  148SAPE   C3716308   3.206  -0.136   5.635  0.2385 -0.0518  0.7459
  148SAPE   H7X16309   3.191  -0.230   5.692  0.4048 -0.8163 -0.4437
  148SAPE   H7Y16310   3.311  -0.101   5.627 -0.0268  0.8868  1.2381
  148SAPE   C3816311   3.159  -0.167   5.491 -0.2445 -0.7432 -0.2548
  148SAPE   H8X16312   3.149  -0.079   5.425 -1.4841 -1.0786 -0.5524
  148SAPE   H8Y16313   3.056  -0.209   5.490 -0.1815 -0.9012 -0.2406
  148SAPE   C3916314   3.260  -0.257   5.423 -0.2813  0.3353  0.1286
  148SAPE   H9X16315   3.271  -0.338   5.497 -1.9677  0.7582  0.8835
  148SAPE   H9Y16316   3.364  -0.216   5.420  1.0213 -2.7513 -1.1829
  148SAPE  C31016317   3.207  -0.306   5.288 -0.0807 -0.7330  0.7613
  148SAPE  H10X16318   3.165  -0.220   5.231  0.7751  0.4630  1.8462
  148SAPE  H10Y16319   3.124  -0.378   5.298 -0.7304 -0.5920 -2.4596
  148SAPE  C31116320   3.324  -0.360   5.201  0.5766  0.0650  0.5081
  148SAPE  H11X16321   3.359  -0.458   5.241 -0.8571 -1.8474 -2.5050
  148SAPE  H11Y16322   3.409  -0.290   5.204  0.6871 -0.0809  0.8596
  148SAPE  C31216323   3.281  -0.398   5.058  0.4341  0.5101 -0.1077
  148SAPE  H12X16324   3.226  -0.313   5.010 -0.2438  2.4098  3.6749
  148SAPE  H12Y16325   3.215  -0.488   5.062  0.5135  0.3977 -1.0421
  148SAPE  C31316326   3.402  -0.438   4.969  0.7615 -0.2326 -0.2561
  148SAPE  H13X16327   3.452  -0.527   5.012  0.6059 -0.9865 -1.5974
  148SAPE  H13Y16328   3.470  -0.352   4.985  0.5919 -0.1252 -0.1049
  148SAPE  C31416329   3.378  -0.466   4.823 -0.1886  0.6707 -0.2447
  148SAPE  H14X16330   3.336  -0.373   4.781 -1.8550  0.0506 -0.0499
  148SAPE  H14Y16331   3.305  -0.549   4.811  0.5641  0.0642 -0.6806
  148SAPE  C31516332   3.513  -0.513   4.755 -0.0575 -0.2176  0.2367
  148SAPE  H15X16333   3.582  -0.427   4.765  2.9421 -2.4618  0.3011
  148SAPE  H15Y16334   3.490  -0.521   4.647 -0.5805 -2.5825  0.4735
  148SAPE  C31616335   3.571  -0.648   4.810  0.0039 -0.2237  0.2405
  148SAPE  H16X16336   3.491  -0.720   4.836  0.9122 -0.9724  1.0406
  148SAPE  H16Y16337   3.628  -0.629   4.904 -0.3099 -0.4393  0.4753
  148SAPE  C31716338   3.667  -0.723   4.718  0.5528  0.4870  0.0489
  148SAPE  H17X16339   3.716  -0.798   4.784  2.0857  0.7213 -0.7699
  148SAPE  H17Y16340   3.746  -0.657   4.676 -0.5652  1.1349 -1.0834
  148SAPE  C31816341   3.599  -0.789   4.602  0.4961  0.3115 -0.5028
  148SAPE  H18X16342   3.551  -0.713   4.536  0.5080 -0.3673 -1.3157
  148SAPE  H18Y16343   3.537  -0.877   4.627  1.9363 -1.6005 -3.1456
  148SAPE  H18Z16344   3.689  -0.825   4.548  1.0210  0.9759 -0.0908
  149SAPE     N16345   1.527   3.046   6.784  0.2964  0.1651 -0.0297
  149SAPE   HN116346   1.447   2.982   6.802 -0.3106  0.3314 -1.9045
  149SAPE   HN216347   1.490   3.126   6.729  0.5912  2.0181  2.2836
  149SAPE   HN316348   1.592   2.993   6.722  0.5001  1.5758 -1.0629
  149SAPE   C1216349   1.599   3.107   6.901 -0.1661  0.4242  0.3878
  149SAPE  H12A16350   1.640   3.018   6.955 -0.2190 -0.9948 -1.7863
  149SAPE  H12B16351   1.531   3.159   6.972  3.1224  2.5503  2.2210
  149SAPE   C1116352   1.712   3.207   6.857 -0.4451  0.1756  0.0784
  149SAPE  H11A16353   1.763   3.235   6.952  1.2841 -0.6292 -0.5704
  149SAPE  H11B16354   1.663   3.298   6.816  0.8690  0.6343 -0.5368
  149SAPE     P16355   1.925   3.223   6.710  0.1087 -0.6559 -0.5077
  149SAPE   O1316356   1.989   3.299   6.817 -0.2801 -0.2804 -0.6207
  149SAPE   O1416357   2.008   3.127   6.633  0.3947 -0.3363  0.5120
  149SAPE   O1216358   1.800   3.140   6.771 -0.3075 -0.1099 -0.3273
  149SAPE   O1116359   1.843   3.312   6.614  0.1278 -0.0224  0.1293
  149SAPE    C116360   1.757   3.255   6.512 -0.6838  0.1197 -0.2137
  149SAPE    HA16361   1.736   3.147   6.526  0.2271 -0.3440 -2.1036
  149SAPE    HB16362   1.662   3.313   6.515 -1.1437 -0.2573 -3.6767
  149SAPE    C216363   1.819   3.284   6.376  0.3629 -0.0802  0.8340
  149SAPE    HS16364   1.743   3.246   6.304  0.8787 -0.3014  0.4029
  149SAPE   O2116365   1.947   3.216   6.350 -0.1479  0.6973 -0.4360
  149SAPE   C2116366   1.936   3.102   6.285  0.0400  0.3518  0.2511
  149SAPE   O2216367   1.833   3.052   6.242 -0.0507  0.4389  0.3369
  149SAPE   C2216368   2.083   3.042   6.290 -0.2159  0.0769  0.2825
  149SAPE   H2R16369   2.106   3.056   6.398  1.5673 -0.2200 -0.0343
  149SAPE   H2S16370   2.078   2.933   6.266 -1.4094 -0.1625  1.4826
  149SAPE    C316371   1.834   3.440   6.361  0.5928  0.6125 -0.4095
  149SAPE    HX16372   1.935   3.456   6.404  0.8664 -1.8225  0.0032
  149SAPE    HY16373   1.751   3.497   6.408 -0.1656  1.1657 -2.3068
  149SAPE   O3116374   1.853   3.466   6.219 -0.1031  0.2700 -0.4822
  149SAPE   C3116375   1.744   3.447   6.139  0.0221  0.0731 -0.3830
  149SAPE   O3216376   1.630   3.424   6.174 -0.1313  0.0663  0.1223
  149SAPE   C3216377   1.792   3.457   5.991 -0.1836 -0.6255  0.2067
  149SAPE   H2X16378   1.898   3.424   5.988 -0.0602 -0.2181 -0.1623
  149SAPE   H2Y16379   1.795   3.565   5.964  2.9376  0.5680  4.2527
  149SAPE   C2316380   2.178   3.133   6.206  0.5737  0.9555  0.0835
  149SAPE   H3R16381   2.284   3.102   6.224  1.2878  2.4265 -1.3081
  149SAPE   H3S16382   2.169   3.232   6.254 -2.0426  0.2042  1.3292
  149SAPE   C2416383   2.165   3.113   6.054  0.3725  0.8650  0.2286
  149SAPE   H4R16384   2.062   3.148   6.031  1.2527  3.4867  0.0193
  149SAPE   H4S16385   2.174   3.003   6.039  2.0530  0.9830  0.2211
  149SAPE   C2516386   2.277   3.171   5.962  0.7737 -0.4477  0.3116
  149SAPE   H5R16387   2.379   3.175   6.001  1.3726  2.0596 -1.2910
  149SAPE   C2616388   2.256   3.222   5.836  0.3114  0.0576  0.4228
  149SAPE   H6R16389   2.342   3.252   5.775  2.7898 -0.9885  3.1665
  149SAPE   C2716390   2.121   3.218   5.769  0.2623 -0.0864  0.0049
  149SAPE   H7R16391   2.088   3.321   5.745 -1.9603 -0.6575  0.4244
  149SAPE   H7S16392   2.037   3.170   5.824 -3.4079 -0.6053 -5.2953
  149SAPE   C2816393   2.134   3.133   5.639 -0.0202 -0.0465  0.7373
  149SAPE   H8R16394   2.135   3.024   5.658 -1.0778 -0.0730  0.7445
  149SAPE   C2916395   2.124   3.171   5.509 -0.1443 -0.3968  0.1385
  149SAPE   H9R16396   2.130   3.089   5.436 -1.2706 -0.1992 -0.1931
  149SAPE  C21016397   2.116   3.312   5.448 -0.0185 -0.4468 -0.2522
  149SAPE  H10R16398   2.048   3.369   5.515  2.2043  0.2705  1.5384
  149SAPE  H10S16399   2.074   3.310   5.345 -1.1766 -0.0573  0.1925
  149SAPE  C21116400   2.246   3.398   5.441  0.0549 -0.2993  0.3986
  149SAPE  H11R16401   2.255   3.455   5.535  0.0142  0.5269 -0.0903
  149SAPE  C21216402   2.336   3.398   5.347  0.1577  0.3093  0.3480
  149SAPE  H12R16403   2.422   3.466   5.359  1.2747 -0.5458 -2.0219
  149SAPE  C21316404   2.341   3.327   5.215  0.9918  0.1059  0.8884
  149SAPE  H13R16405   2.260   3.252   5.204 -0.9359  2.2701 -0.4180
  149SAPE  H13S16406   2.435   3.267   5.212  0.1296 -1.3342 -2.3006
  149SAPE  C21416407   2.331   3.410   5.092 -0.1372 -0.6257  0.4979
  149SAPE  H14R16408   2.317   3.515   5.119 -2.7858 -1.0869  1.1634
  149SAPE  C21516409   2.323   3.369   4.965  0.5079 -0.2075 -0.4111
  149SAPE  H15R16410   2.315   3.444   4.885 -0.2896  0.4490  0.2613
  149SAPE  C21616411   2.338   3.227   4.913  0.3392  0.6433  0.1576
  149SAPE  H16R16412   2.307   3.142   4.978  3.2354 -0.9027 -0.3246
  149SAPE  H16S16413   2.445   3.215   4.884  0.5183  1.0178  0.6382
  149SAPE  C21716414   2.263   3.206   4.783  0.6007  0.3112  0.2342
  149SAPE  H17R16415   2.324   3.249   4.701  1.2338  2.3713  1.6958
  149SAPE  H17S16416   2.166   3.260   4.790  0.8193  0.6876  0.4318
  149SAPE  C21816417   2.232   3.052   4.768 -0.6717  0.0517  0.0338
  149SAPE  H18R16418   2.164   3.026   4.853 -0.8660  0.8565  0.1281
  149SAPE  H18S16419   2.321   2.994   4.803  1.2477  1.1638 -2.7264
  149SAPE  C21916420   2.186   3.019   4.622 -0.3629 -0.5533 -0.1482
  149SAPE  H19R16421   2.259   3.069   4.555  0.2147  1.7480  2.0145
  149SAPE  H19S16422   2.088   3.068   4.607  0.3978  0.8269 -0.8150
  149SAPE  C22016423   2.162   2.871   4.597  0.2191  0.0910  0.2657
  149SAPE  H20R16424   2.118   2.842   4.499 -0.5536 -0.1979  0.6871
  149SAPE  H20S16425   2.091   2.838   4.676  1.2104  1.1602  1.6521
  149SAPE  H20T16426   2.255   2.812   4.600 -0.2642 -0.9429 -2.5254
  149SAPE   C3316427   1.710   3.377   5.885  0.9762 -0.2174  0.1678
  149SAPE   H3X16428   1.609   3.423   5.893  1.4184  0.6690  0.8929
  149SAPE   H3Y16429   1.687   3.276   5.924  2.7460 -0.2062  1.3579
  149SAPE   C3416430   1.763   3.370   5.748  0.1725 -0.5855 -0.3298
  149SAPE   H4X16431   1.855   3.308   5.750  1.4661  1.2227 -0.7623
  149SAPE   H4Y16432   1.791   3.472   5.715  0.4737  0.3671  2.5745
  149SAPE   C3516433   1.671   3.313   5.637  0.2801 -0.0463  0.1719
  149SAPE   H5X16434   1.586   3.384   5.623 -0.0425 -0.4023  0.2821
  149SAPE   H5Y16435   1.629   3.214   5.669  0.0933 -0.4090 -1.1407
  149SAPE   C3616436   1.765   3.314   5.511 -0.3662  0.1961 -0.1781
  149SAPE   H6X16437   1.842   3.237   5.535 -2.0942 -0.9339  2.0455
  149SAPE   H6Y16438   1.811   3.416   5.509 -0.9116  0.4441 -2.3047
  149SAPE   C3716439   1.704   3.285   5.375  0.3187  0.0993  0.5500
  149SAPE   H7X16440   1.626   3.360   5.351  1.8137  1.0810 -1.5792
  149SAPE   H7Y16441   1.654   3.185   5.377  0.9800 -0.2489  0.0224
  149SAPE   C3816442   1.816   3.299   5.262 -0.0765 -0.2769  0.0376
  149SAPE   H8X16443   1.884   3.214   5.288  1.7348  0.7306 -1.1590
  149SAPE   H8Y16444   1.872   3.394   5.272  0.7721 -0.9243  1.8389
  149SAPE   C3916445   1.759   3.268   5.120 -0.0389 -0.2195 -0.2299
  149SAPE   H9X16446   1.685   3.348   5.097  0.9463  1.0002  0.6803
  149SAPE   H9Y16447   1.697   3.176   5.118  0.0479 -0.2976  0.4835
  149SAPE  C31016448   1.866   3.260   5.015 -1.0525  0.0262  0.3423
  149SAPE  H10X16449   1.898   3.155   4.996  0.5561  0.7268 -1.1133
  149SAPE  H10Y16450   1.958   3.300   5.063 -0.8559 -3.0412  2.8809
  149SAPE  C31116451   1.835   3.341   4.891 -0.1085  0.6640  0.2446
  149SAPE  H11X16452   1.931   3.370   4.843  0.2375 -0.0674  0.4767
  149SAPE  H11Y16453   1.784   3.437   4.917 -0.6380 -0.0003  1.7681
  149SAPE  C31216454   1.739   3.253   4.814  0.2532  0.5895 -0.2478
  149SAPE  H12X16455   1.639   3.254   4.862 -0.1375  1.6792 -1.0474
  149SAPE  H12Y16456   1.767   3.146   4.806  1.1237  0.8236 -0.4718
  149SAPE  C31316457   1.720   3.288   4.669 -0.6578  0.0372  0.0929
  149SAPE  H13X16458   1.813   3.263   4.614  0.1460 -1.3795  1.9383
  149SAPE  H13Y16459   1.700   3.396   4.654 -1.3779 -0.0897  0.0960
  149SAPE  C31416460   1.608   3.208   4.610  0.1114 -0.6277 -0.5602
  149SAPE  H14X16461   1.505   3.244   4.631 -0.1153  1.6970 -4.5948
  149SAPE  H14Y16462   1.612   3.112   4.665 -0.2840 -0.0944  0.4421
  149SAPE  C31516463   1.618   3.192   4.461 -0.5715 -0.2981  0.3432
  149SAPE  H15X16464   1.536   3.134   4.412 -1.0495  1.8805 -1.6025
  149SAPE  H15Y16465   1.711   3.134   4.445 -0.5856 -0.9466  2.3601
  149SAPE  C31616466   1.622   3.330   4.395 -0.7531 -0.2562  0.7950
  149SAPE  H16X16467   1.708   3.393   4.427 -2.0957  1.9699  0.2194
  149SAPE  H16Y16468   1.534   3.392   4.420 -1.3330 -1.0619  0.7892
  149SAPE  C31716469   1.632   3.314   4.235  0.0429  0.2389 -0.2385
  149SAPE  H17X16470   1.723   3.257   4.207 -1.6023 -1.0105 -3.3981
  149SAPE  H17Y16471   1.660   3.416   4.200  0.2944 -0.0269 -0.8245
  149SAPE  C31816472   1.507   3.250   4.173 -0.7228 -0.4140 -0.1361
  149SAPE  H18X16473   1.421   3.309   4.209  0.0921  0.7359 -0.0344
  149SAPE  H18Y16474   1.486   3.144   4.201  0.3341 -0.4900  0.4290
  149SAPE  H18Z16475   1.516   3.267   4.064 -0.6432 -1.3301 -0.2795
  150SAPE     N16476   5.423   3.003   6.756  0.0721  0.3440  0.2317
  150SAPE   HN116477   5.381   3.053   6.675 -2.7595  1.0081  1.9659
  150SAPE   HN216478   5.521   3.030   6.781  0.8969 -2.8434  0.8234
  150SAPE   HN316479   5.427   2.905   6.723  0.3619  0.0784  1.0318
  150SAPE   C1216480   5.340   3.001   6.879  0.0504  0.0485  0.0245
  150SAPE  H12A16481   5.348   3.096   6.935 -0.3519  0.8156 -1.1645
  150SAPE  H12B16482   5.380   2.914   6.935  0.3911  0.0343 -0.2374
  150SAPE   C1116483   5.192   2.987   6.841 -0.1065  0.6918 -0.1307
  150SAPE  H11A16484   5.125   2.961   6.926  0.1091  1.9488  0.4440
  150SAPE  H11B16485   5.190   2.896   6.777 -3.2916 -0.0185  0.7896
  150SAPE     P16486   5.128   3.117   6.620  0.2806  0.2765  0.0236
  150SAPE   O1316487   5.031   3.224   6.605  0.2890  0.1230  0.2110
  150SAPE   O1416488   5.264   3.129   6.567  0.1030 -0.1240 -0.1162
  150SAPE   O1216489   5.140   3.099   6.776 -0.5163  0.1735  0.0226
  150SAPE   O1116490   5.068   2.979   6.574 -0.4529  0.4187  0.6054
  150SAPE    C116491   4.930   2.945   6.557 -0.3891 -0.7356 -0.5853
  150SAPE    HA16492   4.880   2.879   6.632 -3.3241  0.3016 -1.4963
  150SAPE    HB16493   4.876   3.042   6.562 -0.4204 -0.6586 -1.9451
  150SAPE    C216494   4.896   2.878   6.419 -0.8390 -0.4125  0.6051
  150SAPE    HS16495   4.891   2.768   6.430 -2.8334 -0.2211  2.2988
  150SAPE   O2116496   4.991   2.932   6.323 -0.2457 -0.0015  0.1241
  150SAPE   C2116497   5.014   2.854   6.228 -0.6775 -0.5039  0.4220
  150SAPE   O2216498   4.964   2.746   6.212  0.4145 -0.2514 -0.1588
  150SAPE   C2216499   5.109   2.923   6.124  0.5958  0.7133  0.1806
  150SAPE   H2R16500   5.053   3.006   6.076  2.1501  1.2099 -0.8431
  150SAPE   H2S16501   5.196   2.964   6.180 -1.2793  2.0298  2.3181
  150SAPE    C316502   4.761   2.930   6.369  0.0633 -0.9449 -0.8146
  150SAPE    HX16503   4.789   3.036   6.356  2.5738 -1.3164  0.8190
  150SAPE    HY16504   4.684   2.922   6.450  2.5297  1.2664  1.9749
  150SAPE   O3116505   4.721   2.883   6.238 -0.3660  0.3421 -0.1938
  150SAPE   C3116506   4.645   2.777   6.238  0.3811  0.3035  0.1006
  150SAPE   O3216507   4.601   2.715   6.332  0.6714  0.0389  0.4379
  150SAPE   C3216508   4.613   2.733   6.096 -0.3968 -1.1782 -0.0470
  150SAPE   H2X16509   4.510   2.764   6.070  0.3819  0.1708 -1.7350
  150SAPE   H2Y16510   4.612   2.622   6.100  1.3975 -1.2632 -0.6340
  150SAPE   C2316511   5.154   2.816   6.020 -1.0017  0.3501 -0.6264
  150SAPE   H3R16512   5.066   2.794   5.956 -2.1812 -0.6586  1.2696
  150SAPE   H3S16513   5.176   2.721   6.073 -3.2371  0.8132  1.2730
  150SAPE   C2416514   5.275   2.874   5.936  0.1963 -0.2631  0.0613
  150SAPE   H4R16515   5.324   2.791   5.881  0.7814 -0.4706  0.8799
  150SAPE   H4S16516   5.346   2.911   6.013 -1.1931 -1.6869  2.1264
  150SAPE   C2516517   5.227   2.991   5.843 -0.1457  0.0220 -0.2219
  150SAPE   H5R16518   5.210   3.082   5.901  0.5655  0.2435 -0.3495
  150SAPE   C2616519   5.173   2.980   5.716  0.1238  0.5278 -0.6125
  150SAPE   H6R16520   5.163   3.078   5.667  1.9534 -0.0077 -2.1843
  150SAPE   C2716521   5.170   2.851   5.648  0.2382 -0.0788  0.9353
  150SAPE   H7R16522   5.106   2.782   5.707 -3.3916  3.2229  1.3025
  150SAPE   H7S16523   5.275   2.818   5.634  0.0170  0.4487 -3.1754
  150SAPE   C2816524   5.105   2.858   5.508  0.1549  0.0710  0.0279
  150SAPE   H8R16525   4.997   2.836   5.504  0.0441  0.7330 -1.3845
  150SAPE   C2916526   5.152   2.907   5.390  0.6868  0.5754 -0.5323
  150SAPE   H9R16527   5.076   2.917   5.311  0.6791  0.5497 -0.5282
  150SAPE  C21016528   5.288   2.971   5.372 -0.1032 -0.0083 -0.6824
  150SAPE  H10R16529   5.353   2.912   5.304 -0.7581  0.9463 -2.1964
  150SAPE  H10S16530   5.331   2.973   5.474 -2.9592  1.0379  0.6187
  150SAPE  C21116531   5.304   3.119   5.329  0.6297 -0.1574  0.2289
  150SAPE  H11R16532   5.277   3.196   5.403 -0.7597  0.4454 -0.8483
  150SAPE  C21216533   5.339   3.169   5.209  0.3649 -0.6991 -0.8784
  150SAPE  H12R16534   5.352   3.277   5.198  1.3718 -0.3054  2.9210
  150SAPE  C21316535   5.353   3.094   5.081 -0.3515 -0.4740  0.6861
  150SAPE  H13R16536   5.289   3.147   5.007 -0.3754  0.9603  1.6859
  150SAPE  H13S16537   5.308   2.993   5.087  1.2800 -1.3032 -0.3260
  150SAPE  C21416538   5.493   3.093   5.040  0.3732  0.2528  0.1453
  150SAPE  H14R16539   5.562   3.056   5.117  1.0242  1.5328  0.2162
  150SAPE  C21516540   5.545   3.132   4.917 -0.0561  0.1734  0.0826
  150SAPE  H15R16541   5.654   3.148   4.906 -0.0805 -0.3463 -0.9881
  150SAPE  C21616542   5.468   3.166   4.790 -0.3544  0.1446  0.4077
  150SAPE  H16R16543   5.477   3.276   4.782 -4.9339  0.7245  0.4370
  150SAPE  H16S16544   5.359   3.149   4.806 -0.0635 -1.9181  0.4474
  150SAPE  C21716545   5.495   3.102   4.652  0.3616  0.1876  0.0872
  150SAPE  H17R16546   5.425   3.156   4.584 -0.6104  0.8947  1.6061
  150SAPE  H17S16547   5.469   2.994   4.651 -1.5415  0.6095 -0.9990
  150SAPE  C21816548   5.640   3.121   4.596  0.0445 -0.9973 -0.8388
  150SAPE  H18R16549   5.655   3.040   4.522  0.1288 -0.9869 -0.8332
  150SAPE  H18S16550   5.708   3.112   4.684  0.1950  1.4869 -0.6291
  150SAPE  C21916551   5.657   3.259   4.533 -0.1116  0.9544 -0.3039
  150SAPE  H19R16552   5.612   3.329   4.606 -0.5954 -1.0807  1.4400
  150SAPE  H19S16553   5.591   3.252   4.443 -1.0710 -1.4226  0.5101
  150SAPE  C22016554   5.803   3.293   4.488 -0.1022 -0.0678 -0.1476
  150SAPE  H20R16555   5.829   3.231   4.400 -3.7584  0.1540 -1.5553
  150SAPE  H20S16556   5.879   3.274   4.568 -0.6609 -3.1248 -0.2416
  150SAPE  H20T16557   5.822   3.402   4.471  1.4436 -0.1320  0.9632
  150SAPE   C3316558   4.709   2.788   5.990  0.4273  0.1721 -0.1187
  150SAPE   H3X16559   4.803   2.739   6.024 -1.0094 -0.7511  2.9379
  150SAPE   H3Y16560   4.727   2.897   6.004  1.3248  0.1898 -1.2426
  150SAPE   C3416561   4.674   2.755   5.846 -0.1850  0.9103  0.9585
  150SAPE   H4X16562   4.565   2.769   5.829 -0.4635 -1.3428  0.6932
  150SAPE   H4Y16563   4.700   2.649   5.828  1.3843  1.1292  1.7454
  150SAPE   C3516564   4.745   2.838   5.744 -0.0760 -0.1291 -0.9399
  150SAPE   H5X16565   4.853   2.815   5.733  0.3365  2.2876 -2.5689
  150SAPE   H5Y16566   4.754   2.945   5.773  2.0943 -0.9053  1.6132
  150SAPE   C3616567   4.666   2.841   5.613  0.6482 -0.1854 -0.0067
  150SAPE   H6X16568   4.557   2.857   5.629  0.1861 -2.0758 -0.9306
  150SAPE   H6Y16569   4.672   2.744   5.559  1.2817 -0.2304  0.1387
  150SAPE   C3716570   4.724   2.953   5.523 -0.0716  0.3200  0.0178
  150SAPE   H7X16571   4.832   2.964   5.544  0.1037 -1.1389 -0.0186
  150SAPE   H7Y16572   4.669   3.045   5.554  1.5562  1.1474  0.5909
  150SAPE   C3816573   4.710   2.917   5.367  0.5118 -0.7340 -0.1206
  150SAPE   H8X16574   4.745   2.813   5.351  0.7213 -0.6202 -0.4010
  150SAPE   H8Y16575   4.780   2.986   5.315  1.0266 -1.7758 -0.8463
  150SAPE   C3916576   4.567   2.929   5.314  0.1332  0.4502  0.6006
  150SAPE   H9X16577   4.510   3.017   5.348  0.9085  1.9849 -1.8271
  150SAPE   H9Y16578   4.514   2.844   5.364 -1.7233  0.7162 -0.7913
  150SAPE  C31016579   4.561   2.909   5.158  0.1008 -1.6667  0.4111
  150SAPE  H10X16580   4.462   2.908   5.108  0.7635 -3.7778 -0.9782
  150SAPE  H10Y16581   4.620   2.819   5.128 -2.4019 -4.1987  2.4333
  150SAPE  C31116582   4.652   3.020   5.091 -0.1685 -0.5224 -0.2818
  150SAPE  H11X16583   4.760   3.009   5.114 -0.4230  1.4983  2.5013
  150SAPE  H11Y16584   4.611   3.118   5.124 -0.5082 -0.0773 -1.9564
  150SAPE  C31216585   4.638   3.012   4.938 -0.2712  0.4061 -0.2069
  150SAPE  H12X16586   4.534   3.031   4.903 -0.4268  0.6474  0.3611
  150SAPE  H12Y16587   4.647   2.909   4.898 -0.2341  0.5794 -0.6446
  150SAPE  C31316588   4.729   3.110   4.860 -0.5009  0.2201 -0.2908
  150SAPE  H13X16589   4.836   3.092   4.883 -0.4688  0.3993 -0.2972
  150SAPE  H13Y16590   4.697   3.210   4.896  0.6801  0.4415  0.1893
  150SAPE  C31416591   4.701   3.104   4.714  0.2758 -0.0876  0.8924
  150SAPE  H14X16592   4.591   3.110   4.709  0.0979 -0.3854  3.3692
  150SAPE  H14Y16593   4.728   3.005   4.673 -0.2057  0.5602 -1.1002
  150SAPE  C31516594   4.757   3.215   4.620 -0.0279 -0.5972 -0.0508
  150SAPE  H15X16595   4.719   3.312   4.657  0.4893 -1.0837  1.8494
  150SAPE  H15Y16596   4.701   3.206   4.525  0.5226 -2.8489 -0.2216
  150SAPE  C31616597   4.910   3.220   4.591  0.2274  0.3921 -0.0808
  150SAPE  H16X16598   4.943   3.123   4.548  1.7974  0.4746  0.8623
  150SAPE  H16Y16599   4.972   3.234   4.683 -1.5694 -1.7500  1.5717
  150SAPE  C31716600   4.961   3.328   4.494 -0.3734 -0.4300  0.0602
  150SAPE  H17X16601   4.906   3.423   4.512  0.2477 -0.4116  2.0787
  150SAPE  H17Y16602   4.943   3.294   4.390 -0.6933  0.2180 -0.1015
  150SAPE  C31816603   5.114   3.363   4.510 -0.1633 -0.9826  0.4381
  150SAPE  H18X16604   5.137   3.439   4.433  0.8239 -0.4471  1.2311
  150SAPE  H18Y16605   5.170   3.268   4.499  0.3759 -0.4695 -1.6194
  150SAPE  H18Z16606   5.135   3.408   4.610 -0.6497  1.7101 -0.5912
  151SAPE     N16607   5.647   1.124   6.745 -0.5755 -0.1781  0.7780
  151SAPE   HN116608   5.666   1.227   6.746  1.8182 -0.3453 -3.2293
  151SAPE   HN216609   5.569   1.097   6.808  1.0462 -1.3495  2.3584
  151SAPE   HN316610   5.733   1.077   6.780  0.1861 -1.2227 -2.1760
  151SAPE   C1216611   5.598   1.100   6.614 -0.0244 -0.3659  0.2599
  151SAPE  H12A16612   5.613   0.993   6.587 -0.0133  0.0332 -1.4297
  151SAPE  H12B16613   5.660   1.174   6.558 -0.0651 -0.0662  0.6086
  151SAPE   C1116614   5.451   1.128   6.595 -0.8003  0.1938 -0.4046
  151SAPE  H11A16615   5.416   1.090   6.496  0.3032 -1.0034 -0.3634
  151SAPE  H11B16616   5.433   1.237   6.610 -1.3064 -0.0195  0.5687
  151SAPE     P16617   5.306   1.121   6.818 -0.0172 -0.5438 -0.3116
  151SAPE   O1316618   5.207   1.027   6.876  0.5281 -0.1581  0.2888
  151SAPE   O1416619   5.415   1.169   6.909 -0.7404 -0.3790 -0.8313
  151SAPE   O1216620   5.370   1.053   6.690  0.1138 -0.2192 -0.1129
  151SAPE   O1116621   5.224   1.241   6.754  0.2219  0.1580 -0.0887
  151SAPE    C116622   5.102   1.207   6.673 -0.0186 -0.3592  0.0404
  151SAPE    HA16623   5.108   1.106   6.626 -3.5230 -0.3295 -0.7424
  151SAPE    HB16624   5.018   1.203   6.746  1.0214 -1.0814  1.2473
  151SAPE    C216625   5.062   1.317   6.571 -0.2810  0.1593  1.2084
  151SAPE    HS16626   4.957   1.291   6.544  0.6383 -0.4433 -2.3025
  151SAPE   O2116627   5.144   1.317   6.457  0.6804 -0.2762 -0.7174
  151SAPE   C2116628   5.107   1.221   6.372 -0.4112 -0.0850 -0.6294
  151SAPE   O2216629   5.005   1.153   6.375  0.4259 -0.3740 -0.4228
  151SAPE   C2216630   5.208   1.230   6.260  0.2680 -0.2917 -0.1231
  151SAPE   H2R16631   5.227   1.338   6.242 -0.8517  0.2810  1.9354
  151SAPE   H2S16632   5.301   1.186   6.301  1.8670  3.5254  0.7694
  151SAPE    C316633   5.044   1.469   6.623 -0.3561  0.6151  0.0474
  151SAPE    HX16634   5.145   1.516   6.627 -0.0399  0.0454 -0.9634
  151SAPE    HY16635   4.990   1.470   6.720 -1.2936  0.0441 -0.4494
  151SAPE   O3116636   4.975   1.557   6.529  0.7607 -0.0254  0.0937
  151SAPE   C3116637   4.843   1.529   6.515  0.4563  0.4025 -0.2158
  151SAPE   O3216638   4.782   1.440   6.569 -0.0929  0.3148  0.2370
  151SAPE   C3216639   4.779   1.621   6.416 -0.2042 -0.8050  0.1692
  151SAPE   H2X16640   4.838   1.715   6.409  0.3300 -0.9137  2.5082
  151SAPE   H2Y16641   4.675   1.639   6.452 -1.3051 -0.8230 -2.7007
  151SAPE   C2316642   5.178   1.167   6.128  0.2857 -0.8921  0.0855
  151SAPE   H3R16643   5.081   1.210   6.096  0.9144 -1.0861 -2.2516
  151SAPE   H3S16644   5.169   1.057   6.143 -0.8682 -0.7269  0.6792
  151SAPE   C2416645   5.271   1.192   6.008 -0.0760  0.5525 -0.3878
  151SAPE   H4R16646   5.355   1.121   6.019 -1.5712 -1.2403 -0.0165
  151SAPE   H4S16647   5.315   1.293   6.025  2.3125 -0.6562  1.2906
  151SAPE   C2516648   5.207   1.180   5.876  0.5831  0.3426 -0.3889
  151SAPE   H5R16649   5.112   1.125   5.874  1.1313 -0.6569 -2.7013
  151SAPE   C2616650   5.230   1.251   5.763 -0.0773  0.1536 -1.0981
  151SAPE   H6R16651   5.162   1.246   5.676  0.0608  1.5682 -1.3158
  151SAPE   C2716652   5.348   1.339   5.733 -0.2811 -0.1933 -0.6674
  151SAPE   H7R16653   5.399   1.302   5.642  0.0581 -0.3250 -0.4270
  151SAPE   H7S16654   5.412   1.330   5.823 -2.2190  2.1121  1.1023
  151SAPE   C2816655   5.310   1.484   5.723 -0.2239 -0.9814  0.8144
  151SAPE   H8R16656   5.271   1.521   5.819  0.7862 -1.4413  1.4073
  151SAPE   C2916657   5.307   1.571   5.618 -0.3080  0.2716  0.2264
  151SAPE   H9R16658   5.278   1.675   5.636 -1.4025  0.4090 -2.0121
  151SAPE  C21016659   5.353   1.539   5.479 -0.6714  0.4199  0.3272
  151SAPE  H10R16660   5.271   1.535   5.405  1.5557 -3.3199 -2.2752
  151SAPE  H10S16661   5.409   1.445   5.460  0.2743  0.6531  1.7622
  151SAPE  C21116662   5.446   1.646   5.423 -0.6582 -0.2163 -0.7319
  151SAPE  H11R16663   5.531   1.671   5.488 -0.5879  1.9219 -1.5601
  151SAPE  C21216664   5.439   1.725   5.314 -0.1476  0.0791 -0.0633
  151SAPE  H12R16665   5.510   1.807   5.297  1.3172 -1.4716 -1.8651
  151SAPE  C21316666   5.334   1.714   5.202  0.3943 -0.1142  0.0851
  151SAPE  H13R16667   5.254   1.790   5.217  1.0576  0.2990  1.6929
  151SAPE  H13S16668   5.291   1.611   5.199  0.0902  0.0405 -1.8471
  151SAPE  C21416669   5.389   1.750   5.070  0.0385  0.6601  0.0609
  151SAPE  H14R16670   5.445   1.845   5.067 -3.6232  3.0907  1.4114
  151SAPE  C21516671   5.388   1.667   4.961  0.1853  0.8189  0.2728
  151SAPE  H15R16672   5.443   1.695   4.870 -1.0922  0.8467 -0.5151
  151SAPE  C21616673   5.331   1.524   4.953 -0.0005 -0.7250  0.3351
  151SAPE  H16R16674   5.270   1.527   4.860 -1.3992  1.0730  1.2480
  151SAPE  H16S16675   5.245   1.511   5.022  0.0082 -0.2387  0.4440
  151SAPE  C21716676   5.432   1.407   4.958  0.0326 -0.2317  0.0176
  151SAPE  H17R16677   5.497   1.409   4.868  0.4622 -0.8147  0.3100
  151SAPE  H17S16678   5.390   1.304   4.953  1.7244 -0.8881 -2.4822
  151SAPE  C21816679   5.527   1.424   5.075 -0.7522 -0.3303  0.4037
  151SAPE  H18R16680   5.463   1.397   5.162 -2.7751  0.4660 -0.7629
  151SAPE  H18S16681   5.572   1.525   5.084  0.2193 -0.6780 -0.3981
  151SAPE  C21916682   5.648   1.329   5.061  0.1575  0.1552  0.1133
  151SAPE  H19R16683   5.614   1.227   5.034  1.0103  0.2398 -1.3804
  151SAPE  H19S16684   5.707   1.325   5.155  0.8100 -0.0120 -0.2983
  151SAPE  C22016685   5.753   1.363   4.948  0.4249 -0.5266  0.1081
  151SAPE  H20R16686   5.799   1.463   4.963 -0.2756 -0.2117  0.2240
  151SAPE  H20S16687   5.713   1.370   4.844  0.2699 -0.2697  0.1837
  151SAPE  H20T16688   5.834   1.288   4.948  3.1084  2.1664  1.6087
  151SAPE   C3316689   4.742   1.552   6.289  0.1732  0.3398  0.1343
  151SAPE   H3X16690   4.686   1.620   6.222 -1.8130 -2.1184 -0.9036
  151SAPE   H3Y16691   4.695   1.451   6.294 -0.8301  0.7696 -0.3769
  151SAPE   C3416692   4.875   1.522   6.217  0.4153  0.5433  0.1876
  151SAPE   H4X16693   4.929   1.456   6.288 -2.4301 -1.8061  0.3360
  151SAPE   H4Y16694   4.933   1.617   6.216  1.5343 -0.1195 -1.3698
  151SAPE   C3516695   4.874   1.445   6.083 -0.2398  0.5733  0.2844
  151SAPE   H5X16696   4.805   1.359   6.096 -2.3860  2.3217  1.2152
  151SAPE   H5Y16697   4.975   1.403   6.068 -0.3353  0.4690 -0.0685
  151SAPE   C3616698   4.807   1.526   5.969 -0.0319 -0.4440  0.0540
  151SAPE   H6X16699   4.862   1.622   5.963  0.3597 -0.6936 -0.3708
  151SAPE   H6Y16700   4.701   1.549   5.994 -0.5735 -2.0965 -0.5666
  151SAPE   C3716701   4.803   1.470   5.824 -0.1804 -0.0971 -0.8785
  151SAPE   H7X16702   4.759   1.554   5.767 -0.5958 -1.0371 -1.9724
  151SAPE   H7Y16703   4.743   1.377   5.820 -1.3455  0.6479 -1.3167
  151SAPE   C3816704   4.941   1.443   5.771  0.2279  0.0835 -0.4547
  151SAPE   H8X16705   4.988   1.374   5.843  1.6344  0.6913 -0.7702
  151SAPE   H8Y16706   4.995   1.539   5.784  1.2781 -0.6709  0.9943
  151SAPE   C3916707   4.944   1.393   5.628  0.9540  0.1889  0.2348
  151SAPE   H9X16708   4.865   1.315   5.623  0.2706  0.8762  0.2180
  151SAPE   H9Y16709   5.046   1.361   5.595  1.7280  2.6583 -0.0088
  151SAPE  C31016710   4.892   1.506   5.528  0.5471 -0.1788 -0.4562
  151SAPE  H10X16711   4.976   1.577   5.515  0.1830 -0.0100 -2.1921
  151SAPE  H10Y16712   4.802   1.554   5.570  0.5968 -0.3936 -0.1021
  151SAPE  C31116713   4.853   1.445   5.392  0.5865 -0.2892 -0.3397
  151SAPE  H11X16714   4.761   1.383   5.404 -0.3465  0.7799 -1.6139
  151SAPE  H11Y16715   4.931   1.376   5.355  1.1024 -0.7564  1.5107
  151SAPE  C31216716   4.828   1.559   5.283 -0.0663  0.1999  0.4710
  151SAPE  H12X16717   4.741   1.620   5.316  0.8577  1.3199  0.8811
  151SAPE  H12Y16718   4.790   1.503   5.194  3.7975 -0.9613 -0.6657
  151SAPE  C31316719   4.956   1.629   5.235 -0.2764 -0.1978 -0.3859
  151SAPE  H13X16720   5.042   1.561   5.250 -0.0844 -0.3842 -2.0810
  151SAPE  H13Y16721   4.974   1.714   5.304  1.1524  1.1399 -2.2781
  151SAPE  C31416722   4.940   1.701   5.104  0.3538  0.2845 -0.1255
  151SAPE  H14X16723   5.015   1.780   5.082  0.4716  0.0375 -0.6306
  151SAPE  H14Y16724   4.839   1.744   5.116  0.9427  1.2956  1.6003
  151SAPE  C31516725   4.953   1.606   4.989  0.2637 -0.3964  0.5347
  151SAPE  H15X16726   4.880   1.522   4.994  1.1843 -1.5854 -2.7376
  151SAPE  H15Y16727   5.058   1.571   4.976  0.6603  1.1995 -0.9896
  151SAPE  C31616728   4.932   1.677   4.849  0.4825  0.3127 -0.4583
  151SAPE  H16X16729   5.025   1.736   4.833  0.4124  0.0313 -2.1516
  151SAPE  H16Y16730   4.858   1.758   4.864  0.2877  0.1491 -0.5300
  151SAPE  C31716731   4.920   1.596   4.730 -0.4402 -0.3361 -0.6123
  151SAPE  H17X16732   4.827   1.538   4.745  0.4519 -1.6838  0.0021
  151SAPE  H17Y16733   5.012   1.533   4.724 -0.6848 -0.9154  1.1922
  151SAPE  C31816734   4.914   1.688   4.607  0.2220 -0.3618  0.0612
  151SAPE  H18X16735   4.817   1.735   4.578  0.3369  0.9378  1.6162
  151SAPE  H18Y16736   4.941   1.637   4.513  0.7464 -1.1233  0.6145
  151SAPE  H18Z16737   4.983   1.773   4.627 -2.2435  2.0642 -1.0796
  152SAPE     N16738   1.370   2.346   6.757 -0.7484  0.7733 -0.3043
  152SAPE   HN116739   1.385   2.390   6.850 -0.2104  0.1496 -0.0919
  152SAPE   HN216740   1.273   2.310   6.750 -0.8488  1.3532 -3.6677
  152SAPE   HN316741   1.437   2.267   6.762  0.5733  1.8817  0.0490
  152SAPE   C1216742   1.399   2.437   6.638  0.2548  0.4789  0.4092
  152SAPE  H12A16743   1.366   2.378   6.550 -0.8549  1.6237  0.0277
  152SAPE  H12B16744   1.508   2.459   6.638  0.4073 -0.1703 -1.3349
  152SAPE   C1116745   1.319   2.564   6.637 -0.0060 -0.0797  0.4860
  152SAPE  H11A16746   1.210   2.544   6.635 -0.0582  0.2245 -0.2027
  152SAPE  H11B16747   1.333   2.620   6.542  0.5461  1.6289  1.5408
  152SAPE     P16748   1.267   2.744   6.822 -0.0372  0.1516  0.2149
  152SAPE   O1316749   1.216   2.686   6.951  0.1265 -0.0080  0.7255
  152SAPE   O1416750   1.337   2.868   6.836  0.0132 -0.3897  0.1447
  152SAPE   O1216751   1.364   2.642   6.748  0.1237  0.0748 -0.5778
  152SAPE   O1116752   1.143   2.765   6.719  0.0178  0.3619  0.6461
  152SAPE    C116753   1.085   2.888   6.685 -0.9861 -0.6015 -0.1981
  152SAPE    HA16754   1.018   2.937   6.759 -1.7327 -0.1601 -1.1446
  152SAPE    HB16755   1.165   2.959   6.655 -0.2879 -0.8343  1.0373
  152SAPE    C216756   0.993   2.885   6.560  0.1061  0.4371 -0.0558
  152SAPE    HS16757   0.899   2.830   6.581  1.3200 -1.2209  1.2770
  152SAPE   O2116758   1.072   2.819   6.458  0.0737 -0.8515  0.6127
  152SAPE   C2116759   1.040   2.686   6.450 -0.1475  0.4965 -0.1954
  152SAPE   O2216760   0.980   2.627   6.538  0.2533  0.1121 -0.2117
  152SAPE   C2216761   1.073   2.638   6.316  0.0456  0.2067  0.1402
  152SAPE   H2R16762   0.984   2.583   6.280  0.0948  0.3080 -0.1410
  152SAPE   H2S16763   1.103   2.720   6.247 -2.1926 -0.2239 -1.4696
  152SAPE    C316764   0.969   3.027   6.509  0.2570 -0.7586 -0.4313
  152SAPE    HX16765   1.062   3.085   6.527 -0.0869 -0.6557  1.1102
  152SAPE    HY16766   0.897   3.069   6.583  0.8730 -0.1262 -0.1807
  152SAPE   O3116767   0.914   3.040   6.375  0.5853  0.1737 -0.0321
  152SAPE   C3116768   0.910   3.162   6.326  0.1762 -0.2263  0.3347
  152SAPE   O3216769   0.953   3.263   6.380  0.0109  0.4644 -0.0380
  152SAPE   C3216770   0.821   3.163   6.200  0.7002 -0.0233 -0.3423
  152SAPE   H2X16771   0.739   3.235   6.222  2.7723  1.9368  1.3957
  152SAPE   H2Y16772   0.784   3.061   6.178 -0.3092  0.8885 -3.4548
  152SAPE   C2316773   1.203   2.551   6.298 -0.2649  0.0475 -0.3124
  152SAPE   H3R16774   1.173   2.452   6.338 -2.7771  0.9675  0.3013
  152SAPE   H3S16775   1.294   2.592   6.346 -0.8772 -0.5914  1.4726
  152SAPE   C2416776   1.244   2.537   6.154  0.3433 -0.0601  0.5546
  152SAPE   H4R16777   1.330   2.468   6.141  1.7158  1.2537  2.2080
  152SAPE   H4S16778   1.272   2.641   6.129 -0.0098 -0.6204 -2.7193
  152SAPE   C2516779   1.134   2.499   6.055  0.4755 -0.6997  0.2062
  152SAPE   H5R16780   1.082   2.407   6.087  0.3319  0.1488  2.5584
  152SAPE   C2616781   1.088   2.562   5.942 -0.1360  0.8488 -0.3048
  152SAPE   H6R16782   1.003   2.522   5.884 -2.0376 -1.0225  3.4161
  152SAPE   C2716783   1.136   2.695   5.890 -0.4108 -0.3818  0.5213
  152SAPE   H7R16784   1.173   2.687   5.785 -0.1484 -3.2367  0.7500
  152SAPE   H7S16785   1.225   2.720   5.953 -1.1185 -0.6368  1.6456
  152SAPE   C2816786   1.026   2.802   5.899 -0.0489 -0.6561  0.2593
  152SAPE   H8R16787   0.997   2.832   6.001 -1.1135  0.2960 -0.3131
  152SAPE   C2916788   0.963   2.876   5.799  1.0314  0.5712  0.0287
  152SAPE   H9R16789   0.885   2.949   5.824  0.6305 -0.3254  1.5655
  152SAPE  C21016790   0.990   2.864   5.645  0.1248  0.6430 -0.0127
  152SAPE  H10R16791   0.897   2.890   5.589  0.4381  0.6979 -0.5161
  152SAPE  H10S16792   1.008   2.760   5.611 -3.5219 -0.0688 -0.1380
  152SAPE  C21116793   1.099   2.959   5.596 -0.5548  0.5175 -0.5119
  152SAPE  H11R16794   1.163   3.008   5.671 -2.0006  0.7626  0.6009
  152SAPE  C21216795   1.142   2.969   5.470 -0.1346 -0.1371  0.5374
  152SAPE  H12R16796   1.221   3.039   5.438 -0.4415 -0.0455 -0.0360
  152SAPE  C21316797   1.084   2.888   5.354 -0.1834  0.5139 -0.0848
  152SAPE  H13R16798   1.104   2.942   5.258 -0.1290  0.3820 -0.1480
  152SAPE  H13S16799   0.975   2.883   5.374 -0.3898  0.5804 -1.1386
  152SAPE  C21416800   1.131   2.747   5.326 -0.1598  0.3672 -0.4419
  152SAPE  H14R16801   1.174   2.695   5.413 -2.6358 -1.9064 -0.4348
  152SAPE  C21516802   1.141   2.675   5.214  0.0532 -0.6318 -0.1478
  152SAPE  H15R16803   1.185   2.575   5.224  3.6240  0.9775  3.0746
  152SAPE  C21616804   1.090   2.717   5.077 -0.2647  0.5543  0.4851
  152SAPE  H16R16805   1.034   2.813   5.077 -2.4862 -0.6182 -1.9138
  152SAPE  H16S16806   1.027   2.641   5.028  4.8142 -2.2924 -2.4872
  152SAPE  C21716807   1.210   2.737   4.978 -0.7370  0.0518 -0.4769
  152SAPE  H17R16808   1.289   2.659   4.981  0.0945  0.9013  0.9359
  152SAPE  H17S16809   1.265   2.821   5.026 -0.4181 -1.5946  2.2917
  152SAPE  C21816810   1.165   2.766   4.839  0.0153  0.2723  0.2661
  152SAPE  H18R16811   1.081   2.838   4.853  0.1975  0.3255  1.0801
  152SAPE  H18S16812   1.109   2.684   4.788 -2.6445  1.1358  1.6036
  152SAPE  C21916813   1.283   2.819   4.753  0.3796  0.5929  0.1683
  152SAPE  H19R16814   1.377   2.762   4.772  0.9812  1.6466  0.4132
  152SAPE  H19S16815   1.302   2.923   4.787  0.2973  0.7816 -0.3641
  152SAPE  C22016816   1.261   2.824   4.600 -0.3417  0.6417  0.8584
  152SAPE  H20R16817   1.156   2.846   4.568  0.0697  1.1877 -0.1586
  152SAPE  H20S16818   1.283   2.723   4.560 -1.1022  0.4977  0.7766
  152SAPE  H20T16819   1.324   2.894   4.542 -1.0122 -1.1086 -2.1834
  152SAPE   C3316820   0.878   3.214   6.059  0.4169  0.4943  0.6605
  152SAPE   H3X16821   0.929   3.128   6.010 -0.7304  0.5488 -0.6961
  152SAPE   H3Y16822   0.951   3.297   6.070 -0.6486  1.8040 -1.4053
  152SAPE   C3416823   0.779   3.273   5.948  0.3973 -0.4036 -0.2368
  152SAPE   H4X16824   0.727   3.363   5.989 -1.0114 -0.7786 -1.1270
  152SAPE   H4Y16825   0.697   3.200   5.937  1.0179 -1.1532  0.0121
  152SAPE   C3516826   0.856   3.301   5.818  0.0970  0.5776  0.6555
  152SAPE   H5X16827   0.860   3.204   5.765  0.8583  0.9568 -0.0056
  152SAPE   H5Y16828   0.963   3.324   5.838  0.2716 -0.3975  0.8639
  152SAPE   C3616829   0.785   3.400   5.725  0.0355  0.4373  0.9495
  152SAPE   H6X16830   0.784   3.505   5.761 -3.3313  0.9277 -0.1489
  152SAPE   H6Y16831   0.674   3.395   5.725 -0.1712  3.2477  0.3835
  152SAPE   C3716832   0.830   3.409   5.580 -0.0849  0.2603  0.5948
  152SAPE   H7X16833   0.937   3.441   5.583  0.5036 -1.0469 -2.0982
  152SAPE   H7Y16834   0.769   3.491   5.537  0.0087  1.3370  2.4571
  152SAPE   C3816835   0.818   3.287   5.492  0.7956 -0.3321  0.1556
  152SAPE   H8X16836   0.710   3.262   5.488  0.4487  1.2184 -2.0852
  152SAPE   H8Y16837   0.876   3.196   5.521 -0.4780 -1.9655 -2.0980
  152SAPE   C3916838   0.846   3.311   5.347  0.3396  0.3955 -0.0991
  152SAPE   H9X16839   0.941   3.368   5.337 -0.0610  1.2193  0.6660
  152SAPE   H9Y16840   0.760   3.369   5.306 -0.0939 -0.4874 -0.4631
  152SAPE  C31016841   0.864   3.173   5.263  0.3907  0.0034 -0.8906
  152SAPE  H10X16842   0.787   3.096   5.284  1.3110 -0.6258  0.3510
  152SAPE  H10Y16843   0.957   3.120   5.294  0.3321  0.7125  0.5866
  152SAPE  C31116844   0.863   3.197   5.118  0.2679  0.5289  0.0614
  152SAPE  H11X16845   0.948   3.259   5.083  1.4580 -1.8306 -1.5615
  152SAPE  H11Y16846   0.769   3.243   5.082  0.2244  0.2612 -0.1752
  152SAPE  C31216847   0.887   3.071   5.031  0.5183  0.4896  0.3228
  152SAPE  H12X16848   0.820   2.989   5.067  0.8230 -0.4668 -1.1699
  152SAPE  H12Y16849   0.991   3.037   5.051  0.0540 -1.3006 -0.0755
  152SAPE  C31316850   0.880   3.086   4.881  0.2759 -0.3099 -0.0288
  152SAPE  H13X16851   0.785   3.144   4.871 -1.0488 -1.7797  2.7381
  152SAPE  H13Y16852   0.850   2.990   4.834 -2.7314  0.1377  0.7724
  152SAPE  C31416853   1.000   3.168   4.823 -0.2153  0.0332 -0.3023
  152SAPE  H14X16854   1.087   3.098   4.832 -2.3978 -2.7198  0.9701
  152SAPE  H14Y16855   1.019   3.257   4.886  0.6280 -0.1378 -0.2942
  152SAPE  C31516856   0.980   3.211   4.679  0.0655  0.2146 -0.2144
  152SAPE  H15X16857   0.940   3.314   4.682  1.5768  0.9395 -2.6569
  152SAPE  H15Y16858   0.902   3.153   4.625 -0.9549  0.4046  1.0080
  152SAPE  C31616859   1.103   3.230   4.594 -1.0317  0.3403  0.3103
  152SAPE  H16X16860   1.142   3.131   4.561 -0.7056  0.7187 -0.4895
  152SAPE  H16Y16861   1.184   3.282   4.649 -1.8603  1.9587  0.0367
  152SAPE  C31716862   1.065   3.316   4.471 -0.5371 -0.0258 -0.0831
  152SAPE  H17X16863   1.042   3.418   4.508 -0.9439  0.6987 -2.1623
  152SAPE  H17Y16864   0.969   3.292   4.421 -0.5386 -0.4839  0.1365
  152SAPE  C31816865   1.181   3.308   4.366 -0.5261  0.1541  0.3316
  152SAPE  H18X16866   1.263   3.377   4.394 -1.7160  1.3988  0.8551
  152SAPE  H18Y16867   1.149   3.345   4.266  0.1060  0.9114  0.4057
  152SAPE  H18Z16868   1.226   3.207   4.359 -0.5572  0.2493 -1.6403
  153SAPE     N16869   0.018   2.694   6.654 -0.2692  0.5642 -0.0426
  153SAPE   HN116870   0.046   2.596   6.670  2.6162  1.3911  0.6259
  153SAPE   HN216871   0.069   2.746   6.728  1.7667  0.9542 -1.6550
  153SAPE   HN316872  -0.083   2.706   6.679 -0.5085 -0.0360 -0.7049
  153SAPE   C1216873   0.054   2.735   6.513 -0.3582  0.4571 -0.3813
  153SAPE  H12A16874  -0.003   2.684   6.433  0.3880 -2.1761  0.6675
  153SAPE  H12B16875   0.156   2.696   6.494  0.2135  2.0048 -0.6821
  153SAPE   C1116876   0.056   2.888   6.488  0.3665  0.2959  0.4644
  153SAPE  H11A16877   0.065   2.893   6.378 -0.4806 -0.0844  0.3623
  153SAPE  H11B16878   0.142   2.939   6.537 -0.1713  0.0571  1.7151
  153SAPE     P16879  -0.203   2.974   6.482 -0.0432  0.2506 -0.3069
  153SAPE   O1316880  -0.306   2.912   6.570  0.0010 -0.4907 -0.0099
  153SAPE   O1416881  -0.206   3.121   6.460  0.5874  0.5709 -0.4841
  153SAPE   O1216882  -0.059   2.943   6.546  0.0214  0.6350  0.5924
  153SAPE   O1116883  -0.215   2.890   6.351 -0.2114 -0.0006 -0.4559
  153SAPE    C116884  -0.331   2.921   6.270 -0.3710 -0.4211 -0.3690
  153SAPE    HA16885  -0.389   2.830   6.243 -2.3295  0.2830  1.2129
  153SAPE    HB16886  -0.407   2.974   6.332  0.2019 -1.7705  1.6028
  153SAPE    C216887  -0.287   2.988   6.134  0.5203  0.3761  0.1486
  153SAPE    HS16888  -0.242   2.904   6.077 -1.4781  0.9365 -2.4560
  153SAPE   O2116889  -0.207   3.103   6.148  0.4053  0.0341 -0.0145
  153SAPE   C2116890  -0.080   3.071   6.168  0.4924  0.5184  0.1186
  153SAPE   O2216891  -0.028   2.965   6.139  0.4393  0.4024  0.4978
  153SAPE   C2216892  -0.004   3.197   6.213 -0.2959 -1.1182 -0.0720
  153SAPE   H2R16893  -0.072   3.262   6.271 -0.9337 -1.6135 -0.2509
  153SAPE   H2S16894   0.076   3.171   6.285 -0.2213 -0.4951  0.0759
  153SAPE    C316895  -0.407   3.022   6.043 -0.6346  0.3143  0.5580
  153SAPE    HX16896  -0.374   3.060   5.944 -0.1072  1.5852  1.2042
  153SAPE    HY16897  -0.464   3.105   6.090  0.6625  1.6620 -0.1863
  153SAPE   O3116898  -0.488   2.898   6.024  0.4444 -0.2431  0.2543
  153SAPE   C3116899  -0.555   2.885   5.909  0.8258 -0.1628 -0.1363
  153SAPE   O3216900  -0.559   2.970   5.823 -0.7560  0.1951 -0.3564
  153SAPE   C3216901  -0.644   2.760   5.907 -1.0553 -0.3245  0.0332
  153SAPE   H2X16902  -0.733   2.785   5.968 -0.9760 -0.8019  0.3515
  153SAPE   H2Y16903  -0.590   2.678   5.960 -1.7407  0.4106  1.9764
  153SAPE   C2316904   0.055   3.279   6.097  0.0370 -0.0780  0.1744
  153SAPE   H3R16905   0.110   3.352   6.160  1.2781 -0.7740 -0.0607
  153SAPE   H3S16906  -0.017   3.336   6.035 -0.7029  0.2347  1.3084
  153SAPE   C2416907   0.157   3.201   6.007 -0.4679  0.3558  0.5430
  153SAPE   H4R16908   0.164   3.266   5.917  0.6996  0.8628  0.9711
  153SAPE   H4S16909   0.117   3.107   5.964 -1.1523  1.0117 -0.2922
  153SAPE   C2516910   0.296   3.194   6.075  0.4342 -0.5616 -0.6777
  153SAPE   H5R16911   0.301   3.126   6.161 -2.3678  0.5254  0.4742
  153SAPE   C2616912   0.409   3.265   6.036  0.4055  0.2183  0.9233
  153SAPE   H6R16913   0.494   3.236   6.099  1.5007 -1.6641 -1.2364
  153SAPE   C2716914   0.422   3.347   5.920  0.1892 -0.5769 -0.3396
  153SAPE   H7R16915   0.523   3.394   5.925 -0.0002  0.3571 -3.4245
  153SAPE   H7S16916   0.366   3.442   5.933  1.0050 -0.2472  1.0078
  153SAPE   C2816917   0.393   3.278   5.790 -0.9798  0.4094 -0.2034
  153SAPE   H8R16918   0.397   3.168   5.791  0.3779  0.4479  0.0046
  153SAPE   C2916919   0.367   3.341   5.682  0.0241 -0.2323 -0.9904
  153SAPE   H9R16920   0.339   3.282   5.593 -1.3998  1.2776 -1.6169
  153SAPE  C21016921   0.357   3.490   5.664  0.2126 -0.1892 -0.7506
  153SAPE  H10R16922   0.463   3.523   5.673  0.6625 -1.5910 -0.6023
  153SAPE  H10S16923   0.292   3.528   5.746 -0.1934  0.3592 -1.3148
  153SAPE  C21116924   0.294   3.535   5.532 -0.0758 -0.1555 -0.5047
  153SAPE  H11R16925   0.186   3.552   5.549 -0.2914 -1.5271 -0.4145
  153SAPE  C21216926   0.354   3.556   5.411  1.0945 -0.3424  0.0862
  153SAPE  H12R16927   0.297   3.590   5.323  1.2052 -2.3072 -0.7955
  153SAPE  C21316928   0.502   3.535   5.373  0.0780 -0.1489 -0.3748
  153SAPE  H13R16929   0.518   3.437   5.323 -0.5264 -0.5008  0.1029
  153SAPE  H13S16930   0.557   3.518   5.468 -0.3488  0.2356 -0.0565
  153SAPE  C21416931   0.561   3.644   5.300 -0.3495  0.7627 -0.5231
  153SAPE  H14R16932   0.593   3.728   5.363 -0.5453 -1.5097  2.8662
  153SAPE  C21516933   0.584   3.643   5.166 -0.0020 -1.1376 -0.4669
  153SAPE  H15R16934   0.647   3.720   5.120 -0.0802 -0.1486  1.0412
  153SAPE  C21616935   0.547   3.537   5.072  0.2488 -0.0358  0.4439
  153SAPE  H16R16936   0.437   3.537   5.056  0.5007 -0.3162 -1.5714
  153SAPE  H16S16937   0.568   3.433   5.106  0.6796 -0.3524 -0.7123
  153SAPE  C21716938   0.624   3.552   4.934  0.5582 -0.9465  0.9525
  153SAPE  H17R16939   0.727   3.512   4.949  0.5305 -0.6543  2.0155
  153SAPE  H17S16940   0.623   3.658   4.899  1.2240 -1.1464  0.3098
  153SAPE  C21816941   0.564   3.478   4.812  0.2597  0.2290  0.4103
  153SAPE  H18R16942   0.490   3.543   4.760 -1.1225 -0.9108  0.8875
  153SAPE  H18S16943   0.508   3.395   4.861 -2.7653  1.1465 -1.2845
  153SAPE  C21916944   0.663   3.428   4.707  0.2914  0.3607 -0.0834
  153SAPE  H19R16945   0.756   3.391   4.756 -0.9638  0.2028  2.3033
  153SAPE  H19S16946   0.698   3.517   4.650 -0.1701  1.2545  1.0071
  153SAPE  C22016947   0.614   3.324   4.611  0.3998 -0.4919  0.1660
  153SAPE  H20R16948   0.584   3.238   4.675 -1.3180  1.0445  1.5456
  153SAPE  H20S16949   0.680   3.299   4.525  0.8424  0.1586  0.3070
  153SAPE  H20T16950   0.527   3.366   4.556  1.7207 -0.2964 -1.8768
  153SAPE   C3316951  -0.682   2.742   5.757  0.1556  0.4044 -0.7133
  153SAPE   H3X16952  -0.588   2.726   5.699 -0.2125 -0.7669 -1.0109
  153SAPE   H3Y16953  -0.736   2.831   5.717 -2.2177 -0.2219  0.9075
  153SAPE   C3416954  -0.766   2.621   5.730  0.4886  0.5739  1.5658
  153SAPE   H4X16955  -0.864   2.619   5.782 -1.2622  0.1186 -1.4709
  153SAPE   H4Y16956  -0.706   2.536   5.767  0.6607 -0.2898 -0.5331
  153SAPE   C3516957  -0.792   2.593   5.579 -0.0395  0.2691 -0.0284
  153SAPE   H5X16958  -0.691   2.593   5.533  2.0610  1.6515  4.1180
  153SAPE   H5Y16959  -0.848   2.681   5.541 -1.4363 -1.3745 -2.0317
  153SAPE   C3616960  -0.866   2.464   5.547 -0.2205  0.3640  0.5638
  153SAPE   H6X16961  -0.972   2.492   5.568  0.1997  0.7678  2.3298
  153SAPE   H6Y16962  -0.846   2.386   5.624 -2.1343  0.4783  1.2347
  153SAPE   C3716963  -0.851   2.403   5.408  0.4282 -0.5591  0.9993
  153SAPE   H7X16964  -0.937   2.335   5.389 -0.9535  0.9108  1.7787
  153SAPE   H7Y16965  -0.762   2.338   5.417  1.4148  0.5416 -0.4078
  153SAPE   C3816966  -0.834   2.489   5.286 -0.2179  1.1155  0.6507
  153SAPE   H8X16967  -0.745   2.556   5.288 -0.2251  1.1185  0.8365
  153SAPE   H8Y16968  -0.922   2.546   5.250  1.9324  3.1191 -1.8133
  153SAPE   C3916969  -0.803   2.395   5.168 -0.6163  0.1995  0.8937
  153SAPE   H9X16970  -0.878   2.316   5.151  1.2537 -1.1070 -2.0976
  153SAPE   H9Y16971  -0.700   2.353   5.172 -0.8947 -0.4560  1.2043
  153SAPE  C31016972  -0.791   2.488   5.048  0.6483  0.4516 -0.4423
  153SAPE  H10X16973  -0.713   2.565   5.066  0.3281  0.8828 -0.8467
  153SAPE  H10Y16974  -0.894   2.529   5.036 -0.5107 -2.3250 -0.7338
  153SAPE  C31116975  -0.750   2.409   4.920  0.7527  0.1227 -0.0984
  153SAPE  H11X16976  -0.825   2.327   4.909 -0.3154  0.9670  0.7134
  153SAPE  H11Y16977  -0.647   2.368   4.928  0.6578 -0.1423 -0.2177
  153SAPE  C31216978  -0.738   2.513   4.809  0.3677  0.2295  0.6574
  153SAPE  H12X16979  -0.678   2.602   4.837  2.8321 -0.7062 -1.2350
  153SAPE  H12Y16980  -0.843   2.541   4.786  0.3277  0.2433  0.8542
  153SAPE  C31316981  -0.669   2.442   4.694  0.5293  0.4047 -0.3868
  153SAPE  H13X16982  -0.723   2.348   4.669  1.8821 -0.5333  0.1130
  153SAPE  H13Y16983  -0.572   2.409   4.736 -0.3705 -1.0415  0.6696
  153SAPE  C31416984  -0.657   2.529   4.568 -0.2786  0.5961  0.1952
  153SAPE  H14X16985  -0.599   2.612   4.615 -0.8868  0.6867  0.8073
  153SAPE  H14Y16986  -0.757   2.557   4.529 -0.6465 -0.3064  0.4501
  153SAPE  C31516987  -0.577   2.472   4.449  0.8819 -0.1443  0.0359
  153SAPE  H15X16988  -0.632   2.380   4.421  0.6139 -0.0233  0.1663
  153SAPE  H15Y16989  -0.471   2.454   4.478  1.2189 -2.0269 -2.0938
  153SAPE  C31616990  -0.570   2.575   4.330  0.4640  0.8528  0.6007
  153SAPE  H16X16991  -0.510   2.660   4.368  2.4936  0.0484 -0.6994
  153SAPE  H16Y16992  -0.674   2.611   4.315  0.1931  0.0114  0.4288
  153SAPE  C31716993  -0.494   2.508   4.212 -0.4385 -0.0866  0.0839
  153SAPE  H17X16994  -0.548   2.414   4.186 -1.1094  0.4176 -0.4000
  153SAPE  H17Y16995  -0.388   2.482   4.230 -0.5544 -0.5844  0.0656
  153SAPE  C31816996  -0.485   2.593   4.084  0.2067 -0.2798 -0.5096
  153SAPE  H18X16997  -0.581   2.587   4.027  0.6999 -3.2120 -1.1771
  153SAPE  H18Y16998  -0.416   2.572   4.000  1.2003  2.1727 -0.3784
  153SAPE  H18Z16999  -0.467   2.698   4.117 -1.1886  0.6477 -2.4699
  154SAPE     N17000   3.630   2.093   6.664  0.2827  0.2166 -0.3357
  154SAPE   HN117001   3.694   2.086   6.745 -1.2690  2.4739  1.1921
  154SAPE   HN217002   3.615   2.001   6.617 -0.4349  0.4338 -0.5401
  154SAPE   HN317003   3.676   2.164   6.603  0.2919  2.1992  1.8824
  154SAPE   C1217004   3.489   2.133   6.719 -0.0578 -0.3278  0.5660
  154SAPE  H12A17005   3.427   2.163   6.631  1.1937  2.3979  0.4869
  154SAPE  H12B17006   3.499   2.222   6.786 -2.0713  1.4004 -1.2749
  154SAPE   C1117007   3.428   2.017   6.798  0.5986  0.4527  0.4168
  154SAPE  H11A17008   3.394   1.944   6.722  0.9508  1.3525 -0.6287
  154SAPE  H11B17009   3.334   2.052   6.845 -0.1987  1.2419 -1.6467
  154SAPE     P17010   3.480   1.819   6.964 -0.1296  0.3113  0.7958
  154SAPE   O1317011   3.584   1.781   7.061 -0.1194 -0.0562  0.2179
  154SAPE   O1417012   3.347   1.831   7.009 -0.3567  0.0836 -0.1846
  154SAPE   O1217013   3.520   1.956   6.890  0.6227 -0.1836  0.0212
  154SAPE   O1117014   3.477   1.706   6.849 -0.4249 -0.1236  0.3427
  154SAPE    C117015   3.580   1.608   6.822  0.3938 -0.0183 -0.1529
  154SAPE    HA17016   3.643   1.586   6.911  0.6193  2.0394  0.2594
  154SAPE    HB17017   3.548   1.505   6.797 -0.8284  0.1040  0.7834
  154SAPE    C217018   3.665   1.657   6.700 -0.6826 -0.4772  0.2197
  154SAPE    HS17019   3.699   1.761   6.716 -0.7261 -0.7374  2.2529
  154SAPE   O2117020   3.580   1.646   6.586 -0.3852  0.6981  0.0933
  154SAPE   C2117021   3.566   1.744   6.505 -0.3131 -0.5364 -0.7591
  154SAPE   O2217022   3.603   1.863   6.521 -0.6614  0.4443  0.0260
  154SAPE   C2217023   3.489   1.699   6.378 -0.4908  0.2759 -0.1557
  154SAPE   H2R17024   3.556   1.625   6.330 -2.4411 -1.0435 -0.9881
  154SAPE   H2S17025   3.400   1.646   6.419  0.5957  0.2791  2.4216
  154SAPE    C317026   3.782   1.561   6.677  0.8164  0.3648  0.2998
  154SAPE    HX17027   3.738   1.460   6.665 -1.8922  1.5034 -0.0862
  154SAPE    HY17028   3.845   1.559   6.769  0.9417 -0.0198  0.2079
  154SAPE   O3117029   3.866   1.586   6.562  0.0543 -0.4983  0.5589
  154SAPE   C3117030   3.821   1.538   6.445  1.0035  0.6870 -0.0136
  154SAPE   O3217031   3.716   1.470   6.433 -0.1325 -0.2494 -0.1464
  154SAPE   C3217032   3.918   1.564   6.324 -0.3511  0.3162 -0.0886
  154SAPE   H2X17033   4.022   1.571   6.362  0.2141 -0.7590 -1.3757
  154SAPE   H2Y17034   3.889   1.662   6.280 -0.0321  0.6226  0.3660
  154SAPE   C2317035   3.461   1.814   6.284  0.2403 -0.5484 -0.2953
  154SAPE   H3R17036   3.554   1.874   6.274  0.2416 -0.6629 -1.0893
  154SAPE   H3S17037   3.398   1.895   6.325  0.3949  0.9974 -2.8951
  154SAPE   C2417038   3.441   1.761   6.133  0.4607  0.5141 -0.4777
  154SAPE   H4R17039   3.420   1.851   6.072  0.9505 -0.9575 -2.9631
  154SAPE   H4S17040   3.345   1.705   6.132  1.5591 -1.6582 -4.0133
  154SAPE   C2517041   3.547   1.684   6.068  0.4719  0.2434 -0.4537
  154SAPE   H5R17042   3.639   1.740   6.046 -0.3585  1.5897 -0.6133
  154SAPE   C2617043   3.545   1.551   6.038 -0.3489 -0.0095  0.8506
  154SAPE   H6R17044   3.636   1.511   5.990 -1.7607 -2.9616  0.4192
  154SAPE   C2717045   3.435   1.452   6.047  0.4926  0.6442 -0.3946
  154SAPE   H7R17046   3.394   1.421   5.948  0.6935  0.8976 -0.5568
  154SAPE   H7S17047   3.346   1.495   6.097 -1.0277 -3.8599  1.3181
  154SAPE   C2817048   3.474   1.330   6.123  0.6559 -0.3816 -0.1836
  154SAPE   H8R17049   3.514   1.352   6.223  1.6497 -0.2882 -0.5922
  154SAPE   C2917050   3.489   1.203   6.078  0.7665 -0.3872 -1.1277
  154SAPE   H9R17051   3.527   1.125   6.146 -1.1776 -1.9281 -1.6914
  154SAPE  C21017052   3.463   1.150   5.940  0.2333 -0.0175 -0.1986
  154SAPE  H10R17053   3.489   1.220   5.859  0.3061 -0.1562 -0.2955
  154SAPE  H10S17054   3.354   1.132   5.928  0.0707 -0.0558  1.1262
  154SAPE  C21117055   3.525   1.015   5.907  1.4553  0.1372  0.6484
  154SAPE  H11R17056   3.584   0.975   5.992  0.8657  0.3726  1.1723
  154SAPE  C21217057   3.525   0.947   5.791 -0.1865  0.3495 -0.0930
  154SAPE  H12R17058   3.580   0.852   5.791  0.4880  0.7024 -1.8947
  154SAPE  C21317059   3.471   0.998   5.662  0.4722  0.1775  0.1625
  154SAPE  H13R17060   3.516   0.938   5.580  1.3729  0.0407  0.7405
  154SAPE  H13S17061   3.529   1.089   5.638  1.7635 -0.6482  0.0489
  154SAPE  C21417062   3.323   1.008   5.633 -0.2808 -0.4854  0.3712
  154SAPE  H14R17063   3.264   0.919   5.656 -1.2294 -0.4541 -1.7116
  154SAPE  C21517064   3.255   1.114   5.588 -0.1901  0.4952 -0.2950
  154SAPE  H15R17065   3.147   1.098   5.575 -0.1327 -2.2072  1.6643
  154SAPE  C21617066   3.311   1.248   5.551  0.3658 -0.0060  0.2317
  154SAPE  H16R17067   3.328   1.317   5.636  0.0909  0.9217 -0.4537
  154SAPE  H16S17068   3.230   1.298   5.493  0.2311 -0.1896  0.2626
  154SAPE  C21717069   3.440   1.244   5.465 -1.1228  0.1164 -0.1505
  154SAPE  H17R17070   3.462   1.138   5.441  0.0725  0.6211 -1.3804
  154SAPE  H17S17071   3.520   1.270   5.536 -1.8103 -2.4068  1.6918
  154SAPE  C21817072   3.426   1.312   5.328 -0.2153 -0.1425  0.4018
  154SAPE  H18R17073   3.390   1.416   5.347 -1.5580 -0.4649 -0.2407
  154SAPE  H18S17074   3.348   1.253   5.275 -0.2024  1.2574 -1.2948
  154SAPE  C21917075   3.544   1.314   5.237  0.0370 -0.0674 -0.1580
  154SAPE  H19R17076   3.583   1.211   5.219 -1.5577 -0.9465  1.1425
  154SAPE  H19S17077   3.634   1.358   5.286  1.5836 -2.9007 -0.1780
  154SAPE  C22017078   3.535   1.386   5.103 -0.6003 -0.4298 -0.0791
  154SAPE  H20R17079   3.448   1.352   5.042 -2.6010  1.0155  1.8110
  154SAPE  H20S17080   3.626   1.382   5.038 -0.5587  1.6403 -0.1956
  154SAPE  H20T17081   3.521   1.493   5.126  0.7004 -0.3673  0.5037
  154SAPE   C3317082   3.927   1.463   6.203 -0.2422  0.0104 -0.4851
  154SAPE   H3X17083   3.834   1.445   6.145 -0.5118 -2.6700  0.6273
  154SAPE   H3Y17084   3.954   1.360   6.235 -1.7269  0.2719  1.8759
  154SAPE   C3417085   4.049   1.499   6.106 -0.0974 -0.4956 -0.8820
  154SAPE   H4X17086   4.060   1.415   6.034  0.2411 -1.4670  0.2620
  154SAPE   H4Y17087   4.143   1.490   6.164 -1.1853  1.9767  1.4920
  154SAPE   C3517088   4.042   1.638   6.035  0.0117 -0.5612 -0.0912
  154SAPE   H5X17089   4.134   1.633   5.971 -0.1458 -0.5880 -0.3173
  154SAPE   H5Y17090   4.052   1.713   6.116 -2.5751 -1.1368  0.8339
  154SAPE   C3617091   3.916   1.650   5.942 -0.1829 -0.0058 -0.6432
  154SAPE   H6X17092   3.918   1.745   5.884 -0.1860 -0.0130 -0.6550
  154SAPE   H6Y17093   3.822   1.654   6.002  1.0238  0.5384  1.3057
  154SAPE   C3717094   3.900   1.536   5.852 -0.6987  0.0326 -0.0425
  154SAPE   H7X17095   3.868   1.444   5.905 -0.2713 -0.0724  0.0366
  154SAPE   H7Y17096   3.996   1.512   5.802  0.7261  0.5950  2.2641
  154SAPE   C3817097   3.804   1.564   5.735 -0.0133 -0.0807 -0.2449
  154SAPE   H8X17098   3.707   1.608   5.767 -0.2935 -0.0379 -1.1207
  154SAPE   H8Y17099   3.780   1.468   5.684  1.6953 -0.3671 -0.5705
  154SAPE   C3917100   3.869   1.650   5.631  0.0078 -0.0227  0.2582
  154SAPE   H9X17101   3.978   1.628   5.630  0.3417  1.4333  1.5777
  154SAPE   H9Y17102   3.860   1.757   5.658  1.7927  0.5209 -1.0996
  154SAPE  C31017103   3.811   1.629   5.488  0.1950  0.1199  0.5274
  154SAPE  H10X17104   3.724   1.697   5.493 -0.5220 -0.8669  2.7071
  154SAPE  H10Y17105   3.768   1.529   5.470  0.4883  0.1751 -0.5097
  154SAPE  C31117106   3.908   1.674   5.376  0.3540  0.1011  0.4624
  154SAPE  H11X17107   3.981   1.593   5.356  0.0016  0.1345 -1.1713
  154SAPE  H11Y17108   3.958   1.764   5.418 -2.3263  2.0530 -0.2277
  154SAPE  C31217109   3.839   1.715   5.240 -0.2057  0.1279 -0.6131
  154SAPE  H12X17110   3.774   1.804   5.259 -2.3839 -1.5603  0.2975
  154SAPE  H12Y17111   3.764   1.640   5.208  0.8369 -1.6263  0.8815
  154SAPE  C31317112   3.937   1.743   5.134 -0.2342 -0.1687  0.0658
  154SAPE  H13X17113   3.963   1.649   5.081 -0.1385  0.4055 -0.9157
  154SAPE  H13Y17114   4.024   1.795   5.181 -2.0043  2.5771  0.5414
  154SAPE  C31417115   3.885   1.834   5.016 -0.3222  0.2492 -0.4770
  154SAPE  H14X17116   3.953   1.818   4.929  0.1453  0.2244 -0.1084
  154SAPE  H14Y17117   3.902   1.938   5.051 -0.0905  0.2119 -0.4783
  154SAPE  C31517118   3.732   1.830   4.969 -0.0887 -0.3123  0.2108
  154SAPE  H15X17119   3.668   1.872   5.049 -0.5737  2.1608 -1.3962
  154SAPE  H15Y17120   3.701   1.728   4.939  1.3244 -0.1310 -2.0607
  154SAPE  C31617121   3.699   1.920   4.852 -0.0943 -0.3010  0.4796
  154SAPE  H16X17122   3.737   2.020   4.881 -1.1668  0.1068  0.5217
  154SAPE  H16Y17123   3.588   1.935   4.850  0.0712  1.0301  0.4175
  154SAPE  C31717124   3.768   1.878   4.718 -0.0746 -0.5102 -0.0063
  154SAPE  H17X17125   3.745   1.769   4.710  0.3160 -0.7436  1.6220
  154SAPE  H17Y17126   3.878   1.880   4.730 -0.2390 -0.0213  1.7689
  154SAPE  C31817127   3.719   1.971   4.607  0.0010  0.5788  0.1655
  154SAPE  H18X17128   3.705   2.077   4.639 -2.4728  0.9013 -1.6507
  154SAPE  H18Y17129   3.613   1.946   4.585 -0.9085  3.4558  0.7230
  154SAPE  H18Z17130   3.762   1.956   4.506 -0.4866  0.0247  0.0317
  155SAPE     N17131   5.360   6.229   6.828  0.2171  0.0153 -0.2051
  155SAPE   HN117132   5.283   6.288   6.865  2.4153  4.9150 -2.5089
  155SAPE   HN217133   5.423   6.302   6.789  0.3081 -0.0118 -0.1093
  155SAPE   HN317134   5.322   6.177   6.746 -1.1377 -1.2990  1.1842
  155SAPE   C1217135   5.429   6.130   6.920 -0.2000  0.0097 -0.6444
  155SAPE  H12A17136   5.460   6.194   7.005 -1.5437  1.9020 -1.4966
  155SAPE  H12B17137   5.511   6.079   6.866 -0.3239 -1.8219  0.7965
  155SAPE   C1117138   5.335   6.007   6.959 -0.6802 -0.1605  0.0048
  155SAPE  H11A17139   5.247   6.042   7.017 -1.0517  0.1642 -0.7440
  155SAPE  H11B17140   5.399   5.945   7.025 -1.0489  0.8774  1.3858
  155SAPE     P17141   5.180   5.943   6.743  0.1808 -0.0248  0.0044
  155SAPE   O1317142   5.060   5.941   6.825 -0.7381  1.3796  0.0513
  155SAPE   O1417143   5.204   6.062   6.660  0.2701 -0.1402  0.5094
  155SAPE   O1217144   5.301   5.933   6.844  0.0292  0.1246 -0.0035
  155SAPE   O1117145   5.192   5.809   6.667  0.7367 -0.0003 -0.9078
  155SAPE    C117146   5.318   5.771   6.623  0.5639 -0.9398 -0.2102
  155SAPE    HA17147   5.344   5.854   6.553 -0.8258 -0.2591  0.0429
  155SAPE    HB17148   5.393   5.780   6.704 -0.8109 -0.6603  1.0821
  155SAPE    C217149   5.324   5.645   6.538  0.2157 -0.2976 -0.1420
  155SAPE    HS17150   5.267   5.573   6.601 -1.0927  1.5737  0.9105
  155SAPE   O2117151   5.464   5.618   6.523  0.2221 -0.2258 -0.0223
  155SAPE   C2117152   5.483   5.493   6.486  0.5421 -0.6148  0.5539
  155SAPE   O2217153   5.394   5.409   6.473 -0.2728 -0.5439  0.1523
  155SAPE   C2217154   5.630   5.467   6.478 -0.6042 -0.1000 -0.2041
  155SAPE   H2R17155   5.686   5.556   6.441 -1.8873  0.9485  0.2885
  155SAPE   H2S17156   5.668   5.449   6.581 -1.0647  1.1300  0.1967
  155SAPE    C317157   5.250   5.659   6.407 -0.2688 -1.2340  0.1221
  155SAPE    HX17158   5.149   5.701   6.426 -0.4272 -0.7787 -1.5771
  155SAPE    HY17159   5.227   5.561   6.359 -0.1435 -0.9786 -0.4606
  155SAPE   O3117160   5.330   5.741   6.318 -0.0306  0.0217  0.7706
  155SAPE   C3117161   5.290   5.861   6.283 -0.3609 -0.7447 -0.3155
  155SAPE   O3217162   5.184   5.920   6.311 -0.2817 -0.5371  0.9112
  155SAPE   C3217163   5.403   5.916   6.197  0.0822 -0.2184 -0.0960
  155SAPE   H2X17164   5.432   5.838   6.124  2.7473 -0.5327  1.1455
  155SAPE   H2Y17165   5.487   5.946   6.264 -0.1363  3.0666 -1.0901
  155SAPE   C2317166   5.663   5.357   6.376 -0.1704 -0.1856  0.4572
  155SAPE   H3R17167   5.608   5.263   6.397 -0.7079 -0.2578 -1.1747
  155SAPE   H3S17168   5.770   5.329   6.390  0.0594  0.8300  0.8897
  155SAPE   C2417169   5.629   5.383   6.228  0.0558 -0.3369 -0.0863
  155SAPE   H4R17170   5.518   5.390   6.227 -0.0794 -0.5312  3.3830
  155SAPE   H4S17171   5.635   5.289   6.169  3.0906 -1.7955  2.2752
  155SAPE   C2517172   5.694   5.508   6.163  0.1177  0.6505 -0.4313
  155SAPE   H5R17173   5.785   5.544   6.214  0.7815 -1.2236 -0.2389
  155SAPE   C2617174   5.657   5.564   6.050 -0.0692  0.2793 -0.4580
  155SAPE   H6R17175   5.718   5.650   6.018  1.1693 -0.4913 -0.2451
  155SAPE   C2717176   5.544   5.520   5.971 -0.5805  0.3585 -0.0676
  155SAPE   H7R17177   5.486   5.430   6.000 -2.3851  1.4463 -0.1685
  155SAPE   H7S17178   5.588   5.481   5.877  0.2359  0.3299  0.3140
  155SAPE   C2817179   5.441   5.629   5.944  0.3706 -0.0276  0.6205
  155SAPE   H8R17180   5.361   5.631   6.019 -1.0908 -0.0721 -0.8949
  155SAPE   C2917181   5.438   5.714   5.841  0.3595  0.5458  0.1944
  155SAPE   H9R17182   5.355   5.784   5.828  0.5621  0.6630 -0.4991
  155SAPE  C21017183   5.545   5.728   5.738  0.3674  0.0826  0.2991
  155SAPE  H10R17184   5.557   5.635   5.678 -1.4480  0.2337 -0.3654
  155SAPE  H10S17185   5.643   5.730   5.792  0.1192  0.5650  0.7378
  155SAPE  C21117186   5.532   5.852   5.645 -0.4493  0.1595 -0.7125
  155SAPE  H11R17187   5.469   5.930   5.690  1.5142  1.2102  0.3444
  155SAPE  C21217188   5.565   5.859   5.513  0.0532 -0.0514  0.4375
  155SAPE  H12R17189   5.545   5.952   5.457 -1.2861 -1.5725 -1.7816
  155SAPE  C21317190   5.647   5.756   5.443 -0.0964  0.2304 -0.0460
  155SAPE  H13R17191   5.680   5.672   5.508  1.0190 -0.4772 -1.4601
  155SAPE  H13S17192   5.742   5.808   5.421  0.7972 -0.5918  1.6984
  155SAPE  C21417193   5.578   5.701   5.322  0.5805  0.8985 -0.1688
  155SAPE  H14R17194   5.482   5.744   5.290  1.0850  1.8151 -0.4988
  155SAPE  C21517195   5.632   5.614   5.228  0.2979 -0.2154  0.0371
  155SAPE  H15R17196   5.565   5.578   5.148  0.4416  0.2216 -0.2894
  155SAPE  C21617197   5.769   5.560   5.232 -0.3777  0.1667 -0.7311
  155SAPE  H16R17198   5.813   5.563   5.334  1.8131  1.5412 -1.6410
  155SAPE  H16S17199   5.835   5.626   5.171  0.1110  0.7017  0.3359
  155SAPE  C21717200   5.771   5.418   5.165 -0.3582  0.2471 -0.3817
  155SAPE  H17R17201   5.680   5.358   5.187  0.5658 -1.9833 -2.2509
  155SAPE  H17S17202   5.852   5.358   5.211 -1.1763 -1.6061 -1.2405
  155SAPE  C21817203   5.779   5.423   5.011  0.3784  0.2812  0.0661
  155SAPE  H18R17204   5.699   5.484   4.963  1.0982 -0.3430 -2.0700
  155SAPE  H18S17205   5.762   5.318   4.979  1.0042 -1.1309  3.8563
  155SAPE  C21917206   5.911   5.475   4.937  0.0507  0.1917 -0.1688
  155SAPE  H19R17207   6.001   5.412   4.954  1.5794  2.2109 -0.3541
  155SAPE  H19S17208   5.926   5.583   4.959 -0.2405  0.3191 -0.5887
  155SAPE  C22017209   5.892   5.472   4.785 -0.0752  0.4370  0.1047
  155SAPE  H20R17210   5.802   5.525   4.747 -1.2416 -0.2933  1.7324
  155SAPE  H20S17211   5.881   5.366   4.755 -1.7992  0.9110 -1.0962
  155SAPE  H20T17212   5.974   5.513   4.722  0.0497 -0.2835 -0.2023
  155SAPE   C3317213   5.354   6.035   6.116  0.3036  0.0415 -0.8296
  155SAPE   H3X17214   5.319   6.109   6.190  2.4956 -0.6372  1.0104
  155SAPE   H3Y17215   5.274   5.988   6.054 -0.8332 -0.2451  0.7930
  155SAPE   C3417216   5.459   6.095   6.028  0.1504 -0.1578  0.1879
  155SAPE   H4X17217   5.522   6.016   5.982  0.2113  0.5256 -0.9400
  155SAPE   H4Y17218   5.532   6.160   6.081  0.3011 -0.0359 -0.1631
  155SAPE   C3517219   5.400   6.174   5.906  0.4006  1.1005  0.0845
  155SAPE   H5X17220   5.300   6.221   5.919 -0.3260  0.6220 -2.9410
  155SAPE   H5Y17221   5.379   6.092   5.834 -1.4376  1.9022 -0.3667
  155SAPE   C3617222   5.491   6.281   5.848 -0.2561  0.8743 -0.1849
  155SAPE   H6X17223   5.596   6.246   5.836  0.3727  2.0447  1.5404
  155SAPE   H6Y17224   5.473   6.365   5.918 -0.6069 -1.0646  2.1598
  155SAPE   C3717225   5.443   6.336   5.706  0.6582 -0.0732 -0.2664
  155SAPE   H7X17226   5.334   6.355   5.722  1.2425  3.0298  0.8191
  155SAPE   H7Y17227   5.457   6.251   5.636  2.8822 -1.3178  1.5767
  155SAPE   C3817228   5.516   6.457   5.647 -0.2057 -0.2805 -0.7015
  155SAPE   H8X17229   5.625   6.434   5.642 -0.2810 -0.5215 -1.3155
  155SAPE   H8Y17230   5.509   6.545   5.714  1.8099 -0.2769 -0.4476
  155SAPE   C3917231   5.463   6.497   5.510 -1.0780  0.5709 -0.6956
  155SAPE   H9X17232   5.353   6.512   5.521 -1.3139 -0.0079 -2.0530
  155SAPE   H9Y17233   5.480   6.406   5.449  1.0068 -0.4968  1.3633
  155SAPE  C31017234   5.523   6.619   5.451 -0.5431 -0.8756 -0.0872
  155SAPE  H10X17235   5.629   6.603   5.423 -0.1543  2.8841 -1.4173
  155SAPE  H10Y17236   5.521   6.715   5.508 -0.0116  0.3167 -1.9867
  155SAPE  C31117237   5.446   6.659   5.330  0.2852 -0.7277  0.4568
  155SAPE  H11X17238   5.480   6.762   5.307  2.0970 -1.6591 -1.3121
  155SAPE  H11Y17239   5.339   6.659   5.361  0.8306  0.6723  2.5448
  155SAPE  C31217240   5.478   6.570   5.209  0.0439  0.3229 -0.1089
  155SAPE  H12X17241   5.438   6.468   5.227  0.2132 -0.3653 -3.0388
  155SAPE  H12Y17242   5.588   6.564   5.192 -0.0239  1.9779 -1.3851
  155SAPE  C31317243   5.414   6.624   5.082 -0.3708 -0.1604  0.3982
  155SAPE  H13X17244   5.471   6.717   5.057 -0.0854 -0.6495 -0.8817
  155SAPE  H13Y17245   5.306   6.639   5.101 -0.7058 -0.4817 -1.1385
  155SAPE  C31417246   5.421   6.527   4.966 -0.0396 -0.0725 -0.1568
  155SAPE  H14X17247   5.343   6.449   4.984 -1.4180  1.1357 -0.6837
  155SAPE  H14Y17248   5.513   6.466   4.978 -0.9146 -2.0672 -2.5236
  155SAPE  C31517249   5.399   6.594   4.825 -0.0122 -0.0254  0.1543
  155SAPE  H15X17250   5.453   6.688   4.801  0.4050  0.0242  1.2309
  155SAPE  H15Y17251   5.293   6.628   4.817 -1.1210 -2.8670  1.4573
  155SAPE  C31617252   5.435   6.496   4.715 -0.3570  0.0873  0.2155
  155SAPE  H16X17253   5.540   6.470   4.741 -0.5625  0.7233  1.7578
  155SAPE  H16Y17254   5.444   6.546   4.616  0.0109 -2.0926 -0.9101
  155SAPE  C31717255   5.339   6.374   4.705 -0.0921  0.1830  0.9902
  155SAPE  H17X17256   5.236   6.416   4.701 -0.1799 -0.1055 -0.1945
  155SAPE  H17Y17257   5.344   6.313   4.798  0.1459  1.5339  1.8932
  155SAPE  C31817258   5.374   6.290   4.580  0.8752  0.3754 -0.1528
  155SAPE  H18X17259   5.469   6.235   4.598  0.4191  0.3404  2.5094
  155SAPE  H18Y17260   5.385   6.356   4.491  0.7688 -0.9544 -1.1827
  155SAPE  H18Z17261   5.297   6.215   4.554  1.2376 -0.0089 -0.1185
  156SAPE     N17262   0.325   2.248   6.661  0.3118 -0.0657  0.4169
  156SAPE   HN117263   0.380   2.319   6.714  2.6075  0.8781 -2.9205
  156SAPE   HN217264   0.305   2.298   6.572  1.2399 -1.0489 -0.3635
  156SAPE   HN317265   0.230   2.238   6.704  0.2642 -0.3686  0.2411
  156SAPE   C1217266   0.401   2.127   6.625 -0.1185  0.1837 -0.5710
  156SAPE  H12A17267   0.474   2.163   6.550 -0.2203 -0.4022 -0.9615
  156SAPE  H12B17268   0.333   2.049   6.583  0.2763 -0.7688  0.4885
  156SAPE   C1117269   0.463   2.057   6.746 -0.3125  0.5991  0.2174
  156SAPE  H11A17270   0.552   2.115   6.781 -0.2432  0.5341  0.1486
  156SAPE  H11B17271   0.509   1.963   6.709 -0.9052  0.2029  0.4744
  156SAPE     P17272   0.305   1.889   6.862 -0.1739  0.3599 -0.5065
  156SAPE   O1317273   0.416   1.795   6.901  0.7098  0.6836  0.2497
  156SAPE   O1417274   0.185   1.886   6.947  0.1730 -0.5252  0.8090
  156SAPE   O1217275   0.367   2.033   6.851 -0.0637 -0.1376 -0.2831
  156SAPE   O1117276   0.259   1.854   6.718  0.4928 -0.1911 -0.7553
  156SAPE    C117277   0.265   1.720   6.670 -0.6718 -0.5471 -0.4935
  156SAPE    HA17278   0.359   1.666   6.692 -0.5273 -0.2406 -0.3607
  156SAPE    HB17279   0.176   1.661   6.703 -0.3969 -0.0697  1.1885
  156SAPE    C217280   0.255   1.711   6.508 -0.5430  0.4794  0.4049
  156SAPE    HS17281   0.222   1.606   6.496 -0.3052  0.5471 -0.9672
  156SAPE   O2117282   0.380   1.738   6.439  0.0594  0.0722 -0.2528
  156SAPE   C2117283   0.452   1.632   6.418 -0.3219  0.5555  0.0670
  156SAPE   O2217284   0.416   1.517   6.440  0.1623  0.5257  0.5238
  156SAPE   C2217285   0.586   1.676   6.348 -0.1293 -0.1464 -0.6329
  156SAPE   H2R17286   0.600   1.782   6.379 -0.2799 -0.0876 -0.7659
  156SAPE   H2S17287   0.668   1.608   6.378 -0.2142 -0.6001 -1.3818
  156SAPE    C317288   0.144   1.796   6.453  0.5033 -0.4469  0.8236
  156SAPE    HX17289   0.177   1.902   6.444  1.1100 -0.4607  2.4347
  156SAPE    HY17290   0.058   1.774   6.520 -1.0476  1.3519 -0.4885
  156SAPE   O3117291   0.101   1.748   6.314  1.0612  0.2017  0.2025
  156SAPE   C3117292   0.180   1.787   6.215  0.6925  0.4570 -0.4422
  156SAPE   O3217293   0.265   1.874   6.221 -0.8653 -0.4194 -0.1214
  156SAPE   C3217294   0.111   1.745   6.083 -0.0574 -0.1852 -0.0003
  156SAPE   H2X17295   0.017   1.804   6.087  0.8275  1.2357  0.6170
  156SAPE   H2Y17296   0.102   1.634   6.076 -0.4492 -0.2269  0.9804
  156SAPE   C2317297   0.581   1.699   6.201 -0.1775  0.4955  0.1014
  156SAPE   H3R17298   0.508   1.774   6.163  0.4611  1.1632  0.1798
  156SAPE   H3S17299   0.542   1.606   6.155  2.6028 -1.5140  1.5273
  156SAPE   C2417300   0.715   1.742   6.135 -0.9367  0.4627 -0.8207
  156SAPE   H4R17301   0.701   1.735   6.025  0.7670  2.2504 -1.2034
  156SAPE   H4S17302   0.788   1.667   6.171 -0.8490  0.5283 -0.8614
  156SAPE   C2517303   0.762   1.875   6.167  0.0521  0.0858 -0.1527
  156SAPE   H5R17304   0.775   1.905   6.272 -0.0916 -0.9042  0.1572
  156SAPE   C2617305   0.794   1.967   6.068 -0.0751  0.5910 -0.0101
  156SAPE   H6R17306   0.816   2.069   6.102 -0.0193 -0.0227  1.9087
  156SAPE   C2717307   0.761   1.950   5.920 -0.0187  0.2399 -0.0377
  156SAPE   H7R17308   0.818   1.860   5.888  2.6964  1.9041 -0.2574
  156SAPE   H7S17309   0.825   2.023   5.866  2.3333 -1.5345  0.1897
  156SAPE   C2817310   0.616   1.956   5.879 -0.4651 -1.2757  0.7387
  156SAPE   H8R17311   0.542   1.958   5.961  1.6938  1.0396  2.8379
  156SAPE   C2917312   0.571   1.973   5.749 -0.1698  0.4217  0.2865
  156SAPE   H9R17313   0.462   1.970   5.732 -0.2361  1.6267  0.3895
  156SAPE  C21017314   0.660   1.969   5.622  0.2302  0.0677  0.0229
  156SAPE  H10R17315   0.765   1.974   5.658  0.2082 -4.7500  1.3974
  156SAPE  H10S17316   0.637   2.057   5.558 -1.2335  0.8621  1.5323
  156SAPE  C21117317   0.624   1.848   5.542  0.1718  0.3793  0.0099
  156SAPE  H11R17318   0.633   1.756   5.602 -1.7261 -1.7418 -2.7320
  156SAPE  C21217319   0.614   1.832   5.413 -0.0062  0.2630  0.3469
  156SAPE  H12R17320   0.586   1.729   5.385 -2.5339  1.0703 -0.4075
  156SAPE  C21317321   0.613   1.930   5.306 -0.2343 -0.0481 -0.2376
  156SAPE  H13R17322   0.597   2.032   5.347  0.4105  1.4784 -3.4640
  156SAPE  H13S17323   0.525   1.919   5.239 -0.7791  1.4728  0.1861
  156SAPE  C21417324   0.747   1.930   5.232 -0.6583 -0.5420  0.6106
  156SAPE  H14R17325   0.822   2.003   5.267  0.4181  0.1601 -2.8364
  156SAPE  C21517326   0.788   1.839   5.142 -0.0018  0.1093  0.7027
  156SAPE  H15R17327   0.889   1.853   5.100  0.6866  0.3413  2.3603
  156SAPE  C21617328   0.705   1.726   5.087  0.3010 -0.2262 -0.0746
  156SAPE  H16R17329   0.656   1.671   5.170 -2.1908  0.1791 -1.1875
  156SAPE  H16S17330   0.768   1.652   5.032 -1.2953 -1.2211 -0.6375
  156SAPE  C21717331   0.576   1.765   5.000 -0.0885 -0.2689  0.1215
  156SAPE  H17R17332   0.598   1.852   4.935  1.1575 -0.9506 -0.4116
  156SAPE  H17S17333   0.498   1.783   5.077 -1.1683 -0.3884 -0.9170
  156SAPE  C21817334   0.516   1.652   4.910 -0.4251  0.0398 -0.4129
  156SAPE  H18R17335   0.479   1.574   4.979 -1.6795  1.1891  0.2592
  156SAPE  H18S17336   0.588   1.604   4.841  0.0697  0.1891 -0.0086
  156SAPE  C21917337   0.398   1.700   4.822  0.2975  0.0921 -0.1417
  156SAPE  H19R17338   0.439   1.787   4.765 -1.3963  1.6611  0.9208
  156SAPE  H19S17339   0.325   1.751   4.889  1.1590  0.2535  0.6944
  156SAPE  C22017340   0.340   1.583   4.742  0.0276 -1.1066 -0.2832
  156SAPE  H20R17341   0.265   1.630   4.675  0.5370  0.5966  0.2787
  156SAPE  H20S17342   0.285   1.518   4.813  4.0397 -3.3670  1.1236
  156SAPE  H20T17343   0.417   1.524   4.688  0.8351 -0.7748  0.4830
  156SAPE   C3317344   0.202   1.780   5.957 -0.1108  0.0848 -0.2165
  156SAPE   H3X17345   0.297   1.725   5.972  0.6069  1.5368  0.8684
  156SAPE   H3Y17346   0.228   1.888   5.962  3.8267 -0.6877 -0.4093
  156SAPE   C3417347   0.135   1.744   5.824 -0.7260 -0.2523 -0.2505
  156SAPE   H4X17348   0.032   1.785   5.816 -0.6894  0.1980  1.2995
  156SAPE   H4Y17349   0.125   1.634   5.838  2.6072 -0.6193  0.1942
  156SAPE   C3517350   0.212   1.777   5.697 -0.0793 -0.1141 -0.1007
  156SAPE   H5X17351   0.321   1.754   5.699  0.1233  0.8228  1.3265
  156SAPE   H5Y17352   0.209   1.888   5.687  0.0653 -0.0573  0.4560
  156SAPE   C3617353   0.144   1.712   5.574 -0.2759 -0.9890 -0.8435
  156SAPE   H6X17354   0.039   1.744   5.591  0.5054  2.3755 -1.5620
  156SAPE   H6Y17355   0.154   1.604   5.598 -1.0766 -0.6051  1.4850
  156SAPE   C3717356   0.190   1.763   5.437 -1.1407  0.5966  0.1773
  156SAPE   H7X17357   0.297   1.734   5.436 -0.9172  1.2498  1.5749
  156SAPE   H7Y17358   0.190   1.875   5.437 -2.5796  0.6605 -2.1702
  156SAPE   C3817359   0.096   1.692   5.341  0.0931 -0.1131 -0.5046
  156SAPE   H8X17360  -0.004   1.713   5.384 -0.4460 -1.5673 -0.9675
  156SAPE   H8Y17361   0.120   1.583   5.342 -1.5004 -0.4966  0.7889
  156SAPE   C3917362   0.097   1.747   5.193 -0.5851  0.3273  0.3979
  156SAPE   H9X17363   0.196   1.725   5.147 -0.5861 -1.5460  1.2260
  156SAPE   H9Y17364   0.081   1.857   5.205 -3.3758 -0.1436  1.8070
  156SAPE  C31017365  -0.011   1.681   5.111  0.3305 -0.6417  0.6531
  156SAPE  H10X17366  -0.105   1.718   5.157 -0.4039  2.0736 -2.6429
  156SAPE  H10Y17367   0.004   1.572   5.096 -0.7427 -0.7896  0.5716
  156SAPE  C31117368  -0.001   1.736   4.963 -0.7434 -0.2527  0.0559
  156SAPE  H11X17369   0.090   1.680   4.931  0.5573  0.7467  1.7851
  156SAPE  H11Y17370   0.023   1.845   4.964  0.5951 -0.5172  1.9656
  156SAPE  C31217371  -0.121   1.695   4.886 -0.4198  0.4705 -0.2086
  156SAPE  H12X17372  -0.215   1.723   4.939 -1.1371 -1.3262 -0.4683
  156SAPE  H12Y17373  -0.130   1.586   4.869 -0.0095  0.4443 -0.2691
  156SAPE  C31317374  -0.120   1.771   4.754 -0.4751 -0.3351  0.1679
  156SAPE  H13X17375  -0.020   1.775   4.707 -0.1721  1.4791  0.8708
  156SAPE  H13Y17376  -0.137   1.878   4.780  1.7695  0.1372 -0.0972
  156SAPE  C31417377  -0.233   1.738   4.656 -0.6149 -0.2984  0.4388
  156SAPE  H14X17378  -0.325   1.731   4.717 -0.6648 -0.0456  0.3918
  156SAPE  H14Y17379  -0.215   1.632   4.628 -0.9589 -0.6027  1.3253
  156SAPE  C31517380  -0.255   1.829   4.532  0.1014  0.1831  0.7097
  156SAPE  H15X17381  -0.277   1.930   4.572  0.8020  0.4237  0.4905
  156SAPE  H15Y17382  -0.350   1.791   4.489 -1.0230 -0.8368  3.8100
  156SAPE  C31617383  -0.143   1.831   4.441 -0.1089 -0.0808  0.3599
  156SAPE  H16X17384  -0.123   1.728   4.404 -2.2766  0.1205 -1.5645
  156SAPE  H16Y17385  -0.048   1.870   4.483 -0.1605  0.7464 -0.2604
  156SAPE  C31717386  -0.175   1.921   4.322  0.1847  0.8267  0.9424
  156SAPE  H17X17387  -0.183   2.027   4.355  0.1776  0.1612  3.2458
  156SAPE  H17Y17388  -0.266   1.881   4.273  1.7541  0.4310 -1.8460
  156SAPE  C31817389  -0.052   1.908   4.226 -0.2423  0.1734  0.5004
  156SAPE  H18X17390   0.043   1.919   4.282 -0.8325  0.5337  1.4638
  156SAPE  H18Y17391  -0.061   1.984   4.146 -0.1434 -0.7261 -0.3949
  156SAPE  H18Z17392  -0.053   1.806   4.182 -2.0458 -0.3877  1.6967
  157SAPE     N17393   1.056   1.040   7.146  0.2903  0.2115 -0.6920
  157SAPE   HN117394   1.072   0.938   7.139  1.5625  0.3913 -0.6369
  157SAPE   HN217395   1.127   1.090   7.089  0.1764  0.9451 -0.2051
  157SAPE   HN317396   1.056   1.071   7.245  0.3612 -1.6683 -0.0558
  157SAPE   C1217397   0.928   1.085   7.075 -0.1384  0.3687  0.4695
  157SAPE  H12A17398   0.949   1.106   6.968 -0.0200 -1.2455  0.1635
  157SAPE  H12B17399   0.895   1.179   7.126  0.6431 -0.7038  3.1039
  157SAPE   C1117400   0.833   0.965   7.092  0.0037  0.9766 -0.1619
  157SAPE  H11A17401   0.743   0.988   7.032 -1.7756 -1.1354  1.5084
  157SAPE  H11B17402   0.805   0.948   7.198  0.0200  0.1735 -0.2746
  157SAPE     P17403   0.837   0.705   7.077 -0.2068  0.0352  0.3155
  157SAPE   O1317404   0.914   0.600   7.010 -0.0257 -0.3392 -0.4268
  157SAPE   O1417405   0.814   0.697   7.224  0.1132 -0.3396 -0.1990
  157SAPE   O1217406   0.897   0.844   7.041 -0.3353 -0.1376 -0.1741
  157SAPE   O1117407   0.699   0.698   7.011 -0.3305 -0.4290 -0.1114
  157SAPE    C117408   0.694   0.745   6.879 -0.1282 -0.2441  0.2174
  157SAPE    HA17409   0.721   0.852   6.873  0.1130 -0.3303 -0.2771
  157SAPE    HB17410   0.771   0.694   6.817  1.9011  0.6319  1.8941
  157SAPE    C217411   0.553   0.738   6.808  0.2819  0.1394 -0.1007
  157SAPE    HS17412   0.482   0.747   6.893  0.5039  0.3524  0.0622
  157SAPE   O2117413   0.529   0.608   6.754 -0.1508  0.6380  0.4651
  157SAPE   C2117414   0.401   0.587   6.711  0.7061 -0.5878  0.2111
  157SAPE   O2217415   0.307   0.661   6.742 -0.4799  0.1720 -0.2841
  157SAPE   C2217416   0.399   0.466   6.612 -0.8332 -0.3736 -0.3078
  157SAPE   H2R17417   0.500   0.436   6.579  0.8739  3.3948  1.0014
  157SAPE   H2S17418   0.371   0.387   6.685 -1.3820  0.6766  0.6559
  157SAPE    C317419   0.527   0.851   6.699  0.6156 -0.3948 -0.7317
  157SAPE    HX17420   0.525   0.948   6.754 -2.0135 -1.0914  0.5325
  157SAPE    HY17421   0.427   0.845   6.652  0.4540  1.3346 -0.6730
  157SAPE   O3117422   0.618   0.845   6.598 -0.5198 -0.3656  0.8254
  157SAPE   C3117423   0.582   0.894   6.478  0.1270  0.4445 -0.3643
  157SAPE   O3217424   0.481   0.962   6.457  0.2915  0.3068  0.0931
  157SAPE   C3217425   0.687   0.852   6.378 -0.0058 -0.5824  0.3509
  157SAPE   H2X17426   0.736   0.757   6.410 -0.1960 -0.8676 -0.1815
  157SAPE   H2Y17427   0.774   0.919   6.391  0.0032 -1.0065  3.0139
  157SAPE   C2317428   0.316   0.499   6.491 -0.2567  0.0270 -0.1738
  157SAPE   H3R17429   0.223   0.545   6.530  0.2684  0.0869  1.0477
  157SAPE   H3S17430   0.276   0.403   6.453 -1.2134  0.4472 -0.2426
  157SAPE   C2417431   0.396   0.588   6.390  0.3209  0.5257  0.3712
  157SAPE   H4R17432   0.430   0.683   6.436  0.9759  0.5209 -0.0790
  157SAPE   H4S17433   0.317   0.615   6.316 -1.3709 -2.9329  0.7227
  157SAPE   C2517434   0.505   0.517   6.321  0.0264  0.1654 -0.3500
  157SAPE   H5R17435   0.606   0.536   6.360 -0.1131  1.9684 -0.7798
  157SAPE   C2617436   0.503   0.465   6.199  0.3828 -0.2290  0.1879
  157SAPE   H6R17437   0.592   0.407   6.170 -0.0851 -0.5806 -0.5779
  157SAPE   C2717438   0.390   0.466   6.091  0.2757  0.4600  0.5077
  157SAPE   H7R17439   0.424   0.530   6.006  2.3080 -1.9192 -0.5941
  157SAPE   H7S17440   0.302   0.515   6.136 -1.1383 -2.3108  0.9508
  157SAPE   C2817441   0.338   0.332   6.052  0.1300 -0.2760  0.0646
  157SAPE   H8R17442   0.311   0.266   6.136 -0.7718 -0.2999 -0.2409
  157SAPE   C2917443   0.340   0.277   5.928  0.5443  0.4317  0.0358
  157SAPE   H9R17444   0.302   0.174   5.937 -0.5697  0.8155 -0.1399
  157SAPE  C21017445   0.390   0.339   5.799  0.5836  0.5826  0.5194
  157SAPE  H10R17446   0.481   0.403   5.804  2.3839 -1.7618 -0.4648
  157SAPE  H10S17447   0.301   0.400   5.773  0.4581 -0.0153 -0.4872
  157SAPE  C21117448   0.405   0.243   5.684  0.0441 -0.0773  0.6679
  157SAPE  H11R17449   0.386   0.139   5.716 -1.9745 -0.0393 -0.2400
  157SAPE  C21217450   0.440   0.269   5.557  0.8344 -0.3768 -0.3727
  157SAPE  H12R17451   0.437   0.186   5.484  1.5159 -0.2821 -0.5152
  157SAPE  C21317452   0.464   0.407   5.498 -0.1571 -0.0574  0.2071
  157SAPE  H13R17453   0.559   0.395   5.442  0.4079  0.5003  1.0326
  157SAPE  H13S17454   0.499   0.475   5.579  0.3492  0.0278 -0.0819
  157SAPE  C21417455   0.355   0.471   5.405 -0.2469  0.0354 -0.5650
  157SAPE  H14R17456   0.290   0.546   5.452  0.4689 -0.8736  2.0317
  157SAPE  C21517457   0.359   0.457   5.273  0.2018  0.1072  0.8544
  157SAPE  H15R17458   0.285   0.506   5.209  0.9726 -1.3569 -1.2663
  157SAPE  C21617459   0.464   0.376   5.204 -0.3642 -0.3510 -0.0851
  157SAPE  H16R17460   0.476   0.276   5.251  2.1360 -0.6442 -1.2154
  157SAPE  H16S17461   0.563   0.427   5.199  0.1776 -1.1424  1.6820
  157SAPE  C21717462   0.419   0.350   5.058 -0.1445  0.4663  0.5230
  157SAPE  H17R17463   0.427   0.444   4.999  2.6233  0.1989  0.3048
  157SAPE  H17S17464   0.318   0.304   5.061  1.1526 -2.5893  1.5785
  157SAPE  C21817465   0.527   0.265   4.986 -0.5133  0.4915  0.5030
  157SAPE  H18R17466   0.510   0.162   5.024  1.9830  0.1301  0.7903
  157SAPE  H18S17467   0.628   0.304   5.011 -0.6768  0.8587  0.5975
  157SAPE  C21917468   0.514   0.254   4.840  0.3162  0.2095  0.1393
  157SAPE  H19R17469   0.492   0.359   4.811  2.7700  1.4492  2.2761
  157SAPE  H19S17470   0.438   0.187   4.796  1.0667  0.2577 -1.2645
  157SAPE  C22017471   0.652   0.221   4.786 -0.8624 -0.2151  0.2229
  157SAPE  H20R17472   0.645   0.179   4.683 -0.2022  0.4849 -0.1193
  157SAPE  H20S17473   0.699   0.139   4.843  2.4689  2.0980  1.0785
  157SAPE  H20T17474   0.724   0.305   4.779  0.2540 -1.1737 -0.0808
  157SAPE   C3317475   0.635   0.850   6.229  0.1613 -0.4223 -0.6501
  157SAPE   H3X17476   0.603   0.952   6.201 -1.2637 -0.3251  1.1264
  157SAPE   H3Y17477   0.552   0.777   6.216  0.0645 -0.2783 -0.8543
  157SAPE   C3417478   0.750   0.802   6.142  0.1195  0.2885  0.4798
  157SAPE   H4X17479   0.795   0.725   6.207 -4.6567 -2.1688  1.3466
  157SAPE   H4Y17480   0.815   0.889   6.120 -0.9203  0.9236 -0.1905
  157SAPE   C3517481   0.716   0.735   6.002 -0.4506  0.4874 -0.4708
  157SAPE   H5X17482   0.636   0.793   5.952  0.0836 -0.9616 -3.2056
  157SAPE   H5Y17483   0.677   0.632   6.020  0.2731  0.5075  1.5162
  157SAPE   C3617484   0.824   0.754   5.901 -0.5585 -1.1469  0.5566
  157SAPE   H6X17485   0.916   0.719   5.952 -0.2115 -0.3269  0.5109
  157SAPE   H6Y17486   0.842   0.862   5.884 -0.1807 -1.3146 -0.1101
  157SAPE   C3717487   0.809   0.671   5.776 -0.6825 -0.0010  0.2749
  157SAPE   H7X17488   0.710   0.621   5.785 -1.3313  1.3928  1.2965
  157SAPE   H7Y17489   0.888   0.593   5.770  2.4181  2.8760  0.8603
  157SAPE   C3817490   0.816   0.751   5.643 -0.7394  0.0169 -0.3616
  157SAPE   H8X17491   0.915   0.803   5.638 -1.4323  1.3160 -0.9447
  157SAPE   H8Y17492   0.739   0.830   5.635 -2.5683 -1.2412  3.0039
  157SAPE   C3917493   0.810   0.649   5.523 -0.7061  0.0775 -0.0702
  157SAPE   H9X17494   0.723   0.582   5.542 -0.0929 -0.0978  2.5259
  157SAPE   H9Y17495   0.900   0.584   5.520 -0.2179  0.7522 -0.2903
  157SAPE  C31017496   0.788   0.715   5.389  0.1212 -0.3760 -0.1730
  157SAPE  H10X17497   0.883   0.771   5.377  0.3520 -0.7618 -0.1374
  157SAPE  H10Y17498   0.707   0.790   5.400  0.2285  0.0361 -1.8462
  157SAPE  C31117499   0.754   0.625   5.282 -1.0264 -0.1562 -0.1739
  157SAPE  H11X17500   0.645   0.603   5.287 -1.0660  0.1378  0.2626
  157SAPE  H11Y17501   0.814   0.533   5.299  0.1165  1.0823  3.1848
  157SAPE  C31217502   0.768   0.688   5.145 -0.2574 -0.5453 -0.3757
  157SAPE  H12X17503   0.868   0.737   5.136 -0.0962 -0.7204  0.3624
  157SAPE  H12Y17504   0.700   0.775   5.139  0.0927 -0.2792 -0.5012
  157SAPE  C31317505   0.759   0.612   5.010  0.0483  1.1700 -0.5399
  157SAPE  H13X17506   0.662   0.558   5.014  0.1310  0.7527 -2.6919
  157SAPE  H13Y17507   0.841   0.537   5.003 -2.0079 -1.2475 -0.2787
  157SAPE  C31417508   0.773   0.703   4.884 -0.3592 -0.0450 -0.1849
  157SAPE  H14X17509   0.877   0.740   4.874 -0.1897  0.3815  2.4670
  157SAPE  H14Y17510   0.713   0.791   4.918  1.9667  1.9043 -0.7966
  157SAPE  C31517511   0.718   0.635   4.754  0.1817  0.1876 -0.4879
  157SAPE  H15X17512   0.610   0.612   4.759 -0.3449  2.2781 -1.2795
  157SAPE  H15Y17513   0.781   0.548   4.726  1.4216  1.2794 -1.2457
  157SAPE  C31617514   0.721   0.728   4.627  1.3469 -0.4286  0.0218
  157SAPE  H16X17515   0.828   0.751   4.613  1.1231 -0.2667 -1.6748
  157SAPE  H16Y17516   0.666   0.822   4.653  1.6429 -0.2291 -0.0655
  157SAPE  C31717517   0.668   0.664   4.497  0.8113 -0.2825  0.4205
  157SAPE  H17X17518   0.562   0.692   4.484  0.8512  0.4295  1.4872
  157SAPE  H17Y17519   0.692   0.556   4.506  2.6541  0.0130 -0.4553
  157SAPE  C31817520   0.739   0.718   4.368 -0.0569  0.5970 -0.2982
  157SAPE  H18X17521   0.711   0.658   4.279  1.5775 -0.2687 -0.2793
  157SAPE  H18Y17522   0.849   0.702   4.377 -0.2207  0.2306  1.4218
  157SAPE  H18Z17523   0.734   0.827   4.345  1.7336  0.7760 -0.0059
  158SAPE     N17524   3.315   5.446   7.122  0.0867 -0.1335  0.0148
  158SAPE   HN117525   3.212   5.444   7.105 -0.5333  0.4318  3.0845
  158SAPE   HN217526   3.354   5.353   7.097  0.3427 -0.0159 -0.0231
  158SAPE   HN317527   3.331   5.460   7.224  0.4253 -1.0513  0.0996
  158SAPE   C1217528   3.387   5.536   7.039 -0.4678 -0.4548  0.6890
  158SAPE  H12A17529   3.370   5.523   6.930  0.3933  0.1201  0.4744
  158SAPE  H12B17530   3.496   5.517   7.048  0.3195  0.9870 -3.3728
  158SAPE   C1117531   3.359   5.691   7.076  0.4457  0.5985 -0.1778
  158SAPE  H11A17532   3.342   5.697   7.186  2.4293  0.9453  0.1539
  158SAPE  H11B17533   3.260   5.710   7.029  0.4760  0.7459 -0.1822
  158SAPE     P17534   3.580   5.845   7.111  0.0088  0.0053 -0.2141
  158SAPE   O1317535   3.523   5.883   7.241  0.4827  0.1479 -0.6870
  158SAPE   O1417536   3.698   5.757   7.124  0.3741 -0.0074  1.0121
  158SAPE   O1217537   3.465   5.772   7.022 -0.2954  0.5420  0.4402
  158SAPE   O1117538   3.627   5.979   7.039 -1.0878 -0.0237 -0.2686
  158SAPE    C117539   3.549   6.042   6.943 -0.5970 -0.0980 -0.2263
  158SAPE    HA17540   3.447   6.062   6.982  0.2192 -1.3315  2.8406
  158SAPE    HB17541   3.596   6.141   6.925  1.9628 -1.2542 -0.2898
  158SAPE    C217542   3.562   5.970   6.804  0.8851 -0.4037 -0.0484
  158SAPE    HS17543   3.491   5.884   6.806  2.3087 -1.6266  0.6328
  158SAPE   O2117544   3.698   5.932   6.781 -0.3598  0.3341 -0.1509
  158SAPE   C2117545   3.710   5.812   6.728 -0.3804 -0.7269  0.7064
  158SAPE   O2217546   3.619   5.733   6.701 -0.1679 -0.4406  0.2279
  158SAPE   C2217547   3.863   5.800   6.699 -0.0241  0.7083  0.2502
  158SAPE   H2R17548   3.915   5.898   6.696  1.9947 -0.2584  1.5878
  158SAPE   H2S17549   3.904   5.765   6.797  0.7093 -0.3083 -0.3972
  158SAPE    C317550   3.505   6.066   6.694 -0.0878  0.2134  0.6628
  158SAPE    HX17551   3.578   6.150   6.705  1.0015 -0.3529 -1.6957
  158SAPE    HY17552   3.400   6.091   6.720  0.4156  0.5365  2.5523
  158SAPE   O3117553   3.516   6.002   6.569 -0.5357 -0.0546  0.2984
  158SAPE   C3117554   3.418   5.931   6.516  0.4101 -0.6898  0.1264
  158SAPE   O3217555   3.316   5.894   6.574 -0.4938 -0.7019 -0.0910
  158SAPE   C3217556   3.460   5.895   6.371  0.2455  0.1174 -0.1002
  158SAPE   H2X17557   3.422   5.794   6.346  0.0354  0.1405  0.1187
  158SAPE   H2Y17558   3.571   5.899   6.368  0.3468 -1.4982  0.7332
  158SAPE   C2317559   3.881   5.707   6.583  0.5400  0.0127 -0.3584
  158SAPE   H3R17560   3.837   5.742   6.488  0.6603  0.5544 -0.2189
  158SAPE   H3S17561   3.836   5.608   6.603 -0.1598  0.6240  1.3392
  158SAPE   C2417562   4.033   5.681   6.559  0.0767  0.3878 -0.9809
  158SAPE   H4R17563   4.038   5.577   6.520 -2.9962 -0.4269  0.4587
  158SAPE   H4S17564   4.085   5.678   6.657 -1.7288  0.9990  0.0389
  158SAPE   C2517565   4.089   5.793   6.479  0.2693 -1.0248 -1.4905
  158SAPE   H5R17566   4.127   5.883   6.529  0.9537 -1.0359 -1.9890
  158SAPE   C2617567   4.113   5.792   6.349  0.4922  0.2770  0.2115
  158SAPE   H6R17568   4.142   5.893   6.319  0.7720  0.1311 -0.0032
  158SAPE   C2717569   4.089   5.687   6.245  0.3469 -0.0163 -0.0986
  158SAPE   H7R17570   4.091   5.593   6.304 -0.4587 -0.5973 -0.9613
  158SAPE   H7S17571   4.178   5.691   6.178 -0.2870 -1.0673 -1.0482
  158SAPE   C2817572   3.963   5.706   6.162 -0.8349 -0.8412 -0.3284
  158SAPE   H8R17573   3.871   5.676   6.215 -1.0968  1.7767  0.8764
  158SAPE   C2917574   3.950   5.762   6.041  0.2430  0.2569  0.3422
  158SAPE   H9R17575   3.849   5.766   5.999  0.1728  0.0228  0.4935
  158SAPE  C21017576   4.066   5.784   5.952  0.1205 -0.0614 -0.5285
  158SAPE  H10R17577   4.070   5.700   5.879  0.5905 -0.9980  0.5502
  158SAPE  H10S17578   4.171   5.778   5.987  0.4895 -1.8654 -1.7900
  158SAPE  C21117579   4.046   5.911   5.874  0.0085 -1.0134 -0.6180
  158SAPE  H11R17580   4.012   5.999   5.931  0.8240 -1.0866  0.0181
  158SAPE  C21217581   4.052   5.933   5.739 -0.0608  0.6291  0.2660
  158SAPE  H12R17582   4.034   6.036   5.707 -3.0931  0.2831  0.5410
  158SAPE  C21317583   4.073   5.827   5.624  0.4521  0.2778 -0.1639
  158SAPE  H13R17584   4.148   5.754   5.660 -1.6853 -0.6269  2.9283
  158SAPE  H13S17585   4.124   5.883   5.543 -1.2338 -0.5795 -1.8994
  158SAPE  C21417586   3.949   5.761   5.570 -0.6048 -0.5939 -0.5239
  158SAPE  H14R17587   3.880   5.738   5.652  1.3282  1.9075  1.9736
  158SAPE  C21517588   3.923   5.742   5.442  0.2061  0.1607  0.0882
  158SAPE  H15R17589   3.831   5.689   5.414  0.4508  0.2508 -0.9219
  158SAPE  C21617590   4.012   5.789   5.321 -0.5194  0.2940 -0.1217
  158SAPE  H16R17591   4.002   5.722   5.232 -0.5327  1.8207 -1.3013
  158SAPE  H16S17592   4.120   5.773   5.343 -0.2392 -0.5013 -1.8547
  158SAPE  C21717593   4.001   5.929   5.268  0.1488 -0.2554 -0.6098
  158SAPE  H17R17594   3.997   6.000   5.352  1.6319  1.1500 -1.6611
  158SAPE  H17S17595   3.904   5.929   5.214  0.6508  1.4999 -1.5904
  158SAPE  C21817596   4.115   5.974   5.168  0.3991 -0.5696 -0.7164
  158SAPE  H18R17597   4.213   5.960   5.217 -0.5065  0.4380  1.5393
  158SAPE  H18S17598   4.102   6.083   5.147  2.5561 -0.1614 -0.1096
  158SAPE  C21917599   4.095   5.918   5.030  0.3830 -0.2241  0.5110
  158SAPE  H19R17600   3.985   5.918   5.012  0.6227 -0.3052 -1.1060
  158SAPE  H19S17601   4.127   5.815   5.004  0.3535  0.4104 -2.3618
  158SAPE  C22017602   4.160   5.996   4.913 -0.3031  0.2597 -0.4710
  158SAPE  H20R17603   4.129   6.102   4.905 -1.1564  0.2847  2.2946
  158SAPE  H20S17604   4.119   5.945   4.823 -0.5120 -1.4545  0.5407
  158SAPE  H20T17605   4.271   5.986   4.918 -0.4745 -1.2437  2.7640
  158SAPE   C3317606   3.383   6.000   6.275  0.1407 -0.2784 -0.4813
  158SAPE   H3X17607   3.422   6.101   6.300 -1.0048  0.1817 -0.4726
  158SAPE   H3Y17608   3.273   5.999   6.293  0.5227  0.7745  2.7207
  158SAPE   C3417609   3.420   5.960   6.129 -0.1585  0.1966  0.1275
  158SAPE   H4X17610   3.365   6.021   6.055  0.1577  0.1726 -0.1282
  158SAPE   H4Y17611   3.392   5.854   6.117 -1.3282  0.3094  1.5313
  158SAPE   C3517612   3.566   5.979   6.087  0.3401 -0.3502 -0.4285
  158SAPE   H5X17613   3.639   5.939   6.161  1.7418  2.1251 -0.3378
  158SAPE   H5Y17614   3.584   6.089   6.088 -0.3164 -0.2394  0.5200
  158SAPE   C3617615   3.624   5.929   5.955 -0.6316 -0.6110 -0.6519
  158SAPE   H6X17616   3.626   5.818   5.961  0.5611 -0.5570  0.4859
  158SAPE   H6Y17617   3.732   5.952   5.937 -0.5798 -0.8045 -0.5931
  158SAPE   C3717618   3.555   5.976   5.834 -0.0767 -0.1533  0.2260
  158SAPE   H7X17619   3.595   6.078   5.817 -1.2550  0.4211  0.7814
  158SAPE   H7Y17620   3.445   5.973   5.851 -0.2711  0.4594 -0.8120
  158SAPE   C3817621   3.573   5.877   5.722  0.1226  0.9191 -0.2073
  158SAPE   H8X17622   3.510   5.790   5.751  0.8994  0.2699 -0.4256
  158SAPE   H8Y17623   3.682   5.854   5.727 -0.2165 -0.5946  0.8170
  158SAPE   C3917624   3.528   5.934   5.585  0.2039  0.4737 -0.5510
  158SAPE   H9X17625   3.421   5.965   5.579 -0.8030 -2.3505  0.6957
  158SAPE   H9Y17626   3.535   5.859   5.504 -2.6525  0.5014 -0.9419
  158SAPE  C31017627   3.606   6.060   5.555 -0.1685 -0.4686  0.9053
  158SAPE  H10X17628   3.713   6.046   5.583  0.4856 -1.2395 -1.7288
  158SAPE  H10Y17629   3.574   6.142   5.623  0.1968 -0.6511  1.3080
  158SAPE  C31117630   3.600   6.088   5.407  0.1376 -0.0142  0.1753
  158SAPE  H11X17631   3.493   6.086   5.379 -0.0247  0.1989  0.7702
  158SAPE  H11Y17632   3.642   6.002   5.351 -1.4538 -1.4622  1.1274
  158SAPE  C31217633   3.671   6.217   5.373 -0.3650  0.5358 -0.1152
  158SAPE  H12X17634   3.770   6.200   5.419 -0.9068 -1.4003  0.4021
  158SAPE  H12Y17635   3.614   6.301   5.420 -0.5233 -1.1837  3.0165
  158SAPE  C31317636   3.713   6.251   5.226  0.4612 -0.0593  0.2815
  158SAPE  H13X17637   3.614   6.250   5.175  0.4231  2.7101  0.1654
  158SAPE  H13Y17638   3.779   6.175   5.181  0.6914  1.1923 -1.6103
  158SAPE  C31417639   3.773   6.383   5.215 -0.2801 -0.4270  0.8734
  158SAPE  H14X17640   3.879   6.389   5.250 -0.5337  1.3098  1.4388
  158SAPE  H14Y17641   3.725   6.457   5.283 -1.4615 -1.6832  1.4371
  158SAPE  C31517642   3.781   6.439   5.072 -0.0050 -0.0385  0.1971
  158SAPE  H15X17643   3.817   6.543   5.087  1.9833 -0.3490 -1.8869
  158SAPE  H15Y17644   3.681   6.449   5.024 -1.9238 -0.7742  3.7578
  158SAPE  C31617645   3.880   6.358   4.985 -0.1517  0.4056 -0.4548
  158SAPE  H16X17646   3.840   6.257   4.960  1.2510 -0.8530  1.9855
  158SAPE  H16Y17647   3.979   6.347   5.035  0.2299  1.4139 -0.9717
  158SAPE  C31717648   3.899   6.428   4.847 -0.3244  0.4403  0.0781
  158SAPE  H17X17649   3.934   6.532   4.863 -1.0852  0.5899  0.8580
  158SAPE  H17Y17650   3.800   6.446   4.801  0.1158  1.5817 -0.4368
  158SAPE  C31817651   3.985   6.347   4.747  0.1261 -0.3960  0.0483
  158SAPE  H18X17652   4.091   6.347   4.780  0.8663 -0.5255 -2.1562
  158SAPE  H18Y17653   3.986   6.397   4.647  0.6399  3.1081  1.6458
  158SAPE  H18Z17654   3.961   6.239   4.741 -1.5696 -0.0783  0.6954
  159SAPE     N17655   2.927   3.842   2.492 -0.1909  0.5155 -0.0234
  159SAPE   HN117656   2.823   3.851   2.490 -0.4460 -1.8909 -0.7834
  159SAPE   HN217657   2.947   3.758   2.433 -0.2655  0.1612  0.4491
  159SAPE   HN317658   2.967   3.817   2.585 -0.9265 -2.1027 -0.3058
  159SAPE   C1217659   3.001   3.947   2.432  0.3668 -0.3268  0.3708
  159SAPE  H12A17660   2.981   4.041   2.489  0.3589  1.3288 -2.1769
  159SAPE  H12B17661   2.958   3.956   2.330 -0.1460  0.8774  0.6787
  159SAPE   C1117662   3.148   3.913   2.428 -1.0229  0.7958 -0.8854
  159SAPE  H11A17663   3.189   3.920   2.531 -1.4767 -3.1362 -0.2990
  159SAPE  H11B17664   3.197   3.993   2.368 -0.1281 -0.8436 -2.4390
  159SAPE     P17665   3.336   3.738   2.362  0.1480  0.5588 -0.3055
  159SAPE   O1317666   3.339   3.590   2.386  0.5429 -0.5236  0.1534
  159SAPE   O1417667   3.387   3.784   2.230  0.1870  0.1600 -0.5433
  159SAPE   O1217668   3.177   3.780   2.377 -0.3072 -0.4425  0.3105
  159SAPE   O1117669   3.408   3.815   2.471 -0.6748  0.6837 -0.9246
  159SAPE    C117670   3.401   3.765   2.603 -0.0326  0.1661 -0.3871
  159SAPE    HA17671   3.351   3.838   2.671  0.0867  1.2525 -1.4264
  159SAPE    HB17672   3.345   3.670   2.617 -1.6808  1.2187  0.6100
  159SAPE    C217673   3.548   3.747   2.666  0.0661 -0.0553 -0.1927
  159SAPE    HS17674   3.591   3.649   2.637 -0.4802 -0.3834  0.0815
  159SAPE   O2117675   3.529   3.767   2.810 -0.4838  0.0425 -0.3512
  159SAPE   C2117676   3.591   3.688   2.893 -0.4204  0.2521 -0.1858
  159SAPE   O2217677   3.659   3.593   2.860  0.4503 -0.0163  1.0086
  159SAPE   C2217678   3.600   3.744   3.035 -0.5088  0.1001 -0.1568
  159SAPE   H2R17679   3.685   3.692   3.085 -0.9010  0.7972  1.2912
  159SAPE   H2S17680   3.624   3.852   3.032 -2.1502  0.4716 -2.2340
  159SAPE    C317681   3.631   3.867   2.609 -0.1466  0.0711 -0.2364
  159SAPE    HX17682   3.572   3.959   2.628 -0.1267  0.1626 -0.6079
  159SAPE    HY17683   3.662   3.865   2.502  0.6516  1.6167 -0.0699
  159SAPE   O3117684   3.745   3.885   2.694  0.4606 -0.4545  0.4131
  159SAPE   C3117685   3.856   3.836   2.649  0.3770 -0.2583  0.0953
  159SAPE   O3217686   3.878   3.776   2.539 -0.1664 -1.0804 -0.8392
  159SAPE   C3217687   3.960   3.861   2.750 -1.0147  0.2305 -0.5420
  159SAPE   H2X17688   3.981   3.968   2.768  2.0065 -0.6645  2.3475
  159SAPE   H2Y17689   4.057   3.821   2.714 -1.4071  0.1518 -1.5477
  159SAPE   C2317690   3.465   3.709   3.109 -0.4995 -0.0769 -1.1474
  159SAPE   H3R17691   3.425   3.617   3.062  0.4601  0.7232 -3.6888
  159SAPE   H3S17692   3.391   3.787   3.082 -3.2786 -2.2558 -0.2915
  159SAPE   C2417693   3.490   3.691   3.259  0.4553 -0.0623  0.3666
  159SAPE   H4R17694   3.576   3.621   3.272  2.4347  2.0567 -0.6216
  159SAPE   H4S17695   3.397   3.653   3.305  0.2043 -0.0848 -0.1509
  159SAPE   C2517696   3.521   3.817   3.331 -0.6061 -0.2511  0.1273
  159SAPE   H5R17697   3.588   3.886   3.277  0.0765 -1.0909 -0.1268
  159SAPE   C2617698   3.476   3.849   3.452 -0.0358  0.1282 -0.3050
  159SAPE   H6R17699   3.519   3.935   3.505  0.0668 -0.8720  1.3246
  159SAPE   C2717700   3.381   3.770   3.534  0.1075  0.3400 -0.0025
  159SAPE   H7R17701   3.394   3.664   3.505  0.5403  0.5333 -0.5353
  159SAPE   H7S17702   3.275   3.804   3.524  0.1032  0.4439  0.3891
  159SAPE   C2817703   3.395   3.790   3.675  0.5759 -1.1800 -0.0748
  159SAPE   H8R17704   3.331   3.864   3.727 -0.7597 -1.6603 -0.9857
  159SAPE   C2917705   3.502   3.740   3.747 -0.0694  0.0993 -0.3568
  159SAPE   H9R17706   3.502   3.762   3.855  0.6973  2.6179 -0.8045
  159SAPE  C21017707   3.617   3.650   3.707  0.6629  0.2711 -0.0352
  159SAPE  H10R17708   3.596   3.621   3.602  0.0954 -2.3938  0.7323
  159SAPE  H10S17709   3.616   3.557   3.767  2.0239  1.1339  1.4283
  159SAPE  C21117710   3.755   3.704   3.706 -0.3476 -0.3434  0.1769
  159SAPE  H11R17711   3.804   3.706   3.608  2.1908  0.1775  1.3638
  159SAPE  C21217712   3.831   3.745   3.808 -0.3193  0.1357  0.0167
  159SAPE  H12R17713   3.933   3.778   3.787 -0.0661 -0.5994  0.0764
  159SAPE  C21317714   3.797   3.754   3.949  0.1149  0.0412  0.5384
  159SAPE  H13R17715   3.687   3.748   3.960 -0.3748  3.9086 -0.6162
  159SAPE  H13S17716   3.824   3.858   3.976  1.5301 -0.3778  0.8187
  159SAPE  C21417717   3.880   3.672   4.037  0.6086  0.2016 -0.0710
  159SAPE  H14R17718   3.938   3.590   3.991 -0.9359 -0.6747 -0.5237
  159SAPE  C21517719   3.858   3.640   4.164 -0.1545 -0.5427 -0.0547
  159SAPE  H15R17720   3.918   3.566   4.218 -0.8853  0.3180  2.0345
  159SAPE  C21617721   3.741   3.685   4.249 -0.0676 -0.1030  0.0499
  159SAPE  H16R17722   3.683   3.595   4.278  0.5941 -0.1437  1.3216
  159SAPE  H16S17723   3.668   3.756   4.205 -0.3361 -0.2767  0.2134
  159SAPE  C21717724   3.792   3.738   4.382 -0.4619 -0.4253 -0.4626
  159SAPE  H17R17725   3.833   3.838   4.356 -2.4389  0.7302  0.6511
  159SAPE  H17S17726   3.866   3.686   4.447 -1.4270 -0.9105  0.2770
  159SAPE  C21817727   3.687   3.764   4.482  0.0449 -0.0061 -0.2446
  159SAPE  H18R17728   3.728   3.816   4.571  1.0074  1.6920 -1.6128
  159SAPE  H18S17729   3.639   3.668   4.510 -3.2473  2.1711  2.2752
  159SAPE  C21917730   3.589   3.872   4.432 -0.2964  0.2789  0.2356
  159SAPE  H19R17731   3.521   3.832   4.355  0.3479 -0.9988  0.3040
  159SAPE  H19S17732   3.648   3.959   4.396 -1.6064  1.4173  0.7139
  159SAPE  C22017733   3.513   3.912   4.562 -0.1568  0.4246 -0.1424
  159SAPE  H20R17734   3.481   3.816   4.606 -1.5012  1.4040  1.1013
  159SAPE  H20S17735   3.422   3.974   4.547 -1.0952 -1.1674 -1.3174
  159SAPE  H20T17736   3.590   3.957   4.629 -1.0466  0.0644  1.1512
  159SAPE   C3317737   3.922   3.792   2.882 -0.9346 -0.1462  0.9223
  159SAPE   H3X17738   3.888   3.686   2.870  1.0308 -0.5242 -2.4292
  159SAPE   H3Y17739   3.849   3.852   2.942  0.9487 -0.1381  3.3645
  159SAPE   C3417740   4.045   3.789   2.975  0.1714  0.2672  0.0460
  159SAPE   H4X17741   4.088   3.892   2.974 -0.1573  0.4192  0.8585
  159SAPE   H4Y17742   4.129   3.727   2.938  1.5931  0.2476  2.9945
  159SAPE   C3517743   4.012   3.766   3.124  0.1495  0.2156 -0.2790
  159SAPE   H5X17744   3.963   3.667   3.135  2.3456 -0.6819  3.3766
  159SAPE   H5Y17745   3.924   3.829   3.146 -0.3506 -0.7673  0.6557
  159SAPE   C3617746   4.125   3.795   3.228  0.9692  0.2255 -0.0123
  159SAPE   H6X17747   4.184   3.877   3.183  0.7881 -0.1022 -0.8656
  159SAPE   H6Y17748   4.188   3.704   3.230  0.8714  0.1716  0.9324
  159SAPE   C3717749   4.082   3.836   3.370 -0.1448 -0.0307  1.0584
  159SAPE   H7X17750   4.018   3.756   3.414  0.0483 -0.6276  0.2661
  159SAPE   H7Y17751   4.018   3.927   3.376 -0.1005  0.0761  0.1119
  159SAPE   C3817752   4.208   3.851   3.458 -0.5028  0.6544  0.1452
  159SAPE   H8X17753   4.269   3.941   3.433  0.0316  0.3390  0.2913
  159SAPE   H8Y17754   4.282   3.776   3.423  0.0766  0.6106  1.4276
  159SAPE   C3917755   4.191   3.823   3.606 -0.2932  0.6551  0.4688
  159SAPE   H9X17756   4.119   3.738   3.606 -1.4004  1.5225  2.3138
  159SAPE   H9Y17757   4.136   3.905   3.657 -0.2602  1.0905 -0.2012
  159SAPE  C31017758   4.315   3.795   3.690  0.0702 -0.0843 -0.8025
  159SAPE  H10X17759   4.375   3.712   3.648 -2.4834 -0.9506 -3.0626
  159SAPE  H10Y17760   4.276   3.762   3.789  0.5956  0.5592 -0.3685
  159SAPE  C31117761   4.404   3.915   3.730  0.1879 -0.0235 -0.2021
  159SAPE  H11X17762   4.334   3.994   3.766 -1.1255 -0.2923 -2.0256
  159SAPE  H11Y17763   4.453   3.952   3.637  0.9411  0.2416  0.2919
  159SAPE  C31217764   4.514   3.881   3.836 -0.1129  0.7694  0.1221
  159SAPE  H12X17765   4.475   3.837   3.930  0.9443  1.6440  1.0046
  159SAPE  H12Y17766   4.562   3.972   3.879 -0.1425  0.4298  0.9030
  159SAPE  C31317767   4.623   3.777   3.791  0.4126 -0.3659 -0.3680
  159SAPE  H13X17768   4.570   3.706   3.725 -0.5436  1.3770 -1.5321
  159SAPE  H13Y17769   4.656   3.733   3.888 -0.8430 -1.4779 -0.4216
  159SAPE  C31417770   4.725   3.837   3.700 -1.0047  0.0274 -0.4335
  159SAPE  H14X17771   4.770   3.937   3.721 -0.9640 -0.4295  1.9131
  159SAPE  H14Y17772   4.683   3.862   3.600  1.4933  2.2664 -1.0691
  159SAPE  C31517773   4.846   3.753   3.675 -0.2562  0.3676 -0.8030
  159SAPE  H15X17774   4.800   3.666   3.625 -0.0832 -0.0972 -0.1615
  159SAPE  H15Y17775   4.901   3.726   3.768 -2.6557 -1.8233  0.1030
  159SAPE  C31617776   4.946   3.805   3.580  0.2013  0.7300  0.2313
  159SAPE  H16X17777   5.000   3.897   3.611 -0.6722  1.7126 -1.0634
  159SAPE  H16Y17778   4.870   3.829   3.502 -4.0414 -0.6797  3.4871
  159SAPE  C31717779   5.057   3.709   3.539 -0.1057 -0.7041  1.1132
  159SAPE  H17X17780   5.086   3.744   3.438  1.4958  0.9054  2.0686
  159SAPE  H17Y17781   5.004   3.613   3.522 -2.8143  0.9502 -0.3717
  159SAPE  C31817782   5.171   3.682   3.630  0.3630 -0.0142 -0.1335
  159SAPE  H18X17783   5.191   3.572   3.625 -1.2794 -0.3157 -1.0728
  159SAPE  H18Y17784   5.142   3.708   3.734  0.2758 -0.8578  0.0605
  159SAPE  H18Z17785   5.264   3.736   3.604  1.3592 -2.3695 -1.8485
  160SAPE     N17786   3.443   3.363   2.475 -0.3396 -0.2348  0.4499
  160SAPE   HN117787   3.420   3.311   2.388 -2.1325  0.7394  0.2964
  160SAPE   HN217788   3.390   3.324   2.556  1.5654  1.2355  2.5070
  160SAPE   HN317789   3.415   3.459   2.447  1.6140  0.0589 -0.6354
  160SAPE   C1217790   3.594   3.354   2.493  0.3240  0.5128  0.1948
  160SAPE  H12A17791   3.629   3.440   2.555 -0.7240  0.2170  1.2528
  160SAPE  H12B17792   3.636   3.361   2.391 -0.1075 -1.7973 -0.2002
  160SAPE   C1117793   3.638   3.219   2.552 -0.0451 -0.4572 -0.3203
  160SAPE  H11A17794   3.572   3.202   2.640 -1.0899  0.8950 -0.8093
  160SAPE  H11B17795   3.747   3.226   2.574 -0.3821  2.0335  0.9261
  160SAPE     P17796   3.721   3.057   2.361 -0.1995  0.2410  0.1467
  160SAPE   O1317797   3.665   2.927   2.315  0.3422 -0.1463  0.1460
  160SAPE   O1417798   3.750   3.170   2.266  0.3206  0.1495  0.1955
  160SAPE   O1217799   3.618   3.109   2.467  0.1727  0.0015  0.6784
  160SAPE   O1117800   3.847   3.030   2.447 -0.5375 -0.6936 -0.1448
  160SAPE    C117801   3.868   2.915   2.527  0.1469 -0.4832  0.1067
  160SAPE    HA17802   3.811   2.826   2.492 -1.2586  1.4188 -2.8523
  160SAPE    HB17803   3.975   2.885   2.521  0.2844  0.2616 -1.3950
  160SAPE    C217804   3.835   2.933   2.682 -0.2767  0.0490  0.6561
  160SAPE    HS17805   3.728   2.956   2.702  0.4247  2.6546  1.9960
  160SAPE   O2117806   3.917   3.041   2.727 -0.0174 -0.6166 -0.3238
  160SAPE   C2117807   3.879   3.103   2.838 -0.5470 -0.1345  1.0337
  160SAPE   O2217808   3.780   3.080   2.904 -0.4021 -0.1893 -0.0541
  160SAPE   C2217809   3.988   3.198   2.883  0.1251 -0.6257  0.7256
  160SAPE   H2R17810   4.076   3.140   2.918  0.8012 -0.7999 -1.1626
  160SAPE   H2S17811   4.027   3.258   2.799  3.7135 -1.8685  1.3320
  160SAPE    C317812   3.876   2.802   2.752  0.4910 -0.0407  0.5052
  160SAPE    HX17813   3.981   2.776   2.726 -0.5793 -1.6766 -2.7768
  160SAPE    HY17814   3.808   2.719   2.725  0.3232 -0.0804  1.0399
  160SAPE   O3117815   3.858   2.822   2.893 -0.4757 -0.2276 -0.4614
  160SAPE   C3117816   3.741   2.797   2.944  0.3560 -0.4728 -0.0340
  160SAPE   O3217817   3.644   2.762   2.877  0.7395 -0.2728  0.6567
  160SAPE   C3217818   3.756   2.805   3.097 -0.2938  0.0782  0.7636
  160SAPE   H2X17819   3.808   2.899   3.125 -0.8833  0.3413  0.9769
  160SAPE   H2Y17820   3.827   2.727   3.133  2.0231  2.0418  0.6909
  160SAPE   C2317821   3.939   3.284   3.001  0.1303  0.4113  0.7919
  160SAPE   H3R17822   3.924   3.218   3.089  0.6109  1.9527  2.0722
  160SAPE   H3S17823   3.839   3.326   2.975  0.5526 -0.3399 -2.4190
  160SAPE   C2417824   4.027   3.406   3.020  0.3975 -0.2011  0.6380
  160SAPE   H4R17825   3.973   3.469   3.094 -0.7633 -2.1823  1.5855
  160SAPE   H4S17826   4.029   3.475   2.933  0.6460  1.4636  1.9162
  160SAPE   C2517827   4.170   3.385   3.066 -0.2982  0.1576 -0.4593
  160SAPE   H5R17828   4.246   3.400   2.987 -0.1730 -1.0699 -0.5827
  160SAPE   C2617829   4.207   3.363   3.191 -0.3980 -0.1294 -0.3492
  160SAPE   H6R17830   4.314   3.346   3.208 -0.4483 -1.1569 -0.9563
  160SAPE   C2717831   4.108   3.349   3.307 -0.2795 -0.2425 -0.3636
  160SAPE   H7R17832   4.073   3.243   3.301 -0.4124 -0.1418 -1.6132
  160SAPE   H7S17833   4.017   3.410   3.288 -0.0824 -0.7724 -3.6051
  160SAPE   C2817834   4.166   3.400   3.440 -0.0204  0.2207 -0.5965
  160SAPE   H8R17835   4.273   3.425   3.446 -0.0048  0.3711 -1.3940
  160SAPE   C2917836   4.080   3.419   3.548 -0.5250  0.3010  0.5243
  160SAPE   H9R17837   4.114   3.443   3.650  1.8629 -0.8665  0.0710
  160SAPE  C21017838   3.932   3.382   3.547 -0.0541  0.1220 -0.3597
  160SAPE  H10R17839   3.893   3.391   3.443 -0.4894 -1.9895 -0.4095
  160SAPE  H10S17840   3.875   3.451   3.613  0.2387 -1.0906  1.1928
  160SAPE  C21117841   3.928   3.241   3.594 -0.2027  0.3787 -0.1941
  160SAPE  H11R17842   3.948   3.168   3.514 -2.3969  1.5693 -1.9646
  160SAPE  C21217843   3.899   3.204   3.720 -0.3503  0.1836  0.5590
  160SAPE  H12R17844   3.886   3.097   3.737  0.4698 -0.2196 -1.0942
  160SAPE  C21317845   3.873   3.292   3.839  0.4137 -0.5508  0.3121
  160SAPE  H13R17846   3.762   3.303   3.838  0.3918 -0.8078  0.0057
  160SAPE  H13S17847   3.918   3.393   3.829  0.8107 -0.6645  0.9099
  160SAPE  C21417848   3.905   3.248   3.978  0.1982  0.1000  0.0450
  160SAPE  H14R17849   3.822   3.199   4.032  0.4651 -3.3117 -2.2948
  160SAPE  C21517850   4.018   3.276   4.033 -0.2812 -0.1380  0.3735
  160SAPE  H15R17851   4.036   3.235   4.133 -0.4202 -3.2799 -0.7688
  160SAPE  C21617852   4.133   3.356   3.980 -0.3522 -0.4691  0.0236
  160SAPE  H16R17853   4.179   3.402   4.070  2.2393 -0.8452 -1.0301
  160SAPE  H16S17854   4.089   3.440   3.922  1.0122  0.6361  0.5298
  160SAPE  C21717855   4.235   3.276   3.900  0.0729 -0.7558  0.8565
  160SAPE  H17R17856   4.180   3.264   3.804 -1.4136  1.0976  1.4329
  160SAPE  H17S17857   4.252   3.179   3.952  2.3253 -0.7056  0.3312
  160SAPE  C21817858   4.362   3.355   3.872 -0.6671  0.0428  1.0181
  160SAPE  H18R17859   4.426   3.380   3.959 -0.4533 -1.3083  1.2690
  160SAPE  H18S17860   4.325   3.445   3.820 -0.9962 -0.8811 -0.4187
  160SAPE  C21917861   4.463   3.282   3.773  0.6357  0.1537 -0.4256
  160SAPE  H19R17862   4.409   3.273   3.676 -3.5847  0.4346  1.6823
  160SAPE  H19S17863   4.475   3.179   3.812  1.8123 -0.1335 -1.4700
  160SAPE  C22017864   4.594   3.361   3.763 -0.5250 -0.2055 -0.7280
  160SAPE  H20R17865   4.665   3.328   3.684  1.0203 -0.6391  0.7827
  160SAPE  H20S17866   4.634   3.351   3.866 -0.5237 -3.7595 -0.9455
  160SAPE  H20T17867   4.573   3.467   3.738  0.4932 -0.3097 -2.1252
  160SAPE   C3317868   3.621   2.792   3.167  0.3064 -0.2896 -0.1179
  160SAPE   H3X17869   3.586   2.686   3.173 -1.0809  0.1813  0.6438
  160SAPE   H3Y17870   3.545   2.857   3.119  1.1407 -1.0472 -2.6126
  160SAPE   C3417871   3.630   2.852   3.310 -0.2450  0.2872  0.7738
  160SAPE   H4X17872   3.537   2.829   3.365  0.2090  1.8482  2.2587
  160SAPE   H4Y17873   3.641   2.962   3.306 -0.3296  0.3895  2.5526
  160SAPE   C3517874   3.744   2.798   3.398  0.7790  0.0785 -0.4126
  160SAPE   H5X17875   3.848   2.826   3.372  2.1661 -1.8461  2.4877
  160SAPE   H5Y17876   3.734   2.687   3.393 -1.5687  0.2415 -0.7781
  160SAPE   C3617877   3.742   2.860   3.541 -0.3885  0.0082 -0.0272
  160SAPE   H6X17878   3.757   2.969   3.533  0.9935  0.0702  2.5637
  160SAPE   H6Y17879   3.834   2.816   3.585 -1.4227  0.3147  2.6047
  160SAPE   C3717880   3.628   2.815   3.634  0.6277 -0.2821  0.4632
  160SAPE   H7X17881   3.641   2.709   3.663 -0.6162 -0.4959  0.2814
  160SAPE   H7Y17882   3.530   2.821   3.582  0.0958  0.3228  1.4881
  160SAPE   C3817883   3.605   2.900   3.762  0.5170 -0.8559 -0.4687
  160SAPE   H8X17884   3.511   2.870   3.813 -1.4695  2.8098 -1.6621
  160SAPE   H8Y17885   3.606   3.007   3.733 -0.1446 -0.1662  1.8595
  160SAPE   C3917886   3.722   2.879   3.861 -0.1767 -0.1842  0.1005
  160SAPE   H9X17887   3.814   2.918   3.812 -0.2484  0.0699  0.1653
  160SAPE   H9Y17888   3.737   2.770   3.876  1.1560 -0.1760 -1.0524
  160SAPE  C31017889   3.694   2.923   4.010  0.4511 -0.6259  0.1410
  160SAPE  H10X17890   3.602   2.874   4.048  0.5664  0.7694  2.3745
  160SAPE  H10Y17891   3.674   3.032   4.011  0.7506 -0.5595 -0.4932
  160SAPE  C31117892   3.809   2.871   4.102  0.4580  0.6958 -0.7855
  160SAPE  H11X17893   3.904   2.906   4.058  1.2727 -1.1367 -0.5573
  160SAPE  H11Y17894   3.813   2.760   4.110  1.5503  0.7285 -0.7326
  160SAPE  C31217895   3.786   2.915   4.248 -0.0560 -0.2202  0.6717
  160SAPE  H12X17896   3.687   2.879   4.284 -1.7635  0.9027 -2.5191
  160SAPE  H12Y17897   3.774   3.025   4.248 -0.3068 -0.2093  2.4909
  160SAPE  C31317898   3.900   2.864   4.339  0.4665  0.4957  0.0744
  160SAPE  H13X17899   4.000   2.890   4.297  0.5194 -1.5811 -1.2274
  160SAPE  H13Y17900   3.894   2.753   4.329  3.0255  0.4074 -1.6657
  160SAPE  C31417901   3.879   2.905   4.481  0.4518 -0.6174 -0.1138
  160SAPE  H14X17902   3.774   2.900   4.517  0.2873 -0.5082 -0.5805
  160SAPE  H14Y17903   3.899   3.012   4.503 -0.5015 -0.4290 -0.1375
  160SAPE  C31517904   3.969   2.827   4.578  0.2053  0.5929  0.8250
  160SAPE  H15X17905   3.958   2.722   4.545 -1.8048  0.9409  0.2249
  160SAPE  H15Y17906   3.918   2.837   4.676 -1.7602 -1.2761  0.0706
  160SAPE  C31617907   4.112   2.887   4.582  0.7772  0.3573 -0.0388
  160SAPE  H16X17908   4.104   2.995   4.608  1.7914  0.9430 -1.9594
  160SAPE  H16Y17909   4.154   2.881   4.479 -1.5241  2.3073 -1.2034
  160SAPE  C31717910   4.188   2.827   4.698 -0.6311 -0.4913  0.0267
  160SAPE  H17X17911   4.215   2.721   4.679  2.0061  0.2748 -1.0249
  160SAPE  H17Y17912   4.121   2.819   4.786  0.7717 -1.1228  1.0597
  160SAPE  C31817913   4.320   2.901   4.739 -0.2208  0.5292 -1.3174
  160SAPE  H18X17914   4.369   2.861   4.830 -0.8206  3.0299  0.2122
  160SAPE  H18Y17915   4.305   3.011   4.749  1.2152  0.7708 -1.5582
  160SAPE  H18Z17916   4.396   2.889   4.659  3.1797  0.0946  1.6951
  161SAPE     N17917   3.883   5.294   2.360 -0.7386 -0.0403  0.1330
  161SAPE   HN117918   3.970   5.241   2.340 -0.0696  0.1807  2.1516
  161SAPE   HN217919   3.907   5.344   2.448  0.7472 -3.4827  1.8715
  161SAPE   HN317920   3.799   5.235   2.371 -2.8603  2.5405 -1.0494
  161SAPE   C1217921   3.845   5.392   2.258  0.5482 -0.5384 -0.2001
  161SAPE  H12A17922   3.836   5.341   2.159  0.7231 -0.9956  0.0173
  161SAPE  H12B17923   3.927   5.466   2.253  0.2636 -0.1317  0.9577
  161SAPE   C1117924   3.711   5.467   2.286 -0.1367  0.2312  0.0272
  161SAPE  H11A17925   3.699   5.544   2.207 -0.1800  0.2866  0.0881
  161SAPE  H11B17926   3.733   5.529   2.375 -1.0591  0.4604  0.1053
  161SAPE     P17927   3.498   5.335   2.192  0.4242  0.0545  0.1181
  161SAPE   O1317928   3.396   5.444   2.193 -0.1385  0.1754 -0.3754
  161SAPE   O1417929   3.567   5.316   2.061  0.1196  0.5475  0.4321
  161SAPE   O1217930   3.600   5.374   2.301  0.2169 -0.3811 -0.1580
  161SAPE   O1117931   3.426   5.200   2.243  0.5478 -0.1152  0.6724
  161SAPE    C117932   3.486   5.139   2.355  0.2137  1.1280 -0.0995
  161SAPE    HA17933   3.470   5.029   2.358 -2.4859  1.4368 -0.1719
  161SAPE    HB17934   3.595   5.150   2.339  0.4869  1.3742  1.6820
  161SAPE    C217935   3.430   5.185   2.489 -0.4171 -0.4146  0.2409
  161SAPE    HS17936   3.443   5.296   2.494  1.2238 -0.6372  2.4397
  161SAPE   O2117937   3.489   5.130   2.610 -0.6094  0.1511  0.0586
  161SAPE   C2117938   3.605   5.167   2.639 -0.5027 -0.2326  0.1675
  161SAPE   O2217939   3.673   5.234   2.562 -0.1558  0.1148 -0.2245
  161SAPE   C2217940   3.638   5.115   2.776 -0.2106  0.7523 -0.8468
  161SAPE   H2R17941   3.611   5.007   2.785  1.3973  0.4389  0.6701
  161SAPE   H2S17942   3.747   5.133   2.783 -0.0658  0.0203 -1.1275
  161SAPE    C317943   3.272   5.179   2.495 -0.3145 -0.0767  0.0039
  161SAPE    HX17944   3.238   5.084   2.449 -0.1074  0.0538 -0.4227
  161SAPE    HY17945   3.243   5.260   2.424 -0.7791 -0.6485 -0.4633
  161SAPE   O3117946   3.217   5.210   2.625  0.0536  0.6539 -0.6792
  161SAPE   C3117947   3.214   5.334   2.654 -0.3722  0.5701  0.8184
  161SAPE   O3217948   3.274   5.428   2.602  0.6288 -0.1698  0.3700
  161SAPE   C3217949   3.112   5.351   2.768  0.2785 -0.1952  0.4464
  161SAPE   H2X17950   3.045   5.263   2.779 -0.5647  0.5417  1.4225
  161SAPE   H2Y17951   3.053   5.445   2.759 -0.8203 -1.0313 -1.9353
  161SAPE   C2317952   3.566   5.200   2.884  0.1566  0.1463 -0.4583
  161SAPE   H3R17953   3.458   5.205   2.860 -0.4577 -2.3933  1.3848
  161SAPE   H3S17954   3.601   5.305   2.885  0.1814  0.1458  0.6571
  161SAPE   C2417955   3.565   5.139   3.027  0.6726 -0.5997  0.3186
  161SAPE   H4R17956   3.528   5.035   3.019  1.1789 -0.7461 -0.1558
  161SAPE   H4S17957   3.491   5.200   3.084  1.8061  1.7161 -0.5317
  161SAPE   C2517958   3.693   5.157   3.094 -0.2236 -0.1479 -0.1023
  161SAPE   H5R17959   3.781   5.191   3.036  2.3496 -1.8080  2.5520
  161SAPE   C2617960   3.719   5.111   3.217 -0.3008 -0.2014 -0.0189
  161SAPE   H6R17961   3.818   5.136   3.257  0.0147 -1.4016 -0.0250
  161SAPE   C2717962   3.626   5.047   3.317  0.0641  0.1734 -0.4288
  161SAPE   H7R17963   3.678   4.957   3.355  1.1124  0.3403 -1.4025
  161SAPE   H7S17964   3.530   5.020   3.266  0.2887  1.4182 -1.5867
  161SAPE   C2817965   3.592   5.142   3.425 -0.1204 -0.3086 -0.1552
  161SAPE   H8R17966   3.513   5.210   3.390 -2.7087 -2.4944  1.1125
  161SAPE   C2917967   3.635   5.138   3.551 -0.7512  0.4236  0.3293
  161SAPE   H9R17968   3.601   5.215   3.621  0.0036 -0.7258  2.0157
  161SAPE  C21017969   3.745   5.046   3.602  0.3297  0.1114  0.6271
  161SAPE  H10R17970   3.788   4.989   3.517 -2.8573  1.8122 -2.3718
  161SAPE  H10S17971   3.692   4.970   3.663 -0.0353 -1.2521 -1.3045
  161SAPE  C21117972   3.842   5.138   3.673 -0.3329  0.1541  0.1120
  161SAPE  H11R17973   3.911   5.192   3.607 -0.5031 -1.5524 -1.5136
  161SAPE  C21217974   3.856   5.168   3.804  0.1971  0.3375  0.4753
  161SAPE  H12R17975   3.935   5.241   3.828 -0.1275  0.3782  1.4969
  161SAPE  C21317976   3.774   5.120   3.920  0.3968  0.3410  0.7909
  161SAPE  H13R17977   3.691   5.056   3.883  1.1878  0.0296 -0.5055
  161SAPE  H13S17978   3.735   5.208   3.975 -2.2315 -0.3443  0.1506
  161SAPE  C21417979   3.853   5.020   3.994 -0.0721  0.9012 -0.1206
  161SAPE  H14R17980   3.902   4.941   3.935  2.2698  2.0032  0.2537
  161SAPE  C21517981   3.844   5.014   4.128  0.2110 -0.6081 -0.8272
  161SAPE  H15R17982   3.897   4.933   4.181  2.4864  0.7948 -0.8484
  161SAPE  C21617983   3.774   5.092   4.232 -0.6763  0.5729 -0.1657
  161SAPE  H16R17984   3.686   5.139   4.184  1.7613  2.7327 -2.9493
  161SAPE  H16S17985   3.833   5.182   4.261 -0.1854  1.1801 -2.7564
  161SAPE  C21717986   3.726   5.001   4.347 -0.5012 -0.1476  0.3998
  161SAPE  H17R17987   3.816   4.956   4.396 -1.2195 -0.2485  1.6681
  161SAPE  H17S17988   3.671   4.918   4.297  0.2947 -0.7030  0.4198
  161SAPE  C21817989   3.630   5.080   4.439  0.7750 -0.2996  0.1528
  161SAPE  H18R17990   3.613   5.016   4.527  2.5802 -0.8770  0.1215
  161SAPE  H18S17991   3.539   5.095   4.377  0.0133  0.8402  1.4889
  161SAPE  C21917992   3.677   5.215   4.485 -0.5876 -0.4410 -0.2333
  161SAPE  H19R17993   3.602   5.246   4.561  0.1659 -0.2763  0.4611
  161SAPE  H19S17994   3.671   5.302   4.416  0.8989 -0.2514 -0.1457
  161SAPE  C22017995   3.819   5.204   4.542  0.2076  0.0210 -0.2081
  161SAPE  H20R17996   3.848   5.297   4.596 -2.2821  0.5685  0.2910
  161SAPE  H20S17997   3.892   5.194   4.458  1.2800  2.8239  0.2903
  161SAPE  H20T17998   3.827   5.122   4.617  5.0706  0.9608  0.6476
  161SAPE   C3317999   3.183   5.357   2.904  0.1557  0.5669 -0.3087
  161SAPE   H3X18000   3.253   5.444   2.906  0.1585  0.5690 -0.4937
  161SAPE   H3Y18001   3.256   5.274   2.911  0.4501  0.8338 -0.1741
  161SAPE   C3418002   3.074   5.344   3.011 -0.2993 -0.5382 -0.1235
  161SAPE   H4X18003   3.030   5.243   3.014  1.3529 -1.2873  1.7346
  161SAPE   H4Y18004   2.987   5.413   3.003  1.5444  1.9226 -0.4392
  161SAPE   C3518005   3.157   5.358   3.149 -0.0756  0.1556 -0.4840
  161SAPE   H5X18006   3.197   5.462   3.144  0.6376 -0.1628 -2.3586
  161SAPE   H5Y18007   3.240   5.285   3.158  0.0037  0.3416  0.3919
  161SAPE   C3618008   3.064   5.338   3.272  0.8591  0.8607  0.3824
  161SAPE   H6X18009   3.073   5.229   3.291 -0.7343  1.0318  2.4423
  161SAPE   H6Y18010   2.956   5.346   3.247  0.3006 -1.3296  1.7656
  161SAPE   C3718011   3.106   5.426   3.390 -0.2974 -0.3613 -0.1039
  161SAPE   H7X18012   3.080   5.533   3.370 -0.8749 -0.0164  2.2049
  161SAPE   H7Y18013   3.214   5.424   3.417 -0.8564 -2.0521  2.2402
  161SAPE   C3818014   3.029   5.392   3.521 -0.1773  0.6045  0.1180
  161SAPE   H8X18015   3.063   5.293   3.557  0.2290  0.6835 -0.0479
  161SAPE   H8Y18016   2.920   5.385   3.499  0.0759  0.0669 -1.0346
  161SAPE   C3918017   3.048   5.488   3.640 -0.2094  0.3168 -0.2796
  161SAPE   H9X18018   2.967   5.470   3.713  0.4318  1.3809  0.7236
  161SAPE   H9Y18019   3.026   5.588   3.595 -0.9686 -0.2059 -1.0992
  161SAPE  C31018020   3.188   5.481   3.708  0.2350 -0.7121 -0.3547
  161SAPE  H10X18021   3.268   5.507   3.635 -0.0652  0.9192 -0.1167
  161SAPE  H10Y18022   3.203   5.376   3.744 -2.5674 -0.7532  0.9333
  161SAPE  C31118023   3.187   5.588   3.822  0.1714 -0.2269 -0.4559
  161SAPE  H11X18024   3.133   5.678   3.787  0.7790  0.6593  0.7893
  161SAPE  H11Y18025   3.294   5.617   3.827 -0.5567  2.4538  1.9431
  161SAPE  C31218026   3.140   5.526   3.960 -0.2290 -0.2104  0.3800
  161SAPE  H12X18027   3.222   5.461   4.000  1.6512  0.7928 -1.5942
  161SAPE  H12Y18028   3.040   5.484   3.937 -0.4915  1.0929 -1.0520
  161SAPE  C31318029   3.117   5.634   4.057 -1.1109 -0.4290  0.3429
  161SAPE  H13X18030   3.039   5.611   4.133  0.3403 -2.0966  1.3986
  161SAPE  H13Y18031   3.072   5.718   4.001 -0.8306 -1.2894 -1.2302
  161SAPE  C31418032   3.246   5.681   4.119 -0.1318 -0.2998  0.3275
  161SAPE  H14X18033   3.219   5.757   4.196 -1.3417 -1.4054  1.0504
  161SAPE  H14Y18034   3.327   5.711   4.050  1.2672 -3.1909  0.5547
  161SAPE  C31518035   3.320   5.569   4.206 -0.0773 -0.6580 -0.4407
  161SAPE  H15X18036   3.387   5.521   4.132 -0.9861 -0.0995 -1.6660
  161SAPE  H15Y18037   3.259   5.497   4.264  0.8446 -1.3767 -0.3396
  161SAPE  C31618038   3.420   5.642   4.305  0.4427 -0.3542  0.7134
  161SAPE  H16X18039   3.356   5.681   4.387 -0.8898  0.0398 -0.4772
  161SAPE  H16Y18040   3.468   5.721   4.244 -1.5839 -1.1154 -2.0100
  161SAPE  C31718041   3.530   5.561   4.368 -0.0459  0.3523  0.5223
  161SAPE  H17X18042   3.622   5.522   4.319 -0.1459  0.3303  0.3505
  161SAPE  H17Y18043   3.467   5.474   4.397 -0.3211  0.8032  1.3034
  161SAPE  C31818044   3.575   5.623   4.498 -1.0009  0.3493 -0.3981
  161SAPE  H18X18045   3.491   5.668   4.555 -0.5278  0.6009  0.1061
  161SAPE  H18Y18046   3.638   5.713   4.478 -0.1701 -0.5009 -1.7530
  161SAPE  H18Z18047   3.623   5.548   4.564  0.3116  0.3730 -1.3013
  162SAPE     N18048   2.029   1.012   2.557 -0.4016 -0.3972 -0.0529
  162SAPE   HN118049   2.119   0.996   2.507  0.3966  2.8593  0.1166
  162SAPE   HN218050   1.998   0.926   2.607 -1.8471  0.1497  0.0530
  162SAPE   HN318051   1.966   1.028   2.475  2.0235 -1.0460 -2.1799
  162SAPE   C1218052   2.055   1.128   2.648 -0.6654 -0.3809  0.2895
  162SAPE  H12A18053   1.968   1.141   2.716 -2.2130 -1.6178 -1.3519
  162SAPE  H12B18054   2.071   1.219   2.586 -0.2150 -0.7121 -0.0918
  162SAPE   C1118055   2.178   1.098   2.734  0.3643 -0.1141 -0.0847
  162SAPE  H11A18056   2.172   0.993   2.770 -0.6983  0.3848  1.2901
  162SAPE  H11B18057   2.181   1.167   2.821 -0.2653 -0.2936  0.0885
  162SAPE     P18058   2.391   1.236   2.644 -0.3352 -0.3682 -0.2446
  162SAPE   O1318059   2.523   1.192   2.593 -0.2759  0.2758  0.7326
  162SAPE   O1418060   2.330   1.339   2.554  0.6146  0.1337  0.6269
  162SAPE   O1218061   2.302   1.104   2.663  0.3539 -0.0201  0.7607
  162SAPE   O1118062   2.411   1.302   2.793  0.3349  0.4842  0.0270
  162SAPE    C118063   2.482   1.216   2.885  0.7180  0.8773 -0.1695
  162SAPE    HA18064   2.418   1.197   2.974  0.3320  0.9512 -0.4333
  162SAPE    HB18065   2.509   1.116   2.844  0.2330 -0.2022  1.9927
  162SAPE    C218066   2.606   1.283   2.945 -0.5216  0.2307  0.1876
  162SAPE    HS18067   2.656   1.212   3.014 -0.6018 -0.2204 -0.2202
  162SAPE   O2118068   2.590   1.398   3.027 -0.1704  0.1060 -0.4257
  162SAPE   C2118069   2.512   1.408   3.134 -0.0081  0.2933  0.2418
  162SAPE   O2218070   2.436   1.332   3.182  1.0959  0.0832 -0.7086
  162SAPE   C2218071   2.541   1.542   3.204 -0.5721  0.4263 -0.1446
  162SAPE   H2R18072   2.647   1.572   3.189 -0.1133 -1.4264 -0.8094
  162SAPE   H2S18073   2.475   1.614   3.150 -2.6267 -1.4336 -0.2383
  162SAPE    C318074   2.718   1.314   2.830 -0.1750  0.1098  0.0644
  162SAPE    HX18075   2.669   1.397   2.774  1.1361  1.6730  1.1691
  162SAPE    HY18076   2.718   1.231   2.756 -1.4311  0.1494 -0.0130
  162SAPE   O3118077   2.846   1.343   2.891  0.1734 -0.4566 -0.2798
  162SAPE   C3118078   2.927   1.394   2.799  0.6562  0.2118  0.1161
  162SAPE   O3218079   2.892   1.419   2.683  0.5507 -0.2172  0.3754
  162SAPE   C3218080   3.061   1.418   2.863 -0.0684  0.0032 -0.4761
  162SAPE   H2X18081   3.128   1.451   2.781  0.0787 -0.0233 -0.3658
  162SAPE   H2Y18082   3.098   1.319   2.899  1.7259  0.7693 -0.1473
  162SAPE   C2318083   2.486   1.550   3.358  0.8039  0.3712 -0.6281
  162SAPE   H3R18084   2.378   1.522   3.361  0.5313  1.2227 -1.8925
  162SAPE   H3S18085   2.502   1.656   3.388  1.3702  0.0481  0.2555
  162SAPE   C2418086   2.563   1.459   3.457 -1.2243  0.1474  0.8457
  162SAPE   H4R18087   2.530   1.353   3.443  2.3182 -0.8917 -0.9603
  162SAPE   H4S18088   2.529   1.498   3.555  1.2082  0.0086  1.8211
  162SAPE   C2518089   2.721   1.469   3.427  0.3229 -0.0894 -0.5495
  162SAPE   H5R18090   2.752   1.423   3.332 -1.1193  1.6387 -1.9273
  162SAPE   C2618091   2.811   1.528   3.501 -1.0925 -0.0952 -0.2948
  162SAPE   H6R18092   2.919   1.522   3.482 -0.4554  0.1054  2.7422
  162SAPE   C2718093   2.780   1.614   3.622 -0.6997  0.3552  0.1137
  162SAPE   H7R18094   2.697   1.682   3.594 -1.0785  0.4854  1.4687
  162SAPE   H7S18095   2.873   1.671   3.642  0.4146 -0.5246 -2.1690
  162SAPE   C2818096   2.737   1.531   3.747  0.3357  0.1922 -0.1641
  162SAPE   H8R18097   2.751   1.422   3.742  0.4491  0.2618 -2.0944
  162SAPE   C2918098   2.684   1.587   3.859  0.0976 -0.1335  0.1135
  162SAPE   H9R18099   2.662   1.518   3.941  1.2664 -0.6133  0.0439
  162SAPE  C21018100   2.677   1.737   3.888 -0.2996 -0.3321  0.0191
  162SAPE  H10R18101   2.602   1.752   3.968 -0.6540  0.3297 -0.4272
  162SAPE  H10S18102   2.646   1.798   3.800 -1.6392  0.5644  1.0743
  162SAPE  C21118103   2.803   1.784   3.957 -0.0333 -0.0481 -0.7358
  162SAPE  H11R18104   2.901   1.745   3.924  1.5233  1.3263  1.9510
  162SAPE  C21218105   2.818   1.856   4.074 -0.2917 -0.5818 -0.3058
  162SAPE  H12R18106   2.920   1.880   4.106 -0.6285 -0.3696  0.6510
  162SAPE  C21318107   2.717   1.903   4.171 -0.2562 -0.4452 -0.1292
  162SAPE  H13R18108   2.621   1.848   4.159 -0.2772 -0.2084 -1.1184
  162SAPE  H13S18109   2.693   2.008   4.142 -0.4219 -1.1561 -2.8367
  162SAPE  C21418110   2.766   1.877   4.310 -0.3764 -0.7445 -0.2693
  162SAPE  H14R18111   2.784   1.771   4.333 -0.1836 -0.4585  0.9745
  162SAPE  C21518112   2.772   1.977   4.402  0.4587  0.6480 -0.1384
  162SAPE  H15R18113   2.797   1.943   4.504 -1.4660 -2.3788 -0.5668
  162SAPE  C21618114   2.723   2.118   4.387 -0.2535  0.1076 -0.3518
  162SAPE  H16R18115   2.643   2.129   4.311 -0.1744  0.8481 -0.3364
  162SAPE  H16S18116   2.799   2.187   4.345 -1.5777  0.9396 -1.4868
  162SAPE  C21718117   2.664   2.185   4.513  0.2157  0.3191  0.1348
  162SAPE  H17R18118   2.737   2.200   4.595  1.1011  1.4414 -0.8176
  162SAPE  H17S18119   2.587   2.120   4.559  0.5899  0.2803  0.7216
  162SAPE  C21818120   2.611   2.325   4.467 -0.2826 -0.7929 -0.3745
  162SAPE  H18R18121   2.592   2.329   4.358  0.0545  0.2576 -0.3994
  162SAPE  H18S18122   2.674   2.411   4.497 -0.7906 -0.2056 -0.9606
  162SAPE  C21918123   2.469   2.348   4.521  0.3621 -0.2668 -0.4164
  162SAPE  H19R18124   2.482   2.345   4.632  0.8529  0.4203 -0.4491
  162SAPE  H19S18125   2.407   2.257   4.502  1.4345 -1.8673  2.8708
  162SAPE  C22018126   2.396   2.480   4.477  0.2579  0.3408  0.4264
  162SAPE  H20R18127   2.400   2.477   4.366  2.5306 -3.4253  0.4569
  162SAPE  H20S18128   2.432   2.574   4.525 -0.4950  0.5672  0.5587
  162SAPE  H20T18129   2.290   2.465   4.507 -0.3682  1.7425 -0.9405
  162SAPE   C3318130   3.054   1.520   2.977 -0.0975  0.2202 -0.3441
  162SAPE   H3X18131   2.960   1.577   2.986  0.1712  0.5160  0.6759
  162SAPE   H3Y18132   3.145   1.584   2.970  0.5680 -0.3983  1.7095
  162SAPE   C3418133   3.088   1.463   3.124 -1.0266  0.2678 -0.0677
  162SAPE   H4X18134   3.032   1.367   3.123 -2.1397  0.8951  0.1589
  162SAPE   H4Y18135   3.029   1.523   3.197  0.8558 -0.6366  2.3234
  162SAPE   C3518136   3.236   1.463   3.165  0.7136 -0.0166 -0.1032
  162SAPE   H5X18137   3.290   1.552   3.127  0.5407  1.1061  2.0867
  162SAPE   H5Y18138   3.281   1.372   3.119 -1.6435 -1.1631 -0.3017
  162SAPE   C3618139   3.246   1.459   3.316 -0.1459 -0.1468 -0.5459
  162SAPE   H6X18140   3.206   1.557   3.349  0.5740 -0.3057  0.8651
  162SAPE   H6Y18141   3.351   1.463   3.349 -0.9097 -0.4572  2.1700
  162SAPE   C3718142   3.172   1.347   3.396 -0.1407  0.3052  0.6066
  162SAPE   H7X18143   3.219   1.251   3.363  0.0823  0.6866 -0.2062
  162SAPE   H7Y18144   3.065   1.352   3.366 -0.2028 -0.1491  0.7424
  162SAPE   C3818145   3.191   1.365   3.545 -0.2067  0.2842 -0.0485
  162SAPE   H8X18146   3.137   1.454   3.583 -0.0930 -0.7621  2.8231
  162SAPE   H8Y18147   3.296   1.382   3.578 -0.1973 -1.1529  0.7635
  162SAPE   C3918148   3.155   1.232   3.621  0.9035 -0.0095  0.2946
  162SAPE   H9X18149   3.200   1.143   3.573  2.1054  0.0035  1.3183
  162SAPE   H9Y18150   3.048   1.207   3.611  0.8597  0.1519  0.3435
  162SAPE  C31018151   3.198   1.249   3.773  0.4271 -0.4402 -0.1667
  162SAPE  H10X18152   3.181   1.357   3.793  0.4560 -0.1998 -1.3640
  162SAPE  H10Y18153   3.305   1.226   3.791  0.8050  0.8513 -0.6802
  162SAPE  C31118154   3.109   1.160   3.863 -0.5125 -0.1770 -0.4573
  162SAPE  H11X18155   3.130   1.065   3.809  0.5556  0.5452 -1.3771
  162SAPE  H11Y18156   3.005   1.199   3.856  0.5880  2.9136 -1.2753
  162SAPE  C31218157   3.154   1.175   4.008 -0.1629  0.7505 -0.1731
  162SAPE  H12X18158   3.105   1.259   4.061 -0.7027 -1.7379  3.6384
  162SAPE  H12Y18159   3.263   1.195   4.015  0.2584 -1.4558  0.1584
  162SAPE  C31318160   3.125   1.046   4.081  0.3357  1.4207  0.3986
  162SAPE  H13X18161   3.161   0.962   4.018 -2.4729 -0.6768  1.3924
  162SAPE  H13Y18162   3.019   1.014   4.090  0.6232 -0.6023 -2.0947
  162SAPE  C31418163   3.186   1.037   4.221  0.7375 -0.0168  0.3223
  162SAPE  H14X18164   3.291   1.074   4.223  0.2156  1.5410  1.1249
  162SAPE  H14Y18165   3.201   0.933   4.257  1.8805 -0.0451 -0.1839
  162SAPE  C31518166   3.104   1.122   4.325 -0.4366  0.6057 -0.8550
  162SAPE  H15X18167   3.007   1.075   4.351 -0.5866 -0.1481 -2.6492
  162SAPE  H15Y18168   3.072   1.219   4.280  0.5200  1.8629  1.0325
  162SAPE  C31618169   3.168   1.151   4.471 -0.1356  0.3241  0.1483
  162SAPE  H16X18170   3.268   1.194   4.449 -0.8324  1.4036 -1.0293
  162SAPE  H16Y18171   3.179   1.052   4.521 -1.0712 -1.0092 -2.1462
  162SAPE  C31718172   3.083   1.247   4.560  1.1569  0.3018  0.0087
  162SAPE  H17X18173   3.039   1.329   4.499 -1.3591 -0.0441  1.2306
  162SAPE  H17Y18174   3.147   1.306   4.629  1.4661  0.6673 -0.5823
  162SAPE  C31818175   2.974   1.164   4.640 -0.7705 -0.4821 -0.3394
  162SAPE  H18X18176   3.031   1.088   4.697  1.0722 -0.8233 -2.4745
  162SAPE  H18Y18177   2.902   1.109   4.576 -0.1815 -1.9433  0.2035
  162SAPE  H18Z18178   2.922   1.222   4.719 -1.4971  0.4974 -1.5065
  163SAPE     N18179   2.620   4.666   2.084  0.1082 -0.1402  0.3999
  163SAPE   HN118180   2.709   4.713   2.107  0.4836  0.4287 -1.9533
  163SAPE   HN218181   2.640   4.589   2.016 -2.0080 -0.3131 -0.1129
  163SAPE   HN318182   2.572   4.734   2.021  2.6180 -1.5891 -3.5023
  163SAPE   C1218183   2.535   4.617   2.197 -0.3274 -0.9842  0.3801
  163SAPE  H12A18184   2.493   4.710   2.241  0.7478 -0.3905  0.1786
  163SAPE  H12B18185   2.599   4.564   2.271  1.8895  0.0289 -0.7361
  163SAPE   C1118186   2.426   4.521   2.142 -0.0025  0.2548 -0.5050
  163SAPE  H11A18187   2.382   4.478   2.235  1.5064 -1.1118 -0.3670
  163SAPE  H11B18188   2.471   4.431   2.094 -0.2938  0.8978 -2.0074
  163SAPE     P18189   2.179   4.609   2.103 -0.2914  0.0931  0.0612
  163SAPE   O1318190   2.103   4.665   1.990  0.0975  0.4990 -0.1523
  163SAPE   O1418191   2.136   4.478   2.148  0.2895 -0.0986 -0.3946
  163SAPE   O1218192   2.334   4.596   2.060 -0.6465  0.4513  0.0417
  163SAPE   O1118193   2.183   4.704   2.232 -0.1303 -0.0402  0.0636
  163SAPE    C118194   2.207   4.660   2.367  0.4172  0.3759 -0.6352
  163SAPE    HA18195   2.215   4.550   2.372  1.2072  0.4656  3.4758
  163SAPE    HB18196   2.300   4.712   2.397 -0.2417  2.9170 -2.6096
  163SAPE    C218197   2.094   4.712   2.462  0.1043  0.1626 -0.1185
  163SAPE    HS18198   2.118   4.681   2.566 -1.2699 -1.0468 -0.1309
  163SAPE   O2118199   1.963   4.662   2.429  0.0620  0.7937 -0.1693
  163SAPE   C2118200   1.949   4.527   2.432 -0.1378 -0.6539 -0.1179
  163SAPE   O2218201   2.026   4.440   2.477  1.1712 -0.1529 -0.3590
  163SAPE   C2218202   1.811   4.496   2.363 -1.1230  0.1176 -0.1497
  163SAPE   H2R18203   1.805   4.546   2.264 -2.9757 -0.6763 -0.4655
  163SAPE   H2S18204   1.812   4.388   2.338 -0.0817  0.8178 -3.7727
  163SAPE    C318205   2.092   4.866   2.464  0.0244  0.3595  0.6397
  163SAPE    HX18206   2.030   4.891   2.553  0.6416  0.2028  1.1226
  163SAPE    HY18207   2.031   4.882   2.373 -1.7205 -3.1281  0.9988
  163SAPE   O3118208   2.224   4.926   2.479 -0.0282  0.0789  0.4707
  163SAPE   C3118209   2.269   4.929   2.603 -0.1992  0.1348  0.2809
  163SAPE   O3218210   2.213   4.881   2.697  0.5428 -0.1867  0.2206
  163SAPE   C3218211   2.394   5.017   2.606 -0.3166 -0.4791  0.2206
  163SAPE   H2X18212   2.363   5.122   2.587  1.5948  1.0301  4.2561
  163SAPE   H2Y18213   2.455   4.985   2.519 -2.1915 -0.1434 -1.2892
  163SAPE   C2318214   1.700   4.540   2.452 -0.0905 -0.1384 -0.2273
  163SAPE   H3R18215   1.613   4.525   2.384  0.9100 -1.4247 -1.2695
  163SAPE   H3S18216   1.718   4.642   2.492  2.6628  0.7541 -3.3245
  163SAPE   C2418217   1.684   4.429   2.561 -0.0887 -0.5248  0.4193
  163SAPE   H4R18218   1.764   4.448   2.636  0.6141 -0.6142 -0.2960
  163SAPE   H4S18219   1.690   4.323   2.530 -0.3595 -1.1448  2.3392
  163SAPE   C2518220   1.551   4.436   2.629 -0.9242  0.3265 -0.2402
  163SAPE   H5R18221   1.461   4.439   2.565 -0.7115  1.0181 -0.5149
  163SAPE   C2618222   1.530   4.469   2.753 -0.4549  1.0209 -0.4069
  163SAPE   H6R18223   1.427   4.489   2.785 -0.6651  0.2838 -0.6140
  163SAPE   C2718224   1.626   4.494   2.867 -0.2620 -0.4774  0.3074
  163SAPE   H7R18225   1.601   4.590   2.915 -0.5575  0.3199 -1.3494
  163SAPE   H7S18226   1.730   4.515   2.833 -1.0527 -0.4734 -2.3860
  163SAPE   C2818227   1.628   4.384   2.968  0.6281 -0.5273 -0.5707
  163SAPE   H8R18228   1.562   4.300   2.940 -1.2540  0.5809  0.2856
  163SAPE   C2918229   1.685   4.391   3.091 -0.0257 -0.2807  0.2832
  163SAPE   H9R18230   1.675   4.298   3.150 -2.9732  1.5985  3.0473
  163SAPE  C21018231   1.775   4.499   3.140 -0.8667 -0.2515  0.0533
  163SAPE  H10R18232   1.718   4.560   3.212 -0.5927 -0.6482  0.6128
  163SAPE  H10S18233   1.815   4.566   3.061  0.4251 -1.3393 -0.2503
  163SAPE  C21118234   1.892   4.436   3.210  0.1194 -0.1202  0.2793
  163SAPE  H11R18235   1.980   4.429   3.144  0.1141 -1.1236  0.3741
  163SAPE  C21218236   1.886   4.386   3.336  0.7211 -0.3539 -0.1737
  163SAPE  H12R18237   1.978   4.338   3.375  0.9145 -0.7630 -1.1116
  163SAPE  C21318238   1.770   4.394   3.437 -0.1150  0.0914 -0.6883
  163SAPE  H13R18239   1.666   4.367   3.406  0.0230  0.5790 -1.6135
  163SAPE  H13S18240   1.759   4.503   3.452  1.7258  0.3361 -0.9470
  163SAPE  C21418241   1.794   4.328   3.569 -0.4576 -0.2007 -0.3402
  163SAPE  H14R18242   1.762   4.223   3.570 -1.4027  0.0866  0.3542
  163SAPE  C21518243   1.857   4.377   3.676 -0.5728  0.1724 -0.0736
  163SAPE  H15R18244   1.862   4.307   3.761  1.3783  0.3654  0.0031
  163SAPE  C21618245   1.922   4.512   3.689  0.3027 -0.2161 -0.4080
  163SAPE  H16R18246   1.873   4.578   3.615 -2.6285  0.9865  2.3967
  163SAPE  H16S18247   2.031   4.511   3.664 -0.1669  0.1367 -2.7014
  163SAPE  C21718248   1.907   4.582   3.827  0.4148  0.0029  0.1665
  163SAPE  H17R18249   1.954   4.680   3.803  1.7741 -1.0404 -1.6695
  163SAPE  H17S18250   1.977   4.533   3.899  1.3006  1.2154  0.1636
  163SAPE  C21818251   1.762   4.620   3.876 -0.9806 -0.2674  0.2981
  163SAPE  H18R18252   1.688   4.540   3.859 -2.4871  0.9615  0.7852
  163SAPE  H18S18253   1.726   4.698   3.805  1.0219  0.4478  0.0122
  163SAPE  C21918254   1.739   4.661   4.018 -0.0741  0.0065  0.2451
  163SAPE  H19R18255   1.799   4.750   4.046 -1.3722  0.3966  2.0041
  163SAPE  H19S18256   1.782   4.583   4.085  1.8277  0.0281 -0.8653
  163SAPE  C22018257   1.595   4.686   4.057  0.2795  0.0456  0.2239
  163SAPE  H20R18258   1.582   4.720   4.162 -1.8805 -1.0515  0.3577
  163SAPE  H20S18259   1.533   4.594   4.049  0.4215 -0.0676  0.3909
  163SAPE  H20T18260   1.555   4.763   3.988  1.0249  0.2450  0.0063
  163SAPE   C3318261   2.467   5.012   2.736  0.0222 -0.1275 -0.0392
  163SAPE   H3X18262   2.516   4.913   2.749 -1.7280 -0.8668  1.3162
  163SAPE   H3Y18263   2.398   5.031   2.820 -0.9268  1.1082 -1.0533
  163SAPE   C3418264   2.587   5.112   2.740  1.0670  0.9573  0.7307
  163SAPE   H4X18265   2.549   5.216   2.733  2.2667  1.3139 -2.2028
  163SAPE   H4Y18266   2.647   5.102   2.647 -0.5412  0.5007 -0.3092
  163SAPE   C3518267   2.686   5.090   2.854 -0.2018  0.7967 -0.8988
  163SAPE   H5X18268   2.785   5.139   2.841  0.3439 -0.0359  0.0240
  163SAPE   H5Y18269   2.721   4.984   2.855 -1.7279  0.2835 -0.0424
  163SAPE   C3618270   2.631   5.108   2.992  0.0720 -1.1164 -0.9121
  163SAPE   H6X18271   2.546   5.041   3.015  0.4474 -1.2325  0.2068
  163SAPE   H6Y18272   2.586   5.210   2.995  0.3769 -0.9961 -0.0681
  163SAPE   C3718273   2.736   5.091   3.098 -0.1773 -0.3001  0.0690
  163SAPE   H7X18274   2.798   5.184   3.107  0.2879 -0.5212 -0.7508
  163SAPE   H7Y18275   2.807   5.008   3.074  1.0171  0.9947 -1.0777
  163SAPE   C3818276   2.664   5.075   3.232 -0.4759  0.1462 -0.5390
  163SAPE   H8X18277   2.607   4.980   3.224 -0.8871  0.3917 -0.5500
  163SAPE   H8Y18278   2.592   5.160   3.242  0.3634  0.9087 -0.8022
  163SAPE   C3918279   2.768   5.072   3.345 -0.3977  0.9280  0.2117
  163SAPE   H9X18280   2.835   5.159   3.328  1.0116 -0.4840 -1.9732
  163SAPE   H9Y18281   2.834   4.983   3.331  1.0814  2.2088 -1.2788
  163SAPE  C31018282   2.701   5.066   3.478  0.2783 -0.2121  0.0148
  163SAPE  H10X18283   2.673   4.962   3.504  0.1866 -0.1083  0.3339
  163SAPE  H10Y18284   2.607   5.125   3.467 -0.6039 -1.9154 -3.1327
  163SAPE  C31118285   2.784   5.118   3.594 -0.2856 -0.2356  0.1583
  163SAPE  H11X18286   2.819   5.223   3.582  1.0418 -0.7063 -0.2269
  163SAPE  H11Y18287   2.876   5.056   3.590 -0.7149 -0.8720 -0.0500
  163SAPE  C31218288   2.721   5.081   3.735 -0.7263  0.6052  0.4046
  163SAPE  H12X18289   2.702   4.972   3.727 -0.2899  0.5921 -0.6115
  163SAPE  H12Y18290   2.624   5.135   3.744 -1.1020  0.0075  0.0606
  163SAPE  C31318291   2.816   5.103   3.855  0.5068 -0.4465 -0.1754
  163SAPE  H13X18292   2.873   5.198   3.863  0.6676 -0.4917 -0.6910
  163SAPE  H13Y18293   2.896   5.027   3.840  0.3976 -0.3364 -1.4145
  163SAPE  C31418294   2.743   5.073   3.991 -0.4795 -0.4195 -0.1059
  163SAPE  H14X18295   2.674   4.992   3.961  0.8614 -1.5741 -0.1695
  163SAPE  H14Y18296   2.678   5.160   4.015  1.1581  0.3660  1.7744
  163SAPE  C31518297   2.843   5.037   4.107  0.4008 -0.3631 -0.1642
  163SAPE  H15X18298   2.918   4.976   4.052 -1.1931  1.7064 -5.2130
  163SAPE  H15Y18299   2.779   4.974   4.172 -1.0923 -1.6499 -2.7078
  163SAPE  C31618300   2.919   5.153   4.170  0.3247 -0.7568  0.1392
  163SAPE  H16X18301   2.857   5.244   4.189  1.5815  0.0028  0.7429
  163SAPE  H16Y18302   2.986   5.181   4.085 -1.1036  1.1292 -0.4519
  163SAPE  C31718303   3.003   5.119   4.295  0.1538 -0.0998 -0.1180
  163SAPE  H17X18304   3.060   5.209   4.328 -0.2652 -0.1858  0.8517
  163SAPE  H17Y18305   3.079   5.049   4.254  0.7721  0.5130 -0.0398
  163SAPE  C31818306   2.921   5.066   4.416  0.0124  0.2250  0.8702
  163SAPE  H18X18307   2.994   5.047   4.498  1.4993  2.1831  0.0861
  163SAPE  H18Y18308   2.857   4.979   4.392 -1.6713  1.1748  1.6955
  163SAPE  H18Z18309   2.860   5.153   4.450  1.8056  0.2392  4.5054
  164SAPE     N18310   5.411   5.862   2.324  0.6726 -0.0772  0.7808
  164SAPE   HN118311   5.433   5.763   2.302 -0.5925 -0.1357 -0.2743
  164SAPE   HN218312   5.331   5.896   2.267 -0.0179 -2.2588  0.3645
  164SAPE   HN318313   5.492   5.919   2.290 -0.4549  1.8505  1.1982
  164SAPE   C1218314   5.409   5.888   2.478  0.2751 -0.7500  0.6105
  164SAPE  H12A18315   5.509   5.860   2.517 -0.2896 -1.6454  1.4618
  164SAPE  H12B18316   5.341   5.817   2.529 -0.4261  1.4167  2.8901
  164SAPE   C1118317   5.386   6.041   2.505  0.9906  0.7732 -0.0642
  164SAPE  H11A18318   5.395   6.070   2.612  0.1747  4.7235 -0.9100
  164SAPE  H11B18319   5.278   6.046   2.484  0.7941 -0.3288  0.6129
  164SAPE     P18320   5.487   6.280   2.434 -0.5679 -0.2294 -0.2154
  164SAPE   O1318321   5.629   6.328   2.446  0.4562  0.6293  0.0009
  164SAPE   O1418322   5.404   6.331   2.324  0.1574 -0.0717  0.3195
  164SAPE   O1218323   5.479   6.114   2.426  0.6865  0.0399 -0.3461
  164SAPE   O1118324   5.413   6.318   2.560 -0.3159  0.3888  0.0199
  164SAPE    C118325   5.470   6.385   2.670  0.9989 -0.4791 -0.3082
  164SAPE    HA18326   5.553   6.455   2.647 -2.0406  3.6506  0.1788
  164SAPE    HB18327   5.386   6.439   2.718 -0.2382 -1.8402 -0.8544
  164SAPE    C218328   5.506   6.288   2.780 -0.0585  0.0304 -0.2368
  164SAPE    HS18329   5.560   6.346   2.858  0.7993 -0.3744 -0.5143
  164SAPE   O2118330   5.604   6.191   2.741 -0.5173  0.3190 -0.0935
  164SAPE   C2118331   5.727   6.242   2.728  0.0003 -0.4955  0.5887
  164SAPE   O2218332   5.764   6.356   2.755 -0.1230  0.4889 -0.1039
  164SAPE   C2218333   5.804   6.128   2.680 -0.0380  0.0863  0.1013
  164SAPE   H2R18334   5.758   6.071   2.597 -1.3366  0.7521  0.3287
  164SAPE   H2S18335   5.897   6.163   2.630  0.1286  2.2273  1.7740
  164SAPE    C318336   5.392   6.206   2.842  0.1603  0.4434  0.7563
  164SAPE    HX18337   5.382   6.103   2.800 -0.8192  0.4852  0.8434
  164SAPE    HY18338   5.293   6.256   2.837 -0.8841 -1.4605  1.2118
  164SAPE   O3118339   5.411   6.194   2.987  0.2322 -0.2418  0.0886
  164SAPE   C3118340   5.387   6.299   3.072 -0.0379  0.4552  0.4186
  164SAPE   O3218341   5.339   6.402   3.033  0.0671  0.1153 -0.2409
  164SAPE   C3218342   5.414   6.254   3.212 -0.8449 -0.0562  0.7461
  164SAPE   H2X18343   5.517   6.283   3.242 -0.6622  0.8707 -0.7129
  164SAPE   H2Y18344   5.390   6.146   3.208  0.3048 -0.2783 -2.5944
  164SAPE   C2318345   5.838   6.026   2.789  0.2304  0.3779  0.0038
  164SAPE   H3R18346   5.882   5.941   2.733 -2.7617  0.9987 -3.7413
  164SAPE   H3S18347   5.740   5.989   2.826 -0.6663  2.0174 -0.6340
  164SAPE   C2418348   5.932   6.091   2.889  0.3067 -0.2239  0.8164
  164SAPE   H4R18349   5.877   6.177   2.933 -0.4276  0.7915 -1.9386
  164SAPE   H4S18350   6.024   6.133   2.845 -0.3982 -0.1762 -0.6556
  164SAPE   C2518351   5.969   6.004   3.009  0.6514 -0.6160 -0.2835
  164SAPE   H5R18352   6.036   5.921   2.980 -0.1306 -1.1797 -0.5155
  164SAPE   C2618353   5.922   6.015   3.135  1.4373 -0.1725  0.2156
  164SAPE   H6R18354   5.957   5.938   3.205  2.0449 -0.5807 -0.5200
  164SAPE   C2718355   5.809   6.106   3.180  0.6136 -0.0526 -0.1475
  164SAPE   H7R18356   5.739   6.136   3.099  3.3217 -0.6731 -2.8740
  164SAPE   H7S18357   5.840   6.205   3.218  2.0152  0.2239 -1.8905
  164SAPE   C2818358   5.725   6.040   3.284  0.0456 -0.5990 -0.5984
  164SAPE   H8R18359   5.764   6.056   3.385 -3.0701 -0.3311  0.6985
  164SAPE   C2918360   5.621   5.957   3.269 -0.1389 -0.1187  0.5297
  164SAPE   H9R18361   5.565   5.928   3.360  0.1715 -2.9860 -0.0867
  164SAPE  C21018362   5.547   5.920   3.141 -0.0858  0.8498  0.6377
  164SAPE  H10R18363   5.535   6.013   3.082 -1.8544  0.7147  0.7383
  164SAPE  H10S18364   5.442   5.894   3.165 -0.4603  1.7758  0.0523
  164SAPE  C21118365   5.609   5.820   3.049  0.2407  0.1699  0.2549
  164SAPE  H11R18366   5.719   5.812   3.043  0.0769 -1.7426 -0.9213
  164SAPE  C21218367   5.540   5.775   2.945 -0.0259  0.5095  0.0225
  164SAPE  H12R18368   5.577   5.695   2.879 -2.9246 -0.2367 -0.8736
  164SAPE  C21318369   5.388   5.796   2.914  0.3189  0.2744 -0.5049
  164SAPE  H13R18370   5.381   5.878   2.839  0.8732  0.0437 -0.8238
  164SAPE  H13S18371   5.346   5.825   3.012  3.8055  0.3756  1.1290
  164SAPE  C21418372   5.310   5.676   2.874 -0.0030  0.5541  0.3463
  164SAPE  H14R18373   5.277   5.683   2.769  0.4776  0.4441  0.1858
  164SAPE  C21518374   5.256   5.582   2.953 -0.4228  0.0155 -0.2974
  164SAPE  H15R18375   5.191   5.507   2.905 -1.5240 -0.9942  2.6053
  164SAPE  C21618376   5.262   5.571   3.100  0.7152  0.6464 -0.0275
  164SAPE  H16R18377   5.190   5.492   3.128  1.2216  1.3824  4.1193
  164SAPE  H16S18378   5.227   5.665   3.149 -0.2869  1.0239 -1.4192
  164SAPE  C21718379   5.391   5.511   3.162 -0.9121  0.0278  0.2290
  164SAPE  H17R18380   5.487   5.564   3.140 -0.9101 -0.2597 -0.4739
  164SAPE  H17S18381   5.417   5.414   3.115  1.7917  0.8305 -0.1303
  164SAPE  C21818382   5.397   5.499   3.314 -0.2773 -0.5071  0.5510
  164SAPE  H18R18383   5.370   5.597   3.360  1.6347  0.1128  0.4029
  164SAPE  H18S18384   5.497   5.468   3.351 -0.1053  0.5935  1.0537
  164SAPE  C21918385   5.292   5.397   3.363 -0.3550  0.8111 -0.1226
  164SAPE  H19R18386   5.305   5.301   3.308 -0.6272 -1.3129  3.1991
  164SAPE  H19S18387   5.191   5.442   3.354 -1.2819 -1.2017 -0.3742
  164SAPE  C22018388   5.323   5.369   3.513  0.3134 -0.5143  0.4671
  164SAPE  H20R18389   5.295   5.470   3.550  1.7605  0.4366 -0.9130
  164SAPE  H20S18390   5.430   5.346   3.535  0.5170 -1.7751 -1.5701
  164SAPE  H20T18391   5.261   5.293   3.564  0.7817 -1.7251 -0.7100
  164SAPE   C3318392   5.322   6.318   3.318  0.2365  0.4062  0.3511
  164SAPE   H3X18393   5.224   6.350   3.276  0.7970  1.2471 -0.3767
  164SAPE   H3Y18394   5.366   6.411   3.360  0.0899 -0.0787  1.6273
  164SAPE   C3418395   5.300   6.225   3.439 -0.6039  0.4727 -0.7447
  164SAPE   H4X18396   5.240   6.139   3.401 -1.5965  1.1912 -0.8319
  164SAPE   H4Y18397   5.227   6.275   3.505 -0.3761  0.0006 -0.1199
  164SAPE   C3518398   5.420   6.185   3.527  0.0872 -0.2050  0.4393
  164SAPE   H5X18399   5.474   6.278   3.554 -0.0304  0.1938 -0.6256
  164SAPE   H5Y18400   5.493   6.116   3.479  1.1178 -1.0094  2.9754
  164SAPE   C3618401   5.385   6.115   3.661  0.3246  0.8283 -0.6488
  164SAPE   H6X18402   5.334   6.017   3.653  1.5270 -0.8922  6.2782
  164SAPE   H6Y18403   5.312   6.177   3.717 -1.5127 -3.0618  1.6784
  164SAPE   C3718404   5.506   6.076   3.753  0.4351 -0.5644  0.7120
  164SAPE   H7X18405   5.551   6.175   3.777 -1.3552  0.0256  1.8746
  164SAPE   H7Y18406   5.583   6.019   3.696  0.1614 -0.0362 -0.2050
  164SAPE   C3818407   5.476   5.995   3.878 -0.0256 -0.1112  0.0748
  164SAPE   H8X18408   5.572   5.975   3.930  0.9220 -3.0936 -2.4526
  164SAPE   H8Y18409   5.435   5.896   3.847 -3.0872  0.7071  1.1509
  164SAPE   C3918410   5.376   6.052   3.984 -0.6259 -0.9443  0.9029
  164SAPE   H9X18411   5.277   6.075   3.938 -0.1521 -1.8977 -0.6847
  164SAPE   H9Y18412   5.424   6.136   4.038 -1.8374 -1.0862  2.2678
  164SAPE  C31018413   5.376   5.953   4.106 -0.0516 -0.5639 -0.7865
  164SAPE  H10X18414   5.481   5.921   4.122 -0.1066 -0.4697 -0.2400
  164SAPE  H10Y18415   5.318   5.861   4.082  0.2896 -0.0043 -4.3582
  164SAPE  C31118416   5.321   6.026   4.229 -0.4523 -0.0804  0.0589
  164SAPE  H11X18417   5.214   6.046   4.210 -0.6333  0.0316  1.1027
  164SAPE  H11Y18418   5.357   6.131   4.233 -1.4048  0.3668 -2.1181
  164SAPE  C31218419   5.345   5.959   4.366 -0.4030  0.1993 -0.2104
  164SAPE  H12X18420   5.309   6.025   4.448 -0.5410 -0.8354  0.5812
  164SAPE  H12Y18421   5.454   5.960   4.384 -0.4826 -1.4565  0.5081
  164SAPE  C31318422   5.278   5.824   4.396 -0.1195  0.2460  0.3262
  164SAPE  H13X18423   5.306   5.799   4.500 -0.8047 -3.0022 -0.1571
  164SAPE  H13Y18424   5.327   5.743   4.337 -0.1007  0.2678  0.3120
  164SAPE  C31418425   5.126   5.814   4.380 -0.3176 -0.4276 -0.1650
  164SAPE  H14X18426   5.097   5.711   4.409  2.8513 -1.8467 -1.5859
  164SAPE  H14Y18427   5.102   5.826   4.273  0.3402 -2.0747 -0.5229
  164SAPE  C31518428   5.041   5.900   4.468 -0.2513  0.2443 -0.3055
  164SAPE  H15X18429   4.934   5.899   4.436  0.1331  0.7175 -1.6500
  164SAPE  H15Y18430   5.081   6.002   4.456  1.4055 -0.3703 -0.2731
  164SAPE  C31618431   5.058   5.862   4.617  0.5043  0.2938 -0.6967
  164SAPE  H16X18432   5.155   5.833   4.664  0.3553  0.2853 -0.3928
  164SAPE  H16Y18433   4.997   5.773   4.641  0.5696  1.1536  3.1920
  164SAPE  C31718434   5.006   5.979   4.703 -0.1114  0.1275  0.3098
  164SAPE  H17X18435   4.923   6.026   4.646  1.7592  1.8610 -1.1069
  164SAPE  H17Y18436   5.087   6.054   4.690 -1.2913  1.1079 -1.7364
  164SAPE  C31818437   4.983   5.949   4.844 -0.4319  0.4671  0.0480
  164SAPE  H18X18438   4.985   6.043   4.903  1.2229 -0.3074  1.3180
  164SAPE  H18Y18439   5.061   5.884   4.890 -2.4284 -1.0169  1.4964
  164SAPE  H18Z18440   4.889   5.895   4.868  0.3946 -1.6572 -1.1928
  165SAPE     N18441   6.622   1.734   2.355 -0.1288  0.2953  0.2836
  165SAPE   HN118442   6.612   1.730   2.458 -0.1436  0.7973  0.3035
  165SAPE   HN218443   6.535   1.720   2.300  0.9387 -0.8292 -1.1964
  165SAPE   HN318444   6.687   1.658   2.325  0.1062  0.8906 -0.7964
  165SAPE   C1218445   6.687   1.870   2.321  0.2235  0.3445  0.0097
  165SAPE  H12A18446   6.714   1.865   2.214  0.4466 -0.6341  0.1023
  165SAPE  H12B18447   6.779   1.874   2.385  1.4993 -0.9558 -1.6438
  165SAPE   C1118448   6.579   1.985   2.343 -0.2483 -0.0185 -0.3813
  165SAPE  H11A18449   6.632   2.079   2.316  0.4257 -0.7634 -1.7693
  165SAPE  H11B18450   6.559   1.990   2.453  1.1701 -0.8089 -0.0641
  165SAPE     P18451   6.375   2.085   2.249  0.0756 -0.4208 -0.0796
  165SAPE   O1318452   6.462   2.202   2.216 -0.2866 -0.5378 -0.1191
  165SAPE   O1418453   6.266   2.063   2.154 -0.4676  0.6294  0.0874
  165SAPE   O1218454   6.463   1.957   2.261  0.2107 -0.3778 -0.1159
  165SAPE   O1118455   6.308   2.116   2.386 -0.0777  0.1706  0.5626
  165SAPE    C118456   6.283   2.245   2.449 -0.5209  0.2187 -0.6225
  165SAPE    HA18457   6.342   2.332   2.415 -1.2291  0.9788  0.0670
  165SAPE    HB18458   6.176   2.266   2.428 -1.1874 -0.9251  1.3852
  165SAPE    C218459   6.300   2.244   2.598  0.1744 -0.7364  0.7688
  165SAPE    HS18460   6.409   2.223   2.592  0.1394 -0.8288  0.4415
  165SAPE   O2118461   6.217   2.144   2.661 -0.9715 -0.2676  0.2931
  165SAPE   C2118462   6.273   2.103   2.779 -0.1163 -0.0623  0.1114
  165SAPE   O2218463   6.394   2.123   2.807  0.2438 -0.0714  0.0676
  165SAPE   C2218464   6.167   2.025   2.858 -1.0897  0.3298 -0.4609
  165SAPE   H2R18465   6.087   1.995   2.787 -2.0429  0.8963  0.3536
  165SAPE   H2S18466   6.217   1.928   2.879 -3.2261 -0.7606 -0.0848
  165SAPE    C318467   6.267   2.387   2.662 -0.5381  0.4994  0.9950
  165SAPE    HX18468   6.157   2.385   2.650 -0.3124  0.2461 -1.9422
  165SAPE    HY18469   6.315   2.468   2.603  1.2602 -0.0528  1.6375
  165SAPE   O3118470   6.287   2.399   2.798  0.0749  0.0474  0.0436
  165SAPE   C3118471   6.411   2.407   2.839 -0.4987 -0.8502 -0.1948
  165SAPE   O3218472   6.511   2.401   2.767  0.5219 -0.1768  0.1747
  165SAPE   C3218473   6.414   2.429   2.990  0.0113  0.7976  0.1123
  165SAPE   H2X18474   6.520   2.448   3.016  0.8751 -2.0437 -0.9495
  165SAPE   H2Y18475   6.386   2.326   3.023 -1.0212  0.7127 -0.9629
  165SAPE   C2318476   6.111   2.095   2.978 -0.3371  0.4432  0.9962
  165SAPE   H3R18477   6.069   2.190   2.938 -1.8782 -1.6780 -2.9642
  165SAPE   H3S18478   6.195   2.116   3.047 -1.6613 -0.8374  3.1377
  165SAPE   C2418479   6.002   2.005   3.036 -0.3896  0.0911  0.2404
  165SAPE   H4R18480   6.044   1.906   3.064  1.3981  0.4779 -0.9077
  165SAPE   H4S18481   5.921   1.999   2.960  0.7411  1.4667 -1.1407
  165SAPE   C2518482   5.938   2.080   3.150 -0.4047  0.0089 -0.4836
  165SAPE   H5R18483   5.849   2.138   3.122  0.6092  0.8056 -2.2398
  165SAPE   C2618484   5.984   2.074   3.277  0.3964  0.2631  0.3840
  165SAPE   H6R18485   5.935   2.139   3.350 -0.1630  1.1265 -0.7400
  165SAPE   C2718486   6.099   1.988   3.320 -0.1111  0.5943 -0.2298
  165SAPE   H7R18487   6.178   1.982   3.243 -1.1765 -2.0497 -1.2296
  165SAPE   H7S18488   6.057   1.885   3.323 -2.5908  1.5042 -1.0564
  165SAPE   C2818489   6.167   2.029   3.446  0.6770  0.3767  0.4473
  165SAPE   H8R18490   6.160   2.136   3.473  0.8343  0.4398  0.2425
  165SAPE   C2918491   6.241   1.952   3.524 -0.2246  0.2209  0.3539
  165SAPE   H9R18492   6.277   1.994   3.620 -0.7258 -0.3113  0.7766
  165SAPE  C21018493   6.274   1.806   3.515  0.7630  0.5250  0.5650
  165SAPE  H10R18494   6.382   1.785   3.535  1.0072  2.2845  1.2570
  165SAPE  H10S18495   6.235   1.767   3.419 -1.6393 -0.0338  1.6895
  165SAPE  C21118496   6.186   1.739   3.624 -0.7199  0.2455 -0.2771
  165SAPE  H11R18497   6.079   1.749   3.601 -0.7999 -1.4344 -0.8037
  165SAPE  C21218498   6.214   1.669   3.739 -0.5124 -0.2059  0.3895
  165SAPE  H12R18499   6.142   1.630   3.812 -1.2624 -0.4922 -0.4784
  165SAPE  C21318500   6.354   1.637   3.778 -0.1116 -0.6431  0.7494
  165SAPE  H13R18501   6.424   1.637   3.691  0.7587  1.1162  1.4174
  165SAPE  H13S18502   6.366   1.535   3.821 -2.6160 -0.8605  1.0764
  165SAPE  C21418503   6.426   1.724   3.881  1.0963 -0.5195 -0.8012
  165SAPE  H14R18504   6.463   1.820   3.843  0.0670  0.9021  1.5971
  165SAPE  C21518505   6.448   1.696   4.005 -0.6998  0.0092 -0.4776
  165SAPE  H15R18506   6.507   1.761   4.071 -0.0862 -1.1141  0.1107
  165SAPE  C21618507   6.422   1.564   4.069 -0.7152 -0.8876 -0.9727
  165SAPE  H16R18508   6.514   1.501   4.069  0.2752  0.4831  0.5023
  165SAPE  H16S18509   6.351   1.500   4.012 -0.7004 -0.4974 -1.4335
  165SAPE  C21718510   6.375   1.563   4.219  0.3275  0.7185 -0.3153
  165SAPE  H17R18511   6.276   1.614   4.219  0.5141  1.1933  2.0620
  165SAPE  H17S18512   6.446   1.622   4.282 -0.1543  0.6136  0.3359
  165SAPE  C21818513   6.370   1.423   4.273  0.3463  0.2223 -0.2643
  165SAPE  H18R18514   6.471   1.378   4.266  0.5104  0.6613 -0.7122
  165SAPE  H18S18515   6.303   1.353   4.218 -1.3154  0.3837  1.4526
  165SAPE  C21918516   6.328   1.428   4.425 -0.7670 -0.4259  0.4380
  165SAPE  H19R18517   6.224   1.467   4.426 -0.1052  1.4248  0.9300
  165SAPE  H19S18518   6.391   1.490   4.493 -0.9146  0.4832 -0.2325
  165SAPE  C22018519   6.315   1.289   4.491 -0.1613  0.0716  0.8853
  165SAPE  H20R18520   6.413   1.244   4.518 -0.6345 -1.7262 -0.1832
  165SAPE  H20S18521   6.267   1.216   4.422  0.1629 -0.6899  1.4445
  165SAPE  H20T18522   6.253   1.291   4.583  1.8009  3.0300  2.2960
  165SAPE   C3318523   6.332   2.533   3.059 -0.3091  0.2229  0.3233
  165SAPE   H3X18524   6.228   2.536   3.021 -0.9263 -0.2549  1.8953
  165SAPE   H3Y18525   6.383   2.630   3.040 -2.3382  1.0324 -1.4180
  165SAPE   C3418526   6.321   2.513   3.205  0.6493 -0.7845  0.1294
  165SAPE   H4X18527   6.300   2.406   3.226 -2.1237 -0.1409  1.0401
  165SAPE   H4Y18528   6.235   2.573   3.241  1.0678  0.0240 -0.1949
  165SAPE   C3518529   6.437   2.548   3.291  0.0019  0.1946  0.4993
  165SAPE   H5X18530   6.438   2.658   3.311 -1.3933 -0.0470  2.0951
  165SAPE   H5Y18531   6.532   2.524   3.239 -0.1601  0.2366  0.1803
  165SAPE   C3618532   6.439   2.464   3.417 -0.4462 -0.1523 -0.2445
  165SAPE   H6X18533   6.541   2.462   3.462  2.0616 -1.1800 -5.2468
  165SAPE   H6Y18534   6.419   2.355   3.409  0.6686 -0.3513 -0.5845
  165SAPE   C3718535   6.328   2.530   3.505  0.5893  0.2175  0.0564
  165SAPE   H7X18536   6.228   2.499   3.466  0.2930 -0.8722  1.5949
  165SAPE   H7Y18537   6.336   2.640   3.507 -0.6896  0.3462  2.6785
  165SAPE   C3818538   6.351   2.487   3.649 -0.0796  0.3067  0.0811
  165SAPE   H8X18539   6.273   2.534   3.712 -0.4447 -0.0830 -0.0771
  165SAPE   H8Y18540   6.452   2.528   3.672  0.0087  0.9736 -1.3579
  165SAPE   C3918541   6.345   2.336   3.677 -0.2412  0.7667 -0.2007
  165SAPE   H9X18542   6.435   2.277   3.650 -0.6501  0.0973 -0.1212
  165SAPE   H9Y18543   6.256   2.300   3.621 -1.3933  2.6278  0.3112
  165SAPE  C31018544   6.316   2.296   3.829 -0.2811 -0.6361 -0.1764
  165SAPE  H10X18545   6.225   2.348   3.868  0.0372  0.7426 -1.2189
  165SAPE  H10Y18546   6.402   2.335   3.888 -0.2547 -3.0849  1.5656
  165SAPE  C31118547   6.305   2.151   3.870  0.6656  0.8174  0.7071
  165SAPE  H11X18548   6.399   2.102   3.837  1.0815  1.3762  1.0655
  165SAPE  H11Y18549   6.222   2.094   3.822 -0.2556  1.8602  1.0229
  165SAPE  C31218550   6.289   2.134   4.020 -0.0303 -0.0477  0.1088
  165SAPE  H12X18551   6.357   2.203   4.075  0.4367  0.6469 -1.2921
  165SAPE  H12Y18552   6.307   2.032   4.062 -0.4216  1.0189  3.1084
  165SAPE  C31318553   6.147   2.147   4.067  0.4384 -0.2609 -0.9853
  165SAPE  H13X18554   6.084   2.083   4.001  0.6584 -0.8740 -0.6076
  165SAPE  H13Y18555   6.107   2.248   4.045  1.0593  0.4475  0.8958
  165SAPE  C31418556   6.127   2.108   4.217  0.0311  0.3505  0.5905
  165SAPE  H14X18557   6.188   2.177   4.279 -0.7773  1.6105  0.0101
  165SAPE  H14Y18558   6.155   2.001   4.227  1.0400  0.7061  1.9035
  165SAPE  C31518559   5.981   2.119   4.244  0.4922 -0.6089  0.0246
  165SAPE  H15X18560   5.955   2.223   4.217  1.6577 -0.9151 -2.6268
  165SAPE  H15Y18561   5.963   2.102   4.352 -1.4645 -0.8171 -0.2941
  165SAPE  C31618562   5.893   2.023   4.159 -0.0118 -0.1903 -0.7812
  165SAPE  H16X18563   5.932   1.919   4.168 -1.4766 -0.9281 -2.2900
  165SAPE  H16Y18564   5.884   2.038   4.049 -0.5467  0.0980 -0.7037
  165SAPE  C31718565   5.743   2.046   4.203 -0.8855  0.6145 -0.0541
  165SAPE  H17X18566   5.716   2.151   4.179  1.3484  0.7420 -2.3078
  165SAPE  H17Y18567   5.741   2.016   4.311 -1.6191 -1.7190 -0.6436
  165SAPE  C31818568   5.649   1.942   4.143  0.5355  0.1028  0.0760
  165SAPE  H18X18569   5.690   1.840   4.157  2.8050  1.0018  0.4330
  165SAPE  H18Y18570   5.627   1.964   4.037 -1.8418 -5.9142 -1.0571
  165SAPE  H18Z18571   5.548   1.942   4.189 -0.2382 -0.5611 -1.5545
  166SAPE     N18572   0.371   6.156   2.226  0.0350  0.2251 -0.2429
  166SAPE   HN118573   0.466   6.195   2.242  1.3777 -1.9631 -2.1772
  166SAPE   HN218574   0.355   6.156   2.123 -2.2344 -1.9987 -0.0049
  166SAPE   HN318575   0.292   6.206   2.271 -1.9261  0.1984 -3.3222
  166SAPE   C1218576   0.377   6.011   2.261  0.0590 -0.1631 -0.6922
  166SAPE  H12A18577   0.432   6.007   2.358 -0.0852  1.5296 -0.5076
  166SAPE  H12B18578   0.431   5.951   2.185 -1.3223 -1.1997 -0.8960
  166SAPE   C1118579   0.239   5.945   2.281  0.4167 -0.3994 -0.3622
  166SAPE  H11A18580   0.175   5.997   2.356 -0.8535 -0.2625 -1.5110
  166SAPE  H11B18581   0.251   5.842   2.322 -2.0106 -0.7682 -0.4225
  166SAPE     P18582   0.017   5.951   2.131 -0.1824  0.1890 -0.3456
  166SAPE   O1318583  -0.017   6.083   2.074  0.6511  0.5866 -0.5892
  166SAPE   O1418584  -0.026   5.825   2.060 -0.0561 -0.1388 -0.1693
  166SAPE   O1218585   0.173   5.948   2.150  0.4849  0.6374 -0.2315
  166SAPE   O1118586  -0.033   5.937   2.278 -0.3854 -0.4157  0.1140
  166SAPE    C118587  -0.165   5.990   2.313 -0.6561  0.2441 -0.1103
  166SAPE    HA18588  -0.209   6.065   2.243 -0.7979 -0.9413 -1.3428
  166SAPE    HB18589  -0.240   5.908   2.308  0.3878 -0.7015 -0.6143
  166SAPE    C218590  -0.168   6.043   2.452 -0.4639 -0.3284 -0.6467
  166SAPE    HS18591  -0.100   6.131   2.449  1.0783 -1.4803 -0.9043
  166SAPE   O2118592  -0.120   5.938   2.543 -0.0998  0.1258 -0.2806
  166SAPE   C2118593  -0.024   5.973   2.620  0.1821 -0.3339  0.4547
  166SAPE   O2218594   0.033   6.082   2.620 -0.2636  0.1833  0.0788
  166SAPE   C2218595  -0.016   5.869   2.733  0.4930  0.1427 -0.0107
  166SAPE   H2R18596  -0.121   5.838   2.754  0.0944  1.3227 -0.1757
  166SAPE   H2S18597   0.041   5.784   2.690  0.1230 -0.0716 -0.0850
  166SAPE    C318598  -0.305   6.103   2.502 -0.1854  0.6077 -0.3596
  166SAPE    HX18599  -0.382   6.022   2.503 -1.2150  1.5549  1.3573
  166SAPE    HY18600  -0.337   6.182   2.431 -0.0640 -0.0457 -1.1565
  166SAPE   O3118601  -0.274   6.150   2.637 -0.2855  0.2838  0.4100
  166SAPE   C3118602  -0.386   6.178   2.711  0.3503  0.5806  0.2988
  166SAPE   O3218603  -0.498   6.150   2.678  0.0604 -0.1843  0.2599
  166SAPE   C3218604  -0.349   6.217   2.843  0.1762 -0.6531  0.3113
  166SAPE   H2X18605  -0.332   6.327   2.841  2.7916 -0.9247  2.0873
  166SAPE   H2Y18606  -0.251   6.174   2.874  1.7058  2.1368 -0.3400
  166SAPE   C2318607   0.058   5.922   2.865 -0.0947  0.0999  0.9708
  166SAPE   H3R18608   0.163   5.940   2.833  0.2660 -3.2380 -0.0489
  166SAPE   H3S18609   0.071   5.837   2.935  0.8903 -0.5197  0.0698
  166SAPE   C2418610  -0.014   6.038   2.936  0.0717  0.5032 -0.5152
  166SAPE   H4R18611  -0.122   6.014   2.945  0.4049 -1.7734 -1.8125
  166SAPE   H4S18612   0.002   6.128   2.873 -1.2691  0.0088 -1.5922
  166SAPE   C2518613   0.052   6.056   3.072 -0.0297 -0.3959 -0.2255
  166SAPE   H5R18614   0.143   6.117   3.075  0.1710 -0.6715 -0.5167
  166SAPE   C2618615   0.009   6.017   3.194  0.0389 -0.4549  0.1967
  166SAPE   H6R18616   0.073   6.050   3.277  1.0497 -0.6775 -0.4675
  166SAPE   C2718617  -0.109   5.932   3.223  0.0904  0.2029 -0.3838
  166SAPE   H7R18618  -0.141   5.874   3.135  0.8004  0.0220 -0.5262
  166SAPE   H7S18619  -0.196   6.000   3.238 -1.1748 -1.0892 -1.6284
  166SAPE   C2818620  -0.089   5.838   3.335 -0.9836 -0.0701 -0.1584
  166SAPE   H8R18621  -0.049   5.738   3.315 -1.3386 -0.5350  1.3267
  166SAPE   C2918622  -0.110   5.862   3.461 -0.2103  0.4909 -0.9411
  166SAPE   H9R18623  -0.081   5.779   3.527 -2.0386  1.3839  1.1168
  166SAPE  C21018624  -0.159   5.989   3.535  0.4999 -0.7888  0.8267
  166SAPE  H10R18625  -0.207   6.060   3.464  2.7650 -0.3258 -0.3179
  166SAPE  H10S18626  -0.069   6.045   3.565  2.3549 -1.9461 -2.1212
  166SAPE  C21118627  -0.240   5.951   3.652 -0.2511  0.8096 -1.0009
  166SAPE  H11R18628  -0.349   5.966   3.647 -0.1628  1.0205 -2.5266
  166SAPE  C21218629  -0.184   5.918   3.770  0.5985 -0.5904 -0.0778
  166SAPE  H12R18630  -0.260   5.895   3.847 -1.5324 -3.9527 -2.8381
  166SAPE  C21318631  -0.039   5.899   3.801  0.5010  0.0264 -0.1284
  166SAPE  H13R18632   0.026   5.972   3.748  2.3422 -0.3838  1.4544
  166SAPE  H13S18633  -0.001   5.802   3.764  0.6541  0.6278 -1.5917
  166SAPE  C21418634  -0.019   5.901   3.951 -0.3125 -1.3241 -0.2581
  166SAPE  H14R18635   0.001   6.006   3.979 -0.0261 -1.8771  1.8432
  166SAPE  C21518636  -0.030   5.806   4.051  0.5505  0.3135  0.1263
  166SAPE  H15R18637  -0.033   5.831   4.158  1.2328 -0.7893  0.4192
  166SAPE  C21618638  -0.040   5.655   4.026 -0.4364 -0.6021  0.0875
  166SAPE  H16R18639  -0.002   5.597   4.113  2.1713  1.5428  0.4928
  166SAPE  H16S18640   0.020   5.630   3.936 -0.5459  0.2497 -0.2308
  166SAPE  C21718641  -0.185   5.607   4.007 -0.7588  0.2849  0.4289
  166SAPE  H17R18642  -0.233   5.659   3.922 -0.8349  2.1379  1.5589
  166SAPE  H17S18643  -0.251   5.613   4.097 -1.3269  1.7433 -0.0550
  166SAPE  C21818644  -0.187   5.454   3.963 -0.9052 -0.0109 -0.1191
  166SAPE  H18R18645  -0.290   5.421   3.940 -1.5729  2.2119 -0.5222
  166SAPE  H18S18646  -0.154   5.392   4.050  0.7270  1.1347  0.1324
  166SAPE  C21918647  -0.088   5.422   3.849 -0.0265  0.3470  0.5142
  166SAPE  H19R18648  -0.103   5.312   3.845  2.8509 -0.2279  2.5016
  166SAPE  H19S18649   0.018   5.436   3.877 -0.2845  0.0056  1.7116
  166SAPE  C22018650  -0.115   5.483   3.708  0.5395  0.2709  0.0280
  166SAPE  H20R18651  -0.022   5.477   3.647  0.7072  0.1733  0.2873
  166SAPE  H20S18652  -0.144   5.589   3.717 -3.8770 -0.8182  0.7531
  166SAPE  H20T18653  -0.204   5.435   3.663 -0.3344  2.6937 -0.9825
  166SAPE   C3318654  -0.451   6.176   2.958  0.6707 -0.2766  0.1673
  166SAPE   H3X18655  -0.482   6.070   2.946 -1.2233 -0.0621  2.4507
  166SAPE   H3Y18656  -0.543   6.235   2.940 -0.2440 -0.8092  2.6038
  166SAPE   C3418657  -0.406   6.215   3.099 -1.1664 -0.1993  0.2024
  166SAPE   H4X18658  -0.393   6.325   3.091  1.7351 -0.4806 -0.0329
  166SAPE   H4Y18659  -0.311   6.160   3.113 -1.1699 -0.4933 -0.8513
  166SAPE   C3518660  -0.514   6.181   3.201  0.0766  0.3925 -0.2772
  166SAPE   H5X18661  -0.562   6.082   3.187 -0.6562  0.4395  1.6495
  166SAPE   H5Y18662  -0.599   6.246   3.174 -1.6003 -1.4787  0.2530
  166SAPE   C3618663  -0.458   6.194   3.345 -0.4252  0.2301  0.5661
  166SAPE   H6X18664  -0.437   6.300   3.372  0.6312 -0.3565  2.1497
  166SAPE   H6Y18665  -0.356   6.152   3.341 -1.6227 -2.8590 -0.8782
  166SAPE   C3718666  -0.543   6.131   3.451  0.0931 -0.7137 -0.0740
  166SAPE   H7X18667  -0.491   6.143   3.548 -1.8471 -0.0707  0.9420
  166SAPE   H7Y18668  -0.552   6.020   3.444  0.5144 -0.8736  1.4837
  166SAPE   C3818669  -0.675   6.205   3.458  0.0912 -0.3011 -0.0118
  166SAPE   H8X18670  -0.742   6.176   3.374  1.1921  0.6379 -1.2555
  166SAPE   H8Y18671  -0.651   6.313   3.444 -1.4417  0.5867  3.2686
  166SAPE   C3918672  -0.752   6.177   3.592  0.3162  0.6444  0.2290
  166SAPE   H9X18673  -0.850   6.228   3.581  0.4627  0.7905 -0.3821
  166SAPE   H9Y18674  -0.689   6.227   3.669 -0.1860  0.6197  0.6672
  166SAPE  C31018675  -0.763   6.028   3.626  0.3772 -0.1350  0.2950
  166SAPE  H10X18676  -0.661   5.991   3.652  1.9203  2.9762 -0.8474
  166SAPE  H10Y18677  -0.793   5.974   3.533  1.8223 -1.6650  0.6610
  166SAPE  C31118678  -0.864   5.994   3.740 -0.1931 -0.0981 -0.3284
  166SAPE  H11X18679  -0.866   5.883   3.752  1.9529 -0.2451 -0.8411
  166SAPE  H11Y18680  -0.969   6.017   3.713  0.4509  0.6295 -2.3922
  166SAPE  C31218681  -0.818   6.065   3.869 -0.2847  0.0715 -0.5291
  166SAPE  H12X18682  -0.833   6.173   3.849 -2.1229 -0.0036  0.2295
  166SAPE  H12Y18683  -0.714   6.033   3.889  0.3953  1.3939 -1.8225
  166SAPE  C31318684  -0.905   6.043   3.989  0.6214  0.0131  0.3524
  166SAPE  H13X18685  -0.931   5.937   4.008  1.4312 -0.8479 -2.6928
  166SAPE  H13Y18686  -0.998   6.101   3.970  0.8344 -0.6906 -3.8023
  166SAPE  C31418687  -0.839   6.105   4.118 -0.2585  0.3092  0.6136
  166SAPE  H14X18688  -0.830   6.215   4.106  1.3244  0.0449 -1.0120
  166SAPE  H14Y18689  -0.735   6.067   4.123 -0.7461 -0.9289  3.7201
  166SAPE  C31518690  -0.935   6.084   4.237  0.3987  0.2226 -0.1650
  166SAPE  H15X18691  -0.930   5.976   4.260  1.1478  0.3762  0.4159
  166SAPE  H15Y18692  -1.037   6.115   4.204  1.8414  3.0716 -2.3463
  166SAPE  C31618693  -0.911   6.166   4.363 -0.3643 -0.4818  0.5565
  166SAPE  H16X18694  -0.902   6.276   4.352 -0.1221 -0.6196 -0.6809
  166SAPE  H16Y18695  -0.806   6.149   4.396  1.1966  0.0946 -3.5567
  166SAPE  C31718696  -1.009   6.133   4.481  0.1884 -0.8143 -0.4289
  166SAPE  H17X18697  -0.984   6.027   4.501 -0.6270 -0.7130  1.3160
  166SAPE  H17Y18698  -1.115   6.131   4.446 -0.6882 -1.3407  2.0863
  166SAPE  C31818699  -0.990   6.208   4.604 -0.2830 -0.0327 -0.0672
  166SAPE  H18X18700  -1.009   6.317   4.596  2.0651  0.6053  1.9469
  166SAPE  H18Y18701  -0.884   6.203   4.638 -0.1740 -0.6563 -0.4780
  166SAPE  H18Z18702  -1.061   6.165   4.678 -1.1673  0.4311 -0.6228
  167SAPE     N18703   6.297   5.393   1.537  0.1827 -0.2952 -0.0262
  167SAPE   HN118704   6.244   5.379   1.449  0.4409  0.5279 -0.3120
  167SAPE   HN218705   6.280   5.490   1.570  1.0490 -0.5233  1.1364
  167SAPE   HN318706   6.399   5.398   1.521 -0.0893  1.9394 -1.5153
  167SAPE   C1218707   6.275   5.287   1.639 -0.2037  0.0184 -0.3690
  167SAPE  H12A18708   6.327   5.194   1.608  0.9155 -0.4287  2.5447
  167SAPE  H12B18709   6.164   5.282   1.637 -0.2516  0.6144 -2.9853
  167SAPE   C1118710   6.319   5.335   1.776  0.3208 -0.1854 -0.4241
  167SAPE  H11A18711   6.263   5.269   1.845 -0.4946 -0.0876 -0.9690
  167SAPE  H11B18712   6.278   5.436   1.796  0.2814  0.0068 -1.3870
  167SAPE     P18713   6.507   5.245   1.921  0.3147 -0.1292  0.0869
  167SAPE   O1318714   6.486   5.106   1.886 -0.0542  0.2781 -0.2323
  167SAPE   O1418715   6.643   5.279   1.957 -0.0515  0.0786 -0.5182
  167SAPE   O1218716   6.462   5.335   1.794 -0.3475  0.3710  0.0670
  167SAPE   O1118717   6.411   5.283   2.040 -0.2831 -0.3467 -0.1487
  167SAPE    C118718   6.466   5.340   2.164 -0.0018 -0.5153  0.3378
  167SAPE    HA18719   6.545   5.417   2.152 -1.2932  1.0310  1.2526
  167SAPE    HB18720   6.378   5.398   2.200 -0.3277 -1.4893  1.1625
  167SAPE    C218721   6.491   5.246   2.284 -0.0033 -0.0856 -0.7983
  167SAPE    HS18722   6.581   5.187   2.257  1.4183  1.2867  0.6962
  167SAPE   O2118723   6.378   5.159   2.299  0.2658 -0.7556 -0.4054
  167SAPE   C2118724   6.397   5.058   2.371  0.1403  0.1417  0.7070
  167SAPE   O2218725   6.498   5.021   2.426 -0.0922 -0.0353 -0.2794
  167SAPE   C2218726   6.268   4.972   2.379 -0.5467 -0.6790  0.0810
  167SAPE   H2R18727   6.218   4.981   2.280 -3.0273 -1.5753  1.1752
  167SAPE   H2S18728   6.292   4.864   2.389  2.4340 -0.0255  0.9108
  167SAPE    C318729   6.519   5.325   2.416  0.0363 -0.1002  0.6351
  167SAPE    HX18730   6.600   5.393   2.380 -0.3219 -1.1147 -2.4339
  167SAPE    HY18731   6.557   5.262   2.498 -1.9778 -0.3154  1.4562
  167SAPE   O3118732   6.397   5.395   2.460  0.2656  0.4912 -0.6106
  167SAPE   C3118733   6.393   5.528   2.447  0.7243 -0.3215  0.4813
  167SAPE   O3218734   6.482   5.595   2.390  0.1083  0.2329  0.3115
  167SAPE   C3218735   6.254   5.575   2.489 -0.3589  0.0691 -1.2309
  167SAPE   H2X18736   6.211   5.521   2.576 -0.5630  1.7179 -0.2577
  167SAPE   H2Y18737   6.185   5.562   2.402  0.2903  2.0638 -2.0991
  167SAPE   C2318738   6.190   5.001   2.513 -0.4996 -0.0177  0.2479
  167SAPE   H3R18739   6.260   4.963   2.591 -0.6841 -1.0870 -0.1000
  167SAPE   H3S18740   6.108   4.926   2.509 -1.3381  0.9285 -0.9924
  167SAPE   C2418741   6.156   5.149   2.533  0.2126  0.4998 -0.5450
  167SAPE   H4R18742   6.087   5.172   2.449  0.2234 -1.2395 -1.0575
  167SAPE   H4S18743   6.238   5.221   2.513  1.1347 -0.7515 -1.3565
  167SAPE   C2518744   6.082   5.165   2.665  0.4307 -0.0136  1.4538
  167SAPE   H5R18745   5.996   5.097   2.662 -0.2123  0.7997  1.2676
  167SAPE   C2618746   6.116   5.226   2.784  0.5153 -0.1348 -0.3559
  167SAPE   H6R18747   6.046   5.223   2.870  2.4492 -1.2209  1.2655
  167SAPE   C2718748   6.237   5.304   2.804  0.1563  0.0769  0.2838
  167SAPE   H7R18749   6.208   5.384   2.876  0.4991  0.0636  0.4380
  167SAPE   H7S18750   6.254   5.352   2.705 -3.3714  0.0229 -0.4702
  167SAPE   C2818751   6.353   5.217   2.847  0.1210  0.6723 -0.8043
  167SAPE   H8R18752   6.388   5.150   2.767  1.4273 -1.3916  1.3711
  167SAPE   C2918753   6.381   5.189   2.975 -0.2578 -0.3977  0.3394
  167SAPE   H9R18754   6.470   5.131   3.004  0.7821  1.1856  0.3982
  167SAPE  C21018755   6.324   5.271   3.092  0.1645  0.6147  0.3835
  167SAPE  H10R18756   6.295   5.374   3.061  1.7128  1.0696  0.3638
  167SAPE  H10S18757   6.407   5.278   3.166  0.8008  2.1358 -0.4193
  167SAPE  C21118758   6.201   5.197   3.143 -0.5523  0.4402 -0.4576
  167SAPE  H11R18759   6.107   5.244   3.113 -2.8054 -1.7230  2.5773
  167SAPE  C21218760   6.208   5.086   3.222  0.7753 -0.7516  0.5227
  167SAPE  H12R18761   6.114   5.030   3.234  1.2560 -1.8624 -0.7313
  167SAPE  C21318762   6.336   5.029   3.277 -0.1509  0.5591  0.0655
  167SAPE  H13R18763   6.404   5.094   3.337  1.8042 -0.9958 -0.3414
  167SAPE  H13S18764   6.400   5.006   3.189 -0.2824 -0.9657  0.3341
  167SAPE  C21418765   6.305   4.902   3.362 -0.4193 -0.4077  0.2994
  167SAPE  H14R18766   6.304   4.811   3.300 -1.0257 -0.2599  0.0913
  167SAPE  C21518767   6.268   4.903   3.494  0.3512 -0.1550 -0.8633
  167SAPE  H15R18768   6.251   4.804   3.539  2.5598 -0.1640  0.1158
  167SAPE  C21618769   6.256   5.022   3.580 -0.2634  0.0175 -0.0786
  167SAPE  H16R18770   6.153   5.024   3.619 -1.0906  2.3007 -2.1107
  167SAPE  H16S18771   6.255   5.112   3.515 -0.8575  1.0146  1.2625
  167SAPE  C21718772   6.355   5.044   3.694  0.2949 -0.2502 -0.4164
  167SAPE  H17R18773   6.348   5.151   3.722  1.6780 -0.8762  2.7035
  167SAPE  H17S18774   6.454   5.016   3.650  1.0697  0.8670  0.5612
  167SAPE  C21818775   6.333   4.944   3.818  0.4700  0.2107  0.0878
  167SAPE  H18R18776   6.305   4.841   3.790  1.0464 -0.0067  0.2967
  167SAPE  H18S18777   6.245   4.980   3.875 -0.1201 -1.3164  0.1823
  167SAPE  C21918778   6.451   4.932   3.917 -0.9985 -0.2691  0.2719
  167SAPE  H19R18779   6.543   4.904   3.860 -0.2529 -0.5081  1.5517
  167SAPE  H19S18780   6.429   4.838   3.972  1.7941 -2.5827 -2.1723
  167SAPE  C22018781   6.493   5.054   4.000 -0.0257  0.6451 -0.1499
  167SAPE  H20R18782   6.591   5.032   4.047  1.2384  1.5986 -2.1917
  167SAPE  H20S18783   6.416   5.070   4.078  2.0795  0.6174  2.0348
  167SAPE  H20T18784   6.491   5.147   3.939 -1.9888  0.9344  0.3066
  167SAPE   C3318785   6.263   5.723   2.535  0.0484  1.0444 -0.0868
  167SAPE   H3X18786   6.156   5.747   2.555 -1.1721 -4.7397  2.1452
  167SAPE   H3Y18787   6.304   5.783   2.451  2.2574 -0.2273  0.0079
  167SAPE   C3418788   6.339   5.751   2.669  0.1320  0.3419  0.0737
  167SAPE   H4X18789   6.359   5.860   2.673 -0.9337  0.5493  0.0775
  167SAPE   H4Y18790   6.439   5.703   2.658 -1.1102 -2.1419 -1.3451
  167SAPE   C3518791   6.261   5.720   2.800  0.0272 -0.0358 -0.0608
  167SAPE   H5X18792   6.229   5.613   2.801  0.8490 -0.3029 -1.1438
  167SAPE   H5Y18793   6.164   5.773   2.805  1.1423  2.1441 -0.4730
  167SAPE   C3618794   6.333   5.756   2.933  0.9419  0.4818  0.2381
  167SAPE   H6X18795   6.334   5.866   2.950  0.8494  0.2579  1.9094
  167SAPE   H6Y18796   6.436   5.716   2.935  0.2880 -1.3800 -1.0419
  167SAPE   C3718797   6.255   5.700   3.051 -0.0535  0.1004  0.2107
  167SAPE   H7X18798   6.233   5.592   3.040  2.3485 -1.0262  4.2815
  167SAPE   H7Y18799   6.160   5.758   3.046  0.0708  0.3335  0.5243
  167SAPE   C3818800   6.322   5.718   3.184 -0.9907 -0.0307  0.1233
  167SAPE   H8X18801   6.301   5.818   3.228 -1.3441  0.9837 -2.1756
  167SAPE   H8Y18802   6.432   5.710   3.188 -1.0671 -0.8570  0.6707
  167SAPE   C3918803   6.267   5.624   3.294  0.4093 -0.3569 -0.0174
  167SAPE   H9X18804   6.277   5.521   3.254 -1.1258  0.0540 -1.5954
  167SAPE   H9Y18805   6.158   5.645   3.307  0.5396  1.6987 -1.8173
  167SAPE  C31018806   6.331   5.656   3.429  0.1146 -0.0643 -0.3637
  167SAPE  H10X18807   6.335   5.767   3.436  0.5006  0.1708 -3.0865
  167SAPE  H10Y18808   6.439   5.632   3.431 -0.0878 -0.9449  0.2808
  167SAPE  C31118809   6.253   5.601   3.544 -0.0220 -0.1817  0.0764
  167SAPE  H11X18810   6.246   5.490   3.536 -1.6223 -0.3660  2.9250
  167SAPE  H11Y18811   6.145   5.628   3.539 -0.1106  0.4486  3.4664
  167SAPE  C31218812   6.285   5.645   3.693  0.1766 -0.2652  0.3906
  167SAPE  H12X18813   6.352   5.734   3.696  0.1450 -0.2314  0.1740
  167SAPE  H12Y18814   6.341   5.558   3.734  1.9347  1.2906  1.4836
  167SAPE  C31318815   6.164   5.673   3.772  1.0179  0.3433  0.3202
  167SAPE  H13X18816   6.109   5.576   3.777  0.4955  0.6396  0.3638
  167SAPE  H13Y18817   6.101   5.741   3.712 -1.9843  0.1161  2.9294
  167SAPE  C31418818   6.182   5.744   3.908  0.1286 -0.1548 -0.0744
  167SAPE  H14X18819   6.195   5.848   3.872 -0.3065 -0.8914 -2.5775
  167SAPE  H14Y18820   6.276   5.708   3.954 -0.1840 -1.0908 -0.1461
  167SAPE  C31518821   6.067   5.717   4.005 -0.0846  0.6422 -1.0622
  167SAPE  H15X18822   6.042   5.609   4.006  0.9235  0.3953  0.7288
  167SAPE  H15Y18823   5.971   5.762   3.973 -0.3901  0.2679 -0.6689
  167SAPE  C31618824   6.079   5.756   4.156 -0.5054  0.0365  0.7023
  167SAPE  H16X18825   5.995   5.704   4.207  1.3836 -1.2119  2.7386
  167SAPE  H16Y18826   6.068   5.866   4.162  0.9413  0.3587 -1.3193
  167SAPE  C31718827   6.215   5.707   4.216  0.1679 -0.0070  0.8555
  167SAPE  H17X18828   6.211   5.737   4.323  1.3528  2.0217  0.3750
  167SAPE  H17Y18829   6.307   5.755   4.177 -0.7633  0.0745 -1.4114
  167SAPE  C31818830   6.228   5.556   4.217  0.1499 -0.1135 -0.0674
  167SAPE  H18X18831   6.309   5.524   4.286 -0.4690  1.3092  1.3792
  167SAPE  H18Y18832   6.243   5.523   4.112 -0.7341  3.0465 -1.2993
  167SAPE  H18Z18833   6.132   5.516   4.256  0.5391  0.1507  1.2194
  168SAPE     N18834   3.908   0.221   2.116  0.4654 -0.4005 -0.2012
  168SAPE   HN118835   3.848   0.224   2.201 -1.9504 -1.4463 -1.7512
  168SAPE   HN218836   4.007   0.218   2.147  1.3360 -2.2550 -2.7642
  168SAPE   HN318837   3.897   0.304   2.054 -1.9066  1.0764  1.9997
  168SAPE   C1218838   3.883   0.096   2.040  0.7219  0.2325  0.1331
  168SAPE  H12A18839   3.912   0.008   2.102 -0.4768  0.5003  1.1118
  168SAPE  H12B18840   3.953   0.095   1.954  1.1830 -0.3400  0.5054
  168SAPE   C1118841   3.734   0.071   2.009 -0.3781 -0.3751 -0.0342
  168SAPE  H11A18842   3.715  -0.024   1.955 -1.1126  0.1133 -0.6533
  168SAPE  H11B18843   3.699   0.154   1.944  2.2583  0.1114 -0.9504
  168SAPE     P18844   3.531   0.168   2.146  0.1357 -0.0033  0.5741
  168SAPE   O1318845   3.550   0.278   2.243 -0.4186  0.2697  1.0414
  168SAPE   O1418846   3.498   0.208   2.010  0.1691  0.3252 -0.1562
  168SAPE   O1218847   3.664   0.077   2.132  0.0094 -0.3018  0.1328
  168SAPE   O1118848   3.418   0.074   2.196  0.1505 -0.6834 -0.4016
  168SAPE    C118849   3.452  -0.035   2.285 -0.1260  0.1847 -0.1616
  168SAPE    HA18850   3.509  -0.112   2.229  1.3777  0.2662  1.2073
  168SAPE    HB18851   3.526   0.001   2.360  0.8603 -1.8112 -0.1023
  168SAPE    C218852   3.337  -0.100   2.366 -0.4997 -0.1935  0.6141
  168SAPE    HS18853   3.262  -0.148   2.300  1.2523 -1.0354 -0.8379
  168SAPE   O2118854   3.263   0.005   2.431 -0.3020  0.6101 -0.6980
  168SAPE   C2118855   3.164  -0.032   2.516  0.3485 -0.6103 -0.3604
  168SAPE   O2218856   3.107  -0.139   2.519  0.5633 -0.0294  0.2614
  168SAPE   C2218857   3.144   0.089   2.616  0.8148 -0.4571 -0.7823
  168SAPE   H2R18858   3.180   0.188   2.579  2.4960 -0.4615  0.6960
  168SAPE   H2S18859   3.035   0.099   2.631  0.7860 -0.5530 -0.9264
  168SAPE    C318860   3.385  -0.216   2.472  0.5686 -0.3624  0.4707
  168SAPE    HX18861   3.450  -0.280   2.409  0.1329 -2.1740  1.7838
  168SAPE    HY18862   3.298  -0.281   2.498 -0.2353  0.2955 -0.5053
  168SAPE   O3118863   3.441  -0.157   2.590 -0.2532  0.1143 -0.4235
  168SAPE   C3118864   3.574  -0.149   2.611  1.0502  0.4934  0.0987
  168SAPE   O3218865   3.656  -0.175   2.527  0.0860 -0.1153 -0.4952
  168SAPE   C3218866   3.615  -0.100   2.747  0.7739 -0.3288  0.4963
  168SAPE   H2X18867   3.710  -0.153   2.771  1.2394 -0.1704 -0.9106
  168SAPE   H2Y18868   3.541  -0.142   2.819  1.8972  0.6390  2.2938
  168SAPE   C2318869   3.175   0.052   2.762  0.2980 -0.2273  0.4128
  168SAPE   H3R18870   3.262  -0.016   2.747 -0.8519 -2.9109  4.3463
  168SAPE   H3S18871   3.102  -0.012   2.816  2.2092 -2.3793  0.6039
  168SAPE   C2418872   3.224   0.163   2.856  0.0359 -0.2379 -0.2762
  168SAPE   H4R18873   3.291   0.234   2.804 -0.5305 -0.6513 -1.6025
  168SAPE   H4S18874   3.291   0.113   2.929 -0.6664  0.6497  1.0201
  168SAPE   C2518875   3.104   0.234   2.909  0.6124 -0.3279  0.5572
  168SAPE   H5R18876   3.044   0.294   2.839 -0.0953  0.1715  1.5726
  168SAPE   C2618877   3.049   0.214   3.035  0.2194  0.2745  0.1868
  168SAPE   H6R18878   2.956   0.268   3.057 -1.1849 -2.2670  0.8529
  168SAPE   C2718879   3.090   0.114   3.144 -0.1385  0.1606  0.2562
  168SAPE   H7R18880   3.181   0.155   3.195  0.8223 -1.0887 -0.3885
  168SAPE   H7S18881   3.133   0.026   3.091 -0.1834  1.2829 -1.7518
  168SAPE   C2818882   2.983   0.070   3.236  0.5498  0.1047 -0.0134
  168SAPE   H8R18883   2.895   0.033   3.182  0.6515  0.0177 -0.1202
  168SAPE   C2918884   2.978   0.100   3.364  0.1582  0.3009 -0.6361
  168SAPE   H9R18885   2.901   0.044   3.419  1.3895 -1.5355 -0.7146
  168SAPE  C21018886   3.075   0.177   3.452  0.0866  0.1273  0.2728
  168SAPE  H10R18887   2.999   0.249   3.489 -1.2416 -1.3114  0.4746
  168SAPE  H10S18888   3.144   0.243   3.396 -2.0982  2.4802  0.1602
  168SAPE  C21118889   3.136   0.084   3.562 -0.6118 -0.2763  0.3924
  168SAPE  H11R18890   3.232   0.040   3.532  0.2624  0.8236  1.4560
  168SAPE  C21218891   3.090   0.057   3.691 -0.1983 -0.4750  0.2713
  168SAPE  H12R18892   3.132  -0.008   3.769  1.5049  1.1816  0.8197
  168SAPE  C21318893   2.961   0.117   3.738  0.0234 -0.1568  0.0527
  168SAPE  H13R18894   2.902   0.043   3.795  0.9379 -0.0731  1.1326
  168SAPE  H13S18895   2.901   0.140   3.647  0.1766 -0.2432 -0.0711
  168SAPE  C21418896   2.976   0.242   3.818 -0.5328 -0.1192  0.3575
  168SAPE  H14R18897   3.071   0.292   3.792 -0.2266 -0.9314 -0.1462
  168SAPE  C21518898   2.903   0.281   3.925 -0.1642 -0.2555  0.3987
  168SAPE  H15R18899   2.923   0.381   3.965 -1.0072 -0.4695  1.4195
  168SAPE  C21618900   2.779   0.211   3.980 -0.1136  0.0761  0.6558
  168SAPE  H16R18901   2.758   0.113   3.933 -0.4534 -0.4814  1.9544
  168SAPE  H16S18902   2.686   0.270   3.966 -1.5813 -1.9903  1.3676
  168SAPE  C21718903   2.794   0.190   4.132 -0.7418 -0.1223 -1.1285
  168SAPE  H17R18904   2.821   0.285   4.183 -0.8496 -0.2129 -0.9024
  168SAPE  H17S18905   2.875   0.121   4.161  2.0659  3.9757  1.8545
  168SAPE  C21818906   2.675   0.128   4.194 -0.1328  0.5391  0.2113
  168SAPE  H18R18907   2.691   0.116   4.303 -1.7982  3.9763  0.9848
  168SAPE  H18S18908   2.668   0.030   4.143  0.9655  1.2871 -1.4592
  168SAPE  C21918909   2.544   0.202   4.189 -0.3382 -0.0640 -0.5405
  168SAPE  H19R18910   2.467   0.125   4.212  0.5418 -1.0709 -0.8956
  168SAPE  H19S18911   2.512   0.231   4.087 -4.0314  0.6584  0.6732
  168SAPE  C22018912   2.552   0.321   4.284  0.7031 -0.6402  0.2127
  168SAPE  H20R18913   2.576   0.305   4.392  2.5366 -3.9908 -0.5457
  168SAPE  H20S18914   2.466   0.392   4.279  1.3862  0.0961 -1.9996
  168SAPE  H20T18915   2.639   0.386   4.260  0.6305  0.7311  3.1722
  168SAPE   C3318916   3.631   0.060   2.770  0.1518  0.5912  0.3048
  168SAPE   H3X18917   3.541   0.123   2.756  0.6714  1.4964  0.9624
  168SAPE   H3Y18918   3.696   0.108   2.693  0.4420 -0.6089 -0.2248
  168SAPE   C3418919   3.694   0.082   2.913  0.2016 -0.9849  0.0161
  168SAPE   H4X18920   3.703   0.192   2.919  0.5181 -0.9246 -1.2235
  168SAPE   H4Y18921   3.794   0.032   2.916  0.3663 -0.6149  1.7532
  168SAPE   C3518922   3.600   0.035   3.026 -0.5514 -0.3499 -0.6418
  168SAPE   H5X18923   3.572  -0.073   3.031 -0.8747 -0.2162  2.0943
  168SAPE   H5Y18924   3.515   0.106   3.021 -0.1632  0.3679  1.7633
  168SAPE   C3618925   3.663   0.073   3.166 -0.6346 -0.2722 -0.2851
  168SAPE   H6X18926   3.708   0.174   3.162  2.4182 -1.5238  0.1357
  168SAPE   H6Y18927   3.751   0.007   3.178 -0.9488 -0.9465 -1.5637
  168SAPE   C3718928   3.565   0.070   3.286 -0.1596 -0.1219  0.8237
  168SAPE   H7X18929   3.526  -0.034   3.288 -0.5020  0.0043  0.7905
  168SAPE   H7Y18930   3.486   0.144   3.261 -0.6030 -0.2652  1.7657
  168SAPE   C3818931   3.635   0.100   3.422  0.2061  0.1409  0.4903
  168SAPE   H8X18932   3.675   0.203   3.425  0.1933  0.1418  0.6605
  168SAPE   H8Y18933   3.722   0.031   3.431 -0.9164 -1.6005 -1.0679
  168SAPE   C3918934   3.533   0.070   3.537 -0.3739 -0.1217 -0.4319
  168SAPE   H9X18935   3.517  -0.040   3.542  1.8906 -0.4650  1.2821
  168SAPE   H9Y18936   3.436   0.114   3.507  0.0083  0.4996 -0.7893
  168SAPE  C31018937   3.566   0.127   3.675  0.3185 -0.2464 -0.1864
  168SAPE  H10X18938   3.603   0.232   3.672 -1.7372  0.8808  4.6951
  168SAPE  H10Y18939   3.644   0.062   3.721  2.7950  0.8075 -2.6164
  168SAPE  C31118940   3.446   0.122   3.775  0.5342 -0.2638 -0.1316
  168SAPE  H11X18941   3.409   0.018   3.766 -2.1032  0.5052  0.6980
  168SAPE  H11Y18942   3.370   0.199   3.749 -0.1919 -1.1852 -0.8236
  168SAPE  C31218943   3.491   0.158   3.922 -0.1376  0.1149  0.1347
  168SAPE  H12X18944   3.530   0.262   3.925 -0.7992  0.6167 -3.3216
  168SAPE  H12Y18945   3.574   0.086   3.938 -0.5842 -0.0911  1.6755
  168SAPE  C31318946   3.380   0.134   4.012  0.2601  0.1257  0.5845
  168SAPE  H13X18947   3.375   0.024   4.002  2.8712  0.1253 -1.7311
  168SAPE  H13Y18948   3.287   0.189   3.986 -0.3885 -0.2806  1.9174
  168SAPE  C31418949   3.416   0.163   4.155 -0.2028 -0.0016 -0.1377
  168SAPE  H14X18950   3.452   0.268   4.166 -0.4819  0.0071  0.6948
  168SAPE  H14Y18951   3.493   0.091   4.188 -0.2584  0.2056  0.4430
  168SAPE  C31518952   3.303   0.163   4.268  0.2178  0.4493 -0.6750
  168SAPE  H15X18953   3.346   0.154   4.370 -2.1080  0.2035  0.3491
  168SAPE  H15Y18954   3.237   0.075   4.249 -0.7394  0.8049  0.7889
  168SAPE  C31618955   3.212   0.285   4.271 -0.0778 -0.2758  0.3916
  168SAPE  H16X18956   3.164   0.293   4.171 -1.4911 -0.0867  1.0540
  168SAPE  H16Y18957   3.279   0.374   4.271  0.4883 -0.6933 -0.6610
  168SAPE  C31718958   3.105   0.288   4.379  0.1208 -0.0027  0.0896
  168SAPE  H17X18959   3.049   0.196   4.353  0.8289 -0.5394  0.4244
  168SAPE  H17Y18960   3.037   0.376   4.373 -0.2120 -0.1833  1.0128
  168SAPE  C31818961   3.154   0.281   4.526  0.7626 -0.2049  0.9541
  168SAPE  H18X18962   3.075   0.263   4.601 -0.1014 -0.4190  0.0140
  168SAPE  H18Y18963   3.203   0.378   4.548  0.3094  1.3111 -3.5951
  168SAPE  H18Z18964   3.230   0.202   4.546  0.3302 -0.5654  1.1825
  169SAPE     N18965   0.084   4.795   2.114  0.6071  0.1984 -0.3439
  169SAPE   HN118966   0.186   4.806   2.127  0.2907  2.7584  0.4921
  169SAPE   HN218967   0.057   4.706   2.066 -0.9762  1.6231 -2.3022
  169SAPE   HN318968   0.047   4.870   2.052  2.4047  0.8938 -0.6374
  169SAPE   C1218969   0.014   4.808   2.251  0.8116 -0.4281  0.3811
  169SAPE  H12A18970   0.006   4.915   2.280  0.4214  0.0064 -1.2154
  169SAPE  H12B18971   0.072   4.750   2.325  1.2293 -0.1812  0.2516
  169SAPE   C1118972  -0.132   4.754   2.253  0.2749 -0.1340 -0.0942
  169SAPE  H11A18973  -0.199   4.803   2.180 -1.1005 -0.5197  0.8805
  169SAPE  H11B18974  -0.179   4.774   2.352  0.5840 -0.3078  0.0904
  169SAPE     P18975  -0.130   4.524   2.114 -0.3725  0.0195  0.6254
  169SAPE   O1318976  -0.268   4.533   2.053 -0.0202 -0.4215  0.2456
  169SAPE   O1418977  -0.008   4.560   2.040  0.5440 -0.1199  0.1474
  169SAPE   O1218978  -0.136   4.610   2.243 -0.2676 -0.2041 -0.0652
  169SAPE   O1118979  -0.106   4.380   2.161 -0.1821  0.5930  0.2116
  169SAPE    C118980  -0.071   4.337   2.298 -0.3818  0.3235 -0.3083
  169SAPE    HA18981   0.006   4.256   2.300  0.7473  1.3056 -1.7550
  169SAPE    HB18982  -0.026   4.421   2.355  0.0099  0.1693 -0.3869
  169SAPE    C218983  -0.194   4.286   2.382 -0.2162 -0.3471 -1.0896
  169SAPE    HS18984  -0.238   4.191   2.345  0.8565 -1.8575  1.2805
  169SAPE   O2118985  -0.292   4.386   2.367 -0.1058 -0.0828  0.2630
  169SAPE   C2118986  -0.415   4.345   2.386 -1.1655 -0.7284 -0.8941
  169SAPE   O2218987  -0.447   4.227   2.411 -0.1732 -0.3007 -0.0341
  169SAPE   C2218988  -0.509   4.459   2.379 -0.8215 -0.9023  0.0519
  169SAPE   H2R18989  -0.521   4.480   2.271 -1.6132 -2.1393 -0.1239
  169SAPE   H2S18990  -0.599   4.414   2.427 -0.1214 -0.0185  2.3615
  169SAPE    C318991  -0.149   4.262   2.529  0.1546 -0.0355  0.4623
  169SAPE    HX18992  -0.135   4.361   2.579  1.4389 -0.7555  1.5864
  169SAPE    HY18993  -0.045   4.223   2.536  0.5795  0.7705 -0.8173
  169SAPE   O3118994  -0.242   4.182   2.603 -0.6801  0.2223 -0.3241
  169SAPE   C3118995  -0.215   4.051   2.601 -0.6703  0.0918 -0.1505
  169SAPE   O3218996  -0.139   3.994   2.528 -0.3182 -0.4572 -0.0857
  169SAPE   C3218997  -0.310   3.987   2.695  0.1443  0.2445 -0.2212
  169SAPE   H2X18998  -0.347   3.893   2.649 -1.4790 -0.1386  1.7099
  169SAPE   H2Y18999  -0.396   4.057   2.709  0.0718  0.0634  0.2899
  169SAPE   C2319000  -0.466   4.584   2.452  0.2012 -0.2222  0.1144
  169SAPE   H3R19001  -0.517   4.675   2.414 -1.5017  0.6891  4.0838
  169SAPE   H3S19002  -0.356   4.600   2.457  0.2099 -0.3974  0.5476
  169SAPE   C2419003  -0.519   4.577   2.604  0.2898  0.1775  0.4126
  169SAPE   H4R19004  -0.630   4.568   2.605  0.2792  0.2313 -0.2326
  169SAPE   H4S19005  -0.489   4.672   2.653  3.1711 -0.3185 -0.2218
  169SAPE   C2519006  -0.480   4.457   2.681 -0.4097  0.2529  0.6233
  169SAPE   H5R19007  -0.529   4.362   2.655 -0.2582  0.9027 -2.3916
  169SAPE   C2619008  -0.379   4.457   2.767  0.5180 -0.0320 -0.0348
  169SAPE   H6R19009  -0.344   4.355   2.792  2.1229 -0.0664 -2.1036
  169SAPE   C2719010  -0.299   4.572   2.816 -0.4596  0.1494  0.1675
  169SAPE   H7R19011  -0.291   4.650   2.737  0.7064 -1.3157 -1.2494
  169SAPE   H7S19012  -0.195   4.531   2.823 -0.4458  0.3978  1.4976
  169SAPE   C2819013  -0.342   4.639   2.944 -0.8559  0.3719 -0.8473
  169SAPE   H8R19014  -0.397   4.733   2.927 -0.2395  0.7605 -0.7147
  169SAPE   C2919015  -0.326   4.590   3.065  0.3509  0.1874 -0.6405
  169SAPE   H9R19016  -0.368   4.645   3.151  0.4275 -1.2925  0.3790
  169SAPE  C21019017  -0.265   4.458   3.113 -0.1917 -0.3948 -0.3584
  169SAPE  H10R19018  -0.233   4.467   3.219  1.8555 -0.2918 -0.9305
  169SAPE  H10S19019  -0.163   4.463   3.069 -0.7042 -0.0433 -1.5440
  169SAPE  C21119020  -0.312   4.315   3.077  0.1159  0.2014 -0.8791
  169SAPE  H11R19021  -0.264   4.261   2.994  3.0834  0.8318  0.3018
  169SAPE  C21219022  -0.403   4.245   3.149  0.2357  0.6509  0.2581
  169SAPE  H12R19023  -0.425   4.143   3.117  1.7807  0.0067  1.1313
  169SAPE  C21319024  -0.469   4.296   3.279 -0.1304  0.3748  0.7949
  169SAPE  H13R19025  -0.575   4.262   3.280  0.1960 -0.6665  1.2931
  169SAPE  H13S19026  -0.471   4.407   3.268  1.7065  0.2887 -1.0169
  169SAPE  C21419027  -0.404   4.265   3.417  0.5631 -0.7213 -0.0584
  169SAPE  H14R19028  -0.404   4.158   3.443 -0.4777 -0.9708 -1.0329
  169SAPE  C21519029  -0.367   4.352   3.511  0.4186 -0.1692 -0.1095
  169SAPE  H15R19030  -0.326   4.313   3.605 -0.0272 -0.6286 -0.1051
  169SAPE  C21619031  -0.371   4.503   3.507 -0.3146 -0.1997 -0.8628
  169SAPE  H16R19032  -0.450   4.533   3.579  0.1494 -0.2613 -0.3216
  169SAPE  H16S19033  -0.395   4.544   3.407 -1.0225  1.9971  0.1416
  169SAPE  C21719034  -0.232   4.566   3.546 -0.6998 -0.0801  0.4181
  169SAPE  H17R19035  -0.235   4.677   3.542  0.3261  0.0031  1.7083
  169SAPE  H17S19036  -0.144   4.539   3.484 -0.4820  2.8141 -0.6912
  169SAPE  C21819037  -0.189   4.530   3.694 -0.0511 -0.2228  0.3763
  169SAPE  H18R19038  -0.166   4.421   3.702 -0.8564 -0.4322 -0.0039
  169SAPE  H18S19039  -0.270   4.560   3.763  1.0956 -0.1897  1.7482
  169SAPE  C21919040  -0.055   4.596   3.740  0.1700  0.5857  0.5284
  169SAPE  H19R19041  -0.049   4.705   3.718 -0.3992  0.7195  0.9972
  169SAPE  H19S19042   0.024   4.562   3.671 -1.8102  0.3374 -1.7421
  169SAPE  C22019043  -0.036   4.566   3.896  0.2819 -0.9694 -0.6903
  169SAPE  H20R19044  -0.019   4.457   3.905 -0.2809 -0.9470  1.2452
  169SAPE  H20S19045  -0.135   4.573   3.945  0.3787  0.5785 -0.6672
  169SAPE  H20T19046   0.020   4.652   3.941 -0.4793 -1.5384  1.4678
  169SAPE   C3319047  -0.242   3.955   2.830 -0.1772  0.2876 -0.6993
  169SAPE   H3X19048  -0.192   4.037   2.885 -4.1088  1.0003  2.2084
  169SAPE   H3Y19049  -0.161   3.883   2.804  0.2527 -0.3079  2.0328
  169SAPE   C3419050  -0.328   3.873   2.946  0.1170 -0.7099 -0.0839
  169SAPE   H4X19051  -0.341   3.772   2.902  1.3846 -0.7052 -0.5050
  169SAPE   H4Y19052  -0.425   3.929   2.948 -0.0141 -0.9463  0.2251
  169SAPE   C3519053  -0.263   3.868   3.083 -0.0212  0.1580 -0.8549
  169SAPE   H5X19054  -0.227   3.970   3.109  1.1456 -0.1997 -1.0301
  169SAPE   H5Y19055  -0.177   3.798   3.092  0.2169  0.6789  1.8770
  169SAPE   C3619056  -0.372   3.824   3.190  0.2839 -0.3587  0.0318
  169SAPE   H6X19057  -0.419   3.728   3.163 -0.0640 -0.0722 -0.4008
  169SAPE   H6Y19058  -0.453   3.899   3.197  2.3571  2.0462 -0.0521
  169SAPE   C3719059  -0.308   3.838   3.332  0.5068 -0.5699  0.1145
  169SAPE   H7X19060  -0.264   3.940   3.341 -1.0926  0.1154  0.5915
  169SAPE   H7Y19061  -0.236   3.755   3.347 -0.7179 -1.5900  0.5151
  169SAPE   C3819062  -0.416   3.819   3.446 -0.1478  0.3988 -0.0379
  169SAPE   H8X19063  -0.448   3.713   3.440 -1.3520  0.7667 -0.2909
  169SAPE   H8Y19064  -0.501   3.881   3.412 -0.4004  1.0747  1.7048
  169SAPE   C3919065  -0.368   3.875   3.576 -0.7249  0.6287  0.2229
  169SAPE   H9X19066  -0.313   3.970   3.562 -0.0514 -0.2130 -4.1425
  169SAPE   H9Y19067  -0.290   3.810   3.621 -2.6169  0.0678  2.9576
  169SAPE  C31019068  -0.485   3.874   3.675 -0.1532 -0.3716 -0.3285
  169SAPE  H10X19069  -0.518   3.772   3.704 -1.2590  0.1888  0.4622
  169SAPE  H10Y19070  -0.577   3.919   3.633 -0.6242 -0.7836  0.2473
  169SAPE  C31119071  -0.443   3.952   3.803  0.3468  1.2954 -0.0931
  169SAPE  H11X19072  -0.417   4.054   3.766  0.5068  1.5640  0.7531
  169SAPE  H11Y19073  -0.353   3.908   3.851  0.9732  0.3769 -1.9751
  169SAPE  C31219074  -0.558   3.960   3.897 -0.1964 -0.4713 -0.2694
  169SAPE  H12X19075  -0.595   3.860   3.930 -0.0149 -0.5945 -0.4371
  169SAPE  H12Y19076  -0.646   4.017   3.861  0.7307  1.9745  1.1506
  169SAPE  C31319077  -0.522   4.051   4.019 -0.7922 -0.1794  0.6988
  169SAPE  H13X19078  -0.426   4.018   4.064  0.3225  1.5612 -0.2961
  169SAPE  H13Y19079  -0.605   4.040   4.092 -0.3904 -0.5929  1.0996
  169SAPE  C31419080  -0.514   4.200   3.982 -0.3253 -0.0243 -0.4379
  169SAPE  H14X19081  -0.595   4.232   3.913  0.6295  1.5816 -0.8909
  169SAPE  H14Y19082  -0.423   4.206   3.919 -0.0815 -0.4522 -0.1348
  169SAPE  C31519083  -0.496   4.304   4.098 -0.3534 -0.0610  0.1571
  169SAPE  H15X19084  -0.424   4.250   4.163  0.3492 -3.1139 -2.8021
  169SAPE  H15Y19085  -0.594   4.326   4.145 -0.0907 -0.1768  0.7613
  169SAPE  C31619086  -0.429   4.437   4.052 -0.4889 -0.2615  0.5840
  169SAPE  H16X19087  -0.322   4.417   4.031 -0.7081  0.9445 -2.0929
  169SAPE  H16Y19088  -0.445   4.520   4.124 -0.9047 -0.0657  0.2678
  169SAPE  C31719089  -0.477   4.491   3.918 -0.8454 -0.8741  0.1369
  169SAPE  H17X19090  -0.446   4.419   3.839 -0.0372 -0.2073 -0.1728
  169SAPE  H17Y19091  -0.433   4.591   3.900 -0.7755 -1.2747 -2.2783
  169SAPE  C31819092  -0.632   4.491   3.898  0.2790  0.0065 -0.3883
  169SAPE  H18X19093  -0.666   4.445   3.802  2.5564 -1.8550 -0.4016
  169SAPE  H18Y19094  -0.654   4.599   3.894  0.6624  0.0854 -0.3850
  169SAPE  H18Z19095  -0.689   4.446   3.982  0.7270 -0.3450 -0.2693
  170SAPE     N19096   0.278   3.991   1.982  0.3600  0.1224 -0.3603
  170SAPE   HN119097   0.316   3.898   1.954 -0.3498 -0.4040  0.3715
  170SAPE   HN219098   0.178   3.973   2.004 -0.0808  1.0173 -1.5149
  170SAPE   HN319099   0.293   4.056   1.902 -3.1404  0.1377 -1.1817
  170SAPE   C1219100   0.338   4.039   2.109  0.1449 -0.5992 -0.2675
  170SAPE  H12A19101   0.447   4.054   2.094  0.7457 -0.3298  3.4130
  170SAPE  H12B19102   0.321   3.963   2.188  0.3477  0.8928  1.2707
  170SAPE   C1119103   0.269   4.169   2.144  0.4847  0.6445  0.2714
  170SAPE  H11A19104   0.303   4.200   2.245 -1.3203  3.3122  0.1484
  170SAPE  H11B19105   0.164   4.135   2.156  0.6137  0.9631  2.8768
  170SAPE     P19106   0.390   4.386   2.063  0.6698 -0.1852  0.1155
  170SAPE   O1319107   0.525   4.329   2.059 -0.0035  0.3022 -0.1286
  170SAPE   O1419108   0.361   4.498   1.971 -0.1830  0.4931 -0.1001
  170SAPE   O1219109   0.281   4.272   2.044 -0.8908 -0.2178  0.5287
  170SAPE   O1119110   0.379   4.432   2.212 -0.1137  0.4020 -0.5853
  170SAPE    C119111   0.251   4.461   2.268 -0.0023 -0.4253  0.7252
  170SAPE    HA19112   0.204   4.548   2.216  0.0974 -0.0485  1.2528
  170SAPE    HB19113   0.184   4.373   2.263 -0.1531 -0.3867  1.7815
  170SAPE    C219114   0.265   4.506   2.420 -0.2373 -0.2838 -0.6041
  170SAPE    HS19115   0.291   4.417   2.481 -0.4223 -0.3112 -0.5642
  170SAPE   O2119116   0.142   4.569   2.456  0.9581  0.2725  0.0524
  170SAPE   C2119117   0.108   4.580   2.582 -0.0365 -0.4788 -0.2752
  170SAPE   O2219118   0.157   4.519   2.673 -0.0728  0.2158  0.3142
  170SAPE   C2219119  -0.001   4.682   2.598  0.0253 -0.5990 -0.3734
  170SAPE   H2R19120  -0.057   4.687   2.502  1.3762  1.3838 -1.1293
  170SAPE   H2S19121  -0.062   4.649   2.684  2.0744  1.8359  2.2123
  170SAPE    C319122   0.383   4.611   2.440  0.0054  0.1681 -0.2289
  170SAPE    HX19123   0.346   4.704   2.394 -1.0240  0.8778  1.9257
  170SAPE    HY19124   0.467   4.569   2.380 -1.1973 -1.2789 -0.9716
  170SAPE   O3119125   0.412   4.647   2.575 -0.5995  0.6133  0.1105
  170SAPE   C3119126   0.526   4.604   2.629  0.3509 -0.0339  0.1445
  170SAPE   O3219127   0.615   4.542   2.572  0.2846 -0.1411  0.2926
  170SAPE   C3219128   0.532   4.632   2.785 -0.1420  0.4114 -0.1791
  170SAPE   H2X19129   0.454   4.708   2.808 -1.5224 -0.6522 -1.2062
  170SAPE   H2Y19130   0.627   4.688   2.801  0.7489 -0.4732 -2.1247
  170SAPE   C2319131   0.062   4.822   2.628  0.0546  0.4265  0.7590
  170SAPE   H3R19132   0.096   4.869   2.534 -0.8768  0.8930  0.6414
  170SAPE   H3S19133   0.160   4.821   2.680 -0.2884  0.3249  1.4144
  170SAPE   C2419134  -0.036   4.913   2.699  1.0215 -0.8251 -0.0658
  170SAPE   H4R19135  -0.067   4.865   2.795  0.0104  1.2837  0.7317
  170SAPE   H4S19136  -0.124   4.913   2.632  2.6444  2.4985 -2.5120
  170SAPE   C2519137  -0.007   5.060   2.730 -0.6282  0.1630  0.2075
  170SAPE   H5R19138   0.001   5.119   2.638  0.1438  0.5085  0.4860
  170SAPE   C2619139   0.003   5.122   2.848 -0.5241  0.1729 -0.1054
  170SAPE   H6R19140   0.012   5.231   2.842  0.4550  0.0735 -0.6569
  170SAPE   C2719141  -0.010   5.061   2.981  0.1118 -1.3261 -0.7176
  170SAPE   H7R19142  -0.109   5.011   2.994  0.3053 -1.9952 -1.7393
  170SAPE   H7S19143  -0.006   5.129   3.069  0.0231 -2.8053  0.4774
  170SAPE   C2819144   0.109   4.975   3.006  0.3669  0.2712  0.0274
  170SAPE   H8R19145   0.203   5.012   2.962  1.3133  1.4049  2.7498
  170SAPE   C2919146   0.118   4.858   3.074 -0.5220  0.7847 -0.0667
  170SAPE   H9R19147   0.220   4.819   3.078  0.2176  2.4060 -1.8675
  170SAPE  C21019148   0.009   4.774   3.135 -0.0987 -0.2120 -0.0386
  170SAPE  H10R19149   0.000   4.690   3.062  0.1289  2.2960 -3.1571
  170SAPE  H10S19150  -0.092   4.820   3.132 -0.2383 -0.4355  1.0605
  170SAPE  C21119151   0.032   4.723   3.276 -0.0362  0.5016  0.3215
  170SAPE  H11R19152   0.054   4.615   3.280 -0.3316  0.4148 -0.2570
  170SAPE  C21219153   0.032   4.795   3.391 -0.5669 -0.2957  0.2471
  170SAPE  H12R19154   0.031   4.746   3.489  1.3365  1.3151  1.1286
  170SAPE  C21319155   0.025   4.946   3.394  0.1699  0.4779 -0.0581
  170SAPE  H13R19156  -0.038   4.972   3.306 -2.8751  0.4445  1.9345
  170SAPE  H13S19157   0.125   4.992   3.381 -0.0668  0.5330 -2.0941
  170SAPE  C21419158  -0.039   5.001   3.519  0.1576 -0.5739  0.3987
  170SAPE  H14R19159  -0.093   4.929   3.582  1.8490 -2.2506  0.0391
  170SAPE  C21519160  -0.036   5.137   3.554 -0.1661  0.4195  0.3428
  170SAPE  H15R19161  -0.086   5.170   3.646  2.9383  2.6130  1.4112
  170SAPE  C21619162   0.012   5.246   3.467  0.2603  0.3509  0.2575
  170SAPE  H16R19163   0.098   5.209   3.406 -1.6909 -1.7791 -1.3914
  170SAPE  H16S19164   0.051   5.319   3.541 -1.6529  1.2703  0.4198
  170SAPE  C21719165  -0.093   5.308   3.374 -0.2163 -0.8751 -0.2943
  170SAPE  H17R19166  -0.173   5.356   3.436  1.5879 -0.6049  1.9694
  170SAPE  H17S19167  -0.132   5.218   3.322  0.1973 -1.8187  0.9657
  170SAPE  C21819168  -0.041   5.423   3.286 -0.5628  0.0369 -0.5574
  170SAPE  H18R19169   0.061   5.403   3.246 -0.5927  1.0001 -1.1408
  170SAPE  H18S19170  -0.021   5.515   3.345 -1.3753  1.0236 -1.7655
  170SAPE  C21919171  -0.113   5.444   3.151 -0.4564  0.4696  0.4318
  170SAPE  H19R19172  -0.220   5.448   3.180 -0.2898 -0.6227  1.2476
  170SAPE  H19S19173  -0.098   5.352   3.091 -0.2922  1.6415 -1.3882
  170SAPE  C22019174  -0.064   5.560   3.057 -0.6471 -0.0636 -0.3411
  170SAPE  H20R19175   0.045   5.550   3.035 -0.7753 -1.3475 -0.4643
  170SAPE  H20S19176  -0.076   5.666   3.088  1.3214  0.2670 -0.5490
  170SAPE  H20T19177  -0.115   5.552   2.959  1.6411  2.2512 -1.8572
  170SAPE   C3319178   0.525   4.502   2.863  0.4212  0.2568  0.2134
  170SAPE   H3X19179   0.613   4.435   2.850  0.3460 -0.4051  2.5314
  170SAPE   H3Y19180   0.440   4.431   2.852  0.1888  0.7548 -1.4058
  170SAPE   C3419181   0.529   4.539   3.016 -0.0261 -0.3257  0.5662
  170SAPE   H4X19182   0.442   4.605   3.038  1.4987  2.9013 -2.2800
  170SAPE   H4Y19183   0.618   4.602   3.033  0.1881 -0.5063  0.1263
  170SAPE   C3519184   0.526   4.413   3.112  0.0337  0.2957 -0.0075
  170SAPE   H5X19185   0.595   4.332   3.083  0.5517  0.9555 -0.6499
  170SAPE   H5Y19186   0.424   4.367   3.108  0.6280 -1.1282  0.5299
  170SAPE   C3619187   0.560   4.447   3.255  0.0305  0.1792  0.2069
  170SAPE   H6X19188   0.650   4.513   3.260  1.1201 -1.2797  0.3357
  170SAPE   H6Y19189   0.575   4.354   3.314  1.5199 -0.3022 -0.8771
  170SAPE   C3719190   0.446   4.530   3.324  0.1965  0.0368  0.1081
  170SAPE   H7X19191   0.353   4.471   3.309 -0.0617  0.5895 -0.5374
  170SAPE   H7Y19192   0.439   4.622   3.262  1.3858 -1.6410 -2.6971
  170SAPE   C3819193   0.461   4.551   3.474  0.2605 -0.6586 -0.5931
  170SAPE   H8X19194   0.559   4.595   3.500 -0.5011  1.2861 -0.8550
  170SAPE   H8Y19195   0.441   4.457   3.529  0.7495 -0.4320 -0.0242
  170SAPE   C3919196   0.355   4.647   3.526  0.0521  0.8711 -0.0130
  170SAPE   H9X19197   0.259   4.663   3.472 -1.6164  0.3975  2.6113
  170SAPE   H9Y19198   0.395   4.750   3.537  1.6042  0.1139  1.9585
  170SAPE  C31019199   0.323   4.603   3.674  0.6521 -0.0088  0.3168
  170SAPE  H10X19200   0.255   4.516   3.667 -0.1361  0.6989 -1.2999
  170SAPE  H10Y19201   0.257   4.685   3.711  1.0419  1.1711 -1.4829
  170SAPE  C31119202   0.421   4.582   3.780 -0.1309  0.0899  0.5384
  170SAPE  H11X19203   0.476   4.673   3.812  0.3075 -0.8702  2.6924
  170SAPE  H11Y19204   0.490   4.497   3.762 -2.8592 -2.1376 -0.0598
  170SAPE  C31219205   0.352   4.549   3.907 -0.3013 -0.0252 -0.1932
  170SAPE  H12X19206   0.271   4.622   3.929  0.0079  0.0374  0.7644
  170SAPE  H12Y19207   0.431   4.567   3.983  0.8280 -0.3659 -1.2468
  170SAPE  C31319208   0.297   4.408   3.924  0.6109 -0.0343 -1.0069
  170SAPE  H13X19209   0.239   4.372   3.836 -0.0121  0.5041 -0.8213
  170SAPE  H13Y19210   0.226   4.407   4.009  0.0492  2.1566 -1.4071
  170SAPE  C31419211   0.399   4.298   3.956 -0.7633  0.3337 -0.4194
  170SAPE  H14X19212   0.459   4.288   3.863 -1.1323 -1.3412 -0.5116
  170SAPE  H14Y19213   0.357   4.195   3.959  1.5645 -0.6816 -0.2927
  170SAPE  C31519214   0.470   4.314   4.098 -0.3497  0.4752  0.2674
  170SAPE  H15X19215   0.396   4.343   4.176 -1.9593 -0.1622 -0.9609
  170SAPE  H15Y19216   0.548   4.391   4.082  2.0646 -1.6932  0.7746
  170SAPE  C31619217   0.557   4.186   4.136 -0.2794 -0.0750 -0.3693
  170SAPE  H16X19218   0.610   4.157   4.043  0.7900  2.6065 -0.6650
  170SAPE  H16Y19219   0.495   4.101   4.172  0.0764 -0.7445 -1.3103
  170SAPE  C31719220   0.666   4.205   4.240 -0.2146  0.0732 -0.1241
  170SAPE  H17X19221   0.737   4.285   4.213  0.6737 -0.8713 -0.6519
  170SAPE  H17Y19222   0.725   4.110   4.243  0.2707  0.3525 -0.6602
  170SAPE  C31819223   0.600   4.229   4.377  1.0824  0.0181  0.7496
  170SAPE  H18X19224   0.669   4.247   4.463  2.5312 -0.1722 -0.3345
  170SAPE  H18Y19225   0.528   4.149   4.406 -0.0322  0.7921  0.1821
  170SAPE  H18Z19226   0.541   4.321   4.359  0.0364 -0.8236 -0.3373
  171SAPE     N19227   5.635   4.514   2.073  0.4845 -0.5733  0.5581
  171SAPE   HN119228   5.656   4.587   2.144 -0.7471 -1.4011  1.8107
  171SAPE   HN219229   5.548   4.536   2.021  1.1559 -0.3153 -0.4820
  171SAPE   HN319230   5.616   4.434   2.137 -2.0297  0.3938  1.1162
  171SAPE   C1219231   5.755   4.478   1.985  0.1102  0.1410  0.0300
  171SAPE  H12A19232   5.815   4.570   1.963 -0.6071  0.4904 -0.5041
  171SAPE  H12B19233   5.714   4.439   1.889 -2.2535 -0.9725  1.3983
  171SAPE   C1119234   5.845   4.369   2.053  0.3716  0.0552 -0.2352
  171SAPE  H11A19235   5.887   4.415   2.146 -2.3884  0.0085  1.1405
  171SAPE  H11B19236   5.929   4.345   1.985 -0.3213  2.3599 -2.0576
  171SAPE     P19237   5.714   4.204   2.217  0.0004  0.0910  0.1215
  171SAPE   O1319238   5.591   4.284   2.234  0.2225  0.4743  0.2471
  171SAPE   O1419239   5.701   4.060   2.214 -1.2841  0.8238  0.2641
  171SAPE   O1219240   5.768   4.253   2.076 -0.0857  0.0878 -0.2762
  171SAPE   O1119241   5.822   4.258   2.318 -0.0278 -0.6776  0.2829
  171SAPE    C119242   5.935   4.183   2.357 -0.1067  0.1876  0.3974
  171SAPE    HA19243   5.957   4.098   2.288  0.6034  1.8434 -1.5059
  171SAPE    HB19244   6.026   4.246   2.364 -1.1380  1.5214  3.5635
  171SAPE    C219245   5.925   4.109   2.495 -0.5325  0.7295 -0.6686
  171SAPE    HS19246   5.862   4.018   2.491  1.0020 -0.4709  0.8086
  171SAPE   O2119247   5.879   4.212   2.586  0.5660  0.1862  0.3439
  171SAPE   C2119248   5.753   4.210   2.602 -0.2742  0.0375  0.1315
  171SAPE   O2219249   5.673   4.124   2.572 -0.8457  0.5461 -0.3046
  171SAPE   C2219250   5.709   4.333   2.678 -0.1002 -0.0684  0.7983
  171SAPE   H2R19251   5.696   4.415   2.603  2.4447 -0.6270 -0.3437
  171SAPE   H2S19252   5.613   4.317   2.732  1.5862  3.0375  5.3047
  171SAPE    C319253   6.060   4.057   2.537 -0.7214  0.4749  0.5380
  171SAPE    HX19254   6.135   4.139   2.538  0.4739 -0.4869  3.6585
  171SAPE    HY19255   6.092   3.993   2.452  0.5940  2.7381 -0.7559
  171SAPE   O3119256   6.055   3.997   2.677  0.0449  0.4225  0.0945
  171SAPE   C3119257   6.018   3.870   2.672  0.3697 -0.1575 -0.5238
  171SAPE   O3219258   5.962   3.808   2.580 -0.0357 -0.7386 -0.1692
  171SAPE   C3219259   6.031   3.810   2.817  0.1111 -0.0319  0.6071
  171SAPE   H2X19260   6.139   3.792   2.838 -0.0579 -2.3703 -0.2357
  171SAPE   H2Y19261   5.986   3.709   2.806  0.0251  0.0744 -0.0292
  171SAPE   C2319262   5.804   4.385   2.789  0.1125 -0.4368 -0.2034
  171SAPE   H3R19263   5.756   4.473   2.836 -1.2207 -1.9272  1.3563
  171SAPE   H3S19264   5.898   4.423   2.744 -0.9910  1.8894 -0.7016
  171SAPE   C2419265   5.833   4.286   2.898 -0.1220 -0.5526  0.0100
  171SAPE   H4R19266   5.806   4.184   2.861  0.9147 -1.9631  2.7916
  171SAPE   H4S19267   5.747   4.301   2.967  0.2040  1.1681  0.0647
  171SAPE   C2519268   5.976   4.292   2.959 -0.2595  0.1961  0.0578
  171SAPE   H5R19269   6.050   4.225   2.913  0.9415  1.9606 -0.6925
  171SAPE   C2619270   6.014   4.383   3.053  0.0399  0.4366  0.9432
  171SAPE   H6R19271   6.111   4.368   3.101 -0.3765 -0.5434  1.5200
  171SAPE   C2719272   5.921   4.481   3.127  0.0379  0.4286  0.2557
  171SAPE   H7R19273   5.939   4.453   3.233 -0.1924 -0.3867  0.0849
  171SAPE   H7S19274   5.813   4.458   3.114  0.4497 -2.5133  1.2643
  171SAPE   C2819275   5.966   4.619   3.098 -0.2958 -0.0464  0.7021
  171SAPE   H8R19276   5.987   4.634   2.991  0.9592  1.0331  1.0660
  171SAPE   C2919277   6.013   4.711   3.182  0.5900 -0.4283 -0.1407
  171SAPE   H9R19278   6.049   4.808   3.145  0.2060 -0.2014  0.0749
  171SAPE  C21019279   6.005   4.705   3.334 -0.4142 -0.2752 -0.7991
  171SAPE  H10R19280   6.108   4.697   3.375 -1.4780 -0.4180  2.0578
  171SAPE  H10S19281   5.952   4.613   3.367 -2.1085  0.4845 -1.3118
  171SAPE  C21119282   5.921   4.819   3.388 -0.3328  0.2773 -0.1260
  171SAPE  H11R19283   5.870   4.884   3.315  0.9300 -0.4393 -1.7088
  171SAPE  C21219284   5.906   4.830   3.520  0.4790 -0.2948  0.2888
  171SAPE  H12R19285   5.828   4.897   3.557  2.7799  1.3353  2.5610
  171SAPE  C21319286   5.960   4.738   3.626  0.0013  0.8489  0.2378
  171SAPE  H13R19287   6.003   4.792   3.713 -0.4980  1.0291  0.3807
  171SAPE  H13S19288   6.045   4.682   3.583  0.0214  1.7762 -0.9762
  171SAPE  C21419289   5.844   4.650   3.670 -0.3572 -0.2458  0.1054
  171SAPE  H14R19290   5.803   4.585   3.591 -0.5695 -0.4955  0.4195
  171SAPE  C21519291   5.791   4.658   3.793 -0.2817 -0.1186  0.0679
  171SAPE  H15R19292   5.700   4.598   3.805 -0.7673  1.0424  2.7612
  171SAPE  C21619293   5.826   4.750   3.906  0.3145 -0.1199 -0.4038
  171SAPE  H16R19294   5.922   4.806   3.896 -1.0760  2.1088 -2.2611
  171SAPE  H16S19295   5.857   4.690   3.995  1.3640  0.4107 -0.3882
  171SAPE  C21719296   5.711   4.841   3.931 -0.0237 -0.4981 -0.4783
  171SAPE  H17R19297   5.676   4.886   3.836 -0.7730  2.6375  1.1492
  171SAPE  H17S19298   5.751   4.927   3.989 -2.3084  2.0420 -2.3900
  171SAPE  C21819299   5.596   4.780   4.003 -0.2247 -0.4259  0.1190
  171SAPE  H18R19300   5.586   4.671   3.981  1.1028 -1.4009  3.5647
  171SAPE  H18S19301   5.505   4.826   3.960  2.2012  2.5259 -2.2842
  171SAPE  C21919302   5.608   4.798   4.157  0.1729 -0.4775  0.3642
  171SAPE  H19R19303   5.609   4.908   4.174  1.4437 -0.5379  0.8557
  171SAPE  H19S19304   5.710   4.764   4.187  0.6647  0.8592  0.3016
  171SAPE  C22019305   5.513   4.724   4.247  0.1110 -0.1544 -0.9058
  171SAPE  H20R19306   5.510   4.616   4.218  0.2321 -0.3851 -0.0702
  171SAPE  H20S19307   5.413   4.768   4.224 -1.1498 -2.5755 -0.4265
  171SAPE  H20T19308   5.532   4.724   4.356 -1.1082  0.4774 -0.6779
  171SAPE   C3319309   5.953   3.887   2.926 -0.1613  0.6798  0.1616
  171SAPE   H3X19310   5.863   3.824   2.941  1.3187 -1.3007  1.2502
  171SAPE   H3Y19311   5.931   3.991   2.896  0.8133  1.4514  1.9462
  171SAPE   C3419312   6.022   3.898   3.069 -0.4997  0.2744 -0.1409
  171SAPE   H4X19313   6.113   3.961   3.064 -0.7192  0.6078  0.0213
  171SAPE   H4Y19314   6.059   3.798   3.100  2.1232  1.4213  0.6933
  171SAPE   C3519315   5.926   3.951   3.174 -0.5956  0.2378  0.1824
  171SAPE   H5X19316   5.840   3.883   3.191  0.3329 -0.3563  3.0359
  171SAPE   H5Y19317   5.900   4.049   3.130  1.9633  1.1816  0.5868
  171SAPE   C3619318   5.987   4.001   3.309  0.7805 -0.4941  0.1073
  171SAPE   H6X19319   6.075   4.067   3.293  0.7242  0.1712  2.2296
  171SAPE   H6Y19320   6.013   3.915   3.373  2.8960  0.4639  0.6103
  171SAPE   C3719321   5.891   4.094   3.388  0.1016 -0.4152 -0.2559
  171SAPE   H7X19322   5.789   4.053   3.375 -0.7702  0.6199  2.5478
  171SAPE   H7Y19323   5.876   4.193   3.339  1.4360 -0.8258 -1.6026
  171SAPE   C3819324   5.936   4.112   3.533  0.4073 -1.4944 -0.1920
  171SAPE   H8X19325   6.034   4.166   3.536 -0.4555  0.1023  0.3167
  171SAPE   H8Y19326   5.952   4.017   3.587  0.8567 -0.1299  2.2187
  171SAPE   C3919327   5.844   4.201   3.616  0.3831 -0.3660  0.1204
  171SAPE   H9X19328   5.742   4.158   3.606 -0.8044  2.0519  1.0874
  171SAPE   H9Y19329   5.829   4.302   3.570 -1.9683 -0.5318  0.3607
  171SAPE  C31019330   5.876   4.238   3.763 -0.3209 -0.8780  0.2812
  171SAPE  H10X19331   5.833   4.338   3.784 -0.2947 -0.2957 -2.0989
  171SAPE  H10Y19332   5.986   4.252   3.760 -0.3693 -0.6164 -0.9833
  171SAPE  C31119333   5.837   4.145   3.873 -0.0676 -0.0456  1.0122
  171SAPE  H11X19334   5.892   4.050   3.862 -1.2463 -0.8813  1.9384
  171SAPE  H11Y19335   5.735   4.103   3.860  0.7620 -1.5959 -0.9020
  171SAPE  C31219336   5.854   4.205   4.015  0.6995  0.3658  0.2776
  171SAPE  H12X19337   5.954   4.253   4.030 -0.1117  1.8644  1.0672
  171SAPE  H12Y19338   5.846   4.123   4.088 -0.7789  0.4666  0.2464
  171SAPE  C31319339   5.740   4.306   4.035 -0.8871  0.8224  0.3939
  171SAPE  H13X19340   5.638   4.262   4.019 -1.0938  0.8491  1.5599
  171SAPE  H13Y19341   5.742   4.386   3.958 -1.1774  0.2913 -0.1801
  171SAPE  C31419342   5.744   4.367   4.174 -0.5736  0.0891 -0.3354
  171SAPE  H14X19343   5.719   4.279   4.238 -1.2549 -0.1322 -0.8871
  171SAPE  H14Y19344   5.670   4.447   4.196 -0.5994  0.7462 -2.6153
  171SAPE  C31519345   5.876   4.421   4.221 -0.0966  0.2178 -0.0268
  171SAPE  H15X19346   5.919   4.499   4.154  0.5771 -0.1332 -0.0117
  171SAPE  H15Y19347   5.964   4.356   4.238  1.5736  1.7820 -2.1099
  171SAPE  C31619348   5.871   4.512   4.354 -0.5395 -0.2012 -0.1948
  171SAPE  H16X19349   5.859   4.447   4.443  0.7512 -0.3801 -0.1429
  171SAPE  H16Y19350   5.786   4.582   4.340 -0.4572  0.4866  2.2556
  171SAPE  C31719351   5.988   4.610   4.373 -0.1341 -0.1858 -0.2654
  171SAPE  H17X19352   6.009   4.660   4.275  3.3538  1.2777  1.0493
  171SAPE  H17Y19353   6.088   4.565   4.392  0.2887  0.8540  0.0596
  171SAPE  C31819354   5.964   4.704   4.494  0.7788 -0.1363 -0.0098
  171SAPE  H18X19355   6.039   4.786   4.493  2.3966 -1.5424  0.9019
  171SAPE  H18Y19356   5.998   4.652   4.586  1.6799 -0.2312 -0.3810
  171SAPE  H18Z19357   5.861   4.746   4.493  1.3463  1.7272  3.1502
  172SAPE     N19358   0.919   4.965   1.989 -0.7552  0.0189 -0.3738
  172SAPE   HN119359   0.852   5.034   2.030 -0.0295  1.5397 -1.6609
  172SAPE   HN219360   1.015   4.989   2.019 -0.7081 -1.7837  1.1382
  172SAPE   HN319361   0.911   4.978   1.887  0.6885 -1.1912 -0.6629
  172SAPE   C1219362   0.889   4.818   2.020 -0.1025 -0.2917  0.7215
  172SAPE  H12A19363   0.930   4.810   2.122  0.4738  2.6771  0.8321
  172SAPE  H12B19364   0.951   4.751   1.957 -0.0281  0.7951 -0.4088
  172SAPE   C1119365   0.738   4.790   2.026 -0.6032 -0.1523 -0.0141
  172SAPE  H11A19366   0.723   4.682   2.045  0.3316 -0.0658  1.2934
  172SAPE  H11B19367   0.703   4.797   1.920 -0.4554 -4.6591 -0.5492
  172SAPE     P19368   0.696   4.870   2.275 -0.2227  0.0615  0.1524
  172SAPE   O1319369   0.571   4.888   2.346  0.8811 -0.1493 -0.2873
  172SAPE   O1419370   0.766   4.746   2.317  0.5419  0.2332  0.1931
  172SAPE   O1219371   0.668   4.871   2.119 -0.3550 -0.2943 -0.5225
  172SAPE   O1119372   0.785   5.001   2.281 -0.0268 -0.2030 -0.3521
  172SAPE    C119373   0.725   5.127   2.266 -0.4627  0.5698  0.8907
  172SAPE    HA19374   0.782   5.182   2.188 -1.3596 -0.4219 -0.5232
  172SAPE    HB19375   0.621   5.121   2.227  0.1074  1.0794 -0.7780
  172SAPE    C219376   0.711   5.205   2.399 -0.6701  0.2436  0.8157
  172SAPE    HS19377   0.816   5.226   2.431  0.4339 -2.5359 -0.6804
  172SAPE   O2119378   0.638   5.127   2.485 -0.2752  0.7220 -0.2963
  172SAPE   C2119379   0.720   5.053   2.564 -0.1916 -0.7395  0.2517
  172SAPE   O2219380   0.844   5.056   2.559  1.0799  0.9102 -0.0517
  172SAPE   C2219381   0.637   4.958   2.648  0.6371 -0.7037  0.5107
  172SAPE   H2R19382   0.546   4.935   2.588  0.0879  1.7920  0.2802
  172SAPE   H2S19383   0.694   4.865   2.669  0.7757 -0.6109  0.5487
  172SAPE    C319384   0.627   5.343   2.375 -0.9639 -0.3940  0.6924
  172SAPE    HX19385   0.524   5.325   2.339 -1.3516  0.4462  1.3563
  172SAPE    HY19386   0.673   5.393   2.287  1.1120 -3.3310 -0.0338
  172SAPE   O3119387   0.623   5.424   2.495 -0.2982  0.5459 -0.5415
  172SAPE   C3119388   0.513   5.407   2.567 -0.0187  0.6088  0.2336
  172SAPE   O3219389   0.424   5.324   2.551  0.2567 -0.0875  0.1697
  172SAPE   C3219390   0.518   5.509   2.675  0.6733  1.1412  0.0351
  172SAPE   H2X19391   0.554   5.607   2.637  0.0062  2.3277  2.2586
  172SAPE   H2Y19392   0.580   5.469   2.758 -3.4217 -1.5794  2.1411
  172SAPE   C2319393   0.601   5.026   2.784 -0.5709 -0.4223  0.0704
  172SAPE   H3R19394   0.527   4.956   2.828 -1.8625  0.6985 -0.2718
  172SAPE   H3S19395   0.547   5.122   2.774 -1.5137 -1.0818 -1.5316
  172SAPE   C2419396   0.715   5.063   2.886 -0.5981 -0.4832  0.9512
  172SAPE   H4R19397   0.667   5.105   2.977  0.4654  0.7190  0.9803
  172SAPE   H4S19398   0.783   5.138   2.840 -0.5597 -1.1118 -0.0366
  172SAPE   C2519399   0.800   4.942   2.925  0.8044 -0.7634 -0.4255
  172SAPE   H5R19400   0.874   4.914   2.848  0.2340  0.9478 -1.6645
  172SAPE   C2619401   0.793   4.875   3.046  0.3172  0.1351  0.7353
  172SAPE   H6R19402   0.847   4.780   3.062 -3.0390 -2.3272 -1.1832
  172SAPE   C2719403   0.696   4.904   3.154  0.3167 -0.3401 -0.0593
  172SAPE   H7R19404   0.657   4.805   3.185 -0.7059 -0.6105 -2.0867
  172SAPE   H7S19405   0.607   4.968   3.134 -0.1370 -0.7255  0.6774
  172SAPE   C2819406   0.778   4.982   3.257 -0.1768 -0.1294  0.6980
  172SAPE   H8R19407   0.824   5.076   3.223 -0.4977 -0.1492  0.1935
  172SAPE   C2919408   0.798   4.939   3.386 -0.0142 -0.5807  0.0163
  172SAPE   H9R19409   0.855   5.004   3.454  1.1394 -1.7429  0.1948
  172SAPE  C21019410   0.736   4.822   3.454  0.1473 -0.2930  0.3380
  172SAPE  H10R19411   0.682   4.748   3.390  1.5469 -1.3037  0.2798
  172SAPE  H10S19412   0.665   4.870   3.525 -1.2846 -1.6998 -0.0924
  172SAPE  C21119413   0.851   4.757   3.526 -0.1004 -0.1185  0.1897
  172SAPE  H11R19414   0.916   4.709   3.452  1.6693  3.1308 -0.5486
  172SAPE  C21219415   0.876   4.756   3.660 -0.1573 -0.5694 -0.0814
  172SAPE  H12R19416   0.969   4.719   3.705 -0.4470 -0.9278  0.2315
  172SAPE  C21319417   0.790   4.835   3.761  0.2445  0.2018 -0.4220
  172SAPE  H13R19418   0.693   4.780   3.770 -0.6563  2.0862  3.3658
  172SAPE  H13S19419   0.756   4.932   3.720  2.4333  0.3626 -1.9925
  172SAPE  C21419420   0.854   4.870   3.899 -0.3614  0.6649  0.1795
  172SAPE  H14R19421   0.941   4.938   3.898 -0.0921  0.3354  0.7945
  172SAPE  C21519422   0.814   4.806   4.008 -0.2879 -0.4305  0.4362
  172SAPE  H15R19423   0.872   4.839   4.095 -1.9446  3.2751  0.3305
  172SAPE  C21619424   0.702   4.710   4.034 -0.2710  0.4468 -1.3820
  172SAPE  H16R19425   0.738   4.611   4.071 -1.1668 -0.2806 -2.3949
  172SAPE  H16S19426   0.652   4.676   3.941 -0.0335 -0.5808 -1.1508
  172SAPE  C21719427   0.590   4.770   4.120 -0.8329 -0.5216  0.4564
  172SAPE  H17R19428   0.493   4.729   4.083 -0.6557  1.1441 -2.1245
  172SAPE  H17S19429   0.582   4.878   4.094 -0.3320 -0.4455  0.6107
  172SAPE  C21819430   0.606   4.745   4.272  0.4006  0.2090 -0.6486
  172SAPE  H18R19431   0.708   4.782   4.295  0.5345  0.7707 -2.0501
  172SAPE  H18S19432   0.591   4.640   4.307  0.4833  1.2589  2.8642
  172SAPE  C21919433   0.504   4.819   4.357 -0.2847  0.0558 -0.7387
  172SAPE  H19R19434   0.399   4.795   4.331  0.1077 -1.7233 -0.8302
  172SAPE  H19S19435   0.512   4.929   4.354  0.5865  0.1962  2.3662
  172SAPE  C22019436   0.512   4.786   4.504  0.2281  0.0031 -0.7841
  172SAPE  H20R19437   0.610   4.819   4.544  1.5919 -2.6682 -1.7352
  172SAPE  H20S19438   0.503   4.676   4.517 -0.1009 -0.1652 -2.3028
  172SAPE  H20T19439   0.433   4.843   4.558 -0.4357 -0.3775 -1.3454
  172SAPE   C3319440   0.374   5.532   2.742  0.0152 -0.1419  0.2588
  172SAPE   H3X19441   0.296   5.559   2.668 -1.2746  1.9771  2.2443
  172SAPE   H3Y19442   0.387   5.622   2.806 -0.1298  0.3204 -0.3562
  172SAPE   C3419443   0.328   5.411   2.832  0.0279 -0.1698  0.4848
  172SAPE   H4X19444   0.320   5.311   2.784 -3.2675  0.0698  0.2663
  172SAPE   H4Y19445   0.223   5.437   2.859  0.2875  1.8823 -0.2853
  172SAPE   C3519446   0.411   5.393   2.962 -0.6448  0.3802 -0.1396
  172SAPE   H5X19447   0.407   5.494   3.009  0.5406  0.8000 -0.9063
  172SAPE   H5Y19448   0.517   5.360   2.958 -0.3250  1.4895 -1.5131
  172SAPE   C3619449   0.353   5.295   3.063  0.6991  0.3255  0.0391
  172SAPE   H6X19450   0.367   5.192   3.022 -0.4165  0.0499  0.3108
  172SAPE   H6Y19451   0.243   5.312   3.064  0.6605  0.0930 -0.0107
  172SAPE   C3719452   0.433   5.295   3.195  0.2286  0.1719 -0.3164
  172SAPE   H7X19453   0.429   5.392   3.249 -0.5979 -0.8608  1.5788
  172SAPE   H7Y19454   0.539   5.272   3.169 -0.4446 -0.3523 -2.9900
  172SAPE   C3819455   0.388   5.190   3.294  0.4407  0.3000 -0.1107
  172SAPE   H8X19456   0.404   5.091   3.247  1.2004 -0.0555  0.8686
  172SAPE   H8Y19457   0.277   5.195   3.305  0.5202 -1.0509  1.6428
  172SAPE   C3919458   0.478   5.195   3.416  0.6648 -0.1138 -0.0548
  172SAPE   H9X19459   0.460   5.296   3.459 -2.6365 -0.4422 -0.4317
  172SAPE   H9Y19460   0.588   5.199   3.404  0.9761  3.5036  2.4257
  172SAPE  C31019461   0.434   5.084   3.519  0.3512  0.3981 -0.2468
  172SAPE  H10X19462   0.466   4.983   3.485  1.3720  0.0984  1.4565
  172SAPE  H10Y19463   0.323   5.088   3.517  0.3051 -0.1397  0.6455
  172SAPE  C31119464   0.476   5.114   3.667 -0.0326 -0.5713  0.4415
  172SAPE  H11X19465   0.446   5.214   3.706  0.3291 -0.1114 -0.4292
  172SAPE  H11Y19466   0.587   5.114   3.671  0.1019 -0.9861 -2.0079
  172SAPE  C31219467   0.431   5.007   3.764  0.3280  0.6623 -1.1732
  172SAPE  H12X19468   0.479   5.010   3.864  0.9876 -1.6653 -1.3631
  172SAPE  H12Y19469   0.461   4.908   3.724 -2.9334 -1.9453  2.0926
  172SAPE  C31319470   0.281   4.990   3.786  0.1624  0.5101  0.4087
  172SAPE  H13X19471   0.261   4.897   3.843  1.9740 -0.0759  0.1585
  172SAPE  H13Y19472   0.234   4.984   3.686 -0.9574  2.7238  0.7256
  172SAPE  C31419473   0.220   5.116   3.847  0.2783 -0.0754  0.0696
  172SAPE  H14X19474   0.111   5.096   3.854  0.3915 -0.7951 -0.1532
  172SAPE  H14Y19475   0.229   5.205   3.782  0.8059  0.0979  0.3691
  172SAPE  C31519476   0.273   5.147   3.989  0.6061  0.1708 -0.9942
  172SAPE  H15X19477   0.370   5.202   3.984  1.6779 -1.6582 -1.0222
  172SAPE  H15Y19478   0.288   5.051   4.042 -1.7967  0.8153  1.0338
  172SAPE  C31619479   0.175   5.241   4.078  0.0029 -0.3178  0.7560
  172SAPE  H16X19480   0.069   5.210   4.069 -0.0254  0.0420 -0.3312
  172SAPE  H16Y19481   0.176   5.342   4.029  2.6517  0.4077  2.1243
  172SAPE  C31719482   0.235   5.264   4.222  0.7825  0.5480 -0.3519
  172SAPE  H17X19483   0.237   5.166   4.274 -0.0680  1.3731  1.3188
  172SAPE  H17Y19484   0.157   5.327   4.272 -0.4506  0.4772 -2.0965
  172SAPE  C31819485   0.366   5.335   4.239  0.1016  1.0373  0.6491
  172SAPE  H18X19486   0.407   5.336   4.342  0.8824  0.1886  0.3683
  172SAPE  H18Y19487   0.362   5.445   4.224  2.5900  1.4153  2.2278
  172SAPE  H18Z19488   0.441   5.283   4.175  0.4830  1.3643  0.8271
  173SLPC     N19489   6.382   1.385   7.325  0.5945  0.1831  0.2493
  173SLPC   C1319490   6.430   1.347   7.461  0.2764  0.6861 -0.8697
  173SLPC  H13A19491   6.423   1.418   7.542 -3.0604 -1.7035  1.1862
  173SLPC  H13B19492   6.370   1.268   7.505 -1.3254  0.4561 -3.2406
  173SLPC  H13C19493   6.532   1.314   7.452  0.0837  0.0312 -0.7574
  173SLPC   C1419494   6.455   1.511   7.288 -0.4528 -0.5541 -0.6358
  173SLPC  H14A19495   6.391   1.593   7.261  0.4049  1.1038  2.0570
  173SLPC  H14B19496   6.528   1.530   7.365  0.8940  1.5422 -2.3171
  173SLPC  H14C19497   6.520   1.486   7.205  1.8811  0.3600  0.8082
  173SLPC   C1519498   6.241   1.432   7.333 -0.3428  0.0764  0.2226
  173SLPC  H15A19499   6.217   1.461   7.232  0.6423 -1.1522 -0.3908
  173SLPC  H15B19500   6.175   1.352   7.362  2.0672 -1.3828  2.0730
  173SLPC  H15C19501   6.233   1.518   7.398 -1.3739  0.0181  0.1842
  173SLPC   C1219502   6.404   1.262   7.232 -0.2685 -0.3600 -0.6913
  173SLPC  H12A19503   6.378   1.176   7.292  0.6736  2.1090  3.6261
  173SLPC  H12B19504   6.511   1.256   7.222  0.0207  4.2041 -2.4806
  173SLPC   C1119505   6.330   1.261   7.094  0.4479  0.5477 -0.1533
  173SLPC  H11A19506   6.395   1.198   7.031  0.6566  1.8036 -1.2258
  173SLPC  H11B19507   6.330   1.366   7.059  0.3110  0.7476  0.4288
  173SLPC     P19508   6.159   1.063   7.077 -0.0456  0.3182  0.2263
  173SLPC   O1319509   6.257   0.977   7.152  0.0141 -0.0698 -0.0637
  173SLPC   O1419510   6.016   1.045   7.104  0.0759 -0.1359 -0.2020
  173SLPC   O1219511   6.194   1.211   7.117  0.0837 -0.2833 -0.1019
  173SLPC   O1119512   6.190   1.061   6.920  0.2146 -0.2002 -0.3629
  173SLPC    C119513   6.145   1.175   6.840 -0.0626 -0.0361 -0.6995
  173SLPC    HA19514   6.037   1.195   6.861  0.5383  2.3884  0.4402
  173SLPC    HB19515   6.195   1.269   6.871 -1.0402 -0.2609  1.8530
  173SLPC    C219516   6.178   1.163   6.695  0.0702  0.5785  0.2346
  173SLPC    HS19517   6.170   1.260   6.642  3.4773  0.4673 -0.7055
  173SLPC   O2119518   6.090   1.069   6.626  0.0844 -0.3607  0.2925
  173SLPC   C2119519   5.974   1.112   6.596  0.3231  0.1191 -0.5054
  173SLPC   O2219520   5.923   1.217   6.635  0.4464 -0.6222 -0.3676
  173SLPC   C2219521   5.917   1.013   6.508  0.0234 -0.1076 -0.6609
  173SLPC   H2R19522   5.993   0.937   6.481  1.0216  0.0475  1.5267
  173SLPC   H2S19523   5.827   0.967   6.555 -0.3963  1.9292  0.6658
  173SLPC    C319524   6.328   1.124   6.677  0.0079  0.2366 -0.0479
  173SLPC    HX19525   6.353   1.027   6.723 -1.5303  0.9775  2.5622
  173SLPC    HY19526   6.383   1.198   6.739 -1.2494 -0.2129  1.6486
  173SLPC   O3119527   6.369   1.137   6.543  0.7525 -0.4166  0.3124
  173SLPC   C3119528   6.354   1.030   6.457  0.0051  0.0978 -0.0144
  173SLPC   O3219529   6.336   0.913   6.493  0.2079  0.3220  0.6982
  173SLPC   C3219530   6.381   1.080   6.316  0.6166 -0.0889 -0.1689
  173SLPC   H2X19531   6.438   1.175   6.314 -1.1305  0.9980 -1.4975
  173SLPC   H2Y19532   6.282   1.118   6.283  0.8826  1.4857  0.7134
  173SLPC   C2319533   5.876   1.071   6.369 -0.0259 -0.2402  0.4270
  173SLPC   H3R19534   5.846   1.178   6.376  0.9739  0.4126 -3.2518
  173SLPC   H3S19535   5.793   1.012   6.326  0.3958 -0.4343 -0.1261
  173SLPC   C2419536   5.986   1.070   6.262 -0.6554  0.5564 -0.2345
  173SLPC   H4R19537   6.013   0.964   6.247  0.8460  1.0482 -1.1624
  173SLPC   H4S19538   6.075   1.129   6.290 -0.4572  0.7637 -1.2509
  173SLPC   C2519539   5.939   1.122   6.120  0.1291  0.3428  0.9934
  173SLPC   H5R19540   5.923   1.232   6.120  2.4815  0.7477  0.1173
  173SLPC   H5S19541   5.854   1.059   6.087  2.0460 -1.3434 -1.0430
  173SLPC   C2619542   6.037   1.099   6.009 -0.7934 -0.4842 -0.2847
  173SLPC   H6R19543   6.130   1.139   6.055 -0.2242 -0.3203 -1.5223
  173SLPC   H6S19544   6.011   1.166   5.924 -1.9960 -0.9719 -0.3209
  173SLPC   C2719545   6.054   0.945   5.977 -0.0430 -0.2688 -0.2719
  173SLPC   H7R19546   5.954   0.897   5.986  0.2325 -0.7160  0.4525
  173SLPC   H7S19547   6.097   0.899   6.068 -1.6774  0.2324  0.7946
  173SLPC   C2819548   6.134   0.922   5.850 -0.3128  0.3416 -0.8768
  173SLPC   H8R19549   6.165   0.815   5.848  1.2146  0.7083  0.4516
  173SLPC   H8S19550   6.227   0.983   5.848  0.2890 -0.5698 -1.2126
  173SLPC   C2919551   6.049   0.966   5.732 -0.8416  0.5534 -0.5176
  173SLPC   H9R19552   5.942   0.974   5.756 -0.2134  0.9097  2.7081
  173SLPC  C21019553   6.092   0.990   5.608 -0.5039  0.9370 -0.4435
  173SLPC  H10R19554   6.015   1.012   5.532 -0.8795  0.7965 -0.1076
  173SLPC  C21119555   6.232   0.969   5.554 -0.1008 -0.2650  0.1467
  173SLPC  H11R19556   6.264   0.864   5.571 -2.6232 -0.8200  1.8672
  173SLPC  H11S19557   6.290   1.040   5.618  0.3086  0.6036 -1.1419
  173SLPC  C21219558   6.238   1.024   5.414  0.0417 -0.4279  0.0252
  173SLPC  H12R19559   6.161   1.100   5.391 -0.9575 -0.8583  1.7872
  173SLPC  C21319560   6.326   1.003   5.320  1.1760  0.9657  0.1255
  173SLPC  H13R19561   6.321   1.061   5.227 -2.1063  3.1080  1.4490
  173SLPC  C21419562   6.436   0.903   5.334 -0.0410 -0.1099  0.0961
  173SLPC  H14R19563   6.427   0.818   5.263  0.2309 -0.4599  0.4753
  173SLPC  H14S19564   6.440   0.852   5.433 -2.3155  1.0062  0.8332
  173SLPC  C21519565   6.570   0.977   5.293 -0.2104  0.5413 -0.5424
  173SLPC  H15R19566   6.655   0.913   5.326 -0.7985  0.5265  1.0407
  173SLPC  H15S19567   6.585   1.070   5.353  0.9545  1.3140 -1.9656
  173SLPC  C21619568   6.584   0.997   5.145 -0.0205 -0.4283 -0.4818
  173SLPC  H16R19569   6.663   1.073   5.129 -0.2474  0.0643  0.5911
  173SLPC  H16S19570   6.496   1.043   5.094  0.4195  0.2621 -0.6252
  173SLPC  C21719571   6.633   0.870   5.064  0.3844 -0.0806  1.1423
  173SLPC  H17R19572   6.550   0.798   5.047 -0.0529  0.6270  0.2022
  173SLPC  H17S19573   6.710   0.821   5.127  1.5603 -1.4280 -1.2139
  173SLPC  C21819574   6.692   0.900   4.923 -0.0337  0.3993  0.1319
  173SLPC  H18R19575   6.621   0.956   4.858 -0.4054 -2.5955 -2.2819
  173SLPC  H18S19576   6.724   0.808   4.870  2.2898  0.4651  1.2669
  173SLPC  H18T19577   6.787   0.956   4.935  0.3313 -0.3464  0.8151
  173SLPC   C3319578   6.427   0.969   6.222 -0.1822  0.0101 -0.5011
  173SLPC   H3X19579   6.363   0.880   6.240 -0.6611  0.7979  2.0906
  173SLPC   H3Y19580   6.521   0.928   6.264  0.1823  0.5920 -0.7320
  173SLPC   C3419581   6.451   1.022   6.086  0.4435  0.2239 -0.3685
  173SLPC   H4X19582   6.525   1.105   6.095 -1.5369  2.0349  0.0246
  173SLPC   H4Y19583   6.366   1.079   6.043  1.1514  1.4288 -0.2024
  173SLPC   C3519584   6.491   0.914   5.997  0.1337 -0.3786 -0.3566
  173SLPC   H5X19585   6.412   0.836   6.007  2.5614 -2.8034  1.4580
  173SLPC   H5Y19586   6.585   0.862   6.026 -0.9959 -1.1204  2.2189
  173SLPC   C3619587   6.511   0.944   5.850  0.2080  0.7071  0.6843
  173SLPC   H6X19588   6.419   0.983   5.802  0.1584  2.3634  2.0400
  173SLPC   H6Y19589   6.547   0.857   5.792  1.3556  0.4314  1.7564
  173SLPC   C3719590   6.614   1.054   5.825  0.6569 -0.7714 -0.0902
  173SLPC   H7X19591   6.707   1.040   5.883 -0.1887 -1.0263  1.2574
  173SLPC   H7Y19592   6.561   1.137   5.875 -0.5830 -2.4370  1.5135
  173SLPC   C3819593   6.639   1.075   5.674  0.2514  0.4151 -0.5012
  173SLPC   H8X19594   6.544   1.107   5.627 -0.6216 -1.5160 -0.1604
  173SLPC   H8Y19595   6.671   0.976   5.636  0.1213  1.2476 -2.9525
  173SLPC   C3919596   6.748   1.186   5.645 -0.2628 -0.3282 -0.8076
  173SLPC   H9X19597   6.835   1.167   5.710 -0.3140  3.5615  0.6244
  173SLPC   H9Y19598   6.703   1.283   5.674  0.2446 -0.4455  0.4138
  173SLPC  C31019599   6.778   1.207   5.497 -0.4497  0.1474 -0.6239
  173SLPC  H10X19600   6.686   1.217   5.435 -1.1618 -0.9696  0.2094
  173SLPC  H10Y19601   6.819   1.106   5.472 -0.5194 -0.4960  1.6815
  173SLPC  C31119602   6.886   1.315   5.471  0.4024 -0.1179  0.0059
  173SLPC  H11X19603   6.963   1.318   5.551  1.4810  0.3376 -1.0111
  173SLPC  H11Y19604   6.832   1.412   5.480  0.8282  0.1096  0.1378
  173SLPC  C31219605   6.950   1.316   5.333 -0.6015 -0.1382 -0.0403
  173SLPC  H12X19606   7.028   1.236   5.328 -0.4140  0.1317 -1.5996
  173SLPC  H12Y19607   7.007   1.410   5.319 -1.7443  0.6528  0.4778
  173SLPC  C31319608   6.854   1.316   5.205  0.0765  0.3054  1.3875
  173SLPC  H13X19609   6.783   1.398   5.230 -0.8816 -0.4212  1.1099
  173SLPC  H13Y19610   6.806   1.216   5.200  0.8254 -0.0073 -0.4123
  173SLPC  C31419611   6.931   1.341   5.073  0.0693  0.0202  0.3395
  173SLPC  H14X19612   7.029   1.289   5.083 -0.8309 -1.7155  0.4396
  173SLPC  H14Y19613   6.953   1.450   5.062  0.9348 -0.0453  1.2863
  173SLPC  C31519614   6.880   1.272   4.944 -0.3432 -0.4759 -0.3792
  173SLPC  H15X19615   6.825   1.176   4.960 -0.6646 -0.1775  0.3812
  173SLPC  H15Y19616   6.965   1.239   4.880 -1.1472 -2.1991 -0.6169
  173SLPC  C31619617   6.795   1.356   4.856  0.7111  0.3006 -0.0473
  173SLPC  H16X19618   6.833   1.459   4.843 -0.0958  0.5248 -0.7519
  173SLPC  H16Y19619   6.689   1.359   4.890  1.0029  0.5006  0.8705
  173SLPC  C31719620   6.787   1.300   4.714  0.5804 -0.0907  0.1248
  173SLPC  H17X19621   6.739   1.200   4.723  1.1983 -0.4870 -0.8623
  173SLPC  H17Y19622   6.890   1.274   4.682  1.4986  0.0167  2.7679
  173SLPC  C31819623   6.701   1.396   4.628 -0.1394 -0.4771 -0.7141
  173SLPC  H18X19624   6.697   1.352   4.526 -1.5625 -1.1957 -0.3765
  173SLPC  H18Y19625   6.747   1.497   4.634 -0.5336 -0.3658  0.8849
  173SLPC  H18Z19626   6.598   1.404   4.670  0.3844  2.2451  0.2105
  174SLPC     N19627   3.190   1.464   7.029 -0.7555  0.1468  0.0047
  174SLPC   C1319628   3.169   1.599   7.080 -1.4366 -0.3577  0.0277
  174SLPC  H13A19629   3.254   1.632   7.138 -0.6042 -0.4924 -1.0747
  174SLPC  H13B19630   3.152   1.675   7.005  2.2444  0.5784 -0.0505
  174SLPC  H13C19631   3.084   1.589   7.145 -2.2856  0.6307 -0.8959
  174SLPC   C1419632   3.073   1.427   6.940 -0.4397 -0.4176 -0.7065
  174SLPC  H14A19633   3.072   1.320   6.925  1.5936 -0.7763  1.1397
  174SLPC  H14B19634   2.982   1.442   6.996 -1.0024  1.1810 -1.9572
  174SLPC  H14C19635   3.067   1.480   6.846 -0.9655 -0.0304 -0.4601
  174SLPC   C1519636   3.183   1.368   7.145  0.7648  0.1676  0.1596
  174SLPC  H15A19637   3.092   1.386   7.201  0.9498  2.9796 -0.3237
  174SLPC  H15B19638   3.165   1.267   7.110  0.6944  0.6179 -1.1568
  174SLPC  H15C19639   3.260   1.377   7.220 -1.2648 -1.5988  2.6303
  174SLPC   C1219640   3.322   1.442   6.956  1.1905  0.4037  0.6452
  174SLPC  H12A19641   3.394   1.479   7.026  2.2092 -0.0688 -0.1254
  174SLPC  H12B19642   3.324   1.498   6.864 -1.5532 -0.5305 -0.0805
  174SLPC   C1119643   3.353   1.292   6.913  0.1097 -0.1337 -0.6936
  174SLPC  H11A19644   3.336   1.240   7.010  1.7728  0.7788  0.1494
  174SLPC  H11B19645   3.458   1.281   6.879 -0.1505  0.1049 -1.5884
  174SLPC     P19646   3.262   1.089   6.769 -0.2664  0.1018 -0.0796
  174SLPC   O1319647   3.393   1.031   6.768  0.0658  0.2753  0.5327
  174SLPC   O1419648   3.163   1.020   6.852  0.0476 -0.1365  0.5335
  174SLPC   O1219649   3.262   1.243   6.810  0.2847 -0.6458  0.6636
  174SLPC   O1119650   3.211   1.081   6.623 -0.2038  0.2403  0.3234
  174SLPC    C119651   3.105   1.174   6.585  0.8307  0.2489 -0.1917
  174SLPC    HA19652   3.043   1.202   6.673  0.5559 -1.0082  0.0394
  174SLPC    HB19653   3.148   1.271   6.555  1.6345  0.7384  2.2996
  174SLPC    C219654   3.006   1.110   6.482  0.9039  0.3234 -0.7252
  174SLPC    HS19655   2.966   1.016   6.527  2.0439  0.6726  1.1187
  174SLPC   O2119656   3.087   1.091   6.368 -0.5378 -0.2668 -0.0312
  174SLPC   C2119657   3.039   1.006   6.279  0.6785  0.1383 -0.6900
  174SLPC   O2219658   2.943   0.932   6.297  0.5802  0.2288  0.3726
  174SLPC   C2219659   3.140   1.002   6.170  0.6264  0.4024 -0.5715
  174SLPC   H2R19660   3.228   1.067   6.190  0.4295 -0.2457  2.9618
  174SLPC   H2S19661   3.184   0.901   6.178  0.2992  0.2453 -0.7495
  174SLPC    C319662   2.889   1.210   6.451  0.2733 -0.6406 -0.9513
  174SLPC    HX19663   2.836   1.243   6.542  0.9533 -0.5438 -0.5792
  174SLPC    HY19664   2.815   1.148   6.396 -1.6938  1.2173 -0.5088
  174SLPC   O3119665   2.925   1.314   6.364 -0.4187 -0.5677  0.6388
  174SLPC   C3119666   2.943   1.444   6.418  0.0230  0.6100 -0.2661
  174SLPC   O3219667   2.950   1.470   6.537 -0.1150  0.1023  0.3036
  174SLPC   C3219668   2.957   1.551   6.307  0.8652 -0.0152  0.5303
  174SLPC   H2X19669   2.852   1.577   6.281  1.6055  3.3414  0.4460
  174SLPC   H2Y19670   2.993   1.498   6.216 -1.4774  1.0803 -1.1658
  174SLPC   C2319671   3.072   1.022   6.030 -0.2860  0.0042 -0.1604
  174SLPC   H3R19672   2.972   0.972   6.032 -0.5515  0.4141  3.0115
  174SLPC   H3S19673   3.135   0.962   5.961 -0.8719 -4.9089  2.9909
  174SLPC   C2419674   3.033   1.166   5.987 -0.0482 -0.3644 -0.0117
  174SLPC   H4R19675   3.127   1.225   5.978  0.5837 -1.6136 -2.3038
  174SLPC   H4S19676   2.973   1.211   6.069  1.4139 -0.2363  1.0211
  174SLPC   C2519677   2.966   1.161   5.849  0.2820  0.1290  0.6509
  174SLPC   H5R19678   2.857   1.142   5.861  0.5692 -1.6226  0.7483
  174SLPC   H5S19679   2.999   1.063   5.808  1.1337  0.1544  1.2600
  174SLPC   C2619680   3.001   1.283   5.758  0.5850 -0.2337 -0.2558
  174SLPC   H6R19681   2.984   1.246   5.655  2.7240 -1.6054 -0.1731
  174SLPC   H6S19682   3.108   1.307   5.770  0.7737 -1.7098  1.6867
  174SLPC   C2719683   2.912   1.409   5.799 -0.2061 -0.4382 -0.0358
  174SLPC   H7R19684   2.944   1.434   5.902 -0.1211  2.5458 -0.6988
  174SLPC   H7S19685   2.804   1.386   5.805  0.2171 -2.4278  0.9082
  174SLPC   C2819686   2.921   1.526   5.703  0.5280  0.1844 -0.0360
  174SLPC   H8R19687   3.027   1.530   5.669  0.3748 -3.6463 -1.4719
  174SLPC   H8S19688   2.906   1.614   5.769  0.6493 -0.2078  0.5243
  174SLPC   C2919689   2.824   1.528   5.584 -0.2461  0.6793  0.1595
  174SLPC   H9R19690   2.720   1.549   5.613 -0.7177 -0.8993 -0.2793
  174SLPC  C21019691   2.857   1.491   5.455 -0.2124  0.0147 -0.0128
  174SLPC  H10R19692   2.776   1.488   5.381 -0.8060  0.1223  0.6208
  174SLPC  C21119693   2.996   1.451   5.401  0.0317 -0.4424  0.7420
  174SLPC  H11R19694   3.071   1.425   5.479  1.7616 -1.0452 -1.0500
  174SLPC  H11S19695   3.046   1.541   5.359  3.5666 -0.7054  3.8237
  174SLPC  C21219696   2.993   1.333   5.313 -0.0976 -0.3251  0.0150
  174SLPC  H12R19697   2.973   1.242   5.373  3.3497 -0.2384  1.4880
  174SLPC  C21319698   3.006   1.322   5.183  0.1830 -0.3058  0.6943
  174SLPC  H13R19699   2.999   1.221   5.141 -0.8869 -0.0820  0.2994
  174SLPC  C21419700   3.031   1.439   5.090  0.2919 -0.0408 -0.5893
  174SLPC  H14R19701   3.131   1.442   5.043 -0.0231 -0.2954 -1.2840
  174SLPC  H14S19702   3.032   1.534   5.146  2.1218 -1.7740  2.6000
  174SLPC  C21519703   2.932   1.445   4.971 -0.1904  0.1977  0.4457
  174SLPC  H15R19704   2.827   1.469   4.998  0.2292  1.1195  1.3171
  174SLPC  H15S19705   2.935   1.345   4.922  0.4954  0.8318 -0.8554
  174SLPC  C21619706   2.968   1.556   4.873  0.2384  0.1354  0.2819
  174SLPC  H16R19707   3.059   1.535   4.813  2.1507  1.4281  2.6015
  174SLPC  H16S19708   3.001   1.643   4.933  1.2092 -0.8899  1.2840
  174SLPC  C21719709   2.850   1.614   4.784  0.0479  0.4870  0.4293
  174SLPC  H17R19710   2.887   1.704   4.730  1.5070  0.8294  1.9351
  174SLPC  H17S19711   2.757   1.632   4.842  0.2446  0.1098  0.8734
  174SLPC  C21819712   2.820   1.521   4.667 -0.7097 -0.0517 -0.9822
  174SLPC  H18R19713   2.727   1.549   4.613 -0.3470  0.7042 -1.2298
  174SLPC  H18S19714   2.815   1.415   4.700  0.3531  0.2406  0.1854
  174SLPC  H18T19715   2.908   1.529   4.599 -0.7624 -0.3556 -1.0854
  174SLPC   C3319716   3.047   1.677   6.335  0.1656 -0.4720 -0.5126
  174SLPC   H3X19717   3.142   1.642   6.382 -0.3048  0.5033  1.2204
  174SLPC   H3Y19718   2.992   1.749   6.398 -2.7887 -3.0896  0.1801
  174SLPC   C3419719   3.082   1.748   6.204  0.2065 -0.6008 -0.3364
  174SLPC   H4X19720   3.118   1.675   6.128 -0.0117 -1.0483 -0.0100
  174SLPC   H4Y19721   3.159   1.827   6.217 -2.0356  1.3987  1.6745
  174SLPC   C3519722   2.955   1.822   6.143  0.2086 -1.0955 -0.1522
  174SLPC   H5X19723   2.936   1.920   6.194  1.4496 -0.0521 -1.5904
  174SLPC   H5Y19724   2.862   1.762   6.146 -1.3900  1.2299 -0.3225
  174SLPC   C3619725   2.982   1.859   5.995  0.5327 -0.3482  0.1866
  174SLPC   H6X19726   2.891   1.913   5.961  1.1637  0.1028 -0.8269
  174SLPC   H6Y19727   2.992   1.761   5.944 -2.0979 -0.7475  0.2934
  174SLPC   C3719728   3.105   1.941   5.963  0.0574  0.7998  0.0411
  174SLPC   H7X19729   3.194   1.893   6.011 -2.1232 -2.3332  1.2902
  174SLPC   H7Y19730   3.092   2.042   6.006 -1.0950  1.2746 -1.3351
  174SLPC   C3819731   3.132   1.951   5.820 -0.2061 -0.6681  0.1443
  174SLPC   H8X19732   3.159   2.055   5.793 -2.1388 -0.4654 -1.2470
  174SLPC   H8Y19733   3.034   1.930   5.772  0.2345 -1.6607 -0.3420
  174SLPC   C3919734   3.236   1.859   5.765 -0.7125  0.7049  0.0261
  174SLPC   H9X19735   3.258   1.770   5.828  3.2059  0.6419 -1.1794
  174SLPC   H9Y19736   3.334   1.907   5.781 -0.6032  0.2420  0.8448
  174SLPC  C31019737   3.192   1.787   5.638 -0.0105 -0.3176  0.6610
  174SLPC  H10X19738   3.165   1.857   5.555  0.1822  2.1932  2.5799
  174SLPC  H10Y19739   3.095   1.737   5.657 -0.5833  0.6766  0.4751
  174SLPC  C31119740   3.270   1.658   5.596  0.9688 -0.0066 -0.2586
  174SLPC  H11X19741   3.210   1.595   5.528 -0.9506  1.3017  0.1331
  174SLPC  H11Y19742   3.295   1.584   5.675  0.3574 -0.4772 -0.5038
  174SLPC  C31219743   3.408   1.697   5.534  0.9517  0.4133  0.1864
  174SLPC  H12X19744   3.466   1.603   5.523  2.4651  1.3260  0.1690
  174SLPC  H12Y19745   3.460   1.751   5.616 -0.4131  0.2944  1.1712
  174SLPC  C31319746   3.416   1.774   5.401 -0.7422  0.2240  0.3520
  174SLPC  H13X19747   3.523   1.775   5.372 -1.1884 -2.8488 -1.8928
  174SLPC  H13Y19748   3.365   1.872   5.415  0.3533  0.9664 -0.6750
  174SLPC  C31419749   3.334   1.723   5.280 -0.5738  0.0662 -0.0382
  174SLPC  H14X19750   3.225   1.719   5.300 -0.4490 -0.7325  0.5367
  174SLPC  H14Y19751   3.367   1.618   5.261 -1.9003 -0.2914 -0.5142
  174SLPC  C31519752   3.358   1.811   5.157  0.1618  1.0638 -0.5846
  174SLPC  H15X19753   3.467   1.813   5.134 -0.0542 -2.3714 -2.6234
  174SLPC  H15Y19754   3.315   1.910   5.182 -1.3558  0.4739 -0.7223
  174SLPC  C31619755   3.272   1.762   5.040 -1.3114 -0.1287  0.8858
  174SLPC  H16X19756   3.166   1.796   5.047 -1.1883 -0.0204  2.6473
  174SLPC  H16Y19757   3.278   1.652   5.028  1.3101  0.0802 -0.4763
  174SLPC  C31719758   3.341   1.810   4.911 -0.5245  0.7190 -0.0355
  174SLPC  H17X19759   3.450   1.803   4.925 -0.5689  0.1659  0.0391
  174SLPC  H17Y19760   3.313   1.918   4.907 -0.7056  0.6509 -1.0661
  174SLPC  C31819761   3.299   1.746   4.783 -0.0509 -0.7229 -0.1752
  174SLPC  H18X19762   3.191   1.769   4.768  0.3628  1.0822 -0.6129
  174SLPC  H18Y19763   3.320   1.637   4.794 -0.9028 -0.9141 -0.3310
  174SLPC  H18Z19764   3.350   1.788   4.694 -1.1621  1.6073  0.2099
  175SLPC     N19765   0.585   3.993   7.126  0.1004 -0.4888  0.1782
  175SLPC   C1319766   0.575   3.969   7.273 -0.3165  0.0740  0.0103
  175SLPC  H13A19767   0.504   3.889   7.291 -1.9036  1.7223  1.4349
  175SLPC  H13B19768   0.672   3.942   7.310 -0.2406  0.1819 -0.1076
  175SLPC  H13C19769   0.553   4.053   7.337  1.3521  0.5067  0.0561
  175SLPC   C1419770   0.649   3.869   7.062 -0.6465 -0.2305 -0.2932
  175SLPC  H14A19771   0.683   3.879   6.960 -1.0941 -2.1233 -0.6730
  175SLPC  H14B19772   0.741   3.842   7.112 -0.8475 -0.4410 -0.0301
  175SLPC  H14C19773   0.581   3.785   7.058 -0.3613 -0.4770  0.0049
  175SLPC   C1519774   0.672   4.106   7.096 -0.3057 -0.1924  0.6670
  175SLPC  H15A19775   0.774   4.092   7.128 -0.3084 -0.3035  0.6294
  175SLPC  H15B19776   0.680   4.114   6.988 -1.2466 -4.4299  0.0979
  175SLPC  H15C19777   0.621   4.193   7.134  0.2108  1.3591 -1.9378
  175SLPC   C1219778   0.449   4.028   7.071 -0.2341 -0.4172  0.0914
  175SLPC  H12A19779   0.434   4.132   7.098  1.5644  0.3771 -1.7044
  175SLPC  H12B19780   0.363   3.981   7.116 -0.4398 -1.5968 -1.4563
  175SLPC   C1119781   0.429   4.022   6.920  0.5280 -0.1853 -0.2353
  175SLPC  H11A19782   0.510   4.072   6.864 -0.7467  1.5913 -0.5981
  175SLPC  H11B19783   0.343   4.085   6.890  1.3161  1.1734  0.2727
  175SLPC     P19784   0.281   3.806   6.895  0.0141  0.0630  0.0253
  175SLPC   O1319785   0.319   3.663   6.889 -0.5749  0.9461 -0.1314
  175SLPC   O1419786   0.209   3.838   7.018  0.2626 -0.0402  0.2902
  175SLPC   O1219787   0.417   3.885   6.880  0.1569  0.4167  0.0410
  175SLPC   O1119788   0.195   3.835   6.767  0.0469  0.4024 -0.2377
  175SLPC    C119789   0.223   3.882   6.638  0.4214  0.4340  0.1530
  175SLPC    HA19790   0.134   3.911   6.577  0.6355 -1.5646 -1.2087
  175SLPC    HB19791   0.276   3.980   6.643 -1.7021  1.7130 -0.8726
  175SLPC    C219792   0.299   3.772   6.552  0.7590  0.6198 -0.5067
  175SLPC    HS19793   0.382   3.729   6.613  0.6509 -1.3007 -1.6652
  175SLPC   O2119794   0.351   3.821   6.426  0.2594  0.2948  0.5628
  175SLPC   C2119795   0.440   3.741   6.364 -0.0866 -0.2665  0.4178
  175SLPC   O2219796   0.484   3.643   6.409  0.1886  0.2045 -0.3953
  175SLPC   C2219797   0.502   3.818   6.234 -0.1134 -0.2896  0.3694
  175SLPC   H2R19798   0.446   3.908   6.200 -0.3493  0.0331  1.5525
  175SLPC   H2S19799   0.611   3.838   6.240  0.0796 -0.4053 -1.9042
  175SLPC    C319800   0.213   3.639   6.529 -0.1961  0.5882 -0.0742
  175SLPC    HX19801   0.180   3.619   6.633 -3.0602  2.1488 -0.5730
  175SLPC    HY19802   0.272   3.552   6.492  1.0120  0.6756  1.5412
  175SLPC   O3119803   0.102   3.662   6.437 -0.3043 -0.5924 -0.3004
  175SLPC   C3119804   0.112   3.606   6.322 -0.0407  1.0273  0.3606
  175SLPC   O3219805   0.212   3.544   6.288 -0.2865  0.5276  0.3171
  175SLPC   C3219806  -0.013   3.634   6.236  0.0223  0.0977  0.5516
  175SLPC   H2X19807  -0.056   3.726   6.282  0.2342  1.4713 -1.8172
  175SLPC   H2Y19808  -0.080   3.546   6.232 -0.3500  0.4131 -1.0574
  175SLPC   C2319809   0.503   3.722   6.107 -0.9712 -0.0148  0.0511
  175SLPC   H3R19810   0.401   3.681   6.093 -2.0102  2.9117 -2.0945
  175SLPC   H3S19811   0.575   3.639   6.122  1.2980  1.7408 -0.4748
  175SLPC   C2419812   0.541   3.797   5.978 -0.2482 -0.0654  0.3306
  175SLPC   H4R19813   0.621   3.871   6.000  0.3728 -1.0909  1.7527
  175SLPC   H4S19814   0.448   3.850   5.949 -0.6521 -1.0793 -0.2947
  175SLPC   C2519815   0.585   3.695   5.873 -0.5347  0.3113  0.0777
  175SLPC   H5R19816   0.505   3.618   5.868 -0.1628 -0.0633 -0.1983
  175SLPC   H5S19817   0.668   3.634   5.914 -1.5599 -0.6654  0.7438
  175SLPC   C2619818   0.601   3.745   5.730 -0.0047  0.0809  0.6170
  175SLPC   H6R19819   0.513   3.801   5.692 -0.7555 -1.8374 -0.5641
  175SLPC   H6S19820   0.618   3.656   5.667 -0.2772  0.1595  0.4313
  175SLPC   C2719821   0.709   3.844   5.711 -0.2720 -0.5454 -0.7797
  175SLPC   H7R19822   0.798   3.799   5.759  0.5492  2.7256  1.1366
  175SLPC   H7S19823   0.693   3.931   5.779 -0.2460 -0.2369 -1.1624
  175SLPC   C2819824   0.749   3.878   5.566 -0.3867  0.5707 -0.5471
  175SLPC   H8R19825   0.772   3.785   5.510  0.1816  0.4783 -0.1731
  175SLPC   H8S19826   0.841   3.941   5.564  1.8365 -2.4446 -0.2895
  175SLPC   C2919827   0.632   3.954   5.496  0.2386  0.0208  0.1871
  175SLPC   H9R19828   0.540   3.964   5.556  0.5493 -1.5813  1.0072
  175SLPC  C21019829   0.644   4.026   5.383  0.0830  0.2136  0.0226
  175SLPC  H10R19830   0.562   4.086   5.341  0.7933  1.3631  0.2455
  175SLPC  C21119831   0.762   4.028   5.295 -0.1700 -0.3856  0.3032
  175SLPC  H11R19832   0.823   3.936   5.313  1.5970  0.3613 -1.4144
  175SLPC  H11S19833   0.838   4.106   5.316  2.1763 -1.5951 -2.8387
  175SLPC  C21219834   0.729   4.045   5.148  0.3281  0.6213  0.4881
  175SLPC  H12R19835   0.624   4.029   5.122 -0.1201  1.3199  1.7737
  175SLPC  C21319836   0.816   4.052   5.047  0.6459  0.0788  0.3152
  175SLPC  H13R19837   0.780   4.054   4.943  0.2719  0.4845  0.4528
  175SLPC  C21419838   0.961   4.070   5.068 -0.0352 -0.4272  0.2217
  175SLPC  H14R19839   1.003   3.993   5.136 -0.4276 -3.0610 -2.3359
  175SLPC  H14S19840   0.978   4.172   5.109  0.4546 -0.7796  0.9194
  175SLPC  C21519841   1.048   4.066   4.944 -0.8989  1.0352 -0.1836
  175SLPC  H15R19842   1.058   3.962   4.907  0.5474  1.8871 -2.4615
  175SLPC  H15S19843   1.152   4.100   4.965 -1.0819  1.7734 -0.4391
  175SLPC  C21619844   0.998   4.142   4.817  0.3369 -0.1042  0.2222
  175SLPC  H16R19845   0.972   4.248   4.835  1.0786  0.0154  0.6359
  175SLPC  H16S19846   0.911   4.094   4.768  0.0354  0.4784  0.1752
  175SLPC  C21719847   1.096   4.141   4.700  0.3202  0.3808 -0.4603
  175SLPC  H17R19848   1.038   4.190   4.619  0.2826  0.8754 -0.1420
  175SLPC  H17S19849   1.126   4.038   4.671 -1.1715 -0.1385 -0.2328
  175SLPC  C21819850   1.213   4.233   4.727  0.5863 -0.0201 -0.0805
  175SLPC  H18R19851   1.209   4.321   4.660  0.0081 -1.5682 -2.1612
  175SLPC  H18S19852   1.311   4.183   4.709 -0.1101 -1.2741 -0.5354
  175SLPC  H18T19853   1.207   4.278   4.829  1.4278 -1.5840  0.7142
  175SLPC   C3319854   0.022   3.665   6.086  0.2571 -0.6078 -0.0505
  175SLPC   H3X19855  -0.073   3.662   6.030  1.3631 -1.3590 -2.0027
  175SLPC   H3Y19856   0.099   3.595   6.045  1.0212 -0.3906  0.9702
  175SLPC   C3419857   0.089   3.805   6.069  0.4582  0.7047  0.3070
  175SLPC   H4X19858   0.178   3.815   6.134  0.0526  1.2090  0.8029
  175SLPC   H4Y19859   0.011   3.877   6.103  0.4945  0.9390 -0.0985
  175SLPC   C3519860   0.115   3.824   5.916 -0.0708 -0.1227  0.0578
  175SLPC   H5X19861   0.020   3.820   5.858  0.6287 -0.3177 -1.1292
  175SLPC   H5Y19862   0.173   3.739   5.874 -1.2796 -1.3096  0.7124
  175SLPC   C3619863   0.187   3.965   5.883 -0.1902 -0.4618  0.1011
  175SLPC   H6X19864   0.252   3.987   5.971 -3.1806 -0.1540  2.3969
  175SLPC   H6Y19865   0.114   4.047   5.864  1.7636  1.2924 -0.2971
  175SLPC   C3719866   0.281   3.955   5.752  0.6356  0.3935  1.0792
  175SLPC   H7X19867   0.327   3.855   5.770 -2.6795 -1.3505  0.6572
  175SLPC   H7Y19868   0.354   4.039   5.754  0.6376  0.4212  0.0864
  175SLPC   C3819869   0.194   3.955   5.627  0.6314  0.1413 -0.0420
  175SLPC   H8X19870   0.114   4.032   5.633  0.1288 -0.4541  1.6195
  175SLPC   H8Y19871   0.132   3.863   5.634 -0.2757  0.7755  0.5093
  175SLPC   C3919872   0.257   3.934   5.497 -0.5401  0.2006  0.5583
  175SLPC   H9X19873   0.310   3.837   5.506 -0.7714 -0.2926 -2.4140
  175SLPC   H9Y19874   0.324   4.014   5.460 -1.1284  0.3824 -0.1499
  175SLPC  C31019875   0.165   3.922   5.379 -0.0333 -0.6911  0.3994
  175SLPC  H10X19876   0.085   3.999   5.386 -0.5209 -1.2576  1.1004
  175SLPC  H10Y19877   0.101   3.832   5.389 -0.8314 -0.2748 -0.6716
  175SLPC  C31119878   0.233   3.935   5.241 -1.1219  0.0136 -0.5014
  175SLPC  H11X19879   0.324   3.872   5.233  0.2920  1.8426  0.3137
  175SLPC  H11Y19880   0.277   4.037   5.233 -2.1931  0.4942 -0.4528
  175SLPC  C31219881   0.140   3.923   5.120 -0.1915 -0.6264  0.3437
  175SLPC  H12X19882   0.056   3.989   5.151 -0.2221 -0.5334  0.0673
  175SLPC  H12Y19883   0.100   3.821   5.100 -0.6485 -0.1437 -1.4509
  175SLPC  C31319884   0.194   3.959   4.987 -0.1918 -1.1106 -0.2065
  175SLPC  H13X19885   0.223   4.067   4.981 -1.7500 -0.6991 -0.7207
  175SLPC  H13Y19886   0.117   3.942   4.909  1.8453 -1.3189 -2.2818
  175SLPC  C31419887   0.321   3.879   4.946 -0.8056  0.5778 -0.0433
  175SLPC  H14X19888   0.306   3.772   4.969  0.8666  0.2126 -0.5104
  175SLPC  H14Y19889   0.408   3.908   5.008  2.2557 -0.0120 -3.6807
  175SLPC  C31519890   0.349   3.892   4.802 -0.1750 -0.0310 -0.2964
  175SLPC  H15X19891   0.264   3.858   4.739 -1.9049  1.8912  0.8813
  175SLPC  H15Y19892   0.433   3.825   4.771  0.5021  1.2905 -1.3963
  175SLPC  C31619893   0.361   4.032   4.745 -0.0844  0.7932 -0.0211
  175SLPC  H16X19894   0.265   4.084   4.766 -0.9267 -0.7373  0.0373
  175SLPC  H16Y19895   0.370   4.024   4.635  0.8094 -0.7923  0.1390
  175SLPC  C31719896   0.462   4.119   4.814 -0.0637 -0.0241  0.1681
  175SLPC  H17X19897   0.563   4.073   4.808  1.2983  2.2846  2.8620
  175SLPC  H17Y19898   0.441   4.114   4.923  3.3819 -0.6694  0.9084
  175SLPC  C31819899   0.467   4.264   4.762 -0.6533 -0.1498  0.0765
  175SLPC  H18X19900   0.542   4.329   4.813  1.0610 -1.2100 -0.9576
  175SLPC  H18Y19901   0.365   4.305   4.770 -0.3989  0.3038  1.1330
  175SLPC  H18Z19902   0.518   4.271   4.663  1.7726 -0.9577  1.1763
  176SLPC     N19903   5.419   1.556   7.014  0.0177  0.2735 -0.4237
  176SLPC   C1319904   5.445   1.446   7.115 -0.5652 -0.4386  0.2450
  176SLPC  H13A19905   5.474   1.480   7.214  0.7511 -1.0453  0.0982
  176SLPC  H13B19906   5.362   1.378   7.124 -1.1787  0.2707  0.0240
  176SLPC  H13C19907   5.532   1.389   7.083 -0.8326  0.6561 -2.7039
  176SLPC   C1419908   5.544   1.637   7.014 -0.1024  1.2609  0.1073
  176SLPC  H14A19909   5.566   1.684   7.109 -1.3165  0.7614  0.6643
  176SLPC  H14B19910   5.620   1.562   7.008 -1.2681  0.0767 -0.2984
  176SLPC  H14C19911   5.556   1.700   6.927  1.6606  0.9637  0.1119
  176SLPC   C1519912   5.315   1.655   7.056  0.4145  0.7805 -0.4992
  176SLPC  H15A19913   5.346   1.697   7.151  2.6373  0.2308 -0.9321
  176SLPC  H15B19914   5.324   1.740   6.990 -2.5809  0.4072 -1.5253
  176SLPC  H15C19915   5.217   1.610   7.052  0.3754  0.4876  2.0167
  176SLPC   C1219916   5.379   1.482   6.885 -0.7594  0.0247  0.3561
  176SLPC  H12A19917   5.278   1.444   6.889 -0.1927 -1.5321  0.5525
  176SLPC  H12B19918   5.453   1.404   6.871 -0.0965  0.5134  1.0373
  176SLPC   C1119919   5.396   1.565   6.747 -0.1834 -0.3696 -0.1263
  176SLPC  H11A19920   5.331   1.654   6.761  2.3337  1.4545  0.7965
  176SLPC  H11B19921   5.360   1.506   6.661 -0.5052 -2.2738  1.2357
  176SLPC     P19922   5.633   1.502   6.668 -0.1207  0.2126 -0.4388
  176SLPC   O1319923   5.756   1.571   6.618 -0.4426 -0.0511  0.7910
  176SLPC   O1419924   5.652   1.401   6.775  0.1810  0.6115 -0.1310
  176SLPC   O1219925   5.527   1.611   6.719  0.3388  0.1119 -0.1116
  176SLPC   O1119926   5.563   1.430   6.550 -0.1307  0.5521  0.7249
  176SLPC    C119927   5.493   1.489   6.441  0.3272  1.1898 -0.8586
  176SLPC    HA19928   5.402   1.429   6.421  0.3701  0.6844  0.3358
  176SLPC    HB19929   5.454   1.590   6.467 -2.2563  0.2906 -0.9026
  176SLPC    C219930   5.584   1.494   6.307  0.1029 -1.1437  0.0442
  176SLPC    HS19931   5.623   1.390   6.296  0.2779 -1.0310 -0.4268
  176SLPC   O2119932   5.670   1.605   6.322  0.0337  0.4921 -0.0609
  176SLPC   C2119933   5.800   1.581   6.292  0.1692 -0.7417  0.4630
  176SLPC   O2219934   5.849   1.474   6.278 -0.9121  0.6951  0.5233
  176SLPC   C2219935   5.869   1.714   6.260 -0.4865  0.2193  0.0602
  176SLPC   H2R19936   5.820   1.755   6.169  2.1091  0.3977 -1.3458
  176SLPC   H2S19937   5.853   1.779   6.349 -1.1870 -0.8128  0.7142
  176SLPC    C319938   5.499   1.525   6.177 -0.1060 -0.5967 -0.5425
  176SLPC    HX19939   5.457   1.628   6.186  1.3422  0.0267 -0.6810
  176SLPC    HY19940   5.422   1.445   6.170 -1.1095  0.3372 -0.5206
  176SLPC   O3119941   5.583   1.530   6.063  0.2590 -0.4494 -0.5869
  176SLPC   C3119942   5.609   1.419   6.006  0.2439  1.2336  0.0840
  176SLPC   O3219943   5.575   1.309   6.047  0.3824 -0.2205 -0.7539
  176SLPC   C3219944   5.699   1.444   5.882 -0.0107 -0.0337 -0.5439
  176SLPC   H2X19945   5.773   1.524   5.902  1.2108 -1.1114 -0.6217
  176SLPC   H2Y19946   5.644   1.486   5.794 -0.6519  0.6549  0.1745
  176SLPC   C2319947   6.022   1.713   6.238 -0.1348 -0.1368 -0.1243
  176SLPC   H3R19948   6.067   1.657   6.323  0.2914  0.9436  0.3869
  176SLPC   H3S19949   6.057   1.818   6.251 -0.1664 -0.2337  0.8426
  176SLPC   C2419950   6.076   1.659   6.104  0.2531 -0.1219 -0.5072
  176SLPC   H4R19951   6.055   1.551   6.096 -0.1804 -0.0030 -1.0332
  176SLPC   H4S19952   6.187   1.659   6.107  0.3545 -2.6061 -1.6319
  176SLPC   C2519953   6.019   1.733   5.984  0.0720  0.0034  0.3441
  176SLPC   H5R19954   6.045   1.840   5.986  1.2186 -0.2216 -0.7569
  176SLPC   H5S19955   5.909   1.722   5.995  0.0271 -0.0888 -0.1475
  176SLPC   C2619956   6.058   1.660   5.851  0.4583 -0.0564 -0.2387
  176SLPC   H6R19957   6.034   1.551   5.852  0.8847 -0.1522 -0.0131
  176SLPC   H6S19958   6.169   1.664   5.848  0.7132 -2.6786  1.8018
  176SLPC   C2719959   6.012   1.722   5.722 -0.2938  0.2287 -1.1897
  176SLPC   H7R19960   5.903   1.714   5.705 -0.9337  3.1497  0.7262
  176SLPC   H7S19961   6.067   1.662   5.647  0.8791  0.9725 -0.9571
  176SLPC   C2819962   6.055   1.871   5.705 -0.3084 -0.2291  0.6892
  176SLPC   H8R19963   6.159   1.887   5.741  0.2830  0.7886 -1.3287
  176SLPC   H8S19964   5.990   1.933   5.771  0.9843 -1.1436  2.9206
  176SLPC   C2919965   6.045   1.914   5.558 -0.4434 -0.0712  0.2742
  176SLPC   H9R19966   6.122   1.880   5.488  0.4761  1.4952  0.4710
  176SLPC  C21019967   5.952   1.992   5.506 -0.4885  0.1205  0.1683
  176SLPC  H10R19968   5.957   2.017   5.399 -2.9436  2.2676  0.4459
  176SLPC  C21119969   5.825   2.047   5.569 -0.6768 -0.2101  0.3555
  176SLPC  H11R19970   5.816   2.156   5.549 -4.5168 -0.4688 -0.0021
  176SLPC  H11S19971   5.831   2.046   5.680  0.3136  2.5347  0.4055
  176SLPC  C21219972   5.705   1.963   5.526  0.0499  1.0961  0.3936
  176SLPC  H12R19973   5.730   1.874   5.467 -0.7139  1.0918  0.0760
  176SLPC  C21319974   5.583   1.973   5.577 -0.5488 -0.4135 -0.3540
  176SLPC  H13R19975   5.502   1.918   5.527  0.6853 -0.6081 -2.2652
  176SLPC  C21419976   5.544   2.064   5.692  0.5744  0.0871 -0.0041
  176SLPC  H14R19977   5.469   2.137   5.653 -0.4894 -0.0228  1.7133
  176SLPC  H14S19978   5.615   2.141   5.727 -3.0785  3.7313  0.1827
  176SLPC  C21519979   5.483   1.999   5.813 -0.1111 -0.0997  0.2246
  176SLPC  H15R19980   5.403   1.930   5.780 -0.1286 -0.5981  1.2693
  176SLPC  H15S19981   5.435   2.084   5.868  0.8525  0.6003  0.0099
  176SLPC  C21619982   5.583   1.931   5.905  0.6532  1.2483 -0.2056
  176SLPC  H16R19983   5.649   2.013   5.943 -0.1095  0.9583  1.8693
  176SLPC  H16S19984   5.648   1.853   5.859  0.3985  1.6096 -1.2094
  176SLPC  C21719985   5.536   1.859   6.034  0.2013  0.3373  0.3938
  176SLPC  H17R19986   5.628   1.827   6.089  0.8838  2.9188  0.8999
  176SLPC  H17S19987   5.473   1.769   6.018 -0.7203  1.2184 -1.1330
  176SLPC  C21819988   5.464   1.955   6.134 -0.6138 -0.7329 -0.0111
  176SLPC  H18R19989   5.361   1.976   6.097 -1.7756 -1.9822  2.2865
  176SLPC  H18S19990   5.536   2.038   6.152 -1.8389  1.3279 -3.5235
  176SLPC  H18T19991   5.452   1.889   6.222 -1.4071  0.9165  1.1688
  176SLPC   C3319992   5.782   1.314   5.833 -0.0627  0.3121 -0.3239
  176SLPC   H3X19993   5.809   1.261   5.927  0.9186 -0.3178 -0.9368
  176SLPC   H3Y19994   5.873   1.366   5.797 -0.1295 -0.0062 -0.9754
  176SLPC   C3419995   5.716   1.229   5.718 -0.5515 -0.1580 -0.6141
  176SLPC   H4X19996   5.625   1.168   5.739 -0.9283 -0.0939 -1.9743
  176SLPC   H4Y19997   5.798   1.154   5.710  1.8601  2.3539 -1.0108
  176SLPC   C3519998   5.709   1.309   5.581  0.2586  0.5833 -0.4886
  176SLPC   H5X19999   5.642   1.397   5.593 -0.4867 -0.0135 -0.1919
  176SLPC   H5Y20000   5.662   1.247   5.501  0.8502 -0.2147 -0.2308
  176SLPC   C3620001   5.838   1.370   5.539  0.5129 -0.0041 -0.4693
  176SLPC   H6X20002   5.912   1.290   5.521  0.6862 -0.3548  1.5967
  176SLPC   H6Y20003   5.879   1.440   5.615  1.2474 -1.7151  0.7795
  176SLPC   C3720004   5.819   1.453   5.408 -0.3352  0.5860 -0.5318
  176SLPC   H7X20005   5.746   1.535   5.419 -1.2536 -0.2425 -0.2609
  176SLPC   H7Y20006   5.798   1.375   5.331  2.9292 -0.2770 -0.6882
  176SLPC   C3820007   5.955   1.505   5.359 -0.7862 -0.2040 -0.2824
  176SLPC   H8X20008   6.029   1.423   5.350  0.4729  0.6882  1.3473
  176SLPC   H8Y20009   5.980   1.576   5.442 -0.6432  0.0499 -0.5418
  176SLPC   C3920010   5.946   1.602   5.235  0.2028  0.6060  0.0949
  176SLPC   H9X20011   5.915   1.544   5.145  0.4673  0.6874 -0.0503
  176SLPC   H9Y20012   6.050   1.632   5.207  0.1359  0.9569  0.2225
  176SLPC  C31020013   5.867   1.731   5.245  0.1285  0.8727  0.3557
  176SLPC  H10X20014   5.894   1.788   5.337  0.8869 -0.3389  0.9060
  176SLPC  H10Y20015   5.758   1.710   5.242  0.2616 -0.0922  1.5140
  176SLPC  C31120016   5.890   1.829   5.125  0.5913  0.3699  0.0369
  176SLPC  H11X20017   5.876   1.778   5.028  1.1360  0.5716 -0.1494
  176SLPC  H11Y20018   5.997   1.857   5.132  0.4525  1.1500 -0.8642
  176SLPC  C31220019   5.796   1.945   5.146  0.9027 -1.2902 -0.2114
  176SLPC  H12X20020   5.818   1.998   5.242 -1.3094  1.8316 -1.2647
  176SLPC  H12Y20021   5.691   1.910   5.148  0.0535  1.0982  0.8179
  176SLPC  C31320022   5.795   2.055   5.038  0.1761 -0.1627  0.1775
  176SLPC  H13X20023   5.901   2.083   5.019  0.6752 -0.9033  1.6757
  176SLPC  H13Y20024   5.749   2.151   5.070 -1.0097  0.0245 -1.9675
  176SLPC  C31420025   5.725   2.017   4.906 -0.6219 -0.4776 -0.0181
  176SLPC  H14X20026   5.626   1.975   4.934  0.4521 -2.4374  0.9949
  176SLPC  H14Y20027   5.777   1.934   4.855 -2.7303 -1.4668 -0.6701
  176SLPC  C31520028   5.710   2.137   4.798 -0.1351  0.4742  0.5113
  176SLPC  H15X20029   5.808   2.189   4.792  1.1623 -1.9073 -0.3647
  176SLPC  H15Y20030   5.633   2.208   4.836 -0.6079  1.6024 -2.3532
  176SLPC  C31620031   5.668   2.083   4.654 -0.5085  0.3873  0.3234
  176SLPC  H16X20032   5.577   2.021   4.667 -0.1137 -0.4816 -0.8783
  176SLPC  H16Y20033   5.755   2.029   4.612 -2.3209 -2.9741  0.5117
  176SLPC  C31720034   5.634   2.205   4.569  0.7437 -0.2273  0.2643
  176SLPC  H17X20035   5.570   2.265   4.637  0.0467  1.4416 -1.7788
  176SLPC  H17Y20036   5.563   2.177   4.488 -2.2496  0.0530  2.6119
  176SLPC  C31820037   5.751   2.280   4.516 -0.6495 -0.1015  0.8283
  176SLPC  H18X20038   5.807   2.331   4.599  0.6672 -1.1839  0.6395
  176SLPC  H18Y20039   5.705   2.361   4.456 -0.4194  0.4830  1.4227
  176SLPC  H18Z20040   5.830   2.226   4.459  0.4345  0.4446  1.7607
  177SLPC     N20041   5.454   2.246   6.841 -0.0172 -0.1252 -0.0265
  177SLPC   C1320042   5.496   2.192   6.972 -0.4466 -0.4819 -0.8398
  177SLPC  H13A20043   5.409   2.165   7.029 -1.9267  1.5932 -1.9776
  177SLPC  H13B20044   5.570   2.113   6.970 -0.3749 -0.5883  2.1696
  177SLPC  H13C20045   5.543   2.265   7.036 -1.8823  0.4089 -0.7821
  177SLPC   C1420046   5.396   2.140   6.758  0.2554 -0.2296  0.7508
  177SLPC  H14A20047   5.471   2.069   6.730  2.4244  2.5363 -1.0029
  177SLPC  H14B20048   5.315   2.088   6.807  0.9726 -1.7513  0.3695
  177SLPC  H14C20049   5.351   2.184   6.670 -1.4443 -1.5495  0.8950
  177SLPC   C1520050   5.587   2.290   6.785 -0.9126 -0.1538  0.7119
  177SLPC  H15A20051   5.643   2.205   6.749 -0.1370 -0.3016  2.2142
  177SLPC  H15B20052   5.569   2.351   6.697 -0.3438 -0.9657  0.0152
  177SLPC  H15C20053   5.643   2.351   6.854 -1.3031  1.0547  0.0015
  177SLPC   C1220054   5.372   2.365   6.855 -0.2438  0.1749 -0.3170
  177SLPC  H12A20055   5.428   2.444   6.901 -2.7803  0.9548  1.6870
  177SLPC  H12B20056   5.291   2.340   6.921  0.8501 -1.3803  0.4876
  177SLPC   C1120057   5.314   2.429   6.729  0.6441 -0.8501  0.6005
  177SLPC  H11A20058   5.247   2.508   6.768  0.5726 -1.3644  1.5358
  177SLPC  H11B20059   5.247   2.360   6.675  2.4951 -0.3973 -2.5266
  177SLPC     P20060   5.501   2.618   6.666  0.1132 -1.1550  0.3799
  177SLPC   O1320061   5.414   2.740   6.661 -0.2027 -1.0121  0.2581
  177SLPC   O1420062   5.567   2.596   6.794  0.3755 -0.3575  0.0062
  177SLPC   O1220063   5.412   2.489   6.628 -0.0108 -0.2600 -0.2826
  177SLPC   O1120064   5.603   2.632   6.548 -0.2927  0.0275 -0.0807
  177SLPC    C120065   5.669   2.532   6.465 -0.2309  0.6755 -0.8702
  177SLPC    HA20066   5.735   2.469   6.528  0.7062  2.2450 -0.2574
  177SLPC    HB20067   5.608   2.469   6.396 -0.0369 -1.3817  0.7487
  177SLPC    C220068   5.773   2.600   6.367 -0.0036  0.5874 -0.8552
  177SLPC    HS20069   5.811   2.683   6.430 -1.0894 -0.2047  0.9079
  177SLPC   O2120070   5.693   2.667   6.261 -0.7390 -0.2198 -0.0734
  177SLPC   C2120071   5.759   2.733   6.170  0.3033 -0.2203 -0.3429
  177SLPC   O2220072   5.870   2.769   6.180 -0.8652 -0.2033  0.3381
  177SLPC   C2220073   5.662   2.766   6.056  0.1695 -0.0707  0.3137
  177SLPC   H2R20074   5.631   2.663   6.030 -1.3558 -0.4671  3.2219
  177SLPC   H2S20075   5.571   2.811   6.102  0.3865  2.1983 -1.2964
  177SLPC    C320076   5.885   2.506   6.311 -0.7648 -0.6848 -0.5858
  177SLPC    HX20077   5.956   2.478   6.392 -0.5028 -0.9664 -0.9097
  177SLPC    HY20078   5.954   2.568   6.250 -2.0233  2.0838  0.6290
  177SLPC   O3120079   5.838   2.381   6.251  0.5010  0.3944 -0.6374
  177SLPC   C3120080   5.860   2.273   6.325 -0.2144  0.0712 -0.1151
  177SLPC   O3220081   5.895   2.277   6.442  0.2472  0.3069 -0.4502
  177SLPC   C3220082   5.841   2.142   6.240  1.1373  0.8052  0.1924
  177SLPC   H2X20083   5.739   2.147   6.195  1.8068 -1.3874 -1.7813
  177SLPC   H2Y20084   5.838   2.050   6.303 -0.6633  0.5461 -0.2137
  177SLPC   C2320085   5.717   2.849   5.936  0.5415 -0.3821  0.0176
  177SLPC   H3R20086   5.824   2.827   5.915  0.7518  1.0214 -0.4687
  177SLPC   H3S20087   5.697   2.958   5.944 -3.1041 -0.5764 -3.3285
  177SLPC   C2420088   5.647   2.821   5.796  0.3094  0.0841 -0.0608
  177SLPC   H4R20089   5.537   2.831   5.808  0.3841  2.3084 -0.7448
  177SLPC   H4S20090   5.673   2.723   5.751 -1.8158 -0.9904  0.9044
  177SLPC   C2520091   5.671   2.928   5.679 -0.0728 -0.3679  0.6080
  177SLPC   H5R20092   5.781   2.935   5.668 -0.0029 -1.6833  0.2573
  177SLPC   H5S20093   5.623   3.024   5.708 -0.4245  0.2585 -1.7619
  177SLPC   C2620094   5.617   2.881   5.545  0.1371 -0.0075  0.4536
  177SLPC   H6R20095   5.506   2.890   5.550  0.0145  0.7150 -1.9675
  177SLPC   H6S20096   5.654   2.777   5.544  0.1041 -0.0611  2.2528
  177SLPC   C2720097   5.656   2.964   5.423  0.0724  0.1038 -0.4838
  177SLPC   H7R20098   5.636   3.069   5.454 -2.1379 -0.9037  1.8899
  177SLPC   H7S20099   5.590   2.946   5.336  1.3963 -1.1400 -1.2639
  177SLPC   C2820100   5.805   2.949   5.379  0.6696  0.0157  0.0567
  177SLPC   H8R20101   5.872   2.959   5.467  0.9651 -1.5661  0.0371
  177SLPC   H8S20102   5.815   3.038   5.313 -1.7701  0.3597  0.0513
  177SLPC   C2920103   5.840   2.828   5.290  0.3660 -0.6065 -0.2542
  177SLPC   H9R20104   5.804   2.732   5.329 -0.9994  0.6294  1.6896
  177SLPC  C21020105   5.894   2.839   5.163  0.8443 -0.2185  0.4807
  177SLPC  H10R20106   5.892   2.750   5.098  1.5202  0.6889 -0.8370
  177SLPC  C21120107   5.933   2.970   5.100 -0.3014  0.0076  0.0473
  177SLPC  H11R20108   5.932   3.055   5.171 -0.6194  0.4968 -0.5399
  177SLPC  H11S20109   5.863   2.990   5.016  1.9398 -0.7562 -2.1306
  177SLPC  C21220110   6.067   2.968   5.033 -0.0795  0.6572  0.2360
  177SLPC  H12R20111   6.155   2.983   5.097 -1.7163  2.3019  2.2357
  177SLPC  C21320112   6.089   2.960   4.896 -0.5015 -0.0026  0.0102
  177SLPC  H13R20113   6.189   2.988   4.859 -0.1468 -1.5306 -0.2840
  177SLPC  C21420114   5.982   2.928   4.795  0.5364  0.1471  0.6105
  177SLPC  H14R20115   5.881   2.967   4.816  1.7171  2.7033  1.9104
  177SLPC  H14S20116   5.962   2.819   4.782 -2.2601  0.6356  0.1788
  177SLPC  C21520117   6.010   3.006   4.662 -0.0212 -0.2335  0.4071
  177SLPC  H15R20118   6.019   3.112   4.695 -1.5058 -0.7744  2.8480
  177SLPC  H15S20119   5.921   3.001   4.596  0.1166 -1.0836  0.2724
  177SLPC  C21620120   6.131   2.960   4.583 -0.2039 -0.1516  0.2907
  177SLPC  H16R20121   6.119   2.851   4.565 -1.6964 -0.0144  0.2911
  177SLPC  H16S20122   6.222   2.982   4.643 -1.3021  1.8314  1.3546
  177SLPC  C21720123   6.145   3.034   4.444  0.1361  0.2085  1.0061
  177SLPC  H17R20124   6.193   3.133   4.458  0.9155 -0.2564  1.6675
  177SLPC  H17S20125   6.044   3.037   4.397 -0.6777  0.1638  2.6594
  177SLPC  C21820126   6.237   2.965   4.344  0.7905  0.4669  0.5891
  177SLPC  H18R20127   6.181   2.882   4.296 -0.2039  1.3841  0.1414
  177SLPC  H18S20128   6.322   2.920   4.401  0.5436 -2.0018 -0.8704
  177SLPC  H18T20129   6.284   3.022   4.261 -0.6498 -4.1062 -3.8371
  177SLPC   C3320130   5.940   2.116   6.131 -0.2841 -0.2766  0.9346
  177SLPC   H3X20131   5.958   2.007   6.114  1.9536 -0.1677  2.1777
  177SLPC   H3Y20132   6.036   2.167   6.153  0.6555 -0.6157 -1.9868
  177SLPC   C3420133   5.892   2.172   5.995  0.8081  0.2229  0.3042
  177SLPC   H4X20134   5.795   2.225   6.006  0.4631 -0.6192  1.5059
  177SLPC   H4Y20135   5.885   2.087   5.924 -0.0806  2.1504 -2.0582
  177SLPC   C3520136   5.987   2.270   5.924 -0.5459  0.4442  0.9225
  177SLPC   H5X20137   5.986   2.370   5.973  1.1578  0.8734  0.1842
  177SLPC   H5Y20138   5.938   2.292   5.827 -2.0158 -2.2135  0.9819
  177SLPC   C3620139   6.122   2.209   5.892 -0.6061 -0.0029  0.1864
  177SLPC   H6X20140   6.106   2.114   5.836  1.0835  0.2471 -0.7718
  177SLPC   H6Y20141   6.179   2.175   5.981  0.2600 -2.9703 -1.3612
  177SLPC   C3720142   6.207   2.307   5.807 -0.2240  0.0389  0.2502
  177SLPC   H7X20143   6.220   2.396   5.872  0.8668  0.3191 -0.3294
  177SLPC   H7Y20144   6.133   2.325   5.726  0.4559  0.9417 -0.1864
  177SLPC   C3820145   6.337   2.250   5.764  0.3043 -0.3820  0.4661
  177SLPC   H8X20146   6.310   2.155   5.713  0.6716 -1.4944  2.2428
  177SLPC   H8Y20147   6.406   2.216   5.844 -1.2762 -1.4772  1.4138
  177SLPC   C3920148   6.408   2.334   5.659 -0.4587 -0.2591 -0.2086
  177SLPC   H9X20149   6.471   2.266   5.597  1.3077  2.5034 -1.6212
  177SLPC   H9Y20150   6.474   2.405   5.714  1.0029 -2.3537  0.8892
  177SLPC  C31020151   6.314   2.404   5.560 -0.8415 -0.2139  0.3600
  177SLPC  H10X20152   6.264   2.488   5.613  0.1615  0.8128 -0.2711
  177SLPC  H10Y20153   6.243   2.329   5.520 -1.2008  0.5882 -0.5401
  177SLPC  C31120154   6.387   2.477   5.442 -0.2369  0.0087  0.1113
  177SLPC  H11X20155   6.480   2.424   5.414 -2.2786 -2.8328 -1.8678
  177SLPC  H11Y20156   6.412   2.585   5.453  1.8520 -0.5770  1.8637
  177SLPC  C31220157   6.300   2.458   5.321 -0.0246  0.2308 -0.5523
  177SLPC  H12X20158   6.197   2.490   5.347 -0.0731 -0.7157  0.5007
  177SLPC  H12Y20159   6.299   2.352   5.285  1.7118 -0.2339  0.6430
  177SLPC  C31320160   6.337   2.555   5.206 -0.3730 -0.1683  0.2078
  177SLPC  H13X20161   6.331   2.658   5.248  0.3711  0.4299 -1.0768
  177SLPC  H13Y20162   6.263   2.555   5.123 -0.2067  0.6141  0.0436
  177SLPC  C31420163   6.470   2.512   5.147  0.2939  0.3976  0.0254
  177SLPC  H14X20164   6.479   2.403   5.129  0.0821  0.1384  1.3339
  177SLPC  H14Y20165   6.546   2.531   5.226 -2.1923 -0.1821  2.7349
  177SLPC  C31520166   6.504   2.583   5.015 -0.7283 -0.0879  0.0718
  177SLPC  H15X20167   6.610   2.559   4.989 -0.5983  0.6818 -0.1198
  177SLPC  H15Y20168   6.497   2.691   5.040 -0.7405 -0.1729  0.4419
  177SLPC  C31620169   6.413   2.547   4.895 -0.2144  0.0360  0.1717
  177SLPC  H16X20170   6.304   2.563   4.910 -0.6303 -1.2518 -1.2233
  177SLPC  H16Y20171   6.422   2.437   4.881  2.9643 -0.0114  1.7465
  177SLPC  C31720172   6.437   2.611   4.757  0.4311 -0.5994 -0.0082
  177SLPC  H17X20173   6.417   2.545   4.670  0.7379  2.5501 -2.6601
  177SLPC  H17Y20174   6.541   2.646   4.742 -0.4363  2.2890  0.0791
  177SLPC  C31820175   6.354   2.733   4.729  0.2115 -0.0603  0.4588
  177SLPC  H18X20176   6.244   2.723   4.736  0.0558  1.3166  0.3341
  177SLPC  H18Y20177   6.371   2.765   4.624 -2.9193  0.2127 -0.0429
  177SLPC  H18Z20178   6.381   2.814   4.801 -0.2843 -0.5418  1.1993
  178SLPC     N20179   2.328   1.562   7.038 -0.7260 -0.7105 -0.5304
  178SLPC   C1320180   2.471   1.562   6.984  0.1357 -0.3844 -0.6959
  178SLPC  H13A20181   2.505   1.661   6.961 -0.0394  0.0669  0.8397
  178SLPC  H13B20182   2.543   1.523   7.055  0.3214  0.2437 -0.5355
  178SLPC  H13C20183   2.479   1.497   6.898 -0.1571 -1.8232  0.3233
  178SLPC   C1420184   2.317   1.620   7.174 -0.2975 -0.2020 -0.0621
  178SLPC  H14A20185   2.355   1.554   7.250  1.6836  0.3286 -0.5395
  178SLPC  H14B20186   2.386   1.703   7.179  1.3683 -1.4292 -1.6366
  178SLPC  H14C20187   2.212   1.644   7.186 -0.2338  0.7918 -1.2359
  178SLPC   C1520188   2.296   1.411   7.049  0.8180 -0.2133  0.3526
  178SLPC  H15A20189   2.286   1.381   6.946 -0.6371  2.1245 -0.2529
  178SLPC  H15B20190   2.366   1.352   7.106 -1.8850 -2.3160  1.7499
  178SLPC  H15C20191   2.197   1.393   7.090  0.0619  1.6177 -0.5572
  178SLPC   C1220192   2.238   1.642   6.947 -0.3285  0.0694  0.5054
  178SLPC  H12A20193   2.250   1.748   6.963  1.2229 -0.0767  0.4438
  178SLPC  H12B20194   2.132   1.624   6.962 -0.9139  1.6930 -1.1844
  178SLPC   C1120195   2.247   1.612   6.793 -0.0976 -0.2128 -0.4789
  178SLPC  H11A20196   2.349   1.641   6.761 -0.3624  2.2880  0.6977
  178SLPC  H11B20197   2.168   1.674   6.745 -0.4558  1.3546  1.9347
  178SLPC     P20198   2.094   1.397   6.756 -0.2163 -0.0712 -0.2012
  178SLPC   O1320199   2.111   1.263   6.818 -0.3778 -0.0353  0.1724
  178SLPC   O1420200   1.995   1.480   6.830  0.1874  0.2169 -0.3659
  178SLPC   O1220201   2.231   1.476   6.759  0.2099  0.2297  0.5487
  178SLPC   O1120202   2.067   1.401   6.602  0.7933  0.0871 -0.2038
  178SLPC    C120203   1.959   1.318   6.554 -0.2459 -0.4528 -0.6529
  178SLPC    HA20204   1.953   1.222   6.609 -1.1000 -0.2285 -0.3327
  178SLPC    HB20205   1.864   1.376   6.558  0.2487  0.4260 -1.2498
  178SLPC    C220206   1.972   1.287   6.400 -0.2348 -0.2289 -0.5724
  178SLPC    HS20207   2.065   1.227   6.386 -0.3361  0.1316 -3.6292
  178SLPC   O2120208   1.990   1.410   6.328 -0.7516 -0.0614 -0.2537
  178SLPC   C2120209   2.090   1.421   6.246 -0.1444  0.4982  0.4169
  178SLPC   O2220210   2.184   1.347   6.235  0.3120 -0.1455  0.4206
  178SLPC   C2220211   2.058   1.546   6.156  0.9177 -0.3828  0.3202
  178SLPC   H2R20212   1.974   1.594   6.212 -0.7326  0.4336 -2.6420
  178SLPC   H2S20213   2.146   1.614   6.161 -0.9044  2.0138  3.6658
  178SLPC    C320214   1.841   1.220   6.340  0.8532  0.4019 -0.1113
  178SLPC    HX20215   1.768   1.304   6.342  0.7755  0.3299  0.3797
  178SLPC    HY20216   1.809   1.141   6.412 -1.7263  1.5141  0.0653
  178SLPC   O3120217   1.854   1.173   6.206 -0.0384  0.0717 -0.6655
  178SLPC   C3120218   1.904   1.048   6.177 -0.1833  0.0480 -0.0229
  178SLPC   O3220219   1.922   0.961   6.257 -0.6925  0.1399  0.4250
  178SLPC   C3220220   1.922   1.035   6.026 -0.1650 -0.4644  0.5356
  178SLPC   H2X20221   1.856   1.100   5.965 -0.9569  0.3038  2.1662
  178SLPC   H2Y20222   1.894   0.928   6.013  1.3019 -0.6187 -2.1864
  178SLPC   C2320223   2.016   1.497   6.017  0.4740 -0.3804  0.5560
  178SLPC   H3R20224   1.926   1.435   6.036  0.6239 -0.8243 -0.1535
  178SLPC   H3S20225   2.097   1.436   5.972 -0.8572 -1.4245 -0.5022
  178SLPC   C2420226   1.988   1.611   5.921 -0.5131 -0.8724 -0.4902
  178SLPC   H4R20227   2.077   1.675   5.904  0.5282 -1.3674  2.5344
  178SLPC   H4S20228   1.916   1.678   5.972 -0.9946 -2.0245  0.3817
  178SLPC   C2520229   1.924   1.564   5.794 -0.2217  0.2210  0.2099
  178SLPC   H5R20230   1.885   1.653   5.740  3.6014  1.4953 -0.7704
  178SLPC   H5S20231   1.840   1.503   5.835  2.8109 -2.5211  2.9609
  178SLPC   C2620232   2.026   1.490   5.705  0.8189 -0.0167 -0.4933
  178SLPC   H6R20233   1.967   1.444   5.623 -0.9483 -0.1686  0.8204
  178SLPC   H6S20234   2.087   1.412   5.755 -0.5710 -1.0180 -0.3264
  178SLPC   C2720235   2.113   1.596   5.638  0.0191 -0.1688  0.2738
  178SLPC   H7R20236   2.201   1.616   5.703  0.3612 -0.9916  0.0823
  178SLPC   H7S20237   2.058   1.691   5.619  0.5258  0.4970  1.9899
  178SLPC   C2820238   2.195   1.532   5.526 -0.7872 -0.6397 -0.0935
  178SLPC   H8R20239   2.224   1.431   5.560  0.7569 -0.6819 -1.3965
  178SLPC   H8S20240   2.290   1.587   5.511 -1.3465  0.6732  0.9746
  178SLPC   C2920241   2.119   1.513   5.396  0.2114 -0.4863 -0.1242
  178SLPC   H9R20242   2.043   1.434   5.397 -2.1041  1.5129 -2.2508
  178SLPC  C21020243   2.131   1.587   5.282  0.7598  1.0265 -0.4037
  178SLPC  H10R20244   2.054   1.563   5.207  0.6037 -1.0039  0.3403
  178SLPC  C21120245   2.228   1.704   5.272  0.4993  0.3291  0.1754
  178SLPC  H11R20246   2.327   1.654   5.275 -0.0920 -0.8803 -0.1250
  178SLPC  H11S20247   2.215   1.773   5.358  0.0048 -0.4095  0.7071
  178SLPC  C21220248   2.210   1.777   5.144  0.2717 -0.2648 -0.7128
  178SLPC  H12R20249   2.123   1.754   5.081  0.0383  3.4585 -1.9682
  178SLPC  C21320250   2.277   1.884   5.104 -0.3998  0.1826  0.2085
  178SLPC  H13R20251   2.245   1.941   5.016 -0.0022  0.9354  0.5408
  178SLPC  C21420252   2.396   1.930   5.179 -0.1563  0.2871  0.0335
  178SLPC  H14R20253   2.484   1.882   5.131  0.0597  0.9338 -0.2198
  178SLPC  H14S20254   2.399   1.887   5.282  1.2850  1.2410  0.4253
  178SLPC  C21520255   2.433   2.078   5.206 -0.2649 -0.0785  0.3856
  178SLPC  H15R20256   2.526   2.076   5.265  0.0783 -1.1941 -0.1610
  178SLPC  H15S20257   2.357   2.121   5.275  0.8091  1.2798  0.7443
  178SLPC  C21620258   2.452   2.166   5.081  0.6278  0.8769 -0.0127
  178SLPC  H16R20259   2.468   2.269   5.119  1.3821 -0.6726  4.5035
  178SLPC  H16S20260   2.355   2.173   5.026  0.0380  1.2533  1.0405
  178SLPC  C21720261   2.568   2.125   4.983  0.8670 -0.0717 -0.5763
  178SLPC  H17R20262   2.563   2.014   4.975  2.2895 -0.1278 -0.9922
  178SLPC  H17S20263   2.663   2.163   5.027  1.1209 -0.1787 -1.0320
  178SLPC  C21820264   2.541   2.176   4.843 -0.0218  0.0919 -0.0334
  178SLPC  H18R20265   2.441   2.143   4.810 -0.5588  0.1274  1.4834
  178SLPC  H18S20266   2.618   2.131   4.776  0.4607 -0.4740  0.8870
  178SLPC  H18T20267   2.548   2.287   4.843  0.4104  0.0653  0.1012
  178SLPC   C3320268   2.068   1.050   5.996 -0.5779  0.2344  0.3832
  178SLPC   H3X20269   2.122   0.976   6.058 -0.4272  0.1596  0.1642
  178SLPC   H3Y20270   2.107   1.153   6.013 -1.6503  0.4160  1.9907
  178SLPC   C3420271   2.095   1.005   5.853 -0.7772  0.3656 -0.1931
  178SLPC   H4X20272   2.068   0.898   5.847 -2.3755  0.7630 -0.3339
  178SLPC   H4Y20273   2.206   1.005   5.847 -0.7639  1.6780 -0.3624
  178SLPC   C3520274   2.034   1.090   5.744  0.3801  0.0668  0.2478
  178SLPC   H5X20275   2.025   1.193   5.785 -1.3232  0.2231 -0.4663
  178SLPC   H5Y20276   1.937   1.043   5.719  1.2887 -1.6980 -0.0981
  178SLPC   C3620277   2.121   1.093   5.619 -0.4876  0.6532  0.7825
  178SLPC   H6X20278   2.173   0.998   5.593  1.3406  1.5484  0.9780
  178SLPC   H6Y20279   2.213   1.153   5.636  0.9088 -0.8828 -0.8980
  178SLPC   C3720280   2.041   1.132   5.497  0.7392  0.3050 -0.0492
  178SLPC   H7X20281   1.982   1.226   5.493  0.9060  0.5342  1.9420
  178SLPC   H7Y20282   1.964   1.052   5.494  2.2728 -1.2820  0.5651
  178SLPC   C3820283   2.128   1.134   5.372  0.3662 -0.1658  1.0796
  178SLPC   H8X20284   2.191   1.044   5.387  0.2463 -0.3316  0.5692
  178SLPC   H8Y20285   2.197   1.221   5.382 -0.0995  0.4867 -1.0338
  178SLPC   C3920286   2.045   1.115   5.241 -0.6264  0.1551 -1.1384
  178SLPC   H9X20287   2.014   1.220   5.220  3.1677  1.8202  0.6722
  178SLPC   H9Y20288   1.960   1.045   5.256  1.4857 -2.1886  0.5768
  178SLPC  C31020289   2.140   1.076   5.126  0.4400  0.2409 -0.4253
  178SLPC  H10X20290   2.234   1.045   5.175  0.0960  0.4115  0.3591
  178SLPC  H10Y20291   2.176   1.162   5.065 -1.1499 -0.4295 -2.4509
  178SLPC  C31120292   2.076   0.990   5.019  0.2191 -0.8621  0.5724
  178SLPC  H11X20293   1.997   1.049   4.969  1.0493 -1.3453 -1.4236
  178SLPC  H11Y20294   2.035   0.898   5.066  1.3135 -1.2289  0.8297
  178SLPC  C31220295   2.177   0.957   4.906  0.1316  0.1688  0.0491
  178SLPC  H12X20296   2.259   0.897   4.951 -0.4263 -0.6561 -0.0054
  178SLPC  H12Y20297   2.226   1.052   4.876  0.1391  0.1570  0.0247
  178SLPC  C31320298   2.106   0.894   4.791  0.4429  0.5588 -0.5409
  178SLPC  H13X20299   2.031   0.969   4.755 -2.7637 -2.4562 -0.7292
  178SLPC  H13Y20300   2.045   0.812   4.835  1.1726  0.1331 -0.3021
  178SLPC  C31420301   2.200   0.850   4.677 -0.0632  0.1481  0.3700
  178SLPC  H14X20302   2.280   0.779   4.709  0.0021  0.5318  1.0774
  178SLPC  H14Y20303   2.249   0.943   4.641  0.1443 -0.0570  0.1102
  178SLPC  C31520304   2.112   0.793   4.564 -0.4539 -0.8930  0.6409
  178SLPC  H15X20305   2.067   0.881   4.514  2.5483  1.8651  2.4054
  178SLPC  H15Y20306   2.037   0.724   4.607  0.3179 -2.8059 -0.8965
  178SLPC  C31620307   2.191   0.709   4.464 -0.2215 -0.0850 -0.0511
  178SLPC  H16X20308   2.260   0.641   4.519  0.5016  0.7092  0.0478
  178SLPC  H16Y20309   2.251   0.782   4.406 -0.2605  0.8567  1.0583
  178SLPC  C31720310   2.105   0.616   4.372 -0.3392  0.0424 -0.1853
  178SLPC  H17X20311   2.075   0.521   4.422 -3.4092  1.0125  0.0354
  178SLPC  H17Y20312   2.170   0.591   4.286  0.7692 -0.2677  0.7283
  178SLPC  C31820313   1.978   0.670   4.317  0.6245  0.0689  0.2913
  178SLPC  H18X20314   1.928   0.596   4.250 -0.2054  1.4731 -0.7221
  178SLPC  H18Y20315   1.994   0.757   4.250 -0.6672  0.8504  0.9493
  178SLPC  H18Z20316   1.912   0.698   4.402  0.4426  1.5802 -0.3056
  179SLPC     N20317   2.638   2.520   1.933 -0.3388  0.0940  0.4301
  179SLPC   C1320318   2.640   2.651   1.866 -0.5568 -0.3205 -0.2261
  179SLPC  H13A20319   2.539   2.678   1.839 -0.7710  1.5823  2.1045
  179SLPC  H13B20320   2.666   2.731   1.933 -0.3386 -0.8447  0.3267
  179SLPC  H13C20321   2.692   2.647   1.771  3.9981  1.9512  1.8239
  179SLPC   C1420322   2.783   2.474   1.963  0.0124 -0.1143 -0.4595
  179SLPC  H14A20323   2.832   2.532   2.040  0.0378 -0.8818  0.1154
  179SLPC  H14B20324   2.772   2.370   1.991 -0.5634 -0.2221 -1.0687
  179SLPC  H14C20325   2.847   2.482   1.877 -0.0007  0.6423 -0.4033
  179SLPC   C1520326   2.572   2.425   1.831  0.0955  0.2245 -0.2241
  179SLPC  H15A20327   2.579   2.324   1.870  1.3464  0.0042 -0.9563
  179SLPC  H15B20328   2.468   2.452   1.824  0.5949  2.0095 -1.4559
  179SLPC  H15C20329   2.621   2.417   1.735  0.7401 -1.7537  0.2194
  179SLPC   C1220330   2.557   2.518   2.058 -0.2914  0.9024  0.0114
  179SLPC  H12A20331   2.456   2.521   2.019  0.7615 -1.7997 -3.5417
  179SLPC  H12B20332   2.580   2.611   2.107  0.0591  0.6858  0.2646
  179SLPC   C1120333   2.575   2.398   2.157  0.4662 -0.4837 -0.0486
  179SLPC  H11A20334   2.509   2.427   2.241  0.8009  2.1501 -0.6003
  179SLPC  H11B20335   2.675   2.393   2.206  1.0364 -3.4516 -1.2964
  179SLPC     P20336   2.616   2.145   2.068 -0.0216 -0.5013  0.3193
  179SLPC   O1320337   2.534   2.030   2.036  0.6948  0.5800  0.7671
  179SLPC   O1420338   2.734   2.171   1.983  0.1530 -0.0525 -0.3301
  179SLPC   O1220339   2.535   2.282   2.091 -0.5199  0.6048  0.1240
  179SLPC   O1120340   2.666   2.132   2.213 -0.3309  0.3878  0.2656
  179SLPC    C120341   2.571   2.097   2.318 -0.2784  0.4636  0.5253
  179SLPC    HA20342   2.480   2.159   2.325 -0.0359  0.9105 -0.1025
  179SLPC    HB20343   2.532   1.993   2.313 -1.2790  0.8447  0.2726
  179SLPC    C220344   2.637   2.100   2.455 -0.2728 -0.0925  0.1459
  179SLPC    HS20345   2.562   2.077   2.534 -0.0033  1.2790  0.8216
  179SLPC   O2120346   2.687   2.234   2.485 -0.1431  0.3483  0.5153
  179SLPC   C2120347   2.612   2.330   2.523 -0.6930 -0.3087  0.8532
  179SLPC   O2220348   2.489   2.331   2.514  0.2353 -0.0730  0.0852
  179SLPC   C2220349   2.690   2.448   2.584  0.2145 -0.1310  0.2415
  179SLPC   H2R20350   2.729   2.509   2.500 -0.1173 -0.2559 -0.0048
  179SLPC   H2S20351   2.625   2.517   2.641  1.2135  0.9274  0.1300
  179SLPC    C320352   2.751   1.992   2.468  1.1458 -0.7181  0.0293
  179SLPC    HX20353   2.817   2.005   2.380  1.0285  1.0068  0.1694
  179SLPC    HY20354   2.704   1.891   2.465  0.2227 -0.2879 -0.4309
  179SLPC   O3120355   2.828   2.009   2.586  0.1494 -0.3603 -0.5047
  179SLPC   C3120356   2.775   1.967   2.705 -0.4740 -0.0899 -0.1631
  179SLPC   O3220357   2.666   1.922   2.719 -0.3208 -0.3195  0.1400
  179SLPC   C3220358   2.887   1.984   2.808  0.2798  0.2326  0.9834
  179SLPC   H2X20359   2.947   2.068   2.769  0.0452 -0.1845 -0.3096
  179SLPC   H2Y20360   2.955   1.897   2.798 -0.2766 -0.4028  2.3248
  179SLPC   C2320361   2.818   2.400   2.656 -0.2702 -0.2062  0.3617
  179SLPC   H3R20362   2.890   2.480   2.680 -1.1866  0.5486  0.6300
  179SLPC   H3S20363   2.879   2.320   2.609  0.1290 -1.1633  2.3975
  179SLPC   C2420364   2.786   2.345   2.800 -0.2352 -0.2086 -0.4763
  179SLPC   H4R20365   2.886   2.308   2.832 -0.1509  1.5081  1.4111
  179SLPC   H4S20366   2.714   2.263   2.779  0.4991 -1.4519  1.5675
  179SLPC   C2520367   2.719   2.447   2.895  0.5212  0.9810 -0.5659
  179SLPC   H5R20368   2.624   2.491   2.859 -0.2545  1.0861  1.5111
  179SLPC   H5S20369   2.791   2.531   2.907  1.9130 -0.0057 -1.5734
  179SLPC   C2620370   2.678   2.377   3.024 -0.2658 -0.5629 -0.7892
  179SLPC   H6R20371   2.676   2.465   3.093 -0.2579 -0.0604 -1.4232
  179SLPC   H6S20372   2.742   2.293   3.057 -1.8625 -1.6777 -0.3848
  179SLPC   C2720373   2.525   2.336   3.030 -0.3760 -0.1228  0.0440
  179SLPC   H7R20374   2.514   2.260   2.950  1.0238 -0.8960  0.5490
  179SLPC   H7S20375   2.462   2.427   3.021  2.5040  2.0904  0.8058
  179SLPC   C2820376   2.485   2.278   3.169  0.0848  0.6298 -0.2279
  179SLPC   H8R20377   2.538   2.183   3.192  0.2651  1.0245  1.0882
  179SLPC   H8S20378   2.378   2.249   3.161  0.5150 -1.1192 -0.0717
  179SLPC   C2920379   2.518   2.373   3.284  0.0584  0.7220 -0.0247
  179SLPC   H9R20380   2.604   2.441   3.297 -0.2645  0.8897  1.4993
  179SLPC  C21020381   2.420   2.415   3.375 -0.4761 -0.2423  0.3528
  179SLPC  H10R20382   2.450   2.466   3.468 -1.8389 -0.7266  1.0862
  179SLPC  C21120383   2.280   2.375   3.380  0.0851 -0.0737  0.5174
  179SLPC  H11R20384   2.263   2.293   3.308  0.1322  0.1402  0.2603
  179SLPC  H11S20385   2.217   2.463   3.353  1.3373  1.2854  1.7949
  179SLPC  C21220386   2.236   2.330   3.514  0.1059 -0.4999  0.0192
  179SLPC  H12R20387   2.306   2.254   3.552  1.3671 -0.7789 -2.6463
  179SLPC  C21320388   2.141   2.381   3.598  0.4482  0.1672 -0.0782
  179SLPC  H13R20389   2.122   2.333   3.695 -1.1686 -1.4011 -1.0995
  179SLPC  C21420390   2.040   2.493   3.569 -0.1715 -0.1292 -0.8720
  179SLPC  H14R20391   1.934   2.457   3.573 -0.2343  0.1039 -0.2028
  179SLPC  H14S20392   2.063   2.536   3.470 -0.7613 -0.7583 -1.2948
  179SLPC  C21520393   2.042   2.609   3.681  0.0958  0.5263  0.1753
  179SLPC  H15R20394   1.976   2.689   3.641  0.4963  0.5724 -0.4002
  179SLPC  H15S20395   2.138   2.661   3.695 -0.5543  1.6334  0.6190
  179SLPC  C21620396   1.992   2.552   3.814 -0.2700  0.1305  0.4267
  179SLPC  H16R20397   2.017   2.636   3.881  1.1806 -0.5040  0.7151
  179SLPC  H16S20398   2.054   2.464   3.843  1.5308  0.1057 -2.9822
  179SLPC  C21720399   1.843   2.515   3.829 -0.2994  0.4611 -0.3104
  179SLPC  H17R20400   1.824   2.419   3.775 -2.1031 -0.1055  1.2208
  179SLPC  H17S20401   1.784   2.599   3.787  0.4424  0.8959 -0.4933
  179SLPC  C21820402   1.812   2.514   3.977  0.1505  0.6622 -0.3709
  179SLPC  H18R20403   1.866   2.438   4.037 -2.7081 -3.2821 -2.2838
  179SLPC  H18S20404   1.705   2.498   4.001  0.4678 -0.3204  0.4900
  179SLPC  H18T20405   1.818   2.617   4.016  0.3579  0.7672 -0.6766
  179SLPC   C3320406   2.834   2.010   2.955 -0.4338 -0.4884  0.2314
  179SLPC   H3X20407   2.762   2.094   2.963 -2.5194 -1.9481 -1.7726
  179SLPC   H3Y20408   2.929   2.032   3.007  0.0775 -0.1266 -0.8298
  179SLPC   C3420409   2.777   1.883   3.036 -0.4166  0.6676 -0.2042
  179SLPC   H4X20410   2.856   1.808   3.014 -1.9822 -0.5842 -1.9279
  179SLPC   H4Y20411   2.689   1.845   2.979  0.0585  1.1732 -1.2979
  179SLPC   C3520412   2.747   1.903   3.179  0.1600 -0.1909 -0.8632
  179SLPC   H5X20413   2.695   2.001   3.182  0.5229  0.0066 -0.9513
  179SLPC   H5Y20414   2.689   1.818   3.221  1.6385 -0.4333  0.7881
  179SLPC   C3620415   2.868   1.917   3.274 -0.1760 -0.5214 -0.2498
  179SLPC   H6X20416   2.927   2.000   3.230  1.5350 -2.6417 -2.1803
  179SLPC   H6Y20417   2.927   1.825   3.252  0.3658  0.3986 -3.0444
  179SLPC   C3720418   2.854   1.946   3.421 -0.4050 -0.4514  0.1538
  179SLPC   H7X20419   2.781   1.875   3.467  0.2001 -0.4356  1.1690
  179SLPC   H7Y20420   2.795   2.039   3.439 -0.0666 -0.4808  1.5286
  179SLPC   C3820421   2.989   1.936   3.497  0.3257  0.6705 -0.1122
  179SLPC   H8X20422   3.051   2.011   3.443 -1.0879  0.4108 -2.2174
  179SLPC   H8Y20423   3.025   1.834   3.475  0.7033  0.4207  1.5005
  179SLPC   C3920424   2.999   1.953   3.647 -0.1030 -0.0674  0.3564
  179SLPC   H9X20425   2.946   1.873   3.703  0.0050 -0.3527  0.0544
  179SLPC   H9Y20426   2.954   2.052   3.671 -2.1917 -0.8078 -0.2120
  179SLPC  C31020427   3.142   1.951   3.686 -0.3730  0.5611 -0.1480
  179SLPC  H10X20428   3.193   2.023   3.618 -0.5846 -0.6488 -1.6365
  179SLPC  H10Y20429   3.192   1.854   3.667 -1.3810  0.5038 -2.8205
  179SLPC  C31120430   3.178   2.003   3.831 -0.0932 -0.1908  0.0757
  179SLPC  H11X20431   3.288   2.006   3.849  0.0178  1.1731 -0.6557
  179SLPC  H11Y20432   3.130   1.939   3.907  0.7934  1.8135  2.4584
  179SLPC  C31220433   3.138   2.151   3.849 -0.4108  0.6786 -0.6645
  179SLPC  H12X20434   3.056   2.177   3.779 -0.2949  1.2487 -0.5981
  179SLPC  H12Y20435   3.234   2.203   3.831  0.9676 -1.6667 -0.5138
  179SLPC  C31320436   3.090   2.178   3.994 -0.9703  0.3948 -0.3503
  179SLPC  H13X20437   3.176   2.158   4.062 -2.3508  0.4246  1.4626
  179SLPC  H13Y20438   3.001   2.121   4.027 -0.6192 -0.3900 -0.7402
  179SLPC  C31420439   3.053   2.323   4.029  0.4638 -0.8716  0.9820
  179SLPC  H14X20440   2.982   2.374   3.960 -0.6295 -1.1873  1.8484
  179SLPC  H14Y20441   3.144   2.387   4.030 -0.2187  0.1783 -0.5439
  179SLPC  C31520442   2.989   2.344   4.158 -0.4017 -0.2870 -0.5478
  179SLPC  H15X20443   3.053   2.300   4.238  0.5135  1.1412 -0.4533
  179SLPC  H15Y20444   2.892   2.290   4.156  0.5052 -2.1776  1.4904
  179SLPC  C31620445   2.963   2.496   4.188 -0.0409  0.1790 -0.0290
  179SLPC  H16X20446   2.871   2.514   4.127  1.1491  0.1282 -1.9044
  179SLPC  H16Y20447   3.046   2.555   4.144  0.6138 -0.5916  0.1503
  179SLPC  C31720448   2.934   2.525   4.336 -0.5650 -0.2371 -0.4886
  179SLPC  H17X20449   2.864   2.443   4.362  1.1625 -1.8103 -0.6019
  179SLPC  H17Y20450   2.885   2.622   4.360  0.2933  0.4557 -1.4428
  179SLPC  C31820451   3.051   2.514   4.439  0.2880 -0.1712 -0.8408
  179SLPC  H18X20452   3.109   2.419   4.442  1.7366  0.7064  1.2721
  179SLPC  H18Y20453   3.004   2.539   4.537 -0.1187 -1.1016 -0.7876
  179SLPC  H18Z20454   3.125   2.591   4.410 -0.4082  0.6978 -0.3355
  180SLPC     N20455   1.341   1.382   1.714 -0.6752 -0.1451  0.1092
  180SLPC   C1320456   1.233   1.447   1.622  0.2241  0.2111 -0.0616
  180SLPC  H13A20457   1.247   1.549   1.588 -0.5363 -0.7078 -3.5246
  180SLPC  H13B20458   1.218   1.382   1.537  2.3213  0.3357 -0.5808
  180SLPC  H13C20459   1.143   1.459   1.679  1.7862 -0.1607  2.6585
  180SLPC   C1420460   1.476   1.389   1.640 -0.2583 -0.4347  0.7711
  180SLPC  H14A20461   1.474   1.357   1.536  0.3364  1.3032  0.1992
  180SLPC  H14B20462   1.504   1.492   1.656  0.8218 -0.5399 -0.2542
  180SLPC  H14C20463   1.546   1.322   1.688 -0.5188 -0.7617  0.7005
  180SLPC   C1520464   1.304   1.243   1.710  0.6671 -0.1281  0.5397
  180SLPC  H15A20465   1.308   1.204   1.610 -0.7623 -0.1647  0.4870
  180SLPC  H15B20466   1.384   1.186   1.757 -0.6966 -0.4662  2.5638
  180SLPC  H15C20467   1.216   1.221   1.769  0.9903 -0.8161  0.7775
  180SLPC   C1220468   1.353   1.434   1.856 -0.2655 -0.0746 -0.2567
  180SLPC  H12A20469   1.360   1.542   1.852 -2.9847  0.1512 -2.1495
  180SLPC  H12B20470   1.442   1.395   1.903  0.5294  0.3849 -1.3622
  180SLPC   C1120471   1.229   1.406   1.941  0.0565  0.7090  0.0969
  180SLPC  H11A20472   1.142   1.398   1.873  1.0596  0.3732 -1.2013
  180SLPC  H11B20473   1.215   1.493   2.009 -0.5731  0.9158 -0.2894
  180SLPC     P20474   1.147   1.189   2.049 -0.0459 -0.0750  0.0042
  180SLPC   O1320475   1.047   1.182   1.938  0.5252 -0.3866 -0.1582
  180SLPC   O1420476   1.206   1.060   2.088  0.2019  0.1613  0.0333
  180SLPC   O1220477   1.265   1.283   2.005 -0.3197 -0.2654  0.1222
  180SLPC   O1120478   1.087   1.254   2.180  0.3048  0.0379 -0.7857
  180SLPC    C120479   1.166   1.324   2.275  0.2757 -0.2302  0.1811
  180SLPC    HA20480   1.270   1.325   2.237  0.6279  1.5838  1.0894
  180SLPC    HB20481   1.133   1.430   2.274 -0.0371 -0.2991 -2.0088
  180SLPC    C220482   1.157   1.263   2.410 -0.1191  0.1138 -0.1355
  180SLPC    HS20483   1.217   1.170   2.411  0.4448  0.4818  1.0654
  180SLPC   O2120484   1.016   1.233   2.431  0.0715  0.1708  0.3749
  180SLPC   C2120485   0.988   1.129   2.502  0.0206  0.0560  0.0145
  180SLPC   O2220486   1.067   1.064   2.569 -0.0353 -0.7115  0.9903
  180SLPC   C2220487   0.842   1.098   2.503 -0.2749  0.1570 -0.3580
  180SLPC   H2R20488   0.802   1.100   2.399  1.0948 -1.7237 -0.9930
  180SLPC   H2S20489   0.830   1.000   2.555 -1.2092 -0.7108 -2.0773
  180SLPC    C320490   1.203   1.366   2.519  0.4345  0.3042 -0.6246
  180SLPC    HX20491   1.153   1.461   2.490 -0.3897 -0.3499 -1.4466
  180SLPC    HY20492   1.310   1.390   2.505 -0.0123  3.0649  0.1667
  180SLPC   O3120493   1.159   1.326   2.653 -0.3864 -0.7105  0.5366
  180SLPC   C3120494   1.257   1.267   2.721 -0.0332  0.1106  0.7433
  180SLPC   O3220495   1.364   1.231   2.674 -0.3255 -0.2340  0.2599
  180SLPC   C3220496   1.217   1.231   2.866  0.1236  0.7579 -0.8709
  180SLPC   H2X20497   1.121   1.174   2.862  1.2368 -1.6286  2.4786
  180SLPC   H2Y20498   1.200   1.325   2.923 -0.0880  0.7284 -0.8815
  180SLPC   C2320499   0.792   1.206   2.597  0.2378 -0.0765  0.2351
  180SLPC   H3R20500   0.681   1.211   2.587  0.3210 -0.2422 -0.9591
  180SLPC   H3S20501   0.816   1.312   2.574  1.7771  0.0246  2.0815
  180SLPC   C2420502   0.841   1.186   2.740 -0.5062  0.3829 -0.0393
  180SLPC   H4R20503   0.951   1.201   2.749 -0.4161 -0.8743  1.3063
  180SLPC   H4S20504   0.814   1.083   2.772 -2.5142  0.4846 -1.2258
  180SLPC   C2520505   0.776   1.284   2.837 -0.7538  0.1842 -0.0264
  180SLPC   H5R20506   0.666   1.284   2.826 -0.8536  0.5455  0.9204
  180SLPC   H5S20507   0.805   1.384   2.799  3.7844 -1.2910 -1.1007
  180SLPC   C2620508   0.806   1.267   2.988  0.6992  0.5739  0.6874
  180SLPC   H6R20509   0.804   1.368   3.034  2.3097  1.2849 -0.7087
  180SLPC   H6S20510   0.911   1.238   3.008  0.5780 -1.0484 -0.8263
  180SLPC   C2720511   0.725   1.149   3.049  0.1599  0.2997 -0.2261
  180SLPC   H7R20512   0.744   1.051   3.000 -0.7151 -0.2549  0.5040
  180SLPC   H7S20513   0.618   1.173   3.033  0.3755  0.5546 -1.3940
  180SLPC   C2820514   0.763   1.136   3.199 -0.1904 -0.0012 -0.4413
  180SLPC   H8R20515   0.866   1.106   3.226 -1.8313 -2.5806  4.0241
  180SLPC   H8S20516   0.714   1.043   3.234  0.8850 -0.1072  0.8605
  180SLPC   C2920517   0.732   1.255   3.292  0.3842  0.7748 -0.0810
  180SLPC   H9R20518   0.714   1.356   3.255  0.8937  1.8348  2.3635
  180SLPC  C21020519   0.711   1.229   3.425  0.1615 -0.0149 -0.3727
  180SLPC  H10R20520   0.661   1.307   3.483 -0.5230  0.7244 -1.9018
  180SLPC  C21120521   0.723   1.097   3.497  0.1195  0.1676 -0.0364
  180SLPC  H11R20522   0.673   1.012   3.446 -1.5323  0.9297  0.2558
  180SLPC  H11S20523   0.663   1.093   3.591 -1.0580 -4.0182 -0.7639
  180SLPC  C21220524   0.868   1.070   3.529  0.3115  0.2620 -0.5473
  180SLPC  H12R20525   0.930   1.022   3.452  1.7488 -1.6835  1.7056
  180SLPC  C21320526   0.922   1.115   3.649 -0.0740  0.0568  0.4857
  180SLPC  H13R20527   1.030   1.102   3.667 -0.2929 -0.2027  1.6647
  180SLPC  C21420528   0.862   1.188   3.765 -0.0865  0.4078  0.1797
  180SLPC  H14R20529   0.761   1.228   3.739  0.8510  2.3103 -0.7554
  180SLPC  H14S20530   0.920   1.279   3.790 -0.4016  0.5774  0.3041
  180SLPC  C21520531   0.856   1.098   3.887 -0.2732 -0.7673 -0.5015
  180SLPC  H15R20532   0.955   1.060   3.921  0.6161  2.2110  0.5930
  180SLPC  H15S20533   0.818   1.000   3.852 -2.1129 -1.1694  2.3348
  180SLPC  C21620534   0.781   1.159   4.002  0.0273 -0.9326  0.6830
  180SLPC  H16R20535   0.688   1.194   3.952  1.2331 -1.1993 -1.9077
  180SLPC  H16S20536   0.841   1.247   4.035 -1.3830  0.9401 -1.4543
  180SLPC  C21720537   0.754   1.058   4.117  0.3862  0.4519 -0.4009
  180SLPC  H17R20538   0.851   1.028   4.162 -0.7077  0.1251  1.9200
  180SLPC  H17S20539   0.708   0.963   4.084 -1.4653  0.9614  0.6073
  180SLPC  C21820540   0.669   1.118   4.228  0.6480 -0.5436  0.1106
  180SLPC  H18R20541   0.718   1.210   4.266 -0.2909  0.0876 -0.1763
  180SLPC  H18S20542   0.647   1.046   4.310 -3.4972 -0.5539 -0.7926
  180SLPC  H18T20543   0.571   1.135   4.178  0.1273 -3.2454  0.0304
  180SLPC   C3320544   1.324   1.153   2.941  0.3775 -0.3178 -0.1995
  180SLPC   H3X20545   1.423   1.196   2.917 -0.0525  0.0404 -1.4314
  180SLPC   H3Y20546   1.321   1.045   2.915  0.2778 -0.7276  1.3824
  180SLPC   C3420547   1.323   1.155   3.096  0.0616  1.1676  0.6277
  180SLPC   H4X20548   1.333   1.261   3.127 -0.1686  1.4517 -0.2405
  180SLPC   H4Y20549   1.424   1.124   3.131  1.0455  2.6294 -0.7992
  180SLPC   C3520550   1.205   1.089   3.177 -0.4365  0.2945  0.1547
  180SLPC   H5X20551   1.124   1.069   3.104  0.7780  0.4243 -1.2818
  180SLPC   H5Y20552   1.177   1.169   3.250  1.1342 -0.5276  1.7370
  180SLPC   C3620553   1.250   0.961   3.261 -0.2207 -0.2803  0.2760
  180SLPC   H6X20554   1.290   0.890   3.185 -2.3282  0.2862 -1.4561
  180SLPC   H6Y20555   1.150   0.927   3.296 -1.7676  1.6736 -1.9713
  180SLPC   C3720556   1.360   0.978   3.366 -0.0585  0.5002 -0.3975
  180SLPC   H7X20557   1.442   1.046   3.335  0.3601 -0.1528 -0.7398
  180SLPC   H7Y20558   1.410   0.881   3.387  1.7429  1.4706 -0.0133
  180SLPC   C3820559   1.300   1.033   3.490  0.3480  0.3569  0.4728
  180SLPC   H8X20560   1.203   0.980   3.505 -0.7284  2.3859  1.0703
  180SLPC   H8Y20561   1.260   1.136   3.475 -1.8806 -0.2815  1.5572
  180SLPC   C3920562   1.393   1.027   3.607  0.2474  0.1846  0.4605
  180SLPC   H9X20563   1.473   1.102   3.591 -1.9109  2.7975  1.1977
  180SLPC   H9Y20564   1.435   0.925   3.623 -1.7086 -0.5258  1.3067
  180SLPC  C31020565   1.318   1.055   3.743 -0.1321  0.0373 -0.4847
  180SLPC  H10X20566   1.227   0.991   3.746 -2.6820  3.3404 -1.4425
  180SLPC  H10Y20567   1.276   1.157   3.743  0.1034  0.2160  2.3787
  180SLPC  C31120568   1.400   1.049   3.869  0.3984 -0.5692  0.3407
  180SLPC  H11X20569   1.499   1.092   3.844  0.4274 -1.4660 -1.2312
  180SLPC  H11Y20570   1.416   0.940   3.887  1.0340 -0.4152  0.7608
  180SLPC  C31220571   1.344   1.119   3.990  0.2212  0.7003  0.3322
  180SLPC  H12X20572   1.244   1.076   4.010 -0.3663 -0.4033 -3.9385
  180SLPC  H12Y20573   1.329   1.228   3.978 -0.2584  0.5170 -0.8497
  180SLPC  C31320574   1.431   1.090   4.113 -0.2507  0.8837  0.0050
  180SLPC  H13X20575   1.378   1.135   4.199  0.4628 -1.0005  1.5132
  180SLPC  H13Y20576   1.529   1.141   4.108  1.4681 -1.8671  2.4562
  180SLPC  C31420577   1.443   0.942   4.157 -0.1618  0.1801 -0.2211
  180SLPC  H14X20578   1.479   0.891   4.066 -0.2475  0.7805 -0.5945
  180SLPC  H14Y20579   1.341   0.904   4.180 -0.2619 -1.1785 -2.6025
  180SLPC  C31520580   1.547   0.922   4.266  0.8887  0.3121  0.1366
  180SLPC  H15X20581   1.645   0.960   4.229  1.7359 -1.6822  0.1987
  180SLPC  H15Y20582   1.560   0.812   4.280 -0.4026  0.1400  0.0650
  180SLPC  C31620583   1.503   0.978   4.405  0.6497 -0.3683 -0.5469
  180SLPC  H16X20584   1.394   0.956   4.404  0.4768  0.3845 -2.1977
  180SLPC  H16Y20585   1.524   1.087   4.415 -1.2325 -0.0162 -0.0586
  180SLPC  C31720586   1.587   0.909   4.517 -0.3378  0.5344 -0.2848
  180SLPC  H17X20587   1.572   0.801   4.494 -0.4576  0.1245  1.5532
  180SLPC  H17Y20588   1.549   0.927   4.619  0.0088  1.0290 -0.2401
  180SLPC  C31820589   1.737   0.957   4.515  0.4990  0.2686  0.2447
  180SLPC  H18X20590   1.740   1.067   4.526  2.3184  0.8492 -4.0260
  180SLPC  H18Y20591   1.770   0.927   4.413 -0.2558 -2.0081  0.6087
  180SLPC  H18Z20592   1.802   0.909   4.592  0.5260  0.0590  0.0925
  181SLPC     N20593   0.216   0.695   2.358  0.4919  0.1961  0.0472
  181SLPC   C1320594   0.070   0.676   2.344 -0.8252 -0.3985  0.3620
  181SLPC  H13A20595   0.031   0.737   2.265 -0.6467 -2.1871 -1.1695
  181SLPC  H13B20596   0.043   0.577   2.309  0.7329 -1.1718  1.2131
  181SLPC  H13C20597   0.016   0.691   2.437 -1.3859  0.8075 -0.1410
  181SLPC   C1420598   0.255   0.825   2.412 -0.3828 -0.8532 -0.4405
  181SLPC  H14A20599   0.189   0.902   2.375  1.2140  0.8259  0.0528
  181SLPC  H14B20600   0.240   0.816   2.519  1.0773 -1.4656 -0.2637
  181SLPC  H14C20601   0.357   0.854   2.394 -0.8197  2.6633  1.7888
  181SLPC   C1520602   0.277   0.687   2.222  0.0522 -0.7343  0.6974
  181SLPC  H15A20603   0.383   0.702   2.237  0.2103  0.3240 -1.2481
  181SLPC  H15B20604   0.274   0.599   2.160 -0.1421  1.4373 -2.6408
  181SLPC  H15C20605   0.245   0.768   2.158  2.3563  1.5694  2.2265
  181SLPC   C1220606   0.274   0.580   2.438 -0.0575  0.2676  0.6271
  181SLPC  H12A20607   0.224   0.501   2.384  0.1180  1.3181 -1.1525
  181SLPC  H12B20608   0.233   0.577   2.538 -3.7581 -2.9604 -0.7181
  181SLPC   C1120609   0.431   0.562   2.439  0.1444 -0.0508  0.6493
  181SLPC  H11A20610   0.451   0.470   2.497 -0.1597 -1.3064 -1.1593
  181SLPC  H11B20611   0.478   0.648   2.492 -1.2613  1.0202  0.2257
  181SLPC     P20612   0.639   0.572   2.272  0.6150 -0.2688 -0.4167
  181SLPC   O1320613   0.695   0.442   2.237 -0.1875  0.4276 -0.3964
  181SLPC   O1420614   0.643   0.674   2.167  0.0514  0.0623  0.0452
  181SLPC   O1220615   0.493   0.543   2.313  0.0656 -0.3067  0.1237
  181SLPC   O1120616   0.718   0.616   2.399  0.1429 -0.4963  0.0808
  181SLPC    C120617   0.817   0.530   2.467  0.9936  0.2599  0.9978
  181SLPC    HA20618   0.785   0.424   2.476  1.4982  0.2348  2.7692
  181SLPC    HB20619   0.920   0.532   2.424  0.5768 -0.9092 -0.1038
  181SLPC    C220620   0.836   0.572   2.610 -0.6936  0.2887  0.6138
  181SLPC    HS20621   0.929   0.522   2.642 -0.2234 -1.3956 -2.8793
  181SLPC   O2120622   0.713   0.531   2.680 -0.0073  0.2491  0.5439
  181SLPC   C2120623   0.720   0.494   2.801 -0.0301  0.1758 -0.1139
  181SLPC   O2220624   0.824   0.471   2.862 -0.0220  0.0547  0.2090
  181SLPC   C2220625   0.582   0.480   2.868  0.6600 -0.2732  0.0308
  181SLPC   H2R20626   0.511   0.563   2.850  0.4505 -0.2827  0.7620
  181SLPC   H2S20627   0.533   0.385   2.837 -1.7040  0.2988  1.6859
  181SLPC    C320628   0.850   0.729   2.623  0.6465 -0.5804  0.5167
  181SLPC    HX20629   0.744   0.759   2.611  0.1590 -1.0448  3.1197
  181SLPC    HY20630   0.916   0.765   2.541 -0.2775 -1.8449 -0.8407
  181SLPC   O3120631   0.891   0.786   2.753 -0.3181  0.4874  0.5951
  181SLPC   C3120632   1.024   0.778   2.759  0.4348 -0.2318  0.5179
  181SLPC   O3220633   1.102   0.731   2.675  0.4497 -0.6348 -0.3270
  181SLPC   C3220634   1.071   0.830   2.895 -0.2776  0.3936 -0.5134
  181SLPC   H2X20635   1.103   0.936   2.882  2.5208 -0.2565  0.5710
  181SLPC   H2Y20636   1.162   0.776   2.927 -0.6478 -0.0690 -0.2258
  181SLPC   C2320637   0.600   0.453   3.021 -0.0217  0.5792 -0.0089
  181SLPC   H3R20638   0.652   0.540   3.068  1.8426  0.8930 -2.4285
  181SLPC   H3S20639   0.674   0.371   3.031 -1.5279 -0.6314  1.7483
  181SLPC   C2420640   0.476   0.392   3.088  0.0546  0.5087 -0.6376
  181SLPC   H4R20641   0.409   0.332   3.022  1.0483  0.2393 -1.4161
  181SLPC   H4S20642   0.418   0.470   3.143  0.5983  0.6674 -0.2831
  181SLPC   C2520643   0.521   0.292   3.200 -0.2075 -0.7481  0.0942
  181SLPC   H5R20644   0.594   0.222   3.154  1.0169  2.1491 -2.7112
  181SLPC   H5S20645   0.440   0.234   3.250 -1.5779 -0.2823 -1.4800
  181SLPC   C2620646   0.601   0.350   3.317 -0.6339 -0.1882  0.3553
  181SLPC   H6R20647   0.525   0.418   3.361 -1.2304 -1.5557  1.5465
  181SLPC   H6S20648   0.694   0.402   3.285  0.3032 -2.1221 -0.1790
  181SLPC   C2720649   0.654   0.250   3.418  0.3193 -0.5859 -0.1479
  181SLPC   H7R20650   0.646   0.148   3.376  0.3134  0.4791 -2.9386
  181SLPC   H7S20651   0.586   0.232   3.504 -0.0082 -2.3551 -0.7272
  181SLPC   C2820652   0.800   0.271   3.466 -0.7056 -0.2439  0.1620
  181SLPC   H8R20653   0.859   0.263   3.372 -1.3684  1.5266 -0.4451
  181SLPC   H8S20654   0.819   0.176   3.521  2.0622 -0.8388 -1.6250
  181SLPC   C2920655   0.833   0.396   3.547 -0.7792  0.7116 -0.1469
  181SLPC   H9R20656   0.859   0.484   3.486 -0.2840  2.4576  2.4255
  181SLPC  C21020657   0.836   0.393   3.683 -0.3976 -0.0308 -0.2570
  181SLPC  H10R20658   0.861   0.489   3.731  0.7816 -0.9877  1.1286
  181SLPC  C21120659   0.815   0.276   3.773  0.0629  0.9457 -0.1830
  181SLPC  H11R20660   0.894   0.265   3.849 -1.7242 -2.8233  1.4270
  181SLPC  H11S20661   0.813   0.181   3.714 -0.8449  2.5056 -2.8557
  181SLPC  C21220662   0.677   0.293   3.843 -0.1613  0.3069  0.3516
  181SLPC  H12R20663   0.595   0.273   3.772  0.7264 -0.8091 -0.4066
  181SLPC  C21320664   0.648   0.351   3.965 -0.2996  0.4358 -0.3560
  181SLPC  H13R20665   0.541   0.344   3.989 -0.4796  1.2856 -0.8311
  181SLPC  C21420666   0.750   0.400   4.064  0.2118  0.1264 -0.0602
  181SLPC  H14R20667   0.708   0.493   4.109 -1.0720 -1.1841  1.5669
  181SLPC  H14S20668   0.848   0.415   4.014  0.6253  0.1068  0.7248
  181SLPC  C21520669   0.764   0.290   4.175 -0.3684  0.0848 -0.2479
  181SLPC  H15R20670   0.774   0.184   4.144 -3.3591 -0.3153 -0.1883
  181SLPC  H15S20671   0.669   0.294   4.232  0.7473 -1.5196  1.8444
  181SLPC  C21620672   0.875   0.334   4.269  0.2148  0.7520  0.0904
  181SLPC  H16R20673   0.857   0.435   4.311 -2.3729  0.0260  0.8905
  181SLPC  H16S20674   0.973   0.338   4.216  1.5284  1.9739  2.4487
  181SLPC  C21720675   0.879   0.244   4.387 -0.3205  0.4750 -0.4125
  181SLPC  H17R20676   0.905   0.140   4.356 -1.0950 -0.0952  0.8107
  181SLPC  H17S20677   0.783   0.236   4.441 -0.4299  0.2076 -0.6432
  181SLPC  C21820678   0.992   0.295   4.476 -0.3726  0.3318  0.0003
  181SLPC  H18R20679   0.964   0.394   4.516  1.2129  0.6674  0.3036
  181SLPC  H18S20680   1.090   0.295   4.424  0.0631  1.5573  0.7986
  181SLPC  H18T20681   1.007   0.242   4.572 -0.7032 -0.7816 -0.5393
  181SLPC   C3320682   0.967   0.817   3.002  0.2086 -0.1901 -0.7202
  181SLPC   H3X20683   0.871   0.868   2.977  0.9811  0.9626 -1.4433
  181SLPC   H3Y20684   1.014   0.873   3.086  1.3015  1.5169 -2.3711
  181SLPC   C3420685   0.943   0.680   3.064 -0.1248 -0.0150  0.1055
  181SLPC   H4X20686   0.963   0.599   2.992  1.5010  0.2714  0.1866
  181SLPC   H4Y20687   0.842   0.659   3.105  0.5384 -2.0930  0.7893
  181SLPC   C3520688   1.041   0.649   3.179 -0.3130  0.3363 -0.0056
  181SLPC   H5X20689   1.142   0.695   3.172  0.2811 -0.4574  2.3674
  181SLPC   H5Y20690   1.058   0.539   3.172 -2.1247  0.0941 -1.3899
  181SLPC   C3620691   0.987   0.699   3.315 -1.1914  0.1390  0.7481
  181SLPC   H6X20692   0.887   0.655   3.332 -1.2723  0.4002  0.9573
  181SLPC   H6Y20693   0.984   0.810   3.321  2.5894  0.5682 -1.6940
  181SLPC   C3720694   1.077   0.657   3.433 -0.1076 -0.6615  0.0535
  181SLPC   H7X20695   1.174   0.705   3.410 -0.8990  1.8188  1.5940
  181SLPC   H7Y20696   1.075   0.547   3.447 -2.0630 -0.6260  0.3985
  181SLPC   C3820697   1.046   0.714   3.575  0.2581  0.1551 -0.8846
  181SLPC   H8X20698   0.936   0.710   3.593  0.1938  0.8989 -1.0650
  181SLPC   H8Y20699   1.075   0.821   3.588 -0.3535  0.2656 -0.3431
  181SLPC   C3920700   1.122   0.640   3.689 -0.1298 -0.0621 -0.8127
  181SLPC   H9X20701   1.233   0.649   3.685  0.0242  1.1622  2.6236
  181SLPC   H9Y20702   1.093   0.533   3.680  0.2005 -0.6321  3.0271
  181SLPC  C31020703   1.071   0.699   3.829  0.6548 -0.2828  0.2140
  181SLPC  H10X20704   0.964   0.671   3.826  0.3297  0.8187 -3.3320
  181SLPC  H10Y20705   1.077   0.810   3.821  0.5874 -0.2630  0.4344
  181SLPC  C31120706   1.146   0.649   3.951  0.0108 -0.3961 -0.1592
  181SLPC  H11X20707   1.255   0.668   3.936  0.0944  0.1751  1.0652
  181SLPC  H11Y20708   1.146   0.538   3.959 -0.5488 -0.3597  0.4028
  181SLPC  C31220709   1.094   0.713   4.079  0.0827 -0.5433 -0.8062
  181SLPC  H12X20710   0.993   0.668   4.092 -0.1281  0.1832  0.1055
  181SLPC  H12Y20711   1.091   0.822   4.059  1.5945  0.3863  3.2121
  181SLPC  C31320712   1.177   0.694   4.210 -0.3530 -0.2392 -0.1907
  181SLPC  H13X20713   1.143   0.762   4.290  3.9103  0.7438  1.0281
  181SLPC  H13Y20714   1.284   0.724   4.198 -0.3978  0.1939  0.4549
  181SLPC  C31420715   1.167   0.554   4.269 -0.1885  0.2976 -0.0178
  181SLPC  H14X20716   1.174   0.478   4.188 -0.9187 -1.1916  1.2593
  181SLPC  H14Y20717   1.062   0.540   4.303  0.2385 -0.6419  0.9549
  181SLPC  C31520718   1.269   0.524   4.388 -0.2453  0.6725 -0.1659
  181SLPC  H15X20719   1.376   0.529   4.356  0.5562  3.5055  2.5356
  181SLPC  H15Y20720   1.242   0.422   4.423 -0.1586  0.1349 -1.5694
  181SLPC  C31620721   1.249   0.613   4.511 -0.1237  0.0659  0.4828
  181SLPC  H16X20722   1.142   0.635   4.531 -0.3443 -1.4251  1.0637
  181SLPC  H16Y20723   1.286   0.713   4.479  0.3905 -0.4123 -0.4906
  181SLPC  C31720724   1.326   0.563   4.629 -0.2558  0.2759 -0.0762
  181SLPC  H17X20725   1.339   0.653   4.692 -1.0091 -1.0583  2.0949
  181SLPC  H17Y20726   1.425   0.520   4.603 -0.0288  0.6325  0.2002
  181SLPC  C31820727   1.254   0.471   4.728  0.6014  1.0929 -0.5495
  181SLPC  H18X20728   1.240   0.372   4.680  1.6179  0.4816  0.3688
  181SLPC  H18Y20729   1.154   0.508   4.760  0.2227 -0.0817 -0.3258
  181SLPC  H18Z20730   1.319   0.451   4.816  0.6846  0.9032 -0.6546
  182SLPC     N20731   2.562   1.030   2.194  0.1688 -0.7946  0.3869
  182SLPC   C1320732   2.436   1.086   2.129 -0.2922 -0.4324 -0.0603
  182SLPC  H13A20733   2.407   1.177   2.181 -1.8437  0.0552 -1.6604
  182SLPC  H13B20734   2.436   1.113   2.025 -1.6544 -0.6562 -0.1360
  182SLPC  H13C20735   2.355   1.015   2.144 -1.1066  0.1120 -1.6577
  182SLPC   C1420736   2.544   0.999   2.335  0.3828 -0.0222  0.3592
  182SLPC  H14A20737   2.631   0.948   2.374  0.8593  1.9490  2.0031
  182SLPC  H14B20738   2.541   1.074   2.412  0.3132 -1.1699  1.5100
  182SLPC  H14C20739   2.461   0.935   2.360  1.5851 -0.6150  3.1731
  182SLPC   C1520740   2.662   1.143   2.185 -0.0222  0.1996 -0.0202
  182SLPC  H15A20741   2.759   1.113   2.222 -0.8711  0.4311  2.5989
  182SLPC  H15B20742   2.669   1.180   2.083 -0.5080  0.9283  0.1985
  182SLPC  H15C20743   2.626   1.222   2.249  1.8804  0.6515  0.5662
  182SLPC   C1220744   2.620   0.910   2.124 -0.6184  0.1988 -0.2135
  182SLPC  H12A20745   2.650   0.942   2.026 -2.9647  0.0870 -1.0372
  182SLPC  H12B20746   2.539   0.841   2.102 -0.7013  0.6192 -1.2657
  182SLPC   C1120747   2.738   0.838   2.196  0.0323 -0.1077  0.2402
  182SLPC  H11A20748   2.824   0.907   2.207 -1.1836  1.5851 -0.3925
  182SLPC  H11B20749   2.793   0.779   2.120  1.1807 -0.9147  1.6436
  182SLPC     P20750   2.801   0.682   2.394  0.4055 -0.0073  0.3238
  182SLPC   O1320751   2.722   0.599   2.485  0.0815 -0.0086  0.2507
  182SLPC   O1420752   2.909   0.627   2.315 -0.6073 -0.1100 -0.1958
  182SLPC   O1220753   2.694   0.747   2.301 -0.3814 -0.4323  0.3594
  182SLPC   O1120754   2.856   0.812   2.473 -0.3833 -0.5777  0.0955
  182SLPC    C120755   2.804   0.827   2.607  0.6498 -0.2808 -0.0930
  182SLPC    HA20756   2.700   0.866   2.602  1.1119  0.9958 -0.0031
  182SLPC    HB20757   2.819   0.732   2.662 -0.5895  0.7323  2.1500
  182SLPC    C220758   2.869   0.927   2.700 -0.6315 -0.3331 -0.6428
  182SLPC    HS20759   2.859   1.019   2.640 -0.1149  0.2346  0.1143
  182SLPC   O2120760   3.013   0.893   2.716  0.2561  0.3266  0.1484
  182SLPC   C2120761   3.079   0.995   2.782  0.5758 -0.2269  0.2100
  182SLPC   O2220762   3.033   1.108   2.788  0.1239 -0.1493  0.6773
  182SLPC   C2220763   3.185   0.932   2.859  0.1771  0.7283 -0.5217
  182SLPC   H2R20764   3.147   0.835   2.897 -2.7501  1.5307 -1.2059
  182SLPC   H2S20765   3.275   0.922   2.794 -0.4847 -0.9472 -1.2291
  182SLPC    C320766   2.790   0.954   2.838 -0.1526  0.0449 -0.0270
  182SLPC    HX20767   2.688   0.981   2.803 -0.6647  0.0668  1.4050
  182SLPC    HY20768   2.829   1.042   2.894 -2.4352  1.2689 -0.2474
  182SLPC   O3120769   2.777   0.832   2.915 -0.1290  0.1884 -0.2304
  182SLPC   C3120770   2.682   0.831   3.014  0.0995 -0.4501  0.5330
  182SLPC   O3220771   2.599   0.919   3.029 -0.3362 -0.0811  0.0695
  182SLPC   C3220772   2.695   0.704   3.091  1.0222 -0.1779  0.2636
  182SLPC   H2X20773   2.801   0.689   3.121  0.8735  0.9567  1.4777
  182SLPC   H2Y20774   2.669   0.624   3.019 -1.5816  0.3605  0.5032
  182SLPC   C2320775   3.243   1.013   2.977  0.3172  0.5018 -0.6072
  182SLPC   H3R20776   3.292   1.096   2.920  2.5264 -1.3746 -1.6144
  182SLPC   H3S20777   3.331   0.964   3.024 -0.5457 -1.7311 -1.2178
  182SLPC   C2420778   3.148   1.059   3.084 -0.0706  0.5367 -0.2046
  182SLPC   H4R20779   3.070   1.130   3.051  1.1737  1.3704 -1.4798
  182SLPC   H4S20780   3.214   1.106   3.160  0.5562 -2.3326  1.1909
  182SLPC   C2520781   3.076   0.946   3.151 -0.5302 -0.5756 -1.2051
  182SLPC   H5R20782   3.147   0.871   3.193 -1.9625 -0.5072  1.5532
  182SLPC   H5S20783   3.013   0.896   3.075  1.3326 -0.1685 -3.1086
  182SLPC   C2620784   2.989   0.977   3.269 -0.2858  0.4126 -0.1397
  182SLPC   H6R20785   3.040   1.017   3.358 -3.5932  0.9703  1.6717
  182SLPC   H6S20786   2.941   0.885   3.307 -0.5881 -0.4453 -2.3975
  182SLPC   C2720787   2.872   1.077   3.237 -0.4498 -0.2786 -0.1399
  182SLPC   H7R20788   2.829   1.048   3.139 -0.7873  0.5375 -0.2482
  182SLPC   H7S20789   2.908   1.182   3.233  0.3144 -0.5544 -0.7010
  182SLPC   C2820790   2.749   1.083   3.330 -0.1290  0.4152  0.0172
  182SLPC   H8R20791   2.688   0.990   3.322 -1.9193  1.6802 -2.2387
  182SLPC   H8S20792   2.674   1.160   3.300 -0.6941 -0.2497 -0.3409
  182SLPC   C2920793   2.794   1.122   3.468  0.3718 -0.4052 -1.0613
  182SLPC   H9R20794   2.839   1.222   3.471 -1.0613  0.2606 -0.3942
  182SLPC  C21020795   2.786   1.045   3.579 -0.1826 -0.4372 -0.2561
  182SLPC  H10R20796   2.848   1.068   3.667  0.8576 -0.7808 -0.8765
  182SLPC  C21120797   2.744   0.900   3.581 -0.4449  0.3013  0.3315
  182SLPC  H11R20798   2.820   0.854   3.514  0.7102  2.2818  0.2072
  182SLPC  H11S20799   2.644   0.886   3.533 -0.9870 -0.4055  1.6086
  182SLPC  C21220800   2.739   0.853   3.721  0.1841  0.4227 -1.1215
  182SLPC  H12R20801   2.643   0.852   3.773  1.4952 -0.8801  1.4720
  182SLPC  C21320802   2.841   0.801   3.791  1.2021 -0.5262  0.0799
  182SLPC  H13R20803   2.824   0.767   3.894 -0.6446 -1.3636 -0.4580
  182SLPC  C21420804   2.980   0.793   3.755 -0.0178 -0.6411  0.2478
  182SLPC  H14R20805   3.040   0.835   3.838 -2.3670 -0.0863  1.7234
  182SLPC  H14S20806   3.013   0.862   3.673 -0.7252 -0.8792 -0.2450
  182SLPC  C21520807   3.029   0.652   3.724  0.1649 -0.6907  0.3484
  182SLPC  H15R20808   3.004   0.575   3.800  0.8128 -1.5348 -0.2622
  182SLPC  H15S20809   3.140   0.644   3.728  0.2808  1.0013  3.0370
  182SLPC  C21620810   2.966   0.594   3.593 -0.2285  0.2190 -0.4830
  182SLPC  H16R20811   2.862   0.634   3.589 -1.2400 -2.2160 -0.0633
  182SLPC  H16S20812   2.953   0.484   3.591  0.7586 -0.0768  2.7394
  182SLPC  C21720813   3.043   0.621   3.460 -0.0768 -0.6193  0.1727
  182SLPC  H17R20814   3.152   0.603   3.468 -0.4285 -2.8202  0.6989
  182SLPC  H17S20815   3.039   0.731   3.444  0.6272 -0.4065  1.3504
  182SLPC  C21820816   2.987   0.562   3.322  0.2666 -0.4511 -0.1936
  182SLPC  H18R20817   2.949   0.459   3.344 -0.1468 -0.1149  0.7220
  182SLPC  H18S20818   3.075   0.547   3.257 -0.2181  0.3151 -1.0355
  182SLPC  H18T20819   2.908   0.625   3.276  1.6289  1.5463  0.1250
  182SLPC   C3320820   2.609   0.689   3.220  0.3440 -0.6195 -0.0798
  182SLPC   H3X20821   2.513   0.737   3.195  1.7422  0.9437 -3.0909
  182SLPC   H3Y20822   2.664   0.748   3.296 -2.6175  1.2426  0.7399
  182SLPC   C3420823   2.601   0.549   3.283 -0.9796  0.2693 -0.1217
  182SLPC   H4X20824   2.708   0.519   3.286 -0.9777  0.3243  0.4534
  182SLPC   H4Y20825   2.549   0.487   3.207  0.9059  0.4125 -1.6042
  182SLPC   C3520826   2.549   0.553   3.425 -0.2377  0.1089  0.3240
  182SLPC   H5X20827   2.439   0.535   3.429 -0.0994 -0.5367  2.5598
  182SLPC   H5Y20828   2.582   0.647   3.472 -0.7160 -0.5256  1.9879
  182SLPC   C3620829   2.617   0.448   3.525  0.7243 -0.6668 -0.0187
  182SLPC   H6X20830   2.725   0.466   3.508  0.6880  0.2752  0.6624
  182SLPC   H6Y20831   2.589   0.342   3.503  2.0590 -1.4887  1.8944
  182SLPC   C3720832   2.585   0.470   3.670  0.2298  0.4904 -0.2054
  182SLPC   H7X20833   2.588   0.577   3.700  1.1637  0.1456  0.9870
  182SLPC   H7Y20834   2.653   0.407   3.730 -1.2791 -2.6948 -1.5803
  182SLPC   C3820835   2.442   0.433   3.698  0.1501  0.2574  0.4043
  182SLPC   H8X20836   2.431   0.331   3.654  2.1527  0.3216 -0.3674
  182SLPC   H8Y20837   2.372   0.482   3.627  0.6298 -0.3206 -0.4853
  182SLPC   C3920838   2.390   0.458   3.837  0.1035  0.3852 -0.1652
  182SLPC   H9X20839   2.444   0.387   3.904  1.5236  0.3714 -1.2913
  182SLPC   H9Y20840   2.284   0.425   3.842  0.7624 -1.7104  1.4202
  182SLPC  C31020841   2.401   0.598   3.885  0.4150  0.3805 -0.3221
  182SLPC  H10X20842   2.374   0.675   3.811 -1.6456  3.4136  3.2216
  182SLPC  H10Y20843   2.507   0.615   3.913  0.0496  0.4753  1.0969
  182SLPC  C31120844   2.324   0.621   4.013  0.2737  0.1125 -0.7084
  182SLPC  H11X20845   2.354   0.541   4.083  2.2151  1.6115  0.2550
  182SLPC  H11Y20846   2.217   0.607   3.988  0.0064 -1.1697  0.9982
  182SLPC  C31220847   2.362   0.758   4.073  0.0211  0.0435  0.1653
  182SLPC  H12X20848   2.261   0.788   4.106 -0.7378 -1.2096 -0.8967
  182SLPC  H12Y20849   2.395   0.815   3.983 -1.2730 -0.1556 -0.4580
  182SLPC  C31320850   2.454   0.756   4.194  0.0252  0.0097 -0.1396
  182SLPC  H13X20851   2.418   0.681   4.268  0.8029 -0.4723 -0.2397
  182SLPC  H13Y20852   2.451   0.850   4.252  1.1040 -0.9918  1.6083
  182SLPC  C31420853   2.601   0.720   4.144 -0.9135 -0.8418 -0.8762
  182SLPC  H14X20854   2.645   0.801   4.081 -0.3646  1.5437  2.2899
  182SLPC  H14Y20855   2.590   0.628   4.084 -1.9172 -1.6257  0.4673
  182SLPC  C31520856   2.694   0.683   4.263 -0.1871 -0.1226  0.2217
  182SLPC  H15X20857   2.641   0.609   4.327  0.0349  0.5160  1.1703
  182SLPC  H15Y20858   2.707   0.776   4.323 -2.3001 -0.4274  1.2458
  182SLPC  C31620859   2.831   0.610   4.248  0.3057  0.0674 -0.4411
  182SLPC  H16X20860   2.829   0.515   4.191 -1.2299 -0.6443  0.7178
  182SLPC  H16Y20861   2.857   0.584   4.353 -1.5653  0.9492  0.2806
  182SLPC  C31720862   2.942   0.699   4.180  0.2227 -0.0741 -0.1796
  182SLPC  H17X20863   2.938   0.798   4.229  2.1876 -1.3125  2.7725
  182SLPC  H17Y20864   2.918   0.719   4.073  0.0950  0.6336 -0.0239
  182SLPC  C31820865   3.083   0.643   4.183  0.4875 -0.1394 -0.3522
  182SLPC  H18X20866   3.155   0.726   4.171 -0.3152  0.7552  0.8446
  182SLPC  H18Y20867   3.109   0.553   4.124  0.6826 -0.7877  0.6834
  182SLPC  H18Z20868   3.108   0.612   4.287  1.8398  0.1837 -0.5700
  183SLPC     N20869   3.858   4.330   1.864  0.5394 -0.7446 -0.1184
  183SLPC   C1320870   3.973   4.424   1.853  0.2291  0.3792  0.2588
  183SLPC  H13A20871   3.981   4.513   1.914  2.0865  0.2340  0.2694
  183SLPC  H13B20872   4.061   4.364   1.874 -2.1441 -3.0093  1.4631
  183SLPC  H13C20873   3.985   4.464   1.754  0.5492  0.2964  0.2626
  183SLPC   C1420874   3.873   4.219   1.765  0.5203  0.5575  0.2271
  183SLPC  H14A20875   3.956   4.152   1.783 -0.7015 -1.8488 -2.1433
  183SLPC  H14B20876   3.795   4.146   1.784  1.5269 -0.4506  0.6082
  183SLPC  H14C20877   3.869   4.250   1.661  0.7670  1.6377  0.5337
  183SLPC   C1520878   3.737   4.402   1.831  0.4599 -0.2841 -1.0752
  183SLPC  H15A20879   3.741   4.509   1.838 -2.2574 -0.2237  1.8212
  183SLPC  H15B20880   3.703   4.381   1.730  1.5764 -0.4985 -1.4172
  183SLPC  H15C20881   3.646   4.363   1.875  0.3008  2.3598  1.1804
  183SLPC   C1220882   3.841   4.265   2.004  0.2074  0.6315 -0.6486
  183SLPC  H12A20883   3.752   4.205   2.006  1.3554 -1.1786  2.3353
  183SLPC  H12B20884   3.816   4.343   2.074 -1.0993 -0.9434  0.7295
  183SLPC   C1120885   3.958   4.178   2.066  0.3876  0.1293  0.4473
  183SLPC  H11A20886   3.972   4.084   2.010 -2.4820  0.1962 -0.5418
  183SLPC  H11B20887   3.914   4.141   2.161  0.8182 -2.7495 -0.4053
  183SLPC     P20888   4.221   4.208   2.063  0.4366  0.3356  0.4380
  183SLPC   O1320889   4.227   4.090   1.971 -0.2383  0.0204 -0.1718
  183SLPC   O1420890   4.306   4.321   2.026 -0.2977 -0.2731 -0.0778
  183SLPC   O1220891   4.073   4.263   2.082  0.2209  0.4869  0.4824
  183SLPC   O1120892   4.263   4.172   2.208  0.2406  0.0983  0.1578
  183SLPC    C120893   4.188   4.161   2.324 -0.1123 -0.2712  0.5412
  183SLPC    HA20894   4.169   4.267   2.351  1.8529  0.3846 -0.4426
  183SLPC    HB20895   4.095   4.101   2.312 -1.6013  1.6259  1.9490
  183SLPC    C220896   4.264   4.114   2.450  0.2607 -0.4380 -0.3392
  183SLPC    HS20897   4.353   4.180   2.456  1.4412 -1.9957  0.1480
  183SLPC   O2120898   4.308   3.974   2.436 -0.2076  0.1133 -0.4012
  183SLPC   C2120899   4.426   3.953   2.499  0.3335  0.1181 -0.5707
  183SLPC   O2220900   4.497   4.041   2.544  0.3787 -0.0825 -0.1588
  183SLPC   C2220901   4.441   3.807   2.522 -0.8806  1.1136  0.5192
  183SLPC   H2R20902   4.358   3.742   2.487  0.0458 -0.7487  1.6544
  183SLPC   H2S20903   4.533   3.777   2.467 -0.6546 -0.6332  1.7903
  183SLPC    C320904   4.179   4.123   2.571  0.2094  0.4782  0.1553
  183SLPC    HX20905   4.086   4.064   2.554 -0.1661  1.2979 -0.7432
  183SLPC    HY20906   4.147   4.228   2.590  0.4130  0.1393  2.7562
  183SLPC   O3120907   4.241   4.088   2.695 -0.2929  0.7878 -0.0154
  183SLPC   C3120908   4.329   4.176   2.756 -0.3823  0.2438  0.2074
  183SLPC   O3220909   4.341   4.292   2.720  0.4389 -0.3724  0.1404
  183SLPC   C3220910   4.401   4.104   2.867  0.2917 -0.6999 -0.2545
  183SLPC   H2X20911   4.491   4.062   2.817  0.7221  1.4624 -1.4083
  183SLPC   H2Y20912   4.339   4.028   2.918  1.1544 -1.0481  0.3097
  183SLPC   C2320913   4.473   3.777   2.671 -1.3292 -0.3222  0.2845
  183SLPC   H3R20914   4.390   3.792   2.744  0.7051 -0.2320  2.7038
  183SLPC   H3S20915   4.555   3.840   2.711  1.0576 -2.2580 -1.3090
  183SLPC   C2420916   4.534   3.632   2.702  0.0298  0.2355 -0.6678
  183SLPC   H4R20917   4.634   3.615   2.657 -0.2187  0.4446 -1.3014
  183SLPC   H4S20918   4.473   3.557   2.649 -1.2248 -0.4677  1.6047
  183SLPC   C2520919   4.543   3.585   2.850 -0.1269 -0.1709  0.2214
  183SLPC   H5R20920   4.574   3.479   2.848  0.7679  0.0955 -1.6973
  183SLPC   H5S20921   4.444   3.589   2.901  1.1691  0.9349  2.8398
  183SLPC   C2620922   4.645   3.664   2.927  0.7261  0.1721 -0.0405
  183SLPC   H6R20923   4.728   3.696   2.862  1.4765 -0.2019  0.7186
  183SLPC   H6S20924   4.678   3.591   3.004  0.9335  0.3024 -0.0052
  183SLPC   C2720925   4.581   3.795   2.989 -0.0482 -0.1054  0.2250
  183SLPC   H7R20926   4.533   3.857   2.910 -0.6813  0.0529  0.7210
  183SLPC   H7S20927   4.668   3.848   3.033  0.2035 -0.0976 -0.2730
  183SLPC   C2820928   4.470   3.765   3.092 -0.2349  0.0688 -0.2367
  183SLPC   H8R20929   4.424   3.665   3.078  0.3980 -0.4828  1.3679
  183SLPC   H8S20930   4.395   3.845   3.076 -0.1902 -0.1411 -1.5441
  183SLPC   C2920931   4.536   3.776   3.230 -0.0355  0.3432  0.5103
  183SLPC   H9R20932   4.566   3.880   3.251 -0.8336  0.4142  1.3661
  183SLPC  C21020933   4.557   3.688   3.332  0.2929 -0.2750  0.7945
  183SLPC  H10R20934   4.596   3.728   3.427  0.4208 -1.1730  1.1273
  183SLPC  C21120935   4.524   3.549   3.336  0.3827  0.0739  0.0630
  183SLPC  H11R20936   4.462   3.516   3.250 -0.0873 -0.8007  0.7171
  183SLPC  H11S20937   4.471   3.531   3.432 -0.9057 -0.0440 -0.6533
  183SLPC  C21220938   4.645   3.461   3.330  0.1493 -0.2157 -0.4068
  183SLPC  H12R20939   4.742   3.508   3.306 -0.2031  0.1692 -1.0863
  183SLPC  C21320940   4.657   3.331   3.352 -0.1067 -0.9609 -0.0045
  183SLPC  H13R20941   4.760   3.294   3.341  0.0595 -0.6838  0.6090
  183SLPC  C21420942   4.550   3.227   3.388 -0.2819 -0.3272  0.8910
  183SLPC  H14R20943   4.451   3.277   3.391 -0.3541 -0.4781  1.0927
  183SLPC  H14S20944   4.579   3.191   3.489  3.2518  0.3303  0.2266
  183SLPC  C21520945   4.545   3.100   3.295  0.4559  0.6849 -0.3453
  183SLPC  H15R20946   4.507   3.131   3.195 -0.3245  2.0706  0.3511
  183SLPC  H15S20947   4.471   3.025   3.332  0.5073  0.7368 -0.1421
  183SLPC  C21620948   4.678   3.026   3.267  0.6783 -0.2509 -0.4645
  183SLPC  H16R20949   4.723   3.001   3.366 -1.5836 -3.0126 -0.0042
  183SLPC  H16S20950   4.743   3.095   3.210 -0.3498 -0.8646 -2.4906
  183SLPC  C21720951   4.675   2.904   3.170  0.0648  0.2328  0.0168
  183SLPC  H17R20952   4.608   2.926   3.084 -0.5732  1.1579  0.7302
  183SLPC  H17S20953   4.623   2.820   3.221 -2.2045  1.8509  0.5065
  183SLPC  C21820954   4.817   2.864   3.130 -0.7702  0.4681  0.2844
  183SLPC  H18R20955   4.825   2.787   3.050  3.1840  0.3394  0.6052
  183SLPC  H18S20956   4.858   2.823   3.225  1.2293 -0.5741 -0.9407
  183SLPC  H18T20957   4.876   2.951   3.093 -0.4368 -0.0914 -0.5381
  183SLPC   C3320958   4.450   4.198   2.985  0.0472 -0.4095 -0.3284
  183SLPC   H3X20959   4.498   4.287   2.938  0.5218 -1.1800 -1.3215
  183SLPC   H3Y20960   4.523   4.145   3.050 -1.4507 -2.9266 -0.5704
  183SLPC   C3420961   4.337   4.256   3.075 -0.5395 -0.0233 -0.2061
  183SLPC   H4X20962   4.282   4.167   3.113  2.8479 -2.1329  0.0872
  183SLPC   H4Y20963   4.265   4.312   3.011  0.0509  0.7330 -0.2293
  183SLPC   C3520964   4.374   4.327   3.200 -0.4995 -0.1103  0.0116
  183SLPC   H5X20965   4.312   4.419   3.212 -1.3616 -0.8321  1.3505
  183SLPC   H5Y20966   4.479   4.364   3.204 -1.2669  2.1385  1.7489
  183SLPC   C3620967   4.369   4.233   3.327  0.4723 -0.0741  0.1556
  183SLPC   H6X20968   4.441   4.148   3.322  0.0383 -0.4113 -0.4628
  183SLPC   H6Y20969   4.268   4.189   3.339  0.6990 -0.0682  2.7270
  183SLPC   C3720970   4.395   4.310   3.459  0.3198 -0.0289  0.8649
  183SLPC   H7X20971   4.322   4.394   3.465 -1.1080 -1.1970  0.5652
  183SLPC   H7Y20972   4.491   4.365   3.454 -0.6939  2.2329  3.6602
  183SLPC   C3820973   4.407   4.222   3.585  0.2874 -0.0003  0.1180
  183SLPC   H8X20974   4.479   4.140   3.564  4.0236  3.1871 -0.6251
  183SLPC   H8Y20975   4.310   4.186   3.627  2.0103 -1.5257  3.1227
  183SLPC   C3920976   4.466   4.310   3.697 -0.0678 -0.0834  0.2281
  183SLPC   H9X20977   4.391   4.389   3.721 -0.8787 -0.4377 -1.0843
  183SLPC   H9Y20978   4.551   4.364   3.651  1.7281 -1.7101  1.4634
  183SLPC  C31020979   4.497   4.237   3.825  0.1201  0.4221  0.1095
  183SLPC  H10X20980   4.554   4.145   3.799 -1.5929 -0.5541 -0.3327
  183SLPC  H10Y20981   4.409   4.198   3.879  1.6478 -0.9229  1.7608
  183SLPC  C31120982   4.572   4.321   3.926  0.0108 -0.3132  0.3543
  183SLPC  H11X20983   4.507   4.406   3.954  0.6844  0.6494 -0.9120
  183SLPC  H11Y20984   4.665   4.362   3.882  1.8543 -3.3783  1.0646
  183SLPC  C31220985   4.618   4.238   4.049  0.8444 -0.3068 -0.0517
  183SLPC  H12X20986   4.699   4.173   4.010  2.2020  1.2605  0.0908
  183SLPC  H12Y20987   4.538   4.175   4.094  0.7333  1.1009  1.8409
  183SLPC  C31320988   4.676   4.316   4.172  0.0149 -0.6754  0.0323
  183SLPC  H13X20989   4.584   4.357   4.218  0.4381  0.1408  0.1652
  183SLPC  H13Y20990   4.734   4.402   4.133 -0.9158 -0.5611 -1.1513
  183SLPC  C31420991   4.769   4.240   4.270 -0.0036 -0.3502 -0.1455
  183SLPC  H14X20992   4.822   4.307   4.341  0.0394  0.9337 -1.3209
  183SLPC  H14Y20993   4.848   4.193   4.208  1.2849  0.4645  0.8352
  183SLPC  C31520994   4.700   4.122   4.347  0.1526 -0.4747 -0.0545
  183SLPC  H15X20995   4.673   4.045   4.271  1.4911 -0.9151 -0.1023
  183SLPC  H15Y20996   4.608   4.167   4.390  0.3537 -0.3930  0.2902
  183SLPC  C31620997   4.793   4.060   4.453  0.0941  0.2122  0.7471
  183SLPC  H16X20998   4.791   4.133   4.537  0.7478  2.5848 -1.2016
  183SLPC  H16Y20999   4.897   4.074   4.417 -0.0530 -0.5342  0.0069
  183SLPC  C31721000   4.756   3.915   4.487 -1.5319 -0.1336  0.3964
  183SLPC  H17X21001   4.834   3.876   4.556  1.1584  2.0100 -1.2159
  183SLPC  H17Y21002   4.778   3.853   4.398 -1.1960  2.5733 -1.5542
  183SLPC  C31821003   4.613   3.882   4.533 -0.1387  0.2337 -0.3126
  183SLPC  H18X21004   4.607   3.775   4.561  0.8584 -0.0793 -1.2177
  183SLPC  H18Y21005   4.544   3.903   4.449 -1.9893 -2.4166  0.4420
  183SLPC  H18Z21006   4.589   3.938   4.626 -0.8059 -0.9551  0.2407
  184SLPC     N21007   6.228   3.293   1.890 -0.4668  0.5438  0.6852
  184SLPC   C1321008   6.189   3.198   1.785  0.6406 -0.3610 -0.2097
  184SLPC  H13A21009   6.086   3.204   1.752  0.6604  1.5782 -0.0544
  184SLPC  H13B21010   6.250   3.208   1.697  0.5162  0.0035 -0.2592
  184SLPC  H13C21011   6.219   3.097   1.808 -0.5135 -0.5431  0.6159
  184SLPC   C1421012   6.224   3.432   1.838 -0.1979 -0.2185 -0.1423
  184SLPC  H14A21013   6.247   3.507   1.913  2.1348 -0.4781 -0.5284
  184SLPC  H14B21014   6.288   3.437   1.752  1.2042 -1.6862  0.7565
  184SLPC  H14C21015   6.126   3.462   1.804  0.5485  1.6368 -0.7982
  184SLPC   C1521016   6.377   3.264   1.927  0.3571 -0.2448  0.6514
  184SLPC  H15A21017   6.400   3.353   1.985  1.7959 -0.3507  0.2756
  184SLPC  H15B21018   6.383   3.180   1.995 -1.8189  0.5368  1.9059
  184SLPC  H15C21019   6.427   3.261   1.831 -0.3745 -0.2118  0.2634
  184SLPC   C1221020   6.138   3.283   2.016 -0.0138 -0.2363 -0.1704
  184SLPC  H12A21021   6.150   3.187   2.063  1.1836 -0.3692 -0.7226
  184SLPC  H12B21022   6.034   3.282   1.987 -0.0085 -2.5079 -0.2999
  184SLPC   C1121023   6.166   3.391   2.120 -0.2401  0.3922 -0.3576
  184SLPC  H11A21024   6.092   3.379   2.202  0.8917 -3.2014  0.2852
  184SLPC  H11B21025   6.154   3.488   2.066  2.5650  0.0964 -1.6442
  184SLPC     P21026   6.345   3.307   2.295 -0.3118  0.1362 -0.0737
  184SLPC   O1321027   6.309   3.165   2.290 -0.0391 -0.8901 -0.7733
  184SLPC   O1421028   6.491   3.335   2.311  0.2205 -0.3565  0.7984
  184SLPC   O1221029   6.299   3.384   2.165  0.0918  0.6592  0.4291
  184SLPC   O1121030   6.248   3.379   2.403 -0.3679  0.1662 -0.2573
  184SLPC    C121031   6.280   3.514   2.433  0.6716  0.4866  0.1516
  184SLPC    HA21032   6.358   3.558   2.367 -1.2176  1.7862 -1.3007
  184SLPC    HB21033   6.194   3.579   2.406  0.7975  0.4577 -0.3165
  184SLPC    C221034   6.301   3.531   2.585 -0.1629  0.4927  0.0958
  184SLPC    HS21035   6.292   3.640   2.605 -1.5171  0.5196 -0.6086
  184SLPC   O2121036   6.433   3.488   2.629 -0.0362  0.6168  0.1399
  184SLPC   C2121037   6.534   3.573   2.611  0.8241  0.3231  0.5246
  184SLPC   O2221038   6.521   3.695   2.594  0.2561  0.1721  0.1538
  184SLPC   C2221039   6.670   3.513   2.646  0.6630 -0.4892  0.0597
  184SLPC   H2R21040   6.663   3.405   2.674 -2.1901 -0.2737  0.5012
  184SLPC   H2S21041   6.723   3.518   2.548  0.8080  0.8134  0.1881
  184SLPC    C321042   6.194   3.463   2.675  0.2926 -0.2493 -0.4028
  184SLPC    HX21043   6.210   3.354   2.661  2.0051 -0.1487  0.4627
  184SLPC    HY21044   6.091   3.481   2.639 -0.6676 -0.3320  2.0876
  184SLPC   O3121045   6.215   3.506   2.808 -0.0329 -0.4563 -0.0446
  184SLPC   C3121046   6.202   3.416   2.902  0.0840  0.1766  0.3202
  184SLPC   O3221047   6.154   3.304   2.897 -0.3440  0.3286  0.5213
  184SLPC   C3221048   6.253   3.483   3.033  0.3856 -0.2012  0.3990
  184SLPC   H2X21049   6.194   3.573   3.058 -0.6041 -0.6464 -0.2871
  184SLPC   H2Y21050   6.353   3.524   3.007  0.7303 -1.5113 -0.4472
  184SLPC   C2321051   6.743   3.586   2.759  0.5697 -0.4324 -0.6869
  184SLPC   H3R21052   6.744   3.693   2.728  1.6699  0.0484  0.8778
  184SLPC   H3S21053   6.849   3.554   2.756  0.1919 -1.6359 -3.1860
  184SLPC   C2421054   6.682   3.569   2.898  0.8235  1.0160 -0.2070
  184SLPC   H4R21055   6.668   3.459   2.897  0.5680  1.0476 -1.5021
  184SLPC   H4S21056   6.579   3.605   2.914  0.5474 -0.6323  2.1187
  184SLPC   C2521057   6.785   3.599   3.007 -0.3965  0.3052 -0.4112
  184SLPC   H5R21058   6.792   3.710   3.017  2.3236  0.1603  0.0076
  184SLPC   H5S21059   6.887   3.567   2.978 -1.2323 -1.1131 -1.9293
  184SLPC   C2621060   6.768   3.524   3.138  0.2130  0.3274  0.3154
  184SLPC   H6R21061   6.769   3.413   3.126  1.8108  0.5361 -1.9505
  184SLPC   H6S21062   6.674   3.555   3.189  0.0524 -0.4887  0.5321
  184SLPC   C2721063   6.892   3.550   3.234 -0.0905 -0.5165  1.2033
  184SLPC   H7R21064   6.909   3.659   3.249  1.5078 -0.5017 -0.4185
  184SLPC   H7S21065   6.985   3.506   3.192 -1.1231 -1.1943 -0.4809
  184SLPC   C2821066   6.866   3.494   3.378  0.2759 -0.0159 -0.4677
  184SLPC   H8R21067   6.953   3.526   3.439 -1.5799  0.5316  2.0479
  184SLPC   H8S21068   6.875   3.383   3.371  0.3653  0.0152 -0.8897
  184SLPC   C2921069   6.746   3.526   3.459  0.5135 -0.2618 -0.4593
  184SLPC   H9R21070   6.659   3.546   3.395  0.5461  0.9294 -0.1589
  184SLPC  C21021071   6.729   3.539   3.591 -0.7546  0.3433  0.5681
  184SLPC  H10R21072   6.628   3.554   3.635 -0.6986 -0.1413  0.8664
  184SLPC  C21121073   6.835   3.522   3.694  0.0913 -0.7949  0.6356
  184SLPC  H11R21074   6.924   3.587   3.685  1.6083 -2.3955  3.0409
  184SLPC  H11S21075   6.888   3.425   3.685  1.0474 -0.2988  0.7959
  184SLPC  C21221076   6.789   3.546   3.837 -0.3049 -0.4943 -0.1747
  184SLPC  H12R21077   6.706   3.618   3.847 -0.2808 -0.7734  3.1232
  184SLPC  C21321078   6.821   3.482   3.948 -0.3736  0.1018  0.5402
  184SLPC  H13R21079   6.771   3.520   4.038 -0.5307 -1.4514  1.1355
  184SLPC  C21421080   6.921   3.378   3.979  0.2816  0.0119  0.2868
  184SLPC  H14R21081   6.974   3.338   3.890 -0.6620 -1.8936  0.5379
  184SLPC  H14S21082   6.868   3.286   4.011  1.1529 -1.0877 -1.3138
  184SLPC  C21521083   7.033   3.409   4.080  0.2106 -0.3463 -0.4348
  184SLPC  H15R21084   6.990   3.407   4.182 -0.4504 -2.3796 -0.7096
  184SLPC  H15S21085   7.081   3.508   4.068 -1.8746  0.8734  0.7412
  184SLPC  C21621086   7.132   3.292   4.085  0.3960 -1.0784 -1.0317
  184SLPC  H16R21087   7.171   3.290   3.981 -1.6403 -1.3829 -1.8307
  184SLPC  H16S21088   7.080   3.196   4.106  1.9099 -1.7934 -0.3783
  184SLPC  C21721089   7.245   3.314   4.188 -0.4080  0.5049  0.3544
  184SLPC  H17R21090   7.214   3.330   4.294  1.7218  1.7189  0.8593
  184SLPC  H17S21091   7.306   3.401   4.157  1.5896 -1.2190 -0.8026
  184SLPC  C21821092   7.337   3.185   4.183  0.7066 -0.1500 -0.1064
  184SLPC  H18R21093   7.421   3.202   4.253 -0.6359  1.5490  1.1834
  184SLPC  H18S21094   7.368   3.185   4.077 -2.0242 -1.1898 -1.0128
  184SLPC  H18T21095   7.283   3.088   4.194  1.1079 -0.3354  0.2568
  184SLPC   C3321096   6.272   3.378   3.148  0.5404  0.1457 -0.4138
  184SLPC   H3X21097   6.338   3.298   3.110  1.3173  0.3496  0.4590
  184SLPC   H3Y21098   6.172   3.331   3.155  0.3032  0.6705 -0.1898
  184SLPC   C3421099   6.321   3.423   3.284 -0.1887  0.1263 -0.3340
  184SLPC   H4X21100   6.276   3.520   3.317 -4.0117 -1.2026 -1.1306
  184SLPC   H4Y21101   6.430   3.445   3.280 -0.3763  1.1142 -0.4509
  184SLPC   C3521102   6.290   3.321   3.391 -0.4360  0.8129 -0.0878
  184SLPC   H5X21103   6.320   3.220   3.356 -1.6422  0.6152 -0.5847
  184SLPC   H5Y21104   6.180   3.325   3.405 -0.6046  2.7200 -1.5302
  184SLPC   C3621105   6.344   3.358   3.527 -0.1053 -0.5139  0.1583
  184SLPC   H6X21106   6.337   3.467   3.547  1.8648 -0.6966  2.2254
  184SLPC   H6Y21107   6.449   3.321   3.531 -0.9170 -2.9813  0.6950
  184SLPC   C3721108   6.265   3.289   3.644 -0.2249 -0.2697  1.3472
  184SLPC   H7X21109   6.262   3.179   3.634 -1.4416 -0.3240  2.0883
  184SLPC   H7Y21110   6.163   3.333   3.640 -0.3572 -0.6544 -0.9140
  184SLPC   C3821111   6.333   3.324   3.773 -0.0134  0.2169  0.4004
  184SLPC   H8X21112   6.440   3.295   3.768 -0.2733 -0.5842 -0.7478
  184SLPC   H8Y21113   6.291   3.255   3.850 -0.5860 -0.4835 -0.5153
  184SLPC   C3921114   6.331   3.472   3.822  0.2716  0.0726  0.4694
  184SLPC   H9X21115   6.225   3.500   3.845  0.3462  0.5640  0.2287
  184SLPC   H9Y21116   6.382   3.523   3.738  0.1520  0.0001  0.3526
  184SLPC  C31021117   6.422   3.496   3.944  0.2608  0.3868  0.1013
  184SLPC  H10X21118   6.522   3.516   3.900 -1.3525  3.6447 -2.6753
  184SLPC  H10Y21119   6.428   3.403   4.004  1.6637  0.3973  0.0141
  184SLPC  C31121120   6.390   3.621   4.024  0.3648 -0.0004 -0.5290
  184SLPC  H11X21121   6.281   3.645   4.015  0.6274  0.6888 -2.2354
  184SLPC  H11Y21122   6.433   3.715   3.982  1.0930 -0.3786 -0.6319
  184SLPC  C31221123   6.430   3.621   4.172 -0.8463  0.4744 -0.8541
  184SLPC  H12X21124   6.378   3.538   4.224 -0.5207  1.0820  0.4829
  184SLPC  H12Y21125   6.387   3.714   4.214 -0.7121  0.1297  0.0503
  184SLPC  C31321126   6.571   3.650   4.210  0.0416  0.0812  0.1918
  184SLPC  H13X21127   6.614   3.733   4.149 -2.5616  0.6458 -1.0010
  184SLPC  H13Y21128   6.644   3.569   4.191 -1.0967 -0.9384  0.1077
  184SLPC  C31421129   6.593   3.679   4.365  0.9363 -0.3869 -0.4944
  184SLPC  H14X21130   6.565   3.590   4.426 -0.4714  1.8363  2.2892
  184SLPC  H14Y21131   6.519   3.758   4.388  1.3796 -0.0161 -0.3223
  184SLPC  C31521132   6.728   3.734   4.401 -0.2025 -0.0964  0.1682
  184SLPC  H15X21133   6.722   3.789   4.497 -3.0467  0.9530 -0.5003
  184SLPC  H15Y21134   6.744   3.819   4.331  1.6599 -0.0034  0.6746
  184SLPC  C31621135   6.859   3.650   4.385 -0.4337  0.1651 -0.1599
  184SLPC  H16X21136   6.852   3.607   4.283 -0.8443 -0.8972  0.2976
  184SLPC  H16Y21137   6.848   3.556   4.444  0.9270  0.1142  0.0558
  184SLPC  C31721138   6.991   3.722   4.420  0.2646  0.3006 -0.0375
  184SLPC  H17X21139   6.969   3.775   4.515 -0.4662 -0.1407  0.0417
  184SLPC  H17Y21140   7.012   3.808   4.353  1.6325  0.3696  0.4474
  184SLPC  C31821141   7.125   3.632   4.414  0.2946  0.1370 -0.4085
  184SLPC  H18X21142   7.218   3.691   4.422  0.6930 -0.2649 -1.9164
  184SLPC  H18Y21143   7.148   3.598   4.312 -0.5587 -1.2678 -0.1521
  184SLPC  H18Z21144   7.109   3.536   4.467 -0.3523 -2.3828 -4.7763
  185POPC     N21145   2.240   6.097   7.197  0.2527 -0.2004  0.2662
  185POPC   C1221146   2.136   6.133   7.092 -0.0272  0.1943 -0.1155
  185POPC  H12A21147   2.102   6.235   7.103 -1.6780  0.2607 -4.1368
  185POPC  H12B21148   2.044   6.080   7.113  0.9342 -0.9858  1.3239
  185POPC   C1321149   2.197   6.150   7.332  0.6103 -0.2642  0.2561
  185POPC  H13A21150   2.117   6.097   7.381 -0.5129  2.3535  1.4560
  185POPC  H13B21151   2.281   6.154   7.400  2.4286 -2.7978 -1.6428
  185POPC  H13C21152   2.169   6.255   7.332  0.4335 -0.3020 -0.5149
  185POPC   C1421153   2.253   5.945   7.203 -0.2008 -0.1235  0.8359
  185POPC  H14A21154   2.158   5.904   7.234 -1.4313  0.3838 -1.9973
  185POPC  H14B21155   2.268   5.913   7.101  1.5832 -1.6402  1.5159
  185POPC  H14C21156   2.332   5.917   7.271  0.6491 -2.5514 -1.0049
  185POPC   C1521157   2.370   6.168   7.168  0.1947 -0.7213  0.2533
  185POPC  H15A21158   2.431   6.124   7.246  1.5711 -0.0982 -0.4469
  185POPC  H15B21159   2.378   6.275   7.169  0.2076 -0.7241  0.6121
  185POPC  H15C21160   2.412   6.138   7.073  0.3545  1.0779 -0.2625
  185POPC   C1121161   2.169   6.117   6.941  0.3566 -0.0001  0.2761
  185POPC  H11A21162   2.259   6.180   6.921  0.8848 -0.7752  0.1819
  185POPC  H11B21163   2.085   6.157   6.881  0.5136 -0.6880 -0.4138
  185POPC     P21164   2.082   5.889   6.839  0.0497  0.1186  0.0374
  185POPC   O1321165   1.959   5.879   6.916 -0.8610  0.4583  0.2099
  185POPC   O1421166   2.148   5.765   6.795 -0.2972  0.0459 -0.9153
  185POPC   O1221167   2.196   5.980   6.917 -0.3694  0.0392 -0.7954
  185POPC   O1121168   2.057   5.972   6.710 -0.2041  0.2674 -0.1300
  185POPC    C121169   1.927   5.990   6.659  0.6068  0.1158 -0.4630
  185POPC    HA21170   1.881   6.058   6.734  1.4013 -1.6348  1.7368
  185POPC    HB21171   1.858   5.905   6.678 -0.0353  1.1159  2.1714
  185POPC    C221172   1.929   6.060   6.526  0.8904  0.5608  0.8182
  185POPC    HS21173   1.936   5.983   6.446 -1.7755  1.3323 -0.2672
  185POPC   O2121174   2.044   6.147   6.518  0.2492 -0.5667  0.2173
  185POPC   C2121175   2.159   6.088   6.476  0.1505  0.0260 -0.6559
  185POPC   O2221176   2.168   5.976   6.430  0.2225 -0.1753 -0.1174
  185POPC   C2221177   2.275   6.185   6.508 -0.5611 -0.3734 -0.5033
  185POPC   H2R21178   2.354   6.112   6.536  0.4694  0.8618 -0.1147
  185POPC   H2S21179   2.247   6.234   6.604  0.6123  1.0706 -0.8636
  185POPC    C321180   1.795   6.138   6.507 -0.4842 -0.0119  0.0412
  185POPC    HX21181   1.800   6.222   6.580  0.4544  0.0189 -0.0500
  185POPC    HY21182   1.708   6.075   6.536 -1.7256  1.3502 -0.5902
  185POPC   O3121183   1.778   6.190   6.374  0.2481 -0.1515 -0.0009
  185POPC   C3121184   1.659   6.240   6.338  0.1126 -0.1150 -0.2029
  185POPC   O3221185   1.575   6.274   6.417 -0.5257  0.3426 -0.0372
  185POPC   C3221186   1.655   6.241   6.189  0.9747  0.3220  1.0059
  185POPC   H2X21187   1.638   6.139   6.146  0.8234  1.5087 -2.0301
  185POPC   H2Y21188   1.749   6.292   6.158  0.3917  0.5302 -0.5168
  185POPC   C2321189   2.328   6.270   6.390 -0.1855  0.5906  1.5066
  185POPC   H3R21190   2.343   6.206   6.301 -0.0462  0.7179  1.4368
  185POPC   H3S21191   2.424   6.322   6.412 -0.3630  1.5457  0.1330
  185POPC   C2421192   2.223   6.380   6.361  0.1157  0.4232  0.1099
  185POPC   H4R21193   2.231   6.451   6.446 -0.2688  0.8692 -0.2213
  185POPC   H4S21194   2.122   6.333   6.360  1.4381 -2.9821  3.0841
  185POPC   C2521195   2.253   6.464   6.231 -1.0803 -0.3847 -0.7334
  185POPC   H5R21196   2.257   6.403   6.138  1.0567 -4.1058  1.5317
  185POPC   H5S21197   2.358   6.500   6.232 -0.6505 -1.3132 -3.4753
  185POPC   C2621198   2.157   6.585   6.219  0.5593 -0.0365  0.5487
  185POPC   H6R21199   2.171   6.661   6.299 -2.0318  0.0460  1.0036
  185POPC   H6S21200   2.049   6.558   6.213  0.3879  0.8774 -1.1503
  185POPC   C2721201   2.191   6.638   6.079 -0.6600 -1.3042  0.0450
  185POPC   H7R21202   2.159   6.561   6.006  0.4960 -0.6238 -1.2161
  185POPC   H7S21203   2.297   6.671   6.087 -1.0565 -0.1459  0.7320
  185POPC   C2821204   2.121   6.761   6.028 -0.2225  0.0081  0.5011
  185POPC   H8R21205   2.165   6.807   5.937 -1.7530  1.6285  0.5111
  185POPC   H8S21206   2.130   6.832   6.114 -2.2176 -0.3706  1.0789
  185POPC   C2921207   1.975   6.740   5.997 -0.0262 -0.4932 -0.1818
  185POPC   H9121208   1.908   6.770   6.078 -2.2719  0.6112 -2.3063
  185POPC  C21021209   1.928   6.694   5.884 -0.3027  0.4183  0.4681
  185POPC  H10121210   1.822   6.665   5.880  0.3543 -3.2579  3.7634
  185POPC  C21121211   2.023   6.663   5.771  0.2665  0.6241 -0.5455
  185POPC  H11R21212   1.986   6.577   5.712 -1.0191  1.9694 -1.7453
  185POPC  H11S21213   2.125   6.627   5.798  0.0845 -0.6801 -1.5046
  185POPC  C21221214   2.057   6.775   5.669 -0.0149 -0.0255 -0.3554
  185POPC  H12R21215   2.107   6.852   5.731  1.3780 -1.5708  0.5070
  185POPC  H12S21216   1.961   6.808   5.624  0.2171 -1.8861 -2.4119
  185POPC  C21321217   2.143   6.717   5.553 -0.7901  0.1607  0.1951
  185POPC  H13R21218   2.105   6.619   5.518 -0.3148 -0.1275  0.4755
  185POPC  H13S21219   2.248   6.710   5.588 -0.5496  1.2154 -0.2737
  185POPC  C21421220   2.163   6.825   5.447 -0.3677  1.1508  0.1569
  185POPC  H14R21221   2.211   6.917   5.487  1.0710  0.9558 -1.0508
  185POPC  H14S21222   2.065   6.866   5.411 -1.3086  0.0770  1.3999
  185POPC  C21521223   2.232   6.766   5.330  0.1979 -0.1363  0.2266
  185POPC  H15R21224   2.175   6.670   5.326 -2.1828  1.2051 -0.2139
  185POPC  H15S21225   2.335   6.745   5.365  0.4100 -2.5545 -1.5618
  185POPC  C21621226   2.218   6.852   5.202  0.1650 -0.9435  0.2859
  185POPC  H16R21227   2.278   6.943   5.223 -1.8392  0.3570  0.6758
  185POPC  H16S21228   2.113   6.883   5.181  0.2670 -0.8511 -0.1038
  185POPC  C21721229   2.261   6.784   5.068  0.2080  0.0710 -0.3843
  185POPC  H17R21230   2.262   6.846   4.976 -0.6701 -3.5173 -3.0537
  185POPC  H17S21231   2.184   6.712   5.032 -2.0895  2.0355  0.3572
  185POPC  C21821232   2.400   6.712   5.074 -0.1590 -0.1332  0.1978
  185POPC  H18R21233   2.388   6.624   5.141 -0.7355 -0.5172 -0.3987
  185POPC  H18S21234   2.478   6.780   5.115  0.2013 -1.8707  2.6217
  185POPC  H18T21235   2.430   6.697   4.969  1.5802  3.1857  0.0667
  185POPC   C3321236   1.527   6.321   6.144  0.2003 -0.2516  0.5489
  185POPC   H3X21237   1.536   6.425   6.181  3.7607 -0.4130  0.5298
  185POPC   H3Y21238   1.431   6.273   6.174 -0.1468  0.5770  0.7669
  185POPC   C3421239   1.519   6.341   5.988 -0.1135  0.0799 -0.0179
  185POPC   H4X21240   1.409   6.335   5.975 -0.2291 -0.0665  0.9558
  185POPC   H4Y21241   1.570   6.257   5.936  2.2376 -0.4059  2.8361
  185POPC   C3521242   1.570   6.485   5.943 -0.7721  0.3193 -0.1990
  185POPC   H5X21243   1.669   6.506   5.990  0.3971 -2.9442 -0.9490
  185POPC   H5Y21244   1.505   6.569   5.977  1.6115  2.6160 -0.8906
  185POPC   C3621245   1.595   6.500   5.791 -0.7463  0.2264 -0.1037
  185POPC   H6X21246   1.613   6.608   5.772  2.2569 -0.2019 -0.1040
  185POPC   H6Y21247   1.499   6.480   5.739 -0.0438  0.0405 -1.3697
  185POPC   C3721248   1.705   6.406   5.735 -0.0303 -0.2498 -0.2452
  185POPC   H7X21249   1.688   6.302   5.770  0.2204 -0.8664 -1.8540
  185POPC   H7Y21250   1.806   6.441   5.764  0.5329 -2.8269  1.2302
  185POPC   C3821251   1.684   6.391   5.585  0.1890 -0.4446  0.3872
  185POPC   H8X21252   1.585   6.344   5.567 -1.1197  2.1838  0.2244
  185POPC   H8Y21253   1.772   6.335   5.546  0.7688  1.2673 -0.9181
  185POPC   C3921254   1.687   6.528   5.505 -0.4310  0.2059  0.0026
  185POPC   H9X21255   1.781   6.587   5.514  0.5273 -1.2450 -0.1156
  185POPC   H9Y21256   1.597   6.586   5.535 -1.6386 -1.3105 -0.5835
  185POPC  C31021257   1.663   6.500   5.355 -0.5787  0.0276  0.3679
  185POPC  H10X21258   1.576   6.431   5.361 -0.0923 -0.6700 -0.2927
  185POPC  H10Y21259   1.752   6.446   5.315 -0.8545 -0.9250  1.0036
  185POPC  C31121260   1.657   6.629   5.285  0.1606  0.3909  0.2532
  185POPC  H11X21261   1.723   6.695   5.346  2.0536 -1.1991  0.0209
  185POPC  H11Y21262   1.556   6.674   5.290  0.7371  1.7532  0.3151
  185POPC  C31221263   1.700   6.628   5.139  0.2750  0.3783  0.0215
  185POPC  H12X21264   1.607   6.600   5.086 -0.4919  0.0983  1.4510
  185POPC  H12Y21265   1.774   6.547   5.126  1.3446  1.0208  1.7196
  185POPC  C31321266   1.766   6.760   5.087  0.8756  0.1067  0.5610
  185POPC  H13X21267   1.816   6.806   5.175  0.0707 -1.3128  1.8140
  185POPC  H13Y21268   1.677   6.813   5.048  0.3131 -2.9737 -2.9028
  185POPC  C31421269   1.868   6.736   4.973 -0.4842  0.4256  0.2624
  185POPC  H14X21270   1.832   6.672   4.889  0.2156  0.6861 -0.2429
  185POPC  H14Y21271   1.951   6.699   5.037  0.3997  1.4587 -0.2598
  185POPC  C31521272   1.909   6.866   4.904 -0.2043 -0.6021 -0.0447
  185POPC  H15X21273   1.965   6.931   4.974  0.8279 -1.0072 -0.4664
  185POPC  H15Y21274   1.820   6.910   4.854 -0.0177  0.7589  0.7859
  185POPC  C31621275   2.006   6.847   4.781 -0.2018 -0.3951 -0.1790
  185POPC  H16X21276   2.019   6.947   4.734 -2.5309  0.8574  1.6446
  185POPC  H16Y21277   1.965   6.769   4.713  0.3163 -1.4627  0.6904
  185POPC  H16Z21278   2.103   6.812   4.822 -0.2473  2.5617  2.8502
  186POPC     N21279   5.139   5.577   6.945 -0.1802  0.5702  0.3378
  186POPC   C1221280   5.032   5.602   6.835  0.1440 -0.3818 -0.8077
  186POPC  H12A21281   5.071   5.678   6.769  1.4934 -0.4070 -0.0778
  186POPC  H12B21282   4.944   5.648   6.878  1.4032  0.6566  0.8221
  186POPC   C1321283   5.155   5.686   7.036 -0.6619  0.3979 -0.1931
  186POPC  H13A21284   5.225   5.648   7.109  0.1436 -2.0633 -2.1012
  186POPC  H13B21285   5.191   5.775   6.986 -3.7588  0.2986 -2.9229
  186POPC  H13C21286   5.065   5.711   7.090  0.4291  4.0396  0.2237
  186POPC   C1421287   5.102   5.454   7.023 -0.7222 -0.2063  0.5012
  186POPC  H14A21288   5.183   5.407   7.077  0.7721 -0.7070 -1.9960
  186POPC  H14B21289   5.016   5.469   7.087 -1.3575  0.9495 -0.5687
  186POPC  H14C21290   5.077   5.377   6.951  3.4053  0.0327 -1.4904
  186POPC   C1521291   5.276   5.563   6.878  0.1327  0.2152 -0.2649
  186POPC  H15A21292   5.266   5.491   6.798 -0.4088  1.1182 -1.0276
  186POPC  H15B21293   5.347   5.535   6.955  0.7557 -0.2447 -0.9905
  186POPC  H15C21294   5.298   5.660   6.836 -1.7307  0.1104 -1.5972
  186POPC   C1121295   4.986   5.491   6.744  0.1195  1.0376  0.2132
  186POPC  H11A21296   5.078   5.446   6.701 -0.4720  2.0461 -2.2913
  186POPC  H11B21297   4.915   5.533   6.669 -2.9018  0.3019  2.4531
  186POPC     P21298   4.871   5.263   6.777 -0.1394 -0.3888 -0.6381
  186POPC   O1321299   4.767   5.219   6.864  0.0653 -0.2783 -0.3714
  186POPC   O1421300   4.992   5.173   6.763  0.4698 -0.6973  0.1346
  186POPC   O1221301   4.911   5.399   6.827 -0.3503 -0.5974 -0.1015
  186POPC   O1121302   4.809   5.292   6.638  0.4249 -0.1530 -0.1365
  186POPC    C121303   4.691   5.361   6.612 -0.0559  0.2782  0.4714
  186POPC    HA21304   4.702   5.426   6.522 -1.7344  0.5599  0.4488
  186POPC    HB21305   4.665   5.433   6.692 -0.3877 -0.3864  0.9682
  186POPC    C221306   4.571   5.266   6.581 -0.3824  0.5895 -0.5926
  186POPC    HS21307   4.557   5.208   6.674 -1.5613  2.0725  0.2101
  186POPC   O2121308   4.597   5.187   6.464 -0.1502  0.3585  0.4071
  186POPC   C2121309   4.505   5.102   6.430 -0.0324 -0.2248  1.3073
  186POPC   O2221310   4.388   5.099   6.468 -0.5015 -0.4636  0.5912
  186POPC   C2221311   4.553   5.007   6.317 -0.5626 -0.3358 -0.3882
  186POPC   H2R21312   4.460   4.980   6.263 -0.3342 -2.3444  0.1550
  186POPC   H2S21313   4.592   4.919   6.372  2.9239  0.2230 -1.6833
  186POPC    C321314   4.443   5.359   6.569 -0.3352 -0.3087  0.1467
  186POPC    HX21315   4.419   5.387   6.674 -0.8661 -0.2087  0.0052
  186POPC    HY21316   4.353   5.315   6.521 -0.5239 -0.9385  1.0443
  186POPC   O3121317   4.472   5.474   6.491  0.1751 -0.3762  0.2117
  186POPC   C3121318   4.440   5.591   6.541 -0.1833 -0.6646 -0.2900
  186POPC   O3221319   4.374   5.607   6.644 -0.3465 -0.2613 -0.0139
  186POPC   C3221320   4.503   5.700   6.455 -0.1987 -0.4880  0.2620
  186POPC   H2X21321   4.605   5.705   6.497 -0.3904  0.2941  0.6662
  186POPC   H2Y21322   4.448   5.792   6.486  1.2753  1.5676 -2.7393
  186POPC   C2321323   4.661   5.058   6.230  0.5166 -0.2411  0.4871
  186POPC   H3R21324   4.753   5.090   6.283  0.5519  1.6181 -0.6258
  186POPC   H3S21325   4.628   5.159   6.198 -1.0994 -0.6583  0.7342
  186POPC   C2421326   4.688   4.973   6.107 -0.0009 -0.1041  0.2975
  186POPC   H4R21327   4.594   4.975   6.047 -0.0336  1.1154  0.3657
  186POPC   H4S21328   4.715   4.873   6.147  0.4083  1.2661  3.8220
  186POPC   C2521329   4.792   5.038   6.014 -0.3381 -1.1244  0.4392
  186POPC   H5R21330   4.874   5.093   6.064 -1.1703  0.0033  0.6086
  186POPC   H5S21331   4.739   5.115   5.954  2.2821  1.7736  1.5868
  186POPC   C2621332   4.838   4.938   5.902 -0.5323 -0.1079 -0.0587
  186POPC   H6R21333   4.751   4.888   5.856  0.3140 -0.6750 -1.0926
  186POPC   H6S21334   4.883   4.855   5.960  1.3410 -1.6852 -3.4535
  186POPC   C2721335   4.943   4.987   5.805  0.4218  0.3014  0.0115
  186POPC   H7R21336   4.960   4.904   5.733  1.5370 -1.0579  1.7646
  186POPC   H7S21337   5.037   4.996   5.863 -0.1055  3.2678  0.5568
  186POPC   C2821338   4.919   5.127   5.737 -0.7308 -0.7929 -0.4602
  186POPC   H8R21339   5.022   5.154   5.703 -0.4507 -1.0665  0.1613
  186POPC   H8S21340   4.883   5.209   5.804  0.4342 -0.2721 -0.4397
  186POPC   C2921341   4.825   5.120   5.623  0.1613 -0.5026  0.4051
  186POPC   H9121342   4.723   5.146   5.653  0.5159  1.4488  0.0348
  186POPC  C21021343   4.848   5.079   5.494 -0.3325  0.6050 -0.9645
  186POPC  H10121344   4.778   5.095   5.411 -2.4164  1.3214  0.8360
  186POPC  C21121345   4.990   5.052   5.438 -0.3250  0.2664  0.2806
  186POPC  H11R21346   5.047   4.968   5.483 -0.6091 -0.1760 -0.1727
  186POPC  H11S21347   5.037   5.151   5.456 -0.6835  0.6465 -0.8061
  186POPC  C21221348   4.986   5.017   5.291 -0.7871  0.4809 -0.1928
  186POPC  H12R21349   4.922   4.928   5.271  1.7886 -1.2973 -1.0447
  186POPC  H12S21350   5.088   4.985   5.262 -0.2082  3.0308 -1.2541
  186POPC  C21321351   4.943   5.126   5.197  0.1590 -0.3698 -0.4807
  186POPC  H13R21352   5.003   5.212   5.233 -0.4424  0.1045 -0.5762
  186POPC  H13S21353   4.838   5.164   5.199  0.6493  1.0682 -1.1950
  186POPC  C21421354   4.993   5.099   5.057 -0.5323 -0.4919 -0.1107
  186POPC  H14R21355   5.102   5.120   5.054 -0.2849 -1.3443  1.4261
  186POPC  H14S21356   4.948   5.174   4.989 -1.2123 -0.2793  0.5651
  186POPC  C21521357   4.975   4.960   4.997 -0.3679 -0.1623  0.1905
  186POPC  H15R21358   4.878   4.932   5.043 -0.6542  0.0397 -0.2730
  186POPC  H15S21359   5.060   4.894   5.023  0.0800  0.2353 -0.2321
  186POPC  C21621360   4.956   4.975   4.840 -0.2299  0.0728  0.2439
  186POPC  H16R21361   4.941   5.077   4.797 -1.2594 -0.1324  0.0907
  186POPC  H16S21362   4.872   4.910   4.808  0.2372  0.1424 -1.1827
  186POPC  C21721363   5.090   4.938   4.778  0.6423  0.0436 -0.2834
  186POPC  H17R21364   5.108   4.832   4.807  1.8786  0.9210  2.5378
  186POPC  H17S21365   5.171   4.994   4.829  0.4424  0.0292  0.0489
  186POPC  C21821366   5.109   4.962   4.629  0.5237  0.3089 -0.6529
  186POPC  H18R21367   5.031   4.907   4.572  0.2812  0.9865 -0.9907
  186POPC  H18S21368   5.211   4.925   4.605  0.2528 -0.8538 -0.0392
  186POPC  H18T21369   5.112   5.064   4.584 -1.9687  0.3947 -0.7505
  186POPC   C3321370   4.497   5.679   6.305 -0.1003 -1.0574  0.1205
  186POPC   H3X21371   4.392   5.674   6.268 -0.6442  2.3575  0.8580
  186POPC   H3Y21372   4.551   5.587   6.274  1.4193 -0.0889 -0.2170
  186POPC   C3421373   4.568   5.795   6.220  0.1244 -0.3461 -0.3402
  186POPC   H4X21374   4.677   5.791   6.238 -0.2167  1.1720  2.7427
  186POPC   H4Y21375   4.535   5.894   6.259  0.6400  0.3709 -1.6817
  186POPC   C3521376   4.531   5.775   6.070 -0.2778  0.3366  0.0865
  186POPC   H5X21377   4.430   5.819   6.057 -0.7819 -0.3280  1.5043
  186POPC   H5Y21378   4.525   5.669   6.039  0.6457  0.1361  0.5520
  186POPC   C3621379   4.640   5.838   5.983 -0.8829 -0.1886 -1.5165
  186POPC   H6X21380   4.732   5.777   5.994 -1.7065 -1.0705  1.4319
  186POPC   H6Y21381   4.662   5.935   6.033 -1.0688 -2.1756  2.8558
  186POPC   C3721382   4.607   5.847   5.831  0.0411 -0.7002  0.2220
  186POPC   H7X21383   4.512   5.905   5.828 -1.2306 -2.4974  2.4890
  186POPC   H7Y21384   4.584   5.744   5.798  2.7176 -1.2664 -0.0617
  186POPC   C3821385   4.722   5.927   5.759  0.2640 -0.5494 -0.7827
  186POPC   H8X21386   4.813   5.864   5.748  0.9155  0.1854  0.2246
  186POPC   H8Y21387   4.746   6.002   5.837 -1.3798 -1.5288  0.7294
  186POPC   C3921388   4.690   5.990   5.621  0.5188  0.1789  0.2610
  186POPC   H9X21389   4.781   6.034   5.575 -1.5439  1.9667 -2.4744
  186POPC   H9Y21390   4.620   6.077   5.626 -0.9556 -0.7849 -2.0283
  186POPC  C31021391   4.636   5.886   5.528  0.8284  0.3067  0.2063
  186POPC  H10X21392   4.534   5.856   5.561 -0.0153  0.7005 -1.8562
  186POPC  H10Y21393   4.700   5.796   5.524  0.7995  0.3214 -1.6037
  186POPC  C31121394   4.612   5.930   5.384  0.1537 -0.3332 -0.4719
  186POPC  H11X21395   4.523   5.995   5.372 -0.7541 -1.5720 -0.6792
  186POPC  H11Y21396   4.603   5.840   5.320 -1.2804 -0.2739 -0.3768
  186POPC  C31221397   4.729   6.003   5.320  0.4765 -0.0147 -0.3398
  186POPC  H12X21398   4.822   5.945   5.340 -0.5390 -1.1872  1.2503
  186POPC  H12Y21399   4.744   6.107   5.357 -1.8105 -0.1990  1.3014
  186POPC  C31321400   4.712   6.015   5.166  0.1794 -0.3358  0.4592
  186POPC  H13X21401   4.707   5.910   5.132 -1.0762  0.0766 -0.7718
  186POPC  H13Y21402   4.802   6.052   5.112 -0.4185 -1.8220 -1.6736
  186POPC  C31421403   4.589   6.101   5.129  0.0298  0.3480 -0.6009
  186POPC  H14X21404   4.598   6.195   5.187 -0.6830 -0.4291  0.8104
  186POPC  H14Y21405   4.497   6.045   5.154 -0.3343  0.6495 -1.2418
  186POPC  C31521406   4.592   6.137   4.983  0.1094 -0.2798  0.5904
  186POPC  H15X21407   4.677   6.207   4.969 -1.7107  2.2388  1.3303
  186POPC  H15Y21408   4.503   6.201   4.966  1.2951  1.6411  1.3312
  186POPC  C31621409   4.583   6.016   4.885 -0.7268 -0.9221 -0.0346
  186POPC  H16X21410   4.685   5.972   4.894  0.5868  2.0696  1.0668
  186POPC  H16Y21411   4.572   6.046   4.779  3.1425 -1.1826 -0.6770
  186POPC  H16Z21412   4.498   5.952   4.917 -1.2217 -0.4302 -0.3459
  187POPC     N21413   5.013   6.610   2.397  0.2424 -0.6926  0.4484
  187POPC   C1221414   5.140   6.568   2.475  0.0930  0.1699 -0.4961
  187POPC  H12A21415   5.193   6.501   2.409 -1.3973 -2.4910  0.8237
  187POPC  H12B21416   5.106   6.514   2.563 -1.4734  1.1383 -0.4533
  187POPC   C1321417   4.943   6.498   2.329  0.0971 -0.2863 -0.1005
  187POPC  H13A21418   4.897   6.439   2.406 -1.1038  2.0390  1.0717
  187POPC  H13B21419   4.869   6.531   2.257 -0.9223 -0.0615  1.0328
  187POPC  H13C21420   5.015   6.444   2.269  2.8895  1.6065  1.3513
  187POPC   C1421421   4.917   6.687   2.492 -0.7673 -1.0294  0.2646
  187POPC  H14A21422   4.963   6.776   2.532 -2.2342 -0.9017  1.7549
  187POPC  H14B21423   4.825   6.710   2.440 -1.2012  2.5481  2.3042
  187POPC  H14C21424   4.879   6.626   2.572 -0.5476  0.9934  2.0081
  187POPC   C1521425   5.060   6.696   2.281  0.0197  0.3659  0.1271
  187POPC  H15A21426   4.985   6.739   2.217 -0.9344  1.9328  2.1772
  187POPC  H15B21427   5.124   6.637   2.217  0.3577 -0.2793  1.0311
  187POPC  H15C21428   5.120   6.777   2.322 -0.3037  0.2237  0.9069
  187POPC   C1121429   5.240   6.671   2.530  0.0580 -1.1058  0.4316
  187POPC  H11A21430   5.322   6.612   2.576  1.8240  1.4478  0.7762
  187POPC  H11B21431   5.185   6.733   2.604  0.1406 -2.2770  1.5007
  187POPC     P21432   5.309   6.904   2.437  0.1870  0.1766  0.2772
  187POPC   O1321433   5.178   6.966   2.420 -0.0083  0.2819 -0.4681
  187POPC   O1421434   5.412   6.954   2.342  0.7200 -0.3768  0.1880
  187POPC   O1221435   5.298   6.746   2.421 -0.3570  0.0591 -0.3997
  187POPC   O1121436   5.357   6.915   2.588 -0.1727 -0.1487  0.4099
  187POPC    C121437   5.400   7.044   2.634  0.0825 -0.1956 -0.1206
  187POPC    HA21438   5.314   7.102   2.672 -0.6258  1.5714 -3.8954
  187POPC    HB21439   5.442   7.101   2.548 -1.8796  0.7031 -0.5305
  187POPC    C221440   5.507   7.031   2.752  0.1961 -0.3032  0.3331
  187POPC    HS21441   5.605   7.027   2.699 -0.5263 -0.7898 -1.0177
  187POPC   O2121442   5.482   6.919   2.835  0.0445  0.0491 -0.1793
  187POPC   C2121443   5.589   6.868   2.895  0.6868  0.5505  0.1117
  187POPC   O2221444   5.700   6.909   2.883 -0.4878  0.1021  0.3882
  187POPC   C2221445   5.538   6.760   2.987  0.3699 -0.3623  0.5899
  187POPC   H2R21446   5.448   6.713   2.942  2.3260 -1.2118 -2.7484
  187POPC   H2S21447   5.513   6.802   3.087  1.5721  0.5675  0.5221
  187POPC    C321448   5.507   7.162   2.839 -0.3515  0.3457  0.2636
  187POPC    HX21449   5.514   7.244   2.764 -0.7503  0.3155  0.1908
  187POPC    HY21450   5.594   7.164   2.908  1.4519 -0.9495 -1.8088
  187POPC   O3121451   5.374   7.171   2.908 -0.3327 -0.0000 -0.8100
  187POPC   C3121452   5.371   7.159   3.039  0.9147  0.5056 -0.9860
  187POPC   O3221453   5.466   7.155   3.116  0.4161 -0.6945  0.6835
  187POPC   C3221454   5.230   7.149   3.084 -0.1978 -0.0392 -0.2942
  187POPC   H2X21455   5.191   7.051   3.048 -2.0970  0.1234  1.1286
  187POPC   H2Y21456   5.176   7.223   3.020 -1.0366 -2.2631 -2.3074
  187POPC   C2321457   5.649   6.643   3.005 -0.0412 -0.6961 -0.4267
  187POPC   H3R21458   5.745   6.695   3.022 -0.7613  0.1521  1.3641
  187POPC   H3S21459   5.654   6.580   2.914  1.5565  0.6321 -1.3039
  187POPC   C2421460   5.626   6.557   3.132 -0.4070 -0.0683 -0.6121
  187POPC   H4R21461   5.686   6.465   3.116  3.1868  1.7871  1.0502
  187POPC   H4S21462   5.517   6.537   3.141 -0.1876 -2.4924 -2.4721
  187POPC   C2521463   5.675   6.618   3.267  0.0275  0.1994 -0.1172
  187POPC   H5R21464   5.617   6.704   3.306  0.0181 -1.3286  3.6357
  187POPC   H5S21465   5.779   6.656   3.263  0.1621 -0.0253  1.0202
  187POPC   C2621466   5.675   6.511   3.375 -0.4422 -0.0131 -0.7958
  187POPC   H6R21467   5.749   6.432   3.348  0.9379  1.4237 -1.3548
  187POPC   H6S21468   5.576   6.461   3.365  0.8573 -2.6311 -1.6582
  187POPC   C2721469   5.702   6.566   3.513  0.0713  0.4250 -0.0859
  187POPC   H7R21470   5.655   6.506   3.594  1.7169 -1.0962 -0.1795
  187POPC   H7S21471   5.668   6.670   3.529  1.4099  1.0370 -1.0007
  187POPC   C2821472   5.849   6.564   3.539 -0.3327 -0.0132 -0.1711
  187POPC   H8R21473   5.891   6.591   3.440  0.3452  1.3457  0.4679
  187POPC   H8S21474   5.881   6.462   3.571 -0.3180  0.5033  1.5326
  187POPC   C2921475   5.885   6.668   3.644  0.3244  0.3894 -0.2142
  187POPC   H9121476   5.907   6.770   3.608 -1.3277  1.7080  2.2152
  187POPC  C21021477   5.904   6.643   3.778 -0.1884  0.4580  1.1556
  187POPC  H10121478   5.921   6.734   3.836  0.6949  1.4322 -0.5406
  187POPC  C21121479   5.870   6.517   3.851 -0.7868  0.2592 -0.2109
  187POPC  H11R21480   5.933   6.431   3.821 -2.1093 -0.4753 -0.9817
  187POPC  H11S21481   5.765   6.487   3.832 -1.5239  1.0710  2.1765
  187POPC  C21221482   5.881   6.544   4.006 -0.4763  0.5641  0.1012
  187POPC  H12R21483   5.983   6.579   4.029  0.4351 -1.7257 -0.2124
  187POPC  H12S21484   5.868   6.446   4.057  1.2864  0.2862  0.0741
  187POPC  C21321485   5.767   6.638   4.058  0.4102 -0.0412  0.8279
  187POPC  H13R21486   5.668   6.620   4.012  1.3921 -1.1281 -0.9714
  187POPC  H13S21487   5.786   6.746   4.042  3.1212 -0.5707 -0.0465
  187POPC  C21421488   5.751   6.626   4.209 -0.1556  0.5391  0.5151
  187POPC  H14R21489   5.844   6.637   4.269 -0.7416 -2.1303  2.0733
  187POPC  H14S21490   5.701   6.529   4.228  1.5539 -0.6185 -0.6037
  187POPC  C21521491   5.655   6.736   4.265  0.1864  0.4024 -0.9029
  187POPC  H15R21492   5.568   6.742   4.196 -2.1408  0.2613  1.8375
  187POPC  H15S21493   5.713   6.830   4.273  1.1498 -0.2689  0.4627
  187POPC  C21621494   5.606   6.702   4.405  0.2166 -0.5348 -0.4565
  187POPC  H16R21495   5.691   6.698   4.476  0.1063 -0.0685 -0.2920
  187POPC  H16S21496   5.560   6.601   4.400  1.3737 -1.0312 -1.4678
  187POPC  C21721497   5.516   6.808   4.459 -0.5382  0.1303 -0.4331
  187POPC  H17R21498   5.458   6.771   4.547  2.2366  0.5021  1.6924
  187POPC  H17S21499   5.442   6.841   4.383 -0.7634  0.5441 -0.0428
  187POPC  C21821500   5.591   6.927   4.522 -0.1841  0.1432 -0.0209
  187POPC  H18R21501   5.525   7.005   4.566  1.2783  1.2734  0.2201
  187POPC  H18S21502   5.655   6.976   4.447  0.8106 -2.5638 -1.0657
  187POPC  H18T21503   5.655   6.884   4.602 -3.1890 -0.3056  2.3715
  187POPC   C3321504   5.202   7.151   3.235 -0.2920  0.2080  0.1371
  187POPC   H3X21505   5.216   7.254   3.274  1.3565 -0.4098  1.3178
  187POPC   H3Y21506   5.261   7.078   3.295 -3.0805 -0.8292  1.8341
  187POPC   C3421507   5.056   7.112   3.272  0.3865  0.3503 -1.0263
  187POPC   H4X21508   5.037   7.002   3.269 -0.8018  0.5460 -1.2973
  187POPC   H4Y21509   4.988   7.157   3.195 -0.0357 -3.8414 -3.4452
  187POPC   C3521510   5.006   7.170   3.408 -0.0388 -0.3864  0.1678
  187POPC   H5X21511   4.895   7.165   3.412 -0.1110  1.2149  1.3105
  187POPC   H5Y21512   5.035   7.274   3.436 -1.2856 -0.3806  1.5581
  187POPC   C3621513   5.055   7.092   3.530 -0.4873 -0.3554 -0.2283
  187POPC   H6X21514   5.165   7.080   3.520 -0.2549 -1.0089  2.4526
  187POPC   H6Y21515   5.015   6.989   3.516 -0.9768 -0.1964 -0.0129
  187POPC   C3721516   5.008   7.155   3.660 -0.1227  0.0195 -0.3680
  187POPC   H7X21517   4.901   7.186   3.658  0.1756  1.0275 -1.2472
  187POPC   H7Y21518   5.075   7.239   3.686  2.9434 -2.4939  0.5180
  187POPC   C3821519   5.022   7.046   3.769  0.8381 -0.0774 -0.3545
  187POPC   H8X21520   5.118   6.992   3.776  1.6729  1.4862  0.8992
  187POPC   H8Y21521   4.945   6.969   3.747 -0.1964  0.8175  0.0480
  187POPC   C3921522   5.001   7.102   3.912 -0.0623 -0.4402  0.2511
  187POPC   H9X21523   4.902   7.151   3.918  0.7614  1.4663 -0.8929
  187POPC   H9Y21524   5.083   7.176   3.920 -0.2770 -0.2271  0.4559
  187POPC  C31021525   5.017   6.990   4.015 -0.7635  0.1827 -0.2178
  187POPC  H10X21526   5.114   6.939   3.996  0.6863  1.9551  1.9258
  187POPC  H10Y21527   4.935   6.916   4.008  1.3861 -2.5756  1.8408
  187POPC  C31121528   5.012   7.026   4.158  0.0670 -0.6205 -0.4399
  187POPC  H11X21529   4.912   7.069   4.180  0.0350 -0.3450 -1.0933
  187POPC  H11Y21530   5.083   7.107   4.183 -1.5909 -0.2078  3.9531
  187POPC  C31221531   5.038   6.906   4.242  0.7321 -0.0325  0.5459
  187POPC  H12X21532   5.141   6.868   4.231  1.4920  2.0373  0.0934
  187POPC  H12Y21533   4.973   6.826   4.201 -0.3627  1.2433 -0.3067
  187POPC  C31321534   5.005   6.935   4.392  0.0998 -0.7505  0.5032
  187POPC  H13X21535   4.998   6.837   4.443 -0.8756  0.0904  2.0346
  187POPC  H13Y21536   4.907   6.984   4.406  0.2160 -0.7895  1.4876
  187POPC  C31421537   5.120   7.015   4.460 -0.3188  0.1652  0.3464
  187POPC  H14X21538   5.104   7.120   4.430  0.9106  0.1228 -0.5505
  187POPC  H14Y21539   5.212   6.974   4.413 -1.3470 -0.1480 -1.5098
  187POPC  C31521540   5.104   7.000   4.609 -0.4572 -0.1193 -0.5589
  187POPC  H15X21541   5.003   6.964   4.635 -0.3644  0.9429  1.4013
  187POPC  H15Y21542   5.120   7.095   4.664 -0.8649  0.1604 -0.9089
  187POPC  C31621543   5.202   6.892   4.661 -0.2214  0.0917 -0.2314
  187POPC  H16X21544   5.307   6.927   4.653  0.5047 -1.5266  1.4771
  187POPC  H16Y21545   5.182   6.807   4.593 -2.0980  2.5321 -2.9600
  187POPC  H16Z21546   5.165   6.864   4.762  1.5735  0.1039  0.4714
  188POPC     N21547   5.336   5.207   1.929  0.3695 -0.1934  0.2803
  188POPC   C1221548   5.265   5.247   2.053 -0.2105  0.4011  0.2090
  188POPC  H12A21549   5.282   5.176   2.133  2.3773 -1.5340 -1.8898
  188POPC  H12B21550   5.158   5.254   2.039  0.2245  2.0104 -3.1240
  188POPC   C1321551   5.298   5.074   1.873  0.2629  0.3959  0.0078
  188POPC  H13A21552   5.191   5.072   1.856  0.3092  3.9172 -1.7735
  188POPC  H13B21553   5.344   5.055   1.777  2.9917 -0.2175  1.3361
  188POPC  H13C21554   5.325   4.994   1.940  1.2130  0.8049  0.1262
  188POPC   C1421555   5.322   5.307   1.825  0.8836 -0.0060 -0.8133
  188POPC  H14A21556   5.359   5.264   1.733  0.7159  0.5735 -1.1586
  188POPC  H14B21557   5.217   5.320   1.806  0.4907 -1.6084  0.0527
  188POPC  H14C21558   5.367   5.402   1.850 -0.0168  0.4651 -0.9387
  188POPC   C1521559   5.483   5.188   1.956 -0.2055  0.3983  0.0291
  188POPC  H15A21560   5.540   5.179   1.865  1.3129 -4.3886  1.1622
  188POPC  H15B21561   5.495   5.098   2.015 -2.3001 -0.4302 -0.7318
  188POPC  H15C21562   5.512   5.275   2.014  1.4482  0.4098 -0.7519
  188POPC   C1121563   5.295   5.386   2.115 -0.5103  0.1474  0.0681
  188POPC  H11A21564   5.223   5.404   2.197 -0.2331 -1.3511  0.6762
  188POPC  H11B21565   5.273   5.467   2.041  1.7073 -0.2304 -1.1026
  188POPC     P21566   5.481   5.472   2.284  0.4293 -0.4352  0.0618
  188POPC   O1321567   5.429   5.603   2.292 -0.2058  0.6547 -0.1439
  188POPC   O1421568   5.625   5.461   2.291 -0.0125  0.0406 -0.5157
  188POPC   O1221569   5.432   5.404   2.151 -0.3863  0.1844 -0.0937
  188POPC   O1121570   5.428   5.374   2.396 -0.0483  0.1268  0.5609
  188POPC    C121571   5.380   5.427   2.518  0.3672 -0.6659  0.7518
  188POPC    HA21572   5.276   5.389   2.534  0.7617 -1.8368  0.6227
  188POPC    HB21573   5.375   5.538   2.520 -2.5828 -0.6779 -0.7912
  188POPC    C221574   5.469   5.375   2.637 -0.3625 -0.0762 -0.4111
  188POPC    HS21575   5.432   5.416   2.733 -1.0409 -1.1187 -0.2056
  188POPC   O2121576   5.608   5.403   2.625 -0.1372 -0.1812 -0.1806
  188POPC   C2121577   5.639   5.530   2.614 -0.0519 -0.6998  0.6247
  188POPC   O2221578   5.560   5.626   2.634 -0.9202  0.3074  0.1787
  188POPC   C2221579   5.793   5.558   2.590  0.1437  0.5203 -0.6347
  188POPC   H2R21580   5.802   5.667   2.571  0.5622  0.5071 -0.5187
  188POPC   H2S21581   5.822   5.512   2.494  1.4603  0.1217 -0.0659
  188POPC    C321582   5.464   5.222   2.652 -0.2506  1.1006  0.1007
  188POPC    HX21583   5.503   5.177   2.558 -0.2933  0.6923  0.2751
  188POPC    HY21584   5.359   5.185   2.651  0.9838 -2.9707 -1.9004
  188POPC   O3121585   5.552   5.180   2.759 -0.0428  0.4383 -0.2781
  188POPC   C3121586   5.656   5.094   2.746  0.4503 -0.3073 -0.2577
  188POPC   O3221587   5.697   5.041   2.650 -0.5830 -0.2098 -0.5335
  188POPC   C3221588   5.723   5.084   2.884 -0.7546 -0.4924 -0.1976
  188POPC   H2X21589   5.826   5.125   2.872 -0.9352 -0.3184 -1.2510
  188POPC   H2Y21590   5.739   4.976   2.909 -0.4389 -0.1327  1.2792
  188POPC   C2321591   5.886   5.534   2.713  0.1277 -0.2318 -1.2664
  188POPC   H3R21592   5.987   5.568   2.681  0.1955 -0.5002 -1.3370
  188POPC   H3S21593   5.900   5.424   2.717 -1.7343 -0.5651 -2.7736
  188POPC   C2421594   5.848   5.590   2.851  0.4214  0.5448  0.9427
  188POPC   H4R21595   5.750   5.548   2.883 -0.3916  0.2954 -1.5931
  188POPC   H4S21596   5.837   5.700   2.851 -0.9953  0.5830 -3.0960
  188POPC   C2521597   5.929   5.527   2.963 -0.1056 -0.8956  0.2555
  188POPC   H5R21598   6.036   5.545   2.936 -0.2161  1.1372  0.9924
  188POPC   H5S21599   5.902   5.420   2.963 -0.5939 -0.9835 -4.4532
  188POPC   C2621600   5.891   5.584   3.102 -0.6615  0.0303 -1.2507
  188POPC   H6R21601   5.781   5.597   3.107 -0.7901 -0.8875  4.3583
  188POPC   H6S21602   5.943   5.679   3.127  0.2725 -1.0540  1.2937
  188POPC   C2721603   5.936   5.492   3.221  0.0985  0.1304  0.5245
  188POPC   H7R21604   6.046   5.508   3.227  0.3036 -0.9017 -0.3313
  188POPC   H7S21605   5.935   5.386   3.190 -0.8692 -0.2664  1.8085
  188POPC   C2821606   5.850   5.514   3.346 -0.0323  0.2826 -0.2413
  188POPC   H8R21607   5.901   5.464   3.431  1.9402  2.2672 -0.1611
  188POPC   H8S21608   5.754   5.461   3.327  0.1845  0.0508 -0.6978
  188POPC   C2921609   5.837   5.651   3.393  0.2724 -0.5743 -0.4380
  188POPC   H9121610   5.843   5.719   3.308 -1.2446  2.1203  1.4538
  188POPC  C21021611   5.808   5.692   3.518  0.6035  0.7166 -0.0131
  188POPC  H10121612   5.824   5.797   3.547 -2.1013  0.7909  1.4414
  188POPC  C21121613   5.784   5.597   3.633  0.3892  0.1831  0.1927
  188POPC  H11R21614   5.852   5.615   3.719  1.2352 -0.9334 -0.2185
  188POPC  H11S21615   5.787   5.491   3.600 -1.4208  0.2822 -0.3879
  188POPC  C21221616   5.639   5.619   3.686 -0.0984 -0.8588 -0.5161
  188POPC  H12R21617   5.567   5.587   3.608 -2.7080  2.4332  0.2601
  188POPC  H12S21618   5.631   5.729   3.705  1.0637 -1.0072  1.0366
  188POPC  C21321619   5.610   5.544   3.813  0.1303 -0.6198  0.5902
  188POPC  H13R21620   5.614   5.435   3.797  1.5065 -0.5518  0.3596
  188POPC  H13S21621   5.501   5.561   3.829 -0.1975 -1.9958 -0.0469
  188POPC  C21421622   5.695   5.591   3.929 -0.0158 -0.2046 -0.1999
  188POPC  H14R21623   5.759   5.674   3.892 -0.3632 -0.9029 -2.5450
  188POPC  H14S21624   5.761   5.505   3.951  1.1659  0.2288 -1.8085
  188POPC  C21521625   5.608   5.646   4.042 -0.6452 -0.4645 -0.7302
  188POPC  H15R21626   5.518   5.583   4.061 -0.1312 -1.0043 -0.0165
  188POPC  H15S21627   5.573   5.749   4.022  0.3199  0.5946  2.4994
  188POPC  C21621628   5.686   5.633   4.173  0.3701  0.2051 -0.3424
  188POPC  H16R21629   5.768   5.707   4.183  0.4847 -0.0079  0.3997
  188POPC  H16S21630   5.722   5.530   4.192 -1.7758 -0.1582  2.6203
  188POPC  C21721631   5.593   5.647   4.293 -0.3858 -0.7073 -0.7797
  188POPC  H17R21632   5.537   5.558   4.327 -2.1173  0.8812  0.7672
  188POPC  H17S21633   5.516   5.717   4.255 -0.5048 -0.9487 -0.9857
  188POPC  C21821634   5.670   5.703   4.414 -0.7403  0.4671 -0.5650
  188POPC  H18R21635   5.707   5.806   4.393 -0.4326 -0.0065 -2.4977
  188POPC  H18S21636   5.756   5.637   4.437 -0.9703  0.2511 -0.3179
  188POPC  H18T21637   5.608   5.706   4.506 -0.3213 -0.4557 -0.2354
  188POPC   C3321638   5.657   5.155   3.005  0.0989  0.1465  0.1700
  188POPC   H3X21639   5.555   5.113   2.995  0.8736 -1.8395 -0.0484
  188POPC   H3Y21640   5.658   5.266   3.007 -0.6495  0.1500  1.3165
  188POPC   C3421641   5.719   5.115   3.137 -0.1891 -0.2200  0.3090
  188POPC   H4X21642   5.813   5.173   3.148 -0.4986  0.0731  1.5007
  188POPC   H4Y21643   5.752   5.009   3.137  1.4962  0.2787 -0.2658
  188POPC   C3521644   5.628   5.131   3.252  0.0931 -0.4861  0.7613
  188POPC   H5X21645   5.540   5.068   3.229  0.8450 -0.7613 -1.6214
  188POPC   H5Y21646   5.593   5.237   3.247 -0.5421 -0.6846  0.9132
  188POPC   C3621647   5.693   5.111   3.393 -0.1789  0.4507 -0.0688
  188POPC   H6X21648   5.790   5.165   3.386  0.2773 -0.4167 -0.5135
  188POPC   H6Y21649   5.717   5.003   3.403 -2.6205 -0.2815 -1.2048
  188POPC   C3721650   5.621   5.169   3.518  0.6542 -0.5535 -0.1455
  188POPC   H7X21651   5.519   5.126   3.528 -0.1696  0.8501 -1.9780
  188POPC   H7Y21652   5.602   5.278   3.503  1.0938 -0.4204  0.2420
  188POPC   C3821653   5.713   5.145   3.647  0.0451 -0.4320  0.6670
  188POPC   H8X21654   5.706   5.035   3.658 -0.1275 -0.4361  0.5264
  188POPC   H8Y21655   5.676   5.194   3.740  1.6218  0.4513  0.8659
  188POPC   C3921656   5.860   5.189   3.639 -0.2341  0.3700 -0.5501
  188POPC   H9X21657   5.873   5.295   3.607 -3.6838  1.4058  0.9965
  188POPC   H9Y21658   5.903   5.111   3.572  2.2892 -1.0089  2.4189
  188POPC  C31021659   5.940   5.186   3.766 -0.2890 -0.0272  0.2491
  188POPC  H10X21660   6.047   5.210   3.748 -0.1320  1.4041  2.6479
  188POPC  H10Y21661   5.934   5.091   3.823  0.4934  1.1610  2.4226
  188POPC  C31121662   5.913   5.302   3.860  0.0504 -0.8476  0.5973
  188POPC  H11X21663   5.818   5.281   3.912 -2.0003 -1.8153 -3.1330
  188POPC  H11Y21664   5.897   5.390   3.793  3.4640 -0.5732 -0.0601
  188POPC  C31221665   6.030   5.330   3.964  1.2336  0.0037  0.4945
  188POPC  H12X21666   5.983   5.406   4.030  1.2743  0.1491  0.3567
  188POPC  H12Y21667   6.119   5.372   3.912  1.4851 -1.2872 -0.1868
  188POPC  C31321668   6.070   5.205   4.037  0.4164  0.1214  0.7653
  188POPC  H13X21669   6.156   5.234   4.101  1.0645 -0.0535 -0.0046
  188POPC  H13Y21670   6.104   5.129   3.963 -0.2244  1.9014 -1.4715
  188POPC  C31421671   5.962   5.127   4.114 -0.7197  0.1320  0.4057
  188POPC  H14X21672   5.899   5.073   4.040 -1.9806 -1.7247  2.6924
  188POPC  H14Y21673   5.898   5.189   4.180 -0.1732  0.1080  0.9744
  188POPC  C31521674   6.018   5.018   4.204 -0.4864  0.4768 -0.3991
  188POPC  H15X21675   6.076   4.944   4.145 -0.6975 -1.6906  1.9439
  188POPC  H15Y21676   5.933   4.959   4.245 -1.0862  1.4477 -0.2148
  188POPC  C31621677   6.113   5.077   4.324  0.8745  0.1783 -0.3433
  188POPC  H16X21678   6.164   4.988   4.367 -0.1818 -1.2987 -1.9787
  188POPC  H16Y21679   6.037   5.124   4.390  0.4200  0.8906 -1.3374
  188POPC  H16Z21680   6.182   5.146   4.271  1.0222 -1.0875 -1.8887
  189SAPI   C1221681   2.533   0.365   6.999 -0.6808  0.0359  0.4751
  189SAPI    H221682   2.423   0.359   6.981 -0.4379  0.4026 -1.2898
  189SAPI    O221683   2.560   0.384   7.133 -0.5859  0.3226 -0.1790
  189SAPI   HO221684   2.507   0.457   7.166  0.2932 -0.9028  4.9159
  189SAPI   C1321685   2.602   0.244   6.937  0.5673 -0.2698  0.1345
  189SAPI    H321686   2.579   0.241   6.828 -1.4911 -1.6371  0.5590
  189SAPI    O321687   2.550   0.121   6.980 -0.1736 -0.1884 -0.3654
  189SAPI   HO321688   2.521   0.078   6.899  1.5445  2.1021 -2.3294
  189SAPI   C1421689   2.752   0.250   6.975 -0.1677  0.6566  0.0228
  189SAPI    H421690   2.751   0.237   7.085 -1.8944 -0.6906 -0.0974
  189SAPI    O421691   2.826   0.150   6.917  1.1030 -0.0276 -0.4261
  189SAPI   HO421692   2.806   0.151   6.824  1.1134  0.8607 -0.4295
  189SAPI   C1521693   2.817   0.378   6.944 -0.6234 -0.5028  0.0906
  189SAPI    H521694   2.838   0.379   6.835 -0.7432 -0.7562  0.0640
  189SAPI    O521695   2.935   0.394   7.021  0.1061 -0.2486 -0.4211
  189SAPI   HO521696   3.005   0.417   6.960  0.3125 -0.8811 -0.4248
  189SAPI   C1621697   2.735   0.507   6.959 -0.2780  0.3644  0.3366
  189SAPI    H621698   2.738   0.543   7.064 -1.4947 -1.5997  1.0790
  189SAPI    O621699   2.776   0.614   6.875  0.2295 -0.0030 -0.1749
  189SAPI   HO621700   2.754   0.684   6.938  0.4646  0.9331 -1.1040
  189SAPI   C1121701   2.584   0.482   6.923 -0.5046  0.0303  0.0140
  189SAPI    H121702   2.577   0.462   6.814 -0.7532 -0.6958  0.1549
  189SAPI     P21703   2.363   0.630   6.876  0.2662 -0.2271 -0.0951
  189SAPI   O1321704   2.254   0.679   6.965  0.2966  0.2967  0.0946
  189SAPI   O1421705   2.327   0.511   6.798  0.5775  0.0878 -0.0885
  189SAPI   O1221706   2.498   0.593   6.961 -0.0587  0.1479 -0.1314
  189SAPI   O1121707   2.407   0.744   6.774 -0.2034 -0.5956 -0.1513
  189SAPI    C121708   2.320   0.799   6.675 -0.1455  0.2065  0.0315
  189SAPI    HA21709   2.226   0.840   6.720  1.2065  3.0445  0.4938
  189SAPI    HB21710   2.372   0.879   6.619  0.2000 -0.7203 -0.9898
  189SAPI    C221711   2.276   0.704   6.553 -0.5816 -0.5911  0.0507
  189SAPI    HS21712   2.221   0.623   6.604 -1.2867  0.1084  0.4183
  189SAPI   O2121713   2.389   0.663   6.481 -0.5158  0.2958 -0.0848
  189SAPI   C2121714   2.371   0.544   6.424  0.2674  0.5858  0.2305
  189SAPI   O2221715   2.265   0.484   6.435  0.5607 -0.1594  0.8540
  189SAPI   C2221716   2.496   0.501   6.349  0.0909 -0.1691  0.4850
  189SAPI   H2R21717   2.511   0.589   6.283 -1.1594 -1.0560 -1.0323
  189SAPI   H2S21718   2.578   0.486   6.423 -0.5797  1.8129  1.6917
  189SAPI    C321719   2.169   0.778   6.465  0.4773  0.0633  0.3054
  189SAPI    HX21720   2.077   0.785   6.528  0.5764 -2.0496  0.7397
  189SAPI    HY21721   2.129   0.717   6.381  0.1189 -0.7878  1.0804
  189SAPI   O3121722   2.221   0.896   6.415 -0.9400 -0.9440  0.2938
  189SAPI   C3121723   2.275   0.890   6.294 -0.4391 -0.6473 -0.7616
  189SAPI   O3221724   2.278   0.789   6.224 -0.1810 -0.3925  0.0288
  189SAPI   C3221725   2.337   1.025   6.268 -0.7181 -0.5756 -0.0254
  189SAPI   H2X21726   2.408   1.048   6.351  0.9165  3.2095 -2.2229
  189SAPI   H2Y21727   2.260   1.105   6.279 -0.9874 -0.8841  0.3863
  189SAPI   C2321728   2.471   0.364   6.274  0.8842 -1.1984 -0.4635
  189SAPI   H3R21729   2.420   0.287   6.335 -1.3403 -2.2229 -3.3556
  189SAPI   H3S21730   2.572   0.326   6.246  2.0882  0.7176  1.0305
  189SAPI   C2421731   2.400   0.405   6.138 -0.2712  0.5197  0.4758
  189SAPI   H4R21732   2.475   0.478   6.101  2.8413 -0.8786  3.3925
  189SAPI   H4S21733   2.313   0.474   6.139 -0.5453  0.1788  1.2137
  189SAPI   C2521734   2.377   0.285   6.045  0.7988 -0.0616 -0.5112
  189SAPI   H5R21735   2.313   0.207   6.089 -0.0028  0.9116  0.0910
  189SAPI   C2621736   2.444   0.252   5.934  0.3540 -0.2908  0.3213
  189SAPI   H6R21737   2.415   0.156   5.889  1.3225 -1.1982  1.5759
  189SAPI   C2721738   2.549   0.337   5.871  0.3733  0.0897  0.6754
  189SAPI   H7R21739   2.599   0.384   5.959  0.5791  3.5086 -1.0939
  189SAPI   H7S21740   2.488   0.413   5.817 -0.6000 -2.0207 -1.3640
  189SAPI   C2821741   2.655   0.263   5.799 -0.4596 -0.3895  0.5440
  189SAPI   H8R21742   2.704   0.198   5.873 -1.3805 -0.0586  1.4615
  189SAPI   C2921743   2.688   0.261   5.668  0.2537 -0.7349 -0.4467
  189SAPI   H9R21744   2.783   0.212   5.643  0.8040 -0.7379  1.4841
  189SAPI  C21021745   2.620   0.341   5.563  0.0179 -0.0543  0.1288
  189SAPI  H10R21746   2.684   0.422   5.522 -1.7526  0.6973 -1.3151
  189SAPI  H10S21747   2.542   0.408   5.606 -1.2115 -2.1744  1.3320
  189SAPI  C21121748   2.567   0.240   5.458 -0.8653 -0.5746 -0.1313
  189SAPI  H11R21749   2.489   0.170   5.490  2.7170 -4.4705  0.9758
  189SAPI  C21221750   2.602   0.232   5.326  0.1900 -0.0906 -0.4088
  189SAPI  H12R21751   2.559   0.152   5.265  1.3684 -1.9716  1.1154
  189SAPI  C21321752   2.701   0.324   5.253  0.9986 -0.1423  0.2488
  189SAPI  H13R21753   2.734   0.275   5.158 -3.2362 -1.4907 -0.7146
  189SAPI  H13S21754   2.795   0.328   5.312  0.5801 -0.1449  0.9190
  189SAPI  C21421755   2.651   0.467   5.239 -0.7534 -0.5815 -0.0819
  189SAPI  H14R21756   2.555   0.493   5.286  0.1057  0.2716  1.2812
  189SAPI  C21521757   2.721   0.564   5.173  0.5193 -0.3920  0.3194
  189SAPI  H15R21758   2.675   0.664   5.180 -0.3349 -0.6911 -0.7121
  189SAPI  C21621759   2.854   0.553   5.110 -0.7989 -0.7551 -0.6207
  189SAPI  H16R21760   2.882   0.446   5.098 -2.9407 -1.1967 -2.3069
  189SAPI  H16S21761   2.923   0.595   5.187 -1.6447 -0.0862 -0.2172
  189SAPI  C21721762   2.883   0.631   4.980  0.0887 -0.4364 -0.3057
  189SAPI  H17R21763   2.864   0.737   5.004 -0.7407 -0.9521  1.5117
  189SAPI  H17S21764   2.816   0.591   4.900  1.2483  0.2826 -1.6689
  189SAPI  C21821765   3.025   0.611   4.928  0.2018  0.4140  0.6210
  189SAPI  H18R21766   3.045   0.502   4.920 -2.1362  0.0694 -2.3672
  189SAPI  H18S21767   3.100   0.657   4.997  0.4917  1.0179 -0.0788
  189SAPI  C21921768   3.055   0.673   4.785  0.1966  0.3495  0.1459
  189SAPI  H19R21769   3.000   0.614   4.709 -0.4541 -0.5981  1.3123
  189SAPI  H19S21770   3.165   0.663   4.771  0.0914 -0.4355 -0.1706
  189SAPI  C22021771   3.030   0.824   4.770 -0.3484 -0.5255  0.2314
  189SAPI  H20R21772   2.934   0.851   4.819 -1.2262 -2.1341 -0.5352
  189SAPI  H20S21773   3.022   0.856   4.664 -0.8539 -2.5804 -0.3828
  189SAPI  H20T21774   3.105   0.881   4.830 -2.1830 -1.9146  4.1440
  189SAPI   C3321775   2.429   1.022   6.149 -0.2365 -0.5538 -0.4322
  189SAPI   H3X21776   2.457   1.127   6.125  0.5889 -0.2918  1.4542
  189SAPI   H3Y21777   2.379   0.975   6.063  0.8160 -1.3852 -0.6166
  189SAPI   C3421778   2.551   0.939   6.175  0.1571  0.6836 -0.2695
  189SAPI   H4X21779   2.543   0.830   6.198  2.1605  0.9664  2.3722
  189SAPI   H4Y21780   2.604   0.988   6.260 -2.0336  0.7207  1.1625
  189SAPI   C3521781   2.640   0.941   6.055 -0.4759 -0.2844  0.5223
  189SAPI   H5X21782   2.731   0.884   6.085  1.4338  2.6821  0.8340
  189SAPI   H5Y21783   2.676   1.044   6.033  0.1847 -1.0165 -2.2098
  189SAPI   C3621784   2.590   0.871   5.927  0.7963  0.7685  0.5522
  189SAPI   H6X21785   2.509   0.932   5.881 -1.7656 -4.0854 -2.2063
  189SAPI   H6Y21786   2.543   0.774   5.951  1.1031  1.1353  2.9023
  189SAPI   C3721787   2.695   0.840   5.819  0.4717 -0.2219  0.0683
  189SAPI   H7X21788   2.764   0.758   5.848  2.3913  0.7418 -1.5808
  189SAPI   H7Y21789   2.759   0.929   5.800 -0.4161  0.5403  0.5783
  189SAPI   C3821790   2.625   0.801   5.691  0.7892  0.3624  0.2484
  189SAPI   H8X21791   2.571   0.892   5.658  2.7089  0.8148 -1.8650
  189SAPI   H8Y21792   2.549   0.721   5.706 -0.9780  1.4905 -2.0147
  189SAPI   C3921793   2.723   0.752   5.579 -0.1824  0.7377  0.2542
  189SAPI   H9X21794   2.668   0.746   5.482 -1.8240 -0.2693  1.1912
  189SAPI   H9Y21795   2.740   0.644   5.599 -0.6405  0.6341  0.1000
  189SAPI  C31021796   2.850   0.818   5.551 -0.3578 -0.8406 -0.1447
  189SAPI  H10X21797   2.909   0.815   5.645  1.1477 -2.6304 -1.0869
  189SAPI  H10Y21798   2.822   0.923   5.529  0.6525 -0.0326  2.0988
  189SAPI  C31121799   2.930   0.752   5.434  0.0359 -0.1487  0.5413
  189SAPI  H11X21800   2.857   0.765   5.350  0.4532  2.3169  0.4666
  189SAPI  H11Y21801   2.941   0.645   5.458  1.9754  0.0269  0.6242
  189SAPI  C31221802   3.075   0.808   5.411  0.2526  0.2958 -0.1578
  189SAPI  H12X21803   3.138   0.781   5.499 -0.0208  1.9597  0.6030
  189SAPI  H12Y21804   3.078   0.919   5.423 -0.0095  0.1693  1.2809
  189SAPI  C31321805   3.147   0.758   5.290  0.2515 -0.8607  0.2729
  189SAPI  H13X21806   3.087   0.792   5.202 -0.2667  0.9005  1.2507
  189SAPI  H13Y21807   3.154   0.648   5.277 -0.3739 -0.8960  0.1811
  189SAPI  C31421808   3.288   0.825   5.287 -0.7508 -0.1957 -0.5935
  189SAPI  H14X21809   3.350   0.762   5.219 -2.0346 -1.3141 -0.7759
  189SAPI  H14Y21810   3.328   0.815   5.390 -0.4235  2.3413 -0.4329
  189SAPI  C31521811   3.296   0.969   5.249  0.0158  0.0211  0.5973
  189SAPI  H15X21812   3.402   1.003   5.247 -0.0796  0.3465 -1.6063
  189SAPI  H15Y21813   3.236   1.040   5.309 -1.1534 -1.3193  1.0726
  189SAPI  C31621814   3.245   0.992   5.104  0.0464  0.7118  0.8941
  189SAPI  H16X21815   3.135   0.986   5.110 -0.3067  1.9497 -2.2757
  189SAPI  H16Y21816   3.289   0.911   5.041 -0.8842  0.4331  0.5885
  189SAPI  C31721817   3.274   1.126   5.040 -1.1497 -0.5068  0.3910
  189SAPI  H17X21818   3.385   1.133   5.043 -1.0999 -1.0318  4.2083
  189SAPI  H17Y21819   3.231   1.205   5.104 -0.0566 -0.4822  1.1277
  189SAPI  C31821820   3.213   1.151   4.908  0.4073  0.1992 -0.2596
  189SAPI  H18X21821   3.222   1.064   4.840  1.4229 -1.1140  1.4730
  189SAPI  H18Y21822   3.240   1.245   4.855 -2.8775  1.9983  0.9451
  189SAPI  H18Z21823   3.103   1.158   4.923  0.2392 -1.5556 -0.4532
  190SAPI   C1221824   1.493   4.394   7.227 -0.3620  0.3716  0.3908
  190SAPI    H221825   1.517   4.435   7.127 -0.7752 -0.7631 -0.2044
  190SAPI    O221826   1.549   4.480   7.328  0.1507  0.1240  0.7618
  190SAPI   HO221827   1.645   4.480   7.322  0.0702  0.4313 -0.7361
  190SAPI   C1321828   1.345   4.373   7.220  0.1339  0.1812  0.1939
  190SAPI    H321829   1.318   4.300   7.140  0.6571  1.0392 -0.7939
  190SAPI    O321830   1.282   4.495   7.182 -0.7244  0.3915 -0.1235
  190SAPI   HO321831   1.297   4.515   7.089  0.0447  0.7853  0.0771
  190SAPI   C1421832   1.300   4.324   7.359  0.5328 -0.2264  0.3393
  190SAPI    H421833   1.314   4.413   7.423 -3.6365  1.3437 -0.6193
  190SAPI    O421834   1.157   4.291   7.364  0.6487 -0.6649  0.2736
  190SAPI   HO421835   1.128   4.261   7.277  2.2685 -0.9955 -0.1989
  190SAPI   C1521836   1.373   4.208   7.424 -0.3105 -0.1259  0.5660
  190SAPI    H521837   1.311   4.118   7.403  0.3021 -0.3554 -0.2871
  190SAPI    O521838   1.371   4.220   7.571 -0.5814  0.0925  0.0928
  190SAPI   HO521839   1.424   4.298   7.588  0.8224  0.2787 -4.0443
  190SAPI   C1621840   1.519   4.186   7.373 -0.3743  0.5964 -0.5066
  190SAPI    H621841   1.590   4.229   7.447 -0.2071 -1.4934  0.5880
  190SAPI    O621842   1.559   4.049   7.363  0.6596  0.6502 -0.2564
  190SAPI   HO621843   1.653   4.060   7.343  0.2842  1.0350 -1.9944
  190SAPI   C1121844   1.551   4.257   7.237  0.2875  0.5098 -0.3981
  190SAPI    H121845   1.497   4.192   7.165 -2.2187  2.7227 -0.6580
  190SAPI     P21846   1.779   4.278   7.076  0.5008  0.2172 -0.2762
  190SAPI   O1321847   1.911   4.203   7.073 -0.4861 -0.1905 -0.6144
  190SAPI   O1421848   1.788   4.423   7.063 -0.4142  0.2441  0.4134
  190SAPI   O1221849   1.694   4.244   7.214  0.6387 -0.3827  0.1182
  190SAPI   O1121850   1.680   4.209   6.978 -0.2207 -0.2856 -0.4015
  190SAPI    C121851   1.709   4.085   6.915  0.5265 -0.4394  0.2458
  190SAPI    HA21852   1.747   4.015   6.992  0.8270  1.7107  2.1619
  190SAPI    HB21853   1.608   4.053   6.879  2.2153 -2.2872 -3.4039
  190SAPI    C221854   1.810   4.092   6.797 -0.2427  0.7754  0.2939
  190SAPI    HS21855   1.895   4.152   6.837  0.4057  0.1426 -0.1180
  190SAPI   O2121856   1.756   4.168   6.687  0.2497  0.0231 -0.4779
  190SAPI   C2121857   1.831   4.212   6.590 -0.5492 -0.4127  0.2185
  190SAPI   O2221858   1.956   4.210   6.593 -0.0069  0.4480 -0.3561
  190SAPI   C2221859   1.736   4.256   6.476  0.0539 -0.1617  0.1640
  190SAPI   H2R21860   1.672   4.168   6.454 -0.1661  0.5703 -2.4825
  190SAPI   H2S21861   1.682   4.340   6.523 -1.0611 -2.1677  2.7328
  190SAPI    C321862   1.859   3.953   6.753 -0.1620 -0.2446  0.1904
  190SAPI    HX21863   1.909   3.907   6.841  0.6476 -0.9719 -0.6342
  190SAPI    HY21864   1.936   3.961   6.674  1.4401  1.6488  1.8563
  190SAPI   O3121865   1.740   3.874   6.731  0.0372 -0.4626 -0.2302
  190SAPI   C3121866   1.694   3.864   6.600  0.2991 -0.3141 -0.5281
  190SAPI   O3221867   1.760   3.893   6.503 -0.2385  0.3726 -0.2823
  190SAPI   C3221868   1.554   3.801   6.603  0.3197  0.6912 -0.0708
  190SAPI   H2X21869   1.493   3.831   6.691 -2.2153  2.7739 -2.3563
  190SAPI   H2Y21870   1.561   3.690   6.599  1.0552  0.7363 -0.0690
  190SAPI   C2321871   1.827   4.302   6.358  0.3582 -1.1237 -0.0561
  190SAPI   H3R21872   1.919   4.358   6.386  0.3555 -1.0841 -0.1263
  190SAPI   H3S21873   1.769   4.380   6.303 -1.8766 -1.8374  1.1774
  190SAPI   C2421874   1.870   4.186   6.263 -0.2669  0.4299  0.0968
  190SAPI   H4R21875   1.910   4.103   6.325  1.7965  0.9229 -0.4897
  190SAPI   H4S21876   1.957   4.208   6.197 -0.1407 -1.5519 -0.4499
  190SAPI   C2521877   1.758   4.125   6.190  0.5664 -0.2217  0.1503
  190SAPI   H5R21878   1.689   4.076   6.260  1.5987 -0.5746  0.9472
  190SAPI   C2621879   1.727   4.126   6.064  0.1044 -0.1431  0.4856
  190SAPI   H6R21880   1.642   4.067   6.027 -0.1942  1.0419 -0.8303
  190SAPI   C2721881   1.805   4.183   5.953 -0.6858 -0.0262  0.2461
  190SAPI   H7R21882   1.862   4.269   5.994 -3.2779  2.2617 -0.5992
  190SAPI   H7S21883   1.744   4.231   5.872 -0.8557 -0.5783  0.0421
  190SAPI   C2821884   1.903   4.080   5.897 -1.0833 -0.2089  0.5922
  190SAPI   H8R21885   1.939   4.012   5.976  1.6728  1.4319  0.8898
  190SAPI   C2921886   1.946   4.067   5.766  0.0638 -0.8727  0.1636
  190SAPI   H9R21887   2.000   3.977   5.733 -0.3187 -0.4635 -1.7181
  190SAPI  C21021888   1.919   4.149   5.640  0.2049 -0.1043  0.4098
  190SAPI  H10R21889   2.006   4.127   5.576  0.1837  1.2478 -0.1310
  190SAPI  H10S21890   1.913   4.258   5.665  0.3266  0.5712 -2.2098
  190SAPI  C21121891   1.790   4.110   5.561 -0.5734 -0.1122  0.6542
  190SAPI  H11R21892   1.738   4.025   5.608 -0.6911  1.5052  3.7466
  190SAPI  C21221893   1.751   4.161   5.445 -0.3303  0.2896 -0.4100
  190SAPI  H12R21894   1.659   4.132   5.393  0.4675 -1.4583 -0.9139
  190SAPI  C21321895   1.827   4.273   5.382 -1.3350  0.5477  0.0754
  190SAPI  H13R21896   1.919   4.304   5.436 -0.1187 -0.7260 -1.1792
  190SAPI  H13S21897   1.766   4.365   5.370 -1.2913  0.4598 -0.8904
  190SAPI  C21421898   1.876   4.236   5.246 -0.5165  0.4244  0.3110
  190SAPI  H14R21899   1.973   4.184   5.245  0.9350  2.8868 -1.6595
  190SAPI  C21521900   1.818   4.257   5.128  0.0818 -0.0785 -0.9725
  190SAPI  H15R21901   1.877   4.211   5.048  1.8386 -1.5195  1.0243
  190SAPI  C21621902   1.686   4.331   5.101 -0.4642 -0.5874 -0.2649
  190SAPI  H16R21903   1.699   4.388   5.006  0.8851 -0.2654  0.0960
  190SAPI  H16S21904   1.664   4.408   5.178 -0.6151 -2.3689  1.5751
  190SAPI  C21721905   1.566   4.235   5.081 -1.4589  0.0220  0.0782
  190SAPI  H17R21906   1.469   4.287   5.065 -1.4366 -0.2803 -1.1035
  190SAPI  H17S21907   1.557   4.175   5.174  1.3106 -1.3892 -0.4779
  190SAPI  C21821908   1.584   4.127   4.975 -0.2606  0.1001  0.2572
  190SAPI  H18R21909   1.489   4.069   4.974 -0.9772  1.2358 -1.0219
  190SAPI  H18S21910   1.665   4.059   5.008 -1.0704 -1.8411 -1.5719
  190SAPI  C21921911   1.610   4.199   4.845 -0.3625  0.6911 -0.1671
  190SAPI  H19R21912   1.711   4.243   4.858 -0.8771  1.5992  0.8648
  190SAPI  H19S21913   1.527   4.271   4.829 -1.5929 -1.1790 -3.0966
  190SAPI  C22021914   1.621   4.104   4.724 -1.0958 -0.2262 -0.6177
  190SAPI  H20R21915   1.530   4.040   4.726 -1.0920 -0.2293  0.9266
  190SAPI  H20S21916   1.710   4.041   4.747 -2.2017 -0.8146  2.5380
  190SAPI  H20T21917   1.632   4.157   4.627  0.3257 -1.2055 -1.0233
  190SAPI   C3321918   1.469   3.847   6.475  0.4512  0.3778 -0.0556
  190SAPI   H3X21919   1.489   3.948   6.435  1.5972  0.1705 -0.0395
  190SAPI   H3Y21920   1.361   3.846   6.501  0.1041  0.7812 -1.3911
  190SAPI   C3421921   1.476   3.749   6.356 -0.5066  0.6184  0.2082
  190SAPI   H4X21922   1.453   3.650   6.400  0.6336  0.5004  0.5731
  190SAPI   H4Y21923   1.578   3.755   6.313 -0.6649  1.8642 -0.0242
  190SAPI   C3521924   1.378   3.786   6.238  0.3393 -0.0156  0.1441
  190SAPI   H5X21925   1.298   3.851   6.277  0.5077  1.2361 -1.4769
  190SAPI   H5Y21926   1.325   3.695   6.201 -1.8280  1.7481 -1.2932
  190SAPI   C3621927   1.448   3.854   6.120 -0.0760  0.5297  0.2633
  190SAPI   H6X21928   1.523   3.918   6.172 -0.8745  0.1024  2.0284
  190SAPI   H6Y21929   1.371   3.903   6.057  0.5649  2.0706  0.6162
  190SAPI   C3721930   1.525   3.766   6.013 -0.4757  0.1172  0.4669
  190SAPI   H7X21931   1.470   3.669   6.018 -0.7279  0.2430  0.1456
  190SAPI   H7Y21932   1.629   3.743   6.047 -0.2649  0.8008  0.2998
  190SAPI   C3821933   1.544   3.838   5.878  0.2429 -0.0248  0.7842
  190SAPI   H8X21934   1.640   3.893   5.891 -0.5957  1.3179  1.5516
  190SAPI   H8Y21935   1.461   3.911   5.867  0.1583 -0.2188  0.0890
  190SAPI   C3921936   1.536   3.735   5.766 -1.1500  0.0810 -0.7508
  190SAPI   H9X21937   1.442   3.677   5.775  0.6845 -2.9186  0.5583
  190SAPI   H9Y21938   1.617   3.663   5.790 -0.6405  0.9389  0.1663
  190SAPI  C31021939   1.558   3.793   5.629  0.1416  0.0377 -0.1446
  190SAPI  H10X21940   1.662   3.831   5.623  0.0726  0.8715  2.5267
  190SAPI  H10Y21941   1.482   3.873   5.614 -0.7785 -0.7246  0.3166
  190SAPI  C31121942   1.553   3.689   5.523 -0.5640 -0.2478 -0.1628
  190SAPI  H11X21943   1.456   3.638   5.537 -0.3739 -0.2376  1.3617
  190SAPI  H11Y21944   1.631   3.612   5.544 -0.1996 -0.3016 -1.6024
  190SAPI  C31221945   1.570   3.756   5.389  0.0485 -0.1873 -0.1323
  190SAPI  H12X21946   1.678   3.783   5.384  0.6279 -2.1654  0.6047
  190SAPI  H12Y21947   1.508   3.847   5.387 -1.8575 -1.4124 -3.0587
  190SAPI  C31321948   1.547   3.658   5.269 -0.0784  0.0064 -0.9620
  190SAPI  H13X21949   1.459   3.599   5.302  0.5651  0.0259  0.9053
  190SAPI  H13Y21950   1.635   3.591   5.257 -1.9640 -2.4628 -1.9140
  190SAPI  C31421951   1.523   3.726   5.135 -0.1139 -0.5855 -0.2166
  190SAPI  H14X21952   1.604   3.801   5.130 -1.8861  1.4417  0.2565
  190SAPI  H14Y21953   1.430   3.786   5.137 -0.7681 -1.5520 -0.7037
  190SAPI  C31521954   1.510   3.629   5.022  0.0018 -0.6091  0.4147
  190SAPI  H15X21955   1.424   3.559   5.034  1.4452 -2.7237 -0.8649
  190SAPI  H15Y21956   1.601   3.566   5.020  0.4139 -0.0316  0.6494
  190SAPI  C31621957   1.494   3.713   4.892  0.4535  0.1803 -0.4591
  190SAPI  H16X21958   1.584   3.777   4.887 -0.6971  2.2334  2.3168
  190SAPI  H16Y21959   1.402   3.775   4.901 -0.2510 -0.2024 -3.7242
  190SAPI  C31721960   1.473   3.633   4.760  0.4392 -0.0130  0.3468
  190SAPI  H17X21961   1.388   3.566   4.784 -0.3414  1.2271  1.1011
  190SAPI  H17Y21962   1.559   3.566   4.735 -0.0014 -0.2685 -0.5492
  190SAPI  C31821963   1.438   3.716   4.636  0.8772  0.4426  0.3674
  190SAPI  H18X21964   1.343   3.768   4.660 -0.1804 -1.5960  0.8147
  190SAPI  H18Y21965   1.423   3.651   4.548  2.6440 -1.9757  1.7270
  190SAPI  H18Z21966   1.511   3.800   4.625  1.3910 -0.1669 -1.0635
  191SAPI   C1221967   4.576   6.439   2.161  0.5044  0.1916  0.0954
  191SAPI    H221968   4.604   6.508   2.243  2.6611 -1.5790  0.9656
  191SAPI    O221969   4.480   6.499   2.076  0.1821 -0.1933 -0.4891
  191SAPI   HO221970   4.495   6.593   2.076 -0.9973  0.0391  0.8218
  191SAPI   C1321971   4.707   6.425   2.082  0.0187  0.5022 -0.1644
  191SAPI    H321972   4.786   6.366   2.133  0.3120 -0.8610 -2.0824
  191SAPI    O321973   4.770   6.553   2.053  0.7161  0.2487  0.1736
  191SAPI   HO321974   4.851   6.532   2.006  0.4730  0.0452 -0.1590
  191SAPI   C1421975   4.685   6.339   1.954 -0.1218 -0.1406  0.4858
  191SAPI    H421976   4.620   6.405   1.892  0.8424 -0.7995 -1.2953
  191SAPI    O421977   4.794   6.316   1.870 -0.2758 -0.0907  0.4239
  191SAPI   HO421978   4.755   6.325   1.783  2.0665 -0.4308 -0.7567
  191SAPI   C1521979   4.607   6.207   1.977  0.6515 -0.2319  0.2709
  191SAPI    H521980   4.681   6.124   1.986 -1.5575 -2.1543  2.0426
  191SAPI    O521981   4.540   6.168   1.855 -0.1732  0.0974  0.7255
  191SAPI   HO521982   4.598   6.107   1.809 -0.3612 -0.2329  0.9245
  191SAPI   C1621983   4.515   6.201   2.108  0.2259  1.0675  0.5460
  191SAPI    H621984   4.411   6.194   2.067  0.3027  1.9321  0.1773
  191SAPI    O621985   4.524   6.071   2.165 -0.0386 -0.3049  0.5815
  191SAPI   HO621986   4.616   6.049   2.181 -0.1542 -0.3277  1.2561
  191SAPI   C1121987   4.527   6.311   2.213 -0.2800  1.0334 -0.0745
  191SAPI    H121988   4.612   6.273   2.273 -1.2028  0.9257  1.2037
  191SAPI     P21989   4.396   6.329   2.451  0.1638 -0.2814 -0.5612
  191SAPI   O1321990   4.316   6.447   2.486  0.0112 -0.2592  0.2512
  191SAPI   O1421991   4.532   6.313   2.514 -0.0300  0.0895  0.7484
  191SAPI   O1221992   4.406   6.315   2.290  0.1927 -0.5922  0.3374
  191SAPI   O1121993   4.316   6.198   2.480 -0.1052  0.5140 -0.3517
  191SAPI    C121994   4.384   6.089   2.554  0.0025  1.2849  0.0770
  191SAPI    HA21995   4.326   5.999   2.526 -2.9015  2.9457  0.3196
  191SAPI    HB21996   4.490   6.074   2.522  0.4937  3.4828  0.4965
  191SAPI    C221997   4.377   6.086   2.705 -0.4706  0.7619 -0.2548
  191SAPI    HS21998   4.420   5.988   2.735 -0.3230  0.2264 -2.1030
  191SAPI   O2121999   4.245   6.114   2.740  0.1095  0.5128  0.2788
  191SAPI   C2122000   4.171   6.012   2.775  0.6116 -0.0643 -0.5266
  191SAPI   O2222001   4.201   5.891   2.776 -0.3156  0.0813  0.3894
  191SAPI   C2222002   4.037   6.066   2.817 -0.3601 -0.4397  0.5145
  191SAPI   H2R22003   4.043   6.152   2.887 -1.3890 -1.7135  2.2304
  191SAPI   H2S22004   3.981   6.107   2.730  0.8452 -0.4188 -0.2747
  191SAPI    C322005   4.454   6.193   2.775 -0.5043 -0.1763 -0.1731
  191SAPI    HX22006   4.411   6.290   2.744  0.4883  0.6124  0.8220
  191SAPI    HY22007   4.558   6.179   2.738 -0.1028  2.7555 -0.3802
  191SAPI   O3122008   4.456   6.181   2.922 -0.0459 -0.1821 -0.1606
  191SAPI   C3122009   4.540   6.276   2.965 -0.3407 -0.0700  0.8550
  191SAPI   O3222010   4.610   6.343   2.891  0.0402 -0.4359 -0.1878
  191SAPI   C3222011   4.546   6.272   3.118  0.4128 -0.2363  0.7058
  191SAPI   H2X22012   4.515   6.174   3.161  1.8964 -1.3523 -0.6397
  191SAPI   H2Y22013   4.480   6.355   3.150  2.6685  1.7621  0.4043
  191SAPI   C2322014   3.943   5.962   2.879  0.0709 -0.0623 -0.4156
  191SAPI   H3R22015   3.957   5.860   2.839 -1.8392 -0.4564 -0.1976
  191SAPI   H3S22016   3.844   5.987   2.835 -0.4665 -0.4663  0.5212
  191SAPI   C2422017   3.949   5.973   3.035 -0.0117  0.9031 -0.1473
  191SAPI   H4R22018   3.862   5.924   3.082  1.0846  0.0942  1.1154
  191SAPI   H4S22019   3.945   6.079   3.067 -1.1566  0.8815 -0.2047
  191SAPI   C2522020   4.079   5.912   3.092  0.8273  0.6569 -0.2423
  191SAPI   H5R22021   4.156   5.874   3.023  1.0221  0.4814  0.0704
  191SAPI   C2622022   4.086   5.891   3.227 -0.3252 -0.4175  0.4948
  191SAPI   H6R22023   4.178   5.859   3.279  0.3338  0.6237 -0.0011
  191SAPI   C2722024   3.975   5.911   3.334  0.0244 -0.0549 -0.3625
  191SAPI   H7R22025   3.971   5.823   3.403 -3.4787  0.0347 -0.2679
  191SAPI   H7S22026   3.874   5.925   3.291 -1.1094  2.1559  2.6727
  191SAPI   C2822027   3.984   6.040   3.417 -0.1656  1.0875  0.0808
  191SAPI   H8R22028   4.001   6.132   3.359  0.0382  1.7512  1.1668
  191SAPI   C2922029   3.974   6.058   3.550  0.1908  0.2508  0.1273
  191SAPI   H9R22030   3.992   6.156   3.597 -0.5183  1.7541 -2.4707
  191SAPI  C21022031   3.948   5.944   3.644  0.5591 -0.0568 -1.0089
  191SAPI  H10R22032   4.043   5.911   3.690  0.2677 -1.9151 -1.6488
  191SAPI  H10S22033   3.904   5.849   3.605 -0.2846  0.5182 -1.4739
  191SAPI  C21122034   3.839   5.998   3.730  0.0532 -0.1318 -0.8679
  191SAPI  H11R22035   3.737   5.971   3.698 -0.4258  0.4698  0.1170
  191SAPI  C21222036   3.852   6.035   3.860  0.4937  0.4455  0.0263
  191SAPI  H12R22037   3.767   6.084   3.909 -0.9913  0.3576 -2.2873
  191SAPI  C21322038   3.984   6.064   3.920  0.2981 -0.0010 -0.1030
  191SAPI  H13R22039   4.053   5.981   3.892 -0.3427 -0.9029  0.9079
  191SAPI  H13S22040   3.976   6.056   4.031  0.2846  2.0524  0.0836
  191SAPI  C21422041   4.040   6.195   3.881 -0.1687 -0.1530 -0.4882
  191SAPI  H14R22042   4.098   6.197   3.787  0.2660  0.4067 -0.2182
  191SAPI  C21522043   4.010   6.311   3.947 -0.3345  0.6998  0.2285
  191SAPI  H15R22044   4.045   6.411   3.917 -0.2520  0.1614 -1.6285
  191SAPI  C21622045   3.938   6.316   4.079  0.3659  0.2799  0.0702
  191SAPI  H16R22046   3.857   6.242   4.070  2.2809 -1.9259  0.0541
  191SAPI  H16S22047   3.882   6.410   4.102 -0.1550  0.9416 -3.3134
  191SAPI  C21722048   4.035   6.295   4.189 -0.3385 -0.2482 -0.0149
  191SAPI  H17R22049   4.110   6.377   4.186 -0.0814 -0.5061 -0.9686
  191SAPI  H17S22050   4.089   6.201   4.171 -1.2038 -1.2767  2.2842
  191SAPI  C21822051   3.970   6.298   4.326  0.7624 -0.1537 -0.3813
  191SAPI  H18R22052   3.937   6.403   4.344 -1.4836 -0.7800 -0.5579
  191SAPI  H18S22053   4.046   6.264   4.401 -0.0008  2.7146  1.8867
  191SAPI  C21922054   3.852   6.194   4.352 -0.0189 -0.5520  0.0506
  191SAPI  H19R22055   3.770   6.218   4.280  0.8566 -2.5633 -1.7509
  191SAPI  H19S22056   3.806   6.223   4.448  0.3562 -0.7051  0.2789
  191SAPI  C22022057   3.894   6.048   4.344  0.7880  0.0944  0.2284
  191SAPI  H20R22058   3.809   5.990   4.385  0.5183  1.9850  2.5712
  191SAPI  H20S22059   3.986   6.030   4.404  1.8381  3.5254 -0.1229
  191SAPI  H20T22060   3.922   6.018   4.241 -1.0288  0.2341 -0.3465
  191SAPI   C3322061   4.690   6.295   3.165 -0.0845 -0.2544 -0.4999
  191SAPI   H3X22062   4.731   6.396   3.144  1.7904 -0.6497  0.9816
  191SAPI   H3Y22063   4.750   6.218   3.113 -1.3396  0.1331 -2.6432
  191SAPI   C3422064   4.711   6.272   3.313  0.2960  0.0624  0.0580
  191SAPI   H4X22065   4.691   6.168   3.349  1.0150  0.3362  1.2891
  191SAPI   H4Y22066   4.630   6.338   3.351 -0.2642 -1.4327  1.5770
  191SAPI   C3522067   4.859   6.296   3.340 -0.6716 -0.9506 -0.2564
  191SAPI   H5X22068   4.902   6.380   3.281 -0.0922 -1.2917 -0.3336
  191SAPI   H5Y22069   4.918   6.207   3.309  1.4772  0.4692 -0.5196
  191SAPI   C3622070   4.893   6.317   3.483  0.1856  0.0739 -0.1873
  191SAPI   H6X22071   4.820   6.392   3.521 -1.2948 -1.9946  1.2430
  191SAPI   H6Y22072   5.000   6.343   3.498  0.0252  0.7450 -0.1814
  191SAPI   C3722073   4.878   6.192   3.561 -0.6868 -0.0910 -0.5199
  191SAPI   H7X22074   4.962   6.120   3.549  0.0885  0.5688  0.7833
  191SAPI   H7Y22075   4.785   6.138   3.534  0.2773 -2.9019  1.3071
  191SAPI   C3822076   4.864   6.215   3.714 -0.7559  0.5873 -0.0605
  191SAPI   H8X22077   4.763   6.257   3.732 -0.2267  1.0672  2.0926
  191SAPI   H8Y22078   4.944   6.281   3.755 -1.8312  0.3596  2.6436
  191SAPI   C3922079   4.875   6.084   3.797  0.2676  0.0791 -0.2386
  191SAPI   H9X22080   4.957   6.018   3.763 -2.0863 -2.6328 -1.0527
  191SAPI   H9Y22081   4.780   6.032   3.771  0.1170 -0.1802  0.7929
  191SAPI  C31022082   4.882   6.109   3.951 -0.4340 -0.5286 -0.7900
  191SAPI  H10X22083   4.806   6.188   3.969 -0.9623 -1.2852  0.4243
  191SAPI  H10Y22084   4.979   6.152   3.983 -0.8117 -0.5572  0.4656
  191SAPI  C31122085   4.851   5.983   4.031  0.4493 -0.9200  0.2903
  191SAPI  H11X22086   4.936   5.911   4.023  0.5784 -0.6657 -0.7270
  191SAPI  H11Y22087   4.757   5.944   3.986  0.2524 -0.0990 -0.0286
  191SAPI  C31222088   4.836   5.999   4.182 -0.2897  0.0485  0.1376
  191SAPI  H12X22089   4.934   6.031   4.224 -0.7851  1.4103  0.3114
  191SAPI  H12Y22090   4.812   5.898   4.221  0.1531 -0.3492 -0.5976
  191SAPI  C31322091   4.724   6.092   4.215 -0.0372 -0.8966 -0.2878
  191SAPI  H13X22092   4.632   6.073   4.156 -1.5643 -1.3217  2.0697
  191SAPI  H13Y22093   4.760   6.195   4.195 -0.6655 -1.0041 -2.1988
  191SAPI  C31422094   4.705   6.104   4.365  0.8895  0.0014 -0.4640
  191SAPI  H14X22095   4.799   6.083   4.420  0.1134 -1.2697  0.4403
  191SAPI  H14Y22096   4.643   6.018   4.397  0.9322  0.0431 -0.2638
  191SAPI  C31522097   4.651   6.231   4.424  1.0188 -0.9966 -0.4724
  191SAPI  H15X22098   4.720   6.311   4.390  0.6987 -1.5806 -2.6113
  191SAPI  H15Y22099   4.649   6.228   4.535  3.0893  2.2391 -0.2026
  191SAPI  C31622100   4.513   6.263   4.373  0.3929  0.7809  0.0080
  191SAPI  H16X22101   4.450   6.175   4.398  1.2380  0.3836  0.8190
  191SAPI  H16Y22102   4.524   6.267   4.263  0.9605  3.2272  0.1042
  191SAPI  C31722103   4.435   6.385   4.427 -0.2048  0.0932  0.2649
  191SAPI  H17X22104   4.335   6.401   4.381 -0.3757  0.5437  0.7753
  191SAPI  H17Y22105   4.488   6.482   4.419  1.1803 -0.7071 -0.5026
  191SAPI  C31822106   4.402   6.360   4.579  0.1964 -1.0284 -0.1325
  191SAPI  H18X22107   4.489   6.371   4.647 -1.0707 -1.9736  1.6979
  191SAPI  H18Y22108   4.353   6.261   4.589 -1.5241 -0.3109 -1.0411
  191SAPI  H18Z22109   4.323   6.434   4.603  0.3301 -1.0060  0.2349
  192SAPI   C1222110   0.326   6.652   2.333 -0.3512  0.0434  0.2363
  192SAPI    H222111   0.334   6.607   2.435 -0.6109 -0.5331  0.0083
  192SAPI    O222112   0.255   6.769   2.375 -0.1545 -0.3172 -0.1179
  192SAPI   HO222113   0.162   6.743   2.382 -0.9161  2.1796  0.0660
  192SAPI   C1322114   0.471   6.675   2.293  0.9029 -0.5275  0.5124
  192SAPI    H322115   0.520   6.576   2.284  0.3021 -0.8018  0.2411
  192SAPI    O322116   0.554   6.743   2.391 -0.1606 -0.2772 -0.1304
  192SAPI   HO322117   0.535   6.837   2.396 -1.1215 -0.5394  2.0608
  192SAPI   C1422118   0.470   6.744   2.153 -0.0774  0.1065 -0.5172
  192SAPI    H422119   0.427   6.845   2.167 -0.6210 -0.4725  2.7224
  192SAPI    O422120   0.606   6.769   2.112  1.0498  0.4057  0.3596
  192SAPI   HO422121   0.646   6.827   2.177 -0.1516  0.0838  1.4258
  192SAPI   C1522122   0.381   6.667   2.053  0.4941 -0.1968  0.2450
  192SAPI    H522123   0.436   6.576   2.023  1.3662  0.3667  0.0758
  192SAPI    O522124   0.373   6.734   1.925 -0.6629 -0.1498  0.1733
  192SAPI   HO522125   0.454   6.703   1.885 -0.3892 -2.8089  2.4651
  192SAPI   C1622126   0.240   6.630   2.098 -0.4678  0.0599 -0.3738
  192SAPI    H622127   0.180   6.721   2.116 -0.4209  0.3475 -1.5835
  192SAPI    O622128   0.176   6.550   2.004  0.0875  0.4256 -0.7894
  192SAPI   HO622129   0.098   6.512   2.045 -0.4251  1.2733 -0.9624
  192SAPI   C1122130   0.247   6.568   2.241  0.9429  0.4643  0.5907
  192SAPI    H122131   0.305   6.475   2.222  0.3113  0.2488 -0.3638
  192SAPI     P22132   0.088   6.395   2.371  0.1159  0.0399 -0.6806
  192SAPI   O1322133   0.190   6.291   2.359  0.2754 -0.1288 -0.1844
  192SAPI   O1422134  -0.055   6.362   2.344  0.0214 -0.1008  0.2834
  192SAPI   O1222135   0.116   6.529   2.280 -0.0357 -0.3564 -0.5649
  192SAPI   O1122136   0.107   6.469   2.509  0.5304 -0.5970  0.1110
  192SAPI    C122137   0.024   6.562   2.574  0.5540 -0.0833 -0.3346
  192SAPI    HA22138   0.041   6.663   2.532  1.4603  0.0973  0.4152
  192SAPI    HB22139  -0.084   6.543   2.559  0.3764  0.7520 -0.1316
  192SAPI    C222140   0.046   6.557   2.725 -0.2969 -0.1564  0.7849
  192SAPI    HS22141  -0.007   6.640   2.777 -2.8745 -0.4721 -1.1435
  192SAPI   O2122142   0.188   6.569   2.757  0.1457 -0.8557 -0.0450
  192SAPI   C2122143   0.227   6.695   2.744 -0.1982  0.2652  0.3951
  192SAPI   O2222144   0.161   6.785   2.693  0.1823  0.2874  0.4923
  192SAPI   C2222145   0.365   6.717   2.793  0.9225 -0.0891  0.8728
  192SAPI   H2R22146   0.418   6.620   2.807 -0.4796 -1.1274 -0.6710
  192SAPI   H2S22147   0.414   6.769   2.708 -2.3398  0.6534 -0.6848
  192SAPI    C322148  -0.023   6.432   2.803 -0.3972  0.1029  0.6033
  192SAPI    HX22149   0.012   6.338   2.755  0.0765  0.8969 -0.6534
  192SAPI    HY22150  -0.131   6.444   2.779 -0.3791 -0.9142 -0.0713
  192SAPI   O3122151  -0.000   6.431   2.947  0.2276 -0.1671 -0.1896
  192SAPI   C3122152  -0.084   6.485   3.026  0.6979 -0.2409  0.1160
  192SAPI   O3222153  -0.180   6.552   2.987  0.3439  0.6238 -0.0418
  192SAPI   C3222154  -0.035   6.476   3.170 -0.0395  0.3015  0.2294
  192SAPI   H2X22155  -0.006   6.579   3.200 -1.7397  0.6401  0.8005
  192SAPI   H2Y22156   0.045   6.400   3.172 -1.5954 -1.4043  0.3296
  192SAPI   C2322157   0.371   6.804   2.917  0.2387 -0.4458  0.4460
  192SAPI   H3R22158   0.318   6.898   2.891  0.4514  1.2302  5.0966
  192SAPI   H3S22159   0.474   6.822   2.954  1.0548 -2.9091 -0.4316
  192SAPI   C2422160   0.298   6.740   3.036 -0.0319  0.0138 -0.1567
  192SAPI   H4R22161   0.189   6.757   3.018 -0.0884 -1.5965 -1.6696
  192SAPI   H4S22162   0.333   6.800   3.122  0.0819  0.6176 -0.6233
  192SAPI   C2522163   0.321   6.594   3.065 -0.0622 -1.4406  0.5942
  192SAPI   H5R22164   0.286   6.535   2.979 -0.9108 -0.9828  0.6170
  192SAPI   C2622165   0.378   6.537   3.176 -0.7281 -0.2417 -0.8038
  192SAPI   H6R22166   0.386   6.428   3.187 -0.1767 -0.0843  0.4631
  192SAPI   C2722167   0.440   6.606   3.292 -0.2072 -0.8080 -0.1485
  192SAPI   H7R22168   0.506   6.687   3.255 -0.0731 -0.5789  0.5666
  192SAPI   H7S22169   0.502   6.538   3.355  0.9087  1.7741  1.7522
  192SAPI   C2822170   0.351   6.682   3.393  0.6735 -0.5076  0.6790
  192SAPI   H8R22171   0.278   6.747   3.343  0.2978 -2.1393 -0.9949
  192SAPI   C2922172   0.343   6.659   3.525  0.1646  0.0936 -0.0377
  192SAPI   H9R22173   0.278   6.725   3.584  1.2972  1.5320 -0.3403
  192SAPI  C21022174   0.429   6.576   3.610 -0.2235  0.1445  0.3701
  192SAPI  H10R22175   0.414   6.472   3.572 -1.4588  0.5253 -0.2399
  192SAPI  H10S22176   0.368   6.570   3.703  1.5559  0.5275  1.6168
  192SAPI  C21122177   0.574   6.613   3.635  0.5481  0.2282 -0.4066
  192SAPI  H11R22178   0.630   6.647   3.547 -0.0760  1.2240 -0.4299
  192SAPI  C21222179   0.635   6.616   3.756  0.1387  0.3469 -0.3567
  192SAPI  H12R22180   0.726   6.677   3.763  0.9010 -0.5942 -1.6818
  192SAPI  C21322181   0.586   6.570   3.892  0.1987  0.2002 -0.5920
  192SAPI  H13R22182   0.662   6.498   3.928  0.4178 -1.5511 -4.1199
  192SAPI  H13S22183   0.494   6.509   3.887  0.9875 -0.9318 -2.9843
  192SAPI  C21422184   0.556   6.686   3.981 -0.1080 -0.3205 -0.0118
  192SAPI  H14R22185   0.479   6.755   3.943  1.6485  0.9382 -1.4827
  192SAPI  C21522186   0.613   6.722   4.106  0.0158 -0.6982  0.6855
  192SAPI  H15R22187   0.582   6.812   4.160 -0.4785 -0.1704 -0.4337
  192SAPI  C21622188   0.715   6.639   4.176  0.1097 -0.6544 -0.2845
  192SAPI  H16R22189   0.789   6.711   4.217  0.5715  0.6063 -3.0796
  192SAPI  H16S22190   0.767   6.565   4.110 -0.3829 -1.4827  0.2407
  192SAPI  C21722191   0.655   6.566   4.301  0.2306 -0.1682  0.8401
  192SAPI  H17R22192   0.738   6.531   4.365 -1.4765 -1.0538  2.6789
  192SAPI  H17S22193   0.600   6.481   4.257  2.5833 -1.9898  1.2677
  192SAPI  C21822194   0.568   6.655   4.394  0.4047  0.1670 -0.6004
  192SAPI  H18R22195   0.487   6.702   4.336 -1.2993 -0.6704  1.0020
  192SAPI  H18S22196   0.631   6.739   4.432  0.4707 -0.4706  0.7885
  192SAPI  C21922197   0.517   6.569   4.510  0.5264 -0.1110  0.5033
  192SAPI  H19R22198   0.477   6.637   4.588  1.6688 -0.9903  1.9039
  192SAPI  H19S22199   0.604   6.525   4.564  1.1654  1.9846  1.3004
  192SAPI  C22022200   0.415   6.467   4.481  0.4890 -0.1506  0.2558
  192SAPI  H20R22201   0.314   6.500   4.448  0.1023  0.2810  1.7917
  192SAPI  H20S22202   0.396   6.401   4.568  0.2116 -1.4440 -0.7572
  192SAPI  H20T22203   0.448   6.394   4.405  1.9324  1.7064 -0.9928
  192SAPI   C3322204  -0.137   6.418   3.270  0.2780 -0.1387  0.3583
  192SAPI   H3X22205  -0.148   6.311   3.239  2.2985  0.0108 -1.0104
  192SAPI   H3Y22206  -0.237   6.461   3.246 -0.3007 -0.0207  2.7122
  192SAPI   C3422207  -0.092   6.441   3.410  0.3195 -0.0691 -0.4899
  192SAPI   H4X22208  -0.169   6.458   3.488  1.7910  0.0416  0.9782
  192SAPI   H4Y22209  -0.038   6.538   3.415 -0.7235  0.4682  2.0073
  192SAPI   C3522210  -0.009   6.326   3.475 -0.1511  0.5776 -0.8877
  192SAPI   H5X22211   0.093   6.324   3.430 -0.4275 -0.1585 -1.5018
  192SAPI   H5Y22212  -0.059   6.231   3.445  2.2481 -1.2325  0.4287
  192SAPI   C3622213  -0.024   6.313   3.629 -0.2839  0.1026  0.6482
  192SAPI   H6X22214   0.035   6.225   3.661 -2.0256 -1.1154  0.6565
  192SAPI   H6Y22215  -0.131   6.298   3.653 -0.4386 -2.1967 -1.1339
  192SAPI   C3722216   0.021   6.437   3.712 -0.2928  0.0529  0.0972
  192SAPI   H7X22217  -0.038   6.528   3.685  1.4184  1.7002  1.5661
  192SAPI   H7Y22218   0.127   6.469   3.708 -0.2637  0.3869  2.1026
  192SAPI   C3822219   0.010   6.404   3.858 -0.6123  0.1687  0.4114
  192SAPI   H8X22220  -0.094   6.383   3.891 -0.2964  0.1512  1.4634
  192SAPI   H8Y22221   0.035   6.493   3.920  0.5158  0.0176  0.2002
  192SAPI   C3922222   0.108   6.297   3.915  0.1231 -0.2464  0.0764
  192SAPI   H9X22223   0.211   6.297   3.874  1.2138  2.4547  2.4350
  192SAPI   H9Y22224   0.054   6.202   3.900  0.3308 -0.5650  1.2195
  192SAPI  C31022225   0.127   6.316   4.066  0.6220  0.3044  0.1605
  192SAPI  H10X22226   0.034   6.321   4.126  0.4535  2.3928 -0.1811
  192SAPI  H10Y22227   0.174   6.413   4.092  1.4832  0.2885 -1.2299
  192SAPI  C31122228   0.211   6.200   4.128 -0.2846  0.0223  0.1378
  192SAPI  H11X22229   0.174   6.113   4.069 -0.9484  0.4341 -0.0634
  192SAPI  H11Y22230   0.184   6.192   4.235 -0.6067 -0.8553  0.0034
  192SAPI  C31222231   0.361   6.209   4.114  0.1822 -1.0566  0.2629
  192SAPI  H12X22232   0.394   6.302   4.164  0.9245 -0.9637 -0.3812
  192SAPI  H12Y22233   0.399   6.210   4.010  0.1523 -0.3752  0.2553
  192SAPI  C31322234   0.438   6.097   4.179 -0.4489 -0.8221  0.0125
  192SAPI  H13X22235   0.547   6.118   4.169 -0.3946 -1.0831  0.0326
  192SAPI  H13Y22236   0.419   6.002   4.124 -0.7089 -0.7995  0.0646
  192SAPI  C31422237   0.411   6.068   4.329 -0.0384  0.7257 -0.2504
  192SAPI  H14X22238   0.302   6.056   4.343 -0.0338  2.0100  1.2860
  192SAPI  H14Y22239   0.442   6.166   4.373 -0.8375  1.1807 -0.6811
  192SAPI  C31522240   0.487   5.943   4.372  0.3206 -0.0554  0.5464
  192SAPI  H15X22241   0.476   5.921   4.480 -1.7003 -0.7472  0.2362
  192SAPI  H15Y22242   0.592   5.973   4.352  0.6312 -2.1981 -1.6142
  192SAPI  C31622243   0.455   5.812   4.296  0.1088 -0.0388 -0.1121
  192SAPI  H16X22244   0.511   5.726   4.340 -0.5820 -0.4692 -0.0651
  192SAPI  H16Y22245   0.498   5.822   4.193  2.1610 -4.1925  0.1231
  192SAPI  C31722246   0.299   5.776   4.284 -0.0915 -0.0170 -0.5927
  192SAPI  H17X22247   0.297   5.688   4.215  0.3816  1.3071 -2.3727
  192SAPI  H17Y22248   0.253   5.850   4.216  0.0545 -0.3735 -1.0880
  192SAPI  C31822249   0.229   5.738   4.413 -0.7330 -0.3762  0.2598
  192SAPI  H18X22250   0.133   5.687   4.389 -0.0301 -1.6971  0.1650
  192SAPI  H18Y22251   0.215   5.827   4.478 -2.0948 -1.1466  1.0765
  192SAPI  H18Z22252   0.281   5.658   4.471  1.8788  1.0929  0.1018
  193SOD    SOD22253   4.438   5.408   7.493 -0.0709 -0.1800  0.5378
  194SOD    SOD22254   0.159   5.541   2.301  0.2149  0.2677  0.0438
  195SOD    SOD22255   2.434   3.485   1.211  0.0461 -0.1605 -0.3515
  196SOD    SOD22256   3.850   1.851   2.435  0.1773  0.1121  0.1649
  197SOD    SOD22257   2.495   3.301   2.390  0.0223  0.0498  0.0954
  198SOD    SOD22258   5.937   0.713   1.798 -0.3359 -0.3967  0.0542
  199SOD    SOD22259   2.356   6.143   2.356 -0.1883 -0.3691  0.1588
  200SOD    SOD22260   4.766   0.330   1.784  0.2859 -0.4147  0.1323
  201SOD    SOD22261   2.075   6.075   0.953 -0.0671 -0.2629  0.7211
  202SOD    SOD22262   5.559   1.861   7.406 -0.2734 -0.0202 -0.1588
  203SOD    SOD22263   4.298   0.963   7.527  0.0835  0.6220 -0.6479
  204SOD    SOD22264   3.414   5.739   1.594 -0.6942  0.3216 -0.2261
  205SOD    SOD22265   4.041   5.944   2.267  0.0731  0.1226 -0.2051
  206SOD    SOD22266   0.668   6.126   7.110 -0.0036 -0.0880 -0.4629
  207SOD    SOD22267   3.423   0.102   7.230  0.0370  0.3776  0.2663
  208SOD    SOD22268   1.969   3.114   0.687 -0.3988 -0.3918 -0.1602
  209SOD    SOD22269   3.352   0.960   8.137 -0.0311 -0.2344 -0.2247
  210SOD    SOD22270   6.192   5.000   7.602 -0.0459 -0.4068 -0.4338
  211SOD    SOD22271   5.432   4.545   7.097 -0.0857 -0.5357 -0.4774
  212SOD    SOD22272   3.740   5.296   8.806 -0.5293  0.3128  0.2257
  213SOD    SOD22273   5.069   2.117   0.841 -0.1506 -0.3768  0.0946
  214SOD    SOD22274   3.332   0.581   1.186 -0.4274  0.2444 -0.6538
  215SOD    SOD22275   2.131   2.814   6.761  0.5711  0.2054  0.2446
  216SOD    SOD22276   1.219   4.563   8.273  0.2169 -0.3251 -0.3618
  217SOD    SOD22277   2.123   3.787   8.816  0.0460  0.2470 -0.0947
  218SOD    SOD22278   5.950   5.963   8.143  0.0671  0.2381  0.3027
  219SOD    SOD22279   1.556   0.795   0.861  0.2353 -0.2646  0.1413
  220SOD    SOD22280   6.171   2.866   8.247  0.2834 -0.2566 -0.0004
  221SOD    SOD22281   6.008   3.614   6.711  0.1126  0.1079 -0.1130
  222SOD    SOD22282   6.619   1.446   1.821 -0.0553  0.1342 -0.1560
  223SOD    SOD22283   5.315   6.202   0.416 -0.0366  0.0415 -0.2924
  224SOD    SOD22284   6.350   3.891   2.124 -0.4812 -0.1443  0.3268
  225SOD    SOD22285   4.477   4.038   7.248 -0.2814  0.1585  0.0948
  226SOD    SOD22286   2.594   6.512   0.027  0.4330  0.2921 -0.1300
  227SOD    SOD22287   4.882   4.755   6.582  0.1491 -0.0290 -0.0058
  228SOD    SOD22288   1.436   3.385   0.750 -0.2822 -0.2498  0.0835
  229SOD    SOD22289   5.453   4.921   8.478  0.0505 -0.6426 -0.0587
  230SOD    SOD22290   5.876   6.578   0.433 -0.1138 -0.3515  0.5036
  231SOD    SOD22291   3.783   3.680   2.150 -0.3992 -0.1428 -0.1018
  232SOD    SOD22292   5.091   2.228   8.871  0.3067 -0.3343  0.3429
  233SOD    SOD22293   0.611   4.990   7.301 -0.3171 -0.3824  0.0489
  234CLA    CLA22294   3.820   2.966   1.860  0.0504  0.3624 -0.2012
  235CLA    CLA22295   2.545   0.448   8.967 -0.4175  0.0169 -0.2161
  236CLA    CLA22296   0.152   0.747   1.601  0.2352  0.2832 -0.0843
  237CLA    CLA22297   3.439   6.089   0.104 -0.1876 -0.1196  0.1375
  238CLA    CLA22298   1.393   6.538   8.443  0.0722  0.1420  0.1303
  239CLA    CLA22299   0.033   6.172   0.540 -0.0792 -0.0346 -0.0222
  240CLA    CLA22300   6.402   4.306   8.962  0.0602  0.1982  0.0154
  241CLA    CLA22301   6.221   5.677   8.375 -0.0656  0.2727  0.4956
  242CLA    CLA22302   0.197   6.515   1.466  0.3358 -0.2963 -0.2477
  243CLA    CLA22303   2.692   0.138   1.181  0.3836 -0.0365 -0.2051
  244CLA    CLA22304   6.065   1.595   8.241 -0.0822 -0.2200 -0.0755
  245CLA    CLA22305   5.547   0.960   8.302  0.6618 -0.1987 -0.2201
  246CLA    CLA22306   3.288   4.312   8.782  0.3197 -0.5462  0.4403
  247CLA    CLA22307   2.920   0.885   1.055  0.0824 -0.0021 -0.3429
  248CLA    CLA22308   4.025   4.591   1.002  0.0550 -0.0112 -0.4405
  249CLA    CLA22309   4.789   3.501   8.450 -0.3296  0.2449  0.1672
  250CLA    CLA22310   6.173   3.386   7.295  0.2156  0.8110 -0.1136
  251TIP3   OH222311   1.665   3.444   1.864  0.3149 -0.1509 -0.1386
  251TIP3    H122312   1.612   3.417   1.940  1.0253 -0.1953  0.3475
  251TIP3    H222313   1.667   3.539   1.869 -2.3074  0.1058 -1.9318
  252TIP3   OH222314   0.803   0.793   0.231  0.1107  0.4286  0.4121
  252TIP3    H122315   0.727   0.838   0.194  0.4508  0.1113 -0.7233
  252TIP3    H222316   0.769   0.748   0.308 -0.7333  0.7248  0.2256
  253TIP3   OH222317   0.050   0.087   0.246  0.3485  0.8178 -0.1901
  253TIP3    H122318   0.078   0.025   0.178 -0.4864 -0.1173  0.2876
  253TIP3    H222319   0.035   0.032   0.323 -1.1520  1.4871  0.0313
  254TIP3   OH222320   0.039   3.712   7.927  0.8277 -0.0794  0.2859
  254TIP3    H122321   0.129   3.680   7.934  0.3733 -1.4428  0.1949
  254TIP3    H222322   0.028   3.731   7.834  0.5982 -1.2751  0.0515
  255TIP3   OH222323   1.830   6.378   7.726 -0.3667  0.5265 -0.2835
  255TIP3    H122324   1.830   6.414   7.638 -1.4644 -0.9541 -0.9338
  255TIP3    H222325   1.750   6.410   7.766  0.2065  1.3260  0.2660
  256TIP3   OH222326   1.989   6.448   8.653  0.0013  0.0308  0.4031
  256TIP3    H122327   1.994   6.495   8.736 -1.5285 -0.9616  1.1015
  256TIP3    H222328   1.954   6.511   8.591 -0.0512  0.4227  0.8265
  257TIP3   OH222329   2.101   2.922   1.171 -0.5888  0.4879  0.1476
  257TIP3    H122330   2.094   2.853   1.237 -0.4304 -1.1508 -1.4886
  257TIP3    H222331   2.027   2.980   1.189 -1.8678 -1.1604  0.4050
  258TIP3   OH222332   6.137   0.500   0.281 -0.3040 -0.9647  0.3789
  258TIP3    H122333   6.223   0.473   0.314 -0.9282 -2.2479  1.0363
  258TIP3    H222334   6.075   0.466   0.345 -1.3828 -1.0842 -0.6945
  259TIP3   OH222335   1.325   3.999   8.851 -0.2634  0.0849  0.0722
  259TIP3    H122336   1.266   3.964   8.918 -1.0697  1.0386 -0.1113
  259TIP3    H222337   1.279   4.075   8.816  1.1242  0.8991 -0.0347
  260TIP3   OH222338   5.808   1.580   2.290  0.7779 -0.5086 -0.3541
  260TIP3    H122339   5.846   1.631   2.361  2.2964 -1.3699 -0.4999
  260TIP3    H222340   5.714   1.595   2.297  0.7486 -1.4074  2.5505
  261TIP3   OH222341   1.047   1.227   1.447  0.0554 -0.5933 -0.0164
  261TIP3    H122342   0.992   1.285   1.394 -0.9651 -0.0629  1.5591
  261TIP3    H222343   0.997   1.213   1.527  0.2010 -3.7662 -0.3474
  262TIP3   OH222344   6.726   2.882   2.034 -0.6724 -0.1597 -0.0773
  262TIP3    H122345   6.765   2.920   2.113 -2.5478  0.5141  0.5820
  262TIP3    H222346   6.639   2.921   2.029 -0.4173  0.2664 -2.8429
  263TIP3   OH222347   2.488   6.122   2.539  0.6765 -0.7357  0.2477
  263TIP3    H122348   2.469   6.169   2.620 -0.7577 -0.2616 -0.3326
  263TIP3    H222349   2.582   6.133   2.527  0.4758  1.6670  0.3746
  264TIP3   OH222350   0.349   3.127   6.586  0.2351 -0.3838 -0.3208
  264TIP3    H122351   0.369   3.095   6.674  1.5811 -0.0469 -0.4726
  264TIP3    H222352   0.428   3.175   6.560  0.0333 -0.8545 -1.8890
  265TIP3   OH222353   1.008   0.611   0.171  0.4785  0.0208  0.6173
  265TIP3    H122354   1.053   0.665   0.107  0.7583 -0.9819 -0.0446
  265TIP3    H222355   0.925   0.657   0.187  0.9044  0.8736  0.4172
  266TIP3   OH222356   2.794   6.253   0.548 -0.0963  0.2415  0.2333
  266TIP3    H122357   2.769   6.280   0.636  1.5838  1.6596  0.3167
  266TIP3    H222358   2.776   6.158   0.547  0.6106  0.0255  2.3753
  267TIP3   OH222359   1.053   6.192   0.785  0.3545 -0.0851 -0.2881
  267TIP3    H122360   1.083   6.182   0.695 -2.3331  0.8429 -1.3857
  267TIP3    H222361   1.130   6.223   0.833  2.8270 -3.8198 -1.4013
  268TIP3   OH222362   4.589   1.394   1.380 -0.1399 -0.2851 -0.3877
  268TIP3    H122363   4.524   1.338   1.422 -0.4032  0.5994  0.4250
  268TIP3    H222364   4.629   1.442   1.453  0.6515 -0.0134 -0.9888
  269TIP3   OH222365   5.579   0.634   0.937 -0.2367  0.1505 -0.2546
  269TIP3    H122366   5.552   0.625   0.845 -0.8373  1.2209 -0.2013
  269TIP3    H222367   5.583   0.729   0.951  0.8821  0.0006  0.5361
  270TIP3   OH222368   4.638   2.603   7.987  0.2264  0.0688  0.2339
  270TIP3    H122369   4.626   2.528   8.045  1.3635 -0.2442  0.1016
  270TIP3    H222370   4.695   2.662   8.037 -0.9410  1.0198  0.4776
  271TIP3   OH222371   5.356   5.892   8.669 -0.0942  0.0977  0.2566
  271TIP3    H122372   5.303   5.969   8.649  0.8256  0.1851 -2.1776
  271TIP3    H222373   5.294   5.829   8.706 -1.6622  0.6400 -1.3207
  272TIP3   OH222374   1.758   6.220   1.511  0.3721 -0.3338  0.2186
  272TIP3    H122375   1.799   6.161   1.575 -0.1900  0.7810  1.6602
  272TIP3    H222376   1.668   6.188   1.503 -0.9426  2.0427  3.4356
  273TIP3   OH222377   2.685   5.306   1.053 -0.1295  0.0524 -0.1382
  273TIP3    H122378   2.697   5.331   1.145 -0.9381  0.4873 -0.1367
  273TIP3    H222379   2.757   5.348   1.007 -0.6633  1.2264  0.0697
  274TIP3   OH222380   2.115   0.067   0.190 -0.2365 -0.6524 -0.0450
  274TIP3    H122381   2.048   0.134   0.172  1.5188  1.0207 -0.6946
  274TIP3    H222382   2.191   0.117   0.220  0.9565 -2.4316  0.0316
  275TIP3   OH222383   3.870   3.820   1.991 -0.3787 -0.7949  0.5670
  275TIP3    H122384   3.964   3.830   2.006 -0.3546  1.5736 -0.7595
  275TIP3    H222385   3.856   3.852   1.902 -2.2548 -2.5979  0.1311
  276TIP3   OH222386   1.779   1.403   6.983  0.1801  0.7384 -0.2652
  276TIP3    H122387   1.701   1.457   6.969 -0.6434 -0.6717 -1.4183
  276TIP3    H222388   1.832   1.417   6.904 -0.8087 -1.3247 -1.3491
  277TIP3   OH222389   1.337   3.669   8.167  0.1016 -0.0522  0.1152
  277TIP3    H122390   1.277   3.608   8.124 -0.0388 -1.2442  1.8905
  277TIP3    H222391   1.405   3.685   8.102 -0.7015 -0.8497 -0.9668
  278TIP3   OH222392   5.708   3.464   7.502  0.1236 -0.0645 -0.4697
  278TIP3    H122393   5.743   3.540   7.549  1.2063 -1.0965  0.4571
  278TIP3    H222394   5.735   3.389   7.555 -0.7339 -1.1208 -1.4800
  279TIP3   OH222395   1.950   0.079   8.670 -0.3634 -0.3949 -0.1180
  279TIP3    H122396   1.869   0.062   8.623 -0.7964 -3.2250  1.4664
  279TIP3    H222397   1.925   0.080   8.762  0.4968  4.7632  0.3918
  280TIP3   OH222398   1.995   3.788   1.141  0.6116  0.2965 -0.3611
  280TIP3    H122399   1.959   3.804   1.054 -1.4963 -0.4215  0.3229
  280TIP3    H222400   2.000   3.876   1.181  3.2203  0.8607 -1.7130
  281TIP3   OH222401   1.891   4.371   7.430 -0.1892 -0.4800  0.1943
  281TIP3    H122402   1.984   4.348   7.438  0.0110  0.5129  0.7953
  281TIP3    H222403   1.889   4.444   7.369 -0.3067  1.0003  1.8761
  282TIP3   OH222404   1.678   2.976   8.807  0.3302  0.3193  0.0509
  282TIP3    H122405   1.713   3.001   8.892  1.2284 -0.8358  0.0425
  282TIP3    H222406   1.703   3.047   8.748  1.2478  0.2832  0.3942
  283TIP3   OH222407   5.325   4.358   7.134 -0.1283  0.3582  0.1458
  283TIP3    H122408   5.293   4.367   7.224  1.3680  0.2111  0.7206
  283TIP3    H222409   5.300   4.269   7.108 -0.0587  0.1927  0.6369
  284TIP3   OH222410   5.401   5.415   0.881 -0.3638 -0.3211  0.5686
  284TIP3    H122411   5.439   5.459   0.958 -0.7366  2.3483 -0.6526
  284TIP3    H222412   5.349   5.483   0.838  1.4151 -1.0592 -3.1529
  285TIP3   OH222413   3.780   2.410   8.631  0.1575 -0.2564 -0.2109
  285TIP3    H122414   3.739   2.496   8.624 -0.7478 -0.6365  0.2215
  285TIP3    H222415   3.739   2.370   8.708  1.4223 -0.6254  0.3079
  286TIP3   OH222416   0.720   2.377   6.984 -0.0339 -0.2311  0.8003
  286TIP3    H122417   0.653   2.312   7.006 -1.5969 -0.4939 -3.6853
  286TIP3    H222418   0.802   2.329   6.985 -0.8930 -1.8304 -0.3114
  287TIP3   OH222419   0.845   5.060   0.084  0.0868  0.6293  0.0256
  287TIP3    H122420   0.793   5.093   0.158  0.1679 -0.0421  0.3915
  287TIP3    H222421   0.935   5.083   0.106  0.3183 -0.9885  0.9574
  288TIP3   OH222422   1.932   0.270   8.330 -0.6344  0.0099  0.2863
  288TIP3    H122423   2.027   0.269   8.321 -0.7433 -0.4758 -0.9423
  288TIP3    H222424   1.917   0.271   8.425  0.5933  1.4688  0.4979
  289TIP3   OH222425   1.973   5.916   2.462  0.4284 -0.1521 -0.3681
  289TIP3    H122426   1.881   5.910   2.489  0.3224 -0.5848 -0.8119
  289TIP3    H222427   2.020   5.940   2.542 -0.3849  2.8490 -0.6904
  290TIP3   OH222428   0.299   3.862   1.421 -0.2093 -0.6372  0.3658
  290TIP3    H122429   0.389   3.882   1.445  0.1063  0.1395 -1.2900
  290TIP3    H222430   0.307   3.810   1.340 -1.2283 -1.6674  0.8912
  291TIP3   OH222431   4.289   4.064   7.379 -0.3016 -0.0948 -0.3196
  291TIP3    H122432   4.246   4.148   7.365 -0.1313  0.4620  1.9766
  291TIP3    H222433   4.290   4.054   7.475  3.1734 -0.8375 -0.2987
  292TIP3   OH222434   3.447   3.500   8.078  0.1263  0.4126 -0.2452
  292TIP3    H122435   3.502   3.495   8.156  0.4602 -1.2023 -0.5519
  292TIP3    H222436   3.358   3.509   8.112  0.4764  2.5561  0.2529
  293TIP3   OH222437   6.271   4.488   8.756  0.4096 -0.0507  0.1335
  293TIP3    H122438   6.329   4.423   8.796 -0.6399  0.2195  2.2237
  293TIP3    H222439   6.320   4.521   8.680  2.1813 -1.1387  0.7461
  294TIP3   OH222440   6.739   0.733   8.265 -0.2680  0.6190 -0.0398
  294TIP3    H122441   6.793   0.768   8.194  0.0326  1.1067  0.4223
  294TIP3    H222442   6.682   0.806   8.289  0.0132  0.6313  0.5946
  295TIP3   OH222443   0.549   6.418   0.931 -0.4080  0.5553 -0.0484
  295TIP3    H122444   0.522   6.329   0.907 -0.4406  1.1414 -2.4863
  295TIP3    H222445   0.468   6.463   0.954 -0.9067  0.8691 -2.2388
  296TIP3   OH222446   4.263   6.715   2.196 -0.0630  0.0862  0.6045
  296TIP3    H122447   4.347   6.717   2.150 -0.6045  0.1200 -0.3964
  296TIP3    H222448   4.227   6.803   2.183 -1.1270 -0.5027 -0.6490
  297TIP3   OH222449   3.173   5.505   8.042  0.0944 -0.5075 -0.5510
  297TIP3    H122450   3.158   5.599   8.055  0.3157 -0.6858  1.2399
  297TIP3    H222451   3.264   5.492   8.070 -0.1720 -1.3812 -0.0777
  298TIP3   OH222452   3.578   1.937   0.691 -0.0294  0.1718  0.3341
  298TIP3    H122453   3.636   1.963   0.763  0.3027  0.5516 -0.0659
  298TIP3    H222454   3.501   1.992   0.702  0.3546  0.8064 -0.0604
  299TIP3   OH222455   5.168   1.507   1.449 -0.1906 -0.3537  0.8281
  299TIP3    H122456   5.262   1.515   1.469  0.2002 -1.3357 -0.4815
  299TIP3    H222457   5.156   1.557   1.369 -0.9770  0.4615  1.4369
  300TIP3   OH222458   4.972   4.933   6.467 -0.2044 -0.2465  0.4117
  300TIP3    H122459   5.068   4.941   6.472 -0.0458 -1.6714  0.1721
  300TIP3    H222460   4.947   4.990   6.395  0.5498 -0.3534  0.0512
  301TIP3   OH222461   2.802   0.049   8.202  0.3408  0.2444 -0.4856
  301TIP3    H122462   2.842  -0.013   8.262  0.5942 -0.5651 -1.4512
  301TIP3    H222463   2.869   0.063   8.134 -0.1387  0.6920 -0.8783
  302TIP3   OH222464   0.040   1.911   0.527 -0.5770 -0.1606  0.1397
  302TIP3    H122465   0.096   1.839   0.555 -2.4297 -0.9322  2.1411
  302TIP3    H222466   0.067   1.985   0.581  0.1209  0.1689 -0.6423
  303TIP3   OH222467   0.377   1.715   2.464 -0.1031  0.0748  0.1303
  303TIP3    H122468   0.353   1.684   2.551 -0.7792 -0.8863 -0.3781
  303TIP3    H222469   0.357   1.641   2.406 -1.0579  1.2010 -1.0399
  304TIP3   OH222470   5.334   4.318   2.493  0.6279 -0.5243 -0.5084
  304TIP3    H122471   5.316   4.269   2.573 -0.0935  1.4197  0.5863
  304TIP3    H222472   5.269   4.287   2.430 -0.4633 -0.3037  0.4722
  305TIP3   OH222473   4.666   3.994   1.450 -0.4345  0.8222 -0.0706
  305TIP3    H122474   4.672   3.902   1.473  0.2393  0.7569 -0.4868
  305TIP3    H222475   4.720   4.003   1.372 -0.9303  1.4646 -0.3518
  306TIP3   OH222476   0.081   0.786   0.795  0.3293 -0.2193 -0.2158
  306TIP3    H122477  -0.006   0.793   0.755  0.9361  1.3838 -1.3688
  306TIP3    H222478   0.142   0.791   0.721  1.4254 -2.5157  0.4522
  307TIP3   OH222479   0.080   5.001   1.292 -0.3722 -0.2220 -0.3943
  307TIP3    H122480   0.092   5.051   1.372 -0.7280 -0.2400 -0.3283
  307TIP3    H222481   0.152   5.028   1.235  1.7612 -2.4542  1.0268
  308TIP3   OH222482   0.301   2.751   6.810 -0.0003 -0.1044 -0.3337
  308TIP3    H122483   0.388   2.761   6.850  0.3515  0.5893 -1.2273
  308TIP3    H222484   0.243   2.732   6.883  0.7480  0.4219  0.4199
  309TIP3   OH222485   1.168   5.636   7.487 -0.0055 -0.0067 -0.2457
  309TIP3    H122486   1.178   5.552   7.443 -1.7511  0.5841 -1.9261
  309TIP3    H222487   1.116   5.617   7.565  1.3894 -0.7646  0.5327
  310TIP3   OH222488   3.020   5.153   7.024  0.0495 -0.9039  0.5386
  310TIP3    H122489   2.937   5.194   7.045 -0.0667 -0.5125 -0.6267
  310TIP3    H222490   3.077   5.174   7.099 -0.3831  0.3107  0.5441
  311TIP3   OH222491   1.627   3.135   1.687 -0.2812 -0.1523 -0.5686
  311TIP3    H122492   1.721   3.137   1.671 -0.4110 -0.1942 -1.3776
  311TIP3    H222493   1.594   3.216   1.649 -0.4083  0.4892  0.8712
  312TIP3   OH222494   4.202   6.298   8.082  0.0335  0.2750  0.3078
  312TIP3    H122495   4.118   6.259   8.107 -0.2205 -1.2000 -2.4875
  312TIP3    H222496   4.225   6.254   8.000  1.8999  3.0591 -0.7884
  313TIP3   OH222497   0.167   2.873   1.832 -0.0810  0.3398  0.6875
  313TIP3    H122498   0.247   2.871   1.885  0.4146 -0.0275 -0.0496
  313TIP3    H222499   0.103   2.916   1.887  1.1659  2.5020  0.5623
  314TIP3   OH222500   1.496   1.864   8.448  0.8883  0.3846  0.3927
  314TIP3    H122501   1.417   1.817   8.425 -0.5282  2.7986 -0.0029
  314TIP3    H222502   1.515   1.919   8.372  2.5284  0.4374  0.7881
  315TIP3   OH222503   0.776   4.401   8.781 -0.0375  0.1185 -0.1057
  315TIP3    H122504   0.845   4.464   8.802  0.6545 -0.9583  1.0243
  315TIP3    H222505   0.815   4.316   8.803 -1.1640 -0.6436 -0.9954
  316TIP3   OH222506   2.792   1.520   1.456 -0.0914 -0.0741  0.6700
  316TIP3    H122507   2.786   1.532   1.551  3.4336  1.4838  0.8376
  316TIP3    H222508   2.838   1.437   1.445 -2.6582 -1.5357  0.1307
  317TIP3   OH222509   2.218   5.943   2.318  0.0307 -0.2478 -0.3308
  317TIP3    H122510   2.127   5.947   2.348  0.2274  1.0538  0.1586
  317TIP3    H222511   2.225   5.857   2.277 -1.7312  0.0403 -1.3648
  318TIP3   OH222512   4.531   2.268   7.869  0.3551 -0.4429  0.3101
  318TIP3    H122513   4.588   2.201   7.832  1.5800  1.3567 -1.2778
  318TIP3    H222514   4.582   2.306   7.940 -0.9443 -2.1171  2.2398
  319TIP3   OH222515   3.609   5.839   7.870 -0.0051 -0.6886  0.0220
  319TIP3    H122516   3.583   5.927   7.845  0.2544 -0.5778  0.1384
  319TIP3    H222517   3.692   5.850   7.916 -0.3647 -0.9072  0.7567
  320TIP3   OH222518   3.354   6.704   7.914 -0.0465  0.1546  0.8990
  320TIP3    H122519   3.279   6.759   7.890 -0.5947 -0.7530  0.4824
  320TIP3    H222520   3.364   6.717   8.008 -0.9505  0.0280  1.0187
  321TIP3   OH222521   6.375   3.814   1.615 -0.2753  0.1585 -0.2542
  321TIP3    H122522   6.297   3.759   1.620 -0.2422  0.1099 -0.2721
  321TIP3    H222523   6.342   3.901   1.592 -0.3861  0.2723  0.2996
  322TIP3   OH222524   5.400   1.925   7.581  0.2046  0.7794 -0.6383
  322TIP3    H122525   5.306   1.934   7.563 -0.3084 -0.0544  1.3823
  322TIP3    H222526   5.406   1.919   7.676  2.2169 -0.2415 -0.7775
  323TIP3   OH222527   1.068   0.062   7.523  1.0006  0.2360 -0.0672
  323TIP3    H122528   1.015   0.140   7.507  0.9963  0.5733  1.4311
  323TIP3    H222529   1.010  -0.011   7.503 -0.3886  0.5758  2.2847
  324TIP3   OH222530   1.738   4.460   0.175 -0.4482  0.0356 -0.1953
  324TIP3    H122531   1.662   4.510   0.146  0.2753  0.1858 -1.8996
  324TIP3    H222532   1.810   4.523   0.177 -0.6159  0.2918  2.9820
  325TIP3   OH222533   6.064   0.237   0.064  0.0995  0.1502  0.6407
  325TIP3    H122534   6.155   0.207   0.062  0.9613  2.4450  1.4178
  325TIP3    H222535   6.012   0.157   0.059  2.1383 -1.2182 -0.1976
  326TIP3   OH222536   1.887   3.100   1.188  0.1784  0.2128 -0.1262
  326TIP3    H122537   1.799   3.108   1.151 -0.2172  2.9451  1.2176
  326TIP3    H222538   1.873   3.067   1.277  0.7943 -1.8095 -0.7012
  327TIP3   OH222539   0.594   4.838   0.142 -0.1695 -0.3227  0.5778
  327TIP3    H122540   0.588   4.837   0.238 -0.8007  0.8137  0.5762
  327TIP3    H222541   0.687   4.829   0.124 -0.0398 -0.5277  1.3073
  328TIP3   OH222542   1.440   0.729   2.069 -0.2039 -0.1317 -0.0122
  328TIP3    H122543   1.347   0.719   2.087 -0.3093 -1.0025 -0.9346
  328TIP3    H222544   1.456   0.824   2.073 -0.7674 -0.0933  1.7603
  329TIP3   OH222545   0.220   6.577   8.517  0.4274 -0.3260  0.2390
  329TIP3    H122546   0.226   6.496   8.568 -1.7957 -0.7950 -0.1400
  329TIP3    H222547   0.231   6.647   8.582 -1.6904 -0.9181  1.3336
  330TIP3   OH222548   6.113   2.766   6.289  0.6375  0.2130  0.0497
  330TIP3    H122549   6.040   2.768   6.227  0.9418  1.5736 -0.3122
  330TIP3    H222550   6.086   2.826   6.359  0.9710 -0.0776  0.4303
  331TIP3   OH222551   3.674   2.970   7.352  0.3379 -0.4885  0.0527
  331TIP3    H122552   3.676   2.918   7.432 -0.1918  1.0824  1.1346
  331TIP3    H222553   3.582   2.994   7.341  0.7272  1.3205  0.3675
  332TIP3   OH222554   0.031   3.002   0.608 -0.3017  0.5112 -0.0966
  332TIP3    H122555  -0.031   2.994   0.535  0.7289 -0.0824 -0.9208
  332TIP3    H222556   0.100   3.060   0.576 -0.4111  1.1778  0.8231
  333TIP3   OH222557   3.059   1.882   6.666 -0.1591  0.3210  0.4157
  333TIP3    H122558   3.138   1.829   6.654 -0.6697 -1.3940  3.4794
  333TIP3    H222559   2.987   1.819   6.659 -1.1129  1.4325 -0.0561
  334TIP3   OH222560   6.197   4.167   8.775  0.8875 -0.4419  0.1906
  334TIP3    H122561   6.241   4.229   8.833 -0.3311  1.3785 -0.7266
  334TIP3    H222562   6.222   4.196   8.687 -0.6093 -0.5440 -0.2883
  335TIP3   OH222563   5.734   4.919   1.756 -0.1113 -0.5380 -0.2742
  335TIP3    H122564   5.672   4.862   1.709 -1.5059 -0.1489  1.0378
  335TIP3    H222565   5.709   4.911   1.848  1.4814  0.0430  0.2297
  336TIP3   OH222566   2.214   0.536   3.142 -0.3096  0.2009 -0.1334
  336TIP3    H122567   2.255   0.449   3.139  0.7461  0.6760  0.2105
  336TIP3    H222568   2.280   0.595   3.106 -0.7324  0.9713  0.3456
  337TIP3   OH222569   1.250   0.946   7.792 -0.1181 -0.3507 -0.0033
  337TIP3    H122570   1.173   0.938   7.736  0.3121  0.1855 -0.6967
  337TIP3    H222571   1.323   0.955   7.730  0.2923  0.9595  0.6476
  338TIP3   OH222572   1.711   0.525   7.498  0.3966  0.0164  0.8924
  338TIP3    H122573   1.638   0.463   7.498  1.1182 -0.8784 -0.0915
  338TIP3    H222574   1.702   0.573   7.416  2.4561 -2.0823 -0.7004
  339TIP3   OH222575   6.257   5.282   8.196 -0.0717  0.2830 -0.0795
  339TIP3    H122576   6.291   5.284   8.285  0.7193  0.7090 -0.3783
  339TIP3    H222577   6.327   5.319   8.143 -0.9377  0.9880 -0.7540
  340TIP3   OH222578   2.241   5.735   8.410  0.0975  0.3530 -0.0055
  340TIP3    H122579   2.313   5.717   8.349  0.3503 -0.0986  0.4200
  340TIP3    H222580   2.228   5.829   8.404  1.0563  0.5143  0.2801
  341TIP3   OH222581   3.487   6.145   7.279 -0.0395 -0.3459 -0.2797
  341TIP3    H122582   3.512   6.055   7.261  0.7985 -0.2046  0.1618
  341TIP3    H222583   3.412   6.138   7.338  1.0860 -0.7577  1.1604
  342TIP3   OH222584   1.465   6.018   7.849 -0.2599 -0.5759 -0.1932
  342TIP3    H122585   1.450   6.105   7.887 -0.6062 -0.4400 -0.6402
  342TIP3    H222586   1.383   5.996   7.805  0.3472 -0.4362 -1.4402
  343TIP3   OH222587   5.413   6.526   0.604 -0.1334  0.0883  0.1840
  343TIP3    H122588   5.341   6.584   0.628 -0.7603 -1.3489  2.0753
  343TIP3    H222589   5.476   6.536   0.675 -0.1286 -1.2797  0.4132
  344TIP3   OH222590   6.407   5.882   8.174  0.1896  0.1856 -0.2364
  344TIP3    H122591   6.373   5.840   8.095  0.8075 -0.9741  0.0966
  344TIP3    H222592   6.371   5.831   8.247 -0.1525  1.0747  0.2395
  345TIP3   OH222593   2.975   4.436   0.088 -0.6244  0.0186 -0.2375
  345TIP3    H122594   2.895   4.387   0.107  0.1378 -0.9830  0.4556
  345TIP3    H222595   2.958   4.523   0.124 -0.7960 -0.6597  1.4533
  346TIP3   OH222596   1.957   6.217   8.514  0.0814 -0.5985 -0.0699
  346TIP3    H122597   1.901   6.179   8.581  0.5768  0.5061  1.0132
  346TIP3    H222598   1.989   6.298   8.553  1.4268 -0.5760 -1.1583
  347TIP3   OH222599   5.955   4.983   1.316 -0.1904 -0.0406 -0.1466
  347TIP3    H122600   5.906   5.056   1.354  0.3207  0.2651 -0.0614
  347TIP3    H222601   6.004   4.947   1.390 -0.0290 -0.1288 -0.2964
  348TIP3   OH222602   4.978   1.912   0.941 -0.2587  0.4697 -0.4454
  348TIP3    H122603   5.035   1.844   0.905 -1.2805  0.0481 -1.3047
  348TIP3    H222604   4.890   1.877   0.932 -0.5854  0.2492  2.6823
  349TIP3   OH222605   0.134   4.328   6.739  0.3244 -0.4066  0.2197
  349TIP3    H122606   0.206   4.302   6.682  0.3489 -0.8615  0.4486
  349TIP3    H222607   0.105   4.246   6.779  0.3132 -0.0952  0.8627
  350TIP3   OH222608   0.207   1.126   7.239  0.3507 -0.7427 -0.3534
  350TIP3    H122609   0.205   1.104   7.332 -1.1704 -0.1111 -0.1981
  350TIP3    H222610   0.119   1.105   7.208  0.3036  0.6421 -1.2510
  351TIP3   OH222611   5.809   4.170   1.398  0.2256 -0.2386  0.0092
  351TIP3    H122612   5.754   4.111   1.449  0.0451  3.0638  4.2564
  351TIP3    H222613   5.747   4.229   1.355  0.3335  0.2890  0.5471
  352TIP3   OH222614   1.774   5.350   7.630 -0.3567  0.0360  0.9845
  352TIP3    H122615   1.819   5.308   7.556  0.5866  1.3134  0.8152
  352TIP3    H222616   1.802   5.441   7.627 -1.8471  0.5532  1.7536
  353TIP3   OH222617   1.052   6.638   6.727  0.3242  0.5799  0.1036
  353TIP3    H122618   1.022   6.715   6.680 -0.5900  0.4168  0.4100
  353TIP3    H222619   1.148   6.644   6.723  0.2607  1.1010 -0.8762
  354TIP3   OH222620   2.857   1.483   8.248 -0.6191 -0.6947 -0.6914
  354TIP3    H122621   2.840   1.573   8.277  2.5008 -0.0878 -0.4447
  354TIP3    H222622   2.770   1.442   8.247 -2.1832  2.3229 -0.9766
  355TIP3   OH222623   4.015   3.963   7.311 -0.0868 -0.0466  0.2052
  355TIP3    H122624   3.977   3.994   7.228  0.8902 -0.6465 -0.4782
  355TIP3    H222625   4.092   4.019   7.324 -0.9982  1.0024  1.4646
  356TIP3   OH222626   0.496   2.215   7.056  0.3665 -0.4379 -0.2509
  356TIP3    H122627   0.421   2.166   7.023 -0.9897  1.2019  0.2528
  356TIP3    H222628   0.566   2.150   7.064 -0.8852 -1.9455 -1.0618
  357TIP3   OH222629   0.371   6.352   8.876 -0.8824  0.2065  0.0839
  357TIP3    H122630   0.314   6.422   8.908 -1.2930 -0.1592  0.1648
  357TIP3    H222631   0.353   6.347   8.782 -0.8676  0.1941  0.0818
  358TIP3   OH222632   0.042   5.479   1.050 -0.1344 -0.5091  0.1284
  358TIP3    H122633   0.085   5.459   0.967 -2.1277 -0.9751 -0.8614
  358TIP3    H222634   0.067   5.569   1.069  0.2723 -0.3568 -1.0498
  359TIP3   OH222635   1.761   2.132   0.784 -0.4538  0.1582  0.1876
  359TIP3    H122636   1.699   2.075   0.740  0.7725 -0.4913 -0.7627
  359TIP3    H222637   1.788   2.083   0.862 -0.4425  0.0397  0.1090
  360TIP3   OH222638   6.213   0.106   2.286  0.0693  0.2097  0.9678
  360TIP3    H122639   6.282   0.075   2.345  0.3556 -0.9596  0.0687
  360TIP3    H222640   6.174   0.180   2.331  1.9017  0.9039  1.5189
  361TIP3   OH222641   0.180   4.508   0.884 -0.4406 -0.2655 -0.4865
  361TIP3    H122642   0.091   4.509   0.849 -0.0152  0.3193 -1.6049
  361TIP3    H222643   0.236   4.503   0.807  0.5262  0.8483  0.1170
  362TIP3   OH222644   3.452   0.534   8.759 -0.6072 -0.2367  0.0893
  362TIP3    H122645   3.407   0.452   8.738 -0.8705 -0.3765  1.1613
  362TIP3    H222646   3.534   0.530   8.710 -0.4549 -1.3104  0.4142
  363TIP3   OH222647   2.882   6.458   1.379 -0.6277  0.3239  0.5042
  363TIP3    H122648   2.920   6.518   1.315 -1.2609  0.6670  0.4431
  363TIP3    H222649   2.846   6.387   1.326  1.4961 -0.9402  0.6520
  364TIP3   OH222650   6.421   5.328   1.275 -0.5398 -0.3754 -0.1872
  364TIP3    H122651   6.501   5.311   1.226 -1.3405 -1.8097 -1.0627
  364TIP3    H222652   6.377   5.397   1.226  0.0030  0.2322  0.1527
  365TIP3   OH222653   2.512   3.007   7.356  0.0073 -0.0025  0.2620
  365TIP3    H122654   2.436   3.059   7.329 -2.0097 -2.6780  0.2934
  365TIP3    H222655   2.573   3.013   7.284 -0.3317  2.0044  0.0995
  366TIP3   OH222656   5.898   2.867   7.325 -0.1041 -0.5033  0.7932
  366TIP3    H122657   5.947   2.935   7.372 -0.9637  1.0634 -0.4695
  366TIP3    H222658   5.950   2.850   7.246 -0.6858 -0.1111  0.3130
  367TIP3   OH222659   1.432   1.877   1.372  0.1998  0.3534  0.3448
  367TIP3    H122660   1.505   1.931   1.403 -0.7179  0.5622  2.3036
  367TIP3    H222661   1.449   1.791   1.410 -0.5604  0.4031  0.8041
  368TIP3   OH222662   6.643   4.518   1.119 -0.2439 -0.0275  0.3415
  368TIP3    H122663   6.657   4.425   1.099  1.4322  0.0192  1.1017
  368TIP3    H222664   6.552   4.535   1.094 -0.4836 -1.7890 -0.1070
  369TIP3   OH222665   1.880   3.149   7.200 -0.0115  0.1862 -0.2322
  369TIP3    H122666   1.852   3.181   7.286  1.4220 -0.7473  0.6078
  369TIP3    H222667   1.853   3.057   7.199 -0.6065  0.3568 -1.0681
  370TIP3   OH222668   2.021   3.598   8.930 -0.2656  0.5523  0.2531
  370TIP3    H122669   1.942   3.552   8.900  0.1730 -0.0849  0.0622
  370TIP3    H222670   2.024   3.581   9.024  0.2540 -0.3744  0.0767
  371TIP3   OH222671   2.072   0.306   6.389 -0.2161 -0.2067 -0.7390
  371TIP3    H122672   2.026   0.343   6.314 -1.2951 -0.2630 -0.1305
  371TIP3    H222673   2.139   0.371   6.410  0.5090 -0.4858 -2.1183
  372TIP3   OH222674   5.254   6.537   8.003  0.0217 -0.2007 -0.7063
  372TIP3    H122675   5.226   6.629   7.997 -0.1608 -0.1974  0.0837
  372TIP3    H222676   5.178   6.487   7.973 -0.1870 -0.1195 -0.3232
  373TIP3   OH222677   5.411   6.676   2.021 -0.5762  0.3279  0.0910
  373TIP3    H122678   5.460   6.746   2.065 -0.7509  0.6061 -0.1471
  373TIP3    H222679   5.322   6.712   2.013 -0.7135 -0.0030  0.1475
  374TIP3   OH222680   1.716   4.812   7.403  0.6376  0.7854  0.1550
  374TIP3    H122681   1.757   4.728   7.384  0.3019  0.7906 -0.6338
  374TIP3    H222682   1.657   4.795   7.476  1.0353  0.4791  0.4086
  375TIP3   OH222683   3.709   6.476   7.323 -0.1459  0.1217 -0.2517
  375TIP3    H122684   3.741   6.401   7.273  1.7016 -0.7319  2.0217
  375TIP3    H222685   3.675   6.438   7.404  0.4158  1.6685  0.7473
  376TIP3   OH222686   0.371   4.012   7.958 -0.8738  0.4241 -0.2241
  376TIP3    H122687   0.385   4.055   8.042 -2.1250  0.2962  0.0694
  376TIP3    H222688   0.458   3.982   7.931 -0.5015  0.2001  1.1697
  377TIP3   OH222689   4.734   1.075   8.032 -0.1114 -0.3038  0.4583
  377TIP3    H122690   4.809   1.018   8.049 -0.9087 -0.9413  2.1610
  377TIP3    H222691   4.723   1.074   7.937  0.0927 -2.7965  0.4016
  378TIP3   OH222692   3.653   3.864   2.214  0.5341 -0.1083 -0.1300
  378TIP3    H122693   3.576   3.859   2.271  2.4788 -1.3185  2.6214
  378TIP3    H222694   3.650   3.952   2.177 -0.1570  1.3570  3.0607
  379TIP3   OH222695   1.259   1.878   8.687  0.5241  0.2505  0.2243
  379TIP3    H122696   1.207   1.884   8.607 -0.4436 -0.6839  0.7521
  379TIP3    H222697   1.340   1.925   8.667  0.4483 -0.2628 -1.4153
  380TIP3   OH222698   5.860   2.081   0.688  0.6208 -0.4198  0.0919
  380TIP3    H122699   5.917   2.142   0.641  0.3403 -0.5975 -0.4802
  380TIP3    H222700   5.831   2.130   0.765  1.5450 -0.3277  0.3924
  381TIP3   OH222701   2.340   3.303   1.972 -0.4092 -0.5553  0.7734
  381TIP3    H122702   2.283   3.230   1.999 -2.9694  1.1148  0.2533
  381TIP3    H222703   2.323   3.313   1.879  1.8539 -0.8145  0.2707
  382TIP3   OH222704   2.514   4.513   8.288 -0.2412 -0.3862 -0.0441
  382TIP3    H122705   2.536   4.528   8.380 -0.7269  1.2318 -0.1635
  382TIP3    H222706   2.500   4.600   8.252  0.7519 -0.9155 -1.8785
  383TIP3   OH222707   0.228   4.745   1.283  0.9718 -0.0362 -0.2871
  383TIP3    H122708   0.186   4.715   1.202 -0.0353  0.1164  0.1655
  383TIP3    H222709   0.156   4.778   1.337  1.5783 -0.4782  0.8271
  384TIP3   OH222710   3.453   5.322   7.892 -0.1711  0.2787  0.1786
  384TIP3    H122711   3.492   5.291   7.974  0.4246  0.9934  0.1697
  384TIP3    H222712   3.445   5.417   7.903  0.3007  0.4376 -0.7583
  385TIP3   OH222713   1.965   6.127   7.638 -0.0871 -0.8841 -0.4635
  385TIP3    H122714   1.881   6.086   7.616 -0.4692 -0.9409  0.9849
  385TIP3    H222715   1.944   6.220   7.647  0.9629  0.0179 -4.7593
  386TIP3   OH222716   3.958   6.650   6.835 -0.4458  0.3695  0.5919
  386TIP3    H122717   3.897   6.576   6.844 -0.7048  0.6152  0.8891
  386TIP3    H222718   4.019   6.639   6.908  2.6177 -2.3692 -2.0608
  387TIP3   OH222719   0.028   4.098   8.525 -0.3103 -0.6951 -0.1156
  387TIP3    H122720  -0.063   4.078   8.505 -0.4446 -1.5006  1.1476
  387TIP3    H222721   0.073   4.097   8.441 -1.5312  0.1072 -0.7959
  388TIP3   OH222722   5.020   4.895   1.883 -0.0027 -0.1327  0.4458
  388TIP3    H122723   5.022   4.895   1.979 -1.7475 -0.9000  0.5061
  388TIP3    H222724   5.079   4.823   1.858  0.9354  0.4509  0.8893
  389TIP3   OH222725   3.988   5.775   7.684 -0.1204  0.2507 -0.4636
  389TIP3    H122726   3.990   5.769   7.589 -0.4500  0.7822 -0.5097
  389TIP3    H222727   4.079   5.789   7.710 -0.0541  0.2821 -0.7155
  390TIP3   OH222728   0.088   0.030   1.016 -0.4305  0.5453 -0.0848
  390TIP3    H122729   0.065  -0.022   1.093 -0.1344  1.2351  0.4854
  390TIP3    H222730   0.079   0.121   1.046 -0.4545  0.8184 -0.9122
  391TIP3   OH222731   1.564   0.011   0.257 -0.2967  0.1313  0.1056
  391TIP3    H122732   1.505   0.037   0.185 -1.5316 -1.3536  0.5240
  391TIP3    H222733   1.527   0.054   0.334  0.8597  1.4821 -0.0409
  392TIP3   OH222734   0.535   5.372   2.016 -0.0334  0.1532 -0.5015
  392TIP3    H122735   0.481   5.432   1.965  0.9327 -0.6371 -2.6128
  392TIP3    H222736   0.616   5.420   2.033 -0.6172  0.6617  0.9692
  393TIP3   OH222737   0.071   0.745   8.553  0.4531 -0.2617 -0.4858
  393TIP3    H122738   0.009   0.746   8.480 -0.5663  1.3319  0.3244
  393TIP3    H222739   0.022   0.706   8.626  1.4161 -1.7246 -0.5760
  394TIP3   OH222740   0.852   3.670   8.643  0.2484 -0.4792 -0.1733
  394TIP3    H122741   0.801   3.629   8.573  0.0637 -1.0967  0.3093
  394TIP3    H222742   0.803   3.650   8.723 -0.3431  1.4721  0.0083
  395TIP3   OH222743   1.977   0.602   8.013  0.1025 -0.4889 -0.3951
  395TIP3    H122744   2.030   0.564   7.942 -1.8900  0.0234 -2.2400
  395TIP3    H222745   1.915   0.533   8.036  0.4423 -0.4880  0.5871
  396TIP3   OH222746   1.376   0.289   1.448 -0.1749 -0.0187  0.1573
  396TIP3    H122747   1.333   0.309   1.365  0.5582 -0.3062 -0.2970
  396TIP3    H222748   1.319   0.329   1.514 -0.6085  0.4774 -0.4990
  397TIP3   OH222749   0.742   6.411   8.536 -0.0481 -0.1300  0.6089
  397TIP3    H122750   0.790   6.343   8.585 -0.6095 -1.0734 -0.1224
  397TIP3    H222751   0.807   6.447   8.475 -0.3918 -1.9488 -0.9316
  398TIP3   OH222752   4.082   6.085   2.481  0.1328  0.3869  0.0143
  398TIP3    H122753   4.174   6.111   2.488  0.2039 -0.1351  1.3073
  398TIP3    H222754   4.034   6.168   2.474  0.7341  0.6473 -1.6653
  399TIP3   OH222755   3.951   0.110   1.505  0.3422  0.1538  0.3822
  399TIP3    H122756   4.006   0.078   1.576 -1.6467 -3.2385  0.6238
  399TIP3    H222757   3.972   0.203   1.498  4.6421 -0.5197  1.6060
  400TIP3   OH222758   5.586   4.162   7.215  0.1350  0.4549 -0.2544
  400TIP3    H122759   5.591   4.214   7.135  0.9416 -1.7194 -1.7431
  400TIP3    H222760   5.493   4.143   7.226 -0.0636  1.4612 -0.1965
  401TIP3   OH222761   3.786   6.396   6.886 -0.0965  0.3333  0.1050
  401TIP3    H122762   3.796   6.301   6.894  1.3200  0.4453 -0.0952
  401TIP3    H222763   3.718   6.408   6.820  0.4837 -0.5413 -0.6727
  402TIP3   OH222764   5.872   3.872   8.248 -0.4337 -0.3750 -0.0993
  402TIP3    H122765   5.857   3.938   8.316  1.6519  0.2671 -0.1936
  402TIP3    H222766   5.856   3.788   8.292 -0.5167  0.0934  0.7882
  403TIP3   OH222767   6.176   2.651   8.936 -0.8303  0.1194 -0.3541
  403TIP3    H122768   6.124   2.731   8.938 -1.4615 -0.2942  0.2153
  403TIP3    H222769   6.142   2.599   9.008  0.1688 -0.2936 -0.1667
  404TIP3   OH222770   6.478   4.307   7.208  0.6072  0.4452  0.3464
  404TIP3    H122771   6.522   4.352   7.136  1.7302  0.2549  0.8956
  404TIP3    H222772   6.544   4.302   7.277  0.2589 -1.3456  0.5836
  405TIP3   OH222773   2.068   4.013   1.270  0.1348 -0.0663 -0.5869
  405TIP3    H122774   1.975   4.020   1.288  0.3997  2.4009  0.2530
  405TIP3    H222775   2.102   3.958   1.341 -0.4616  0.3317  0.0167
  406TIP3   OH222776   5.655   0.326   8.285  0.2024  0.1156  0.1402
  406TIP3    H122777   5.607   0.349   8.206 -1.0668 -0.9461  0.5655
  406TIP3    H222778   5.651   0.231   8.289  0.6185  0.1263  1.2615
  407TIP3   OH222779   5.509   6.702   1.040  0.3276  0.0248  0.1357
  407TIP3    H122780   5.475   6.791   1.043 -1.7591 -0.6449 -1.5182
  407TIP3    H222781   5.504   6.671   1.131  0.6247  1.4076  0.6397
  408TIP3   OH222782   2.686   3.036   7.133  0.5109  0.1095 -0.1749
  408TIP3    H122783   2.751   3.068   7.071  1.2968 -0.7504  0.1811
  408TIP3    H222784   2.604   3.033   7.083  0.6854  1.3844 -0.5736
  409TIP3   OH222785   4.859   3.295   1.164 -0.9087  0.0764  0.4751
  409TIP3    H122786   4.909   3.217   1.191 -0.1774 -0.3456 -1.8651
  409TIP3    H222787   4.884   3.362   1.228  0.5043 -0.8986  0.9999
  410TIP3   OH222788   2.534   3.687   0.500 -0.7206 -0.1260 -0.3676
  410TIP3    H122789   2.510   3.690   0.593 -1.8947  3.8659 -0.6382
  410TIP3    H222790   2.628   3.667   0.500 -0.9728 -1.6561  1.5124
  411TIP3   OH222791   2.367   5.815   1.502 -0.0385 -0.4583  0.7475
  411TIP3    H122792   2.392   5.771   1.421 -0.3498 -1.6821  1.2908
  411TIP3    H222793   2.384   5.750   1.570 -0.2871  0.3613  1.6001
  412TIP3   OH222794   2.856   1.019   0.520 -0.5730  0.0876  0.4919
  412TIP3    H122795   2.804   0.977   0.589 -0.6041  0.2834  0.5881
  412TIP3    H222796   2.935   0.966   0.514 -0.3787  0.3200  0.9755
  413TIP3   OH222797   3.979   1.775   0.463 -0.5136 -0.0315 -0.1305
  413TIP3    H122798   3.926   1.701   0.431  0.2543  0.2517 -2.1957
  413TIP3    H222799   4.068   1.754   0.436 -0.0007  0.8267  0.8432
  414TIP3   OH222800   6.507   1.726   6.503  0.8445 -0.0059  0.3793
  414TIP3    H122801   6.567   1.772   6.444  0.7482  0.4624  0.6347
  414TIP3    H222802   6.551   1.643   6.522  1.0573  0.0093 -0.0334
  415TIP3   OH222803   0.188   0.050   1.295 -0.0786  0.0861  0.1377
  415TIP3    H122804   0.180  -0.032   1.344 -1.7332 -0.0100 -0.2214
  415TIP3    H222805   0.099   0.084   1.291  0.1578  0.6205 -1.9039
  416TIP3   OH222806   5.088   6.038   7.262  0.4051  0.3828  0.7438
  416TIP3    H122807   5.005   6.033   7.216 -1.4730  0.5368  3.7905
  416TIP3    H222808   5.126   6.121   7.236 -0.8483  0.7277 -0.0319
  417TIP3   OH222809   6.731   2.184   1.420  0.1661  0.1563  0.6012
  417TIP3    H122810   6.755   2.270   1.454  1.0619 -0.7497  2.3806
  417TIP3    H222811   6.636   2.182   1.427  0.0649  1.2629 -0.1683
  418TIP3   OH222812   3.765   3.427   7.499  0.5381 -0.1045  0.1424
  418TIP3    H122813   3.799   3.485   7.567  0.6573 -1.7874  1.5889
  418TIP3    H222814   3.670   3.434   7.507  0.5428 -0.7559  0.9382
  419TIP3   OH222815   6.092   3.889   7.768  0.1660 -0.1273 -0.1221
  419TIP3    H122816   6.034   3.879   7.843  1.3129 -0.0217  0.8149
  419TIP3    H222817   6.172   3.929   7.804  0.9715 -0.6127 -1.2820
  420TIP3   OH222818   5.547   1.638   2.219 -0.1614  0.5096 -0.4888
  420TIP3    H122819   5.499   1.564   2.180 -0.7757  1.2106 -1.1065
  420TIP3    H222820   5.479   1.690   2.262  0.3640  0.3424  0.5824
  421TIP3   OH222821   4.828   0.814   7.838  0.2345  0.0686 -0.3580
  421TIP3    H122822   4.736   0.837   7.824 -0.0326 -1.7500 -2.0526
  421TIP3    H222823   4.851   0.855   7.922 -2.9844 -1.7910  1.6518
  422TIP3   OH222824   3.167   3.078   0.308  0.4891 -0.0946 -0.6312
  422TIP3    H122825   3.215   3.048   0.230 -0.6449 -1.6799 -0.7797
  422TIP3    H222826   3.089   3.121   0.273  0.8462  0.7780 -0.3730
  423TIP3   OH222827   6.664   0.127   8.202  0.0314  0.8440 -0.0895
  423TIP3    H122828   6.740   0.083   8.164 -0.4021 -0.4289  0.4653
  423TIP3    H222829   6.681   0.126   8.297 -1.7517 -1.7025  0.3064
  424TIP3   OH222830   4.154   5.480   7.129 -0.2288 -0.0496 -0.2790
  424TIP3    H122831   4.079   5.527   7.165  0.9441 -0.0177  2.2963
  424TIP3    H222832   4.116   5.422   7.063 -2.7807 -1.2004  2.0221
  425TIP3   OH222833   6.075   3.235   7.788  0.6491 -0.7560  0.2761
  425TIP3    H122834   6.151   3.253   7.843  0.1952  0.8156  0.4330
  425TIP3    H222835   6.020   3.177   7.841  1.7346 -1.9782  0.1279
  426TIP3   OH222836   4.390   3.542   8.902 -0.1700 -0.1781  0.0672
  426TIP3    H122837   4.369   3.532   8.995  1.8904 -2.3532  0.3963
  426TIP3    H222838   4.485   3.539   8.899 -0.2079 -1.8921 -2.2358
  427TIP3   OH222839   5.473   5.580   8.922 -0.4003  0.5360  0.0556
  427TIP3    H122840   5.460   5.522   8.997  1.1145 -0.7898 -0.6311
  427TIP3    H222841   5.490   5.666   8.961  2.4922 -0.5077  1.4468
  428TIP3   OH222842   0.710   3.440   8.449 -0.1395  0.5051  0.2691
  428TIP3    H122843   0.643   3.490   8.403  2.1490  1.4536 -2.2839
  428TIP3    H222844   0.717   3.358   8.400  2.6109  1.6887 -1.5119
  429TIP3   OH222845   2.183   3.546   0.779  0.0032 -0.4437  0.2726
  429TIP3    H122846   2.126   3.617   0.750 -0.8586 -1.2458 -0.0381
  429TIP3    H222847   2.217   3.507   0.698 -0.7535 -1.3588  0.3762
  430TIP3   OH222848   0.572   2.313   8.450  0.0456  0.3624  0.4559
  430TIP3    H122849   0.657   2.273   8.467  0.0617  0.0908 -0.2388
  430TIP3    H222850   0.579   2.401   8.487  0.2823  0.0059  1.2875
  431TIP3   OH222851   6.548   5.104   1.419  0.3431  0.2598 -0.8121
  431TIP3    H122852   6.596   5.065   1.347 -0.8270 -0.9085 -0.9914
  431TIP3    H222853   6.478   5.155   1.378 -0.5650 -0.7229 -0.5292
  432TIP3   OH222854   5.541   3.475   8.152 -0.6003  0.5640  0.2098
  432TIP3    H122855   5.607   3.467   8.221 -1.0137 -0.1089  0.5367
  432TIP3    H222856   5.458   3.480   8.199 -0.9799 -0.9633 -0.2574
  433TIP3   OH222857   0.395   1.901   7.553  0.0687  0.2781  0.7158
  433TIP3    H122858   0.445   1.893   7.472  0.6302  1.7409  0.8713
  433TIP3    H222859   0.460   1.928   7.618 -0.2669 -1.4375  1.8095
  434TIP3   OH222860   2.523   0.440   0.596  0.1970 -0.3337 -0.0302
  434TIP3    H122861   2.538   0.355   0.637  1.8025 -0.5780 -1.0347
  434TIP3    H222862   2.486   0.419   0.510  1.8891 -0.1375 -0.8481
  435TIP3   OH222863   5.387   0.509   1.381  0.4012 -0.6784  0.1539
  435TIP3    H122864   5.481   0.517   1.363  0.6380 -0.7624  1.2741
  435TIP3    H222865   5.367   0.418   1.362  0.3046 -0.4114 -1.1042
  436TIP3   OH222866   5.520   1.384   7.732 -0.2322  0.0594  0.2994
  436TIP3    H122867   5.481   1.304   7.697  1.3391 -0.2756 -0.7976
  436TIP3    H222868   5.479   1.454   7.683  0.3646 -0.2745 -0.7063
  437TIP3   OH222869   4.755   3.974   7.876  0.3099  0.5143 -0.3249
  437TIP3    H122870   4.845   3.946   7.862  0.8533 -0.1000  3.3571
  437TIP3    H222871   4.701   3.898   7.853  0.8330  0.3072 -0.8883
  438TIP3   OH222872   3.183   1.334   6.291 -0.6261  0.2070  0.7131
  438TIP3    H122873   3.130   1.268   6.337  0.0125  0.6341  2.1173
  438TIP3    H222874   3.268   1.292   6.280 -0.7636  0.1252 -0.0671
  439TIP3   OH222875   2.836   1.310   7.674 -0.5242  0.0964  0.0159
  439TIP3    H122876   2.756   1.362   7.681 -0.8180 -0.2854 -0.4134
  439TIP3    H222877   2.811   1.225   7.711 -0.6145 -0.3412 -1.0323
  440TIP3   OH222878   0.016   6.742   7.528  0.3283 -0.1568 -0.3571
  440TIP3    H122879  -0.057   6.723   7.587  1.1579 -3.0097 -0.1396
  440TIP3    H222880  -0.024   6.750   7.442 -0.4844  0.6178  0.0754
  441TIP3   OH222881   1.602   5.166   1.089 -0.1576  1.1396 -0.3102
  441TIP3    H122882   1.656   5.245   1.097  0.4449  0.6681  0.3359
  441TIP3    H222883   1.518   5.190   1.128 -0.2377  1.6914 -0.8000
  442TIP3   OH222884   0.218   2.186   7.797 -0.7921  0.5013  0.0405
  442TIP3    H122885   0.261   2.189   7.712 -1.6447 -0.6339 -0.4646
  442TIP3    H222886   0.144   2.246   7.788 -1.1730  0.0086 -0.2141
  443TIP3   OH222887   2.699   6.578   8.809  0.4226 -0.2600  0.4162
  443TIP3    H122888   2.708   6.491   8.771 -1.2995 -1.0387  1.6613
  443TIP3    H222889   2.768   6.630   8.768 -0.0860 -1.5249 -2.2364
  444TIP3   OH222890   6.515   1.815   1.523 -0.0035  0.0469  0.2340
  444TIP3    H122891   6.594   1.866   1.541  0.0071  0.2386 -0.3339
  444TIP3    H222892   6.452   1.844   1.590 -0.4836  1.8979 -0.9563
  445TIP3   OH222893   5.766   4.407   7.294 -0.1268  0.8679 -0.4414
  445TIP3    H122894   5.722   4.425   7.378 -0.2310  2.9258 -0.8801
  445TIP3    H222895   5.694   4.391   7.233 -0.1623  1.6928 -0.6207
  446TIP3   OH222896   5.628   2.191   7.824 -0.0052 -0.2206 -0.3115
  446TIP3    H122897   5.648   2.283   7.840  0.6628 -0.2727 -0.8285
  446TIP3    H222898   5.532   2.186   7.829  0.0329  0.1777  1.3992
  447TIP3   OH222899   2.915   0.096   1.410  0.6266 -0.1657 -0.2737
  447TIP3    H122900   2.844   0.136   1.359  0.0940  0.8674  1.2053
  447TIP3    H222901   2.941   0.020   1.358  1.0248  1.5279 -2.7239
  448TIP3   OH222902   1.651   0.655   0.718 -0.2244 -0.1471 -0.2894
  448TIP3    H122903   1.615   0.697   0.640 -1.4401 -0.8941 -0.1613
  448TIP3    H222904   1.680   0.568   0.688  0.5999  0.0865 -0.1883
  449TIP3   OH222905   3.568   1.441   2.392  0.4877 -0.1681  0.1112
  449TIP3    H122906   3.523   1.484   2.464 -1.1909 -0.4229 -0.7318
  449TIP3    H222907   3.543   1.491   2.314 -0.8820 -2.1044 -0.7867
  450TIP3   OH222908   4.997   3.482   6.665  0.2024 -0.0903 -0.0849
  450TIP3    H122909   5.091   3.499   6.667  0.1017  0.4522  0.3820
  450TIP3    H222910   4.990   3.387   6.667  0.7282 -0.1329  1.8129
  451TIP3   OH222911   6.170   3.120   6.679  0.0290  0.6863 -0.6525
  451TIP3    H122912   6.195   3.125   6.587  1.8249  1.2789 -0.1778
  451TIP3    H222913   6.201   3.033   6.707  0.4523  0.9247 -0.3663
  452TIP3   OH222914   6.517   1.266   1.737 -0.0717 -0.3753 -0.0796
  452TIP3    H122915   6.564   1.194   1.778  0.1869 -1.3616 -1.9705
  452TIP3    H222916   6.445   1.224   1.689 -0.0305  0.6057 -1.0558
  453TIP3   OH222917   1.951   3.545   7.822 -0.0285 -0.3590  0.0277
  453TIP3    H122918   1.972   3.636   7.803 -0.6909 -0.5821 -1.9627
  453TIP3    H222919   1.895   3.517   7.750  0.1684 -2.3585  0.5807
  454TIP3   OH222920   4.383   2.192   8.205 -0.1852  0.1512  0.4512
  454TIP3    H122921   4.430   2.136   8.266  1.4993  0.1363 -0.8101
  454TIP3    H222922   4.294   2.157   8.204  0.4177 -1.4759  0.9228
  455TIP3   OH222923   1.316   2.517   7.785  0.4429  0.4909 -0.5568
  455TIP3    H122924   1.337   2.607   7.808 -0.3511  0.5382  0.0151
  455TIP3    H222925   1.282   2.523   7.695  0.9791  0.6706 -0.7517
  456TIP3   OH222926   5.943   5.557   8.521 -0.0377  0.4941 -0.1478
  456TIP3    H122927   5.980   5.639   8.489 -2.4949  1.2019 -1.4802
  456TIP3    H222928   6.013   5.493   8.511  1.5564  2.1886 -0.1933
  457TIP3   OH222929   3.978   6.286   0.116  0.4533  0.7235  0.6189
  457TIP3    H122930   3.938   6.287   0.029  2.9158 -0.1544 -0.6095
  457TIP3    H222931   3.915   6.332   0.172 -2.2888 -0.6579 -1.0950
  458TIP3   OH222932   4.678   1.062   7.317  0.0407  0.6210  0.1104
  458TIP3    H122933   4.683   0.986   7.375 -3.1369  0.5167  0.4220
  458TIP3    H222934   4.693   1.027   7.229  0.0785 -0.0652  0.3897
  459TIP3   OH222935   5.502   2.728   8.724 -0.3692 -0.0008  0.4159
  459TIP3    H122936   5.535   2.729   8.635 -0.2757  0.3148  0.4537
  459TIP3    H222937   5.425   2.785   8.723  0.1282  0.6915  0.7226
  460TIP3   OH222938   5.090   1.363   6.968 -0.4745 -0.4320  0.6808
  460TIP3    H122939   4.998   1.337   6.966  0.2589 -3.2828  0.0843
  460TIP3    H222940   5.125   1.337   6.883  0.7759  1.2650  0.6059
  461TIP3   OH222941   3.997   6.606   0.784 -0.1001  0.2556 -0.1361
  461TIP3    H122942   3.971   6.690   0.748  1.8863  1.4583  1.0626
  461TIP3    H222943   3.953   6.602   0.869 -2.1034 -1.0800 -1.1364
  462TIP3   OH222944   3.613   4.683   7.676  0.2126 -0.7655  0.2260
  462TIP3    H122945   3.637   4.776   7.675  0.1702 -0.7425  1.0168
  462TIP3    H222946   3.520   4.682   7.652  0.7231 -0.7909 -1.9938
  463TIP3   OH222947   2.030   2.708   1.368  0.0053 -0.5777 -0.2548
  463TIP3    H122948   2.105   2.706   1.427 -0.9726 -0.8879  1.0244
  463TIP3    H222949   1.958   2.739   1.422 -1.5175 -3.2441 -0.5884
  464TIP3   OH222950   4.870   0.152   0.876 -0.0331  0.4070 -1.1798
  464TIP3    H122951   4.786   0.195   0.887  0.1961  0.1669  2.7230
  464TIP3    H222952   4.928   0.196   0.938  2.5118 -0.0771 -3.0549
  465TIP3   OH222953   2.801   5.000   7.532 -0.1686  0.4368 -0.4349
  465TIP3    H122954   2.782   5.091   7.554  1.1204  0.3133  1.3010
  465TIP3    H222955   2.714   4.960   7.521 -0.7899  1.4751  0.4879
  466TIP3   OH222956   5.999   4.861   7.032  0.1769  0.0680 -0.3169
  466TIP3    H122957   6.040   4.823   6.954  1.5961  0.1418  0.3536
  466TIP3    H222958   6.055   4.831   7.104 -0.8086  0.4287  0.6138
  467TIP3   OH222959   5.837   2.160   7.630 -0.2141 -0.1170 -0.2456
  467TIP3    H122960   5.769   2.144   7.565 -0.5870  0.0893  0.0959
  467TIP3    H222961   5.831   2.087   7.691 -1.7539  1.1307  1.1729
  468TIP3   OH222962   5.435   3.820   1.117  0.3031  0.1960 -0.0726
  468TIP3    H122963   5.421   3.886   1.185 -0.5200 -0.5688  0.5136
  468TIP3    H222964   5.398   3.740   1.153  0.2196 -0.3150 -1.2584
  469TIP3   OH222965   6.128   3.125   1.313 -0.5828  0.2613 -0.0184
  469TIP3    H122966   6.084   3.165   1.388  0.5128 -0.9135  1.3192
  469TIP3    H222967   6.200   3.186   1.293 -1.5308  1.1364 -0.8734
  470TIP3   OH222968   6.427   5.877   8.489  0.4335  0.0490  0.5197
  470TIP3    H122969   6.474   5.794   8.478  0.0138 -0.1542  0.2183
  470TIP3    H222970   6.339   5.859   8.454  0.6418  0.9232 -0.4983
  471TIP3   OH222971   1.717   2.910   7.410 -0.0059 -0.5485 -0.0184
  471TIP3    H122972   1.808   2.915   7.437  0.2878  0.3454 -1.0823
  471TIP3    H222973   1.674   2.981   7.457 -0.0226 -0.5802  0.0139
  472TIP3   OH222974   6.074   6.456   0.483 -0.0269  0.1497  0.2340
  472TIP3    H122975   6.151   6.485   0.531  1.1154 -3.0521  0.5893
  472TIP3    H222976   6.109   6.425   0.399 -0.5601 -2.6693  0.9268
  473TIP3   OH222977   5.986   1.475   6.685  0.0234  0.2320 -0.2512
  473TIP3    H122978   5.915   1.523   6.644 -1.5003 -0.5883  1.2940
  473TIP3    H222979   5.960   1.383   6.680  0.3079  0.0144  1.4565
  474TIP3   OH222980   3.805   5.251   0.859  0.9174 -0.4300  0.3346
  474TIP3    H122981   3.762   5.187   0.801 -0.3531  0.8968 -0.2420
  474TIP3    H222982   3.802   5.333   0.811 -0.5829  0.8318  2.4133
  475TIP3   OH222983   0.200   3.415   8.029 -0.2813  0.0695  0.5966
  475TIP3    H122984   0.180   3.337   7.977 -1.1231  0.7606 -0.1556
  475TIP3    H222985   0.197   3.385   8.120 -0.0230 -0.8921  0.3030
  476TIP3   OH222986   3.525   0.014   0.462  0.0431 -0.4046  0.1105
  476TIP3    H122987   3.458   0.042   0.524  1.0994 -1.8246  1.9657
  476TIP3    H222988   3.606   0.012   0.513  1.3068  0.0617 -1.7731
  477TIP3   OH222989   5.822   2.570   8.404 -0.6677  0.4340 -0.3020
  477TIP3    H122990   5.821   2.595   8.312  0.9745  1.2510 -0.1397
  477TIP3    H222991   5.890   2.503   8.411  1.2678  2.3666  0.7096
  478TIP3   OH222992   6.652   1.486   1.570 -0.1353  0.2526 -0.2741
  478TIP3    H122993   6.630   1.565   1.520 -1.4764 -0.3543 -0.6935
  478TIP3    H222994   6.570   1.437   1.574  0.5700 -0.9099  0.3684
  479TIP3   OH222995   5.602   4.609   7.660  0.2686 -0.0894 -0.3036
  479TIP3    H122996   5.557   4.642   7.737  0.9119 -2.7694  1.3586
  479TIP3    H222997   5.690   4.648   7.664  0.6554 -1.0471  0.9750
  480TIP3   OH222998   1.988   6.149   8.106  0.1521 -0.4587  0.0936
  480TIP3    H122999   1.983   6.241   8.083  0.3606 -0.3667  0.4074
  480TIP3    H223000   1.910   6.110   8.067  0.2153 -0.2048 -0.2884
  481TIP3   OH223001   3.104   4.706   0.605  0.9045  0.3894  0.0611
  481TIP3    H123002   3.147   4.666   0.680  1.1962 -0.3160 -0.4666
  481TIP3    H223003   3.176   4.732   0.547  0.6908  1.0841  0.1033
  482TIP3   OH223004   0.415   1.379   0.978 -0.4557 -0.2545  0.3392
  482TIP3    H123005   0.495   1.328   0.989 -0.7947 -0.9802 -0.4958
  482TIP3    H223006   0.428   1.425   0.895 -1.1251 -0.7890 -0.0650
  483TIP3   OH223007   2.727   3.027   8.018 -0.0423  0.1851 -0.0119
  483TIP3    H123008   2.712   3.080   8.096  0.7048  0.8018 -0.2738
  483TIP3    H223009   2.767   3.087   7.955 -1.1627 -0.1569 -1.0892
  484TIP3   OH223010   1.357   0.569   2.993  0.0213 -0.0884  0.3162
  484TIP3    H123011   1.425   0.517   3.034  1.1154  2.7139  2.3735
  484TIP3    H223012   1.400   0.651   2.970 -2.3051  1.2125  0.2437
  485TIP3   OH223013   5.900   3.281   8.873  0.4081 -0.1999  0.4609
  485TIP3    H123014   5.846   3.214   8.916  0.7354 -1.1523 -0.5564
  485TIP3    H223015   5.984   3.276   8.918 -0.4019  1.6142  2.3719
  486TIP3   OH223016   5.301   0.676   2.289 -0.3010  0.3411 -0.1494
  486TIP3    H123017   5.359   0.751   2.292 -1.0918  0.9362  1.5981
  486TIP3    H223018   5.358   0.601   2.277  0.7202  1.0209  0.3646
  487TIP3   OH223019   6.355   1.290   0.626  0.3843  0.3112 -0.2425
  487TIP3    H123020   6.367   1.324   0.715 -1.9919 -0.7012  0.5455
  487TIP3    H223021   6.367   1.196   0.635  3.4897  0.4632 -1.7319
  488TIP3   OH223022   3.688   3.189   0.900  0.6939  0.2022 -0.0216
  488TIP3    H123023   3.736   3.115   0.863 -0.1093  0.4998 -1.7697
  488TIP3    H223024   3.726   3.202   0.987  1.7591 -1.3935 -0.2160
  489TIP3   OH223025   1.352   2.108   7.445  0.3034  0.2498  0.0692
  489TIP3    H123026   1.435   2.063   7.429  0.9839  1.2871  0.5760
  489TIP3    H223027   1.316   2.067   7.523  0.6613  0.2400  0.2281
  490TIP3   OH223028   4.557   4.554   8.626  0.6505 -0.0142  0.5853
  490TIP3    H123029   4.511   4.471   8.640  1.0519 -0.6107 -1.2781
  490TIP3    H223030   4.501   4.620   8.666 -0.5350 -0.9985  0.6066
  491TIP3   OH223031   1.927   4.108   8.515 -0.0385  0.1093 -0.6463
  491TIP3    H123032   1.977   4.135   8.592 -1.1582  0.9196 -0.1811
  491TIP3    H223033   1.844   4.076   8.550  0.0888 -1.1466 -1.4091
  492TIP3   OH223034   1.358   4.959   0.374 -0.4042  0.1930 -0.0828
  492TIP3    H123035   1.398   5.039   0.407 -0.5636 -0.3758  1.5613
  492TIP3    H223036   1.311   4.922   0.449 -0.8902 -1.1000 -0.9774
  493TIP3   OH223037   5.757   4.886   7.159 -0.8503 -0.0832  0.3013
  493TIP3    H123038   5.840   4.868   7.114 -1.1128  1.5455 -0.9257
  493TIP3    H223039   5.745   4.980   7.150 -1.6206  0.1223  2.6693
  494TIP3   OH223040   1.878   3.173   8.239  0.1975  0.1877 -0.1377
  494TIP3    H123041   1.891   3.228   8.161 -1.0388 -0.1225 -0.5810
  494TIP3    H223042   1.807   3.115   8.215 -0.3453  0.2252  1.3190
  495TIP3   OH223043   4.514   1.324   0.383 -0.7805 -0.0745  0.1804
  495TIP3    H123044   4.599   1.313   0.426 -0.9728  1.1200  0.9290
  495TIP3    H223045   4.525   1.282   0.298  1.2960  1.8553 -0.6363
  496TIP3   OH223046   5.692   2.018   8.830  0.0187 -0.2730  0.4041
  496TIP3    H123047   5.747   2.010   8.751 -1.2313  0.6404 -0.6120
  496TIP3    H223048   5.714   2.105   8.865 -0.7246  0.0991 -0.0095
  497TIP3   OH223049   1.827   5.527   1.646  0.0509  0.0536  0.1455
  497TIP3    H123050   1.921   5.515   1.630  0.6919  1.4401  2.3976
  497TIP3    H223051   1.785   5.480   1.575  2.4413 -1.0696 -0.6491
  498TIP3   OH223052   3.134   0.746   8.908  0.0184  0.6865  0.0004
  498TIP3    H123053   3.047   0.787   8.914 -0.2773 -0.0513  1.3204
  498TIP3    H223054   3.194   0.820   8.898 -0.7659  1.1915 -1.2389
  499TIP3   OH223055   6.413   1.556   0.195 -0.5050 -0.0909  0.4896
  499TIP3    H123056   6.334   1.610   0.207  0.1720  1.0731 -0.1331
  499TIP3    H223057   6.485   1.619   0.190  1.0765 -1.2001  4.8578
  500TIP3   OH223058   0.862   0.986   1.955  0.1348  0.1209  0.2534
  500TIP3    H123059   0.805   1.021   1.886 -1.1509  2.0822  2.1597
  500TIP3    H223060   0.940   1.042   1.951  0.5053 -0.4230 -0.2369
  501TIP3   OH223061   3.215   6.371   1.956 -0.1053  0.3575 -0.8009
  501TIP3    H123062   3.143   6.433   1.964 -0.7759 -0.6231  2.2981
  501TIP3    H223063   3.294   6.422   1.977 -0.7171  0.2154  2.3865
  502TIP3   OH223064   1.468   0.683   6.586 -0.4663  0.3283  0.4764
  502TIP3    H123065   1.520   0.603   6.580 -1.6179 -0.4389  0.3907
  502TIP3    H223066   1.416   0.684   6.506 -0.9105  0.8392  0.7642
  503TIP3   OH223067   6.053   2.477   0.508 -0.7467  0.5305 -0.7993
  503TIP3    H123068   5.995   2.535   0.559  0.4457  0.7602  0.3374
  503TIP3    H223069   6.133   2.527   0.496 -0.9511  0.4345 -2.8698
  504TIP3   OH223070   6.289   3.751   7.017  0.8432  0.6125 -0.2186
  504TIP3    H123071   6.345   3.678   7.043 -1.5092 -1.9132 -1.5350
  504TIP3    H223072   6.231   3.765   7.092  0.6119  0.3411 -0.3412
  505TIP3   OH223073   2.461   4.452   7.135  0.6648  0.2465  0.6091
  505TIP3    H123074   2.500   4.365   7.124  0.1467  0.1606 -0.7666
  505TIP3    H223075   2.501   4.504   7.065  2.6439  1.7703  2.7367
  506TIP3   OH223076   2.174   6.556   0.076  0.1894  0.5700 -0.2371
  506TIP3    H123077   2.177   6.632   0.134  1.3970  0.3936 -0.0440
  506TIP3    H223078   2.253   6.564   0.022  1.0540 -1.2123  0.6767
  507TIP3   OH223079   1.256   1.421   6.497  0.2332 -0.3409 -0.4142
  507TIP3    H123080   1.328   1.483   6.498 -0.9484  1.1051 -0.1269
  507TIP3    H223081   1.234   1.410   6.405  0.6234 -0.5520 -0.4823
  508TIP3   OH223082   1.421   2.065   8.868  0.8522  0.1708  0.3409
  508TIP3    H123083   1.480   2.092   8.798  1.8083  0.4874  1.2558
  508TIP3    H223084   1.442   2.122   8.942 -1.2747  0.9821  0.4102
  509TIP3   OH223085   1.586   2.001   1.005 -0.4646  0.5208 -0.1671
  509TIP3    H123086   1.544   1.951   0.935  0.0833  1.6068 -1.3198
  509TIP3    H223087   1.621   1.934   1.064 -0.7024 -0.4388 -1.0741
  510TIP3   OH223088   5.861   2.482   7.627  0.1604  0.8107 -0.0205
  510TIP3    H123089   5.867   2.422   7.552 -0.8394  2.2559 -1.3381
  510TIP3    H223090   5.802   2.438   7.688 -0.1847  0.2201 -0.7528
  511TIP3   OH223091   5.955   4.793   0.305  0.2131 -0.1727 -0.1433
  511TIP3    H123092   6.041   4.812   0.266  0.0552  0.7647 -0.0502
  511TIP3    H223093   5.940   4.866   0.365 -0.8100 -0.1522 -0.4165
  512TIP3   OH223094   5.936   4.459   8.828  0.2772 -0.2118 -0.5822
  512TIP3    H123095   6.024   4.476   8.861 -1.0631  1.3675  2.5492
  512TIP3    H223096   5.908   4.542   8.790 -0.3593 -0.2664 -0.2509
  513TIP3   OH223097   5.834   0.294   7.005  0.3116 -0.3451  0.2843
  513TIP3    H123098   5.770   0.301   7.076 -2.2526  2.4790 -1.9893
  513TIP3    H223099   5.905   0.354   7.031 -0.3886  0.3229  0.7108
  514TIP3   OH223100   0.072   1.174   8.272  0.0322  0.0443 -0.0752
  514TIP3    H123101   0.027   1.258   8.275  0.7740  0.5245 -1.4972
  514TIP3    H223102   0.163   1.195   8.252  0.6046 -1.0125  1.1840
  515TIP3   OH223103   0.787   5.622   7.872 -0.0363  0.0544  0.0879
  515TIP3    H123104   0.692   5.624   7.859  0.0009  0.0557 -0.1986
  515TIP3    H223105   0.823   5.640   7.785  0.2394 -1.1886 -0.0680
  516TIP3   OH223106   5.232   4.802   6.317  0.2808 -0.3529  0.4755
  516TIP3    H123107   5.174   4.837   6.249 -0.2242  0.4528  1.3168
  516TIP3    H223108   5.174   4.780   6.389  1.0105  0.4230  1.3138
  517TIP3   OH223109   3.478   2.955   1.569 -0.4476  0.6392  0.0869
  517TIP3    H123110   3.540   2.898   1.524 -2.1376 -1.3824  0.1808
  517TIP3    H223111   3.430   2.999   1.498 -0.0956  0.8645 -0.0119
  518TIP3   OH223112   3.817   3.543   0.231 -0.1146  0.0010 -0.5640
  518TIP3    H123113   3.878   3.554   0.305  1.7103 -1.2288 -1.7860
  518TIP3    H223114   3.827   3.624   0.181  0.4466 -0.1310 -0.6806
  519TIP3   OH223115   0.145   2.614   2.191 -0.3231 -0.4705  0.0146
  519TIP3    H123116   0.067   2.664   2.215 -1.8495 -2.5100 -0.4791
  519TIP3    H223117   0.145   2.540   2.251  0.7193 -0.9834 -0.6046
  520TIP3   OH223118   0.394   0.600   1.451 -0.0830  0.2912 -0.8359
  520TIP3    H123119   0.324   0.643   1.500  0.8421 -0.1210  0.9471
  520TIP3    H223120   0.353   0.521   1.415 -0.7111  0.4169 -0.4142
  521TIP3   OH223121   0.496   2.168   0.363  0.2808 -0.0485  0.3721
  521TIP3    H123122   0.501   2.195   0.454 -0.4358 -0.9186  0.6813
  521TIP3    H223123   0.426   2.102   0.360 -0.1184  0.3905 -0.9049
  522TIP3   OH223124   0.776   4.806   0.522  0.1809 -1.0090 -0.8404
  522TIP3    H123125   0.776   4.719   0.561  0.8494 -0.9707 -0.7414
  522TIP3    H223126   0.703   4.805   0.460 -0.8539 -1.0865  0.3561
  523TIP3   OH223127   6.142   2.758   7.175 -0.0394 -0.4884  0.1663
  523TIP3    H123128   6.175   2.765   7.265 -1.0916  0.8602  0.4802
  523TIP3    H223129   6.201   2.813   7.123  0.1165 -0.6618  0.1576
  524TIP3   OH223130   6.687   5.799   0.837 -0.0181 -0.0276 -0.4070
  524TIP3    H123131   6.633   5.721   0.842 -0.4248  0.3473  2.2264
  524TIP3    H223132   6.630   5.871   0.863  0.9257  0.8318 -0.6196
  525TIP3   OH223133   5.862   2.664   0.060 -0.3095  0.1192  0.0224
  525TIP3    H123134   5.865   2.614  -0.021  0.1013  1.2262 -0.6703
  525TIP3    H223135   5.863   2.598   0.129 -0.7799 -0.8487 -0.8637
  526TIP3   OH223136   1.468   0.417   2.364  0.4700  0.0408 -0.4682
  526TIP3    H123137   1.537   0.363   2.401 -0.1181 -1.0664 -0.9278
  526TIP3    H223138   1.492   0.426   2.271  1.8022  2.5785  0.0305
  527TIP3   OH223139   5.534   0.953   1.553  0.3633  0.1139 -0.2202
  527TIP3    H123140   5.516   0.859   1.558 -1.2408  0.2355 -2.4542
  527TIP3    H223141   5.452   0.994   1.583  0.3892  0.7719 -1.0274
  528TIP3   OH223142   3.005   0.470   7.345  0.4536  0.0465  0.3569
  528TIP3    H123143   2.912   0.453   7.329  0.2298 -0.4703  1.9968
  528TIP3    H223144   3.048   0.449   7.262 -0.7075 -1.2360  0.0320
  529TIP3   OH223145   3.668   5.266   1.143  0.3593 -0.0824 -0.2557
  529TIP3    H123146   3.596   5.204   1.129  0.5965 -0.2223 -0.9059
  529TIP3    H223147   3.741   5.229   1.093  0.7614  0.2745  0.0615
  530TIP3   OH223148   6.337   1.100   8.265 -0.1751  0.3666 -0.2241
  530TIP3    H123149   6.337   1.005   8.274 -1.0003  0.2377 -1.3056
  530TIP3    H223150   6.387   1.132   8.340 -1.7038 -0.7981  1.3627
  531TIP3   OH223151   4.557   5.146   0.061 -0.1560  0.0392 -0.5774
  531TIP3    H123152   4.463   5.167   0.063 -0.3672 -0.7516 -1.2686
  531TIP3    H223153   4.584   5.148   0.152 -0.6247  1.2147 -0.4525
  532TIP3   OH223154   4.248   3.884   1.152  0.2043  0.3622  0.1958
  532TIP3    H123155   4.226   3.889   1.245 -1.0117 -0.2341 -0.0402
  532TIP3    H223156   4.339   3.853   1.151  0.3471  0.7127  1.1865
  533TIP3   OH223157   2.291   3.565   0.367  0.0476 -0.2513  0.3900
  533TIP3    H123158   2.374   3.596   0.402 -0.0798 -1.1186  1.5242
  533TIP3    H223159   2.315   3.515   0.289  0.2536  2.5165 -1.4683
  534TIP3   OH223160   4.434   4.435   7.388 -0.4716 -0.1053  0.2142
  534TIP3    H123161   4.481   4.518   7.379 -1.1723  0.0961 -2.4581
  534TIP3    H223162   4.345   4.454   7.357 -0.6402 -1.8467 -0.4926
  535TIP3   OH223163   0.997   2.617   1.705 -0.7777  0.2638  0.0204
  535TIP3    H123164   0.960   2.668   1.777 -1.0862 -0.7363  0.5932
  535TIP3    H223165   0.923   2.604   1.645 -1.0053 -0.4879  0.4491
  536TIP3   OH223166   1.987   0.300   2.326  0.0148 -0.3519  0.0239
  536TIP3    H123167   2.045   0.292   2.250  0.1787 -3.0751  0.3230
  536TIP3    H223168   2.018   0.232   2.386 -0.5177  1.2891  2.2874
  537TIP3   OH223169   3.791   0.487   6.920 -0.1395  0.5781 -0.2580
  537TIP3    H123170   3.886   0.476   6.917 -0.2009 -0.1077  0.0663
  537TIP3    H223171   3.757   0.415   6.866 -0.5116  0.1092  0.5872
  538TIP3   OH223172   6.634   0.426   7.667 -0.1448 -0.2208  0.4389
  538TIP3    H123173   6.613   0.443   7.575  0.0352  0.4564  0.5169
  538TIP3    H223174   6.571   0.478   7.716 -0.6124 -1.0260  0.7166
  539TIP3   OH223175   4.967   5.673   0.019  0.2256  0.1655 -0.2365
  539TIP3    H123176   4.924   5.600   0.063  0.1257 -1.1527 -2.4200
  539TIP3    H223177   4.900   5.710  -0.038  0.5471  1.4154  0.1459
  540TIP3   OH223178   2.005   6.158   0.607  0.2546  0.2239 -1.1483
  540TIP3    H123179   1.924   6.134   0.650  0.7482  1.7217  0.7215
  540TIP3    H223180   1.979   6.217   0.536 -0.2344  2.1806  0.5649
  541TIP3   OH223181   1.401   3.636   1.925  0.2436 -0.5593  0.1752
  541TIP3    H123182   1.490   3.669   1.915  0.0805 -0.1098  0.1941
  541TIP3    H223183   1.352   3.710   1.962 -0.1525 -0.7813  0.0999
  542TIP3   OH223184   2.995   6.524   1.971 -0.9893  0.0255 -0.2518
  542TIP3    H123185   2.989   6.548   1.879 -0.6279 -1.9620 -0.8377
  542TIP3    H223186   2.919   6.468   1.986  0.2050 -1.5841  0.0085
  543TIP3   OH223187   6.531   2.738   7.111 -0.1973  0.1055  0.2327
  543TIP3    H123188   6.465   2.806   7.097  0.0915  0.6499  1.3445
  543TIP3    H223189   6.481   2.658   7.126 -0.5753  0.3139  0.0921
  544TIP3   OH223190   6.161   3.807   1.323  1.1030 -0.0826 -0.3273
  544TIP3    H123191   6.102   3.882   1.332 -0.8191 -1.4618 -0.7444
  544TIP3    H223192   6.248   3.843   1.342  0.2693  2.2244 -0.4939
  545TIP3   OH223193   0.926   5.441   6.659 -0.0409 -0.2416  0.1824
  545TIP3    H123194   0.842   5.408   6.693  0.5087 -0.5126  1.3324
  545TIP3    H223195   0.933   5.529   6.697  0.4628 -0.4486  0.5782
  546TIP3   OH223196   5.743   3.108   0.745  0.0236 -0.5003  0.5757
  546TIP3    H123197   5.776   3.078   0.660 -1.1865 -0.0356 -0.0748
  546TIP3    H223198   5.711   3.028   0.787 -0.9815 -0.4908 -0.1475
  547TIP3   OH223199   6.482   4.231   0.868  0.3545 -0.0872 -0.8738
  547TIP3    H123200   6.576   4.242   0.886  0.7950 -1.1063 -2.3407
  547TIP3    H223201   6.472   4.137   0.850 -1.1629 -0.1857  0.2712
  548TIP3   OH223202   0.883   3.468   1.688  0.4283 -0.1971 -0.1567
  548TIP3    H123203   0.823   3.395   1.700  1.7388 -1.4092 -0.6567
  548TIP3    H223204   0.906   3.465   1.595 -0.3495  1.5678 -0.4455
  549TIP3   OH223205   5.835   1.722   0.286 -0.5758  0.3354 -0.4378
  549TIP3    H123206   5.850   1.639   0.332 -1.5193  1.0076  1.1622
  549TIP3    H223207   5.813   1.784   0.355  0.9751  2.1783 -1.4950
  550TIP3   OH223208   4.495   4.206   8.308 -0.1423  0.2008 -0.5510
  550TIP3    H123209   4.444   4.130   8.335  0.0322  0.3380  0.1818
  550TIP3    H223210   4.439   4.251   8.244 -0.5026 -0.2056 -0.5275
  551TIP3   OH223211   3.281   0.062   7.046  0.1822 -0.5925 -0.3583
  551TIP3    H123212   3.201   0.012   7.030  0.3156 -1.3617  1.2069
  551TIP3    H223213   3.333   0.049   6.966 -0.8023 -0.9331 -0.9719
  552TIP3   OH223214   3.939   0.875   7.927 -0.8064  0.3311 -0.6200
  552TIP3    H123215   3.940   0.798   7.984  1.8427  2.2249  2.1837
  552TIP3    H223216   3.865   0.927   7.959 -0.0256  0.8606  0.3466
  553TIP3   OH223217   1.958   6.438   1.873 -0.5257 -0.0289 -0.4245
  553TIP3    H123218   1.982   6.491   1.949 -1.3136 -0.2073 -0.0395
  553TIP3    H223219   1.980   6.493   1.797  0.7139 -0.0436 -0.0888
  554TIP3   OH223220   5.957   5.093   0.338 -0.1449  0.3338  0.4478
  554TIP3    H123221   6.046   5.129   0.330  0.4630 -1.1190  0.3988
  554TIP3    H223222   5.921   5.135   0.416  0.4966  1.1065  0.3409
  555TIP3   OH223223   2.971   1.099   0.245 -0.5106 -0.2932 -0.4057
  555TIP3    H123224   2.977   1.193   0.227  1.3471 -0.2595  0.2034
  555TIP3    H223225   2.928   1.094   0.331 -1.4904 -0.0608 -0.8726
  556TIP3   OH223226   6.360   3.341   6.716 -0.1793 -0.1106  0.3541
  556TIP3    H123227   6.292   3.393   6.759  0.4314  1.4278 -0.4908
  556TIP3    H223228   6.311   3.281   6.659 -0.8878 -0.5276  1.3515
  557TIP3   OH223229   2.012   0.627   0.084 -0.1064 -0.1248  0.2650
  557TIP3    H123230   2.082   0.616   0.020  0.1931  0.1511  0.5426
  557TIP3    H223231   1.957   0.696   0.047 -0.8699 -1.1133 -0.4994
  558TIP3   OH223232   5.386   1.424   1.805 -0.4174 -0.4181 -0.1238
  558TIP3    H123233   5.443   1.396   1.734  1.6334  2.3189  0.2800
  558TIP3    H223234   5.423   1.384   1.883  0.3672  0.4775 -0.0119
  559TIP3   OH223235   3.873   0.455   1.961 -0.5924  0.3222 -0.3016
  559TIP3    H123236   3.782   0.475   1.939 -0.9970  0.3617  1.2623
  559TIP3    H223237   3.918   0.539   1.955 -0.8876  0.4961 -0.1165
  560TIP3   OH223238   3.000   0.638   0.882 -0.3195  0.0198  0.2382
  560TIP3    H123239   2.925   0.649   0.823 -1.5918 -2.1215  1.3511
  560TIP3    H223240   2.993   0.710   0.944 -1.5164 -0.2031  0.3789
  561TIP3   OH223241   5.758   1.363   7.010  0.2944 -0.0223 -0.1573
  561TIP3    H123242   5.853   1.366   7.011  0.3670 -1.5359  0.5241
  561TIP3    H223243   5.734   1.378   6.919  1.2409 -0.6301 -0.5201
  562TIP3   OH223244   2.951   1.630   0.067  0.3540  0.3680  0.2700
  562TIP3    H123245   2.956   1.664  -0.023 -0.1255  0.0222  0.1062
  562TIP3    H223246   3.032   1.660   0.108  0.1608  1.3111 -0.0016
  563TIP3   OH223247   6.434   5.403   0.245 -0.0852 -0.4457  0.7311
  563TIP3    H123248   6.503   5.345   0.277  1.2590  1.2545  1.0667
  563TIP3    H223249   6.449   5.408   0.151 -0.2325 -0.6797  0.6951
  564TIP3   OH223250   2.123   0.218   1.628  0.5460 -0.5752 -0.0947
  564TIP3    H123251   2.188   0.225   1.698 -0.4750  0.1792  0.8228
  564TIP3    H223252   2.130   0.300   1.580  1.3709 -1.1665 -1.0266
  565TIP3   OH223253   6.176   3.656   0.636 -0.5389 -0.3397  0.5468
  565TIP3    H123254   6.131   3.690   0.714 -2.2590  0.9629 -0.9218
  565TIP3    H223255   6.163   3.724   0.570 -1.4218 -2.4940 -1.6475
  566TIP3   OH223256   2.448   5.061   1.241 -0.5353 -0.1320  0.0808
  566TIP3    H123257   2.510   5.004   1.196  0.7766  1.2298  0.0896
  566TIP3    H223258   2.378   5.075   1.178 -0.0151 -0.3699 -0.5624
  567TIP3   OH223259   5.366   3.318   0.186 -0.1825  0.2406 -0.2402
  567TIP3    H123260   5.334   3.249   0.245  0.7805  0.0150  0.0451
  567TIP3    H223261   5.345   3.400   0.232 -1.2094  0.1499 -0.5175
  568TIP3   OH223262   4.636   5.462   1.368 -0.0946  0.0802 -0.1486
  568TIP3    H123263   4.593   5.377   1.366 -0.0364  0.0444 -2.4515
  568TIP3    H223264   4.565   5.525   1.381 -0.2909 -0.2462  0.3581
  569TIP3   OH223265   2.138   4.180   7.661  0.3026  0.2755  1.0392
  569TIP3    H123266   2.202   4.231   7.610 -1.3836 -0.6864 -2.3507
  569TIP3    H223267   2.181   4.164   7.745  3.8364  1.0368 -0.4543
  570TIP3   OH223268   6.130   4.141   1.864 -0.0885  0.4084  0.7655
  570TIP3    H123269   6.200   4.202   1.842 -0.3703  1.5267  2.7669
  570TIP3    H223270   6.054   4.173   1.815  0.1482  0.7462  0.6133
  571TIP3   OH223271   5.255   0.288   8.015 -0.2399 -0.0986  0.4766
  571TIP3    H123272   5.312   0.346   8.065 -2.0806  1.0532  1.3915
  571TIP3    H223273   5.268   0.202   8.054 -0.3467  0.4658  1.8293
  572TIP3   OH223274   6.431   5.141   0.908  0.5460  0.4444  0.4326
  572TIP3    H123275   6.469   5.056   0.932  0.2325 -0.1316 -1.0154
  572TIP3    H223276   6.497   5.205   0.935  0.8625 -0.2531  1.3833
  573TIP3   OH223277   4.992   3.785   8.338 -0.2594 -0.2619 -0.9898
  573TIP3    H123278   5.054   3.714   8.322  0.3589 -0.5085  1.9748
  573TIP3    H223279   4.984   3.789   8.433 -3.1134  1.2519 -1.1850
  574TIP3   OH223280   5.284   3.178   7.693 -0.2459  0.5948 -0.0954
  574TIP3    H123281   5.346   3.194   7.763  1.2358 -1.4086 -0.8590
  574TIP3    H223282   5.331   3.203   7.613 -0.1799 -1.4135 -0.7325
  575TIP3   OH223283   1.266   5.105   8.496 -0.3441  0.0590  0.0484
  575TIP3    H123284   1.305   5.159   8.564 -1.7894  2.6043 -1.0017
  575TIP3    H223285   1.312   5.130   8.415  1.1300 -2.6781 -0.0928
  576TIP3   OH223286   0.268   3.041   6.951 -0.1383 -0.3564  0.0185
  576TIP3    H123287   0.243   2.960   6.907  3.4025 -0.8136 -1.5160
  576TIP3    H223288   0.345   3.018   7.002  1.0232  2.0204 -0.5078
  577TIP3   OH223289   0.502   1.664   7.844  0.1945 -0.1944  0.4084
  577TIP3    H123290   0.531   1.748   7.807  0.4911 -0.4253  0.1106
  577TIP3    H223291   0.406   1.670   7.843  0.2152  0.2384  0.6204
  578TIP3   OH223292   3.622   1.486   0.047  0.0955 -0.4219  0.2356
  578TIP3    H123293   3.639   1.422   0.116 -2.3551 -0.7370  0.6474
  578TIP3    H223294   3.590   1.433  -0.027  0.0597  0.1495 -0.1619
  579TIP3   OH223295   3.226   5.890   0.172 -0.2183  0.5571 -0.3908
  579TIP3    H123296   3.267   5.805   0.180  0.6911  1.1095  1.2379
  579TIP3    H223297   3.296   5.949   0.143 -0.1171  1.2446  1.1309
  580TIP3   OH223298   4.748   0.471   7.893 -0.1776  0.7892  0.3532
  580TIP3    H123299   4.767   0.498   7.983 -1.2005 -0.0424  0.8375
  580TIP3    H223300   4.825   0.420   7.866  0.2279  1.2240  0.6614
  581TIP3   OH223301   5.978   5.677   2.211  0.3498  0.0894  0.2033
  581TIP3    H123302   6.071   5.665   2.193 -0.3162 -1.1141 -3.1225
  581TIP3    H223303   5.950   5.744   2.148 -1.4430 -1.3041 -0.5773
  582TIP3   OH223304   0.177   3.430   2.461 -0.0912  0.2188 -0.0787
  582TIP3    H123305   0.248   3.441   2.524 -0.5006 -0.2074  0.4665
  582TIP3    H223306   0.189   3.501   2.399  2.7926 -1.7152 -1.9461
  583TIP3   OH223307   0.949   5.335   7.384 -0.7113 -0.0522 -0.0085
  583TIP3    H123308   0.856   5.354   7.370 -0.6204 -0.2481 -0.9398
  583TIP3    H223309   0.954   5.303   7.474 -1.7526 -1.3010 -0.3708
  584TIP3   OH223310   4.064   3.700   1.593  0.0125  0.8035 -0.8686
  584TIP3    H123311   4.083   3.624   1.538 -1.0849 -0.2157  0.0723
  584TIP3    H223312   4.149   3.741   1.609  1.2550 -2.1936  1.3212
  585TIP3   OH223313   0.423   4.008   1.748 -0.0675 -0.4399 -0.1682
  585TIP3    H123314   0.460   3.931   1.705 -0.2754 -0.6772  0.0744
  585TIP3    H223315   0.453   4.082   1.695 -1.3875 -0.8120 -1.4937
  586TIP3   OH223316   1.395   0.039   1.322 -0.0436  0.5358  0.2368
  586TIP3    H123317   1.393   0.092   1.402  0.4442 -0.7830  1.1610
  586TIP3    H223318   1.340   0.086   1.261 -0.4155  1.6006  1.3486
  587TIP3   OH223319   6.624   2.406   2.517 -0.2903  0.1547  0.3492
  587TIP3    H123320   6.560   2.463   2.474  0.0183  0.4135  0.2220
  587TIP3    H223321   6.584   2.385   2.601 -0.3946  0.5992  0.4183
  588TIP3   OH223322   1.447   4.342   0.368  0.2636 -0.1210  0.5593
  588TIP3    H123323   1.408   4.422   0.333  0.5470  0.1785  0.9219
  588TIP3    H223324   1.480   4.366   0.454 -1.5090 -1.1565  1.5886
  589TIP3   OH223325   3.513   2.443   7.151 -0.9161  0.2627  0.3882
  589TIP3    H123326   3.471   2.518   7.108 -2.2924  0.3571  1.8022
  589TIP3    H223327   3.443   2.404   7.203 -1.0516 -3.7290 -2.3554
  590TIP3   OH223328   4.164   1.302   7.706 -0.3862  0.1330  0.0430
  590TIP3    H123329   4.119   1.377   7.746 -0.4942  0.5384 -0.8201
  590TIP3    H223330   4.255   1.329   7.700 -0.1607 -0.3570  0.9996
  591TIP3   OH223331   2.866   2.626   0.617  0.2655  0.0048  0.5171
  591TIP3    H123332   2.879   2.703   0.562 -2.9504 -0.4385 -1.1532
  591TIP3    H223333   2.917   2.557   0.574 -0.9778  0.0458 -1.1348
  592TIP3   OH223334   6.535   4.816   6.586  0.3666 -0.0841  0.3151
  592TIP3    H123335   6.610   4.867   6.554  0.7245  0.2682  1.6548
  592TIP3    H223336   6.524   4.747   6.522  1.8320 -0.1290  0.0758
  593TIP3   OH223337   1.027   3.199   0.159  0.0829  0.0078  0.1219
  593TIP3    H123338   1.104   3.159   0.199 -0.4569 -1.4019 -0.2001
  593TIP3    H223339   0.980   3.238   0.232 -0.3011 -1.5415  0.7310
  594TIP3   OH223340   1.720   0.859   0.192 -0.3455 -0.1705 -0.1467
  594TIP3    H123341   1.673   0.786   0.152 -0.0124 -0.9692  0.8955
  594TIP3    H223342   1.778   0.891   0.123 -0.6107 -0.7783 -0.6626
  595TIP3   OH223343   6.432   0.580   1.069 -0.7802 -0.0760  0.0492
  595TIP3    H123344   6.482   0.661   1.072  0.2380 -0.6994  1.1280
  595TIP3    H223345   6.488   0.519   1.021 -1.6891 -0.0710 -1.0624
  596TIP3   OH223346   4.459   0.868   7.355  0.9111 -0.1981 -0.4495
  596TIP3    H123347   4.543   0.879   7.399 -0.6986 -0.5617  3.0472
  596TIP3    H223348   4.440   0.774   7.364 -0.1600 -0.0067 -0.6033
  597TIP3   OH223349   5.256   1.217   1.966 -0.4387 -0.2913 -0.2979
  597TIP3    H123350   5.232   1.250   1.880  1.6072 -1.2112 -1.2764
  597TIP3    H223351   5.328   1.155   1.950  0.0643 -0.4371  2.0660
  598TIP3   OH223352   6.050   2.393   1.122  0.8985 -0.0568 -0.2161
  598TIP3    H123353   6.105   2.470   1.134 -0.3736  1.0216 -0.9379
  598TIP3    H223354   6.046   2.382   1.027 -0.6648  0.3367 -0.2270
  599TIP3   OH223355   6.418   0.803   2.253 -0.0333 -0.4777 -0.2118
  599TIP3    H123356   6.360   0.855   2.308  1.4706 -1.0207  2.0259
  599TIP3    H223357   6.365   0.731   2.222 -0.9971 -0.0076  0.3101
  600TIP3   OH223358   2.342   2.331   0.055 -0.5429  0.0286  0.0726
  600TIP3    H123359   2.355   2.251   0.107 -0.3123  0.1406  0.1919
  600TIP3    H223360   2.266   2.373   0.095  0.4164  0.7810  1.1804
  601TIP3   OH223361   6.343   6.137   2.000  0.2347  0.4130  0.5353
  601TIP3    H123362   6.268   6.108   1.947 -0.0944 -0.7277  1.5633
  601TIP3    H223363   6.419   6.112   1.948 -0.0796 -0.8327  0.6236
  602TIP3   OH223364   5.247   6.679   8.696 -0.1302  0.0322 -0.0419
  602TIP3    H123365   5.239   6.602   8.752 -1.2504 -0.1445 -0.3966
  602TIP3    H223366   5.326   6.664   8.644  0.5430 -0.1106  1.0082
  603TIP3   OH223367   1.084   1.710   6.836 -0.4754  0.6429  1.0269
  603TIP3    H123368   1.165   1.739   6.796 -0.0466 -0.2890  1.1782
  603TIP3    H223369   1.056   1.634   6.784 -0.7384  0.3780  1.5345
  604TIP3   OH223370   4.021   0.953   8.725  0.7898  0.0769  0.1534
  604TIP3    H123371   3.997   0.998   8.806  1.7512  0.2993  0.3191
  604TIP3    H223372   4.116   0.964   8.718  0.6143  0.8351 -1.4657
  605TIP3   OH223373   0.165   4.627   1.859 -0.3826  0.7088  0.1794
  605TIP3    H123374   0.218   4.556   1.894  0.2867  1.5791  0.9775
  605TIP3    H223375   0.075   4.597   1.868 -0.0989 -0.2005  0.1123
  606TIP3   OH223376   4.898   2.221   0.987 -0.1567 -0.0163 -0.2161
  606TIP3    H123377   4.927   2.312   0.985 -0.0645 -0.0480 -0.3085
  606TIP3    H223378   4.847   2.214   1.068  0.0527  0.0520 -0.0769
  607TIP3   OH223379   4.537   1.710   1.555 -0.3056  0.4211  0.3841
  607TIP3    H123380   4.617   1.739   1.598  0.3639  1.7258 -1.6410
  607TIP3    H223381   4.544   1.614   1.554  1.3504  0.5156  0.0375
  608TIP3   OH223382   3.410   1.229   1.317  0.2750  0.4685  0.7165
  608TIP3    H123383   3.484   1.255   1.262  0.9515 -0.0562  1.3643
  608TIP3    H223384   3.380   1.147   1.277  1.3402 -0.3998  1.6237
  609TIP3   OH223385   5.280   4.348   7.421  0.3321 -0.1979  0.1403
  609TIP3    H123386   5.282   4.253   7.432  0.2618 -0.1793  0.3024
  609TIP3    H223387   5.307   4.383   7.506 -1.8198 -0.0242  0.7992
  610TIP3   OH223388   2.919   4.423   1.624 -0.9433 -0.1296  0.7266
  610TIP3    H123389   2.880   4.511   1.629 -1.2446 -0.1363 -0.8192
  610TIP3    H223390   3.010   4.436   1.648 -1.3331  0.3246  2.0200
  611TIP3   OH223391   4.071   3.637   7.020  0.6346  0.1712 -0.1490
  611TIP3    H123392   4.155   3.594   7.041  1.4531  0.8643 -1.8415
  611TIP3    H223393   4.059   3.622   6.926  0.5501  2.9154 -0.6614
  612TIP3   OH223394   4.036   3.076   7.660  0.2313  0.0901  0.1738
  612TIP3    H123395   4.053   3.169   7.674  0.8195  0.2063 -1.1861
  612TIP3    H223396   3.965   3.074   7.595  2.5768 -0.3233 -2.5851
  613TIP3   OH223397   3.934   1.794   2.635  0.3428 -0.0176 -0.3799
  613TIP3    H123398   3.990   1.856   2.681  0.4220 -0.1909 -0.2411
  613TIP3    H223399   3.964   1.708   2.664 -2.3999 -0.1437  2.7020
  614TIP3   OH223400   5.641   2.718   7.638 -0.0285  0.0167 -0.3342
  614TIP3    H123401   5.561   2.742   7.685 -0.4450  0.0399 -1.0373
  614TIP3    H223402   5.630   2.757   7.551  0.7396  0.0037 -0.4376
  615TIP3   OH223403   6.626   4.888   1.936 -0.0475  0.0015 -0.7402
  615TIP3    H123404   6.655   4.901   1.846  0.7690  0.6962 -0.3800
  615TIP3    H223405   6.554   4.950   1.947 -0.6389 -0.5953 -1.1269
  616TIP3   OH223406   2.446   4.651   7.956  0.0063  0.7609 -0.1315
  616TIP3    H123407   2.469   4.564   7.988 -1.8676  0.0956 -0.4601
  616TIP3    H223408   2.508   4.710   7.999  0.1621 -0.5363  1.5283
  617TIP3   OH223409   6.589   6.062   0.041  0.8193 -0.2213  0.8204
  617TIP3    H123410   6.536   6.004   0.095 -0.3339 -1.4845 -1.5171
  617TIP3    H223411   6.673   6.067   0.086  0.6803 -3.0226  1.5618
  618TIP3   OH223412   3.354   3.305   1.182 -0.4070  0.2804  0.2007
  618TIP3    H123413   3.295   3.379   1.167 -0.2598  0.3793  0.1118
  618TIP3    H223414   3.435   3.330   1.139  0.0900  0.6440  1.3010
  619TIP3   OH223415   4.001   1.042   0.594 -0.3456 -0.1964 -0.1684
  619TIP3    H123416   4.033   1.028   0.683  0.5951  1.0265 -0.2758
  619TIP3    H223417   3.914   1.003   0.593 -1.5086  2.0082  2.1084
  620TIP3   OH223418   0.328   1.442   1.750  0.4724 -0.6203 -0.0299
  620TIP3    H123419   0.374   1.381   1.692  2.2213  1.5387 -1.0505
  620TIP3    H223420   0.398   1.480   1.803 -0.5363  0.7228  0.3742
  621TIP3   OH223421   0.912   3.619   0.602  0.1893  0.0076  0.0083
  621TIP3    H123422   0.970   3.548   0.574 -2.5633 -1.6703 -1.9479
  621TIP3    H223423   0.885   3.662   0.520 -3.0173 -0.7723  0.5166
  622TIP3   OH223424   2.908   6.435   7.962 -0.2430 -0.4736 -0.9278
  622TIP3    H123425   2.859   6.364   7.919 -1.2686  0.5553 -1.5001
  622TIP3    H223426   2.953   6.479   7.891 -0.9706  0.4856 -0.8101
  623TIP3   OH223427   2.683   6.074   1.853 -0.0136 -0.0275 -0.1167
  623TIP3    H123428   2.656   6.111   1.769 -0.5923  0.5351  0.3118
  623TIP3    H223429   2.743   6.003   1.829  0.3523  0.5573 -0.9765
  624TIP3   OH223430   0.772   0.204   7.171 -0.0457 -0.4461 -0.0101
  624TIP3    H123431   0.734   0.285   7.136 -0.2746  0.0762  1.3803
  624TIP3    H223432   0.754   0.139   7.104 -3.3464 -0.2095  0.4821
  625TIP3   OH223433   3.710   1.057   7.870 -0.5813 -0.8063  0.0160
  625TIP3    H123434   3.735   1.036   7.781 -0.4135 -0.6062  0.0154
  625TIP3    H223435   3.760   1.137   7.891 -2.9569  1.0071 -0.7999
  626TIP3   OH223436   2.380   4.043   6.748 -0.5338  0.1623 -0.3154
  626TIP3    H123437   2.440   4.027   6.675 -1.4393  2.6499 -1.7454
  626TIP3    H223438   2.302   3.992   6.726 -0.6336  0.5486 -0.9056
  627TIP3   OH223439   2.420   2.949   8.159  0.0829 -0.1817 -0.2577
  627TIP3    H123440   2.427   3.021   8.097 -0.1535  0.7575  0.7698
  627TIP3    H223441   2.327   2.948   8.184  0.4691  0.5830  1.3441
  628TIP3   OH223442   4.167   3.030   2.257 -0.2686  0.1319 -0.1454
  628TIP3    H123443   4.233   2.973   2.217 -0.4667  0.6783 -1.2830
  628TIP3    H223444   4.084   2.995   2.227 -0.3697  1.6834 -1.8633
  629TIP3   OH223445   3.787   6.293   8.383  0.4560 -0.3463  0.0561
  629TIP3    H123446   3.848   6.348   8.334  0.7795 -0.0017  0.8348
  629TIP3    H223447   3.817   6.203   8.365  0.6067 -0.2238 -0.3240
  630TIP3   OH223448   3.987   5.341   7.337 -0.0538  0.5219  0.1609
  630TIP3    H123449   3.937   5.405   7.286 -2.7542 -0.8832  0.8558
  630TIP3    H223450   3.990   5.263   7.281  0.4297  0.2171  0.5993
  631TIP3   OH223451   1.966   2.514   7.456 -0.0208  0.1470 -0.5202
  631TIP3    H123452   1.881   2.552   7.433 -0.5594  0.0918  1.1943
  631TIP3    H223453   2.011   2.584   7.503  0.7430  0.0515 -1.0998
  632TIP3   OH223454   6.277   0.226   8.224  0.2179 -0.4443  0.2393
  632TIP3    H123455   6.240   0.171   8.155  1.8659  0.0971 -1.1559
  632TIP3    H223456   6.241   0.313   8.208  0.0863 -0.4553  0.4723
  633TIP3   OH223457   2.324   0.635   8.477 -0.2399 -0.2752 -0.2785
  633TIP3    H123458   2.246   0.581   8.485 -0.1550 -0.4792 -0.8133
  633TIP3    H223459   2.397   0.573   8.477 -0.0847 -0.0988  0.0154
  634TIP3   OH223460   1.466   4.663   7.531  0.1504  0.3256  0.6724
  634TIP3    H123461   1.507   4.585   7.494 -1.6817  0.0457 -0.8848
  634TIP3    H223462   1.525   4.689   7.602  2.2995 -0.8034 -0.5845
  635TIP3   OH223463   1.327   0.433   2.011 -0.0477  0.1860  0.6972
  635TIP3    H123464   1.337   0.346   2.049 -2.2718  0.1884  1.4014
  635TIP3    H223465   1.410   0.477   2.032  1.5200 -1.9959 -0.5111
  636TIP3   OH223466   5.535   0.511   8.464 -0.5397  0.3592 -0.4014
  636TIP3    H123467   5.443   0.538   8.464 -0.2791  1.3195 -1.0061
  636TIP3    H223468   5.540   0.444   8.396 -0.6581  0.8492 -0.9068
  637TIP3   OH223469   4.308   3.971   1.721 -0.5421  0.2490  0.1345
  637TIP3    H123470   4.310   4.047   1.779  0.8280  1.6992 -1.6855
  637TIP3    H223471   4.385   3.919   1.747 -1.9141 -1.0121  1.9008
  638TIP3   OH223472   2.419   6.369   2.350 -0.1926 -0.4235 -0.1911
  638TIP3    H123473   2.342   6.414   2.316 -0.6428  0.1769  1.4926
  638TIP3    H223474   2.482   6.439   2.366 -0.0704 -0.6555  0.3621
  639TIP3   OH223475   6.192   2.633   1.412  0.4793  0.0259 -0.9263
  639TIP3    H123476   6.099   2.616   1.399  0.4535 -0.6277 -0.0245
  639TIP3    H223477   6.195   2.708   1.471  0.5203 -0.1044 -0.7625
  640TIP3   OH223478   2.014   3.098   8.475  0.0358 -0.1371 -0.1311
  640TIP3    H123479   2.051   3.046   8.404  1.5923  1.2732 -0.4057
  640TIP3    H223480   1.977   3.175   8.431  1.0722  0.7793  0.5514
  641TIP3   OH223481   6.116   0.451   8.138 -0.0873  0.3840  0.1425
  641TIP3    H123482   6.175   0.464   8.064  1.9950 -0.3478  1.5925
  641TIP3    H223483   6.067   0.532   8.144 -0.0318  0.6048 -1.7779
  642TIP3   OH223484   0.757   2.687   7.687 -0.2499  0.5415  0.1548
  642TIP3    H123485   0.782   2.779   7.677 -1.1223  0.9838  1.7326
  642TIP3    H223486   0.811   2.656   7.760 -0.2839 -0.0900 -0.0814
  643TIP3   OH223487   6.194   1.039   1.958  1.0373  0.5064 -0.0796
  643TIP3    H123488   6.151   0.960   1.926  1.1312 -0.2652  1.6005
  643TIP3    H223489   6.270   1.050   1.901  0.3911  0.0599 -1.0563
  644TIP3   OH223490   4.826   0.015   8.945  0.8838  0.3239  0.4603
  644TIP3    H123491   4.774   0.047   8.872  1.1508  1.6003  0.8013
  644TIP3    H223492   4.782  -0.065   8.973  1.4884 -0.9155 -1.8709
  645TIP3   OH223493   1.785   4.632   1.123 -0.6432  0.4313  0.2678
  645TIP3    H123494   1.803   4.634   1.029  1.0692 -1.4326  0.4910
  645TIP3    H223495   1.733   4.553   1.136 -1.5787  1.1143  0.8121
  646TIP3   OH223496   2.276   6.314   8.437  0.0985 -0.8123  0.2243
  646TIP3    H123497   2.340   6.330   8.367 -0.7277 -3.5413 -1.2765
  646TIP3    H223498   2.205   6.376   8.419  1.3186  0.8041  0.6938
  647TIP3   OH223499   5.864   5.333   1.411  0.1242 -0.0273 -0.5277
  647TIP3    H123500   5.861   5.272   1.485 -0.9073  0.1982 -0.3736
  647TIP3    H223501   5.948   5.315   1.369 -1.2566 -3.5384 -2.1756
  648TIP3   OH223502   1.946   6.570   8.907  0.5081 -0.3179  0.1320
  648TIP3    H123503   2.015   6.564   8.972  0.3452 -2.7359  0.1784
  648TIP3    H223504   1.888   6.639   8.940  2.2563  0.9871  0.6434
  649TIP3   OH223505   4.747   4.264   0.327  0.1186 -0.7115  0.3241
  649TIP3    H123506   4.681   4.304   0.271  0.2635 -0.0923  0.5914
  649TIP3    H223507   4.746   4.171   0.302  0.3345 -0.4160 -0.8733
  650TIP3   OH223508   3.129   3.071   0.593 -0.4749 -0.4223 -0.0196
  650TIP3    H123509   3.219   3.090   0.618 -0.9132  0.9126  0.6220
  650TIP3    H223510   3.130   3.068   0.498  0.3886 -1.2213  0.0019
  651TIP3   OH223511   0.606   0.940   0.421  0.2726 -0.2383 -0.4104
  651TIP3    H123512   0.537   0.884   0.455  0.6533 -0.8784 -0.6815
  651TIP3    H223513   0.565   0.987   0.348 -0.2060  0.2649  0.1720
  652TIP3   OH223514   4.337   5.596   8.734 -0.3773  0.1787 -0.4032
  652TIP3    H123515   4.384   5.678   8.719  0.1789  0.1299  0.9535
  652TIP3    H223516   4.246   5.617   8.714 -0.1502  0.9593 -0.6516
  653TIP3   OH223517   5.992   0.024   0.593  0.0273 -0.5822 -0.5190
  653TIP3    H123518   6.047  -0.033   0.647  1.0823 -1.2099 -2.1773
  653TIP3    H223519   5.914   0.041   0.647  2.2669  1.3147  2.4435
  654TIP3   OH223520   1.336   0.571   6.862 -0.2029 -0.4985 -0.4381
  654TIP3    H123521   1.320   0.478   6.847 -1.3353 -0.0653 -2.2295
  654TIP3    H223522   1.428   0.584   6.838 -0.5650 -0.8284 -2.1387
  655TIP3   OH223523   6.055   0.880   1.695  0.4430  0.4150  0.5250
  655TIP3    H123524   6.068   0.973   1.674  2.1436  0.0893 -0.0754
  655TIP3    H223525   6.091   0.834   1.620 -2.2845 -0.7805 -0.1603
  656TIP3   OH223526   1.747   0.486   0.379 -0.4403  0.0524 -0.1498
  656TIP3    H123527   1.707   0.426   0.442 -1.0704  1.2120  0.5947
  656TIP3    H223528   1.685   0.489   0.306 -0.2737 -0.3895 -0.3171
  657TIP3   OH223529   1.473   1.095   8.470  0.3216 -0.4079 -0.3078
  657TIP3    H123530   1.565   1.096   8.496 -0.2267  0.3683  1.7250
  657TIP3    H223531   1.429   1.046   8.539 -0.9913  0.4107 -0.5456
  658TIP3   OH223532   4.273   6.575   1.687 -0.0788 -0.0572  0.0136
  658TIP3    H123533   4.275   6.492   1.736 -0.6813  0.3363  0.7072
  658TIP3    H223534   4.253   6.548   1.597  0.7009 -0.7533  0.0282
  659TIP3   OH223535   4.404   1.529   0.514 -0.5361  0.1683  0.2861
  659TIP3    H123536   4.455   1.457   0.477 -1.8003 -0.2688 -0.6566
  659TIP3    H223537   4.455   1.608   0.495 -0.3870 -0.2230 -0.9571
  660TIP3   OH223538   6.166   1.730   0.675 -0.1071 -0.1567  0.1686
  660TIP3    H123539   6.184   1.711   0.767 -0.0703  0.3759  0.2719
  660TIP3    H223540   6.078   1.767   0.674  0.4829  1.3100  0.1871
  661TIP3   OH223541   4.608   2.866   7.257 -0.1047  0.2096  0.2200
  661TIP3    H123542   4.536   2.847   7.196 -1.0052 -0.1865  1.3715
  661TIP3    H223543   4.564   2.883   7.340  1.0222  2.0927  0.4686
  662TIP3   OH223544   2.600   2.228   0.528  0.4504 -0.0343  0.0361
  662TIP3    H123545   2.561   2.247   0.613  1.2731 -1.7013  0.8386
  662TIP3    H223546   2.562   2.144   0.502  1.0379 -0.0875 -0.7195
  663TIP3   OH223547   4.794   3.188   7.570  0.0138  0.1624  0.2331
  663TIP3    H123548   4.867   3.153   7.519  0.4689 -0.8296  1.5057
  663TIP3    H223549   4.757   3.111   7.613 -0.8444  0.8653  0.7808
  664TIP3   OH223550   5.462   6.278   8.765  0.1246 -0.3432 -0.4442
  664TIP3    H123551   5.431   6.362   8.799 -0.3854 -0.3157 -0.9517
  664TIP3    H223552   5.555   6.276   8.787  0.5594  1.1393 -1.9403
  665TIP3   OH223553   6.394   3.159   0.486 -0.1921  0.1722  0.3951
  665TIP3    H123554   6.423   3.244   0.517 -1.3537  1.3948 -1.6254
  665TIP3    H223555   6.431   3.151   0.398 -0.0678 -1.4471  0.5526
  666TIP3   OH223556   4.369   3.340   0.368 -0.1763  0.2245  0.7508
  666TIP3    H123557   4.361   3.249   0.397 -1.9199 -1.0435 -3.0600
  666TIP3    H223558   4.461   3.349   0.344 -0.1589 -0.8768  0.3215
  667TIP3   OH223559   5.240   0.969   0.223 -0.0488  0.3366 -0.3148
  667TIP3    H123560   5.311   0.907   0.239  1.4936  0.6605 -4.5553
  667TIP3    H223561   5.202   0.940   0.140 -0.5139  3.8754 -1.4974
  668TIP3   OH223562   2.120   3.415   7.562 -0.0935 -0.6286  0.6579
  668TIP3    H123563   2.060   3.452   7.497  0.2103  0.0897  0.7794
  668TIP3    H223564   2.144   3.489   7.617  1.3147 -0.7857  0.2920
  669TIP3   OH223565   4.241   3.769   7.194  0.5722  0.2143 -0.5352
  669TIP3    H123566   4.216   3.762   7.286 -0.7975  1.6585 -0.7559
  669TIP3    H223567   4.162   3.745   7.145  0.7702  1.0466 -1.3077
  670TIP3   OH223568   3.040   1.117   8.710  0.1735  0.7058  0.0898
  670TIP3    H123569   2.976   1.134   8.641  1.4702  0.4825 -1.2171
  670TIP3    H223570   2.988   1.113   8.791 -1.3489  1.2214 -0.8243
  671TIP3   OH223571   0.914   1.779   8.413  0.0063 -0.3788 -0.2435
  671TIP3    H123572   0.822   1.754   8.416 -1.0094  2.8866 -0.3341
  671TIP3    H223573   0.935   1.783   8.320  0.1072 -0.5536 -0.2309
  672TIP3   OH223574   2.721   1.913   8.967 -0.3061  0.3344  0.7207
  672TIP3    H123575   2.741   1.833   9.016 -2.0023 -1.6038 -1.5385
  672TIP3    H223576   2.692   1.975   9.034  0.0010 -1.2775  2.4399
  673TIP3   OH223577   4.591   6.570   1.120 -0.4463 -0.1450  0.0745
  673TIP3    H123578   4.610   6.663   1.122  0.1047 -0.0966 -2.8438
  673TIP3    H223579   4.511   6.562   1.067 -0.7378 -1.3172  0.6378
  674TIP3   OH223580   5.338   4.781   8.317 -0.0911 -0.3967 -0.0930
  674TIP3    H123581   5.255   4.765   8.271  0.0103 -1.3624  0.0399
  674TIP3    H223582   5.389   4.702   8.302  0.6337  0.0101  0.2118
  675TIP3   OH223583   2.935   5.998   7.563  0.3490  0.1374  0.0250
  675TIP3    H123584   2.975   6.015   7.478 -1.1757 -2.3065 -1.3251
  675TIP3    H223585   2.843   6.020   7.551  0.0614 -0.4862  0.9461
  676TIP3   OH223586   4.231   6.567   7.705 -0.4208  0.0499 -0.2987
  676TIP3    H123587   4.176   6.604   7.636 -0.6533  0.8135  0.2829
  676TIP3    H223588   4.297   6.633   7.721  1.2646 -1.2185 -1.6124
  677TIP3   OH223589   2.704   1.571   1.711  0.5583 -0.1670 -0.0894
  677TIP3    H123590   2.620   1.584   1.753  0.9664  1.8296  0.2124
  677TIP3    H223591   2.746   1.501   1.760  0.1964  0.7335  1.5587
  678TIP3   OH223592   1.157   4.461   0.569  0.1541 -0.0586  0.0082
  678TIP3    H123593   1.068   4.426   0.565  0.8998 -2.4468  1.9799
  678TIP3    H223594   1.186   4.444   0.659  2.2097  1.7387 -0.2222
  679TIP3   OH223595   1.518   1.624   0.551 -0.2208  0.0855  0.2408
  679TIP3    H123596   1.516   1.695   0.488  0.7869  0.8471  1.0392
  679TIP3    H223597   1.430   1.586   0.547 -0.5212  0.8555 -0.7667
  680TIP3   OH223598   3.227   3.052   7.773 -0.3075 -0.0319  0.4033
  680TIP3    H123599   3.252   3.086   7.859 -0.4094 -2.7076  1.5775
  680TIP3    H223600   3.159   2.987   7.791  0.8670 -1.9251 -1.4742
  681TIP3   OH223601   0.063   5.630   7.792  0.3820 -0.6453 -0.5587
  681TIP3    H123602   0.057   5.725   7.787  0.2975 -0.5697  0.6410
  681TIP3    H223603  -0.024   5.599   7.769 -0.4211 -0.2754  1.7593
  682TIP3   OH223604   3.355   4.766   8.283  0.3458 -0.0776  0.2734
  682TIP3    H123605   3.261   4.773   8.268  0.5401  0.4305 -0.7604
  682TIP3    H223606   3.364   4.760   8.378 -0.7400 -0.3611  0.3641
  683TIP3   OH223607   6.525   4.793   7.846 -0.1279  0.2136  0.0920
  683TIP3    H123608   6.597   4.759   7.900  0.3337  0.8520 -0.1044
  683TIP3    H223609   6.480   4.715   7.814  2.0087 -0.3590 -1.8442
  684TIP3   OH223610   2.780   3.300   8.201  0.0289 -0.0179 -0.0225
  684TIP3    H123611   2.799   3.389   8.169  0.1823  0.1450  0.5156
  684TIP3    H223612   2.781   3.308   8.296 -2.6439 -0.0180  0.0667
  685TIP3   OH223613   4.451   4.082   0.822 -0.1563 -0.5840 -0.5099
  685TIP3    H123614   4.511   4.013   0.850  0.5377  0.2283  0.1061
  685TIP3    H223615   4.427   4.126   0.904  1.5344  1.5565 -1.0576
  686TIP3   OH223616   1.437   6.060   0.239  0.7627 -0.3888  0.1963
  686TIP3    H123617   1.350   6.100   0.244  1.0258  0.1022  0.9422
  686TIP3    H223618   1.497   6.135   0.232  1.3358 -0.5622  2.4969
  687TIP3   OH223619   4.250   0.312   7.265 -0.6021  0.4625  0.7655
  687TIP3    H123620   4.208   0.398   7.261 -1.0455  0.2209  0.0527
  687TIP3    H223621   4.233   0.272   7.180  0.2443 -0.0396  0.8106
  688TIP3   OH223622   1.604   6.727   6.818  0.0681  0.6657 -0.2006
  688TIP3    H123623   1.583   6.818   6.799  0.3143  0.4677 -1.5160
  688TIP3    H223624   1.631   6.727   6.910 -0.0172  1.9008 -0.1632
  689TIP3   OH223625   0.890   6.337   1.482 -0.3870 -0.5955  0.0267
  689TIP3    H123626   0.916   6.427   1.459 -1.3443 -0.8969 -2.5572
  689TIP3    H223627   0.942   6.281   1.424 -1.4033 -1.5743  0.0300
  690TIP3   OH223628   6.436   4.542   7.847  0.6594 -0.0983 -0.0033
  690TIP3    H123629   6.358   4.589   7.876 -0.3225 -1.3142 -0.5770
  690TIP3    H223630   6.407   4.489   7.773  2.6511  1.4237 -2.0443
  691TIP3   OH223631   6.199   5.087   8.022  0.3879 -0.2758 -0.1849
  691TIP3    H123632   6.290   5.073   7.995  0.1830 -0.6585 -0.7190
  691TIP3    H223633   6.204   5.143   8.099  0.9968  1.2114 -1.2641
  692TIP3   OH223634   2.322   0.507   0.764  0.2438 -0.3362  0.2304
  692TIP3    H123635   2.368   0.447   0.822  0.0065 -0.5015  0.2505
  692TIP3    H223636   2.374   0.507   0.684  1.8855  1.6880  1.2187
  693TIP3   OH223637   0.439   5.073   0.928  0.0491  0.2939 -0.1656
  693TIP3    H123638   0.347   5.048   0.933 -0.5780  2.4459  0.0318
  693TIP3    H223639   0.454   5.092   0.835  0.3900 -0.3411 -0.2451
  694TIP3   OH223640   2.471   0.999   1.570  0.4459 -0.4854  0.0084
  694TIP3    H123641   2.447   1.060   1.501 -0.1698 -0.7125  0.0183
  694TIP3    H223642   2.529   0.936   1.527  1.1721  0.1611  0.0253
  695TIP3   OH223643   0.585   1.979   7.733  0.8721  0.5716 -0.5187
  695TIP3    H123644   0.563   2.037   7.806 -0.4384 -0.6588  0.1083
  695TIP3    H223645   0.633   2.035   7.671  0.3350  2.1101  0.4050
  696TIP3   OH223646   6.058   4.724   8.836  0.3010  0.3106  0.0259
  696TIP3    H123647   5.998   4.775   8.890  1.4506  1.8701 -0.0798
  696TIP3    H223648   6.125   4.694   8.897 -0.2280 -0.8814  0.0381
  697TIP3   OH223649   5.730   3.480   0.204 -0.0729 -0.2360  0.7187
  697TIP3    H123650   5.757   3.465   0.113 -2.6574 -0.8076 -0.0417
  697TIP3    H223651   5.753   3.398   0.249  1.3949  0.1203  0.6585
  698TIP3   OH223652   3.894   5.007   1.030  0.1331  0.2664  0.4779
  698TIP3    H123653   3.939   5.044   1.106  1.2138  0.8406 -0.4058
  698TIP3    H223654   3.956   4.945   0.993 -1.6243 -2.5791  1.9004
  699TIP3   OH223655   6.258   3.409   7.944 -0.0755  0.3122 -0.2537
  699TIP3    H123656   6.303   3.482   7.901 -1.9984  1.0925 -1.0424
  699TIP3    H223657   6.165   3.430   7.936 -0.6739 -2.0397 -0.1303
  700TIP3   OH223658   2.525   5.762   0.159 -0.1245 -0.6647  0.2125
  700TIP3    H123659   2.450   5.741   0.102 -1.5360  1.9817  0.9531
  700TIP3    H223660   2.590   5.800   0.100  1.5371 -4.5083 -0.7442
  701TIP3   OH223661   4.271   3.708   8.484 -0.4744  0.0991 -0.6440
  701TIP3    H123662   4.241   3.799   8.483 -1.2484 -0.1459 -1.7058
  701TIP3    H223663   4.360   3.713   8.516 -0.9361  1.0896  0.5712
  702TIP3   OH223664   1.959   0.938   7.229  0.4998 -0.4597 -0.0864
  702TIP3    H123665   1.966   0.877   7.155 -1.5291 -1.4901  0.4967
  702TIP3    H223666   1.871   0.975   7.220  0.9608  0.8636  0.7345
  703TIP3   OH223667   1.824   1.904   2.509  0.5976  0.0592 -0.9913
  703TIP3    H123668   1.903   1.914   2.562 -0.0760  0.8053 -0.0803
  703TIP3    H223669   1.814   1.809   2.498  0.4105 -0.1667  0.8021
  704TIP3   OH223670   5.955   1.308   1.459  0.1088 -0.6570 -0.1121
  704TIP3    H123671   6.049   1.292   1.468  0.0457 -0.4862  0.9148
  704TIP3    H223672   5.917   1.276   1.540 -0.4795  1.1140  0.3609
  705TIP3   OH223673   1.816   1.851   7.493 -0.3807  0.2911  0.1045
  705TIP3    H123674   1.811   1.755   7.489  0.3259  0.2311  0.5606
  705TIP3    H223675   1.907   1.869   7.516 -0.4558  1.0840 -0.2007
  706TIP3   OH223676   2.245   2.550   2.135  0.1190  0.2761  0.0727
  706TIP3    H123677   2.199   2.628   2.165  0.4208  0.3960  0.2251
  706TIP3    H223678   2.266   2.502   2.215 -1.0621 -0.5397 -0.0736
  707TIP3   OH223679   4.547   5.728   0.962 -0.3675 -0.0027 -0.2329
  707TIP3    H123680   4.504   5.689   0.885  2.7201 -2.6297 -0.8677
  707TIP3    H223681   4.507   5.684   1.037 -0.1023 -1.0382 -0.6817
  708TIP3   OH223682   0.056   3.543   1.301 -0.0950 -0.3428 -0.0485
  708TIP3    H123683  -0.036   3.516   1.294 -0.8159  1.5298  1.3231
  708TIP3    H223684   0.105   3.471   1.262 -2.2188 -0.5197 -2.7005
  709TIP3   OH223685   5.131   3.458   1.353 -0.8009 -0.4243  0.0608
  709TIP3    H123686   5.117   3.454   1.258  0.8945 -0.1210 -0.2304
  709TIP3    H223687   5.055   3.507   1.386 -0.4200  1.2555 -1.4022
  710TIP3   OH223688   4.102   5.506   0.514 -1.0494  0.0252 -0.7952
  710TIP3    H123689   4.093   5.601   0.511  0.1850  0.1430 -1.8248
  710TIP3    H223690   4.181   5.491   0.566 -1.4429 -0.4706 -0.3223
  711TIP3   OH223691   3.099   2.583   7.922  0.6805  0.5467  0.0360
  711TIP3    H123692   3.117   2.636   7.999  0.7056  0.9491 -0.2466
  711TIP3    H223693   3.123   2.638   7.848 -0.2045  0.5074 -0.2949
  712TIP3   OH223694   6.127   4.502   0.090  0.1666 -0.4839 -0.5871
  712TIP3    H123695   6.187   4.436   0.055  0.1388 -0.8600  0.0593
  712TIP3    H223696   6.182   4.579   0.106  0.0585 -0.0505 -2.0882
  713TIP3   OH223697   1.029   5.187   6.646 -0.0993 -0.0111  0.3405
  713TIP3    H123698   0.951   5.243   6.643 -0.2190 -0.1635  0.5996
  713TIP3    H223699   1.017   5.133   6.725  0.5370  0.3607  0.6997
  714TIP3   OH223700   2.551   4.414   8.039  0.1714  0.4737 -0.0598
  714TIP3    H123701   2.644   4.392   8.039 -0.1727 -1.2626 -1.4235
  714TIP3    H223702   2.528   4.421   8.131  1.2003 -1.3220  0.3765
  715TIP3   OH223703   0.251   4.593   8.418  0.3697 -0.2289 -1.0240
  715TIP3    H123704   0.272   4.596   8.511 -1.0622  0.2278 -0.7025
  715TIP3    H223705   0.196   4.515   8.408 -0.7654  0.5754 -1.2002
  716TIP3   OH223706   0.726   3.119   2.061 -0.5993  0.1803 -0.7678
  716TIP3    H123707   0.674   3.045   2.031  0.2757 -0.2667 -1.2098
  716TIP3    H223708   0.816   3.087   2.063 -0.5019  0.4750  1.4863
  717TIP3   OH223709   4.711   2.082   7.815  0.0953  0.3104  0.3415
  717TIP3    H123710   4.729   2.012   7.879  1.7116  0.9402  0.6213
  717TIP3    H223711   4.797   2.112   7.788 -0.5774  0.9692 -1.1685
  718TIP3   OH223712   6.292   4.747   0.046  0.5398 -0.2220 -0.2879
  718TIP3    H123713   6.377   4.769   0.084  0.1652 -0.2923  0.6202
  718TIP3    H223714   6.238   4.825   0.063  0.1619 -0.5366 -0.0340
  719TIP3   OH223715   1.772   1.631   7.321 -0.3063 -0.5996  0.3121
  719TIP3    H123716   1.751   1.695   7.253 -0.7174  1.6343  2.3807
  719TIP3    H223717   1.695   1.574   7.325  0.0054 -1.2127 -1.4769
  720TIP3   OH223718   3.100   5.266   6.783  0.5436  0.0447  0.4823
  720TIP3    H123719   3.167   5.205   6.814 -0.7830 -2.9391 -1.9471
  720TIP3    H223720   3.054   5.294   6.862  3.1337  0.4117  1.9775
  721TIP3   OH223721   0.520   1.310   8.051 -0.0466 -0.3002 -0.3250
  721TIP3    H123722   0.434   1.313   8.011 -0.6862 -2.8555  0.6799
  721TIP3    H223723   0.503   1.294   8.144  1.4844  1.1159  0.2433
  722TIP3   OH223724   0.024   2.877   7.554 -0.0687  0.1264 -0.5084
  722TIP3    H123725   0.104   2.930   7.553  0.9488 -1.3441 -0.3670
  722TIP3    H223726  -0.015   2.890   7.468  0.1769  1.0677 -0.4863
  723TIP3   OH223727   2.405   2.771   7.194  0.6577 -0.4650 -0.8000
  723TIP3    H123728   2.419   2.825   7.272  1.5177 -0.1564 -1.1492
  723TIP3    H223729   2.347   2.701   7.222 -0.6624  0.7556 -0.3821
  724TIP3   OH223730   4.655   1.338   7.980  0.1495 -0.1730  0.3579
  724TIP3    H123731   4.560   1.351   7.978  0.0723 -0.7661 -0.1674
  724TIP3    H223732   4.666   1.245   8.000  0.6206 -0.1507  0.2100
  725TIP3   OH223733   3.656   4.878   1.022 -1.1008  0.0253  0.1676
  725TIP3    H123734   3.596   4.937   1.067 -0.1370  1.6409 -0.5650
  725TIP3    H223735   3.731   4.933   1.000 -1.2138 -0.8114 -2.7439
  726TIP3   OH223736   3.965   1.497   1.789  0.3436 -0.1594 -0.0931
  726TIP3    H123737   3.898   1.529   1.729 -0.3756  3.0080  2.1707
  726TIP3    H223738   4.047   1.502   1.739 -0.4703  0.4822 -1.4007
  727TIP3   OH223739   2.334   4.328   7.866 -0.5326 -0.3152  0.2208
  727TIP3    H123740   2.410   4.345   7.922  1.1292 -1.6160 -1.4836
  727TIP3    H223741   2.357   4.368   7.782 -0.3352 -3.1936 -1.2291
  728TIP3   OH223742   2.594   2.421   8.273  0.0020 -0.1120 -0.0854
  728TIP3    H123743   2.609   2.481   8.200  0.3407 -1.2842 -0.9982
  728TIP3    H223744   2.538   2.471   8.333  0.1495  1.0608 -0.8790
  729TIP3   OH223745   3.118   1.320   1.908  0.0366 -0.0477 -0.2564
  729TIP3    H123746   3.130   1.255   1.977  0.0130 -0.2975 -0.4876
  729TIP3    H223747   3.193   1.378   1.917 -0.7003  0.7688  0.8987
  730TIP3   OH223748   1.155   6.168   0.540 -0.3668 -0.2415  0.1682
  730TIP3    H123749   1.145   6.147   0.447 -0.6201 -2.1197  0.5961
  730TIP3    H223750   1.223   6.109   0.571  0.0079  0.6591  1.1002
  731TIP3   OH223751   6.508   0.596   7.472  0.0084 -0.2494  0.1432
  731TIP3    H123752   6.498   0.607   7.377  1.2925  1.1154  0.1358
  731TIP3    H223753   6.419   0.590   7.505 -0.4493 -0.9663 -1.1778
  732TIP3   OH223754   5.949   0.626   2.239 -0.2387  0.1127  0.5239
  732TIP3    H123755   5.941   0.535   2.266 -0.6663  0.4688  1.6494
  732TIP3    H223756   6.028   0.629   2.186  0.0675 -0.8076  0.9241
  733TIP3   OH223757   4.380   6.714   8.291 -0.3326  0.2572 -0.2346
  733TIP3    H123758   4.307   6.660   8.259  0.6196 -1.6763  0.6872
  733TIP3    H223759   4.337   6.789   8.332 -1.9376 -1.2979  1.1661
  734TIP3   OH223760   1.032   0.421   0.427  0.1628  0.3165  0.1881
  734TIP3    H123761   1.070   0.469   0.501  2.9727  1.0947 -1.6164
  734TIP3    H223762   1.045   0.479   0.352  1.8174 -2.3403 -1.7427
  735TIP3   OH223763   2.214   2.907   7.760  0.2167 -0.5665  0.3180
  735TIP3    H123764   2.200   2.996   7.729 -1.2926  0.3672  3.3203
  735TIP3    H223765   2.308   2.891   7.747  0.3524  1.1213 -1.0378
  736TIP3   OH223766   2.923   0.911   8.014 -0.3733  0.5791 -0.2277
  736TIP3    H123767   2.890   0.982   8.069 -1.0952 -0.3293  0.5489
  736TIP3    H223768   2.866   0.837   8.035 -0.3638  0.0828 -1.8755
  737TIP3   OH223769   4.269   1.951   7.309 -0.4276  0.9856  0.3344
  737TIP3    H123770   4.360   1.922   7.316 -0.3940  0.9385 -0.2080
  737TIP3    H223771   4.234   1.902   7.234 -1.2919  0.0240  1.3389
  738TIP3   OH223772   2.863   5.714   8.464 -0.6208  0.0285 -0.0166
  738TIP3    H123773   2.864   5.776   8.537 -1.2637 -0.3155  0.2919
  738TIP3    H223774   2.882   5.767   8.387  0.7138  0.2968  0.4630
  739TIP3   OH223775   0.280   0.356   6.929 -0.3245  0.3827  0.1142
  739TIP3    H123776   0.235   0.314   6.856 -1.3982  0.2977  0.8058
  739TIP3    H223777   0.352   0.298   6.951 -2.0041 -1.3558  1.3126
  740TIP3   OH223778   2.470   1.985   8.271 -0.2822  0.2337  0.1912
  740TIP3    H123779   2.503   2.033   8.195  0.1993  0.6468  0.6508
  740TIP3    H223780   2.379   2.014   8.280 -0.5193 -0.2586 -0.5720
  741TIP3   OH223781   4.947   5.028   0.698 -0.5608 -0.8604  0.6703
  741TIP3    H123782   4.911   5.114   0.722  0.6243 -0.3653  0.7228
  741TIP3    H223783   4.927   5.020   0.604  0.9972  0.3614  0.1849
  742TIP3   OH223784   5.026   0.372   7.844 -0.1208  0.4117  0.2153
  742TIP3    H123785   5.026   0.465   7.819  0.5074  0.3250 -0.1276
  742TIP3    H223786   5.103   0.363   7.901  1.1698 -0.3523 -1.5442
  743TIP3   OH223787   4.300   3.469   1.993  0.3347  0.1832  0.2809
  743TIP3    H123788   4.248   3.407   2.044  2.2928 -1.3843  0.5021
  743TIP3    H223789   4.335   3.531   2.058 -0.4072  0.6263  0.2657
  744TIP3   OH223790   5.252   3.673   2.603  0.2035  0.5072 -0.4728
  744TIP3    H123791   5.285   3.588   2.632  0.8036  0.7399 -0.4694
  744TIP3    H223792   5.317   3.736   2.633 -0.0080  0.9229 -0.8783
  745TIP3   OH223793   4.434   3.701   8.195  0.4548  0.6308  0.6759
  745TIP3    H123794   4.501   3.654   8.145 -0.5301 -0.1483  0.0791
  745TIP3    H223795   4.485   3.750   8.260  1.5906 -0.2250  0.4787
  746TIP3   OH223796   5.043   5.396   0.556  0.4983 -0.7066 -0.3687
  746TIP3    H123797   4.952   5.365   0.550 -0.4124  1.7155 -0.5704
  746TIP3    H223798   5.049   5.435   0.643  1.3611 -0.8685 -0.3537
  747TIP3   OH223799   6.740   4.954   6.843 -0.2308 -0.3829 -0.1784
  747TIP3    H123800   6.750   5.044   6.810  0.1843 -0.9360 -1.6420
  747TIP3    H223801   6.821   4.910   6.820  0.6751 -0.5109  2.8326
  748TIP3   OH223802   5.581   4.870   0.221  0.2836  0.9631  0.0126
  748TIP3    H123803   5.574   4.846   0.314 -1.1373  2.7028  0.4277
  748TIP3    H223804   5.673   4.892   0.208  0.4678  0.8704  1.0664
  749TIP3   OH223805   6.715   4.264   1.057  0.3703  0.1900 -0.0259
  749TIP3    H123806   6.757   4.263   0.970  0.9936 -3.0580  0.1849
  749TIP3    H223807   6.788   4.272   1.118  0.4118 -1.7506  0.2405
  750TIP3   OH223808   0.280   4.716   0.312 -0.7039 -0.1438 -0.4779
  750TIP3    H123809   0.185   4.726   0.319 -0.7769 -1.4890  1.1934
  750TIP3    H223810   0.292   4.655   0.239 -1.2595 -1.2829  0.3502
  751TIP3   OH223811   6.607   3.520   2.130  0.0749  0.0194  0.4505
  751TIP3    H123812   6.575   3.465   2.201 -0.4265  1.7306  1.6095
  751TIP3    H223813   6.684   3.563   2.167 -0.4653  1.2849  0.1380
  752TIP3   OH223814   5.583   0.498   8.728  0.2779 -0.0520  0.1384
  752TIP3    H123815   5.549   0.587   8.735  0.3746 -0.1160  1.8080
  752TIP3    H223816   5.560   0.470   8.639 -0.4070  1.3595 -0.1529
  753TIP3   OH223817   0.853   3.683   2.070 -0.3905 -0.3928 -0.1574
  753TIP3    H123818   0.767   3.716   2.097  0.2846  0.3359  1.2341
  753TIP3    H223819   0.880   3.625   2.141  1.1533  1.0267  0.4863
  754TIP3   OH223820   4.034   0.398   1.551 -0.0796  0.0218  1.2320
  754TIP3    H123821   3.941   0.414   1.563 -0.0471  0.1195  1.3519
  754TIP3    H223822   4.066   0.473   1.501 -0.2336 -0.4296  0.4353
  755TIP3   OH223823   5.590   6.550   0.831 -0.2679  0.7199  0.0668
  755TIP3    H123824   5.625   6.478   0.883  0.4545  0.9757 -0.0557
  755TIP3    H223825   5.565   6.616   0.895 -1.9386 -0.0491  0.2535
  756TIP3   OH223826   2.056   1.987   0.083  0.3197 -1.1745  0.0403
  756TIP3    H123827   2.047   1.985  -0.012  2.5898 -1.5341 -0.2070
  756TIP3    H223828   1.990   1.925   0.115  0.6465 -2.3158 -1.4009
  757TIP3   OH223829   6.410   5.362   0.688 -0.2255  0.6518 -0.3662
  757TIP3    H123830   6.441   5.302   0.756  0.4450  3.0674  1.6004
  757TIP3    H223831   6.481   5.365   0.624 -0.4709 -0.9635 -0.7461
  758TIP3   OH223832   0.761   0.350   1.475 -0.4997  0.1553  0.2090
  758TIP3    H123833   0.837   0.341   1.532 -0.5395 -1.5611  0.0273
  758TIP3    H223834   0.696   0.289   1.510 -0.6669 -0.6697 -1.4107
  759TIP3   OH223835   6.303   6.436   0.632 -0.2274  0.0420 -0.0005
  759TIP3    H123836   6.298   6.481   0.717 -1.3039  0.0226 -0.0340
  759TIP3    H223837   6.388   6.392   0.633  0.5570  1.4917  0.3276
  760TIP3   OH223838   2.502   3.955   0.360  0.5510  0.0857  0.1071
  760TIP3    H123839   2.510   3.870   0.403  0.6426  0.3160  0.5555
  760TIP3    H223840   2.462   4.012   0.427  1.5465  0.6890  0.2074
  761TIP3   OH223841   2.521   4.260   8.792 -0.5321 -0.4638  0.2102
  761TIP3    H123842   2.524   4.355   8.783 -1.1686 -0.5038 -0.5231
  761TIP3    H223843   2.612   4.234   8.804 -0.0880  0.0531 -1.7381
  762TIP3   OH223844   5.417   0.181   8.370 -0.0479 -0.2440  0.4255
  762TIP3    H123845   5.440   0.151   8.458 -0.1778 -0.2556  0.4552
  762TIP3    H223846   5.483   0.141   8.313  0.2948  0.1147  0.5684
  763TIP3   OH223847   1.579   3.076   1.372  0.3289  0.2590  0.0924
  763TIP3    H123848   1.644   3.015   1.405 -0.4531  0.1818  1.6052
  763TIP3    H223849   1.511   3.021   1.335  0.4290  0.2775 -0.1174
  764TIP3   OH223850   0.123   5.436   7.454 -0.1651 -0.0498 -0.2825
  764TIP3    H123851   0.158   5.396   7.374  1.7473 -0.0849  0.5277
  764TIP3    H223852   0.194   5.429   7.517 -1.5756  0.1484  1.3887
  765TIP3   OH223853   1.083   0.996   8.189  0.1003 -0.3668  0.1927
  765TIP3    H123854   1.120   0.955   8.268 -0.7783  0.2198  0.9285
  765TIP3    H223855   0.992   1.012   8.212  0.3049  1.5849 -0.2382
  766TIP3   OH223856   6.727   5.578   8.959  0.1285 -0.1377 -0.4173
  766TIP3    H123857   6.761   5.643   9.020  0.0383 -1.4741  1.1449
  766TIP3    H223858   6.727   5.621   8.874  1.1052  1.5069  0.3801
  767TIP3   OH223859   6.602   4.083   8.177 -0.3892 -0.2353  0.2453
  767TIP3    H123860   6.676   4.135   8.144 -2.3292  2.8324  0.3697
  767TIP3    H223861   6.633   3.993   8.172  2.8795  0.7904 -0.9205
  768TIP3   OH223862   0.678   1.482   7.412 -0.0513 -0.3721  0.7655
  768TIP3    H123863   0.695   1.481   7.507  0.5803 -1.8828  0.6679
  768TIP3    H223864   0.664   1.390   7.390 -2.2153  0.1624 -0.2806
  769TIP3   OH223865   0.609   3.982   1.195 -0.0379 -0.6090  0.6110
  769TIP3    H123866   0.638   4.063   1.152 -0.9573 -1.1077 -1.0496
  769TIP3    H223867   0.643   3.912   1.139 -2.8887 -1.2438 -0.4605
  770TIP3   OH223868   2.588   2.148   8.096 -0.1150 -0.4846  0.3131
  770TIP3    H123869   2.528   2.221   8.086  0.2139 -0.0472  1.3756
  770TIP3    H223870   2.594   2.109   8.009 -0.8684  0.2981 -0.0980
  771TIP3   OH223871   3.153   6.142   8.254  0.3933 -0.5052 -0.1503
  771TIP3    H123872   3.224   6.206   8.256  1.5668 -1.7697  0.0943
  771TIP3    H223873   3.083   6.186   8.207  1.0959  1.0221  0.1616
  772TIP3   OH223874   5.217   1.601   6.300  0.0898  0.1326  0.1716
  772TIP3    H123875   5.176   1.670   6.352  0.6210 -0.2964  1.1708
  772TIP3    H223876   5.199   1.520   6.348  0.0048 -0.3610 -0.6675
  773TIP3   OH223877   4.387   2.517   7.554  0.2640 -0.2507 -0.0965
  773TIP3    H123878   4.416   2.517   7.645 -0.1369 -1.7990  0.0641
  773TIP3    H223879   4.346   2.431   7.542 -0.6094  0.3284 -1.4531
  774TIP3   OH223880   3.116   3.569   7.439  0.5714  0.7119 -0.1773
  774TIP3    H123881   3.117   3.531   7.528  0.2696  0.9221 -0.0837
  774TIP3    H223882   3.024   3.589   7.423  0.6128  0.5739 -0.5830
  775TIP3   OH223883   6.183   4.366   8.067 -0.0251 -0.3470 -0.3567
  775TIP3    H123884   6.132   4.361   8.148  1.3625 -0.1259  0.5575
  775TIP3    H223885   6.172   4.457   8.038 -1.4073 -0.7013 -1.0435
  776TIP3   OH223886   1.429   6.079   0.611  0.2744 -0.3291 -0.2670
  776TIP3    H123887   1.477   6.126   0.543  0.0785 -1.6762 -1.3787
  776TIP3    H223888   1.450   5.986   0.596 -2.4619 -0.9598 -0.6756
  777TIP3   OH223889   2.340   2.577   0.729 -0.0303 -0.2189  0.6891
  777TIP3    H123890   2.416   2.620   0.691 -0.2365 -0.5367 -0.1090
  777TIP3    H223891   2.294   2.538   0.654 -0.6736 -0.5089  1.2180
  778TIP3   OH223892   3.653   3.530   1.657 -0.1831  0.0498  0.4147
  778TIP3    H123893   3.626   3.495   1.742  0.9549 -0.6391  0.5092
  778TIP3    H223894   3.642   3.625   1.665  0.6069  0.0633  1.5939
  779TIP3   OH223895   2.622   6.303   8.862  0.0627 -0.9967  0.0093
  779TIP3    H123896   2.688   6.241   8.891 -0.8090 -2.1890 -0.4286
  779TIP3    H223897   2.547   6.248   8.838 -0.7085  0.2253 -0.4962
  780TIP3   OH223898   2.906   1.283   8.526  0.1093 -0.2238  0.8370
  780TIP3    H123899   2.954   1.351   8.573  1.8249 -0.4407 -0.4728
  780TIP3    H223900   2.824   1.325   8.500  1.1953  1.4416 -0.0793
  781TIP3   OH223901   4.956   3.416   0.184  0.7316  0.0651  0.0301
  781TIP3    H123902   5.015   3.340   0.188  0.4603 -0.1457  0.0647
  781TIP3    H223903   4.961   3.455   0.271  2.3710  1.2361 -0.5434
  782TIP3   OH223904   4.577   2.307   1.767 -0.3648  0.3247 -0.0669
  782TIP3    H123905   4.660   2.298   1.814  1.0750  0.1834 -2.4457
  782TIP3    H223906   4.539   2.219   1.768 -1.1232  0.6247  2.0084
  783TIP3   OH223907   3.122   4.916   8.470 -0.3940 -0.3039 -0.1495
  783TIP3    H123908   3.105   4.861   8.393  2.1724  2.1688 -2.7343
  783TIP3    H223909   3.065   4.992   8.458 -0.1615 -0.0059  0.5719
  784TIP3   OH223910   5.179   1.653   8.845  0.3235 -0.2201 -0.8025
  784TIP3    H123911   5.263   1.606   8.843  0.3423 -0.1775 -1.1147
  784TIP3    H223912   5.181   1.707   8.767  0.9161  1.3764  0.2662
  785TIP3   OH223913   1.749   3.051   0.407 -0.4804 -0.2710  0.1523
  785TIP3    H123914   1.843   3.040   0.396 -0.5793 -0.8217 -0.1596
  785TIP3    H223915   1.737   3.059   0.502 -0.1227 -0.1877  0.1931
  786TIP3   OH223916   4.729   2.929   8.278 -0.3430  0.2223  0.0761
  786TIP3    H123917   4.645   2.967   8.305 -0.7692 -1.8484  1.9925
  786TIP3    H223918   4.734   2.847   8.327  2.5716  0.0144 -0.4355
  787TIP3   OH223919   6.712   1.414   1.058 -0.2626  0.3122 -0.2893
  787TIP3    H123920   6.776   1.417   1.129  0.4300  0.3261 -0.9010
  787TIP3    H223921   6.657   1.491   1.073 -0.5880 -0.0886  0.6460
  788TIP3   OH223922   4.772   0.038   7.890  0.4221 -0.3322 -0.1948
  788TIP3    H123923   4.756   0.074   7.977 -0.6558 -0.2704 -0.3951
  788TIP3    H223924   4.689   0.052   7.844  1.8570  2.3953 -2.2111
  789TIP3   OH223925   1.181   4.444   8.068 -0.0951  0.2215  0.2732
  789TIP3    H123926   1.129   4.376   8.025  0.0330  0.4239 -0.2056
  789TIP3    H223927   1.233   4.483   7.998  1.6205 -0.7872  0.9393
  790TIP3   OH223928   0.161   0.180   7.144 -0.8191 -0.1279 -0.5806
  790TIP3    H123929   0.233   0.198   7.204  0.4188 -1.6555 -1.5443
  790TIP3    H223930   0.174   0.242   7.072  0.4168 -1.3256 -1.4350
  791TIP3   OH223931   6.337   2.159   1.890  0.2254 -0.1147 -0.4875
  791TIP3    H123932   6.250   2.149   1.851 -0.1318  0.0034  0.2767
  791TIP3    H223933   6.329   2.126   1.979  0.7009  0.8315 -0.0722
  792TIP3   OH223934   3.355   2.353   1.839  0.4531 -0.0657 -0.2316
  792TIP3    H123935   3.388   2.271   1.875  0.8928 -0.8664 -2.3353
  792TIP3    H223936   3.433   2.404   1.818  0.2266  0.1863 -0.4735
  793TIP3   OH223937   1.676   6.197   0.268 -0.2129  0.2063  0.4008
  793TIP3    H123938   1.653   6.275   0.217  0.1930  0.2374  0.2632
  793TIP3    H223939   1.674   6.227   0.359 -2.9788 -0.3347  0.6189
  794TIP3   OH223940   1.423   6.541   1.121  0.1890  0.2907 -0.2150
  794TIP3    H123941   1.489   6.562   1.187 -0.0569  0.0341  0.1174
  794TIP3    H223942   1.340   6.546   1.169 -0.0038  0.2912 -0.5532
  795TIP3   OH223943   6.702   1.964   1.622 -0.0267 -0.7132  0.1826
  795TIP3    H123944   6.715   2.033   1.558 -1.5190 -0.3942  0.1855
  795TIP3    H223945   6.671   2.009   1.701  2.9152 -0.9470  1.6017
  796TIP3   OH223946   2.536   0.265   1.956 -0.1354 -0.1715 -0.1829
  796TIP3    H123947   2.619   0.221   1.938 -1.0589 -1.8327 -0.5238
  796TIP3    H223948   2.558   0.358   1.950  1.5816 -0.5623 -0.8190
  797TIP3   OH223949   2.911   5.343   0.892  0.0961 -0.0169 -0.1411
  797TIP3    H123950   2.906   5.364   0.799  0.4911  2.5964  0.3520
  797TIP3    H223951   2.997   5.302   0.903  0.8152  1.2742 -0.6946
  798TIP3   OH223952   0.246   1.666   7.617 -0.3743 -0.6988  0.1842
  798TIP3    H123953   0.228   1.689   7.708 -1.6172 -1.4398  0.1448
  798TIP3    H223954   0.284   1.746   7.579  0.2817 -0.4292  1.3639
  799TIP3   OH223955   1.196   0.374   2.429 -0.5399  0.5461 -0.2365
  799TIP3    H123956   1.203   0.469   2.420  1.6214  0.8395  2.9077
  799TIP3    H223957   1.273   0.340   2.385 -0.4491  0.3889  0.0438
  800TIP3   OH223958   5.211   2.386   0.034 -0.0623  0.3587  0.3988
  800TIP3    H123959   5.268   2.357   0.105 -0.9518 -0.0079  0.9834
  800TIP3    H223960   5.209   2.481   0.043  0.5388  0.3844  0.3030
  801TIP3   OH223961   5.358   5.908   7.278 -0.0483  0.0215 -0.4994
  801TIP3    H123962   5.441   5.935   7.238  1.1931  0.7612  2.2732
  801TIP3    H223963   5.305   5.987   7.279  0.8840  0.6977  1.3596
  802TIP3   OH223964   5.934   1.942   7.163  0.6114  0.1378  0.1859
  802TIP3    H123965   5.984   1.985   7.232  0.4495  0.9958 -0.2168
  802TIP3    H223966   6.001   1.901   7.107  0.6907 -3.4969  2.6028
  803TIP3   OH223967   6.351   2.342   8.949  0.6865  0.3694  0.8409
  803TIP3    H123968   6.415   2.314   8.883  1.8634  1.7472  1.3394
  803TIP3    H223969   6.369   2.286   9.025  0.1627 -0.3629  0.4483
  804TIP3   OH223970   5.633   4.491   0.879 -0.3873 -0.1337  0.3922
  804TIP3    H123971   5.592   4.577   0.869 -3.0046 -1.2150  0.7529
  804TIP3    H223972   5.687   4.499   0.958  1.2499  1.7491 -0.8520
  805TIP3   OH223973   3.048   2.129   7.350 -0.1434 -0.7903  0.3567
  805TIP3    H123974   3.128   2.099   7.393  0.1612 -0.8895 -0.2709
  805TIP3    H223975   3.062   2.223   7.335 -0.3776 -0.6893  0.7447
  806TIP3   OH223976   0.750   1.454   8.047  0.1912  0.2460  0.2640
  806TIP3    H123977   0.770   1.474   8.139  0.2185 -0.3014  0.3826
  806TIP3    H223978   0.677   1.393   8.051  0.5107 -0.1671 -0.0572
  807TIP3   OH223979   2.388   3.285   7.681 -0.5330 -0.4697  0.0714
  807TIP3    H123980   2.308   3.277   7.733 -0.7200  2.4622  0.3773
  807TIP3    H223981   2.365   3.344   7.610  1.1737 -0.1552 -0.2630
  808TIP3   OH223982   1.230   5.445   8.622  0.1932 -0.3912  0.8305
  808TIP3    H123983   1.314   5.407   8.646 -0.0105 -1.5581 -0.1834
  808TIP3    H223984   1.228   5.440   8.526 -0.2758  1.2977  0.7137
  809TIP3   OH223985   1.561   1.081   1.762  0.3390  0.4741 -0.1588
  809TIP3    H123986   1.526   0.993   1.748 -0.2955  0.4541  1.4164
  809TIP3    H223987   1.625   1.071   1.832 -0.7218  1.4574  0.9989
  810TIP3   OH223988   3.316   5.407   6.693  0.4131  0.4258  0.5160
  810TIP3    H123989   3.279   5.322   6.720 -0.2218  0.6988  0.5184
  810TIP3    H223990   3.241   5.456   6.660  0.4876  1.5772  1.9712
  811TIP3   OH223991   4.868   3.454   2.323  0.1374  0.4420  0.3218
  811TIP3    H123992   4.773   3.463   2.328  0.1659  1.6694 -0.7740
  811TIP3    H223993   4.902   3.522   2.382  0.3314 -0.1675  0.9139
  812TIP3   OH223994   6.285   0.791   1.241 -0.1636  0.4115 -0.1778
  812TIP3    H123995   6.355   0.777   1.305  2.4698  3.1046 -2.1485
  812TIP3    H223996   6.326   0.773   1.156 -2.7202 -0.5033 -1.3347
  813TIP3   OH223997   2.388   5.633   0.389 -0.2247 -0.2906 -0.0887
  813TIP3    H123998   2.355   5.548   0.360 -1.1813  0.0317  0.0270
  813TIP3    H223999   2.366   5.693   0.318 -0.3533  0.0341  0.2235
  814TIP3   OH224000   4.153   2.850   7.496  0.1977 -0.2608 -0.7947
  814TIP3    H124001   4.171   2.773   7.550  1.8680  0.1612 -0.6861
  814TIP3    H224002   4.114   2.914   7.556 -0.9937 -0.9135 -0.8402
  815TIP3   OH224003   4.499   1.977   8.337  0.1636 -0.5067  0.3316
  815TIP3    H124004   4.436   1.922   8.291 -1.2990 -1.5469  3.3453
  815TIP3    H224005   4.575   1.921   8.351  0.4286 -0.3309 -0.3646
  816TIP3   OH224006   1.930   6.628   1.661 -0.6350 -0.2186 -0.1222
  816TIP3    H124007   1.896   6.713   1.688 -1.7296 -0.2019 -1.4600
  816TIP3    H224008   2.013   6.648   1.618  0.0275 -0.0344  1.2054
  817TIP3   OH224009   2.749   1.747   0.950  0.1278 -0.0664  0.1472
  817TIP3    H124010   2.755   1.842   0.960  0.7035 -0.1339  0.4772
  817TIP3    H224011   2.831   1.722   0.906  0.5782 -0.5644  1.2388
  818TIP3   OH224012   3.925   2.802   7.982  0.3981  0.0166 -0.4221
  818TIP3    H124013   4.015   2.781   8.008  0.2382  0.1616  0.2780
  818TIP3    H224014   3.928   2.893   7.955  0.5984 -0.1801 -1.0826
  819TIP3   OH224015   2.330   1.360   0.534 -0.4242  0.6920  0.7719
  819TIP3    H124016   2.353   1.395   0.447 -2.4185 -0.4196 -0.2805
  819TIP3    H224017   2.254   1.411   0.560 -2.8493 -2.0575 -0.4040
  820TIP3   OH224018   3.519   3.279   2.115 -0.3903 -0.4997  0.0435
  820TIP3    H124019   3.445   3.238   2.160 -0.5250 -0.0898  0.1970
  820TIP3    H224020   3.596   3.236   2.153 -0.4623  0.3501  1.2073
  821TIP3   OH224021   5.193   6.089   0.839  0.1383  0.0542  0.1008
  821TIP3    H124022   5.181   6.181   0.815 -1.7622  0.2693  1.6105
  821TIP3    H224023   5.279   6.066   0.804 -0.8630  1.2779 -3.6451
  822TIP3   OH224024   6.229   2.052   0.487  0.4357 -0.0666  0.1489
  822TIP3    H124025   6.274   1.993   0.427  0.3858 -0.0610  0.1057
  822TIP3    H224026   6.258   2.025   0.574  1.0766  0.3861  0.0875
  823TIP3   OH224027   5.813   2.434   1.268 -0.5572  0.6011  0.0097
  823TIP3    H124028   5.888   2.406   1.215 -1.5622  0.1781 -1.2420
  823TIP3    H224029   5.852   2.468   1.349  1.0068  1.0076 -0.8750
  824TIP3   OH224030   3.800   3.803   0.845 -0.0044 -0.3148 -0.3290
  824TIP3    H124031   3.705   3.807   0.834 -0.2479 -0.3912  1.4250
  824TIP3    H224032   3.831   3.890   0.823 -0.6039 -0.0363 -0.0831
  825TIP3   OH224033   3.667   1.862   8.586  0.0111 -0.5515  0.3526
  825TIP3    H124034   3.722   1.790   8.555  0.7197  0.5015 -0.9878
  825TIP3    H224035   3.599   1.870   8.520  0.3921  0.4773  0.0552
  826TIP3   OH224036   1.269   4.753   6.667 -0.1963  0.1284  0.1431
  826TIP3    H124037   1.319   4.834   6.658  1.0372 -0.5962  0.2119
  826TIP3    H224038   1.215   4.766   6.744  0.1147  0.8247  0.2492
  827TIP3   OH224039   5.139   5.326   1.491 -0.5378  0.2376 -0.6625
  827TIP3    H124040   5.128   5.238   1.456  0.3232  0.5727 -1.8346
  827TIP3    H224041   5.234   5.340   1.490 -0.5348  0.5434  1.1427
  828TIP3   OH224042   5.713   0.392   2.186  0.8155 -0.7493 -0.0518
  828TIP3    H124043   5.754   0.382   2.100  0.7797  2.0312 -0.5040
  828TIP3    H224044   5.786   0.392   2.248  1.0070 -1.0506 -0.2791
  829TIP3   OH224045   6.619   5.212   8.346  0.1260 -0.5948  0.2709
  829TIP3    H124046   6.700   5.214   8.397  0.1897  0.3248  0.1549
  829TIP3    H224047   6.613   5.300   8.308  0.1585 -1.3110 -1.4487
  830TIP3   OH224048   5.972   1.199   1.979  0.0509  0.5283 -0.3688
  830TIP3    H124049   5.960   1.201   2.074 -0.9342  1.2602 -0.4864
  830TIP3    H224050   6.053   1.151   1.966 -1.0979 -1.9146  0.7254
  831TIP3   OH224051   5.101   4.715   6.867 -0.0867 -0.1041  0.2040
  831TIP3    H124052   5.111   4.640   6.808 -1.1000  0.7153 -1.0499
  831TIP3    H224053   5.040   4.773   6.822  1.3469  1.9128  0.7427
  832TIP3   OH224054   1.276   2.848   1.573  0.3362  0.1681 -0.1643
  832TIP3    H124055   1.347   2.832   1.511  2.0507  2.9657  0.8629
  832TIP3    H224056   1.315   2.905   1.640 -2.1083 -0.6046  2.1141
  833TIP3   OH224057   6.318   1.901   6.545 -0.5531 -0.1996  0.1906
  833TIP3    H124058   6.366   1.835   6.494  0.7115  1.1922 -0.4799
  833TIP3    H224059   6.248   1.851   6.588 -0.5994 -1.7235 -1.5188
  834TIP3   OH224060   4.280   0.443   8.481 -0.3303  0.6118  0.3180
  834TIP3    H124061   4.261   0.367   8.426  0.7712 -0.4977  1.4199
  834TIP3    H224062   4.249   0.518   8.429 -0.2844 -0.4610 -1.3462
  835TIP3   OH224063   2.515   4.886   0.353 -0.6139 -0.5230 -0.0657
  835TIP3    H124064   2.589   4.850   0.401 -0.9367 -0.8800  0.1727
  835TIP3    H224065   2.493   4.818   0.289 -0.4353 -0.2170 -0.4605
  836TIP3   OH224066   4.991   0.225   7.623  0.6557  0.0683 -0.5091
  836TIP3    H124067   4.899   0.252   7.625  0.5691 -0.1903  1.9145
  836TIP3    H224068   5.030   0.267   7.700  2.1268 -1.2957 -0.4677
  837TIP3   OH224069   1.277   6.172   7.410 -0.2233 -0.0739 -0.3827
  837TIP3    H124070   1.206   6.128   7.362  2.4192 -4.9724 -0.4881
  837TIP3    H224071   1.316   6.231   7.346 -1.7336 -0.3213 -1.5876
  838TIP3   OH224072   6.044   1.798   7.858  0.0846  0.0224  0.1750
  838TIP3    H124073   5.976   1.854   7.821  1.1466  0.3136 -1.4145
  838TIP3    H224074   5.999   1.715   7.877 -0.9319  0.5541  0.1519
  839TIP3   OH224075   5.775   3.925   7.986 -0.2920  0.7988  0.3844
  839TIP3    H124076   5.694   3.937   8.036 -0.0280  1.3079  0.7008
  839TIP3    H224077   5.840   3.902   8.052 -0.7897 -2.7648 -0.1787
  840TIP3   OH224078   1.331   3.586   0.690 -0.3730 -0.2782  0.3345
  840TIP3    H124079   1.350   3.666   0.641 -0.1891  0.0254  0.9016
  840TIP3    H224080   1.236   3.588   0.701 -0.3881 -0.2243  0.1995
  841TIP3   OH224081   3.653   3.677   7.364 -0.0279  0.2313  0.4055
  841TIP3    H124082   3.707   3.633   7.298  0.9090  0.5753  0.9106
  841TIP3    H224083   3.602   3.607   7.404  1.5560 -0.4853  1.3046
  842TIP3   OH224084   3.831   1.534   0.381 -0.2169  0.5628  0.1644
  842TIP3    H124085   3.876   1.451   0.398 -1.4364 -0.1762 -0.0276
  842TIP3    H224086   3.738   1.511   0.385 -0.5736  1.9051 -0.0361
  843TIP3   OH224087   2.362   3.439   0.976 -0.3993  0.1897 -0.0030
  843TIP3    H124088   2.377   3.352   0.940 -2.6306 -0.0589 -0.4932
  843TIP3    H224089   2.287   3.473   0.926  0.0305  2.1533  0.5834
  844TIP3   OH224090   4.432   4.764   8.757 -0.2643 -0.0618 -0.0036
  844TIP3    H124091   4.491   4.824   8.802  0.2637  0.4748 -1.3423
  844TIP3    H224092   4.387   4.818   8.692 -0.0946 -1.0145 -0.9519
  845TIP3   OH224093   2.903   2.603   2.252  0.2173  0.3531  0.2215
  845TIP3    H124094   2.921   2.512   2.275  1.6391  0.6362  0.3152
  845TIP3    H224095   2.845   2.634   2.321  0.0650 -0.3517  0.4204
  846TIP3   OH224096   2.452   4.750   6.650 -0.2214  0.4118  0.3984
  846TIP3    H124097   2.541   4.718   6.640  0.4775  2.3985 -0.1316
  846TIP3    H224098   2.460   4.824   6.710 -1.6125  0.3013  0.7566
  847TIP3   OH224099   6.491   2.827   6.819 -0.3248 -0.1826 -0.1109
  847TIP3    H124100   6.459   2.738   6.803 -1.6011  0.1524  0.5091
  847TIP3    H224101   6.483   2.871   6.734  1.0321 -0.8506 -0.6186
  848TIP3   OH224102   4.683   0.127   8.743  0.6381 -0.4298 -0.3776
  848TIP3    H124103   4.734   0.063   8.694 -0.7336 -0.8348 -1.3473
  848TIP3    H224104   4.613   0.153   8.683 -0.9153 -0.6944  1.2020
  849TIP3   OH224105   5.002   4.386   8.438  0.2768 -0.3807  0.7140
  849TIP3    H124106   4.933   4.388   8.504 -0.2641 -2.1507  0.2663
  849TIP3    H224107   5.071   4.333   8.477  0.7093  0.0390  0.5299
  850TIP3   OH224108   5.218   6.426   2.167  0.4389  0.2395  0.6048
  850TIP3    H124109   5.217   6.377   2.085 -0.1189 -0.2176  0.8716
  850TIP3    H224110   5.282   6.380   2.221 -0.7523 -0.7952  1.1893
  851TIP3   OH224111   4.701   6.748   1.830  0.0526 -0.5425 -0.3834
  851TIP3    H124112   4.614   6.761   1.794  0.0798  1.1828  0.0758
  851TIP3    H224113   4.686   6.705   1.914 -0.3188 -0.7659 -0.5640
  852TIP3   OH224114   5.206   0.109   2.854 -0.0374  0.2277 -0.2093
  852TIP3    H124115   5.296   0.111   2.822  0.3791  0.2747  0.9365
  852TIP3    H224116   5.190   0.017   2.876  0.0760  0.3812  0.5282
  853TIP3   OH224117   3.205   0.199   7.861  0.1185  0.6248 -0.1592
  853TIP3    H124118   3.282   0.254   7.853 -1.0585  2.2340 -1.1194
  853TIP3    H224119   3.136   0.247   7.816 -1.8099 -0.0607  1.8321
  854TIP3   OH224120   2.649   5.482   8.669 -0.5650  0.2150 -0.2985
  854TIP3    H124121   2.578   5.529   8.623 -1.4154  1.2641  1.9448
  854TIP3    H224122   2.689   5.548   8.726  1.8775 -0.5150 -1.0446
  855TIP3   OH224123   5.082   6.198   0.437 -0.3944 -0.0755  0.2023
  855TIP3    H124124   5.032   6.118   0.449  0.1806 -0.3853  0.5910
  855TIP3    H224125   5.034   6.264   0.486 -1.2944  0.0093 -0.7490
  856TIP3   OH224126   0.943   1.574   0.124 -0.1875  0.1415 -0.4259
  856TIP3    H124127   0.920   1.661   0.091  1.8914  0.5091 -1.0665
  856TIP3    H224128   1.013   1.545   0.067 -0.1697 -1.5493  0.4025
  857TIP3   OH224129   3.327   1.966   0.464 -0.0215 -0.8673 -0.0200
  857TIP3    H124130   3.236   1.967   0.432 -0.0192 -1.7345 -0.0687
  857TIP3    H224131   3.372   2.029   0.408 -0.4329 -0.9783 -0.4920
  858TIP3   OH224132   4.638   3.111   0.755  0.2211  0.0279 -0.7474
  858TIP3    H124133   4.611   3.175   0.820  0.0828 -2.4918  1.8944
  858TIP3    H224134   4.556   3.073   0.723  0.3164 -1.4549  0.6389
  859TIP3   OH224135   3.354   3.306   0.572 -0.3186 -0.2035 -0.1160
  859TIP3    H124136   3.366   3.277   0.662 -2.7726 -1.6878 -0.1771
  859TIP3    H224137   3.315   3.393   0.580 -0.4416 -0.2931  0.2669
  860TIP3   OH224138   0.948   4.783   0.199 -0.4338 -1.1800  0.2566
  860TIP3    H124139   1.005   4.713   0.167  1.7841  1.0832 -1.1015
  860TIP3    H224140   0.927   4.834   0.121  2.0901  2.3916  1.6163
  861TIP3   OH224141   0.005   4.768   0.279  0.0248  0.0671 -0.4769
  861TIP3    H124142  -0.021   4.718   0.356 -0.8157 -0.4079 -1.0511
  861TIP3    H224143  -0.070   4.762   0.220  0.9420 -0.2193 -1.6452
  862TIP3   OH224144   1.622   1.841   6.845 -0.6814  0.5442  0.4276
  862TIP3    H124145   1.574   1.766   6.879 -0.0509  0.7642  1.8893
  862TIP3    H224146   1.705   1.804   6.813 -1.0136  0.4250 -0.3242
  863TIP3   OH224147   5.071   6.749   0.108  0.3310 -0.9387 -0.2180
  863TIP3    H124148   4.986   6.757   0.064 -0.7202 -1.3881  1.6540
  863TIP3    H224149   5.099   6.840   0.121  0.7648 -0.7860 -1.9018
  864TIP3   OH224150   4.771   5.008   1.997  0.0397  0.3566  0.1880
  864TIP3    H124151   4.788   4.937   2.059  0.0559 -0.2989 -0.5564
  864TIP3    H224152   4.845   5.007   1.937 -0.1545  0.7479 -0.0652
  865TIP3   OH224153   0.165   0.521   7.698 -0.3480 -0.1495  0.0010
  865TIP3    H124154   0.075   0.490   7.704  0.3239 -2.0589  1.5176
  865TIP3    H224155   0.159   0.608   7.660 -2.8768  0.0116  0.6253
  866TIP3   OH224156   6.198   0.652   2.127  0.2166  0.0367 -0.4497
  866TIP3    H124157   6.257   0.682   2.057  0.1506 -0.5250 -0.7553
  866TIP3    H224158   6.239   0.572   2.160  0.5148  0.5755  0.5168
  867TIP3   OH224159   3.648   2.501   0.499 -0.2935  0.2141  0.5718
  867TIP3    H124160   3.734   2.541   0.510  1.1392 -2.7336  1.0160
  867TIP3    H224161   3.644   2.476   0.407 -0.8570  0.6944  0.4600
  868TIP3   OH224162   6.453   0.092   0.407  0.6076 -0.4644  0.1279
  868TIP3    H124163   6.516   0.151   0.366 -0.2361  1.6480  1.6734
  868TIP3    H224164   6.501   0.052   0.479 -0.1643  2.8381  2.7475
  869TIP3   OH224165   1.163   1.552   8.905 -0.1753  0.0040 -0.7675
  869TIP3    H124166   1.255   1.568   8.887 -0.0340 -1.3537 -1.3659
  869TIP3    H224167   1.116   1.593   8.832 -0.0262  0.4473 -0.6117
  870TIP3   OH224168   2.901   3.260   7.176 -0.2738 -0.2281 -0.6355
  870TIP3    H124169   2.825   3.315   7.195 -0.2813 -0.1769 -0.8094
  870TIP3    H224170   2.932   3.290   7.090  0.1993  0.0352 -0.3762
  871TIP3   OH224171   6.375   0.156   0.857 -0.1341  0.5164 -0.0327
  871TIP3    H124172   6.435   0.109   0.799 -0.5204 -3.2855  2.3030
  871TIP3    H224173   6.290   0.149   0.813 -0.1460 -0.9154  0.1657
  872TIP3   OH224174   5.281   6.471   7.471 -0.2753  0.2715  0.1770
  872TIP3    H124175   5.251   6.465   7.561 -0.3684 -0.1042  0.1237
  872TIP3    H224176   5.375   6.484   7.477 -0.2235 -0.1694  0.3240
  873TIP3   OH224177   5.700   1.828   8.567  0.1287  0.0854  0.7041
  873TIP3    H124178   5.627   1.890   8.564  1.3778  1.6455 -3.5660
  873TIP3    H224179   5.777   1.883   8.582  0.8321 -1.0635  1.4058
  874TIP3   OH224180   2.943   5.035   8.878  0.5445  0.0546 -0.2557
  874TIP3    H124181   2.928   5.116   8.831  0.6252 -0.2562 -0.8285
  874TIP3    H224182   3.030   5.006   8.849  0.4321 -0.3373 -0.2047
  875TIP3   OH224183   4.467   0.024   0.121  0.2736  0.5416  0.4651
  875TIP3    H124184   4.416   0.105   0.114 -1.7918 -0.4853  2.4056
  875TIP3    H224185   4.417  -0.040   0.069 -0.3246 -0.3900  2.1012
  876TIP3   OH224186   2.401   5.899   7.844  0.2389  0.2093 -0.0184
  876TIP3    H124187   2.375   5.987   7.871  0.8701  0.4450 -0.1620
  876TIP3    H224188   2.318   5.856   7.821 -0.0960  0.6924  0.2553
  877TIP3   OH224189   6.662   5.252   0.311 -0.3579 -0.6200  0.5392
  877TIP3    H124190   6.691   5.161   0.318 -0.4037 -0.6280  0.6234
  877TIP3    H224191   6.715   5.288   0.240  1.4537 -0.0162  2.1020
  878TIP3   OH224192   1.804   6.662   0.697  0.3964 -0.1349 -0.2023
  878TIP3    H124193   1.891   6.625   0.712  0.1333 -1.2774 -1.3803
  878TIP3    H224194   1.744   6.588   0.703 -0.8120  0.8864  2.5661
  879TIP3   OH224195   6.349   2.528   7.135  0.4954  0.1967 -0.5824
  879TIP3    H124196   6.276   2.500   7.191  0.7222  0.8735  0.0682
  879TIP3    H224197   6.321   2.505   7.046  0.8260 -2.4529 -0.0972
  880TIP3   OH224198   5.545   6.430   6.795 -0.7647  0.1950 -0.2269
  880TIP3    H124199   5.559   6.523   6.778  1.4337 -0.3778 -1.9108
  880TIP3    H224200   5.631   6.396   6.816 -1.4797 -1.5708  0.0100
  881TIP3   OH224201   5.626   0.576   1.304  0.0284 -0.2325 -0.1887
  881TIP3    H124202   5.590   0.618   1.226  0.2980 -2.5084 -1.6075
  881TIP3    H224203   5.708   0.624   1.321 -0.8021  1.3048 -0.3004
  882TIP3   OH224204   1.262   3.516   2.176 -0.5148 -0.2500 -0.1507
  882TIP3    H124205   1.277   3.438   2.229 -0.6566 -0.8746 -0.9991
  882TIP3    H224206   1.171   3.508   2.147 -0.0294 -0.7199 -1.6869
  883TIP3   OH224207   0.901   2.254   7.579 -0.4316  0.0816  0.1584
  883TIP3    H124208   0.824   2.210   7.545 -0.9913  0.8997  0.3493
  883TIP3    H224209   0.912   2.331   7.523 -1.0278  1.1328  1.4320
  884TIP3   OH224210   0.444   4.951   1.448  0.3678  0.4188  0.2403
  884TIP3    H124211   0.453   4.940   1.354  0.6702 -1.2604  0.4245
  884TIP3    H224212   0.351   4.973   1.461  0.9017  3.6051 -0.6058
  885TIP3   OH224213   0.518   4.779   0.429  0.1289  0.8413  0.1342
  885TIP3    H124214   0.500   4.792   0.522  0.1239  3.2832 -0.1517
  885TIP3    H224215   0.436   4.745   0.393 -0.3067  1.1781  0.7909
  886TIP3   OH224216   5.402   4.583   1.343  0.1947 -0.1070  0.1505
  886TIP3    H124217   5.431   4.550   1.427  0.4186 -0.5507 -0.1011
  886TIP3    H224218   5.419   4.512   1.281 -1.4234 -0.4002 -0.0106
  887TIP3   OH224219   4.129   1.883   1.178 -0.5742 -0.1187  0.2454
  887TIP3    H124220   4.217   1.847   1.169  0.4058  1.9032  1.0572
  887TIP3    H224221   4.130   1.929   1.262 -2.3767  0.0437  0.2299
  888TIP3   OH224222   2.206   0.195   8.686 -0.2094 -0.4444  0.2242
  888TIP3    H124223   2.246   0.169   8.603 -1.2819 -0.2576 -0.3746
  888TIP3    H224224   2.116   0.161   8.680 -0.3096 -0.3870  1.2959
  889TIP3   OH224225   4.793   0.948   0.767 -0.2630  0.2434  0.2990
  889TIP3    H124226   4.743   1.019   0.727  0.7832  1.0396  0.3775
  889TIP3    H224227   4.882   0.981   0.773 -0.2089 -0.1774  2.5460
  890TIP3   OH224228   2.860   1.415   1.890  0.1419  0.0549 -0.3668
  890TIP3    H124229   2.955   1.409   1.887  0.2592  0.9446  0.8788
  890TIP3    H224230   2.838   1.413   1.983 -1.2461 -2.3959 -0.6369
  891TIP3   OH224231   5.843   1.817   0.899  0.0368 -0.4330 -0.1391
  891TIP3    H124232   5.901   1.745   0.874  0.6637 -0.6016  1.6649
  891TIP3    H224233   5.896   1.896   0.886 -0.9123 -0.1520 -2.8853
  892TIP3   OH224234   0.268   5.471   0.044 -0.1649  0.2232  0.6137
  892TIP3    H124235   0.301   5.446  -0.042  1.1498 -2.0891  1.7121
  892TIP3    H224236   0.184   5.425   0.052  0.9689 -1.7812  1.5582
  893TIP3   OH224237   2.272   1.950   0.259 -0.1138  0.1477 -0.2252
  893TIP3    H124238   2.214   1.959   0.183  0.0490 -0.7906 -0.4724
  893TIP3    H224239   2.260   1.859   0.287  0.1378  0.3692  0.6249
  894TIP3   OH224240   1.171   2.083   8.002 -0.2094  0.1000  0.0109
  894TIP3    H124241   1.216   2.030   7.936  2.2967  0.2755  1.4698
  894TIP3    H224242   1.206   2.171   7.990  0.4613  0.0902  1.6740
  895TIP3   OH224243   3.650   4.030   1.492 -0.3358  0.4026  0.3437
  895TIP3    H124244   3.643   3.945   1.449  1.5391  0.4247 -0.0931
  895TIP3    H224245   3.742   4.036   1.519 -0.4290  2.2761  0.3870
  896TIP3   OH224246   1.899   6.212   0.034  0.1105 -0.1397 -0.1956
  896TIP3    H124247   1.848   6.154   0.091 -0.4837 -0.8457 -1.3999
  896TIP3    H224248   1.834   6.251  -0.024  0.7398  0.3281 -0.5941
  897TIP3   OH224249   4.089   2.485   0.018 -0.4673  0.3053  0.6134
  897TIP3    H124250   3.994   2.474   0.017 -0.4929  0.5580 -0.0177
  897TIP3    H224251   4.124   2.402  -0.012 -0.5250  0.5388 -0.1137
  898TIP3   OH224252   3.479   0.003   7.644  0.0753 -0.6942  0.2250
  898TIP3    H124253   3.453   0.021   7.734 -1.2080 -0.9234 -0.0740
  898TIP3    H224254   3.532  -0.077   7.649  1.0255 -0.0361  0.8985
  899TIP3   OH224255   4.558   1.333   2.062 -0.1462 -0.5134  0.3535
  899TIP3    H124256   4.536   1.403   2.123 -0.1671 -0.6794  0.5379
  899TIP3    H224257   4.546   1.253   2.112  0.4105 -0.6302  0.3069
  900TIP3   OH224258   6.346   0.786   8.569 -0.3807  0.2153 -0.1248
  900TIP3    H124259   6.362   0.732   8.647 -2.1513 -0.1086  0.0717
  900TIP3    H224260   6.293   0.859   8.601 -0.9232  0.2058 -0.9709
  901TIP3   OH224261   3.037   1.037   7.348  0.1656 -0.3851 -0.4243
  901TIP3    H124262   3.117   1.005   7.306  1.2602  0.1292  1.1792
  901TIP3    H224263   3.058   1.127   7.373 -0.5437 -0.5769  0.9099
  902TIP3   OH224264   4.938   3.064   1.302  0.1417  0.2151  0.0844
  902TIP3    H124265   4.970   3.056   1.392 -1.9725 -1.9386  0.7237
  902TIP3    H224266   4.850   3.027   1.303 -0.9120  2.2795 -2.4151
  903TIP3   OH224267   0.213   3.565   1.619 -0.0488  0.0403  0.6148
  903TIP3    H124268   0.213   3.615   1.701  0.9139  0.1313  0.5777
  903TIP3    H224269   0.270   3.616   1.561 -0.1373 -0.4036  0.1336
  904TIP3   OH224270   3.661   4.921   1.292 -0.1959 -0.3365 -0.3247
  904TIP3    H124271   3.720   4.907   1.218 -0.2239 -1.0547 -0.2181
  904TIP3    H224272   3.633   4.833   1.317 -2.5701  0.0234 -1.3971
  905TIP3   OH224273   0.103   4.462   8.843 -0.0704 -0.4790  0.3732
  905TIP3    H124274   0.163   4.500   8.778 -2.1179 -1.3759 -2.2304
  905TIP3    H224275   0.040   4.532   8.861  0.5738 -0.1862  1.5729
  906TIP3   OH224276   3.005   1.302   7.459 -0.0688  0.1172 -0.0634
  906TIP3    H124277   2.953   1.330   7.383  0.8200  1.6806 -0.1439
  906TIP3    H224278   2.940   1.277   7.524 -0.8565 -2.0754 -1.5750
  907TIP3   OH224279   0.076   5.691   1.853 -0.2471  0.3485 -0.2056
  907TIP3    H124280   0.154   5.746   1.860  1.4640 -1.8726 -0.8239
  907TIP3    H224281   0.020   5.720   1.925  0.6872  2.6258 -0.2871
  908TIP3   OH224282   1.083   5.168   2.637  0.7546  0.5576 -0.6994
  908TIP3    H124283   1.007   5.116   2.611 -0.3376  0.8710  1.5782
  908TIP3    H224284   1.077   5.248   2.585 -0.2793  0.4142 -0.8212
  909TIP3   OH224285   3.348   0.273   2.436 -0.0093  0.0757 -0.1250
  909TIP3    H124286   3.425   0.276   2.379  0.5291  1.3663  0.6106
  909TIP3    H224287   3.326   0.180   2.443  0.9517 -0.2383 -1.0412
  910TIP3   OH224288   4.470   2.245   7.401 -0.2773  0.1822 -0.1104
  910TIP3    H124289   4.479   2.171   7.461  0.9734  0.9630  0.7250
  910TIP3    H224290   4.378   2.269   7.404 -0.1639  0.4996  1.9123
  911TIP3   OH224291   4.805   5.060   8.127  0.3697  0.3450 -0.4048
  911TIP3    H124292   4.807   5.103   8.213  0.1793  1.7516 -1.0755
  911TIP3    H224293   4.717   5.077   8.094  0.6061  0.2651 -1.0970
  912TIP3   OH224294   0.525   0.481   8.712  0.3423 -0.6317  0.2463
  912TIP3    H124295   0.575   0.416   8.761  0.9034 -0.3255  0.0817
  912TIP3    H224296   0.435   0.471   8.745  0.7638 -0.1604  1.6288
  913TIP3   OH224297   4.328   0.566   0.061 -0.6036  0.3232  0.6365
  913TIP3    H124298   4.336   0.640   0.122 -3.1117  1.0453  0.1966
  913TIP3    H224299   4.304   0.607  -0.022 -2.5806 -0.9797  0.5006
  914TIP3   OH224300   2.068   5.541   8.101  0.2668  0.3472  0.1788
  914TIP3    H124301   2.108   5.511   8.020 -1.0548 -0.6951 -0.1191
  914TIP3    H224302   1.974   5.526   8.089 -0.4598  3.7997  0.3701
  915TIP3   OH224303   1.151   0.557   7.295 -0.0753 -0.9453  0.3857
  915TIP3    H124304   1.208   0.482   7.282 -0.4092 -1.5184  1.9679
  915TIP3    H224305   1.063   0.520   7.299 -0.6200 -0.0798 -1.9875
  916TIP3   OH224306   0.803   1.963   2.247  0.1449 -0.0139 -0.3228
  916TIP3    H124307   0.872   1.910   2.288  0.2061  0.6472  0.4480
  916TIP3    H224308   0.722   1.915   2.263  0.3303 -0.4444 -0.6336
  917TIP3   OH224309   1.268   6.636   7.415  0.4371 -0.4327 -0.2359
  917TIP3    H124310   1.321   6.650   7.493 -0.4588  0.3552  0.2565
  917TIP3    H224311   1.223   6.719   7.401  0.5491 -0.5789 -1.5811
  918TIP3   OH224312   4.216   0.668   2.153  0.5734 -0.5780 -0.3521
  918TIP3    H124313   4.283   0.697   2.215  2.0401 -0.8192 -1.7378
  918TIP3    H224314   4.183   0.586   2.190 -0.2943  0.4737  1.2689
  919TIP3   OH224315   1.584   6.354   0.989 -0.0801  0.0051 -0.0554
  919TIP3    H124316   1.558   6.438   1.029  2.4859  1.2219 -0.7568
  919TIP3    H224317   1.603   6.297   1.063 -0.7112  0.4211  0.4413
  920TIP3   OH224318   1.373   3.238   7.899 -0.1554 -0.5596  0.2466
  920TIP3    H124319   1.306   3.264   7.835  0.7680 -0.8298 -0.8652
  920TIP3    H224320   1.325   3.230   7.982 -0.9924  2.0961  0.1260
  921TIP3   OH224321   2.743   2.915   1.999  0.1339 -0.8306 -0.0465
  921TIP3    H124322   2.649   2.902   2.011  0.0610 -1.6360 -1.3514
  921TIP3    H224323   2.763   2.990   2.054 -1.1451 -1.0428  0.7658
  922TIP3   OH224324   0.218   1.154   1.214 -0.5123 -0.1917 -0.0164
  922TIP3    H124325   0.211   1.249   1.206 -0.7317 -0.2263 -0.2656
  922TIP3    H224326   0.228   1.123   1.123 -0.1025 -0.3818  0.0908
  923TIP3   OH224327   3.296   1.146   0.135 -0.1223 -0.3210 -0.3363
  923TIP3    H124328   3.321   1.219   0.078 -0.7122  0.8751  0.8819
  923TIP3    H224329   3.200   1.142   0.127 -0.1375 -0.6378 -0.0034
  924TIP3   OH224330   2.515   4.233   0.909 -0.0734  0.3604  0.6680
  924TIP3    H124331   2.516   4.204   1.000 -4.2984  2.5821  1.7125
  924TIP3    H224332   2.422   4.250   0.891  0.6009  0.3018 -4.0156
  925TIP3   OH224333   6.219   4.778   7.182 -0.7279 -0.0097  0.3180
  925TIP3    H124334   6.279   4.765   7.108  0.2787 -0.5489  1.1876
  925TIP3    H224335   6.239   4.705   7.240 -1.2595  0.5951  1.2751
  926TIP3   OH224336   5.804   6.595   1.395  0.6374 -0.1370  0.7281
  926TIP3    H124337   5.759   6.547   1.465 -0.2209 -0.8834 -0.3044
  926TIP3    H224338   5.757   6.678   1.388  0.4371 -0.2493  0.7362
  927TIP3   OH224339   1.811   2.751   8.406  0.1324 -0.6719 -0.4040
  927TIP3    H124340   1.903   2.727   8.417  0.0884 -0.1912  1.3621
  927TIP3    H224341   1.787   2.790   8.490 -1.0849  1.2607 -1.5898
  928TIP3   OH224342   5.523   1.282   1.263  0.0571  0.1709  0.4681
  928TIP3    H124343   5.521   1.237   1.347  0.5819  0.3955  0.6054
  928TIP3    H224344   5.612   1.318   1.257  0.2232 -0.3621 -0.4565
  929TIP3   OH224345   6.178   0.558   0.011  0.1955 -0.1729  0.1015
  929TIP3    H124346   6.189   0.531   0.103  0.5346 -0.9148 -0.1516
  929TIP3    H224347   6.112   0.497  -0.023 -1.5146  1.4017  0.3908
  930TIP3   OH224348   2.065   2.287   8.407 -0.5898  0.6323 -0.1638
  930TIP3    H124349   2.071   2.344   8.330  1.1693  2.5993  1.2831
  930TIP3    H224350   1.971   2.278   8.424 -0.9967  0.4364 -2.2916
  931TIP3   OH224351   5.475   6.294   8.236 -1.4916  0.2689 -0.2519
  931TIP3    H124352   5.496   6.253   8.320 -0.3344  1.7101  0.2301
  931TIP3    H224353   5.560   6.305   8.194 -1.8563  1.2651 -0.7605
  932TIP3   OH224354   3.323   1.332   1.540 -0.3919  0.3991 -0.2191
  932TIP3    H124355   3.355   1.302   1.455 -0.0261  1.7752 -0.5919
  932TIP3    H224356   3.402   1.345   1.593 -0.6650 -1.5699  0.7660
  933TIP3   OH224357   4.890   5.535   8.685  0.7087 -0.3841  0.1860
  933TIP3    H124358   4.917   5.450   8.720 -0.1162 -1.1670 -0.9879
  933TIP3    H224359   4.833   5.572   8.753 -0.0227 -1.3970  0.1594
  934TIP3   OH224360   5.855   1.573   7.594  0.1583  0.2192 -0.6483
  934TIP3    H124361   5.924   1.540   7.652  2.4992  1.6135 -2.4689
  934TIP3    H224362   5.813   1.494   7.559  0.2063 -0.6530  1.1101
  935TIP3   OH224363   4.913   3.892   7.018  0.9730  0.4793 -0.1864
  935TIP3    H124364   4.998   3.892   6.974  0.4558 -1.4088 -1.3114
  935TIP3    H224365   4.865   3.820   6.976 -0.6297  0.5308  1.4667
  936TIP3   OH224366   1.843   4.130   8.885  0.2334 -0.0875 -0.9297
  936TIP3    H124367   1.862   4.147   8.978 -0.4314  0.8898 -0.9557
  936TIP3    H224368   1.751   4.152   8.875  0.1402 -0.8059 -1.6956
  937TIP3   OH224369   1.004   6.262   2.004  0.6079 -0.2381 -0.1273
  937TIP3    H124370   0.911   6.244   2.017  0.9425 -0.9526  1.5144
  937TIP3    H224371   1.029   6.207   1.930 -0.4115  0.5153 -1.0692
  938TIP3   OH224372   4.771   0.515   0.658 -0.7384  0.8332  0.1199
  938TIP3    H124373   4.814   0.575   0.597  0.7364  0.7156  0.9996
  938TIP3    H224374   4.840   0.456   0.686 -2.4251 -2.3949 -1.9048
  939TIP3   OH224375   2.100   1.253   7.622  0.3325 -0.8932 -0.0594
  939TIP3    H124376   2.096   1.186   7.553 -0.7724 -0.5121 -0.3907
  939TIP3    H224377   2.061   1.331   7.582 -1.7954 -1.0903  1.4550
  940TIP3   OH224378   4.624   0.631   7.681 -0.8625 -0.0132 -0.2060
  940TIP3    H124379   4.553   0.569   7.697  0.8702 -1.7740  1.0166
  940TIP3    H224380   4.698   0.596   7.729  0.6862  2.1251 -0.8910
  941TIP3   OH224381   1.175   1.449   0.675 -0.2427 -0.7812  0.0283
  941TIP3    H124382   1.237   1.472   0.744 -0.5767  1.8166 -0.4215
  941TIP3    H224383   1.096   1.422   0.721 -1.4274  3.4764  0.9728
  942TIP3   OH224384   1.514   4.814   2.140  0.2242 -0.6805 -0.1274
  942TIP3    H124385   1.500   4.883   2.076  1.8236  1.5713  1.7986
  942TIP3    H224386   1.439   4.819   2.199  1.7165  1.6402  1.7812
  943TIP3   OH224387   5.745   0.391   1.578  0.7520  0.1190 -0.0001
  943TIP3    H124388   5.758   0.387   1.483 -0.1465 -1.8825 -0.0992
  943TIP3    H224389   5.675   0.454   1.589  0.4731 -0.0438 -0.7372
  944TIP3   OH224390   4.146   5.295   1.713  0.3173 -0.6857  0.2338
  944TIP3    H124391   4.230   5.309   1.756  0.5080 -2.1304  0.3882
  944TIP3    H224392   4.156   5.333   1.626  0.5963  0.5116  0.7705
  945TIP3   OH224393   4.279   1.144   0.353  0.2585 -0.2006 -0.5228
  945TIP3    H124394   4.229   1.126   0.433  0.6314 -0.3055 -0.3124
  945TIP3    H224395   4.357   1.189   0.384  1.4963 -2.1735 -0.5677
  946TIP3   OH224396   1.993   2.199   0.608  0.1325 -0.1809  0.2168
  946TIP3    H124397   1.909   2.157   0.627 -1.0097  1.2697 -1.2960
  946TIP3    H224398   2.028   2.149   0.534  0.6023 -0.7572  0.8182
  947TIP3   OH224399   6.132   0.098   8.544  0.4190  0.6439  0.1213
  947TIP3    H124400   6.136   0.085   8.639 -1.2559  0.7866  0.2442
  947TIP3    H224401   6.164   0.187   8.531 -1.8533  1.6568  0.8981
  948TIP3   OH224402   2.236   2.032   8.047 -0.4991 -1.1355  0.2444
  948TIP3    H124403   2.279   1.978   7.981  2.5484 -0.6546  1.6460
  948TIP3    H224404   2.220   1.973   8.120  2.6019 -0.4013  1.6775
  949TIP3   OH224405   6.360   4.014   6.971  0.1520 -0.0962 -0.0344
  949TIP3    H124406   6.336   4.011   6.879 -3.5423 -0.7354  0.7921
  949TIP3    H224407   6.368   3.922   6.996  0.6398  0.0637  0.4206
  950TIP3   OH224408   4.127   4.964   8.768  0.0173 -0.4222  0.0145
  950TIP3    H124409   4.166   4.901   8.707 -0.9681 -2.2729  1.1777
  950TIP3    H224410   4.184   4.962   8.845  1.9742  2.8454 -1.1637
  951TIP3   OH224411   5.097   4.003   7.580 -0.6685 -0.1944  0.1480
  951TIP3    H124412   5.116   3.989   7.488 -2.8206 -0.6664 -0.2832
  951TIP3    H224413   5.072   3.916   7.613  1.3874 -0.3299  1.5714
  952TIP3   OH224414   3.902   6.733   2.598  0.4208  0.6912 -0.4945
  952TIP3    H124415   3.988   6.705   2.566  0.7693  0.0135  0.9605
  952TIP3    H224416   3.840   6.685   2.543  1.0086 -2.0612  1.0357
  953TIP3   OH224417   0.462   4.200   0.405  0.2986 -0.2470  0.1818
  953TIP3    H124418   0.546   4.228   0.442  0.4016  0.2294 -0.3932
  953TIP3    H224419   0.486   4.153   0.325 -0.0292  1.1144 -0.7497
  954TIP3   OH224420   6.297   3.875   1.891  0.0695 -0.8081 -0.2824
  954TIP3    H124421   6.239   3.948   1.866 -0.6691 -1.4572 -0.5045
  954TIP3    H224422   6.316   3.830   1.809  2.0065  0.1589 -0.4186
  955TIP3   OH224423   3.170   3.617   8.345 -0.1453  0.2017 -0.0920
  955TIP3    H124424   3.086   3.593   8.307  1.0389  0.3947 -3.0665
  955TIP3    H224425   3.154   3.703   8.385 -1.6519 -0.3709  0.5991
  956TIP3   OH224426   6.339   0.307   6.772  0.2461 -0.3415 -0.0378
  956TIP3    H124427   6.271   0.330   6.710 -0.2325 -0.8479  0.2973
  956TIP3    H224428   6.386   0.389   6.787 -1.5732  0.5356  1.3013
  957TIP3   OH224429   4.118   4.572   7.912 -0.1310 -0.0440 -0.7190
  957TIP3    H124430   4.055   4.612   7.851  1.2182  1.2155 -1.3709
  957TIP3    H224431   4.148   4.645   7.966  1.3183 -0.4596 -0.9308
  958TIP3   OH224432   3.008   6.285   7.428  0.0187 -0.0947 -0.3141
  958TIP3    H124433   3.026   6.362   7.373 -0.5334 -0.2586 -0.7401
  958TIP3    H224434   2.995   6.214   7.365 -2.7409  0.1257 -0.1450
  959TIP3   OH224435   6.028   0.266   7.291  0.2010  0.8565 -0.3654
  959TIP3    H124436   6.011   0.338   7.230  0.0963  1.4806  0.3813
  959TIP3    H224437   5.943   0.246   7.329  0.3545  0.8367 -0.0290
  960TIP3   OH224438   2.574   1.490   8.132  0.1513  0.5784 -0.6887
  960TIP3    H124439   2.630   1.483   8.055  0.6891  2.0158 -0.4585
  960TIP3    H224440   2.485   1.477   8.099  0.4792 -0.1392 -1.3189
  961TIP3   OH224441   3.910   2.959   1.225  0.2123  0.2361 -0.1395
  961TIP3    H124442   3.898   3.000   1.311  4.4978  0.9438  0.3306
  961TIP3    H224443   3.978   2.893   1.239 -0.6521 -1.3176 -2.5832
  962TIP3   OH224444   3.446   6.035   7.695 -0.2538 -0.3394  0.0525
  962TIP3    H124445   3.386   6.079   7.635 -0.5605 -0.7417  0.0589
  962TIP3    H224446   3.445   5.943   7.667  0.3408 -0.3519  0.0699
  963TIP3   OH224447   6.401   2.989   2.102  0.2122  0.7494 -0.1744
  963TIP3    H124448   6.361   3.048   2.166 -2.9126  1.0388 -2.1509
  963TIP3    H224449   6.399   2.903   2.144  0.5010  1.2883  0.9944
  964TIP3   OH224450   1.305   3.358   6.965 -0.7227 -0.4920  0.5387
  964TIP3    H124451   1.243   3.363   7.038 -1.2991  1.0669 -0.0251
  964TIP3    H224452   1.250   3.352   6.887 -0.1417 -0.5774  0.1272
  965TIP3   OH224453   2.008   0.546   0.354  0.8140 -0.4899  0.5412
  965TIP3    H124454   2.010   0.585   0.266  2.5661 -0.3714  0.5837
  965TIP3    H224455   1.915   0.533   0.373  0.3110  1.0323 -0.6406
  966TIP3   OH224456   3.262   0.242   0.966  0.1615 -0.0181 -0.8822
  966TIP3    H124457   3.202   0.273   0.899 -0.0048  1.6119 -0.0268
  966TIP3    H224458   3.210   0.181   1.019 -1.5111  2.9373  1.1246
  967TIP3   OH224459   5.389   6.636   0.127  0.4305 -0.7766 -0.0874
  967TIP3    H124460   5.316   6.614   0.070 -0.4224  0.2761  0.5484
  967TIP3    H224461   5.349   6.686   0.199  1.5640 -1.4763  1.0692
  968TIP3   OH224462   1.227   0.013   8.646  0.1879  0.4464  0.2121
  968TIP3    H124463   1.276   0.049   8.572 -1.5626 -1.1235 -1.8507
  968TIP3    H224464   1.255  -0.078   8.652 -1.4342 -0.1181 -0.1629
  969TIP3   OH224465   0.703   3.155   1.257  0.1403 -0.0054  0.6101
  969TIP3    H124466   0.698   3.097   1.180 -0.1922  0.4602  0.2781
  969TIP3    H224467   0.684   3.097   1.331 -0.6563 -0.2375  0.2386
  970TIP3   OH224468   0.539   2.522   0.517  0.2115 -0.7766 -0.5507
  970TIP3    H124469   0.464   2.526   0.577 -0.4330  0.3945 -1.3867
  970TIP3    H224470   0.520   2.446   0.461  0.1602 -1.0850 -0.1189
  971TIP3   OH224471   6.506   6.268   1.758 -0.3206  0.1366 -0.3231
  971TIP3    H124472   6.445   6.326   1.804  1.0190  0.7624  0.7533
  971TIP3    H224473   6.575   6.327   1.725  0.5973 -0.7295 -0.0087
  972TIP3   OH224474   2.562   5.821   1.045 -0.0505  1.4738 -0.0389
  972TIP3    H124475   2.620   5.818   0.969  0.7050 -0.1734  0.5585
  972TIP3    H224476   2.483   5.776   1.016  0.4209  0.4183  0.2689
  973TIP3   OH224477   0.631   4.878   1.611  0.2173 -0.4623 -0.6694
  973TIP3    H124478   0.604   4.816   1.678  1.1335 -1.2408 -0.9817
  973TIP3    H224479   0.555   4.886   1.553 -0.5008  0.0522  0.3242
  974TIP3   OH224480   4.163   5.203   0.483 -0.2663 -0.1109 -0.4660
  974TIP3    H124481   4.162   5.205   0.579 -1.4422  0.0911 -0.4614
  974TIP3    H224482   4.095   5.265   0.457 -0.8283 -1.0799 -1.3979
  975TIP3   OH224483   5.450   2.774   7.212  0.1442  0.2770 -0.2886
  975TIP3    H124484   5.501   2.747   7.136  1.3617 -1.7398  1.1695
  975TIP3    H224485   5.499   2.849   7.247  1.7351 -1.1276  0.6242
  976TIP3   OH224486   0.379   3.577   0.328  0.0793  0.3512 -0.0624
  976TIP3    H124487   0.387   3.668   0.357 -0.8811  0.1486  0.8858
  976TIP3    H224488   0.372   3.583   0.232 -1.0128  1.3579  0.0504
  977TIP3   OH224489   5.023   1.797   1.419  0.2413  0.3381 -0.0352
  977TIP3    H124490   5.025   1.740   1.342 -1.1593 -1.2903  1.0487
  977TIP3    H224491   5.099   1.854   1.408  0.9673 -0.8564 -1.8456
  978TIP3   OH224492   1.854   5.691   0.102  0.5266 -0.3507 -0.1576
  978TIP3    H124493   1.820   5.603   0.114 -0.7074  0.1943  0.5497
  978TIP3    H224494   1.940   5.690   0.144 -0.0166 -0.8873  0.9818
  979TIP3   OH224495   0.516   2.435   6.758 -0.3323  0.0256 -0.1077
  979TIP3    H124496   0.520   2.441   6.853  0.0538 -1.2676 -0.0198
  979TIP3    H224497   0.573   2.505   6.727 -0.3956  0.4019  0.6102
  980TIP3   OH224498   4.121   6.072   7.393 -0.1587  0.8432  0.0122
  980TIP3    H124499   4.158   6.052   7.307  1.2117  0.1490  0.7385
  980TIP3    H224500   4.031   6.037   7.388  0.9591 -2.3865 -0.0419
  981TIP3   OH224501   5.708   0.840   1.768 -0.0531  0.1753  0.1544
  981TIP3    H124502   5.651   0.782   1.718 -0.1201 -0.5084  0.9910
  981TIP3    H224503   5.657   0.863   1.845  1.3378 -1.8462  1.8127
  982TIP3   OH224504   5.149   5.396   8.759 -0.3071 -0.3632 -0.7564
  982TIP3    H124505   5.156   5.303   8.782  1.6779 -0.2810 -0.8341
  982TIP3    H224506   5.202   5.405   8.680 -0.1873  0.8917 -0.5499
  983TIP3   OH224507   0.440   5.740   0.031  0.6851  0.4039 -0.7742
  983TIP3    H124508   0.387   5.661   0.041 -1.7815  1.9644 -0.3995
  983TIP3    H224509   0.523   5.718   0.072 -0.8590 -1.1718  1.8564
  984TIP3   OH224510   0.446   3.199   0.923 -0.0888  0.0328  0.3046
  984TIP3    H124511   0.458   3.148   0.843  0.4157  2.4543 -1.2873
  984TIP3    H224512   0.418   3.285   0.892 -0.0036  1.0265  2.7654
  985TIP3   OH224513   3.169   3.019   1.561 -0.7178  0.2263 -0.1145
  985TIP3    H124514   3.220   2.938   1.566 -1.1890 -0.0359  0.6437
  985TIP3    H224515   3.227   3.080   1.515  0.8750  0.3660  1.9149
  986TIP3   OH224516   0.262   2.970   0.009 -0.2027  0.1518  0.4407
  986TIP3    H124517   0.269   2.974   0.104  0.1980 -0.9785  0.4723
  986TIP3    H224518   0.345   3.005  -0.023  0.5744 -1.4739  0.5728
  987TIP3   OH224519   6.229   5.652   1.003  0.3017  0.2738  0.0689
  987TIP3    H124520   6.149   5.694   0.971 -0.6176 -2.2569 -1.3114
  987TIP3    H224521   6.298   5.684   0.946 -0.7642 -1.6514 -2.5228
  988TIP3   OH224522   1.952   5.948   8.681 -0.0428  0.5613 -0.1677
  988TIP3    H124523   1.896   5.938   8.758  0.9262 -0.7160  0.4296
  988TIP3    H224524   1.895   5.930   8.607 -1.0521  2.0554  0.2054
  989TIP3   OH224525   2.857   0.000   0.723  0.4362  0.4251 -0.6072
  989TIP3    H124526   2.824   0.090   0.736  0.8619  0.3400  1.3455
  989TIP3    H224527   2.885  -0.028   0.810  2.5678 -0.7404 -1.6023
  990TIP3   OH224528   5.540   3.046   7.151 -0.0514  0.4556 -0.0026
  990TIP3    H124529   5.584   3.104   7.213  0.5579 -0.9738  0.9477
  990TIP3    H224530   5.600   3.041   7.076 -0.1583  1.1127 -0.1384
  991TIP3   OH224531   3.780   3.260   8.622 -1.2247  0.5995  0.6020
  991TIP3    H124532   3.821   3.323   8.681 -2.1855  0.1765  1.7464
  991TIP3    H224533   3.834   3.182   8.629  0.5394  1.5003 -1.5374
  992TIP3   OH224534   6.283   6.347   7.080  0.4072 -0.4998 -0.3436
  992TIP3    H124535   6.351   6.282   7.090 -0.1491 -1.1350 -0.6347
  992TIP3    H224536   6.321   6.428   7.114  1.0818 -0.9845  0.0544
  993TIP3   OH224537   6.314   3.261   6.454 -0.3087  0.2860 -0.0766
  993TIP3    H124538   6.390   3.205   6.440  0.0948  0.8958 -0.3225
  993TIP3    H224539   6.349   3.350   6.458 -0.7205  0.4152  2.0030
  994TIP3   OH224540   2.760   3.283   8.750 -0.7840 -1.0320  0.4260
  994TIP3    H124541   2.808   3.353   8.794 -0.3267 -0.7820 -0.4521
  994TIP3    H224542   2.825   3.214   8.737 -0.2933 -0.2171 -1.8583
  995TIP3   OH224543   3.095   0.785   2.211  0.0011  0.2424  0.6149
  995TIP3    H124544   3.061   0.710   2.261  3.7566 -0.4886  2.4873
  995TIP3    H224545   3.134   0.745   2.133 -1.0526  0.7488 -0.1963
  996TIP3   OH224546   2.001   4.148   0.488 -0.0237  0.0047 -0.2011
  996TIP3    H124547   2.065   4.155   0.417  1.2696  0.8271  0.9908
  996TIP3    H224548   2.048   4.179   0.565 -1.3416 -1.0222  1.0575
  997TIP3   OH224549   2.852   3.533   0.247  0.1974 -0.4044 -0.8195
  997TIP3    H124550   2.819   3.489   0.325 -2.0284  2.0481 -0.2340
  997TIP3    H224551   2.884   3.617   0.279  0.6208  0.0565 -2.3574
  998TIP3   OH224552   4.250   1.148   8.044 -0.0920  0.1790  0.2624
  998TIP3    H124553   4.327   1.189   8.084 -0.1864 -1.2504  2.0486
  998TIP3    H224554   4.177   1.171   8.103 -0.7796  0.3543 -0.6348
  999TIP3   OH224555   2.235   2.992   6.668 -0.0586 -0.1035 -0.2829
  999TIP3    H124556   2.151   3.036   6.655 -1.1462 -2.2746 -1.0774
  999TIP3    H224557   2.296   3.037   6.609 -1.1685  0.1626 -1.2522
 1000TIP3   OH224558   0.838   4.223   1.528  0.2386 -0.2634  0.0543
 1000TIP3    H124559   0.869   4.138   1.559 -2.0146 -0.9082  0.7286
 1000TIP3    H224560   0.870   4.285   1.593 -0.3843 -0.9808  1.0784
 1001TIP3   OH224561   4.005   3.042   6.950 -0.3432  0.9016 -0.0403
 1001TIP3    H124562   4.057   2.979   7.001 -1.6907  1.3882  2.0789
 1001TIP3    H224563   4.069   3.096   6.905  0.9170  0.0339  0.6463
 1002TIP3   OH224564   0.059   3.715   0.085 -0.6961  0.3591 -0.0559
 1002TIP3    H124565   0.085   3.801   0.051  0.4393  0.0112 -0.1101
 1002TIP3    H224566   0.001   3.735   0.159 -2.1265  1.1363 -1.3239
 1003TIP3   OH224567   4.855   2.345   1.827  0.4539 -0.0913  0.3039
 1003TIP3    H124568   4.892   2.286   1.892 -0.4735  0.6820  1.5719
 1003TIP3    H224569   4.889   2.431   1.850 -0.2174  0.2571  0.0179
 1004TIP3   OH224570   5.163   4.848   2.361 -0.2085 -0.4031 -0.7638
 1004TIP3    H124571   5.239   4.799   2.391 -0.7205  0.4574  2.3146
 1004TIP3    H224572   5.088   4.792   2.383 -0.6175  0.3467 -0.1939
 1005TIP3   OH224573   2.368   3.888   7.735  0.0964 -0.6619 -0.3154
 1005TIP3    H124574   2.300   3.905   7.800 -0.5529 -0.8825 -0.9207
 1005TIP3    H224575   2.377   3.971   7.687 -0.0261 -0.7427 -0.4819
 1006TIP3   OH224576   4.444   5.646   1.794  0.2086  0.6695  0.0580
 1006TIP3    H124577   4.534   5.614   1.797  0.2769  0.7535 -0.8786
 1006TIP3    H224578   4.391   5.570   1.817  0.4182  0.1086 -1.2405
 1007TIP3   OH224579   4.143   5.193   1.022  0.3203  0.0151 -0.3248
 1007TIP3    H124580   4.112   5.146   1.099  0.0566  0.5217 -0.1211
 1007TIP3    H224581   4.172   5.278   1.055 -0.4090  0.4840 -0.8774
 1008TIP3   OH224582   6.186   2.795   6.669 -0.7495  0.4384 -0.1190
 1008TIP3    H124583   6.266   2.833   6.632 -0.7895  0.5576 -0.0836
 1008TIP3    H224584   6.118   2.813   6.604 -0.5820 -0.4041 -0.5429
 1009TIP3   OH224585   4.602   5.652   7.861 -0.0929 -0.0552 -0.2823
 1009TIP3    H124586   4.681   5.667   7.911 -0.6324 -0.9260  0.8622
 1009TIP3    H224587   4.541   5.719   7.892 -0.0916  0.0585 -0.5239
 1010TIP3   OH224588   0.888   3.883   7.343 -0.5296 -0.6501 -0.4606
 1010TIP3    H124589   0.836   3.803   7.355 -0.1223 -1.0513 -1.3694
 1010TIP3    H224590   0.926   3.875   7.256  1.1763 -0.4207  0.2209
 1011TIP3   OH224591   6.703   4.668   0.525 -0.6843  0.1325  0.0728
 1011TIP3    H124592   6.766   4.714   0.580 -2.8654  1.2496  1.8076
 1011TIP3    H224593   6.732   4.576   0.526  0.1827  0.3888  1.8818
 1012TIP3   OH224594   5.236   1.880   8.074 -0.2110 -0.2005  0.6504
 1012TIP3    H124595   5.315   1.831   8.096 -0.1835  0.1608  1.3899
 1012TIP3    H224596   5.167   1.814   8.068 -0.5066 -0.2268  3.1899
 1013TIP3   OH224597   6.355   4.117   2.073 -0.7889 -0.4027 -0.0032
 1013TIP3    H124598   6.424   4.181   2.055  0.0081 -1.3671 -0.5003
 1013TIP3    H224599   6.283   4.142   2.016  0.6349 -1.7086 -2.5332
 1014TIP3   OH224600   6.017   4.792   6.781 -0.8494 -0.6091  0.5652
 1014TIP3    H124601   5.956   4.738   6.731 -1.2837  0.3675  0.0087
 1014TIP3    H224602   6.096   4.796   6.727 -1.4418  0.7340 -0.2543
 1015TIP3   OH224603   3.204   2.646   8.321  0.5659 -0.9899 -0.2499
 1015TIP3    H124604   3.285   2.692   8.301  0.0050  0.0654 -0.1725
 1015TIP3    H224605   3.202   2.640   8.416  1.3095 -2.4570 -0.2978
 1016TIP3   OH224606   4.597   2.004   1.797  0.1814 -0.2675  0.1534
 1016TIP3    H124607   4.539   1.944   1.845 -0.1932 -0.3932 -0.4472
 1016TIP3    H224608   4.680   2.000   1.845  0.0003 -0.8604  0.4306
 1017TIP3   OH224609   1.029   2.300   8.634  0.1651  0.5483 -0.2816
 1017TIP3    H124610   1.030   2.386   8.676  0.8784  0.4446 -0.0648
 1017TIP3    H224611   1.122   2.275   8.628 -0.0324 -0.2043 -0.3389
 1018TIP3   OH224612   5.423   4.420   1.093 -0.3428 -0.2328  0.1084
 1018TIP3    H124613   5.473   4.338   1.090 -0.4624 -0.3696  1.2822
 1018TIP3    H224614   5.424   4.452   1.003  0.4427 -1.0843 -0.2047
 1019TIP3   OH224615   6.676   0.726   1.087  0.3170  0.3624 -0.0433
 1019TIP3    H124616   6.689   0.673   1.165 -1.0641  1.5799  1.0779
 1019TIP3    H224617   6.744   0.697   1.026  1.7252 -0.3129  1.7656
 1020TIP3   OH224618   4.588   5.266   1.159 -0.0213  0.3677 -0.6356
 1020TIP3    H124619   4.681   5.269   1.181  0.1097  1.8784 -1.2228
 1020TIP3    H224620   4.568   5.173   1.148  1.7812  0.0795 -1.9569
 1021TIP3   OH224621   2.349   4.520   1.682 -0.5363  0.2091 -0.2583
 1021TIP3    H124622   2.415   4.483   1.741  0.6344  0.2337 -1.5155
 1021TIP3    H224623   2.304   4.444   1.645  0.5152  0.0668 -1.3099
 1022TIP3   OH224624   2.051   1.148   8.179  0.2990  0.2912 -0.0430
 1022TIP3    H124625   1.985   1.095   8.134  1.0217 -0.2634 -0.4819
 1022TIP3    H224626   2.128   1.091   8.184  0.6953  0.8669  0.6006
 1023TIP3   OH224627   3.060   3.101   7.320  0.0007 -0.0535  0.0615
 1023TIP3    H124628   3.115   3.047   7.263 -0.1726  0.3220 -0.4672
 1023TIP3    H224629   3.020   3.165   7.261  0.8493  1.1958  0.7830
 1024TIP3   OH224630   1.183   5.079   1.914  1.1693 -0.1032  0.0404
 1024TIP3    H124631   1.276   5.100   1.915  1.3080 -0.6974 -0.1103
 1024TIP3    H224632   1.156   5.092   1.823  1.4885 -1.5422 -0.2791
 1025TIP3   OH224633   4.773   0.269   1.343 -0.6559  0.0129  0.1147
 1025TIP3    H124634   4.750   0.361   1.339 -0.8492 -0.0567 -0.6355
 1025TIP3    H224635   4.860   0.267   1.382  0.3011  0.6963 -1.8649
 1026TIP3   OH224636   3.585   2.777   1.413 -0.0775 -0.1996 -0.2591
 1026TIP3    H124637   3.637   2.722   1.471 -0.4755 -2.4342 -1.8661
 1026TIP3    H224638   3.548   2.716   1.349 -0.7633  1.9407 -2.0435
 1027TIP3   OH224639   0.202   2.814   8.144  0.3603 -0.5094  0.7056
 1027TIP3    H124640   0.284   2.863   8.137  1.0382 -1.5761  0.8626
 1027TIP3    H224641   0.139   2.866   8.095  0.8306  0.9439  1.5900
 1028TIP3   OH224642   5.221   2.218   8.300  0.4119 -0.5430  0.1683
 1028TIP3    H124643   5.314   2.197   8.311  0.6015  0.9013  1.8456
 1028TIP3    H224644   5.214   2.309   8.329 -1.3216 -0.1944 -1.1787
 1029TIP3   OH224645   5.457   6.197   0.890  0.7122 -0.4715 -0.4128
 1029TIP3    H124646   5.405   6.157   0.959  0.3747 -1.9919 -1.5037
 1029TIP3    H224647   5.507   6.266   0.935 -0.9020 -0.1364  0.9723
 1030TIP3   OH224648   4.615   5.329   0.885 -0.1920 -0.3426 -0.0189
 1030TIP3    H124649   4.608   5.339   0.980 -0.6939 -1.7779  0.1150
 1030TIP3    H224650   4.542   5.271   0.862 -0.3559  0.3513 -1.3544
 1031TIP3   OH224651   3.607   6.145   1.316 -0.5220  0.5310  0.3801
 1031TIP3    H124652   3.591   6.234   1.284 -0.8600  0.1553 -0.5209
 1031TIP3    H224653   3.585   6.089   1.243  2.3505 -0.1962 -0.0545
 1032TIP3   OH224654   2.572   5.595   7.646 -0.0460  0.0720  0.0462
 1032TIP3    H124655   2.640   5.653   7.611  1.8854 -0.7073  2.2650
 1032TIP3    H224656   2.498   5.653   7.663  0.4562  1.1709 -1.2988
 1033TIP3   OH224657   3.932   5.865   8.317  0.2056  0.0367  0.0658
 1033TIP3    H124658   3.965   5.880   8.405 -1.5881  2.5516  0.4292
 1033TIP3    H224659   3.998   5.902   8.259  0.7925 -0.4791  0.3922
 1034TIP3   OH224660   1.179   6.208   0.217  0.1452  0.3850  0.2943
 1034TIP3    H124661   1.148   6.212   0.127  0.7362  0.9024  0.1062
 1034TIP3    H224662   1.208   6.297   0.237  1.6020 -0.0758  0.4126
 1035TIP3   OH224663   5.255   3.265   7.366 -0.1680  0.5925 -0.1320
 1035TIP3    H124664   5.303   3.184   7.383 -0.0216  0.8675  0.8586
 1035TIP3    H224665   5.309   3.312   7.303  0.7554  0.7873  0.7791
 1036TIP3   OH224666   6.612   5.680   8.496  0.0382 -0.1066 -1.0559
 1036TIP3    H124667   6.665   5.743   8.448  0.3175 -0.8760 -1.7754
 1036TIP3    H224668   6.622   5.598   8.448 -0.3121 -0.7084 -0.1369
 1037TIP3   OH224669   0.257   3.507   0.563  0.3478 -0.0274 -0.3371
 1037TIP3    H124670   0.292   3.523   0.475 -1.2420  1.5599 -0.7428
 1037TIP3    H224671   0.183   3.567   0.570  1.1800  0.8102  2.5585
 1038TIP3   OH224672   6.108   2.592   6.840 -0.2621  0.2402  0.1873
 1038TIP3    H124673   6.110   2.507   6.796  0.1685  0.2281  0.2267
 1038TIP3    H224674   6.168   2.646   6.790 -1.0078  0.7179 -0.2164
 1039TIP3   OH224675   2.192   4.289   0.647  0.4734 -0.3089  0.1966
 1039TIP3    H124676   2.151   4.274   0.733  1.0185 -1.3314  0.3070
 1039TIP3    H224677   2.189   4.383   0.635  0.9435 -0.0693  1.6485
 1040TIP3   OH224678   5.992   5.885   1.721  0.0233 -0.1780  0.1422
 1040TIP3    H124679   5.897   5.877   1.724  0.0295 -0.1723  0.3632
 1040TIP3    H224680   6.014   5.879   1.628 -0.2455  0.4051  0.0367
 1041TIP3   OH224681   1.866   3.550   0.570  0.4201  0.8518  0.4913
 1041TIP3    H124682   1.838   3.553   0.479  0.5809  1.2516  0.4533
 1041TIP3    H224683   1.939   3.611   0.575  1.0890  0.0569  0.6637
 1042TIP3   OH224684   2.195   3.846   6.733 -0.0633  0.0509 -0.0413
 1042TIP3    H124685   2.162   3.838   6.644  0.4864 -0.4345 -0.2038
 1042TIP3    H224686   2.226   3.758   6.755 -1.6009 -0.2338  1.1884
 1043TIP3   OH224687   3.037   1.768   8.483 -0.2581 -0.5701 -0.0856
 1043TIP3    H124688   3.014   1.726   8.401  1.2646 -1.3985 -0.1294
 1043TIP3    H224689   2.955   1.805   8.516 -0.8773 -0.1999 -1.9692
 1044TIP3   OH224690   1.716   0.933   0.736  0.1297 -0.1577 -0.1806
 1044TIP3    H124691   1.638   0.966   0.692  0.5162  1.0942  0.0272
 1044TIP3    H224692   1.753   0.869   0.675 -0.1852  0.4184 -0.9941
 1045TIP3   OH224693   3.620   5.690   0.274  0.3283  0.0679 -0.0998
 1045TIP3    H124694   3.615   5.765   0.334  0.2707  0.3128 -0.4096
 1045TIP3    H224695   3.665   5.724   0.197 -2.1204  0.5863 -1.4203
 1046TIP3   OH224696   0.229   5.447   8.414  0.5532 -0.2528  0.3784
 1046TIP3    H124697   0.285   5.518   8.380 -1.3781 -0.1055 -3.0357
 1046TIP3    H224698   0.290   5.378   8.438  2.3348  0.9059 -0.5227
 1047TIP3   OH224699   2.090   3.845   6.496 -0.4891  0.0144  0.5044
 1047TIP3    H124700   2.131   3.777   6.442  0.5695 -0.7011  2.1321
 1047TIP3    H224701   2.005   3.809   6.520  0.0124 -0.7265  1.2483
 1048TIP3   OH224702   3.468   0.750   1.123 -0.3431 -0.4499 -0.0555
 1048TIP3    H124703   3.545   0.695   1.108 -0.0740  0.2487 -1.4159
 1048TIP3    H224704   3.466   0.809   1.048  0.5961  2.8293  2.2758
 1049TIP3   OH224705   2.791   3.836   8.027 -0.0628  0.0904 -0.5293
 1049TIP3    H124706   2.816   3.860   8.116 -0.3279 -0.7887 -0.2017
 1049TIP3    H224707   2.701   3.867   8.018 -0.7891 -1.6221  0.2670
 1050TIP3   OH224708   1.500   1.215   2.301 -0.5262 -0.4370  0.0490
 1050TIP3    H124709   1.502   1.285   2.236  0.5291  0.2035  0.7463
 1050TIP3    H224710   1.467   1.257   2.381  1.0941 -0.4544  0.7601
 1051TIP3   OH224711   2.465   2.721   8.956  0.6774 -0.4188 -0.2458
 1051TIP3    H124712   2.430   2.721   8.867  1.1166 -0.1327 -0.4210
 1051TIP3    H224713   2.550   2.764   8.949  1.0787 -1.1279  0.1708
 1052TIP3   OH224714   6.705   0.964   1.538  0.0205  0.0585  0.4294
 1052TIP3    H124715   6.751   1.048   1.537 -0.1702  0.1651  0.6040
 1052TIP3    H224716   6.775   0.899   1.545  0.2643  0.1251 -1.1993
 1053TIP3   OH224717   6.004   6.182   0.327  0.3621  0.4581 -0.3272
 1053TIP3    H124718   6.054   6.183   0.409 -0.9789 -0.6452  0.5502
 1053TIP3    H224719   6.043   6.111   0.276  1.7460  1.6926 -1.0300
 1054TIP3   OH224720   4.664   4.251   6.512 -0.3396  0.0188  0.7405
 1054TIP3    H124721   4.677   4.160   6.541  0.9537 -0.7170 -1.7910
 1054TIP3    H224722   4.569   4.260   6.504 -0.4682 -1.4000  0.2860
 1055TIP3   OH224723   1.742   2.391   8.618  0.0686 -0.3435  0.4414
 1055TIP3    H124724   1.732   2.445   8.540 -1.5475  0.2396  1.0081
 1055TIP3    H224725   1.774   2.306   8.586  0.4426  0.2252 -0.7106
 1056TIP3   OH224726   3.871   3.799   0.114  0.0267 -0.4549 -0.1512
 1056TIP3    H124727   3.929   3.826   0.043  1.1859  1.7233  1.5073
 1056TIP3    H224728   3.836   3.881   0.149 -1.2395 -1.5243  1.2054
 1057TIP3   OH224729   0.204   1.625   8.176 -0.4626 -0.7293  0.6314
 1057TIP3    H124730   0.298   1.640   8.167 -0.4174 -1.9101 -1.7694
 1057TIP3    H224731   0.165   1.713   8.181  0.7783 -0.2321  2.9495
 1058TIP3   OH224732   2.926   3.766   8.929 -0.5185  0.2551 -0.2468
 1058TIP3    H124733   2.878   3.835   8.975  0.7044  0.7077  0.4049
 1058TIP3    H224734   3.016   3.797   8.926  0.2765 -1.7376  0.9320
 1059TIP3   OH224735   1.835   0.527   8.570  0.0996 -0.2517 -0.4401
 1059TIP3    H124736   1.785   0.452   8.537 -0.7350 -1.2543  2.7724
 1059TIP3    H224737   1.926   0.499   8.564 -0.1176 -0.9484 -0.6131
 1060TIP3   OH224738   0.852   5.874   1.556  0.0945 -0.2215  0.5623
 1060TIP3    H124739   0.818   5.942   1.499  1.2430 -0.8324 -0.9119
 1060TIP3    H224740   0.785   5.864   1.624 -0.7381  1.3667  0.0289
 1061TIP3   OH224741   2.463   4.972   7.995 -1.0595  0.0782 -0.5307
 1061TIP3    H124742   2.451   4.991   7.902  1.0840 -0.4424 -0.9663
 1061TIP3    H224743   2.384   5.007   8.037 -1.6958  1.0597 -2.4273
 1062TIP3   OH224744   6.246   5.565   0.662 -0.4289 -0.0038 -0.1043
 1062TIP3    H124745   6.301   5.488   0.677 -1.3586 -0.6478  0.1258
 1062TIP3    H224746   6.240   5.573   0.567 -2.1802 -1.6244 -0.1839
 1063TIP3   OH224747   4.003   4.732   8.885  0.5523 -0.0555  0.3066
 1063TIP3    H124748   3.908   4.738   8.888  0.2512 -2.4944 -1.3740
 1063TIP3    H224749   4.028   4.780   8.806  0.5815 -0.6369 -0.0350
 1064TIP3   OH224750   6.504   0.903   0.999  0.0620 -0.4740  0.0653
 1064TIP3    H124751   6.546   0.988   0.986  0.3709 -0.5132  0.7497
 1064TIP3    H224752   6.577   0.843   1.019 -0.2192 -0.7426  0.3044
 1065TIP3   OH224753   3.580   3.491   7.835 -0.0698  0.2583  0.2350
 1065TIP3    H124754   3.545   3.506   7.923  2.9881  1.2108  1.4219
 1065TIP3    H224755   3.618   3.403   7.840 -1.4929 -0.4484 -0.7798
 1066TIP3   OH224756   1.883   5.030   6.343 -0.3176  0.2966  0.5880
 1066TIP3    H124757   1.943   4.988   6.281 -2.8044  0.7063 -2.3132
 1066TIP3    H224758   1.880   5.121   6.315 -1.7648  0.4240  1.1091
 1067TIP3   OH224759   3.115   1.720   0.438 -0.7507  0.5424 -0.5447
 1067TIP3    H124760   3.157   1.783   0.380 -0.0731 -0.4703 -1.1755
 1067TIP3    H224761   3.035   1.694   0.392 -0.2053 -0.2728 -1.0503
 1068TIP3   OH224762   3.285   5.758   1.382  0.1952 -0.2050  0.0369
 1068TIP3    H124763   3.202   5.716   1.359  1.2812 -1.8777 -0.9815
 1068TIP3    H224764   3.281   5.844   1.339 -1.5344  0.3074  1.1266
 1069TIP3   OH224765   0.436   5.383   1.561 -0.6365  0.0440  0.2818
 1069TIP3    H124766   0.465   5.294   1.580  0.9876  0.5493  0.3554
 1069TIP3    H224767   0.349   5.389   1.599  0.1276 -0.8319  2.3144
 1070TIP3   OH224768   3.072   0.157   1.837 -0.2972  0.1204  0.0022
 1070TIP3    H124769   3.113   0.136   1.921 -1.3092  1.7279  0.9612
 1070TIP3    H224770   3.138   0.206   1.789 -0.3859  0.9488  0.7064
 1071TIP3   OH224771   2.328   0.950   2.984 -0.3529 -0.3687 -0.7842
 1071TIP3    H124772   2.421   0.941   3.007 -0.3949  1.3096  0.2409
 1071TIP3    H224773   2.290   1.000   3.056 -0.6183  4.9017 -4.0387
 1072TIP3   OH224774   3.446   5.410   1.230  0.0156  0.1848  0.0780
 1072TIP3    H124775   3.376   5.372   1.283  0.6856  0.0375  0.8831
 1072TIP3    H224776   3.517   5.345   1.234 -0.0038  0.0665 -1.2021
 1073TIP3   OH224777   3.290   1.459   6.635  0.0543 -0.3942 -0.2721
 1073TIP3    H124778   3.376   1.425   6.612  0.6181  0.4617  0.5052
 1073TIP3    H224779   3.252   1.393   6.692  0.3955 -0.5475 -0.2215
 1074TIP3   OH224780   5.702   4.432   8.478 -0.3785  0.3550 -0.2106
 1074TIP3    H124781   5.724   4.460   8.389  0.7994  2.3072  0.6298
 1074TIP3    H224782   5.718   4.338   8.477  0.3190  0.4455 -1.8670
 1075TIP3   OH224783   3.198   2.899   7.185 -0.1205  0.1009 -0.4651
 1075TIP3    H124784   3.278   2.915   7.133 -1.4688  1.8955 -2.1532
 1075TIP3    H224785   3.132   2.876   7.120 -1.5136  0.8463  0.6351
 1076TIP3   OH224786   5.788   0.216   0.180 -0.3172  0.2024  0.0823
 1076TIP3    H124787   5.866   0.272   0.176  0.2227 -0.5889 -2.2311
 1076TIP3    H224788   5.748   0.225   0.094 -1.6185 -1.0306  0.5310
 1077TIP3   OH224789   5.369   1.965   7.859 -0.5791 -0.6797 -0.0348
 1077TIP3    H124790   5.309   1.947   7.931  0.4225 -1.1083  0.7214
 1077TIP3    H224791   5.451   1.923   7.885  0.8339  2.0139  0.1596
 1078TIP3   OH224792   4.658   4.798   1.345 -0.1762 -0.1049  0.3446
 1078TIP3    H124793   4.749   4.781   1.370 -0.5188 -1.5091  0.7272
 1078TIP3    H224794   4.610   4.720   1.374 -1.6593  0.9932  0.9865
 1079TIP3   OH224795   2.208   0.166   6.563 -0.3590 -0.5362 -0.1854
 1079TIP3    H124796   2.150   0.203   6.497 -0.5903 -1.1526 -0.3324
 1079TIP3    H224797   2.149   0.129   6.629 -0.1414  0.6016  0.6900
 1080TIP3   OH224798   1.980   1.785   0.534 -0.2607 -0.1758  0.3806
 1080TIP3    H124799   2.023   1.839   0.600  0.9319 -0.4291 -0.1527
 1080TIP3    H224800   1.907   1.838   0.504  0.9238  1.2153 -0.1895
 1081TIP3   OH224801   3.101   2.388   6.489 -0.4433  0.0448  0.0018
 1081TIP3    H124802   3.183   2.430   6.515 -1.0829  1.0487  0.4652
 1081TIP3    H224803   3.116   2.294   6.502  0.8783  0.1555 -0.6489
 1082TIP3   OH224804   1.812   3.175   2.473  0.2637 -0.1561 -0.9843
 1082TIP3    H124805   1.805   3.134   2.559  0.3745  0.9236 -0.4370
 1082TIP3    H224806   1.722   3.196   2.449  0.0446 -2.0083 -1.9474
 1083TIP3   OH224807   3.206   4.271   0.879  0.4405  0.1217 -0.3031
 1083TIP3    H124808   3.122   4.270   0.832  0.7539  0.9524 -0.9006
 1083TIP3    H224809   3.187   4.227   0.962 -0.3259 -0.6533 -0.8651
 1084TIP3   OH224810   0.783   1.669   8.715 -0.0082 -0.1964  0.1082
 1084TIP3    H124811   0.729   1.590   8.711  0.3630 -0.5043  0.9057
 1084TIP3    H224812   0.772   1.710   8.629 -1.8976  0.0267  0.4153
 1085TIP3   OH224813   3.131   0.972   0.792  0.3442 -0.2249  0.3903
 1085TIP3    H124814   3.182   1.013   0.862 -1.0959  0.5136  1.0562
 1085TIP3    H224815   3.054   0.935   0.836 -0.6505  0.3484 -0.7891
 1086TIP3   OH224816   6.553   4.234   6.922  0.2372 -0.2386 -0.4320
 1086TIP3    H124817   6.532   4.268   6.835 -0.0649 -0.2237 -0.3550
 1086TIP3    H224818   6.491   4.161   6.934  1.6074 -1.5605 -1.0625
 1087TIP3   OH224819   2.525   2.827   1.322 -0.2887 -0.1250  0.3275
 1087TIP3    H124820   2.579   2.763   1.278 -0.7806  0.3300 -0.9705
 1087TIP3    H224821   2.580   2.860   1.394  0.0694 -1.7456  0.8214
 1088TIP3   OH224822   5.253   3.771   1.430 -0.1741 -0.0459 -0.6107
 1088TIP3    H124823   5.284   3.697   1.483  0.7464  0.7774  0.0315
 1088TIP3    H224824   5.205   3.825   1.492 -0.1706  0.2923 -0.9050
 1089TIP3   OH224825   2.705   4.737   0.476  0.6696  0.8210  0.0320
 1089TIP3    H124826   2.711   4.647   0.508 -0.9934  1.2010  1.5983
 1089TIP3    H224827   2.762   4.787   0.534  2.0323  0.7294 -1.1890
 1090TIP3   OH224828   4.656   4.927   7.309  0.3184 -0.7031 -0.0508
 1090TIP3    H124829   4.597   4.965   7.374  0.0725  0.7096 -1.0592
 1090TIP3    H224830   4.737   4.910   7.357  1.2111  3.0921  0.0687
 1091TIP3   OH224831   2.406   5.405   6.972 -1.0963  0.6682  0.0411
 1091TIP3    H124832   2.436   5.316   6.954 -0.8302  0.8737 -0.5797
 1091TIP3    H224833   2.467   5.438   7.039 -1.2806  0.3366  0.3696
 1092TIP3   OH224834   5.060   3.779   1.193 -0.0762 -0.2377 -0.4043
 1092TIP3    H124835   5.065   3.868   1.159  1.8638 -0.5187 -1.0265
 1092TIP3    H224836   5.135   3.772   1.252 -1.5807 -0.7564  1.5105
 1093TIP3   OH224837   6.351   1.191   8.762 -0.8462 -0.3371  0.4050
 1093TIP3    H124838   6.392   1.223   8.842  0.0980 -1.0339  0.2100
 1093TIP3    H224839   6.330   1.271   8.713  1.1524  0.0490  0.0862
 1094TIP3   OH224840   3.083   0.775   7.102  0.3241  0.1128 -0.1250
 1094TIP3    H124841   3.123   0.689   7.117  1.2192  0.7590  1.3378
 1094TIP3    H224842   3.126   0.833   7.164 -1.9832  1.1216  0.6398
 1095TIP3   OH224843   3.712   2.229   7.711  0.1448  0.4579 -0.1720
 1095TIP3    H124844   3.743   2.243   7.800  0.5520  0.0598 -0.2483
 1095TIP3    H224845   3.636   2.171   7.722 -0.0819  0.7738 -0.0524
 1096TIP3   OH224846   3.268   6.217   0.333  0.2238 -0.7302  0.1700
 1096TIP3    H124847   3.310   6.176   0.257 -1.0532  0.3132 -1.1555
 1096TIP3    H224848   3.228   6.144   0.379  1.6662 -1.4792  0.3102
 1097TIP3   OH224849   5.507   4.491   8.630 -0.1248 -0.5545  0.0782
 1097TIP3    H124850   5.550   4.514   8.712  1.7915 -2.2158 -0.3944
 1097TIP3    H224851   5.577   4.457   8.575 -1.9678 -3.1513 -0.8449
 1098TIP3   OH224852   0.182   4.952   0.919  0.5513 -0.2213 -0.5846
 1098TIP3    H124853   0.193   4.944   0.825  0.1079 -0.6987 -0.6015
 1098TIP3    H224854   0.185   4.862   0.951 -2.2702 -0.3438 -0.4833
 1099TIP3   OH224855   2.774   1.946   0.391  0.6409 -0.2794 -0.3516
 1099TIP3    H124856   2.773   1.873   0.329 -0.1950 -0.5557 -0.0353
 1099TIP3    H224857   2.739   2.020   0.342  2.8866  0.3586 -1.1431
 1100TIP3   OH224858   3.312   3.809   8.179 -0.4466  0.1796  0.4336
 1100TIP3    H124859   3.348   3.884   8.227 -0.0386 -0.1938  0.7199
 1100TIP3    H224860   3.271   3.756   8.247  0.4893 -0.5603  0.4406
 1101TIP3   OH224861   1.097   3.125   0.958  0.2797 -0.0772 -0.5107
 1101TIP3    H124862   1.132   3.053   1.011  1.2492 -0.9928 -2.2843
 1101TIP3    H224863   1.023   3.087   0.910  0.4016  0.2652 -0.9852
 1102TIP3   OH224864   0.674   3.311   1.671  0.1450 -0.3592  0.4197
 1102TIP3    H124865   0.719   3.240   1.626 -1.1219 -0.6038 -0.4992
 1102TIP3    H224866   0.585   3.309   1.637 -0.5638  0.1442  2.1648
 1103TIP3   OH224867   6.491   1.386   0.379  0.2718 -0.2343  0.1359
 1103TIP3    H124868   6.451   1.451   0.321 -0.3628  1.0811  1.9615
 1103TIP3    H224869   6.434   1.385   0.456  1.3543 -1.5737  0.9490
 1104TIP3   OH224870   3.569   1.884   7.503 -0.2510  0.0452 -0.2142
 1104TIP3    H124871   3.494   1.856   7.451 -0.0667 -0.0810 -0.4161
 1104TIP3    H224872   3.531   1.927   7.580 -0.5700  2.9628 -1.8572
 1105TIP3   OH224873   1.938   2.910   7.596 -0.7613 -0.1406 -0.1680
 1105TIP3    H124874   1.976   2.885   7.512  0.9686 -1.6114  0.9769
 1105TIP3    H224875   1.986   2.989   7.622 -1.0723  0.1269 -0.3944
 1106TIP3   OH224876   4.138   5.769   1.528 -0.9270 -0.3509  0.6869
 1106TIP3    H124877   4.110   5.732   1.444 -1.4828  2.1109 -0.2838
 1106TIP3    H224878   4.148   5.862   1.511  1.9241 -0.1897  2.6082
 1107TIP3   OH224879   2.684   5.031   8.651  0.4073 -0.0374 -0.2876
 1107TIP3    H124880   2.757   5.026   8.590 -0.5703  2.0532 -1.7367
 1107TIP3    H224881   2.699   4.959   8.713  1.3054 -2.4536 -3.0925
 1108TIP3   OH224882   4.671   0.775   8.440 -0.1151 -0.2019 -0.9328
 1108TIP3    H124883   4.622   0.746   8.517  0.6199  1.3048  0.1471
 1108TIP3    H224884   4.613   0.837   8.396  1.2558  2.8221  1.2129
 1109TIP3   OH224885   4.936   6.048   1.338 -0.5563  0.6565  0.4224
 1109TIP3    H124886   4.902   6.009   1.418  0.4730 -0.5548  0.3074
 1109TIP3    H224887   4.868   6.031   1.273 -0.6599  0.1216  0.6619
 1110TIP3   OH224888   1.219   4.946   1.384 -0.5290 -0.1359  0.5039
 1110TIP3    H124889   1.171   4.894   1.320  0.0189  0.0605 -0.0655
 1110TIP3    H224890   1.213   5.036   1.353 -0.3456 -0.0244  0.7812
 1111TIP3   OH224891   3.296   5.835   0.480 -0.1000  0.2792 -0.4987
 1111TIP3    H124892   3.241   5.759   0.461  0.4329  0.2563 -2.1484
 1111TIP3    H224893   3.342   5.813   0.560 -0.9005 -0.5931 -0.2625
 1112TIP3   OH224894   5.582   4.545   1.731  0.1553 -0.2360  0.5314
 1112TIP3    H124895   5.526   4.474   1.699 -1.1169  1.2057 -0.6108
 1112TIP3    H224896   5.668   4.527   1.694 -0.5635 -0.2855 -1.2166
 1113TIP3   OH224897   5.071   5.088   7.802 -0.4948  0.0578  0.0816
 1113TIP3    H124898   5.022   5.145   7.862  0.8802  0.0463  1.2852
 1113TIP3    H224899   5.098   5.014   7.856  1.2888  0.3344 -0.3668
 1114TIP3   OH224900   0.787   0.400   6.754 -0.0089  0.1017 -0.2156
 1114TIP3    H124901   0.852   0.390   6.824 -0.1368  0.8130  0.0122
 1114TIP3    H224902   0.703   0.404   6.800 -0.3192 -1.5565 -0.5458
 1115TIP3   OH224903   4.000   2.052   0.569  0.2932  0.0032  0.1147
 1115TIP3    H124904   3.997   1.957   0.558  0.1023 -0.0613  0.6524
 1115TIP3    H224905   4.089   2.077   0.546  0.1955 -0.2349 -0.5286
 1116TIP3   OH224906   2.122   5.610   0.195  0.3650 -0.3842 -0.1573
 1116TIP3    H124907   2.197   5.564   0.231  0.3119 -0.2519  0.1236
 1116TIP3    H224908   2.111   5.574   0.107  0.6798 -0.4915 -0.1519
 1117TIP3   OH224909   0.199   4.215   8.763  0.1766  0.1228  0.1958
 1117TIP3    H124910   0.123   4.192   8.711 -0.8451  0.4949  1.4791
 1117TIP3    H224911   0.169   4.283   8.823  0.9335 -1.1376  2.1274
 1118TIP3   OH224912   3.810   6.633   7.601  0.0752 -0.1306 -0.2454
 1118TIP3    H124913   3.872   6.568   7.634  0.1638 -0.2003 -0.5452
 1118TIP3    H224914   3.755   6.585   7.539 -2.1315 -0.7908  2.0331
 1119TIP3   OH224915   5.021   6.718   8.020 -0.0598  0.2980  0.6404
 1119TIP3    H124916   4.987   6.769   7.947  0.4115 -1.3181 -0.7579
 1119TIP3    H224917   5.070   6.782   8.073 -0.5733  1.5308 -0.3379
 1120TIP3   OH224918   6.004   1.219   8.290  0.9133 -0.6023 -0.4217
 1120TIP3    H124919   5.969   1.238   8.377 -0.4961 -0.3814 -1.0224
 1120TIP3    H224920   6.051   1.298   8.265 -0.2098  0.0169 -0.5987
 1121TIP3   OH224921   4.966   5.071   7.552  0.0148  0.1271  0.5070
 1121TIP3    H124922   4.873   5.092   7.552 -0.4533 -1.7508  0.4816
 1121TIP3    H224923   4.990   5.065   7.645 -0.1490 -0.3754  0.5204
 1122TIP3   OH224924   3.688   3.630   8.925 -0.5037  0.2603 -0.2398
 1122TIP3    H124925   3.730   3.676   8.999  1.9160 -1.9059 -0.0949
 1122TIP3    H224926   3.687   3.694   8.855  0.4191  1.3307  0.6707
 1123TIP3   OH224927   4.447   5.409   8.522 -0.0079 -0.2228 -0.5263
 1123TIP3    H124928   4.415   5.470   8.588 -2.2441  0.3596 -2.0205
 1123TIP3    H224929   4.540   5.428   8.513  0.0277  0.6500  1.4097
 1124TIP3   OH224930   0.464   6.420   7.667  0.0470  0.2044 -0.0491
 1124TIP3    H124931   0.510   6.393   7.747 -0.7415  0.5104  0.5266
 1124TIP3    H224932   0.416   6.498   7.693  0.8584  1.1093 -1.2124
 1125TIP3   OH224933   2.004   5.866   8.161  0.1896 -0.1804 -0.2121
 1125TIP3    H124934   2.019   5.960   8.151  0.9598 -0.2898 -0.1654
 1125TIP3    H224935   2.088   5.826   8.140 -0.5326 -0.9680 -1.7159
 1126TIP3   OH224936   5.982   5.272   2.218  0.6125  0.0371 -0.3208
 1126TIP3    H124937   5.943   5.347   2.172 -0.2350 -0.6061 -0.6865
 1126TIP3    H224938   5.932   5.265   2.299  1.8438  0.9229  0.5486
 1127TIP3   OH224939   1.511   1.612   1.373  0.7306  0.1995  0.2374
 1127TIP3    H124940   1.562   1.622   1.454 -1.2321  0.1493  1.5492
 1127TIP3    H224941   1.515   1.519   1.354  0.3764  0.0421  0.8848
 1128TIP3   OH224942   3.228   0.460   0.519 -0.4255 -0.0430 -0.4128
 1128TIP3    H124943   3.277   0.507   0.451  1.3550 -1.3277 -0.1065
 1128TIP3    H224944   3.165   0.407   0.471 -0.1503  0.1266 -0.9744
 1129TIP3   OH224945   2.261   5.107   8.127  0.3198  0.4557 -0.0310
 1129TIP3    H124946   2.342   5.156   8.141  1.4765 -1.8928  2.4634
 1129TIP3    H224947   2.209   5.124   8.206 -0.0144 -0.8053  0.0532
 1130TIP3   OH224948   1.067   3.038   0.603  0.0973  0.0419  0.0922
 1130TIP3    H124949   1.003   3.007   0.668 -1.3534  1.0834 -0.7660
 1130TIP3    H224950   1.131   3.087   0.654 -0.9965  0.8173  0.7672
 1131TIP3   OH224951   1.057   4.914   1.113 -0.0526  0.1355  0.1650
 1131TIP3    H124952   1.138   4.941   1.069  0.0816 -0.1548  0.2375
 1131TIP3    H224953   0.999   4.990   1.103  0.3359  0.4717  0.3954
 1132TIP3   OH224954   4.898   4.789   7.446  0.2301  0.1625 -0.8523
 1132TIP3    H124955   4.921   4.855   7.512  0.0503 -1.7281  1.2493
 1132TIP3    H224956   4.983   4.756   7.415  0.3199  0.7281 -1.2143
 1133TIP3   OH224957   6.092   5.702   7.311  0.3748 -0.0656  0.1239
 1133TIP3    H124958   6.161   5.744   7.362 -0.4811  0.2303  1.0818
 1133TIP3    H224959   6.089   5.612   7.345 -1.0958  0.4897  1.6260
 1134TIP3   OH224960   4.255   5.765   7.716  0.4625  0.1873 -0.7453
 1134TIP3    H124961   4.293   5.783   7.803  0.6585 -1.0698 -0.5444
 1134TIP3    H224962   4.322   5.793   7.654  0.7032  0.2461 -0.4611
 1135TIP3   OH224963   2.814   0.247   0.891 -0.1192  0.1531  0.4372
 1135TIP3    H124964   2.796   0.225   0.982  1.2509  1.0404  0.9435
 1135TIP3    H224965   2.754   0.319   0.872 -2.2112 -1.6429 -0.1933
 1136TIP3   OH224966   4.185   4.852   0.534  0.4997 -0.1567 -0.3457
 1136TIP3    H124967   4.241   4.889   0.603  0.4478  0.7386 -0.7695
 1136TIP3    H224968   4.175   4.760   0.558  3.4431 -0.7763 -1.0803
 1137TIP3   OH224969   6.714   3.132   1.873 -0.1404 -0.2804 -0.6351
 1137TIP3    H124970   6.656   3.060   1.848  1.1146 -2.0814  1.2964
 1137TIP3    H224971   6.698   3.143   1.967  3.3146 -1.6054  0.2493
 1138TIP3   OH224972   1.719   2.271   6.602 -0.4096 -0.5045 -0.2748
 1138TIP3    H124973   1.779   2.199   6.581 -0.1526 -0.3032 -0.2390
 1138TIP3    H224974   1.777   2.344   6.625 -0.6165 -1.1553  2.7992
 1139TIP3   OH224975   0.437   3.308   7.821  0.3361  0.6094 -0.1018
 1139TIP3    H124976   0.432   3.392   7.775 -0.0786 -1.3607 -4.0650
 1139TIP3    H224977   0.528   3.303   7.850  0.2836  2.5254  0.5129
 1140TIP3   OH224978   4.626   4.273   1.182  0.5362 -0.3124  0.1081
 1140TIP3    H124979   4.603   4.203   1.243  0.0004  0.6185  1.0085
 1140TIP3    H224980   4.563   4.263   1.110  0.8992 -1.1592 -0.1014
 1141TIP3   OH224981   3.705   2.667   2.249 -0.3357  0.5654 -0.4387
 1141TIP3    H124982   3.681   2.759   2.257  1.7389  1.1405 -0.2104
 1141TIP3    H224983   3.783   2.667   2.195  0.8172 -0.8630  1.1088
 1142TIP3   OH224984   2.409   4.292   8.529  0.6810 -0.3642 -0.1009
 1142TIP3    H124985   2.459   4.226   8.481 -0.4528 -0.3050 -1.4129
 1142TIP3    H224986   2.450   4.295   8.616  0.7113 -2.8763  0.0438
 1143TIP3   OH224987   3.903   1.281   1.025 -0.0072 -0.3571  0.0575
 1143TIP3    H124988   3.917   1.192   0.992  0.2494  0.3489 -1.8317
 1143TIP3    H224989   3.807   1.289   1.033  0.0047 -1.1246  1.2811
 1144TIP3   OH224990   3.987   2.553   8.215  0.2352 -0.2252 -0.3202
 1144TIP3    H124991   3.910   2.592   8.255  1.2844 -0.3567  1.9802
 1144TIP3    H224992   4.044   2.529   8.289  2.1632 -0.7951 -1.8814
 1145TIP3   OH224993   5.575   1.477   0.437 -0.3273  0.1877 -0.3745
 1145TIP3    H124994   5.580   1.400   0.494 -1.2967 -2.0533 -3.0854
 1145TIP3    H224995   5.627   1.453   0.360  0.4312  2.8321 -0.7741
 1146TIP3   OH224996   6.596   5.413   0.512  0.3296 -0.4441  0.2025
 1146TIP3    H124997   6.590   5.348   0.441 -1.5520  0.3997 -0.4924
 1146TIP3    H224998   6.600   5.497   0.467  1.0949  0.0239  1.1117
 1147TIP3   OH224999   3.176   3.937   7.757  0.9216 -0.0767 -0.2263
 1147TIP3    H125000   3.087   3.911   7.779  0.7885 -0.4872 -1.1894
 1147TIP3    H225001   3.166   4.023   7.717  0.7762 -0.7174 -1.6219
 1148TIP3   OH225002   6.680   2.031   0.126  0.1070  0.2243  0.2659
 1148TIP3    H125003   6.612   2.098   0.113  0.9974  0.8038 -1.7893
 1148TIP3    H225004   6.650   1.981   0.203 -0.7138  2.7922  1.7404
 1149TIP3   OH225005   2.305   3.468   8.374  0.7430 -0.7245 -0.0944
 1149TIP3    H125006   2.280   3.560   8.387  1.7112 -0.1543 -1.8901
 1149TIP3    H225007   2.400   3.468   8.381  0.9531 -1.1540 -2.1450
 1150TIP3   OH225008   5.111   4.636   1.318  0.8134 -0.6979 -0.7352
 1150TIP3    H125009   5.206   4.627   1.327  0.7504 -1.7556 -0.9804
 1150TIP3    H225010   5.084   4.557   1.271 -0.1998 -0.4434 -0.6049
 1151TIP3   OH225011   1.490   1.613   7.227  0.5057  0.0601 -0.1282
 1151TIP3    H125012   1.444   1.636   7.146  2.0598  0.4206 -0.9507
 1151TIP3    H225013   1.518   1.523   7.215 -0.1863 -0.2459  0.4786
 1152TIP3   OH225014   0.891   2.665   6.826 -0.1813 -0.1760 -0.8432
 1152TIP3    H125015   0.838   2.633   6.753 -1.1611  0.7910 -0.5697
 1152TIP3    H225016   0.977   2.681   6.787  0.4475 -3.1879 -0.9841
 1153TIP3   OH225017   1.653   4.108   7.746 -0.1376  0.6422  0.5571
 1153TIP3    H125018   1.631   4.019   7.774  1.0509  0.8788  2.4013
 1153TIP3    H225019   1.701   4.096   7.664 -0.6414 -0.3567  0.3908
 1154TIP3   OH225020   0.535   2.136   7.957  0.1045  0.4154 -0.1878
 1154TIP3    H125021   0.471   2.206   7.951  0.7631  1.0149 -0.3697
 1154TIP3    H225022   0.610   2.176   8.001  0.5768 -0.1062 -0.5028
 1155TIP3   OH225023   0.392   5.236   7.620 -0.3957 -0.0007  0.2521
 1155TIP3    H125024   0.311   5.275   7.653 -0.3747 -0.1375  0.4658
 1155TIP3    H225025   0.374   5.143   7.614  0.3518 -0.3171  2.1557
 1156TIP3   OH225026   5.526   6.152   0.079  0.1933 -0.1966  0.1471
 1156TIP3    H125027   5.584   6.119   0.148  0.7641  0.5657  0.0550
 1156TIP3    H225028   5.559   6.240   0.061 -1.6270  0.6688  0.7975
 1157TIP3   OH225029   5.243   6.741   7.539 -0.4540  0.2137 -0.0634
 1157TIP3    H125030   5.313   6.677   7.555  0.1581  0.8780 -0.0073
 1157TIP3    H225031   5.263   6.814   7.598 -0.9634  0.5876 -0.3435
 1158TIP3   OH225032   6.060   3.208   5.850  0.2193 -0.2352 -0.3585
 1158TIP3    H125033   6.053   3.196   5.945  0.4698  1.2904 -0.1282
 1158TIP3    H225034   6.103   3.128   5.820 -0.7725 -1.1970  0.6671
 1159TIP3   OH225035   5.330   0.625   8.662 -0.4514 -0.1640 -0.0739
 1159TIP3    H125036   5.302   0.698   8.718 -1.1523  0.0589 -0.6957
 1159TIP3    H225037   5.259   0.561   8.670 -0.8371  0.1064 -1.1251
 1160TIP3   OH225038   1.489   5.823   0.371  0.0773  0.3121  0.0906
 1160TIP3    H125039   1.498   5.785   0.283  1.5698  1.3453 -0.2436
 1160TIP3    H225040   1.478   5.916   0.355  3.8132  1.0824  0.9562
 1161TIP3   OH225041   1.780   5.394   0.188 -0.4559 -0.1929 -0.0830
 1161TIP3    H125042   1.855   5.339   0.212  1.5706  2.5062  0.2052
 1161TIP3    H225043   1.730   5.404   0.269  0.9680  0.9541  0.6991
 1162TIP3   OH225044   5.321   0.309   0.942 -0.1137  0.2559  0.0522
 1162TIP3    H125045   5.415   0.329   0.953 -0.2254  2.2728 -1.8683
 1162TIP3    H225046   5.305   0.235   1.000  2.2027  1.1872  2.0483
 1163TIP3   OH225047   5.286   5.294   7.202 -0.1125  0.2744  0.3421
 1163TIP3    H125048   5.290   5.205   7.167  1.0389  1.1913 -2.0632
 1163TIP3    H225049   5.366   5.336   7.171 -1.1710  2.4932  0.4136
 1164TIP3   OH225050   4.035   0.200   0.019  0.3438  0.1240  0.3967
 1164TIP3    H125051   3.963   0.224  -0.040  0.3987 -0.7521 -0.0567
 1164TIP3    H225052   4.004   0.225   0.106  1.0440  3.2363 -0.1353
 1165TIP3   OH225053   5.894   1.489   0.412  0.3012  0.0667  0.4993
 1165TIP3    H125054   5.979   1.494   0.457  0.4796 -0.3633  0.2138
 1165TIP3    H225055   5.885   1.397   0.389  0.5931  0.4103 -1.0695
 1166TIP3   OH225056   2.982   1.930   7.162  0.0981  0.6460 -0.1377
 1166TIP3    H125057   3.012   2.015   7.192  0.7990 -0.1352  1.4794
 1166TIP3    H225058   3.031   1.915   7.080  2.1248  0.6118  1.0131
 1167TIP3   OH225059   5.274   4.057   7.921 -0.2049  0.2687  0.4438
 1167TIP3    H125060   5.181   4.070   7.941 -0.9777 -1.6164 -1.5308
 1167TIP3    H225061   5.305   3.998   7.991 -0.8587 -0.1809  0.3658
 1168TIP3   OH225062   4.115   5.101   0.727 -0.4473  0.2939 -0.8717
 1168TIP3    H125063   4.036   5.113   0.780  0.6664  1.3732  0.6334
 1168TIP3    H225064   4.120   5.006   0.712 -1.4350  0.1008 -0.0635
 1169TIP3   OH225065   5.519   1.716   0.603 -0.4659  0.7017  0.0454
 1169TIP3    H125066   5.514   1.795   0.550  1.8373  0.0485 -1.2665
 1169TIP3    H225067   5.515   1.644   0.540  0.5037 -0.1420  0.9014
 1170TIP3   OH225068   5.899   3.685   7.605  0.3307  0.1672  0.6349
 1170TIP3    H125069   5.960   3.611   7.597 -1.4594 -1.7535  3.2288
 1170TIP3    H225070   5.930   3.747   7.539  2.1725 -2.6830 -1.4843
 1171TIP3   OH225071   3.528   3.598   2.095 -0.1424 -0.5623 -0.2758
 1171TIP3    H125072   3.488   3.672   2.140 -0.2639  1.9692 -4.0513
 1171TIP3    H225073   3.458   3.565   2.037  1.4066  0.0042 -2.5927
 1172TIP3   OH225074   1.484   4.466   8.848 -0.0931 -0.0899 -0.3147
 1172TIP3    H125075   1.509   4.545   8.896  1.7919 -0.4612 -0.6135
 1172TIP3    H225076   1.499   4.395   8.911 -1.0174 -0.2902 -0.3094
 1173TIP3   OH225077   5.784   6.078   8.299 -0.1027  0.0354  0.9061
 1173TIP3    H125078   5.698   6.096   8.262 -0.4186 -0.3432  1.4360
 1173TIP3    H225079   5.776   6.101   8.392  0.9365  1.8114  0.5893
 1174TIP3   OH225080   0.144   3.837   7.264  0.2695 -0.1784  0.2302
 1174TIP3    H125081   0.087   3.914   7.271  0.0070 -0.5028  1.9810
 1174TIP3    H225082   0.172   3.838   7.172 -0.3932  1.5161 -0.0100
 1175TIP3   OH225083   0.753   6.115   7.876  0.2119  0.3807 -0.0680
 1175TIP3    H125084   0.746   6.210   7.883 -0.9875  0.4633 -1.8445
 1175TIP3    H225085   0.835   6.094   7.922  0.6812  2.2895  0.0642
 1176TIP3   OH225086   1.368   3.241   7.260 -0.0325 -0.0379  0.3180
 1176TIP3    H125087   1.326   3.325   7.242 -0.2292  0.0641  1.2512
 1176TIP3    H225088   1.299   3.176   7.244 -0.3350  0.0811  1.1264
 1177TIP3   OH225089   3.653   4.884   0.012  0.1660 -0.2075 -0.3203
 1177TIP3    H125090   3.742   4.907   0.036 -0.7739  1.3774  1.9725
 1177TIP3    H225091   3.640   4.796   0.048  0.5789 -0.1531 -0.0383
 1178TIP3   OH225092   4.768   5.227   7.150  0.6143 -0.0523  0.0141
 1178TIP3    H125093   4.848   5.179   7.171  0.5467 -0.2932 -0.2668
 1178TIP3    H225094   4.772   5.241   7.055  0.3925  0.0547  0.0197
 1179TIP3   OH225095   1.272   3.758   1.345  0.6241 -0.1877 -0.4687
 1179TIP3    H125096   1.239   3.760   1.435  0.6010 -0.0606 -0.4789
 1179TIP3    H225097   1.213   3.816   1.297  0.3927 -0.5699 -0.6519
 1180TIP3   OH225098   4.209   0.239   8.084  0.4932 -0.4569 -0.0257
 1180TIP3    H125099   4.144   0.301   8.051  0.2467 -0.0059  1.2596
 1180TIP3    H225100   4.188   0.156   8.040  0.1182  0.0814 -0.8906
 1181TIP3   OH225101   3.160   3.370   8.468 -0.4263  0.2628 -0.3385
 1181TIP3    H125102   3.091   3.383   8.533 -0.4203  1.5316 -0.5715
 1181TIP3    H225103   3.183   3.458   8.438  1.2831 -0.1215 -0.2798
 1182TIP3   OH225104   6.310   0.442   2.240 -0.6170 -0.4852 -0.1667
 1182TIP3    H125105   6.396   0.409   2.265 -0.5807  0.1353  0.5737
 1182TIP3    H225106   6.249   0.395   2.297 -0.5669  0.6563  0.8749
 1183TIP3   OH225107   4.892   1.782   7.476  0.5650 -0.2589  0.1021
 1183TIP3    H125108   4.963   1.750   7.532  1.9858  0.3768 -1.2545
 1183TIP3    H225109   4.936   1.808   7.395 -1.2150  0.3394 -0.7139
 1184TIP3   OH225110   6.729   2.025   7.347 -0.1234  0.4345 -0.4845
 1184TIP3    H125111   6.654   2.070   7.309  0.3490  0.5504 -1.3326
 1184TIP3    H225112   6.692   1.955   7.401 -0.8447  0.0016 -1.5025
 1185TIP3   OH225113   5.549   0.863   0.045  0.3865  0.4696 -0.0598
 1185TIP3    H125114   5.576   0.826  -0.039  2.5920  0.3948  0.6212
 1185TIP3    H225115   5.496   0.794   0.086 -1.8677  0.9987 -1.8599
 1186TIP3   OH225116   5.514   6.215   7.907 -0.2767 -0.2029  0.1926
 1186TIP3    H125117   5.493   6.232   7.999  0.3723 -0.4639  0.3909
 1186TIP3    H225118   5.452   6.146   7.880 -2.4818  1.8806 -0.4284
 1187TIP3   OH225119   4.104   2.869   0.930  0.1108 -0.1847  0.4736
 1187TIP3    H125120   4.133   2.927   1.001 -0.4635  0.5362  0.1364
 1187TIP3    H225121   4.014   2.896   0.912  0.1466 -0.5549 -0.3299
 1188TIP3   OH225122   0.958   6.344   7.371  0.5099 -0.1979  0.2951
 1188TIP3    H125123   0.960   6.304   7.458  1.4569  0.2695  0.5052
 1188TIP3    H225124   0.973   6.437   7.387 -1.8451  0.3214 -0.1733
 1189TIP3   OH225125   6.231   1.354   3.013 -0.1544 -0.1896  0.3089
 1189TIP3    H125126   6.266   1.309   2.936 -0.4762  1.7063 -0.9930
 1189TIP3    H225127   6.190   1.433   2.979 -0.2413  0.7597  2.4440
 1190TIP3   OH225128   4.665   3.053   6.992  0.0702  0.1487 -0.2185
 1190TIP3    H125129   4.752   3.030   6.961  0.7828  1.6630  0.5416
 1190TIP3    H225130   4.663   3.023   7.083 -0.7039 -1.0539 -0.6086
 1191TIP3   OH225131   4.088   1.570   8.575 -0.5168 -0.1412  0.1160
 1191TIP3    H125132   4.146   1.617   8.515  0.7870 -0.7658  0.8189
 1191TIP3    H225133   4.147   1.510   8.622 -1.6804 -0.4974  1.1697
 1192TIP3   OH225134   4.648   4.159   6.187  0.2802 -0.2820  0.0336
 1192TIP3    H125135   4.706   4.235   6.193 -2.2996  1.8481 -0.3442
 1192TIP3    H225136   4.687   4.104   6.119  1.6702  1.2031 -0.4172
 1193TIP3   OH225137   6.651   3.374   6.481  0.2903 -0.0072  0.3700
 1193TIP3    H125138   6.737   3.364   6.521  0.0561  1.0982  1.1998
 1193TIP3    H225139   6.624   3.284   6.460  1.1792 -0.4657  1.1092
 1194TIP3   OH225140   0.919   0.312   7.560 -0.2799 -0.3052 -0.0248
 1194TIP3    H125141   0.895   0.376   7.493 -1.3051  1.7656  2.1864
 1194TIP3    H225142   0.962   0.363   7.628 -1.6461 -1.8161  2.1082
 1195TIP3   OH225143   5.004   3.156   7.425 -0.1000 -0.1310 -0.0468
 1195TIP3    H125144   5.053   3.078   7.401  2.2630  0.2302  3.0249
 1195TIP3    H225145   5.052   3.228   7.384 -1.6221 -0.1016 -1.9283
 1196TIP3   OH225146   1.470   5.601   8.475  0.7302  0.3597  0.0853
 1196TIP3    H125147   1.520   5.622   8.396  1.9465 -1.1851  0.3947
 1196TIP3    H225148   1.379   5.593   8.445  1.2786 -0.9702 -1.3333
 1197TIP3   OH225149   4.298   1.374   1.641 -0.4621 -0.2520  0.1131
 1197TIP3    H125150   4.208   1.349   1.663 -0.3343 -0.4020  0.4550
 1197TIP3    H225151   4.353   1.316   1.693 -0.1517  1.1895  1.4746
 1198TIP3   OH225152   1.699   4.003   8.571  0.4211  0.4127 -0.6986
 1198TIP3    H125153   1.660   3.954   8.643  0.5343  0.4404 -0.6183
 1198TIP3    H225154   1.638   4.075   8.555 -0.6417 -0.6926 -1.9313
 1199TIP3   OH225155   1.465   5.295   1.656 -0.0934 -0.2455 -0.6616
 1199TIP3    H125156   1.511   5.218   1.623 -0.4821 -0.2799 -1.1489
 1199TIP3    H225157   1.497   5.307   1.745  0.8729 -0.2428 -1.0013
 1200TIP3   OH225158   5.865   0.853   0.671 -0.1246 -0.1939 -0.2122
 1200TIP3    H125159   5.774   0.857   0.642  0.2731  0.7149 -1.4378
 1200TIP3    H225160   5.917   0.865   0.591  1.0313  2.6238  0.7989
 1201TIP3   OH225161   0.089   5.213   8.507 -0.2923 -0.0115  0.5317
 1201TIP3    H125162   0.117   5.293   8.463 -0.7865 -0.1041  0.0301
 1201TIP3    H225163   0.170   5.174   8.541  0.3234 -0.7067 -1.6005
 1202TIP3   OH225164   5.946   4.426   6.442  0.6342  0.2964  0.4408
 1202TIP3    H125165   5.970   4.515   6.416  1.4388 -0.1123 -0.2961
 1202TIP3    H225166   5.858   4.413   6.405  2.1759 -0.6777 -3.4332
 1203TIP3   OH225167   2.800   2.172   7.470  0.5964 -0.4264  0.5732
 1203TIP3    H125168   2.823   2.181   7.562 -0.2232  0.5206  0.6966
 1203TIP3    H225169   2.882   2.149   7.427  0.8766 -1.5053  1.6122
 1204TIP3   OH225170   0.907   0.721   2.112 -0.3074 -0.2614 -0.5265
 1204TIP3    H125171   0.890   0.783   2.041 -0.9803  1.1456  0.8144
 1204TIP3    H225172   0.820   0.699   2.146  0.0024 -1.0114 -0.2023
 1205TIP3   OH225173   3.910   5.689   7.433  0.3369  0.5485  0.1978
 1205TIP3    H125174   3.868   5.619   7.383 -1.5267  0.9275  1.1574
 1205TIP3    H225175   3.976   5.724   7.373  0.6018 -1.3038 -0.6858
 1206TIP3   OH225176   5.748   5.783   1.850 -0.4311  0.5849  0.3392
 1206TIP3    H125177   5.714   5.695   1.867 -0.4465  0.9914  2.8061
 1206TIP3    H225178   5.673   5.841   1.865  0.1720  1.1676  1.1827
 1207TIP3   OH225179   1.273   4.086   0.539 -0.3238  0.0030  0.2103
 1207TIP3    H125180   1.260   4.109   0.631  1.4383  0.1234  0.4656
 1207TIP3    H225181   1.306   4.167   0.499 -0.1688 -0.3232 -0.3292
 1208TIP3   OH225182   4.884   3.335   6.418  0.1563  0.0198  0.1296
 1208TIP3    H125183   4.805   3.284   6.399 -0.5879  1.4495 -0.7921
 1208TIP3    H225184   4.920   3.295   6.497 -0.5332 -1.7376 -0.3888
 1209TIP3   OH225185   6.706   1.815   7.501 -0.4137 -0.0981 -0.2412
 1209TIP3    H125186   6.699   1.851   7.589 -1.2595 -0.4784 -0.1398
 1209TIP3    H225187   6.718   1.721   7.514 -0.6094 -0.1663 -0.5283
 1210TIP3   OH225188   6.367   0.951   0.085 -0.0699 -0.1216 -0.2418
 1210TIP3    H125189   6.321   1.004   0.021  0.0278 -0.2470 -0.4175
 1210TIP3    H225190   6.368   1.004   0.164 -1.8799 -0.7410  0.2471
 1211TIP3   OH225191   5.240   2.095   7.100  0.1041 -0.5930  0.4716
 1211TIP3    H125192   5.197   2.176   7.071  1.5834 -0.2902 -1.0591
 1211TIP3    H225193   5.194   2.026   7.053 -1.8948 -0.8412  2.6139
 1212TIP3   OH225194   0.748   0.179   7.733 -0.0349 -0.0930 -0.2387
 1212TIP3    H125195   0.674   0.204   7.677  0.6774 -0.1166 -1.2306
 1212TIP3    H225196   0.824   0.219   7.690  0.5388 -0.1667  0.6943
 1213TIP3   OH225197   2.658   2.525   0.120 -0.5824 -0.1350  0.1018
 1213TIP3    H125198   2.624   2.475   0.193 -1.4200 -0.4355 -0.4746
 1213TIP3    H225199   2.581   2.565   0.080 -0.2586 -0.7230 -1.1616
 1214TIP3   OH225200   5.600   4.034   7.662 -0.4662 -0.1178  0.1995
 1214TIP3    H125201   5.563   3.952   7.692  0.8653 -1.0688 -0.6457
 1214TIP3    H225202   5.525   4.091   7.649 -1.9268 -2.5222 -3.2335
 1215TIP3   OH225203   4.923   1.411   8.047  0.2038  0.7581  0.2182
 1215TIP3    H125204   4.831   1.401   8.025 -0.2758  2.3502  1.3036
 1215TIP3    H225205   4.931   1.372   8.134  1.0220 -1.1622 -0.6699
 1216TIP3   OH225206   2.270   3.369   1.379 -0.0683 -0.6462 -0.4065
 1216TIP3    H125207   2.175   3.369   1.365  0.2565 -0.3879 -3.2051
 1216TIP3    H225208   2.284   3.309   1.452 -2.3523 -0.9355 -0.1414
 1217TIP3   OH225209   2.034   1.011   8.677 -0.4240  0.4496  0.1998
 1217TIP3    H125210   2.037   0.915   8.669 -0.6963  0.5166 -0.8832
 1217TIP3    H225211   2.109   1.033   8.732  0.1604 -0.3306 -0.2598
 1218TIP3   OH225212   5.652   2.815   8.939 -0.1723 -0.0982 -0.4584
 1218TIP3    H125213   5.600   2.772   8.872 -0.3654  0.5991 -0.7676
 1218TIP3    H225214   5.717   2.750   8.965  0.5921 -0.0241 -2.0928
 1219TIP3   OH225215   3.093   3.214   8.913  0.1211  0.1464 -0.5264
 1219TIP3    H125216   3.053   3.262   8.986 -0.9714  1.0229 -1.6787
 1219TIP3    H225217   3.184   3.246   8.911  0.0540  0.4017  0.1946
 1220TIP3   OH225218   4.938   2.119   0.357 -0.1455 -0.2546 -0.1865
 1220TIP3    H125219   4.979   2.202   0.382  1.3322 -1.1370  0.4224
 1220TIP3    H225220   4.856   2.145   0.314 -1.2264  1.4323  2.6495
 1221TIP3   OH225221   5.981   2.111   8.319 -0.2180  0.1142 -0.5493
 1221TIP3    H125222   6.069   2.105   8.282  0.0491  1.8259 -0.2880
 1221TIP3    H225223   5.941   2.026   8.301  0.9397 -0.1410 -2.0925
 1222TIP3   OH225224   2.694   4.045   2.634  0.0811 -0.1355  0.0915
 1222TIP3    H125225   2.608   4.051   2.676  0.4219  2.1010  0.5696
 1222TIP3    H225226   2.698   4.121   2.575  1.7649 -0.1431  0.1418
 1223TIP3   OH225227   5.980   3.278   8.138 -0.8149 -0.0700 -0.0702
 1223TIP3    H125228   5.886   3.260   8.129 -1.5927  2.1287  2.2510
 1223TIP3    H225229   5.994   3.355   8.083 -0.1732 -0.7874 -0.9378
 1224TIP3   OH225230   1.233   4.859   2.204 -0.3920  0.3326  0.2074
 1224TIP3    H125231   1.194   4.936   2.245 -0.2216  0.0306  0.9406
 1224TIP3    H225232   1.174   4.787   2.229  0.3497 -0.0439  0.9013
 1225TIP3   OH225233   5.110   3.165   0.195 -0.6115  0.3532 -0.5363
 1225TIP3    H125234   5.146   3.135   0.278 -0.6866 -1.6096 -1.1647
 1225TIP3    H225235   5.022   3.127   0.192 -0.5438  0.2628 -1.5986
 1226TIP3   OH225236   4.198   3.193   8.793  0.2427  0.5332  0.4648
 1226TIP3    H125237   4.183   3.284   8.769  0.6866  0.4403 -0.1818
 1226TIP3    H225238   4.284   3.192   8.834 -0.2571  0.5904  1.5615
 1227TIP3   OH225239   4.045   4.482   8.158  0.2135 -0.4064  0.4153
 1227TIP3    H125240   4.079   4.524   8.079  0.3253  1.4379  1.3799
 1227TIP3    H225241   3.952   4.470   8.141  0.6094 -2.0189 -0.7935
 1228TIP3   OH225242   6.560   3.721   7.481 -0.1165 -0.2913 -0.0752
 1228TIP3    H125243   6.493   3.653   7.472 -1.5880  1.3566 -2.9444
 1228TIP3    H225244   6.546   3.757   7.569 -2.2380 -0.7932 -0.1640
 1229TIP3   OH225245   3.628   2.534   1.033  0.1314  0.0480  0.3229
 1229TIP3    H125246   3.657   2.474   0.964  1.2780  1.3286 -0.3455
 1229TIP3    H225247   3.708   2.574   1.066 -0.4808  0.1025  1.8127
 1230TIP3   OH225248   4.282   6.395   1.126  0.6958  0.5826  0.0768
 1230TIP3    H125249   4.288   6.458   1.054  0.3106  0.2625 -0.2445
 1230TIP3    H225250   4.282   6.309   1.083 -1.4939  0.4090  0.2792
 1231TIP3   OH225251   4.469   6.742   8.564  0.3152  0.0747 -0.8918
 1231TIP3    H125252   4.465   6.702   8.478 -1.3978  0.3955 -0.9897
 1231TIP3    H225253   4.478   6.836   8.547  0.7024  0.0764 -0.7001
 1232TIP3   OH225254   3.407   0.807   2.554  0.2101  0.1168  0.2035
 1232TIP3    H125255   3.322   0.772   2.582 -0.4626  0.0708 -1.7354
 1232TIP3    H225256   3.452   0.732   2.515  0.0872  0.6741 -1.0455
 1233TIP3   OH225257   1.217   1.613   7.630  0.3360  0.3964 -0.6447
 1233TIP3    H125258   1.224   1.524   7.595  2.5622  0.1083  0.3317
 1233TIP3    H225259   1.138   1.612   7.683 -0.1075 -0.7732 -1.2854
 1234TIP3   OH225260   6.623   2.650   8.142 -0.1398  0.3221 -0.0885
 1234TIP3    H125261   6.620   2.679   8.233  0.4205 -1.0315  0.3863
 1234TIP3    H225262   6.672   2.718   8.096 -1.5089  1.6488  0.3478
 1235TIP3   OH225263   5.681   5.040   7.475 -0.5927  0.0737 -0.1052
 1235TIP3    H125264   5.677   5.081   7.389  1.2891  0.0405 -0.2645
 1235TIP3    H225265   5.771   5.055   7.504 -1.4949  1.0532  2.3671
 1236TIP3   OH225266   3.827   6.331   0.852  0.3325 -0.3219  0.1696
 1236TIP3    H125267   3.784   6.252   0.885 -1.6741  0.4523 -0.4697
 1236TIP3    H225268   3.822   6.394   0.924 -1.3017  0.3649 -0.5082
 1237TIP3   OH225269   1.629   6.749   1.179 -0.2006  0.1052  0.5091
 1237TIP3    H125270   1.623   6.760   1.084  0.7846 -0.0982  0.4171
 1237TIP3    H225271   1.545   6.781   1.211 -1.3320 -1.6139 -0.5645
 1238TIP3   OH225272   0.368   5.622   2.396 -0.1672  0.2808  0.4177
 1238TIP3    H125273   0.402   5.705   2.429 -0.0509  0.2480  0.3804
 1238TIP3    H225274   0.406   5.613   2.309 -0.5960  0.4378  0.2127
 1239TIP3   OH225275   2.872   4.596   2.199  0.2701 -0.4734 -0.5464
 1239TIP3    H125276   2.945   4.588   2.261 -1.1821  1.5160  1.5635
 1239TIP3    H225277   2.814   4.523   2.221  0.7885 -1.0755 -1.1143
 1240TIP3   OH225278   6.384   0.621   8.803 -0.4876 -0.2048 -0.2534
 1240TIP3    H125279   6.367   0.540   8.754  0.5257 -0.5575 -0.0480
 1240TIP3    H225280   6.359   0.600   8.893  0.2603 -0.4722 -0.0997
 1241TIP3   OH225281   1.875   1.342   8.070  0.0237  1.0580 -0.6250
 1241TIP3    H125282   1.958   1.303   8.095 -0.1906  0.7123 -0.4440
 1241TIP3    H225283   1.809   1.282   8.105 -0.2944  0.9151 -1.4424
 1242TIP3   OH225284   3.038   2.420   0.521 -0.3629  0.4521  0.7379
 1242TIP3    H125285   3.125   2.381   0.527 -0.0341  1.3940  3.7673
 1242TIP3    H225286   2.979   2.347   0.499  0.9609 -0.4946  0.2349
 1243TIP3   OH225287   2.388   2.717   2.574 -0.2188  0.1660  0.8034
 1243TIP3    H125288   2.367   2.808   2.550  0.1729  0.0847  0.1465
 1243TIP3    H225289   2.305   2.671   2.565 -0.1067  0.1599 -0.3087
 1244TIP3   OH225290   2.023   5.843   2.055 -0.2956  0.3551  0.1520
 1244TIP3    H125291   2.033   5.938   2.065 -1.3736  0.6262 -1.1435
 1244TIP3    H225292   2.107   5.814   2.019 -0.2149  0.9245 -0.1251
 1245TIP3   OH225293   4.928   1.635   8.385  0.3441 -0.0996  0.1065
 1245TIP3    H125294   4.915   1.655   8.478 -1.0787 -0.0761 -0.0701
 1245TIP3    H225295   4.892   1.547   8.374 -1.9905  0.8758 -0.8867
 1246TIP3   OH225296   1.142   2.270   7.152  0.0406 -0.5832  0.0694
 1246TIP3    H125297   1.123   2.331   7.081 -1.8430  0.3302  1.2677
 1246TIP3    H225298   1.062   2.217   7.159 -0.5793  0.5551  2.6197
 1247TIP3   OH225299   3.583   5.919   1.529  0.1116  0.0038 -0.5388
 1247TIP3    H125300   3.611   5.995   1.478  0.9506 -0.1843 -0.3783
 1247TIP3    H225301   3.658   5.860   1.527  0.1358 -0.0553  0.8266
 1248TIP3   OH225302   4.995   3.974   0.350 -0.1718  0.4095  0.4178
 1248TIP3    H125303   4.983   3.891   0.397 -0.4732  0.1625 -0.0871
 1248TIP3    H225304   4.907   4.006   0.334 -0.0646  0.6407  0.2782
 1249TIP3   OH225305   3.837   2.269   7.963  0.5337 -0.2156  0.1667
 1249TIP3    H125306   3.810   2.358   7.985  1.5643  0.3429 -0.7620
 1249TIP3    H225307   3.823   2.219   8.044  1.9311  1.2554  1.3892
 1250TIP3   OH225308   3.659   3.975   1.814 -0.1969 -0.2619 -0.7719
 1250TIP3    H125309   3.666   3.995   1.908  0.3831  0.5161 -0.9661
 1250TIP3    H225310   3.590   3.910   1.808  0.3490 -0.9699  0.2966
 1251TIP3   OH225311   5.369   3.281   0.725 -0.1217  0.6144  0.0603
 1251TIP3    H125312   5.285   3.269   0.769  0.7049 -1.2881  1.2628
 1251TIP3    H225313   5.395   3.370   0.748 -0.5333  0.2792  2.0676
 1252TIP3   OH225314   3.001   5.219   7.899 -0.1294  0.3150 -0.2220
 1252TIP3    H125315   3.010   5.268   7.817 -1.1358  0.4082 -0.2860
 1252TIP3    H225316   3.089   5.185   7.917  0.1177  0.3725 -1.2905
 1253TIP3   OH225317   6.702   4.667   1.329  0.1458 -0.1583  0.2666
 1253TIP3    H125318   6.708   4.602   1.400  0.5359 -0.0258  0.3579
 1253TIP3    H225319   6.688   4.614   1.250 -0.9249 -0.2743  0.5117
 1254TIP3   OH225320   5.185   5.617   0.174  0.2676  0.1066 -0.2250
 1254TIP3    H125321   5.106   5.632   0.122 -2.0733 -1.6442  2.5306
 1254TIP3    H225322   5.173   5.531   0.213  2.7960  0.4442  1.6074
 1255TIP3   OH225323   3.145   2.953   6.467 -0.1597 -0.5370  0.4288
 1255TIP3    H125324   3.224   3.002   6.492 -1.0423  1.8740 -1.1577
 1255TIP3    H225325   3.177   2.886   6.406  0.6002  1.4205 -1.4756
 1256TIP3   OH225326   2.235   4.581   0.614 -0.0867 -0.2012 -0.2312
 1256TIP3    H125327   2.266   4.665   0.650  0.0360 -0.4596  0.2688
 1256TIP3    H225328   2.237   4.594   0.520 -0.3285  0.4566 -0.1505
 1257TIP3   OH225329   4.421   6.100   8.570  0.1886  0.0610  0.4601
 1257TIP3    H125330   4.378   6.129   8.651 -1.0917 -0.6620  0.0671
 1257TIP3    H225331   4.445   6.009   8.587  1.7647  0.4819  0.7193
 1258TIP3   OH225332   4.231   3.169   0.750 -0.4890  0.1270  0.0060
 1258TIP3    H125333   4.151   3.179   0.801 -1.5201  2.4382 -1.8300
 1258TIP3    H225334   4.250   3.258   0.719  1.5670 -0.7306 -1.4123
 1259TIP3   OH225335   1.357   2.828   0.448 -0.1816  0.0856  0.3943
 1259TIP3    H125336   1.288   2.764   0.436  1.3540 -1.9720  1.9443
 1259TIP3    H225337   1.378   2.858   0.359 -0.4335 -2.1290 -0.4543
 1260TIP3   OH225338   1.971   0.587   7.248  0.1624  0.2519 -0.1058
 1260TIP3    H125339   1.971   0.534   7.328 -0.5483 -1.7510 -1.3595
 1260TIP3    H225340   1.892   0.641   7.254 -0.0266 -0.0784  0.4223
 1261TIP3   OH225341   4.150   3.820   1.991  0.0708  0.0302 -0.2114
 1261TIP3    H125342   4.184   3.905   1.964 -1.8876  0.8866 -0.1687
 1261TIP3    H225343   4.178   3.810   2.082 -0.8335  1.3246  0.2449
 1262TIP3   OH225344   0.601   3.204   6.496 -0.0880 -0.1635  0.3533
 1262TIP3    H125345   0.692   3.228   6.515  0.1509 -0.5659 -0.2361
 1262TIP3    H225346   0.563   3.283   6.458 -0.1851  0.2216  1.2383
 1263TIP3   OH225347   5.172   6.555   2.868  0.4365 -0.3205  0.1852
 1263TIP3    H125348   5.105   6.496   2.834 -0.4189  0.3360  0.6875
 1263TIP3    H225349   5.199   6.516   2.952  1.2812 -1.0056 -0.3826
 1264TIP3   OH225350   5.372   1.947   2.555  0.3850 -0.7895 -0.0729
 1264TIP3    H125351   5.286   1.950   2.598  0.2511 -1.4656 -0.2807
 1264TIP3    H225352   5.432   1.986   2.619  0.5066 -3.3210  1.5319
 1265TIP3   OH225353   0.228   4.707   1.619 -0.2108  0.5508  0.1791
 1265TIP3    H125354   0.236   4.680   1.710 -1.6715  2.4387  0.9527
 1265TIP3    H225355   0.271   4.638   1.569 -0.2889 -1.0635  2.2104
 1266TIP3   OH225356   4.972   1.708   0.699 -0.1809  0.0738  0.1960
 1266TIP3    H125357   4.884   1.747   0.700 -0.6033 -0.8505  0.3027
 1266TIP3    H225358   4.975   1.658   0.618 -0.2390 -0.9422  0.8017
 1267TIP3   OH225359   2.263   5.745   6.550 -0.3828 -0.4632  0.3507
 1267TIP3    H125360   2.239   5.825   6.504 -3.0366 -0.3753  1.7373
 1267TIP3    H225361   2.218   5.750   6.635 -0.0279 -3.0549  0.7984
 1268TIP3   OH225362   0.359   3.821   0.450  0.2982  0.1867  0.2110
 1268TIP3    H125363   0.346   3.832   0.544  4.8944  1.7466  0.9230
 1268TIP3    H225364   0.328   3.904   0.412  1.3775  0.9154  0.8515
 1269TIP3   OH225365   5.233   4.630   7.128 -0.0060  0.0588  0.0548
 1269TIP3    H125366   5.196   4.674   7.052 -0.2712  0.4848  0.4314
 1269TIP3    H225367   5.211   4.686   7.202  1.4491  0.3669  0.2803
 1270TIP3   OH225368   6.114   2.851   0.379  0.4821 -0.1239  0.0439
 1270TIP3    H125369   6.145   2.779   0.434  0.3575 -0.4991 -0.3721
 1270TIP3    H225370   6.181   2.860   0.312  0.3627 -0.0309 -0.0622
 1271TIP3   OH225371   6.099   4.147   7.679  0.1447 -0.0688 -0.3635
 1271TIP3    H125372   6.074   4.059   7.707 -0.4464 -0.0473 -0.8105
 1271TIP3    H225373   6.192   4.139   7.656  0.3817 -0.3135  0.6317
 1272TIP3   OH225374   0.124   3.304   6.603  0.6910  0.5543 -0.3773
 1272TIP3    H125375   0.151   3.305   6.695 -0.5918 -3.1283  0.1966
 1272TIP3    H225376   0.167   3.227   6.566 -2.2693 -0.6564 -1.6135
 1273TIP3   OH225377   6.445   4.260   1.733 -0.2491 -0.6020 -0.6273
 1273TIP3    H125378   6.419   4.325   1.798  3.1889 -0.4335  0.7520
 1273TIP3    H225379   6.439   4.305   1.649 -2.1630  0.0119 -0.2199
 1274TIP3   OH225380   5.097   2.038   7.581  0.3463 -0.2554  0.2566
 1274TIP3    H125381   5.071   2.064   7.492  1.1398 -0.2926  0.0093
 1274TIP3    H225382   5.040   2.090   7.638 -0.7955 -0.8855 -0.2647
 1275TIP3   OH225383   0.015   0.614   1.330 -0.1047  0.2595  0.6920
 1275TIP3    H125384   0.022   0.651   1.418 -1.1517  0.5135  0.6884
 1275TIP3    H225385   0.089   0.554   1.323  2.7581  3.5484  0.0862
 1276TIP3   OH225386   4.869   1.137   1.813 -0.2271 -0.4088 -0.3406
 1276TIP3    H125387   4.913   1.061   1.851  1.4730  0.7964  0.1912
 1276TIP3    H225388   4.909   1.212   1.857  0.0708  0.9294 -2.7612
 1277TIP3   OH225389   3.721   6.394   0.602 -0.2317  1.1243  0.0049
 1277TIP3    H125390   3.781   6.453   0.557 -1.6841  1.4334 -1.5763
 1277TIP3    H225391   3.761   6.382   0.689  2.5446  0.6675 -1.2058
 1278TIP3   OH225392   4.180   6.035   1.397 -0.2470  0.0608 -0.5764
 1278TIP3    H125393   4.205   6.100   1.462  0.0196 -0.8393  0.2489
 1278TIP3    H225394   4.249   6.039   1.331  0.7424 -0.5960  0.3716
 1279TIP3   OH225395   4.117   1.636   7.559  0.1519 -0.4848 -0.1291
 1279TIP3    H125396   4.167   1.645   7.640 -1.6552  0.9315  0.9073
 1279TIP3    H225397   4.026   1.629   7.587 -0.3902 -1.6917 -1.9868
 1280TIP3   OH225398   0.704   2.118   7.396 -0.3161 -0.5283 -0.0368
 1280TIP3    H125399   0.719   2.164   7.314  2.0148 -0.4701  0.3331
 1280TIP3    H225400   0.649   2.177   7.447 -3.3413 -1.3264 -2.0989
 1281TIP3   OH225401   4.483   1.756   7.914  0.5080 -0.1184 -0.3861
 1281TIP3    H125402   4.550   1.713   7.861  1.6298  1.9846 -0.7839
 1281TIP3    H225403   4.487   1.848   7.888 -1.3578  0.3736  0.8479
 1282TIP3   OH225404   3.058   6.122   0.798  0.0632 -0.6362 -0.1654
 1282TIP3    H125405   2.965   6.137   0.785  0.0884 -0.3228  0.0182
 1282TIP3    H225406   3.087   6.194   0.854  0.0393 -1.7284  1.3248
 1283TIP3   OH225407   0.364   6.181   1.949  0.6251  0.4036 -0.1269
 1283TIP3    H125408   0.455   6.173   1.918  0.4891  0.8870 -0.6652
 1283TIP3    H225409   0.324   6.243   1.889 -0.5221 -1.0334 -0.9101
 1284TIP3   OH225410   3.012   4.340   0.502  0.2957  0.5510  0.2887
 1284TIP3    H125411   3.106   4.353   0.516  0.4964 -0.4846  0.0052
 1284TIP3    H225412   2.984   4.417   0.453  0.8552  1.1935  0.9630
 1285TIP3   OH225413   1.474   6.304   0.091  0.4422 -0.4850  0.1389
 1285TIP3    H125414   1.508   6.278   0.005  0.5425 -2.1017  0.6386
 1285TIP3    H225415   1.389   6.344   0.071  1.3859  1.1113 -0.8718
 1286TIP3   OH225416   5.515   0.220   7.490 -0.1357  0.2085  0.1174
 1286TIP3    H125417   5.552   0.222   7.578 -3.5251 -0.5156  1.6831
 1286TIP3    H225418   5.436   0.273   7.495 -1.1874 -1.0027 -2.1384
 1287TIP3   OH225419   6.107   1.779   1.376 -0.3828  0.0693  0.4283
 1287TIP3    H125420   6.140   1.736   1.297  0.0121 -0.2910  0.7843
 1287TIP3    H225421   6.025   1.733   1.396 -0.5948  0.3052  0.1096
 1288TIP3   OH225422   4.684   2.700   8.507  0.2716 -0.3641 -0.0737
 1288TIP3    H125423   4.617   2.668   8.568 -1.0322  1.6093 -0.4058
 1288TIP3    H225424   4.704   2.788   8.537  1.9793 -0.5340 -0.6313
 1289TIP3   OH225425   1.286   5.420   0.297 -0.0828  0.5824 -0.6012
 1289TIP3    H125426   1.367   5.401   0.249 -0.2024  1.4404 -1.1631
 1289TIP3    H225427   1.252   5.500   0.257  0.0079  1.5593  1.1806
 1290TIP3   OH225428   0.547   3.496   1.074 -0.1880  0.2618  0.4839
 1290TIP3    H125429   0.634   3.476   1.107  0.0984  0.6248 -0.0348
 1290TIP3    H225430   0.488   3.464   1.142  0.1208 -3.8440 -0.8826
 1291TIP3   OH225431   2.876   3.331   6.889 -0.3393  0.6101  0.2053
 1291TIP3    H125432   2.786   3.299   6.884 -0.5298  1.1207  0.2965
 1291TIP3    H225433   2.910   3.320   6.800 -0.0708 -0.7685  0.4596
 1292TIP3   OH225434   6.157   1.293   1.023  0.4750  0.2665 -0.7772
 1292TIP3    H125435   6.074   1.253   1.048 -0.5812  2.1459 -1.0994
 1292TIP3    H225436   6.221   1.256   1.084 -1.2828  1.5920  2.1097
 1293TIP3   OH225437   6.275   5.650   1.649  0.3057 -0.7187 -0.0527
 1293TIP3    H125438   6.347   5.668   1.709  0.6882  2.3332 -1.2037
 1293TIP3    H225439   6.196   5.663   1.701  0.6159 -0.7273  0.4277
 1294TIP3   OH225440   5.625   6.732   7.401 -0.2506  0.0618  0.4026
 1294TIP3    H125441   5.570   6.810   7.412  0.9034  0.8664  0.7037
 1294TIP3    H225442   5.681   6.732   7.479  0.7620 -0.2456 -0.3092
 1295TIP3   OH225443   2.836   5.432   2.102 -0.4444  0.0911  0.2615
 1295TIP3    H125444   2.931   5.435   2.112 -0.3541 -1.0510 -0.0654
 1295TIP3    H225445   2.821   5.362   2.038 -1.4685  0.7558 -0.2559
 1296TIP3   OH225446   2.956   6.694   1.192  0.0273  0.1668 -0.2897
 1296TIP3    H125447   2.982   6.651   1.111 -1.7440 -1.3267 -0.1532
 1296TIP3    H225448   2.879   6.746   1.168  1.0358  1.8417 -0.0545
 1297TIP3   OH225449   5.992   5.139   7.045  0.2949  0.4324  0.0286
 1297TIP3    H125450   5.917   5.148   6.986  0.2798 -0.1242 -0.0409
 1297TIP3    H225451   6.018   5.048   7.036  1.3880  0.7765 -0.4380
 1298TIP3   OH225452   0.433   3.413   0.748 -0.2560 -0.5451  0.3969
 1298TIP3    H125453   0.524   3.435   0.724 -0.4208  0.2913  0.5251
 1298TIP3    H225454   0.387   3.407   0.664 -0.5617  1.1939  0.4108
 1299TIP3   OH225455   3.722   0.405   2.609  0.7823  0.1395 -0.4753
 1299TIP3    H125456   3.643   0.430   2.658  1.4684  1.6811 -0.0927
 1299TIP3    H225457   3.786   0.383   2.677  1.0451  0.0609 -0.7445
 1300TIP3   OH225458   6.610   4.702   6.868  0.5928  0.2202  0.2383
 1300TIP3    H125459   6.632   4.793   6.852 -1.2090  0.2937 -2.4991
 1300TIP3    H225460   6.636   4.656   6.788 -1.9647 -0.9339 -0.0424
 1301TIP3   OH225461   6.141   3.846   2.180  0.6595 -0.6687 -0.2757
 1301TIP3    H125462   6.074   3.904   2.145 -0.4484 -1.9978 -0.4642
 1301TIP3    H225463   6.102   3.758   2.174  2.9620 -1.6850 -1.7882
 1302TIP3   OH225464   6.144   0.430   7.696 -0.0974  1.0277 -0.0553
 1302TIP3    H125465   6.125   0.345   7.655 -2.5299  1.2864  0.3765
 1302TIP3    H225466   6.179   0.483   7.625 -0.6446  0.3129 -0.8869
 1303TIP3   OH225467   6.434   3.995   1.123 -0.2174  0.0019  0.0444
 1303TIP3    H125468   6.418   4.034   1.037  0.8930 -0.0548 -0.2042
 1303TIP3    H225469   6.449   3.902   1.106 -2.3294 -0.4770  0.5780
 1304TIP3   OH225470   1.234   2.153   6.567 -0.1872  0.2845  0.3541
 1304TIP3    H125471   1.273   2.166   6.480 -0.0276  0.0812  0.3942
 1304TIP3    H225472   1.139   2.150   6.550 -0.2731  1.8547  0.3907
 1305TIP3   OH225473   0.516   1.901   7.297  0.0362 -0.3507 -0.3778
 1305TIP3    H125474   0.536   1.994   7.304  1.5676 -0.6444 -0.5534
 1305TIP3    H225475   0.575   1.868   7.230  0.5495 -1.7146  0.6774
 1306TIP3   OH225476   3.890   3.710   6.207  0.3343  0.6731 -0.6176
 1306TIP3    H125477   3.879   3.754   6.123  3.4176  2.2450 -0.3418
 1306TIP3    H225478   3.843   3.765   6.269  0.7599  1.3300 -0.8692
 1307TIP3   OH225479   6.245   5.330   8.680 -0.0845 -0.2776 -0.1396
 1307TIP3    H125480   6.271   5.240   8.695 -0.1483 -0.0120  2.0103
 1307TIP3    H225481   6.321   5.382   8.706 -0.3570  0.3035 -0.4779
 1308TIP3   OH225482   1.275   4.135   6.918  0.1115  0.0292  0.4647
 1308TIP3    H125483   1.249   4.050   6.881 -1.2462  0.7200 -0.2335
 1308TIP3    H225484   1.326   4.177   6.850 -0.6438  0.4534  0.1507
 1309TIP3   OH225485   5.999   2.703   7.542 -0.0978 -0.5628 -0.1047
 1309TIP3    H125486   5.948   2.712   7.462 -0.8153 -1.4591  0.2383
 1309TIP3    H225487   5.951   2.638   7.594  1.4654 -1.5384  0.1725
 1310TIP3   OH225488   4.312   3.075   0.491 -0.2983 -0.2624 -0.1086
 1310TIP3    H125489   4.280   3.057   0.580 -0.1561 -2.0910 -0.3968
 1310TIP3    H225490   4.232   3.082   0.438 -0.4271  1.7019  0.2652
 1311TIP3   OH225491   0.180   1.724   0.639 -0.0883  0.0732 -0.4875
 1311TIP3    H125492   0.153   1.634   0.654 -0.2989  0.6127  3.1884
 1311TIP3    H225493   0.276   1.722   0.644 -0.0912  0.0425 -0.4444
 1312TIP3   OH225494   1.442   3.308   1.221 -0.3057 -0.0212 -0.6422
 1312TIP3    H125495   1.461   3.277   1.132 -0.6419 -1.3521 -0.2810
 1312TIP3    H225496   1.492   3.248   1.278 -0.3954  0.5791  0.0781
 1313TIP3   OH225497   1.702   0.158   0.767 -0.0245  0.3910 -0.0567
 1313TIP3    H125498   1.738   0.069   0.762  0.9226  0.6531  1.5936
 1313TIP3    H225499   1.763   0.206   0.823 -2.1908  1.2139  1.7552
 1314TIP3   OH225500   5.725   6.337   8.141  0.3332  0.5328 -0.7642
 1314TIP3    H125501   5.743   6.429   8.157  1.2174  0.2940 -0.3491
 1314TIP3    H225502   5.811   6.299   8.120  0.0445 -0.2834 -0.4936
 1315TIP3   OH225503   2.177   3.287   7.894 -0.2650  0.0312  0.4384
 1315TIP3    H125504   2.148   3.346   7.963 -0.8242 -0.1077  0.3232
 1315TIP3    H225505   2.102   3.229   7.878 -1.0512  1.5315 -1.9387
 1316TIP3   OH225506   6.059   2.919   8.449 -0.0442  0.2512 -0.3270
 1316TIP3    H125507   5.970   2.953   8.452  0.4646  1.6668 -0.6988
 1316TIP3    H225508   6.114   2.990   8.482  0.8548 -1.0337  1.0444
 1317TIP3   OH225509   6.367   3.933   8.919 -0.0997  0.6009 -0.2653
 1317TIP3    H125510   6.296   3.991   8.894 -0.7405  0.7793  1.8046
 1317TIP3    H225511   6.447   3.983   8.900 -0.4627  0.4415 -2.4926
 1318TIP3   OH225512   0.736   3.979   0.905  0.1925  0.6137  0.1122
 1318TIP3    H125513   0.789   3.906   0.874 -0.5461 -0.0164  0.3345
 1318TIP3    H225514   0.795   4.028   0.963  0.5581 -0.0309  0.2896
 1319TIP3   OH225515   0.036   2.362   0.659  0.2908 -0.1470  0.4941
 1319TIP3    H125516   0.030   2.278   0.703 -0.6034  0.3633  1.3872
 1319TIP3    H225517  -0.037   2.413   0.694 -1.0971 -0.0337 -2.2714
 1320TIP3   OH225518   2.661   1.770   7.992 -0.4143 -0.8031  0.4688
 1320TIP3    H125519   2.678   1.680   7.966  0.9281 -0.1442 -1.1326
 1320TIP3    H225520   2.739   1.796   8.042 -0.5104 -0.3632  0.3988
 1321TIP3   OH225521   2.429   0.604   1.499  0.0274 -0.0398  0.6944
 1321TIP3    H125522   2.419   0.531   1.438 -1.6100  0.1857  0.6452
 1321TIP3    H225523   2.429   0.682   1.443 -0.1473  0.0973  0.8856
 1322TIP3   OH225524   3.379   3.875   1.252  0.1740  0.4471 -0.5356
 1322TIP3    H125525   3.446   3.809   1.269  0.9945  1.1651 -0.9181
 1322TIP3    H225526   3.374   3.925   1.334 -0.9128 -0.4711 -0.0170
 1323TIP3   OH225527   6.404   2.122   7.540  0.6364  0.0839 -0.1646
 1323TIP3    H125528   6.355   2.201   7.564 -1.4760 -0.0750 -3.3966
 1323TIP3    H225529   6.359   2.051   7.585  1.3729  0.4588  1.2277
 1324TIP3   OH225530   0.289   4.762   7.319  0.1647 -0.1857  0.0917
 1324TIP3    H125531   0.290   4.676   7.360  1.4830 -0.1356  0.1979
 1324TIP3    H225532   0.216   4.758   7.257  0.0150 -1.2645  0.3203
 1325TIP3   OH225533   0.314   1.276   7.068 -0.2394 -0.4110 -0.6735
 1325TIP3    H125534   0.275   1.219   7.135 -1.5937 -1.2501 -2.1154
 1325TIP3    H225535   0.242   1.335   7.042 -0.4072 -1.5101 -2.8785
 1326TIP3   OH225536   1.187   6.366   1.515 -0.3858 -0.0926  0.3771
 1326TIP3    H125537   1.181   6.457   1.543  1.6660  0.6615 -1.3114
 1326TIP3    H225538   1.215   6.318   1.594 -3.1736  0.3521  1.7344
 1327TIP3   OH225539   1.493   0.791   8.580 -0.5585  0.4706  0.2296
 1327TIP3    H125540   1.548   0.791   8.502 -0.7360  1.8690  0.0658
 1327TIP3    H225541   1.553   0.805   8.652 -0.3800 -0.9443  0.3758
 1328TIP3   OH225542   3.021   6.423   8.965 -0.3062 -0.3551  0.6356
 1328TIP3    H125543   3.061   6.414   9.052 -0.6678  5.6909  1.8948
 1328TIP3    H225544   3.091   6.457   8.910  0.4109 -5.6521 -2.3440
 1329TIP3   OH225545   2.703   0.490   1.532  0.4363  0.5860 -0.2636
 1329TIP3    H125546   2.661   0.567   1.570 -1.5953 -0.3474 -0.4564
 1329TIP3    H225547   2.682   0.496   1.439 -0.8251 -0.7804 -0.1078
 1330TIP3   OH225548   4.531   2.443   8.891 -0.0004 -0.0098 -0.4154
 1330TIP3    H125549   4.474   2.383   8.939 -0.2994  0.9142  0.4151
 1330TIP3    H225550   4.591   2.386   8.843 -1.5268 -1.0158 -1.2124
 1331TIP3   OH225551   3.710   5.314   7.666 -0.3624  0.1668  0.5621
 1331TIP3    H125552   3.620   5.281   7.657 -0.3563 -0.0493  1.3030
 1331TIP3    H225553   3.699   5.409   7.673 -0.6590  0.0487  2.1080
 1332TIP3   OH225554   4.615   4.139   8.593 -0.4387 -0.1606  0.1568
 1332TIP3    H125555   4.529   4.150   8.554 -0.8942 -0.3644  1.0835
 1332TIP3    H225556   4.660   4.077   8.535 -1.5398 -1.4209  0.5962
 1333TIP3   OH225557   0.295   1.625   0.268  0.0553  0.1515 -0.2311
 1333TIP3    H125558   0.287   1.693   0.202  0.9003 -0.2517 -0.7699
 1333TIP3    H225559   0.357   1.660   0.331  0.3394 -0.0331 -0.4054
 1334TIP3   OH225560   3.044   0.571   8.701 -0.0992 -0.2363 -0.5742
 1334TIP3    H125561   3.067   0.657   8.738  0.3100 -0.0219 -1.3139
 1334TIP3    H225562   2.968   0.543   8.752 -0.3580  0.6510 -0.4516
 1335TIP3   OH225563   4.656   4.766   7.102  0.6464 -0.0734  0.2543
 1335TIP3    H125564   4.649   4.805   7.189 -1.9905 -0.4713  0.2925
 1335TIP3    H225565   4.710   4.829   7.053  1.4253  0.6105  1.8872
 1336TIP3   OH225566   4.967   0.267   2.581 -0.5654 -0.5045 -0.3741
 1336TIP3    H125567   4.897   0.269   2.515 -1.2704  0.7446  0.3765
 1336TIP3    H225568   5.047   0.249   2.531 -1.3240 -1.3914 -1.3223
 1337TIP3   OH225569   6.233   5.663   2.148 -0.4524  0.1400 -0.4822
 1337TIP3    H125570   6.309   5.609   2.126  0.0256 -0.2767  1.9590
 1337TIP3    H225571   6.269   5.752   2.159 -0.6571  0.3073 -1.0990
 1338TIP3   OH225572   2.963   4.730   1.991  0.1552 -0.7300  0.0514
 1338TIP3    H125573   2.933   4.731   2.082  0.6631  0.6253  0.2363
 1338TIP3    H225574   3.059   4.727   1.997  0.2369  0.4508 -0.3912
 1339TIP3   OH225575   0.121   2.175   0.328  0.7670 -0.5151 -0.3906
 1339TIP3    H125576   0.180   2.117   0.376  1.1890 -0.5810 -0.9874
 1339TIP3    H225577   0.064   2.116   0.278  0.8883 -0.4239 -0.6353
 1340TIP3   OH225578   4.040   3.580   0.020 -0.5287 -0.0366 -0.4982
 1340TIP3    H125579   4.012   3.654   0.073  1.6430  0.5849 -0.1175
 1340TIP3    H225580   4.121   3.549   0.063  0.7430 -0.1454 -2.8221
 1341TIP3   OH225581   1.828   3.703   7.024 -0.1542 -0.1568 -0.1137
 1341TIP3    H125582   1.896   3.654   6.978 -0.1577 -0.4663  0.2026
 1341TIP3    H225583   1.872   3.737   7.102  0.0320  0.9586 -0.6911
 1342TIP3   OH225584   1.212   0.167   1.084 -0.4219  0.1703  0.8190
 1342TIP3    H125585   1.124   0.132   1.072 -0.2898  0.1631 -0.2464
 1342TIP3    H225586   1.268   0.107   1.035  0.3658 -0.6074  2.5946
 1343TIP3   OH225587   3.349   1.717   7.474  0.0828 -0.2862 -0.0038
 1343TIP3    H125588   3.335   1.627   7.445  0.2093 -0.8735  1.6565
 1343TIP3    H225589   3.263   1.745   7.506  0.2000 -0.0565  0.1109
 1344TIP3   OH225590   2.891   2.890   7.317 -0.3366  0.0133  0.0470
 1344TIP3    H125591   2.824   2.941   7.273  0.6018  0.9031 -0.4014
 1344TIP3    H225592   2.956   2.955   7.345  0.7071 -0.8876 -0.2046
 1345TIP3   OH225593   3.166   6.469   0.295 -0.7066  0.3208 -0.2789
 1345TIP3    H125594   3.195   6.379   0.312 -0.3420  0.3286 -0.8105
 1345TIP3    H225595   3.173   6.513   0.379 -0.9366 -0.1619 -0.0004
 1346TIP3   OH225596   2.822   1.638   2.537  0.3013 -0.1815  0.1130
 1346TIP3    H125597   2.847   1.564   2.592  0.6180  0.1022  0.3538
 1346TIP3    H225598   2.904   1.682   2.515  0.1334 -0.0107 -0.1832
 1347TIP3   OH225599   2.960   6.622   0.932 -0.3600  0.6008 -0.5268
 1347TIP3    H125600   3.028   6.676   0.890  1.9368 -0.8149  1.1115
 1347TIP3    H225601   2.992   6.532   0.922 -0.9954  0.0184  1.9688
 1348TIP3   OH225602   1.061   1.937   7.595 -0.5504 -0.1899 -0.2134
 1348TIP3    H125603   1.003   1.895   7.532 -1.1330 -0.4584  0.5029
 1348TIP3    H225604   1.039   2.031   7.590  1.3778  0.2323 -2.4813
 1349TIP3   OH225605   4.539   0.927   1.727 -0.5737 -0.1136 -0.7258
 1349TIP3    H125606   4.532   1.014   1.765 -2.0764 -0.6278  0.2451
 1349TIP3    H225607   4.614   0.887   1.770 -0.0231  0.6003 -1.0084
 1350TIP3   OH225608   2.371   6.505   7.615  0.1238  0.7047  0.6453
 1350TIP3    H125609   2.412   6.580   7.573 -0.7754  0.6776 -0.3249
 1350TIP3    H225610   2.292   6.541   7.655 -0.1577  0.3360  0.4265
 1351TIP3   OH225611   1.487   2.503   7.494  0.2800 -0.0598 -0.3639
 1351TIP3    H125612   1.541   2.477   7.568 -0.2072  0.1607  0.0778
 1351TIP3    H225613   1.460   2.421   7.453  0.8406 -0.1713 -0.5130
 1352TIP3   OH225614   0.271   1.435   8.879  0.0007 -0.3165 -0.1079
 1352TIP3    H125615   0.289   1.508   8.821 -0.3340  0.5877  0.9024
 1352TIP3    H225616   0.196   1.464   8.932 -1.0816 -1.9323 -0.6539
 1353TIP3   OH225617   3.860   5.117   8.654 -0.3457  0.2052 -0.6482
 1353TIP3    H125618   3.936   5.064   8.677 -0.4390 -1.3878 -3.5232
 1353TIP3    H225619   3.896   5.202   8.630  0.1704  0.3943  0.6913
 1354TIP3   OH225620   4.108   6.750   7.557  0.3006  0.4872  0.3189
 1354TIP3    H125621   4.092   6.787   7.470  0.7519  1.5073  0.6468
 1354TIP3    H225622   4.090   6.823   7.618  0.6554 -0.0026  1.0262
 1355TIP3   OH225623   1.241   1.450   1.281 -0.1496 -0.7774 -0.1277
 1355TIP3    H125624   1.265   1.538   1.310 -1.2284 -0.9094  1.2808
 1355TIP3    H225625   1.151   1.459   1.251 -1.0220 -1.7442  1.9832
 1356TIP3   OH225626   4.912   1.995   7.033  0.1588 -0.0582 -0.0348
 1356TIP3    H125627   4.838   2.050   7.006 -0.0512  0.2806  1.1761
 1356TIP3    H225628   4.985   2.026   6.980 -0.5336 -0.3509 -1.2013
 1357TIP3   OH225629   1.037   0.029   8.331 -0.0847 -0.0116 -0.6671
 1357TIP3    H125630   1.116  -0.009   8.293  0.0643  0.5020 -0.8830
 1357TIP3    H225631   0.986   0.058   8.255  0.5859  1.7741 -0.4919
 1358TIP3   OH225632   4.189   5.584   8.054  0.2374 -0.2330  0.1616
 1358TIP3    H125633   4.277   5.560   8.026  0.5669  1.3986 -0.3271
 1358TIP3    H225634   4.198   5.605   8.147  0.2628 -0.5221  0.2245
 1359TIP3   OH225635   5.588   1.947   0.806 -0.2275 -0.1246  0.1550
 1359TIP3    H125636   5.680   1.949   0.832 -0.7329  0.2127  2.1172
 1359TIP3    H225637   5.567   1.853   0.800 -0.0371 -0.2183  0.8685
 1360TIP3   OH225638   6.651   3.018   8.244 -0.2557  0.0177  0.2722
 1360TIP3    H125639   6.690   3.091   8.196  1.2846 -0.9583  0.0115
 1360TIP3    H225640   6.686   3.027   8.333  0.1276 -0.5404  0.1788
 1361TIP3   OH225641   5.225   4.963   1.223 -0.5727 -0.1390  0.5249
 1361TIP3    H125642   5.163   4.932   1.157  0.8986  0.1569 -1.0411
 1361TIP3    H225643   5.237   5.056   1.203 -0.6092  0.1203  1.6450
 1362TIP3   OH225644   6.641   4.048   7.151 -0.0303 -0.1739  0.4595
 1362TIP3    H125645   6.583   3.983   7.190 -0.5501 -0.5709 -0.8996
 1362TIP3    H225646   6.583   4.101   7.095  0.5165  0.9778  0.9399
 1363TIP3   OH225647   6.202   4.538   0.523 -0.1262  0.1498  0.0570
 1363TIP3    H125648   6.245   4.487   0.592 -1.4202 -0.0014  0.7893
 1363TIP3    H225649   6.108   4.523   0.537 -0.6314  3.1722  0.6942
 1364TIP3   OH225650   6.723   0.016   7.246  0.0027  0.2595 -0.0402
 1364TIP3    H125651   6.795   0.064   7.204 -1.3068  2.9084  0.4930
 1364TIP3    H225652   6.669  -0.014   7.172 -0.7825  2.4214 -0.4306
 1365TIP3   OH225653   1.303   2.832   8.269  0.0081 -0.2337  0.3280
 1365TIP3    H125654   1.348   2.770   8.327  1.5632 -0.1267 -0.7193
 1365TIP3    H225655   1.371   2.864   8.210 -1.4146  0.0693 -1.2201
 1366TIP3   OH225656   4.398   5.910   7.435  0.1609  0.1298  0.8380
 1366TIP3    H125657   4.467   5.970   7.406 -0.7056  0.9896  0.4885
 1366TIP3    H225658   4.325   5.967   7.457 -0.7716 -0.8131  0.2676
 1367TIP3   OH225659   4.689   6.508   7.563 -0.8504 -0.0102  0.4498
 1367TIP3    H125660   4.731   6.573   7.507 -0.1807  1.0889  2.1387
 1367TIP3    H225661   4.660   6.439   7.503  0.8346  0.5488 -1.0877
 1368TIP3   OH225662   3.496   4.220   8.371  0.5688  0.0070  0.0125
 1368TIP3    H125663   3.435   4.230   8.444  1.8238 -0.3511  1.1360
 1368TIP3    H225664   3.578   4.258   8.402  1.1777 -0.3025 -1.1570
 1369TIP3   OH225665   5.234   6.441   8.855  0.3817  0.5240  0.2924
 1369TIP3    H125666   5.198   6.384   8.924  2.1021 -0.6149  0.3125
 1369TIP3    H225667   5.220   6.392   8.774 -0.5396  1.3214 -0.0584
 1370TIP3   OH225668   1.687   5.011   6.959 -0.4127 -0.4595 -0.2875
 1370TIP3    H125669   1.691   5.086   6.900  0.4528 -1.3569 -1.4173
 1370TIP3    H225670   1.615   4.957   6.925  0.6449 -1.4088 -1.0908
 1371TIP3   OH225671   4.222   0.184   0.289 -0.0038  0.4642 -0.6494
 1371TIP3    H125672   4.136   0.224   0.306 -0.1691 -0.5851  1.2852
 1371TIP3    H225673   4.204   0.091   0.276  0.8714  0.0960  0.5316
 1372TIP3   OH225674   5.443   6.589   7.740 -0.1373 -0.0525  0.3142
 1372TIP3    H125675   5.488   6.624   7.817 -0.1249 -1.7424  1.1068
 1372TIP3    H225676   5.353   6.574   7.769 -0.2303 -0.3527 -0.1198
 1373TIP3   OH225677   4.822   1.475   2.147  0.0480  0.3681  0.1182
 1373TIP3    H125678   4.819   1.570   2.159 -0.2097  0.6533 -1.8718
 1373TIP3    H225679   4.748   1.455   2.089  0.5701 -0.9202 -0.1530
 1374TIP3   OH225680   2.857   3.510   1.634  0.3130 -0.3012  0.4800
 1374TIP3    H125681   2.862   3.598   1.596  1.4661 -0.2716  0.6840
 1374TIP3    H225682   2.790   3.516   1.701  0.6904  0.5376  0.7835
 1375TIP3   OH225683   1.388   5.239   8.270  0.4234 -0.1436 -0.0811
 1375TIP3    H125684   1.482   5.250   8.280  0.4513  0.7555 -1.0586
 1375TIP3    H225685   1.361   5.313   8.214 -1.1030  0.5015  1.4139
 1376TIP3   OH225686   5.517   6.697   6.790  0.3132  0.0937  0.3669
 1376TIP3    H125687   5.541   6.789   6.798  0.6256 -0.0068  0.5903
 1376TIP3    H225688   5.456   6.695   6.716 -0.3661  0.6010  0.9038
 1377TIP3   OH225689   1.753   1.953   0.455  0.1486 -0.5223  0.1220
 1377TIP3    H125690   1.770   2.041   0.422  0.9432  0.7522  3.5145
 1377TIP3    H225691   1.676   1.963   0.512  1.9324 -1.2788  2.8413
 1378TIP3   OH225692   3.219   3.702   0.545 -0.0600  0.1643 -0.4706
 1378TIP3    H125693   3.192   3.624   0.593 -0.9321 -0.1276 -1.3772
 1378TIP3    H225694   3.282   3.746   0.602 -1.2696 -0.0015  1.0496
 1379TIP3   OH225695   5.284   3.895   0.172  0.0401 -0.2692 -0.0709
 1379TIP3    H125696   5.376   3.868   0.164 -0.1639 -0.7125 -1.1334
 1379TIP3    H225697   5.280   3.980   0.129 -0.3152 -0.9226 -1.3949
 1380TIP3   OH225698   2.141   2.498   7.832 -0.0131  0.3516  0.3126
 1380TIP3    H125699   2.158   2.405   7.818 -0.3446  0.4388 -0.7545
 1380TIP3    H225700   2.228   2.537   7.841  0.1242 -0.0687  0.8933
 1381TIP3   OH225701   4.496   2.470   0.197  0.6010  0.5624  0.5933
 1381TIP3    H125702   4.437   2.529   0.150  0.8673  0.1108 -0.3276
 1381TIP3    H225703   4.445   2.441   0.273 -0.6622 -0.4045 -0.5726
 1382TIP3   OH225704   2.340   0.770   7.802  0.0382  0.4524  0.7719
 1382TIP3    H125705   2.351   0.675   7.801 -0.2608  0.4067 -1.0153
 1382TIP3    H225706   2.424   0.804   7.834  0.5335 -0.3651  0.3576
 1383TIP3   OH225707   0.086   0.839   7.756  0.1122 -0.3078 -0.0799
 1383TIP3    H125708   0.021   0.859   7.824  0.2539  1.1406 -0.3341
 1383TIP3    H225709   0.036   0.798   7.686 -0.5600  0.7681 -0.2621
 1384TIP3   OH225710   5.786   2.191   0.402  0.0946  1.0409  0.0747
 1384TIP3    H125711   5.875   2.164   0.422  0.6720  2.6465 -0.1639
 1384TIP3    H225712   5.755   2.233   0.482 -1.5953 -2.0792  1.2270
 1385TIP3   OH225713   5.578   2.151   7.493 -0.3588  0.1646  0.0429
 1385TIP3    H125714   5.521   2.152   7.570 -0.2941 -1.4317  0.1458
 1385TIP3    H225715   5.593   2.243   7.473 -3.5216  0.6983 -0.4122
 1386TIP3   OH225716   5.840   0.804   0.969  0.1604 -0.1100  0.0249
 1386TIP3    H125717   5.854   0.818   0.875  0.5712 -0.9188 -0.0433
 1386TIP3    H225718   5.904   0.738   0.993  0.4589  0.5270  1.0157
 1387TIP3   OH225719   1.011   4.063   1.971  0.4082  0.5579 -0.0902
 1387TIP3    H125720   0.916   4.068   1.982  0.3118  0.1459 -0.7117
 1387TIP3    H225721   1.038   3.994   2.032  0.1862  0.0221 -0.5838
 1388TIP3   OH225722   6.492   3.844   2.324 -0.6016  0.4159 -0.7834
 1388TIP3    H125723   6.492   3.783   2.398 -0.0965  0.1006 -1.0394
 1388TIP3    H225724   6.546   3.917   2.353 -3.1491  1.9163  0.4556
 1389TIP3   OH225725   0.151   2.446   1.380 -0.1556 -0.2428  0.4751
 1389TIP3    H125726   0.110   2.503   1.315  0.3251 -0.4954 -0.0577
 1389TIP3    H225727   0.088   2.443   1.453  0.1910  1.6853  0.9086
 1390TIP3   OH225728   5.383   3.229   1.925 -0.7567  0.1680  0.2341
 1390TIP3    H125729   5.429   3.205   1.845 -0.9032  1.8276 -0.3827
 1390TIP3    H225730   5.379   3.148   1.976 -0.0436 -0.7488 -1.1230
 1391TIP3   OH225731   2.138   4.465   8.857  0.3879  0.4206 -0.0348
 1391TIP3    H125732   2.171   4.554   8.869  1.2490  0.1933 -0.5940
 1391TIP3    H225733   2.126   4.431   8.945 -0.2351  1.1828  0.1904
 1392TIP3   OH225734   1.477   5.439   8.051  0.0127  0.1953  0.0808
 1392TIP3    H125735   1.557   5.416   8.003  0.1885  1.6265 -0.3794
 1392TIP3    H225736   1.406   5.416   7.993  0.1768  0.6558 -0.3117
 1393TIP3   OH225737   0.503   5.710   7.212 -0.1001  0.1728 -0.2504
 1393TIP3    H125738   0.408   5.713   7.221 -0.0773 -0.8215  0.5050
 1393TIP3    H225739   0.519   5.638   7.151  0.1295  1.2790 -1.5388
 1394TIP3   OH225740   4.837   1.213   7.022  0.1326 -0.2932  0.3085
 1394TIP3    H125741   4.775   1.149   7.057  1.0219 -0.8237  0.9494
 1394TIP3    H225742   4.792   1.253   6.948 -0.0672 -2.3608 -0.7372
 1395TIP3   OH225743   3.174   6.219   2.390  0.4892 -0.2077  0.2622
 1395TIP3    H125744   3.095   6.271   2.407  0.9718  0.7103 -0.1896
 1395TIP3    H225745   3.150   6.130   2.415 -0.0563  0.3928  2.0205
 1396TIP3   OH225746   3.693   2.202   1.456 -0.0751  0.1758  0.3824
 1396TIP3    H125747   3.733   2.192   1.542 -0.6432 -1.8240  0.4567
 1396TIP3    H225748   3.718   2.123   1.408 -2.9563 -0.6364  0.0517
 1397TIP3   OH225749   5.087   2.325   7.032 -0.3029  0.2447 -0.5486
 1397TIP3    H125750   5.067   2.381   6.957 -0.8700  0.2579 -0.3875
 1397TIP3    H225751   5.028   2.354   7.101  1.1402  1.1282  0.3473
 1398TIP3   OH225752   4.916   0.286   8.794  0.1886  0.3545 -0.5469
 1398TIP3    H125753   4.835   0.238   8.811  0.1767  0.9692  1.3645
 1398TIP3    H225754   4.973   0.222   8.752  0.1016 -1.3490  1.7195
 1399TIP3   OH225755   0.624   0.121   0.557 -0.1546  0.2669  0.0797
 1399TIP3    H125756   0.608   0.066   0.633  0.6140  1.3706  1.0846
 1399TIP3    H225757   0.537   0.151   0.531 -0.5464 -1.1402 -0.2960
 1400TIP3   OH225758   0.365   2.931   6.368  0.0032 -0.2513  0.0843
 1400TIP3    H125759   0.358   3.006   6.427  0.0841 -0.1447 -0.0423
 1400TIP3    H225760   0.458   2.927   6.345 -0.3079  0.8505 -1.5273
 1401TIP3   OH225761   3.973   2.900   1.598 -0.5217  0.6508 -0.1199
 1401TIP3    H125762   4.025   2.972   1.635 -0.3633  0.7863 -0.6033
 1401TIP3    H225763   3.897   2.893   1.656  0.7510 -0.5446  1.5106
 1402TIP3   OH225764   4.349   1.166   2.475 -0.4881 -0.2077 -0.3415
 1402TIP3    H125765   4.405   1.093   2.445 -0.3582 -0.8696  1.4200
 1402TIP3    H225766   4.289   1.126   2.537 -1.2568  0.9850 -0.2875
 1403TIP3   OH225767   3.660   1.682   0.619 -0.4968  0.1272  0.1679
 1403TIP3    H125768   3.755   1.669   0.630 -0.9336 -1.4259  3.4012
 1403TIP3    H225769   3.644   1.771   0.649  0.0494  0.9872 -1.9236
 1404TIP3   OH225770   5.987   6.105   7.665 -0.0403  0.2897 -0.1444
 1404TIP3    H125771   5.926   6.168   7.702  0.1320 -1.0322  2.6939
 1404TIP3    H225772   6.074   6.143   7.680 -0.0020  0.1164  0.0801
 1405TIP3   OH225773   6.609   1.565   0.693 -0.5354  0.2916 -0.5828
 1405TIP3    H125774   6.675   1.551   0.761 -1.5573 -0.5478  0.2687
 1405TIP3    H225775   6.655   1.614   0.625  0.9338 -0.1815  0.0285
 1406TIP3   OH225776   0.907   6.068   7.122  0.0853 -0.3984 -0.5432
 1406TIP3    H125777   0.920   5.999   7.057 -0.3905  2.0965 -3.5605
 1406TIP3    H225778   0.983   6.124   7.112 -1.3066  1.5153 -1.0329
 1407TIP3   OH225779   0.312   0.894   8.607  0.4154  0.2430 -0.4702
 1407TIP3    H125780   0.391   0.858   8.649  1.7619  2.1002 -1.2823
 1407TIP3    H225781   0.244   0.829   8.626  1.3425  0.0828  2.9463
 1408TIP3   OH225782   6.351   6.687   1.642 -0.0076 -0.2391  0.1730
 1408TIP3    H125783   6.291   6.679   1.568  0.3450  0.8215 -0.2446
 1408TIP3    H225784   6.346   6.602   1.685 -2.3531  0.0291  0.5877
 1409TIP3   OH225785   0.373   0.980   1.940  0.1155 -0.1238 -0.0138
 1409TIP3    H125786   0.358   0.891   1.907  3.8082 -1.5793  1.6999
 1409TIP3    H225787   0.378   0.969   2.035  1.2780  1.8192  0.1894
 1410TIP3   OH225788   3.898   5.188   7.100  0.6223 -0.4734 -0.1881
 1410TIP3    H125789   3.929   5.144   7.021 -1.2638  0.6948 -1.6709
 1410TIP3    H225790   3.820   5.140   7.126  1.0459 -0.6520  0.8305
 1411TIP3   OH225791   4.478   3.329   2.488 -0.1660  0.1845  0.0976
 1411TIP3    H125792   4.496   3.243   2.526  1.5812  1.7194  3.1497
 1411TIP3    H225793   4.394   3.356   2.525  0.4713  0.7533  1.1890
 1412TIP3   OH225794   2.732   4.772   8.753  0.0099  0.3514  0.1182
 1412TIP3    H125795   2.822   4.798   8.773 -0.5238  0.9111  2.0312
 1412TIP3    H225796   2.734   4.745   8.661  2.1767  0.0792  0.2046
 1413TIP3   OH225797   2.273   5.120   1.031  0.3156 -0.3499  0.0324
 1413TIP3    H125798   2.340   5.156   0.973  0.4075 -1.2723 -0.4672
 1413TIP3    H225799   2.196   5.109   0.975  0.1229 -0.4173  0.3077
 1414TIP3   OH225800   5.280   4.841   0.692 -0.7894 -1.1238 -0.2065
 1414TIP3    H125801   5.211   4.897   0.656 -0.5078 -0.8415 -0.3108
 1414TIP3    H225802   5.290   4.869   0.782 -1.0011 -1.3507 -0.1118
 1415TIP3   OH225803   4.807   6.296   8.687 -0.1627 -0.2867  0.0114
 1415TIP3    H125804   4.788   6.220   8.632 -1.5184 -0.3506  0.5228
 1415TIP3    H225805   4.741   6.293   8.756  0.4040  0.7791  0.6327
 1416TIP3   OH225806   5.582   5.002   8.670  0.2160 -0.0356 -0.3377
 1416TIP3    H125807   5.593   4.931   8.733 -0.5218 -0.6378 -0.8662
 1416TIP3    H225808   5.516   5.059   8.710  0.8330  0.3970  0.1021
 1417TIP3   OH225809   2.337   0.544   1.147 -0.1641 -0.0158  0.2855
 1417TIP3    H125810   2.314   0.457   1.179 -0.5902 -0.2822 -0.6986
 1417TIP3    H225811   2.252   0.584   1.126  0.1352 -0.3869 -1.8133
 1418TIP3   OH225812   2.968   4.538   8.552  0.1094  0.1544 -0.7857
 1418TIP3    H125813   2.963   4.466   8.615 -0.2925 -0.5658 -1.6156
 1418TIP3    H225814   3.024   4.603   8.594 -2.9799  1.3747  1.9668
 1419TIP3   OH225815   0.541   3.463   8.197  0.5933 -0.6329 -0.5273
 1419TIP3    H125816   0.482   3.514   8.141 -0.9925 -1.3123  0.4685
 1419TIP3    H225817   0.628   3.502   8.181 -0.2520  1.0687 -1.2703
 1420TIP3   OH225818   1.438   3.727   0.288  0.0236  0.1953 -0.1050
 1420TIP3    H125819   1.499   3.801   0.295 -1.8156  1.8627 -0.7623
 1420TIP3    H225820   1.378   3.738   0.362 -1.9117  1.0329 -1.7052
 1421TIP3   OH225821   5.582   5.057   0.571  0.2252 -0.5450  0.0439
 1421TIP3    H125822   5.663   5.108   0.572  0.2403 -0.5494 -0.6659
 1421TIP3    H225823   5.543   5.073   0.657 -0.7761  2.2739 -0.8288
 1422TIP3   OH225824   2.502   5.779   7.337 -0.1075  0.2990 -0.0094
 1422TIP3    H125825   2.464   5.692   7.330  0.7556 -0.0227 -1.0909
 1422TIP3    H225826   2.490   5.804   7.429 -0.2265 -1.0159  0.3503
 1423TIP3   OH225827   6.096   1.578   0.936  0.3818 -0.2706 -0.2264
 1423TIP3    H125828   6.103   1.512   1.005 -1.7102  1.1443  1.4470
 1423TIP3    H225829   6.048   1.535   0.866 -0.4932 -0.7024  0.6287
 1424TIP3   OH225830   3.982   0.158   0.547 -1.1854  0.3964 -0.4292
 1424TIP3    H125831   3.977   0.103   0.469 -0.8669 -0.1783 -0.0571
 1424TIP3    H225832   3.894   0.156   0.584 -1.2013  0.2030 -0.4737
 1425TIP3   OH225833   2.140   5.164   8.952 -0.5919  0.0363  0.6523
 1425TIP3    H125834   2.190   5.196   8.878 -0.0063 -2.1762  0.0064
 1425TIP3    H225835   2.050   5.194   8.936 -0.0245  1.6773  0.3804
 1426TIP3   OH225836   3.022   1.794   2.472 -0.5820  0.1931  0.3879
 1426TIP3    H125837   3.097   1.737   2.488  0.4117  0.3557 -2.9778
 1426TIP3    H225838   3.059   1.882   2.471 -1.2328  0.4787  0.7075
 1427TIP3   OH225839   1.920   2.428   2.183 -0.5895  0.2396 -0.3892
 1427TIP3    H125840   1.957   2.512   2.156 -1.0173  0.1626 -1.2281
 1427TIP3    H225841   1.879   2.447   2.268  0.5348  0.5392  0.1043
 1428TIP3   OH225842   5.782   5.391   7.416 -0.2349 -0.1793 -0.1774
 1428TIP3    H125843   5.796   5.459   7.350 -0.1054 -0.2112 -0.1846
 1428TIP3    H225844   5.855   5.330   7.403 -0.7710 -0.7302 -0.6766
 1429TIP3   OH225845   3.457   4.962   7.115 -0.1953 -0.5451  0.0665
 1429TIP3    H125846   3.544   4.948   7.152  0.7470 -2.8593 -2.6552
 1429TIP3    H225847   3.398   4.954   7.190  1.8323  0.9455  1.9734
 1430TIP3   OH225848   6.501   1.546   8.139  0.3173  0.1945 -0.4771
 1430TIP3    H125849   6.422   1.565   8.088 -0.2686 -0.5794  0.1180
 1430TIP3    H225850   6.470   1.488   8.210  1.2237  0.7203  0.3678
 1431TIP3   OH225851   5.998   2.167   0.026 -0.1079  0.3246 -0.4813
 1431TIP3    H125852   5.984   2.075   0.049  1.3847 -0.3117 -1.9346
 1431TIP3    H225853   5.912   2.198  -0.001 -1.0234 -0.0784  1.7573
 1432TIP3   OH225854   2.480   4.800   8.854 -0.1108 -0.0694  0.0154
 1432TIP3    H125855   2.558   4.837   8.814 -0.7827  0.4135 -0.8681
 1432TIP3    H225856   2.447   4.870   8.910  1.9438 -1.3774  3.1648
 1433TIP3   OH225857   0.536   5.185   7.378 -0.7637 -0.1886 -0.7077
 1433TIP3    H125858   0.505   5.189   7.468 -1.7572 -0.6000 -1.0237
 1433TIP3    H225859   0.570   5.273   7.361 -2.0267  0.3824 -0.4272
 1434TIP3   OH225860   2.177   4.328   7.063  0.1250  0.1423  0.1746
 1434TIP3    H125861   2.087   4.295   7.062 -0.9530  2.6943 -2.6364
 1434TIP3    H225862   2.176   4.403   7.122  1.2153 -1.4021  2.2968
 1435TIP3   OH225863   0.460   2.634   7.745  0.5175  0.5636  0.6739
 1435TIP3    H125864   0.554   2.650   7.742  0.9961 -2.1059 -0.3472
 1435TIP3    H225865   0.426   2.671   7.663  1.3836 -2.1214 -0.9940
 1436TIP3   OH225866   3.413   3.188   0.838  0.2592  0.6870  0.2064
 1436TIP3    H125867   3.374   3.105   0.865 -0.3939  1.2460  1.0517
 1436TIP3    H225868   3.504   3.182   0.868 -0.1374  0.7960  1.4924
 1437TIP3   OH225869   1.378   0.646   0.867 -0.6833 -0.3071  0.8172
 1437TIP3    H125870   1.396   0.553   0.855 -1.2075 -0.3522  0.3566
 1437TIP3    H225871   1.283   0.652   0.873 -0.7866  0.3919 -0.9619
 1438TIP3   OH225872   3.019   2.134   6.602  0.3215  0.8036  0.4999
 1438TIP3    H125873   3.090   2.160   6.659  0.9431  0.0526  0.0842
 1438TIP3    H225874   3.017   2.039   6.608  0.1653  0.7388 -0.4455
 1439TIP3   OH225875   2.329   2.371   0.955  0.1361  0.0362  0.2022
 1439TIP3    H125876   2.243   2.363   0.914 -0.5969  0.1197  1.6312
 1439TIP3    H225877   2.310   2.407   1.042  1.8635  2.4631 -0.3352
 1440TIP3   OH225878   2.491   6.323   2.751 -0.5618 -0.8822 -0.2518
 1440TIP3    H125879   2.446   6.397   2.710 -0.4032 -0.9584 -0.5659
 1440TIP3    H225880   2.583   6.348   2.753 -0.6059 -0.7584  0.3252
 1441TIP3   OH225881   2.614   3.380   0.096  0.5958  0.1827 -0.3758
 1441TIP3    H125882   2.648   3.290   0.095  0.3254  0.0757 -0.0185
 1441TIP3    H225883   2.675   3.428   0.151  0.5629  0.1505 -0.3121
 1442TIP3   OH225884   5.037   4.447   7.225  0.0548 -0.1841 -0.8164
 1442TIP3    H125885   5.106   4.513   7.217 -0.8166  1.6503  3.7270
 1442TIP3    H225886   5.066   4.389   7.295 -1.9323 -0.8192 -0.4282
 1443TIP3   OH225887   0.937   3.997   0.626 -0.1946  0.1174 -0.0392
 1443TIP3    H125888   0.884   3.946   0.566 -1.3740  1.8802 -0.5752
 1443TIP3    H225889   0.913   4.088   0.609  0.4886  0.7737  2.1053
 1444TIP3   OH225890   6.738   1.644   1.848  0.0827 -0.3808  0.3395
 1444TIP3    H125891   6.651   1.683   1.841 -0.1366 -1.0787 -1.4485
 1444TIP3    H225892   6.793   1.695   1.788  0.2068 -1.6377 -0.6738
 1445TIP3   OH225893   2.592   2.747   2.353 -0.6345  0.1238 -0.1985
 1445TIP3    H125894   2.670   2.741   2.408  0.5796 -0.3329 -1.8855
 1445TIP3    H225895   2.519   2.725   2.412  0.5725 -0.1805  1.2385
 1446TIP3   OH225896   2.621   3.351   7.843 -0.4402  0.4114  0.6077
 1446TIP3    H125897   2.549   3.325   7.786 -1.9985 -1.0795  3.0604
 1446TIP3    H225898   2.686   3.281   7.831  1.0160  2.0222 -2.0008
 1447TIP3   OH225899   3.006   1.315   8.106 -0.1772 -0.6147 -0.0175
 1447TIP3    H125900   2.934   1.369   8.138  0.5418  0.0626  0.4691
 1447TIP3    H225901   3.015   1.246   8.172  0.9688  0.4901  1.0393
 1448TIP3   OH225902   6.317   4.605   8.306  0.5471 -0.5155 -0.0170
 1448TIP3    H125903   6.295   4.512   8.313 -1.4671 -0.0108  1.0538
 1448TIP3    H225904   6.343   4.630   8.395  0.8261  0.0127 -0.2463
 1449TIP3   OH225905   4.753   5.972   8.875  0.1749 -0.1500 -0.1144
 1449TIP3    H125906   4.844   5.946   8.858  0.8440  1.8159  0.2156
 1449TIP3    H225907   4.738   5.948   8.966  0.1927 -0.8789 -0.2927
 1450TIP3   OH225908   0.112   4.718   7.111  0.3551 -0.5189  0.4636
 1450TIP3    H125909   0.175   4.747   7.045  0.9499 -0.6771  0.9603
 1450TIP3    H225910   0.029   4.756   7.082  0.5493 -0.8102 -0.5375
 1451TIP3   OH225911   2.324   1.935   6.825 -0.0876  0.1918 -0.8345
 1451TIP3    H125912   2.365   2.007   6.874  0.2411 -0.1208 -0.6522
 1451TIP3    H225913   2.396   1.875   6.806  0.0519  0.9242 -2.8196
 1452TIP3   OH225914   4.334   5.333   0.177 -0.3525  0.0692  0.0497
 1452TIP3    H125915   4.274   5.385   0.230  0.2709  0.3400  0.5048
 1452TIP3    H225916   4.416   5.382   0.178  0.0566 -0.5991 -0.0485
 1453TIP3   OH225917   4.197   2.710   8.067  0.2700 -0.4251  0.2496
 1453TIP3    H125918   4.152   2.626   8.056 -0.8673  0.0021  1.4370
 1453TIP3    H225919   4.289   2.687   8.076  0.3861 -1.3197 -2.3388
 1454TIP3   OH225920   4.649   0.352   0.052 -0.5431 -0.2913  0.0548
 1454TIP3    H125921   4.560   0.365   0.084 -2.0647 -1.9088 -3.0842
 1454TIP3    H225922   4.687   0.288   0.113 -0.8168  1.6899  2.4397
 1455TIP3   OH225923   5.323   3.548   0.331  0.6089 -0.1384 -0.3872
 1455TIP3    H125924   5.283   3.529   0.416  1.0151 -2.9145 -0.7162
 1455TIP3    H225925   5.410   3.583   0.352  0.1699  0.5705  0.3067
 1456TIP3   OH225926   5.444   4.350   0.289 -0.7873 -0.3151  0.2852
 1456TIP3    H125927   5.405   4.298   0.359 -1.0173 -0.2279  0.2209
 1456TIP3    H225928   5.425   4.441   0.312  0.0459 -0.2215  0.6628
 1457TIP3   OH225929   6.162   4.538   7.305 -0.5875 -0.1885  0.1224
 1457TIP3    H125930   6.119   4.460   7.340 -0.8484  0.6044  1.6284
 1457TIP3    H225931   6.254   4.528   7.331 -0.9242  0.7814  1.8100
 1458TIP3   OH225932   0.581   4.647   8.407 -0.4627 -0.1297  0.4805
 1458TIP3    H125933   0.500   4.615   8.367 -0.1909 -0.5027  0.2288
 1458TIP3    H225934   0.635   4.675   8.333 -1.4303  2.7658  0.7281
 1459TIP3   OH225935   2.410   1.683   0.097 -0.1874 -0.5674 -0.3334
 1459TIP3    H125936   2.476   1.616   0.083  0.5275 -0.0659  0.5337
 1459TIP3    H225937   2.402   1.691   0.192  0.4892  1.2579 -0.3775
 1460TIP3   OH225938   0.983   1.092   1.695 -0.1600  0.5363  0.0623
 1460TIP3    H125939   0.890   1.070   1.697 -0.0729  0.1474  0.0083
 1460TIP3    H225940   1.006   1.110   1.786 -0.1409 -0.0193  0.1725
 1461TIP3   OH225941   1.673   0.318   8.906 -0.0317 -0.0597 -0.4075
 1461TIP3    H125942   1.670   0.394   8.849 -2.5327 -0.1069 -0.4465
 1461TIP3    H225943   1.713   0.350   8.987 -0.4772  1.1678 -0.6522
 1462TIP3   OH225944   3.469   5.429   0.255  0.1604  0.0681 -0.2399
 1462TIP3    H125945   3.509   5.353   0.296  0.6459  0.5181  0.1373
 1462TIP3    H225946   3.521   5.503   0.286 -0.8437  0.6495  0.1167
 1463TIP3   OH225947   0.710   1.569   0.891  0.2615 -0.5371 -0.6930
 1463TIP3    H125948   0.695   1.491   0.945 -2.5180  0.4590  0.1799
 1463TIP3    H225949   0.759   1.537   0.815  2.2179 -2.4373  1.2249
 1464TIP3   OH225950   4.312   0.508   7.933 -0.1777 -0.5175  0.4311
 1464TIP3    H125951   4.292   0.549   7.848 -2.0151  1.2083  1.6092
 1464TIP3    H225952   4.353   0.425   7.909 -2.5504 -1.0972 -2.2467
 1465TIP3   OH225953   1.943   0.166   7.396 -0.6970 -0.3699  0.3308
 1465TIP3    H125954   1.876   0.233   7.412 -0.2703 -0.0606  0.8488
 1465TIP3    H225955   1.939   0.151   7.302  0.0170  1.2582  0.0046
 1466TIP3   OH225956   2.669   0.322   7.977 -0.3953  0.0090 -0.1293
 1466TIP3    H125957   2.739   0.344   8.039  0.6491 -0.1154 -1.2316
 1466TIP3    H225958   2.690   0.234   7.947 -0.8520  0.0960 -0.7240
 1467TIP3   OH225959   5.921   2.783   0.973  0.0001  0.7507 -0.5026
 1467TIP3    H125960   5.848   2.739   1.017  0.9683 -0.3929  0.0078
 1467TIP3    H225961   5.898   2.876   0.977 -1.5206  0.4044 -0.5418
 1468TIP3   OH225962   4.734   1.623   0.043  0.0095 -0.2457 -0.2364
 1468TIP3    H125963   4.744   1.583   0.129  2.8719 -2.2838 -1.3679
 1468TIP3    H225964   4.689   1.556  -0.010  0.4343 -0.0144 -0.9093
 1469TIP3   OH225965   4.690   6.397   6.771  0.2577  0.2659  0.2432
 1469TIP3    H125966   4.775   6.398   6.816 -1.0784  0.1133  3.0004
 1469TIP3    H225967   4.673   6.489   6.751  0.6474  0.4169  0.5709
 1470TIP3   OH225968   4.936   1.029   8.870 -0.4214 -0.3419 -0.1480
 1470TIP3    H125969   4.957   1.074   8.788 -1.2691  0.8275  0.2564
 1470TIP3    H225970   5.020   1.025   8.917  0.4962 -2.6085 -1.7459
 1471TIP3   OH225971   4.490   2.090   8.665 -0.0818 -0.7349  0.2175
 1471TIP3    H125972   4.395   2.087   8.676 -0.2186  0.7565 -0.4072
 1471TIP3    H225973   4.505   2.057   8.576  0.1164 -2.1051  0.7237
 1472TIP3   OH225974   5.012   6.541   0.293 -0.7670  0.2715 -0.5422
 1472TIP3    H125975   5.010   6.633   0.267  1.1131  0.3681 -0.4279
 1472TIP3    H225976   5.065   6.498   0.225  0.7423 -0.2062  0.8811
 1473TIP3   OH225977   5.011   5.064   0.418 -0.2520 -0.2232 -0.0069
 1473TIP3    H125978   5.002   4.968   0.417  2.7906 -0.5961  0.1553
 1473TIP3    H225979   5.090   5.080   0.469  0.4025  2.2856 -1.6447
 1474TIP3   OH225980   3.058   5.863   8.265 -0.5226 -0.2195  0.6268
 1474TIP3    H125981   3.101   5.948   8.276  0.7103 -0.5110 -1.3679
 1474TIP3    H225982   2.977   5.883   8.217  1.7695 -0.3748 -3.8714
 1475TIP3   OH225983   2.440   6.650   0.334  0.0626 -0.1584 -0.6196
 1475TIP3    H125984   2.415   6.668   0.244 -1.4339 -0.7715 -0.3488
 1475TIP3    H225985   2.528   6.687   0.342  0.6424 -0.9885 -2.6039
 1476TIP3   OH225986   4.083   1.575   0.113 -0.3640  0.5215 -0.1267
 1476TIP3    H125987   4.001   1.625   0.119 -0.1899  0.6743  1.5002
 1476TIP3    H225988   4.140   1.614   0.179  0.6085 -0.3450 -0.4225
 1477TIP3   OH225989   6.043   3.157   0.121 -0.4857  0.0764  0.0798
 1477TIP3    H125990   6.089   3.235   0.152  1.4428 -0.0378 -2.2222
 1477TIP3    H225991   5.984   3.134   0.192  2.5177  0.6652  2.9979
 1478TIP3   OH225992   0.369   1.456   8.415 -0.0926  0.1863  0.2199
 1478TIP3    H125993   0.384   1.373   8.370 -0.4651  0.0431  0.3505
 1478TIP3    H225994   0.322   1.510   8.352 -0.0957  0.1958  0.2299
 1479TIP3   OH225995   0.913   3.157   7.822 -0.0039 -0.3202  0.3706
 1479TIP3    H125996   0.937   3.110   7.902 -0.1172  0.3307  0.7941
 1479TIP3    H225997   0.995   3.197   7.793 -0.4035  1.4452  1.5123
 1480TIP3   OH225998   5.690   1.783   7.588  0.0735  0.4044 -0.3505
 1480TIP3    H125999   5.736   1.699   7.588  1.7973  1.3040 -1.2825
 1480TIP3    H226000   5.672   1.801   7.680 -0.7775 -1.1864 -0.1645
 1481TIP3   OH226001   1.915   6.354   7.139  0.2075  0.3026 -0.2018
 1481TIP3    H126002   1.939   6.421   7.075 -0.1320 -1.9429 -2.8766
 1481TIP3    H226003   1.828   6.325   7.111  1.3997 -3.0600 -0.9498
 1482TIP3   OH226004   3.199   2.709   1.585 -0.6937  0.0471  0.4432
 1482TIP3    H126005   3.181   2.706   1.491 -2.0800 -1.0239  0.7150
 1482TIP3    H226006   3.227   2.621   1.607 -1.1959  0.0637  1.1767
 1483TIP3   OH226007   5.719   3.918   1.125  0.0535 -0.0888  0.5082
 1483TIP3    H126008   5.674   3.884   1.203 -1.8315 -0.0965 -0.5266
 1483TIP3    H226009   5.660   3.985   1.091  1.7455  1.2971  0.1409
 1484TIP3   OH226010   0.494   3.158   7.583  0.0866 -0.0795  0.2136
 1484TIP3    H126011   0.455   3.184   7.666 -2.1474  2.5833 -1.4636
 1484TIP3    H226012   0.434   3.094   7.546 -1.6506  2.2440 -1.3014
 1485TIP3   OH226013   3.371   2.507   0.050 -0.4306  0.0252 -0.4559
 1485TIP3    H126014   3.323   2.585   0.078 -0.8470 -0.8440  1.3366
 1485TIP3    H226015   3.344   2.494  -0.041 -0.9234  1.5326 -0.5543
 1486TIP3   OH226016   1.932   1.192   8.886  0.2925 -0.0478  0.1033
 1486TIP3    H126017   2.002   1.235   8.937  0.2897  0.3555 -0.2250
 1486TIP3    H226018   1.979   1.136   8.824  0.2894 -0.7713  0.7422
 1487TIP3   OH226019   1.081   2.799   8.114  0.6786  0.0828  0.4807
 1487TIP3    H126020   1.152   2.829   8.170 -0.8573 -0.5524  2.8937
 1487TIP3    H226021   1.080   2.704   8.125  1.0035 -0.2051 -1.5381
 1488TIP3   OH226022   2.109   0.031   2.062 -0.2684  0.3423  0.1660
 1488TIP3    H126023   2.046   0.013   2.132 -0.0192 -0.9873  0.0779
 1488TIP3    H226024   2.124  -0.055   2.021  1.1505  0.7366 -0.1857
 1489TIP3   OH226025   3.381   0.406   7.456 -0.1935  0.1606  0.7414
 1489TIP3    H126026   3.404   0.313   7.454 -0.8193  0.0261 -0.6731
 1489TIP3    H226027   3.456   0.449   7.415 -0.7269  0.0884 -0.3310
 1490TIP3   OH226028   4.814   6.351   7.185  0.6700  0.0975 -0.0335
 1490TIP3    H126029   4.849   6.363   7.096  0.5930  1.2733  0.0854
 1490TIP3    H226030   4.883   6.384   7.242  1.6753 -2.6535  0.5023
 1491TIP3   OH226031   3.220   0.990   8.325 -0.3027  0.1300  0.2597
 1491TIP3    H126032   3.129   1.010   8.304 -0.2697 -1.6979 -2.0392
 1491TIP3    H226033   3.217   0.953   8.413 -1.9559 -0.7937 -0.1433
 1492TIP3   OH226034   0.865   6.027   8.313 -0.0070  0.4288  0.2284
 1492TIP3    H126035   0.934   6.017   8.379  0.0353 -0.3949  0.0728
 1492TIP3    H226036   0.878   5.953   8.253  0.4052  1.5747 -1.1355
 1493TIP3   OH226037   1.628   3.366   7.832  0.6863  0.5529  0.4500
 1493TIP3    H126038   1.559   3.302   7.846  0.1479  0.8304 -0.7518
 1493TIP3    H226039   1.627   3.421   7.911 -0.7996  0.8398  0.2632
 1494TIP3   OH226040   0.834   5.724   7.610  0.9393 -0.7526  1.0237
 1494TIP3    H126041   0.768   5.776   7.656  0.0571 -1.3617  0.4837
 1494TIP3    H226042   0.810   5.732   7.517  1.0254 -1.7922  0.9068
 1495TIP3   OH226043   2.512   3.063   8.787 -0.4644 -0.6418 -0.2314
 1495TIP3    H126044   2.443   3.100   8.732 -0.7785 -0.0783  0.5111
 1495TIP3    H226045   2.592   3.107   8.758 -0.2906 -1.7489 -1.5144
 1496TIP3   OH226046   2.720   4.888   6.992  0.2375 -0.4468  0.5247
 1496TIP3    H126047   2.683   4.816   7.043 -0.1096  0.3010  1.3544
 1496TIP3    H226048   2.659   4.899   6.918  0.6829 -1.4563 -0.0127
 1497TIP3   OH226049   4.446   4.566   8.949 -0.5368  0.2065  0.1246
 1497TIP3    H126050   4.412   4.506   8.882  2.5104 -0.8460 -0.6326
 1497TIP3    H226051   4.462   4.648   8.902 -0.1859  0.0821  0.0294
 1498TIP3   OH226052   4.300   2.577   1.321 -0.1196  0.1346  0.3469
 1498TIP3    H126053   4.376   2.618   1.361  1.2662 -0.3781 -1.5939
 1498TIP3    H226054   4.335   2.526   1.248 -2.1966 -1.2485  0.2141
 1499TIP3   OH226055   1.944   3.476   1.874 -0.5570  0.1947  0.0530
 1499TIP3    H126056   1.854   3.457   1.846 -0.1780  1.1367 -1.9499
 1499TIP3    H226057   1.934   3.522   1.957 -1.9388  0.4867 -0.2488
 1500TIP3   OH226058   0.002   1.314   0.431 -0.0861 -0.3687  0.2337
 1500TIP3    H126059   0.007   1.248   0.363 -1.1701 -0.4462  0.1982
 1500TIP3    H226060  -0.089   1.345   0.427  0.2235  0.6396  0.6886
 1501TIP3   OH226061   5.693   0.751   7.130 -0.2516 -0.1464  0.0065
 1501TIP3    H126062   5.646   0.795   7.200  0.0543 -1.0059  0.7661
 1501TIP3    H226063   5.783   0.742   7.163  0.4385  1.2597 -1.3186
 1502TIP3   OH226064   2.582   3.305   1.196  0.2274 -0.3756 -0.3831
 1502TIP3    H126065   2.532   3.225   1.212  0.2394 -0.1564  0.8819
 1502TIP3    H226066   2.650   3.305   1.263  0.7860  0.2559 -0.9295
 1503TIP3   OH226067   4.471   6.005   0.743 -0.2724 -0.2852 -0.3524
 1503TIP3    H126068   4.379   5.995   0.717  0.2551 -1.1297 -1.9638
 1503TIP3    H226069   4.491   5.926   0.793 -0.2049 -0.4420 -0.6309
 1504TIP3   OH226070   3.725   1.771   0.947  0.0684 -0.8678 -0.3515
 1504TIP3    H126071   3.790   1.772   0.877  0.3397 -0.9150 -0.1000
 1504TIP3    H226072   3.774   1.792   1.026 -0.3503 -0.2204 -0.2631
 1505TIP3   OH226073   3.254   1.394   7.424 -0.0332  0.4074  0.6720
 1505TIP3    H126074   3.305   1.345   7.489 -0.0713 -0.3023  0.1766
 1505TIP3    H226075   3.164   1.365   7.437  0.1547 -0.8894 -0.6843
 1506TIP3   OH226076   3.398   2.640   7.022 -0.0178  0.5935  0.3835
 1506TIP3    H126077   3.413   2.735   7.019  1.0500  0.4263  0.1774
 1506TIP3    H226078   3.316   2.627   6.974 -0.4446  1.4602  0.8511
 1507TIP3   OH226079   0.658   6.399   7.872 -0.0415 -0.4013  0.6401
 1507TIP3    H126080   0.722   6.398   7.943 -0.2243  0.0527  0.8142
 1507TIP3    H226081   0.629   6.490   7.867 -1.3699 -0.7742  1.1909
 1508TIP3   OH226082   0.653   1.438   0.350 -0.6330  0.1788  0.1658
 1508TIP3    H126083   0.684   1.527   0.332 -1.0570  0.5610  1.2160
 1508TIP3    H226084   0.619   1.407   0.267  0.2454  0.6986 -0.4037
 1509TIP3   OH226085   6.549   4.842   0.134  0.0989 -0.1330  0.3947
 1509TIP3    H126086   6.533   4.924   0.087 -1.4237 -1.4147 -1.4957
 1509TIP3    H226087   6.530   4.863   0.226 -3.7201  0.8833 -0.4518
 1510TIP3   OH226088   0.066   1.324   1.771  0.3314 -0.5219  0.1539
 1510TIP3    H126089   0.086   1.241   1.814  2.0105  0.2728  1.0204
 1510TIP3    H226090   0.151   1.369   1.765 -0.6900  1.6255  0.8189
 1511TIP3   OH226091   4.825   1.603   2.872 -0.2993  0.1545 -0.4471
 1511TIP3    H126092   4.735   1.616   2.902 -0.2855  0.1237 -0.3938
 1511TIP3    H226093   4.831   1.509   2.853 -0.0183  0.0032  0.3764
 1512TIP3   OH226094   3.632   3.367   8.962  0.4214 -0.3613  0.1127
 1512TIP3    H126095   3.671   3.452   8.942  1.1091 -0.8477 -0.6803
 1512TIP3    H226096   3.562   3.387   9.024  1.1118  0.6833  0.5881
 1513TIP3   OH226097   1.107   6.213   8.928  0.2868 -0.1701 -0.4291
 1513TIP3    H126098   1.093   6.142   8.865 -0.8094  0.2938 -0.7410
 1513TIP3    H226099   1.018   6.237   8.956  0.3691  2.7716 -2.2688
 1514TIP3   OH226100   3.705   0.765   0.336 -0.2069  0.2999 -0.1328
 1514TIP3    H126101   3.658   0.846   0.318 -0.8899 -0.5049 -2.1579
 1514TIP3    H226102   3.780   0.766   0.277 -1.5713 -1.6224 -2.0507
 1515TIP3   OH226103   4.804   0.664   0.912  0.6095  0.2910  0.2608
 1515TIP3    H126104   4.780   0.755   0.891 -0.1796  0.4315  1.6739
 1515TIP3    H226105   4.788   0.616   0.831  0.1809  1.2624 -0.2490
 1516TIP3   OH226106   0.002   2.910   8.935 -0.4908  0.8958  0.1620
 1516TIP3    H126107  -0.054   2.985   8.955  0.6639  1.3509  1.8947
 1516TIP3    H226108   0.091   2.941   8.951  0.1042 -0.4421 -0.4105
 1517TIP3   OH226109   5.606   4.355   7.031 -0.3072 -0.6176  0.2965
 1517TIP3    H126110   5.576   4.329   6.944 -0.7548  2.4540 -0.6077
 1517TIP3    H226111   5.692   4.394   7.016  0.3544 -1.5407  1.5275
 1518TIP3   OH226112   4.568   6.377   7.023  0.0532  0.4001 -0.0848
 1518TIP3    H126113   4.630   6.327   7.076 -1.8271 -1.5449  0.3951
 1518TIP3    H226114   4.612   6.387   6.938  0.7434 -1.6155 -0.0268
 1519TIP3   OH226115   3.142   0.739   1.256 -0.5583  0.1251 -0.7233
 1519TIP3    H126116   3.063   0.752   1.204 -2.1443 -4.9491 -0.1684
 1519TIP3    H226117   3.112   0.742   1.347  0.1470 -0.4908 -0.4596
 1520TIP3   OH226118   4.548   6.060   0.282  0.3481  0.4267 -0.1598
 1520TIP3    H126119   4.557   5.992   0.349  0.3706 -0.4510 -1.0225
 1520TIP3    H226120   4.632   6.059   0.235 -0.3070 -0.2996 -1.3824
 1521TIP3   OH226121   0.952   1.385   1.232  0.1968 -0.4840 -0.1384
 1521TIP3    H126122   0.958   1.415   1.142 -0.6200  0.1374 -0.0069
 1521TIP3    H226123   0.888   1.313   1.229  1.5567 -1.7313 -0.3274
 1522TIP3   OH226124   3.091   0.878   0.539  0.3368 -0.7430 -0.0898
 1522TIP3    H126125   3.167   0.846   0.491  0.6883 -0.7926  0.4978
 1522TIP3    H226126   3.125   0.943   0.600 -0.1893 -0.2469 -0.3121
 1523TIP3   OH226127   5.223   2.024   8.845 -0.3148 -0.3311  0.3969
 1523TIP3    H126128   5.315   2.023   8.872  0.5657  1.0736 -2.2187
 1523TIP3    H226129   5.213   1.946   8.790 -0.3812  0.0662 -0.1627
 1524TIP3   OH226130   6.535   6.283   7.626  0.2079  0.3600  0.0870
 1524TIP3    H126131   6.545   6.348   7.695 -0.7914  1.5906 -0.9021
 1524TIP3    H226132   6.528   6.333   7.545 -0.7132 -0.9593 -0.6951
 1525TIP3   OH226133   3.426   4.980   8.102  0.1479  0.3333 -0.1756
 1525TIP3    H126134   3.426   4.904   8.160 -1.5838 -0.0224 -0.5764
 1525TIP3    H226135   3.498   4.965   8.042  0.0265 -0.8396 -0.0427
 1526TIP3   OH226136   1.730   5.688   8.745  0.1233 -0.1067 -0.4468
 1526TIP3    H126137   1.717   5.746   8.670  0.3644  0.1730 -0.2746
 1526TIP3    H226138   1.742   5.747   8.819 -0.7169 -0.3810 -0.0787
 1527TIP3   OH226139   4.428   1.427   0.890  0.1341  0.1686 -0.0356
 1527TIP3    H126140   4.438   1.384   0.975 -0.5542  0.0380 -0.0122
 1527TIP3    H226141   4.398   1.515   0.912  1.7043  0.7389 -0.0761
 1528TIP3   OH226142   3.785   1.955   0.345  0.2116  0.4380 -0.8681
 1528TIP3    H126143   3.843   1.906   0.403 -0.3935 -0.9501 -1.3809
 1528TIP3    H226144   3.843   1.993   0.279  0.9081  2.0402  0.5910
 1529TIP3   OH226145   5.057   1.659   2.697  0.5893  0.5771 -0.1063
 1529TIP3    H126146   4.973   1.651   2.743  0.3777 -0.0528 -0.5788
 1529TIP3    H226147   5.116   1.602   2.747  1.2017  2.3180  1.2267
 1530TIP3   OH226148   4.742   0.844   7.474  0.5893 -0.0272  0.2388
 1530TIP3    H126149   4.823   0.863   7.522  1.6387 -0.5881 -1.2619
 1530TIP3    H226150   4.713   0.760   7.509  0.1160  0.6045  1.4386
 1531TIP3   OH226151   0.963   0.347   6.950 -0.2437 -0.0484 -0.0794
 1531TIP3    H126152   0.954   0.423   7.008  0.5060 -1.5356  2.1463
 1531TIP3    H226153   0.936   0.273   7.005 -1.0775 -1.4103 -2.2091
 1532TIP3   OH226154   4.603   1.213   1.820 -0.3667  0.3015 -0.0902
 1532TIP3    H126155   4.595   1.251   1.907 -1.1820  1.2687 -0.5730
 1532TIP3    H226156   4.695   1.188   1.813 -0.0695  1.1574  0.6559
 1533TIP3   OH226157   3.711   4.644   0.618 -0.0430  0.0852  0.1690
 1533TIP3    H126158   3.684   4.638   0.526  1.6926 -0.5577 -0.3468
 1533TIP3    H226159   3.762   4.724   0.622  0.5710 -0.3064  0.3590
 1534TIP3   OH226160   2.206   1.405   8.217  0.1814  0.1586 -0.1821
 1534TIP3    H126161   2.252   1.400   8.133 -1.0768  1.8995 -1.0455
 1534TIP3    H226162   2.146   1.330   8.216 -0.4118  0.6292 -1.2346
 1535TIP3   OH226163   1.058   4.410   1.344 -0.1680  0.7069 -0.4948
 1535TIP3    H126164   1.067   4.505   1.346 -1.2414  0.8037  0.2034
 1535TIP3    H226165   1.144   4.378   1.372 -0.0806  1.4902  0.1797
 1536TIP3   OH226166   5.088   6.320   1.079  0.2082  0.7536 -0.1571
 1536TIP3    H126167   5.036   6.294   1.003  0.5786 -1.0684  0.1640
 1536TIP3    H226168   5.026   6.319   1.153  0.4657 -0.4558  0.0586
 1537TIP3   OH226169   2.759   1.249   2.479  0.5204  0.2818 -0.1211
 1537TIP3    H126170   2.672   1.213   2.494  0.7576 -0.5978 -0.7477
 1537TIP3    H226171   2.790   1.275   2.566  0.1905 -0.7165  0.3132
 1538TIP3   OH226172   5.398   3.043   7.428 -0.2982 -0.4161  0.3382
 1538TIP3    H126173   5.472   2.997   7.388 -1.1944 -1.8299  0.2419
 1538TIP3    H226174   5.393   3.008   7.517 -1.4197 -1.0511  0.0439
 1539TIP3   OH226175   2.905   3.555   8.292 -0.2212  0.5828  0.3625
 1539TIP3    H126176   2.842   3.549   8.221 -1.3755 -0.9964  1.4368
 1539TIP3    H226177   2.860   3.516   8.367  1.9747 -0.5216  1.1956
 1540TIP3   OH226178   5.386   4.075   8.589  0.0394  0.1290 -0.4483
 1540TIP3    H126179   5.389   4.170   8.594 -1.3218  0.3289 -2.2430
 1540TIP3    H226180   5.309   4.051   8.641  1.2978 -0.1952  1.3705
 1541TIP3   OH226181   5.018   2.661   7.065  0.2865 -0.2556 -0.5608
 1541TIP3    H126182   4.982   2.734   7.116  1.4943 -0.1400  0.1545
 1541TIP3    H226183   4.991   2.680   6.975 -1.8021 -0.4198 -0.0253
 1542TIP3   OH226184   3.368   5.556   8.535  0.1393 -0.3578 -0.3644
 1542TIP3    H126185   3.427   5.581   8.464 -1.0867 -0.8743 -1.6182
 1542TIP3    H226186   3.281   5.576   8.501 -0.4651 -0.3969  1.1071
 1543TIP3   OH226187   6.667   0.226   1.727 -0.0273 -0.1056 -0.2328
 1543TIP3    H126188   6.640   0.314   1.752 -0.8568 -0.0534 -1.2937
 1543TIP3    H226189   6.758   0.220   1.757 -0.0097  1.0494 -0.0138
 1544TIP3   OH226190   3.895   2.101   1.659  0.1555  0.1314  0.1346
 1544TIP3    H126191   3.958   2.044   1.704  0.4945  0.8620  0.6046
 1544TIP3    H226192   3.926   2.189   1.677  1.4072  0.4915 -3.0884
 1545TIP3   OH226193   1.180   1.235   0.428 -0.2231 -0.1633 -0.4634
 1545TIP3    H126194   1.238   1.294   0.476  1.8043 -0.3941 -2.4616
 1545TIP3    H226195   1.107   1.290   0.400  1.0155  1.1312 -1.2581
 1546TIP3   OH226196   2.168   4.266   1.965 -0.5829  0.3413  0.3173
 1546TIP3    H126197   2.210   4.298   1.885 -1.5203  1.2406  0.1720
 1546TIP3    H226198   2.177   4.338   2.027  0.9523 -0.6800  1.3568
 1547TIP3   OH226199   0.316   6.276   6.537 -0.0387 -0.2139  0.1288
 1547TIP3    H126200   0.391   6.283   6.596  1.4592 -1.1876 -1.5647
 1547TIP3    H226201   0.318   6.186   6.506 -0.8903  0.2061 -1.2402
 1548TIP3   OH226202   0.877   5.006   1.717  0.3296 -0.1262  0.0726
 1548TIP3    H126203   0.795   4.962   1.694  1.5012 -1.4934 -1.8204
 1548TIP3    H226204   0.881   5.082   1.659 -0.0573  0.5340  0.8931
 1549TIP3   OH226205   4.539   1.213   8.713 -0.2999  0.2113 -0.1991
 1549TIP3    H126206   4.545   1.197   8.619 -0.1928  1.5777 -0.4419
 1549TIP3    H226207   4.574   1.133   8.753  0.2642 -0.1274 -1.3242
 1550TIP3   OH226208   1.437   6.305   7.916  1.0754  0.0522 -0.1443
 1550TIP3    H126209   1.495   6.353   7.858  0.3333  0.2399 -0.7531
 1550TIP3    H226210   1.349   6.335   7.892  0.4597 -2.5438 -1.4148
 1551TIP3   OH226211   0.130   2.439   2.422 -0.5239  0.2687  0.2194
 1551TIP3    H126212   0.173   2.369   2.471 -0.6363  0.4723  0.6188
 1551TIP3    H226213   0.037   2.428   2.442 -0.6060  0.1445 -0.2245
 1552TIP3   OH226214   4.234   4.981   2.303  1.0409 -0.0542  0.3942
 1552TIP3    H126215   4.209   5.070   2.278  0.8990  0.4520  2.2408
 1552TIP3    H226216   4.224   4.931   2.222  1.6284  1.6846 -0.8321
 1553TIP3   OH226217   2.436   0.469   0.347 -0.6313  0.9183 -0.0713
 1553TIP3    H126218   2.366   0.422   0.303 -0.4083  1.5138 -1.0826
 1553TIP3    H226219   2.396   0.552   0.374 -0.8544  0.4352  1.1563
 1554TIP3   OH226220   5.457   0.166   0.553  0.0208 -0.6366 -0.0182
 1554TIP3    H126221   5.452   0.089   0.496  1.3102  0.6732 -2.0249
 1554TIP3    H226222   5.520   0.224   0.510 -0.9212  1.5799  1.3970
 1555TIP3   OH226223   4.861   0.107   0.427  0.1641  0.0369 -0.2345
 1555TIP3    H126224   4.815   0.135   0.349  0.5215  5.4363  1.0906
 1555TIP3    H226225   4.952   0.136   0.413  0.2790  0.9461  1.9791
 1556TIP3   OH226226   0.731   0.851   1.515 -0.1355 -0.4912 -0.2351
 1556TIP3    H126227   0.783   0.783   1.557  1.7089  0.5727 -0.6762
 1556TIP3    H226228   0.695   0.809   1.437 -1.5762 -1.7787  1.0749
 1557TIP3   OH226229   1.105   0.147   0.440  0.0782  0.8723 -0.4219
 1557TIP3    H126230   1.070   0.236   0.440 -0.7201  0.6426  2.0063
 1557TIP3    H226231   1.135   0.133   0.530 -0.0557 -1.4029 -0.6684
 1558TIP3   OH226232   4.291   0.226   7.522 -0.0024 -0.2941  0.1768
 1558TIP3    H126233   4.294   0.262   7.433 -1.6299 -1.0106 -0.2283
 1558TIP3    H226234   4.293   0.131   7.509 -0.3377 -0.4094  0.8949
 1559TIP3   OH226235   0.663   5.881   7.754  0.6958  0.0406  0.2241
 1559TIP3    H126236   0.709   5.955   7.794  1.1181  0.6408 -1.2843
 1559TIP3    H226237   0.578   5.917   7.728  0.4845 -0.2950  0.4544
 1560TIP3   OH226238   1.079   2.946   0.359  0.1819  0.5175  0.1513
 1560TIP3    H126239   1.156   2.987   0.318  0.5713 -0.0029  0.3460
 1560TIP3    H226240   1.093   2.956   0.453 -0.1003  0.6192  0.1830
 1561TIP3   OH226241   0.136   5.127   7.086  0.2280  0.4159 -0.0630
 1561TIP3    H126242   0.227   5.150   7.070 -0.6438  2.9982 -2.1383
 1561TIP3    H226243   0.119   5.050   7.032  1.0202  0.2986 -0.1429
 1562TIP3   OH226244   1.448   5.743   0.059 -0.0955  0.1078  0.1326
 1562TIP3    H126245   1.465   5.711  -0.030  0.5166  1.5663 -0.3098
 1562TIP3    H226246   1.462   5.837   0.053 -0.9055  0.3444  1.5926
 1563TIP3   OH226247   5.721   1.457   0.995  0.1356  0.3544  0.1232
 1563TIP3    H126248   5.804   1.485   0.958 -0.3499  0.8359 -0.6355
 1563TIP3    H226249   5.744   1.416   1.079  1.4529 -2.1102 -1.3155
 1564TIP3   OH226250   3.848   1.253   7.638 -0.2872 -0.6182  0.1568
 1564TIP3    H126251   3.767   1.302   7.628 -0.9257 -1.6139  0.3470
 1564TIP3    H226252   3.878   1.271   7.727 -0.9800 -1.2394  0.5263
 1565TIP3   OH226253   3.776   2.680   8.523 -0.3481 -0.1950 -0.0665
 1565TIP3    H126254   3.712   2.750   8.537 -0.5889  0.0708 -2.1727
 1565TIP3    H226255   3.858   2.715   8.555 -0.4653  1.0919 -1.0857
 1566TIP3   OH226256   4.328   6.633   8.890 -0.0463 -0.0944 -0.4262
 1566TIP3    H126257   4.350   6.552   8.845 -2.1631 -0.4801 -0.8917
 1566TIP3    H226258   4.248   6.612   8.940  0.1914  1.3055  0.6187
 1567TIP3   OH226259   0.729   3.386   0.652 -0.6045 -0.4151 -0.6759
 1567TIP3    H126260   0.783   3.463   0.632  1.7119 -1.7007  0.2225
 1567TIP3    H226261   0.739   3.374   0.746 -1.9556 -1.1128 -0.6040
 1568TIP3   OH226262   2.580   5.259   8.803 -0.4431 -0.4541 -0.0674
 1568TIP3    H126263   2.621   5.336   8.763  2.1336 -0.5563  2.1192
 1568TIP3    H226264   2.610   5.186   8.749  0.1418 -0.2590 -0.0187
 1569TIP3   OH226265   4.930   5.591   7.883  0.7941  0.2021  0.4853
 1569TIP3    H126266   4.897   5.512   7.926  0.7917  0.0907  0.2793
 1569TIP3    H226267   5.004   5.561   7.831  1.0317  0.4022  0.7084
 1570TIP3   OH226268   6.439   2.942   1.368  0.0832  0.9398 -0.1851
 1570TIP3    H126269   6.413   2.902   1.451 -0.4943  0.7239 -0.4657
 1570TIP3    H226270   6.384   2.899   1.302  0.1002  1.5438 -0.6010
 1571TIP3   OH226271   4.643   1.066   0.398 -0.1528 -0.1361 -0.4305
 1571TIP3    H126272   4.722   1.012   0.400  0.0573  0.1121 -1.5593
 1571TIP3    H226273   4.630   1.087   0.306 -0.3351  1.5679 -0.0519
 1572TIP3   OH226274   5.048   2.449   1.394 -0.2888 -0.2452 -0.2354
 1572TIP3    H126275   5.120   2.443   1.456 -0.1312 -0.0055 -0.3951
 1572TIP3    H226276   5.068   2.526   1.341 -1.0945  0.3463  0.2852
 1573TIP3   OH226277   3.404   4.417   1.024 -0.2683  0.1266 -0.1124
 1573TIP3    H126278   3.488   4.373   1.007 -0.5935 -1.8491  2.7227
 1573TIP3    H226279   3.338   4.354   0.996 -0.7377 -1.0055  3.1146
 1574TIP3   OH226280   1.804   6.466   7.472 -0.3342 -0.3348  0.3155
 1574TIP3    H126281   1.740   6.434   7.409  0.0415  0.5854 -0.5639
 1574TIP3    H226282   1.888   6.464   7.425  0.2259 -1.1216  1.3101
 1575TIP3   OH226283   4.655   2.121   7.007  0.1449  0.5535 -0.0570
 1575TIP3    H126284   4.662   2.156   6.918  0.5648  2.0315  0.5377
 1575TIP3    H226285   4.570   2.075   7.008 -0.9666  2.4948 -0.5692
 1576TIP3   OH226286   5.526   0.527   1.829  0.8260  0.5349 -0.5203
 1576TIP3    H126287   5.480   0.587   1.888  0.1432 -2.2403  2.0186
 1576TIP3    H226288   5.616   0.527   1.860  1.4882  2.1263 -2.2433
 1577TIP3   OH226289   0.368   5.995   0.037 -0.2149 -0.0183 -0.3064
 1577TIP3    H126290   0.385   5.902   0.022 -1.1559 -0.3383  0.4663
 1577TIP3    H226291   0.382   6.007   0.131 -0.2356  0.5925 -0.3771
 1578TIP3   OH226292   1.324   6.549   0.018 -0.2852 -0.2303 -0.2374
 1578TIP3    H126293   1.366   6.581  -0.061  0.1243 -1.0578 -0.3613
 1578TIP3    H226294   1.255   6.613   0.036 -0.4827 -0.1101 -1.3446
 1579TIP3   OH226295   4.484   5.241   1.535 -0.3648  0.2455 -0.0937
 1579TIP3    H126296   4.577   5.226   1.555 -0.8777 -0.9338  1.5799
 1579TIP3    H226297   4.439   5.231   1.619 -2.3181 -1.9293 -1.2868
 1580TIP3   OH226298   5.385   6.431   0.349  0.9304 -1.2005 -0.3366
 1580TIP3    H126299   5.388   6.499   0.417 -0.0312  0.1560 -1.5803
 1580TIP3    H226300   5.422   6.473   0.271 -1.8927 -1.1901 -1.8118
 1581TIP3   OH226301   4.691   3.384   1.666  0.5323 -0.2255  0.0073
 1581TIP3    H126302   4.655   3.312   1.615 -0.9830  0.9193 -0.6349
 1581TIP3    H226303   4.638   3.387   1.746  0.2821  0.4283 -0.1744
 1582TIP3   OH226304   3.935   2.898   0.100  0.8328  0.5784 -0.6159
 1582TIP3    H126305   4.001   2.845   0.056 -0.0010  0.0829 -1.2860
 1582TIP3    H226306   3.984   2.969   0.141  1.8774 -0.2602 -0.3790
 1583TIP3   OH226307   3.343   4.357   7.401  0.1489 -0.3815 -0.2485
 1583TIP3    H126308   3.255   4.385   7.376  0.9993  1.8470 -1.0246
 1583TIP3    H226309   3.346   4.368   7.496 -0.5909 -1.0552 -0.1412
 1584TIP3   OH226310   3.525   4.212   1.719  0.1013  0.0715  0.1530
 1584TIP3    H126311   3.439   4.171   1.715  0.0528  0.0181  1.2796
 1584TIP3    H226312   3.584   4.140   1.742  0.6866 -0.1675 -1.9036
 1585TIP3   OH226313   1.187   2.524   8.127 -0.2439 -0.0944 -0.1513
 1585TIP3    H126314   1.132   2.447   8.118 -0.3308 -0.0916  0.3118
 1585TIP3    H226315   1.265   2.504   8.075  0.6964 -1.4159  1.6258
 1586TIP3   OH226316   4.497   5.225   6.947  0.9766  0.2134 -0.0226
 1586TIP3    H126317   4.491   5.145   6.999  0.8141  0.8633  0.9743
 1586TIP3    H226318   4.586   5.224   6.913  1.6944  0.6596  1.7397
 1587TIP3   OH226319   6.440   2.284   6.954  0.0245 -0.5697 -0.4619
 1587TIP3    H126320   6.352   2.256   6.930 -0.7148 -0.3791  1.8178
 1587TIP3    H226321   6.494   2.260   6.879 -1.7806 -1.6683 -1.4697
 1588TIP3   OH226322   5.505   2.243   8.332  0.3463  0.1697  0.0980
 1588TIP3    H126323   5.476   2.325   8.374 -1.0144 -0.8617  1.2728
 1588TIP3    H226324   5.588   2.223   8.375  0.6816  0.9055 -0.1822
 1589TIP3   OH226325   1.719   6.166   8.326  0.0126 -0.4350 -0.6786
 1589TIP3    H126326   1.720   6.071   8.319 -0.0223 -0.5568  0.8001
 1589TIP3    H226327   1.804   6.189   8.363 -0.1230  0.0842 -0.6848
 1590TIP3   OH226328   5.587   1.118   0.102  0.1151 -0.0952 -0.4734
 1590TIP3    H126329   5.571   1.030   0.069  0.6734 -0.4530  0.1790
 1590TIP3    H226330   5.507   1.166   0.083 -1.1416 -1.3812  1.2578
 1591TIP3   OH226331   1.268   6.074   7.650 -0.3729  0.4454 -0.1195
 1591TIP3    H126332   1.254   6.103   7.560 -0.7729 -0.7854 -0.4860
 1591TIP3    H226333   1.214   5.994   7.657 -1.1138  1.0516  1.5054
 1592TIP3   OH226334   5.960   0.591   8.444 -0.1448 -0.2594  0.0865
 1592TIP3    H126335   5.875   0.631   8.465 -0.1067  0.2995 -0.7744
 1592TIP3    H226336   5.986   0.632   8.362  1.6706  0.6675  1.0723
 1593TIP3   OH226337   2.319   0.700   0.402 -0.3513  0.0986  0.2190
 1593TIP3    H126338   2.233   0.741   0.416  0.1557  1.8452 -1.5353
 1593TIP3    H226339   2.381   0.759   0.445  0.2110  0.2505 -0.7809
 1594TIP3   OH226340   5.934   1.583   7.967  0.4216 -0.1295 -0.2761
 1594TIP3    H126341   5.856   1.527   7.964 -0.0794  0.4738  0.8180
 1594TIP3    H226342   5.961   1.581   8.058  1.9762 -0.6775 -0.7217
 1595TIP3   OH226343   4.331   2.148   0.519 -0.2310  0.0330 -0.1523
 1595TIP3    H126344   4.322   2.109   0.606  1.8899  0.9911  0.5603
 1595TIP3    H226345   4.414   2.114   0.486 -0.7090  0.1722 -1.5710
 1596TIP3   OH226346   3.016   5.425   1.585 -0.8637 -0.1354  0.4104
 1596TIP3    H126347   2.938   5.369   1.576 -2.5858  2.1595  0.1066
 1596TIP3    H226348   3.018   5.447   1.679 -0.9351  0.2876  0.3134
 1597TIP3   OH226349   4.376   4.220   7.128 -0.3003 -0.4351 -0.0141
 1597TIP3    H126350   4.327   4.233   7.048  0.1229 -0.9651 -0.3635
 1597TIP3    H226351   4.327   4.270   7.194 -0.3122  0.5098 -0.7129
 1598TIP3   OH226352   5.407   6.733   1.563  0.1292  0.4898 -0.6111
 1598TIP3    H126353   5.317   6.700   1.559 -0.1229  0.8391  1.3370
 1598TIP3    H226354   5.397   6.829   1.566  0.6087  0.5570 -1.0171
 1599TIP3   OH226355   5.040   4.107   8.075  0.1776  0.3394 -0.4791
 1599TIP3    H126356   4.950   4.093   8.106  0.7785 -0.5392  0.9782
 1599TIP3    H226357   5.045   4.201   8.058 -1.1839  0.3087 -1.1967
 1600TIP3   OH226358   1.151   6.566   1.765 -0.2594 -0.2610  0.3825
 1600TIP3    H126359   1.171   6.556   1.858  0.4535  0.1710  0.2787
 1600TIP3    H226360   1.071   6.619   1.764  0.0997  0.2930  0.7345
 1601TIP3   OH226361   3.347   0.494   0.274  0.2131  0.3584 -0.1829
 1601TIP3    H126362   3.398   0.415   0.260  0.6060  0.6387 -0.3547
 1601TIP3    H226363   3.341   0.534   0.187 -1.3970 -0.3286 -0.4219
 1602TIP3   OH226364   6.615   4.428   6.637 -0.3522  0.1720  0.1282
 1602TIP3    H126365   6.686   4.364   6.651 -1.5634 -1.0306  1.1245
 1602TIP3    H226366   6.535   4.376   6.645 -1.4530  2.0474  2.3988
 1603TIP3   OH226367   5.562   5.109   8.397 -0.3913 -0.0094  0.2982
 1603TIP3    H126368   5.556   5.176   8.329 -1.1362  0.4625  0.8098
 1603TIP3    H226369   5.644   5.127   8.442 -0.5969  0.5818  0.4451
 1604TIP3   OH226370   3.862   0.272   0.244  0.0258 -0.1063 -0.1534
 1604TIP3    H126371   3.809   0.272   0.323  0.8614  0.3612  0.4188
 1604TIP3    H226372   3.824   0.341   0.190 -0.1654 -0.0093  0.1007
 1605TIP3   OH226373   0.739   4.103   8.268 -0.1758 -0.1120 -0.1553
 1605TIP3    H126374   0.714   4.167   8.333  0.9374  0.1336  0.0461
 1605TIP3    H226375   0.827   4.129   8.240 -0.3693 -0.5773 -1.2889
 1606TIP3   OH226376   0.785   5.699   6.529 -0.7834  0.1301 -0.2232
 1606TIP3    H126377   0.837   5.701   6.609 -2.1508 -0.7840  0.7574
 1606TIP3    H226378   0.724   5.772   6.539 -2.0596 -0.9736  0.4172
 1607TIP3   OH226379   1.001   0.272   8.489 -0.1633  0.0026  0.0128
 1607TIP3    H126380   1.057   0.342   8.454 -0.4571  1.1719  1.7805
 1607TIP3    H226381   1.026   0.195   8.438  0.9447  1.1403 -1.2660
 1608TIP3   OH226382   6.493   2.291   8.126  0.3766 -0.2764  0.1787
 1608TIP3    H126383   6.573   2.344   8.126 -0.9605  1.9215  1.7712
 1608TIP3    H226384   6.445   2.319   8.048  0.4876 -0.5585  0.0041
 1609TIP3   OH226385   0.272   2.359   8.764  0.0233  0.1093  0.1060
 1609TIP3    H126386   0.217   2.323   8.694 -0.9324  1.0960  0.3235
 1609TIP3    H226387   0.321   2.430   8.722  1.1111 -0.7134 -0.0670
 1610TIP3   OH226388   3.165   1.096   2.050  0.4127  0.5549  1.0419
 1610TIP3    H126389   3.185   1.059   1.964 -1.8603 -0.2690  0.7938
 1610TIP3    H226390   3.214   1.041   2.112  0.8170  0.1400  0.3649
 1611TIP3   OH226391   2.110   2.672   7.609 -0.2100  0.1624 -0.0585
 1611TIP3    H126392   2.139   2.607   7.673  0.7005  0.4422 -0.1768
 1611TIP3    H226393   2.120   2.756   7.654  0.4284  0.3595 -0.5491
 1612TIP3   OH226394   3.183   5.800   7.983  0.2326  0.3777  0.1558
 1612TIP3    H126395   3.117   5.852   7.937  0.7959  1.2334  0.2918
 1612TIP3    H226396   3.182   5.834   8.073 -0.8313 -1.2444  0.8123
 1613TIP3   OH226397   2.251   4.202   0.369  0.6638  0.2221 -0.2258
 1613TIP3    H126398   2.232   4.235   0.281 -0.8693  0.4644  0.1615
 1613TIP3    H226399   2.233   4.277   0.427 -2.3895 -1.0435  0.6269
 1614TIP3   OH226400   6.543   5.042   8.737 -0.4485 -0.1560  0.5887
 1614TIP3    H126401   6.449   5.025   8.740 -0.2335 -1.3759  1.2478
 1614TIP3    H226402   6.578   4.968   8.688  0.3491 -0.7007  1.9225
 1615TIP3   OH226403   0.799   0.541   1.819  0.4710 -0.2588 -0.4551
 1615TIP3    H126404   0.724   0.597   1.838  2.0212  1.1308  2.1576
 1615TIP3    H226405   0.796   0.473   1.886  0.6641 -1.1917 -1.3618
 1616TIP3   OH226406   0.299   5.265   2.146  0.4690 -0.1712  0.4166
 1616TIP3    H126407   0.357   5.334   2.116 -0.5423  0.9501  0.9169
 1616TIP3    H226408   0.350   5.217   2.212  1.2680 -0.0539 -0.1095
 1617TIP3   OH226409   4.611   5.046   0.840  0.1678 -0.1184  0.0734
 1617TIP3    H126410   4.682   5.001   0.794  0.7101  1.2715 -0.5365
 1617TIP3    H226411   4.625   5.027   0.932  0.8163 -0.5825 -0.1161
 1618TIP3   OH226412   2.964   1.095   8.319 -0.0468 -0.2812 -0.1593
 1618TIP3    H126413   2.878   1.053   8.310  0.8902 -2.3698  0.0308
 1618TIP3    H226414   2.951   1.161   8.387 -1.5005 -0.5440 -0.1300
 1619TIP3   OH226415   6.701   4.824   7.568 -0.7016 -0.3890 -0.1702
 1619TIP3    H126416   6.651   4.743   7.556 -1.2681 -0.5245  2.5178
 1619TIP3    H226417   6.634   4.890   7.589  0.0555 -0.3891  2.6495
 1620TIP3   OH226418   5.900   5.154   0.597 -0.3527 -0.0668  0.3681
 1620TIP3    H126419   5.955   5.088   0.640  1.3580  1.5847  0.8381
 1620TIP3    H226420   5.895   5.226   0.660 -0.0769  1.2866 -1.0885
 1621TIP3   OH226421   0.079   3.714   0.550 -0.9704 -0.2976  0.3862
 1621TIP3    H126422   0.072   3.759   0.635 -0.9681  0.3223  0.0626
 1621TIP3    H226423   0.081   3.785   0.486 -0.6508 -0.7554 -0.1139
 1622TIP3   OH226424   4.442   1.378   8.270  0.7712 -0.2160 -0.5445
 1622TIP3    H126425   4.419   1.425   8.350 -0.3991 -1.8376  0.1286
 1622TIP3    H226426   4.520   1.422   8.237  1.0915  0.6767  1.3205
 1623TIP3   OH226427   2.544   1.537   0.904 -0.2762  0.2341  0.8419
 1623TIP3    H126428   2.462   1.514   0.948 -0.8325  1.0300  0.2301
 1623TIP3    H226429   2.570   1.620   0.944 -1.0868  1.2617 -0.7060
 1624TIP3   OH226430   2.283   5.281   7.405  0.4106  0.2460  0.0269
 1624TIP3    H126431   2.272   5.208   7.344 -1.0998  1.2880 -1.0000
 1624TIP3    H226432   2.246   5.248   7.487 -0.7099 -0.0022 -0.5535
 1625TIP3   OH226433   3.061   0.614   2.683 -0.4711  0.8255 -0.4586
 1625TIP3    H126434   3.041   0.703   2.652 -1.1373  1.7382  2.3087
 1625TIP3    H226435   2.989   0.592   2.742 -0.5451 -1.7921 -1.4073
 1626TIP3   OH226436   3.934   0.646   7.384  0.0316 -0.2254  0.3121
 1626TIP3    H126437   3.897   0.565   7.349  0.8352 -0.5332  0.1421
 1626TIP3    H226438   3.974   0.689   7.307  2.1332 -1.0802  0.8540
 1627TIP3   OH226439   0.904   4.467   0.447 -0.0622 -0.2461  0.2220
 1627TIP3    H126440   0.871   4.482   0.358 -1.4149 -1.7635  0.4113
 1627TIP3    H226441   0.828   4.481   0.503  0.7082  0.3920  1.1208
 1628TIP3   OH226442   3.236   6.086   2.697 -1.0619 -0.3068 -0.6206
 1628TIP3    H126443   3.168   6.102   2.632 -0.5091 -2.6010 -1.8737
 1628TIP3    H226444   3.254   5.992   2.691 -1.7598 -0.9161  3.6670
 1629TIP3   OH226445   4.133   0.528   8.719 -0.0242 -0.5845 -0.0953
 1629TIP3    H126446   4.165   0.610   8.757 -2.6999  1.1110 -1.1850
 1629TIP3    H226447   4.195   0.509   8.648  0.7278  0.4036  0.2668
 1630TIP3   OH226448   6.529   2.990   1.683 -0.5910 -0.4719 -0.5033
 1630TIP3    H126449   6.513   3.082   1.660 -2.3940 -0.4471  0.6419
 1630TIP3    H226450   6.582   2.957   1.611 -0.0483  1.4177 -1.0413
 1631TIP3   OH226451   0.318   3.906   7.460 -0.0103 -0.3722 -0.8297
 1631TIP3    H126452   0.311   3.943   7.548  1.1983 -0.5690 -0.6259
 1631TIP3    H226453   0.228   3.897   7.430 -0.4040  3.2455 -1.1281
 1632TIP3   OH226454   1.036   5.062   2.246 -0.5112  0.3383 -0.0004
 1632TIP3    H126455   0.957   5.034   2.294 -0.1060  2.3621  2.0215
 1632TIP3    H226456   1.064   5.142   2.291  1.7130  0.6539 -1.7814
 1633TIP3   OH226457   2.465   0.762   1.264 -1.0216  0.8683 -0.2599
 1633TIP3    H126458   2.428   0.688   1.216 -2.5372  1.3319  0.1546
 1633TIP3    H226459   2.454   0.837   1.204  1.2454  0.6750 -1.0229
 1634TIP3   OH226460   6.193   2.212   6.918 -0.4268 -0.2718  0.8245
 1634TIP3    H126461   6.115   2.215   6.863  0.7662  0.0581 -0.9150
 1634TIP3    H226462   6.161   2.235   7.006 -2.0186  1.4924 -0.1460
 1635TIP3   OH226463   0.200   0.640   0.980  0.2132  0.0397 -0.5618
 1635TIP3    H126464   0.280   0.681   1.013  0.4389 -0.5356 -0.3872
 1635TIP3    H226465   0.166   0.702   0.916  0.4455  0.5888 -0.1573
 1636TIP3   OH226466   0.006   2.418   0.403  0.0598  0.0825  0.0525
 1636TIP3    H126467   0.044   2.340   0.362  0.9638  0.6609 -0.2310
 1636TIP3    H226468   0.020   2.406   0.497  0.3780  0.0024 -0.0070
 1637TIP3   OH226469   2.741   0.576   8.744  0.4877  0.5265 -0.1613
 1637TIP3    H126470   2.684   0.565   8.668  0.8471  2.1199 -0.6973
 1637TIP3    H226471   2.695   0.530   8.815 -0.7716  0.5837 -0.9071
 1638TIP3   OH226472   2.805   0.817   7.064 -1.0204 -0.5585 -0.0148
 1638TIP3    H126473   2.900   0.807   7.072 -1.0305 -1.3241 -0.6828
 1638TIP3    H226474   2.784   0.894   7.117 -0.1139 -0.7496  0.6446
 1639TIP3   OH226475   5.127   5.431   7.780  0.1129 -0.7086 -0.1157
 1639TIP3    H126476   5.114   5.381   7.860  0.7844 -0.3412  0.2339
 1639TIP3    H226477   5.216   5.465   7.787 -0.5514  1.1524  0.0056
 1640TIP3   OH226478   5.246   4.782   0.158  0.2991 -0.1424  0.0731
 1640TIP3    H126479   5.318   4.729   0.125 -0.4616  0.0688 -2.0796
 1640TIP3    H226480   5.168   4.741   0.121 -0.5407  0.7789  0.7823
 1641TIP3   OH226481   5.982   4.898   7.562  0.1815 -0.2305  0.2331
 1641TIP3    H126482   5.951   4.853   7.483  0.1950 -0.0974  0.1503
 1641TIP3    H226483   5.949   4.846   7.635  0.2225 -0.3906  0.1383
 1642TIP3   OH226484   2.205   0.354   8.315  0.3326 -0.3821 -0.5287
 1642TIP3    H126485   2.186   0.390   8.228 -0.1472  0.9392  0.0891
 1642TIP3    H226486   2.300   0.347   8.318  0.2961 -3.3883 -2.2446
 1643TIP3   OH226487   3.900   2.268   8.433 -0.1651 -0.7309  0.8433
 1643TIP3    H126488   3.843   2.315   8.494  0.2609  2.6207 -1.0690
 1643TIP3    H226489   3.963   2.334   8.404  1.9247 -3.1359 -0.4898
 1644TIP3   OH226490   1.143   3.878   1.128  0.3809  0.2601  0.4183
 1644TIP3    H126491   1.139   3.917   1.040 -0.0671 -1.6695 -0.4734
 1644TIP3    H226492   1.063   3.907   1.171  0.3365  0.7777 -0.0101
 1645TIP3   OH226493   0.676   2.677   1.081 -0.1030 -0.2436  0.4023
 1645TIP3    H126494   0.591   2.643   1.108 -0.4398  1.1906  1.2464
 1645TIP3    H226495   0.739   2.629   1.135 -0.5421  0.1926  1.3278
 1646TIP3   OH226496   1.444   0.323   1.116  0.4188  0.1524 -0.7006
 1646TIP3    H126497   1.458   0.264   1.043 -0.3341 -1.0931  0.1196
 1646TIP3    H226498   1.352   0.309   1.141  0.7135  0.3774  0.6103
 1647TIP3   OH226499   4.150   2.012   8.367 -0.5479  0.4643 -0.2197
 1647TIP3    H126500   4.120   2.069   8.438  1.3457  1.7957 -0.4104
 1647TIP3    H226501   4.122   2.057   8.287  0.3305  0.7727 -0.3607
 1648TIP3   OH226502   0.863   0.839   7.465 -0.9895  0.3116  0.3538
 1648TIP3    H126503   0.841   0.774   7.533 -0.0520  0.2582  0.6154
 1648TIP3    H226504   0.855   0.790   7.383  1.3397 -0.6706  0.6254
 1649TIP3   OH226505   2.233   6.082   0.301  0.3546  0.2821  0.0527
 1649TIP3    H126506   2.243   6.173   0.273 -0.1026 -0.0902 -1.3894
 1649TIP3    H226507   2.204   6.036   0.222  1.7984 -1.3457  0.4303
 1650TIP3   OH226508   2.445   0.198   0.174  0.3014 -0.3763 -0.8329
 1650TIP3    H126509   2.466   0.266   0.110  3.1292  0.1336  0.5096
 1650TIP3    H226510   2.371   0.234   0.223 -0.6756  0.0350 -2.5054
 1651TIP3   OH226511   6.040   0.929   1.287 -0.4133 -0.0306 -0.1800
 1651TIP3    H126512   5.975   0.870   1.326  0.9231  0.1255  2.5674
 1651TIP3    H226513   6.108   0.870   1.254 -1.3651 -0.1447 -2.0841
 1652TIP3   OH226514   5.212   4.445   2.162 -0.2112 -0.0077 -0.7586
 1652TIP3    H126515   5.152   4.454   2.237  1.5814 -0.8434  0.8605
 1652TIP3    H226516   5.222   4.351   2.151  1.1394  0.1051 -0.6828
 1653TIP3   OH226517   2.473   1.716   8.279 -0.8880  0.7878 -0.1610
 1653TIP3    H126518   2.516   1.661   8.213  0.0706  0.2118  0.9095
 1653TIP3    H226519   2.482   1.805   8.246 -0.9769  0.4516 -1.1107
 1654TIP3   OH226520   6.447   1.641   2.168  0.3168  0.8390  0.2477
 1654TIP3    H126521   6.372   1.664   2.224  1.1539  3.7147  0.3700
 1654TIP3    H226522   6.410   1.634   2.080 -0.1665  2.0735  0.3316
 1655TIP3   OH226523   3.228   5.651   7.770 -0.1495 -0.1467  0.0770
 1655TIP3    H126524   3.304   5.593   7.781  0.4635  0.4968 -0.5929
 1655TIP3    H226525   3.237   5.715   7.841 -0.1818 -0.1891  0.1192
 1656TIP3   OH226526   5.881   3.679   6.919  0.0529 -0.8101 -0.4795
 1656TIP3    H126527   5.888   3.743   6.990 -0.4051 -0.0471 -1.1111
 1656TIP3    H226528   5.857   3.598   6.963 -2.1910  0.0877  0.0776
 1657TIP3   OH226529   0.610   3.739   0.651  0.0890  0.5510 -0.1645
 1657TIP3    H126530   0.541   3.780   0.703  0.6814  0.5516  0.6449
 1657TIP3    H226531   0.653   3.679   0.712 -0.5963 -1.1199 -1.2463
 1658TIP3   OH226532   3.808   3.325   7.012  0.0570  0.2031 -0.4568
 1658TIP3    H126533   3.774   3.334   6.923  1.7801 -1.0497 -1.3191
 1658TIP3    H226534   3.808   3.230   7.028 -0.3493  0.4185  0.9424
 1659TIP3   OH226535   3.109   4.411   8.241  0.0508 -0.4505 -0.2028
 1659TIP3    H126536   3.146   4.471   8.176  1.3566 -0.0916  0.8241
 1659TIP3    H226537   3.027   4.453   8.269  1.2858  1.2913  1.0329
 1660TIP3   OH226538   5.773   2.843   6.655  0.4259 -0.0332 -0.4353
 1660TIP3    H126539   5.820   2.785   6.714 -0.9140  0.9204  1.6740
 1660TIP3    H226540   5.691   2.798   6.637 -0.2732  0.8128  0.5614
 1661TIP3   OH226541   4.573   3.412   0.873  0.1227  0.2269  0.1034
 1661TIP3    H126542   4.575   3.349   0.945  0.7562  0.3506  0.2087
 1661TIP3    H226543   4.481   3.425   0.854 -0.0094 -1.3381 -0.4583
 1662TIP3   OH226544   5.836   2.288   8.083 -0.3315  0.6460  0.1087
 1662TIP3    H126545   5.862   2.338   8.006  0.9267 -1.0183 -0.6033
 1662TIP3    H226546   5.875   2.202   8.071 -0.5143  0.1679  2.3760
 1663TIP3   OH226547   5.563   6.184   8.468  0.2410  0.2548 -0.3825
 1663TIP3    H126548   5.595   6.104   8.509  0.5730  0.4045 -0.3461
 1663TIP3    H226549   5.525   6.234   8.541 -0.4962 -0.1156 -0.4940
 1664TIP3   OH226550   3.207   3.789   0.973 -0.5720  0.0200 -0.0780
 1664TIP3    H126551   3.212   3.873   1.018  1.2740  0.1616 -0.4773
 1664TIP3    H226552   3.197   3.725   1.044 -1.5258  0.5095  0.2544
 1665TIP3   OH226553   2.892   1.154   0.865 -0.6839 -0.0528  0.0457
 1665TIP3    H126554   2.910   1.085   0.930 -0.8821 -1.2038 -1.0805
 1665TIP3    H226555   2.924   1.234   0.906 -1.6910 -0.5708  1.9822
 1666TIP3   OH226556   5.531   1.833   8.140  0.1035  0.1049  0.2981
 1666TIP3    H126557   5.522   1.928   8.135 -2.2177 -0.0742  0.1426
 1666TIP3    H226558   5.591   1.819   8.214 -0.1324  1.6650  0.8344
 1667TIP3   OH226559   1.315   6.271   8.764  0.3025 -0.4712  0.0789
 1667TIP3    H126560   1.237   6.256   8.817 -0.1293  2.1347  0.3164
 1667TIP3    H226561   1.305   6.361   8.731  2.9929 -0.1973 -0.2344
 1668TIP3   OH226562   2.679   3.137   1.766 -0.0210  0.0142  0.1305
 1668TIP3    H126563   2.648   3.087   1.842 -2.7392  2.8271  1.0571
 1668TIP3    H226564   2.774   3.123   1.766 -0.2045 -2.0355  2.5399
 1669TIP3   OH226565   2.489   3.848   6.934  0.8823 -0.6283 -0.2157
 1669TIP3    H126566   2.497   3.758   6.904  0.7406 -0.5611 -0.4579
 1669TIP3    H226567   2.475   3.899   6.854 -1.2031 -0.6340  0.0941
 1670TIP3   OH226568   2.163   6.703   1.520 -0.4303  0.2678  0.8123
 1670TIP3    H126569   2.252   6.681   1.548 -0.4030 -0.3595  0.2656
 1670TIP3    H226570   2.154   6.797   1.538  0.8246  0.6472 -0.3597
 1671TIP3   OH226571   4.344   4.050   6.814 -0.0581 -0.5461  0.3362
 1671TIP3    H126572   4.316   4.137   6.844  2.0369  0.1343  0.4774
 1671TIP3    H226573   4.347   3.997   6.894  0.8809 -0.0678  0.6398
 1672TIP3   OH226574   4.324   1.618   7.389 -0.1396  0.3534 -0.1158
 1672TIP3    H126575   4.280   1.606   7.305  1.8067 -1.2494 -0.9833
 1672TIP3    H226576   4.252   1.633   7.452 -1.6770  0.8081 -1.8918
 1673TIP3   OH226577   0.980   4.320   1.747 -0.4281  0.4572  0.0371
 1673TIP3    H126578   1.048   4.375   1.787  0.2333  0.0764 -0.5476
 1673TIP3    H226579   0.949   4.265   1.818 -0.5348  1.0291  0.4434
 1674TIP3   OH226580   4.595   3.826   8.951  0.5882  0.0842  0.4698
 1674TIP3    H126581   4.645   3.756   8.993 -0.3567 -0.4485  0.7355
 1674TIP3    H226582   4.662   3.888   8.921  1.3631 -0.2090  1.5150
 1675TIP3   OH226583   4.939   4.077   6.081 -0.9613 -0.7988  0.2820
 1675TIP3    H126584   4.898   3.991   6.090  0.6601 -1.7031 -0.5582
 1675TIP3    H226585   4.975   4.096   6.168  1.2783 -2.3924 -0.2239
 1676TIP3   OH226586   1.174   4.329   2.208 -0.8941 -0.6494 -0.6394
 1676TIP3    H126587   1.230   4.265   2.163  2.9589  1.5706  0.5472
 1676TIP3    H226588   1.150   4.393   2.141 -1.0024 -0.9550 -0.8958
 1677TIP3   OH226589   2.811   5.261   1.586 -0.2648  0.2154 -0.0355
 1677TIP3    H126590   2.777   5.208   1.514 -0.2371  0.5219 -0.2793
 1677TIP3    H226591   2.733   5.287   1.635 -0.2242 -0.6073  0.4836
 1678TIP3   OH226592   5.912   2.657   7.049 -0.0796  0.2381 -0.1734
 1678TIP3    H126593   5.980   2.714   7.084  1.0287 -1.2975  0.2695
 1678TIP3    H226594   5.959   2.593   6.995 -1.3630  0.2189 -1.3314
 1679TIP3   OH226595   3.335   2.136   7.436 -0.1425 -0.1243 -0.0275
 1679TIP3    H126596   3.425   2.166   7.450 -1.0268  2.6220  0.3881
 1679TIP3    H226597   3.334   2.101   7.346  1.3750 -0.4504  0.0683
 1680TIP3   OH226598   0.969   5.640   8.635  0.7326 -0.1146 -0.0408
 1680TIP3    H126599   1.001   5.550   8.636  0.3107 -0.3130 -1.6377
 1680TIP3    H226600   1.049   5.694   8.630  0.9981 -0.5791 -3.2148
 1681TIP3   OH226601   1.229   5.370   8.919  0.1813  0.8730 -0.7094
 1681TIP3    H126602   1.271   5.444   8.963  0.6574  0.8807 -1.1771
 1681TIP3    H226603   1.299   5.328   8.869  0.4209 -1.1015  1.0871
 1682TIP3   OH226604   5.695   2.246   1.674 -0.4000 -0.1490  0.4173
 1682TIP3    H126605   5.736   2.332   1.683  0.0374 -0.4287  1.2791
 1682TIP3    H226606   5.722   2.215   1.588 -0.1409  0.3671  0.3118
 1683TIP3   OH226607   6.301   1.476   1.256  0.7159 -0.1406  0.1475
 1683TIP3    H126608   6.343   1.443   1.335 -1.0479  0.5288  1.4308
 1683TIP3    H226609   6.248   1.403   1.224  1.0672 -0.2636 -0.1588
 1684TIP3   OH226610   1.603   0.198   7.586  0.1181 -0.3492 -0.0416
 1684TIP3    H126611   1.653   0.224   7.664 -0.6629 -0.7033  0.5940
 1684TIP3    H226612   1.556   0.277   7.560 -0.9598 -0.6416  0.8999
 1685TIP3   OH226613   1.753   5.465   8.380 -0.3830  0.3379 -0.2404
 1685TIP3    H126614   1.839   5.505   8.381  0.2610 -0.9706  1.3217
 1685TIP3    H226615   1.704   5.514   8.314  0.6034  3.0633  0.9284
 1686TIP3   OH226616   1.869   2.574   7.840 -0.1948 -0.0323  0.4789
 1686TIP3    H126617   1.850   2.617   7.923 -0.5370 -0.0036  0.3886
 1686TIP3    H226618   1.959   2.543   7.849  0.5742  1.9060  0.0442
 1687TIP3   OH226619   0.866   3.724   0.853  0.3286  0.5739  0.2412
 1687TIP3    H126620   0.948   3.701   0.895  0.0700  0.5521  0.7437
 1687TIP3    H226621   0.877   3.699   0.761  0.6988  0.1252  0.4093
 1688TIP3   OH226622   3.385   3.126   8.574  0.3243 -0.4278  0.3626
 1688TIP3    H126623   3.446   3.154   8.506  0.4721 -0.3349  0.5318
 1688TIP3    H226624   3.301   3.117   8.529  0.5375 -0.8996  0.0608
 1689TIP3   OH226625   3.751   4.371   1.140 -0.0098  1.0302  0.0873
 1689TIP3    H126626   3.830   4.376   1.085 -0.6441  1.1026 -0.8466
 1689TIP3    H226627   3.681   4.348   1.079 -0.4925 -0.3711  1.1244
 1690TIP3   OH226628   3.570   3.114   1.774  0.2659 -0.0713 -0.6097
 1690TIP3    H126629   3.555   3.062   1.695  1.1132 -0.8345 -0.2791
 1690TIP3    H226630   3.652   3.080   1.810 -1.0371 -1.0737  1.6363
 1691TIP3   OH226631   4.177   2.913   8.827  0.2144 -0.0082 -0.0164
 1691TIP3    H126632   4.189   3.006   8.843  2.6120 -0.1395 -0.5799
 1691TIP3    H226633   4.221   2.871   8.902 -0.7846 -0.7004  0.1975
 1692TIP3   OH226634   6.566   5.320   8.656  0.5996  0.1886  0.4053
 1692TIP3    H126635   6.635   5.310   8.591  0.1299  2.7801 -0.6037
 1692TIP3    H226636   6.558   5.233   8.696  3.8168 -0.4161 -0.0026
 1693TIP3   OH226637   6.620   3.122   1.384 -0.3907 -0.2444  0.2924
 1693TIP3    H126638   6.589   3.165   1.304  0.0631 -1.5729 -0.6270
 1693TIP3    H226639   6.551   3.059   1.404  0.4806 -1.4154 -0.3008
 1694TIP3   OH226640   3.508   0.543   1.349  0.0811 -0.5093 -0.5880
 1694TIP3    H126641   3.531   0.614   1.409 -1.0934  0.9090 -1.7412
 1694TIP3    H226642   3.475   0.473   1.405 -0.2527  0.4811  0.4754
 1695TIP3   OH226643   0.915   6.417   0.355 -0.2429 -0.2180 -0.5196
 1695TIP3    H126644   0.872   6.342   0.396 -0.6225  0.8332  1.0992
 1695TIP3    H226645   1.008   6.400   0.366 -0.3128 -0.7521 -0.7298
 1696TIP3   OH226646   4.904   5.952   0.947 -0.0682  0.5575 -0.6334
 1696TIP3    H126647   4.943   5.874   0.987  0.1719  1.7504  1.6258
 1696TIP3    H226648   4.950   5.961   0.864  1.6109 -0.4017  0.1213
 1697TIP3   OH226649   5.630   0.993   7.624  0.0365 -0.5570  0.3014
 1697TIP3    H126650   5.623   0.925   7.691  1.3199 -1.3779 -0.3489
 1697TIP3    H226651   5.671   0.949   7.549 -2.0797  0.1103 -1.3602
 1698TIP3   OH226652   2.193   1.702   7.516  0.0984  0.0040 -0.6992
 1698TIP3    H126653   2.275   1.750   7.526 -0.8274  1.7085 -0.9721
 1698TIP3    H226654   2.129   1.752   7.566 -0.9930 -0.7229 -1.3214
 1699TIP3   OH226655   4.364   4.939   1.228  0.1297  0.1649 -0.0541
 1699TIP3    H126656   4.333   4.905   1.144 -2.0885  0.7180  0.4887
 1699TIP3    H226657   4.335   4.874   1.292  1.0329  0.1910  0.4050
 1700TIP3   OH226658   4.901   0.109   2.066 -0.0655  0.0960  0.0790
 1700TIP3    H126659   4.836   0.162   2.111  0.8367  1.2562  0.0527
 1700TIP3    H226660   4.862   0.021   2.062 -2.4183  1.1034 -1.4972
 1701TIP3   OH226661   1.128   0.658   0.928 -0.0092  0.0837 -0.2698
 1701TIP3    H126662   1.047   0.708   0.912  1.5425  2.9799  0.3044
 1701TIP3    H226663   1.129   0.644   1.023 -0.1438 -0.5632 -0.3589
 1702TIP3   OH226664   2.414   0.754   0.838 -0.7713 -0.1192  0.3284
 1702TIP3    H126665   2.493   0.728   0.885  0.1957 -0.1163 -1.2401
 1702TIP3    H226666   2.372   0.671   0.816  1.0919 -0.4148 -2.6041
 1703TIP3   OH226667   1.118   4.790   8.919 -0.0262  0.2168 -0.5420
 1703TIP3    H126668   1.192   4.823   8.867 -0.4076  1.4520 -0.3198
 1703TIP3    H226669   1.042   4.838   8.886 -0.5065 -0.0409  0.1746
 1704TIP3   OH226670   1.580   2.965   1.001 -0.2356  0.0620  0.1017
 1704TIP3    H126671   1.568   2.933   0.911  0.7484  1.0865 -0.4141
 1704TIP3    H226672   1.608   2.888   1.050  2.4298  0.1268 -1.1883
 1705TIP3   OH226673   3.921   0.360   8.270  0.1627 -0.0540 -0.0772
 1705TIP3    H126674   3.955   0.281   8.314  1.5014  0.3317 -0.3772
 1705TIP3    H226675   3.907   0.333   8.180 -0.0633 -0.1318 -0.0200
 1706TIP3   OH226676   3.310   1.323   2.681  0.1901 -0.4828 -0.0531
 1706TIP3    H126677   3.342   1.233   2.672  1.8143 -0.0965  1.2733
 1706TIP3    H226678   3.221   1.320   2.646 -0.2908 -2.8996  1.1417
 1707TIP3   OH226679   4.485   4.263   7.668  0.2230  0.5105 -0.6956
 1707TIP3    H126680   4.443   4.320   7.604  1.2904  1.0734 -0.9259
 1707TIP3    H226681   4.563   4.229   7.622  0.3415 -0.0442 -0.0995
 1708TIP3   OH226682   3.890   0.448   8.782 -0.5950  0.5187  0.2716
 1708TIP3    H126683   3.979   0.483   8.779  0.1617 -1.2436  0.7410
 1708TIP3    H226684   3.899   0.357   8.754 -2.4415  0.5995 -0.7596
 1709TIP3   OH226685   6.320   4.011   7.874  0.0799 -0.2357  0.2049
 1709TIP3    H126686   6.363   4.097   7.876 -1.3014  0.4847  0.4464
 1709TIP3    H226687   6.321   3.982   7.965  0.2725 -0.3414  0.1704
 1710TIP3   OH226688   3.246   5.144   7.936 -0.1917  0.4249  0.1608
 1710TIP3    H126689   3.310   5.079   7.967 -0.2197 -0.8399 -2.2096
 1710TIP3    H226690   3.296   5.225   7.926  0.6486 -0.1162 -0.0622
 1711TIP3   OH226691   4.772   5.245   1.711  0.5894  0.1280 -0.0838
 1711TIP3    H126692   4.690   5.214   1.750  1.0133 -0.7434  0.1419
 1711TIP3    H226693   4.789   5.184   1.639 -0.4966  2.0569 -2.1048
 1712TIP3   OH226694   6.359   3.807   8.373 -0.0358  0.4742 -0.4247
 1712TIP3    H126695   6.432   3.801   8.312 -0.1605 -0.1197 -0.5258
 1712TIP3    H226696   6.306   3.730   8.353  0.0903  0.0989  0.6550
 1713TIP3   OH226697   4.583   6.117   8.140  0.3513 -0.2577  1.0543
 1713TIP3    H126698   4.543   6.204   8.144  0.0941 -0.3361  0.4259
 1713TIP3    H226699   4.635   6.119   8.060 -2.0052 -1.6224 -0.6519
 1714TIP3   OH226700   1.582   5.627   8.210 -0.1020  0.0829  0.2228
 1714TIP3    H126701   1.544   5.562   8.152  0.7390  0.7153 -1.0802
 1714TIP3    H226702   1.545   5.710   8.181  0.3269  0.4120  0.5882
 1715TIP3   OH226703   1.122   2.051   0.836  0.1807 -0.0286 -0.9659
 1715TIP3    H126704   1.088   1.987   0.773 -2.3302 -0.4384  0.6454
 1715TIP3    H226705   1.065   2.128   0.826  0.2192  0.1874  0.2416
 1716TIP3   OH226706   5.965   3.976   2.019 -0.1243  0.2556 -0.5638
 1716TIP3    H126707   5.904   4.045   2.044  0.0564  0.6774 -1.2567
 1716TIP3    H226708   6.041   4.023   1.984 -0.0946 -0.2859 -1.2552
 1717TIP3   OH226709   0.130   5.418   0.504  0.2601 -0.2933  0.8436
 1717TIP3    H126710   0.112   5.477   0.432  0.3723 -0.0855  0.9851
 1717TIP3    H226711   0.109   5.331   0.470  1.9966 -0.4107 -0.0580
 1718TIP3   OH226712   1.715   1.968   0.174 -0.5521  0.3618  0.5364
 1718TIP3    H126713   1.784   1.925   0.123 -0.5157 -0.2338  1.0621
 1718TIP3    H226714   1.743   1.956   0.265 -1.2410  0.3096  0.7417
 1719TIP3   OH226715   3.906   3.193   1.658  0.4518 -0.6169 -0.0465
 1719TIP3    H126716   3.863   3.138   1.723 -2.4334 -0.1274 -1.3913
 1719TIP3    H226717   3.979   3.233   1.706 -0.7805 -1.2209  2.5308
 1720TIP3   OH226718   3.442   2.815   2.434  0.1392 -0.8688 -0.0641
 1720TIP3    H126719   3.381   2.879   2.398 -0.3524 -0.7567  0.9259
 1720TIP3    H226720   3.528   2.846   2.407 -0.2096 -0.9221 -1.3090
 1721TIP3   OH226721   3.331   2.718   8.646  0.0338  0.2305 -0.4877
 1721TIP3    H126722   3.405   2.688   8.593 -1.1472 -1.5814 -1.2124
 1721TIP3    H226723   3.370   2.744   8.730  1.4145 -1.3174 -0.6012
 1722TIP3   OH226724   3.284   2.059   8.441 -0.3887  0.0153  0.3225
 1722TIP3    H126725   3.204   2.110   8.427 -0.5609  0.4185  2.5078
 1722TIP3    H226726   3.290   2.003   8.364 -0.6776  2.6587 -1.7906
 1723TIP3   OH226727   5.285   5.162   7.668 -0.5457 -0.4825  0.0437
 1723TIP3    H126728   5.199   5.142   7.705 -0.4225  0.8764  1.1722
 1723TIP3    H226729   5.267   5.222   7.596 -0.5881 -0.7359 -0.1564
 1724TIP3   OH226730   2.092   4.496   1.487 -0.5676  0.4165 -0.1487
 1724TIP3    H126731   2.080   4.404   1.463 -0.0956  0.8897 -2.4614
 1724TIP3    H226732   2.011   4.518   1.534 -0.0212 -1.5404  1.8790
 1725TIP3   OH226733   1.128   1.660   0.880 -0.1426 -0.4408  0.5365
 1725TIP3    H126734   1.127   1.747   0.840  1.8418 -0.0890  1.1024
 1725TIP3    H226735   1.219   1.649   0.910  0.1147 -3.3752 -0.9545
 1726TIP3   OH226736   4.381   2.168   7.679 -0.6488  0.3699 -0.4603
 1726TIP3    H126737   4.401   2.075   7.692 -0.3052  0.5044  0.0325
 1726TIP3    H226738   4.422   2.212   7.754  1.0608  1.1553 -1.7831
 1727TIP3   OH226739   5.806   0.494   1.034 -0.0352  0.7439  0.2601
 1727TIP3    H126740   5.852   0.456   0.959  1.4529  1.7199  0.6373
 1727TIP3    H226741   5.778   0.581   1.004  1.9139  1.7718  1.2664
 1728TIP3   OH226742   4.540   3.967   6.377 -0.5885  0.1564  0.4233
 1728TIP3    H126743   4.563   4.047   6.330 -0.5745  0.1004  0.3342
 1728TIP3    H226744   4.613   3.952   6.436  1.3231 -1.8887 -2.2102
 1729TIP3   OH226745   1.294   0.618   8.528 -0.2339  0.2086  0.2429
 1729TIP3    H126746   1.251   0.681   8.471 -0.0709  1.0804  1.0617
 1729TIP3    H226747   1.367   0.666   8.566 -0.9173 -0.0410  1.9427
 1730TIP3   OH226748   4.339   1.964   0.765 -0.7449 -0.0705  0.4469
 1730TIP3    H126749   4.408   1.975   0.831 -0.6758  1.9824  0.0782
 1730TIP3    H226750   4.258   1.977   0.814 -0.7206  0.8243  0.2533
 1731TIP3   OH226751   1.204   5.822   0.499 -0.1964  0.0946  0.1496
 1731TIP3    H126752   1.189   5.743   0.550  0.3996 -0.4527 -0.5063
 1731TIP3    H226753   1.287   5.807   0.454  1.1297  2.0090  1.7528
 1732TIP3   OH226754   4.107   2.006   1.444  0.2591 -1.2371 -0.0651
 1732TIP3    H126755   4.140   2.059   1.516  0.7254 -0.9709 -0.4648
 1732TIP3    H226756   4.037   1.954   1.482 -2.3864  1.8726 -0.2641
 1733TIP3   OH226757   5.426   5.417   0.500 -0.6717  0.2294  0.0161
 1733TIP3    H126758   5.480   5.484   0.458 -1.8131  1.2034  0.0520
 1733TIP3    H226759   5.471   5.397   0.582 -0.8508  1.7484  0.5225
 1734TIP3   OH226760   4.251   2.625   1.739  0.3841 -0.1720  0.3401
 1734TIP3    H126761   4.229   2.642   1.831  0.8707 -0.0662  0.4424
 1734TIP3    H226762   4.347   2.621   1.739  0.3765 -0.3053 -0.1414
 1735TIP3   OH226763   0.097   2.748   8.384 -0.2054  0.4144 -0.2664
 1735TIP3    H126764   0.184   2.728   8.418 -0.4817  0.2301  0.3419
 1735TIP3    H226765   0.112   2.772   8.293  0.2585 -1.5397 -0.7443
 1736TIP3   OH226766   3.136   4.917   2.276 -0.2593  0.4174  0.5848
 1736TIP3    H126767   3.099   5.005   2.289 -0.6569  0.5373 -1.1393
 1736TIP3    H226768   3.219   4.933   2.232 -1.9947 -0.0828 -3.3286
 1737TIP3   OH226769   4.254   3.480   0.167  0.2707 -0.1202 -0.5332
 1737TIP3    H126770   4.191   3.426   0.215  1.7867 -1.8973 -0.4491
 1737TIP3    H226771   4.339   3.456   0.204  1.0778  1.7586 -1.0718
 1738TIP3   OH226772   4.506   0.525   2.042  1.3252 -0.1781  0.2793
 1738TIP3    H126773   4.514   0.574   1.960  1.8929 -1.1898 -0.2919
 1738TIP3    H226774   4.446   0.577   2.095 -0.8249 -0.5921 -1.6012
 1739TIP3   OH226775   1.814   1.449   7.566  0.6677 -0.7887  0.0357
 1739TIP3    H126776   1.766   1.520   7.608 -0.3144 -2.3820  1.8110
 1739TIP3    H226777   1.846   1.486   7.484  1.3537  2.0808  1.4639
 1740TIP3   OH226778   4.297   1.822   1.611  0.2891  0.2153 -0.4358
 1740TIP3    H126779   4.308   1.905   1.564  0.5026  0.1041 -0.5837
 1740TIP3    H226780   4.382   1.780   1.605  0.5193  0.4970  0.6337
 1741TIP3   OH226781   4.610   2.939   1.032 -0.4305  0.0020 -0.1776
 1741TIP3    H126782   4.630   2.846   1.045  0.1765  0.2986  1.3188
 1741TIP3    H226783   4.534   2.941   0.975 -0.0367 -1.3976 -0.7737
 1742TIP3   OH226784   4.176   4.446   7.651 -0.5103 -0.2630 -0.2979
 1742TIP3    H126785   4.113   4.510   7.683 -2.4173 -1.6157 -1.1220
 1742TIP3    H226786   4.257   4.495   7.639 -2.1275  2.2409 -1.8563
 1743TIP3   OH226787   6.290   5.007   7.369 -0.6974  0.0278 -0.2112
 1743TIP3    H126788   6.358   5.004   7.302 -0.6398 -2.0660 -0.1317
 1743TIP3    H226789   6.213   4.968   7.326 -1.6615  1.6790 -0.0663
 1744TIP3   OH226790   3.621   2.198   0.108 -0.1395  0.7659 -0.3154
 1744TIP3    H126791   3.686   2.199   0.178 -0.3878 -0.8593 -0.0148
 1744TIP3    H226792   3.578   2.112   0.116 -1.7504  1.4524 -1.0229
 1745TIP3   OH226793   2.168   0.739   8.837 -0.2082 -0.3534  0.1662
 1745TIP3    H126794   2.201   0.813   8.887  0.0717  1.8645 -3.0070
 1745TIP3    H226795   2.231   0.669   8.852  1.1239  0.9759  1.0241
 1746TIP3   OH226796   3.576   2.483   1.763 -0.4611 -0.1220 -0.4613
 1746TIP3    H126797   3.612   2.493   1.675  0.3529 -1.2070 -0.2621
 1746TIP3    H226798   3.640   2.523   1.821  1.6539 -3.9246  0.1085
 1747TIP3   OH226799   5.700   1.442   7.920 -0.4001 -0.1323 -0.5963
 1747TIP3    H126800   5.667   1.414   7.835 -2.0413 -0.5571  0.1354
 1747TIP3    H226801   5.660   1.381   7.983  1.1441 -0.1321  0.4583
 1748TIP3   OH226802   6.374   0.042   1.289  0.0831 -0.1725 -0.0454
 1748TIP3    H126803   6.423   0.055   1.370  2.0794 -0.8631 -1.0725
 1748TIP3    H226804   6.335  -0.045   1.298 -0.2045  0.0009  0.4061
 1749TIP3   OH226805   0.031   3.569   1.895  0.3273  0.0505 -0.0839
 1749TIP3    H126806  -0.033   3.538   1.960  0.3056 -2.0811 -1.0412
 1749TIP3    H226807   0.006   3.660   1.880 -0.8464  0.0475  1.4932
 1750TIP3   OH226808   2.587   5.336   0.477  0.0524 -0.3044  0.0630
 1750TIP3    H126809   2.658   5.283   0.441  0.9862  0.4965  0.6594
 1750TIP3    H226810   2.615   5.427   0.460 -1.4008  0.0163 -0.7483
 1751TIP3   OH226811   4.354   6.459   1.421  0.0453 -0.1130 -0.0320
 1751TIP3    H126812   4.393   6.387   1.470 -0.3165 -0.4129 -0.1829
 1751TIP3    H226813   4.406   6.465   1.341  1.8815  1.6211  1.1914
 1752TIP3   OH226814   5.583   0.146   2.153  0.0698  0.5976 -0.0195
 1752TIP3    H126815   5.619   0.234   2.158  0.7058  0.2962  0.8723
 1752TIP3    H226816   5.516   0.143   2.221 -0.0521  0.4365 -0.1449
 1753TIP3   OH226817   5.813   2.999   8.381 -0.5237 -0.1168  0.6116
 1753TIP3    H126818   5.722   3.008   8.409 -0.1977  1.3805  1.2637
 1753TIP3    H226819   5.813   3.025   8.289 -1.0874 -2.1783 -0.0182
 1754TIP3   OH226820   4.289   3.917   1.469 -0.2295 -0.3481 -0.1626
 1754TIP3    H126821   4.255   3.938   1.556  0.7412 -0.0246  0.1527
 1754TIP3    H226822   4.374   3.875   1.486  0.0228 -0.1719 -0.9544
 1755TIP3   OH226823   2.762   4.285   8.362 -0.2593 -0.0197  0.0315
 1755TIP3    H126824   2.822   4.218   8.396 -0.7657 -0.0300  0.9162
 1755TIP3    H226825   2.737   4.337   8.439 -2.6997 -1.0405  0.0013
 1756TIP3   OH226826   4.222   6.095   1.866 -0.3560  0.5008  0.1595
 1756TIP3    H126827   4.249   6.008   1.838  0.1043  0.0748  1.7738
 1756TIP3    H226828   4.302   6.136   1.897 -1.0491  0.1815  2.6091
 1757TIP3   OH226829   6.374   4.121   7.570 -0.3281 -0.2223  0.5430
 1757TIP3    H126830   6.446   4.157   7.621  0.4390 -1.5391  0.4205
 1757TIP3    H226831   6.371   4.175   7.491  1.4180 -0.9704 -0.0817
 1758TIP3   OH226832   4.405   2.398   0.444 -0.0070 -0.1233  0.5210
 1758TIP3    H126833   4.352   2.325   0.478 -1.6005  0.7080 -0.0341
 1758TIP3    H226834   4.490   2.388   0.487 -0.6173 -1.5060  1.5093
 1759TIP3   OH226835   6.569   3.715   1.781  0.3988  0.1255  0.3787
 1759TIP3    H126836   6.502   3.750   1.722 -0.0680 -1.2071  0.0734
 1759TIP3    H226837   6.618   3.653   1.726 -0.9954 -2.2940  1.7121
 1760TIP3   OH226838   2.594   5.485   7.180 -0.1391  0.6811 -0.2637
 1760TIP3    H126839   2.688   5.468   7.183 -0.0083  1.1757 -1.2580
 1760TIP3    H226840   2.581   5.566   7.229 -0.3125 -0.3528  1.4856
 1761TIP3   OH226841   2.578   3.914   7.286  0.5281  0.1818 -0.2647
 1761TIP3    H126842   2.549   3.828   7.258 -2.3110  1.5783 -1.9786
 1761TIP3    H226843   2.644   3.940   7.221  1.2198 -0.5519  0.1270
 1762TIP3   OH226844   2.967   3.457   1.185 -0.0414 -0.0939 -0.3291
 1762TIP3    H126845   2.990   3.408   1.107  2.8920  2.2574 -1.1349
 1762TIP3    H226846   2.986   3.397   1.257 -0.6217 -1.5229 -1.3189
 1763TIP3   OH226847   2.748   3.224   0.897  0.0220  0.4317 -0.3704
 1763TIP3    H126848   2.719   3.144   0.940  1.2521 -0.3805 -0.9762
 1763TIP3    H226849   2.827   3.197   0.848 -0.0308  1.8203 -1.2645
 1764TIP3   OH226850   2.418   3.732   2.403  0.0223 -0.1692  0.2541
 1764TIP3    H126851   2.416   3.676   2.325  0.2029  3.5323 -2.7412
 1764TIP3    H226852   2.326   3.746   2.424 -0.0671 -0.3283 -0.0163
 1765TIP3   OH226853   1.622   5.300   7.297  0.3100 -0.6980  0.1599
 1765TIP3    H126854   1.563   5.227   7.278  2.1683 -1.8138 -1.8458
 1765TIP3    H226855   1.599   5.367   7.232  2.1132 -1.7590 -1.7222
 1766TIP3   OH226856   2.751   1.744   0.200 -0.2247  0.1509  0.2683
 1766TIP3    H126857   2.691   1.692   0.252 -0.2404 -0.2934 -0.1841
 1766TIP3    H226858   2.804   1.680   0.153 -1.0076  0.5025 -1.1801
 1767TIP3   OH226859   3.654   0.174   8.429  0.6746  0.3495  0.2659
 1767TIP3    H126860   3.644   0.160   8.523  0.2751  0.5206  0.2499
 1767TIP3    H226861   3.644   0.268   8.417 -0.3964  0.2096 -0.0726
 1768TIP3   OH226862   3.196   4.155   8.117  0.2066  0.0431 -0.3526
 1768TIP3    H126863   3.216   4.097   8.191 -0.1077  0.8064  0.3437
 1768TIP3    H226864   3.155   4.231   8.157  1.4104  1.1539 -1.1495
 1769TIP3   OH226865   4.290   5.486   7.655  0.2505  0.2311  0.6673
 1769TIP3    H126866   4.276   5.572   7.695  0.3979 -0.5177  2.4324
 1769TIP3    H226867   4.203   5.452   7.639  0.1715  1.1544 -1.1741
 1770TIP3   OH226868   2.359   4.995   0.060 -0.6851 -0.0151 -0.1112
 1770TIP3    H126869   2.282   5.051   0.052  0.8440  2.1566 -0.3273
 1770TIP3    H226870   2.425   5.050   0.100  0.6735 -1.9543  0.4728
 1771TIP3   OH226871   0.161   1.068   1.788 -0.7655 -0.4345  0.1265
 1771TIP3    H126872   0.195   1.054   1.700 -1.0538  0.3063 -0.1156
 1771TIP3    H226873   0.227   1.032   1.847 -0.5981 -0.9825 -0.3951
 1772TIP3   OH226874   1.348   4.499   1.748  0.3037 -0.3486 -0.3399
 1772TIP3    H126875   1.291   4.573   1.768  1.8298  0.6962  0.3316
 1772TIP3    H226876   1.399   4.528   1.672  1.1629 -0.5381  0.1473
 1773TIP3   OH226877   0.644   2.679   8.015  0.4111  0.0211 -0.3994
 1773TIP3    H126878   0.581   2.617   7.979  1.1166 -0.6061 -0.5921
 1773TIP3    H226879   0.729   2.644   7.989  0.9190 -0.0522  1.2611
 1774TIP3   OH226880   6.656   3.155   2.155  0.1377  0.2201 -0.1381
 1774TIP3    H126881   6.727   3.167   2.218  0.6801  0.8632 -0.8536
 1774TIP3    H226882   6.578   3.188   2.200  0.3014 -0.4090  0.6187
 1775TIP3   OH226883   1.269   5.336   0.827 -0.2552 -0.1688  0.4214
 1775TIP3    H126884   1.179   5.363   0.844 -0.1523 -0.4894  1.5473
 1775TIP3    H226885   1.269   5.309   0.735 -1.2944 -0.1132  0.3940
 1776TIP3   OH226886   2.901   6.748   8.747 -0.4441 -0.1252  0.2757
 1776TIP3    H126887   2.979   6.700   8.773 -1.4343 -1.5709  0.7350
 1776TIP3    H226888   2.893   6.819   8.811  0.4919  0.0523  0.2029
 1777TIP3   OH226889   1.762   5.864   8.070  0.1013  0.2121  0.2963
 1777TIP3    H126890   1.759   5.953   8.035  0.7845 -0.9541 -3.1427
 1777TIP3    H226891   1.854   5.851   8.094  0.6289 -0.3260 -1.7750
 1778TIP3   OH226892   3.075   5.987   7.786  0.3233 -0.0659 -0.2606
 1778TIP3    H126893   3.037   5.993   7.698  1.4390 -0.6862 -0.8084
 1778TIP3    H226894   3.132   6.063   7.793 -0.3789  0.4333  0.2631
 1779TIP3   OH226895   1.802   1.643   8.341 -0.2024  0.0389 -0.0510
 1779TIP3    H126896   1.877   1.697   8.318  0.0189 -1.2741 -2.8196
 1779TIP3    H226897   1.726   1.694   8.313 -0.0025 -0.8722 -2.4717
 1780TIP3   OH226898   1.562   1.354   1.299  0.0861 -0.6597  0.2014
 1780TIP3    H126899   1.642   1.313   1.333 -0.0942 -0.8499  0.3985
 1780TIP3    H226900   1.492   1.294   1.323 -0.0911 -0.6033 -0.1706
 1781TIP3   OH226901   5.802   6.209   0.903  0.0873 -0.4942  0.0886
 1781TIP3    H126902   5.730   6.146   0.901 -0.8809  0.5299  1.2277
 1781TIP3    H226903   5.880   6.155   0.919 -0.4851 -1.5591 -0.5596
 1782TIP3   OH226904   5.512   3.439   2.228 -0.0419 -0.2810 -0.2197
 1782TIP3    H126905   5.420   3.460   2.213 -0.2545  0.4913  1.8750
 1782TIP3    H226906   5.511   3.352   2.267  0.0264  0.0858  0.6193
 1783TIP3   OH226907   5.243   6.119   7.501 -0.1059 -1.1151 -0.2070
 1783TIP3    H126908   5.180   6.161   7.443  0.3458 -0.0678  0.0449
 1783TIP3    H226909   5.326   6.161   7.481  0.0416 -0.6465  1.2669
 1784TIP3   OH226910   2.047   1.057   1.584  0.2117  0.1511  0.9272
 1784TIP3    H126911   1.996   1.055   1.665 -1.2005 -0.2431  0.0753
 1784TIP3    H226912   2.077   0.967   1.573 -1.5619 -0.3646 -0.1266
 1785TIP3   OH226913   3.626   3.842   8.112  0.1421 -0.3343  0.3830
 1785TIP3    H126914   3.546   3.795   8.087 -0.9255  0.6430  1.8473
 1785TIP3    H226915   3.598   3.932   8.127  1.5643  0.0735  0.7488
 1786TIP3   OH226916   3.160   5.307   0.401 -0.4824  0.1967 -0.9311
 1786TIP3    H126917   3.228   5.281   0.338  0.3423 -0.2054  0.1111
 1786TIP3    H226918   3.078   5.295   0.352  0.0815 -0.9905 -1.6504
 1787TIP3   OH226919   3.491   3.553   0.593 -0.7673 -0.2386  0.5647
 1787TIP3    H126920   3.527   3.493   0.658 -1.1612 -0.4809  0.5560
 1787TIP3    H226921   3.514   3.514   0.508 -1.8148 -0.8571  0.5539
 1788TIP3   OH226922   2.420   3.066   1.238  0.5491 -0.5252 -0.0027
 1788TIP3    H126923   2.444   2.992   1.295  1.8897  0.6147  0.9944
 1788TIP3    H226924   2.326   3.076   1.251  0.0434 -2.8743 -1.2099
 1789TIP3   OH226925   0.853   0.830   8.893 -0.4451 -0.4780  0.0797
 1789TIP3    H126926   0.835   0.813   8.985 -0.1672  0.1406  0.2515
 1789TIP3    H226927   0.926   0.771   8.871 -0.8564 -1.0055  0.1086
 1790TIP3   OH226928   0.196   0.379   1.332  0.1415 -0.4543 -0.0211
 1790TIP3    H126929   0.263   0.327   1.377  0.5825  0.3171  0.2222
 1790TIP3    H226930   0.130   0.315   1.306  0.2207 -1.0189  1.1108
 1791TIP3   OH226931   5.924   5.389   0.765 -0.4301 -0.1270 -0.3985
 1791TIP3    H126932   5.956   5.440   0.691  3.1251 -2.4310 -0.6589
 1791TIP3    H226933   5.952   5.439   0.842 -0.6717  0.3463 -0.6132
 1792TIP3   OH226934   3.726   0.329   1.645  0.2678 -0.0951 -0.7572
 1792TIP3    H126935   3.641   0.366   1.623 -0.1440 -0.3224  0.3598
 1792TIP3    H226936   3.770   0.397   1.696 -0.0092 -0.6445  0.2585
 1793TIP3   OH226937   2.090   1.821   8.490 -0.3468  0.2099 -0.0660
 1793TIP3    H126938   2.010   1.773   8.514 -0.5012 -0.4653 -1.7459
 1793TIP3    H226939   2.135   1.763   8.429  0.0496  1.7022 -1.2729
 1794TIP3   OH226940   0.281   5.445   7.115 -0.4181  0.1044  0.1327
 1794TIP3    H126941   0.264   5.352   7.127 -0.7309  0.2335  0.7683
 1794TIP3    H226942   0.373   5.450   7.090 -0.3626 -0.3678  0.2356
 1795TIP3   OH226943   1.990   4.826   6.523  0.0785  0.4552  0.5221
 1795TIP3    H126944   1.931   4.855   6.454  1.0046 -0.5559 -0.7574
 1795TIP3    H226945   1.935   4.777   6.583 -0.5897  0.5443 -0.0042
 1796TIP3   OH226946   1.865   6.007   1.663  0.0900  0.0025 -0.5459
 1796TIP3    H126947   1.874   5.917   1.697 -0.1516  0.2848  0.2889
 1796TIP3    H226948   1.914   6.061   1.725  0.8472  0.3680 -1.4526
 1797TIP3   OH226949   0.591   5.642   1.522 -0.7518  0.6257  0.7855
 1797TIP3    H126950   0.560   5.552   1.528 -1.5194  0.9914  3.1913
 1797TIP3    H226951   0.514   5.695   1.542 -0.0444  1.8028  0.4699
 1798TIP3   OH226952   3.706   5.329   1.682 -0.3090  0.4783  0.1728
 1798TIP3    H126953   3.733   5.361   1.596 -0.1957  1.4661  0.5703
 1798TIP3    H226954   3.787   5.297   1.723 -0.2188  0.8009  0.2466
 1799TIP3   OH226955   4.453   4.121   1.333  0.3160 -0.1702 -0.7494
 1799TIP3    H126956   4.392   4.118   1.407 -0.2055  0.4561 -1.1402
 1799TIP3    H226957   4.525   4.065   1.359 -0.6314 -1.3059 -0.4607
 1800TIP3   OH226958   1.654   3.727   8.406  0.3340 -0.4750 -0.0564
 1800TIP3    H126959   1.738   3.715   8.451  0.4975  1.1365  0.1342
 1800TIP3    H226960   1.589   3.694   8.468  0.6309  0.8723  1.0330
 1801TIP3   OH226961   2.477   0.777   8.215 -0.2436 -0.3378  0.2390
 1801TIP3    H126962   2.404   0.831   8.245  0.7894  1.5605 -0.5089
 1801TIP3    H226963   2.438   0.714   8.154 -1.4975 -0.5894  1.2728
 1802TIP3   OH226964   4.142   0.661   0.490 -0.3123 -0.5170 -0.5354
 1802TIP3    H126965   4.137   0.757   0.496  0.8304 -0.3235 -1.9943
 1802TIP3    H226966   4.121   0.630   0.578  0.4556  1.1405  0.2735
 1803TIP3   OH226967   3.419   3.410   8.623  0.4886  0.3674  0.1176
 1803TIP3    H126968   3.343   3.413   8.565  1.1227  1.0809 -0.7117
 1803TIP3    H226969   3.470   3.336   8.591  0.1045 -0.1798  0.7426
 1804TIP3   OH226970   3.096   1.493   8.653  0.4389  0.4142 -0.1774
 1804TIP3    H126971   3.158   1.527   8.718  0.2937  0.6893 -0.1819
 1804TIP3    H226972   3.070   1.569   8.602 -2.8326  1.1167  2.2097
 1805TIP3   OH226973   2.802   3.004   6.889  0.3935  0.5857 -0.3440
 1805TIP3    H126974   2.845   3.032   6.808  1.2552 -2.5188 -1.0741
 1805TIP3    H226975   2.709   3.010   6.871  0.5412 -1.9608 -2.3911
 1806TIP3   OH226976   1.618   2.659   0.275 -0.1509 -0.2781  0.2450
 1806TIP3    H126977   1.664   2.576   0.287  1.1094  0.8229  5.0330
 1806TIP3    H226978   1.555   2.663   0.346 -1.4538  2.1525 -0.8895
 1807TIP3   OH226979   3.220   3.519   0.323 -0.0941  0.2827 -0.0475
 1807TIP3    H126980   3.177   3.583   0.379  1.8818  0.0769  1.8597
 1807TIP3    H226981   3.309   3.552   0.313  0.3957 -1.1525 -0.6997
 1808TIP3   OH226982   0.229   2.985   0.801  0.1718 -0.0171  0.0610
 1808TIP3    H126983   0.149   2.967   0.751 -0.2783  0.7746  0.4802
 1808TIP3    H226984   0.198   3.009   0.888  0.8145  1.4197 -0.0872
 1809TIP3   OH226985   5.982   6.657   1.174  0.3116  0.0139  0.0492
 1809TIP3    H126986   6.044   6.607   1.121 -1.6074 -2.0597 -0.3741
 1809TIP3    H226987   5.932   6.591   1.221 -0.5959  1.6805  1.5278
 1810TIP3   OH226988   2.050   0.617   1.204  0.2967  0.1744 -0.2979
 1810TIP3    H126989   2.073   0.616   1.111 -0.0484 -0.8937 -0.3863
 1810TIP3    H226990   1.966   0.570   1.208  1.4673 -1.9352  0.8321
 1811TIP3   OH226991   1.914   0.554   6.525  0.5255  0.4685  0.1036
 1811TIP3    H126992   1.954   0.496   6.459 -1.3517 -0.0682 -0.6330
 1811TIP3    H226993   1.856   0.497   6.574 -0.6555  1.5344 -0.0213
 1812TIP3   OH226994   5.924   2.891   2.015  0.5221 -0.4036 -0.0238
 1812TIP3    H126995   5.837   2.876   2.051  0.8568  0.6475  1.3283
 1812TIP3    H226996   5.966   2.950   2.078  1.3079  1.2217 -1.9612
 1813TIP3   OH226997   1.020   6.622   8.052  0.5440 -0.0536  0.2596
 1813TIP3    H126998   1.099   6.594   8.097  0.8418  2.8493  1.7497
 1813TIP3    H226999   1.051   6.673   7.977  0.0102 -1.6314 -1.1175
 1814TIP3   OH227000   6.058   3.554   1.292 -0.5369  0.1532 -0.6488
 1814TIP3    H127001   6.079   3.644   1.315 -0.1357  0.1533 -1.0092
 1814TIP3    H227002   6.010   3.560   1.210 -3.0119  0.2413  0.7073
 1815TIP3   OH227003   5.565   3.774   1.934 -0.2923 -0.4598  0.2361
 1815TIP3    H127004   5.608   3.775   2.020  0.6528  0.5826 -0.2294
 1815TIP3    H227005   5.535   3.683   1.924 -0.0403 -0.6999  1.4739
 1816TIP3   OH227006   2.877   4.212   7.361  0.3134  0.3563 -0.0618
 1816TIP3    H127007   2.840   4.206   7.449  0.5020  1.8062  0.1341
 1816TIP3    H227008   2.801   4.207   7.303  0.0260  0.9541  0.2523
 1817TIP3   OH227009   2.926   5.619   0.338  0.2463 -0.5449 -0.5907
 1817TIP3    H127010   2.947   5.650   0.250  0.6072 -0.4916 -0.4864
 1817TIP3    H227011   2.830   5.621   0.342  0.2330  2.6614  0.1389
 1818TIP3   OH227012   6.412   1.873   0.013  0.2644 -0.0552  0.0395
 1818TIP3    H127013   6.386   1.787  -0.019 -0.4900  0.0971  0.2148
 1818TIP3    H227014   6.466   1.910  -0.057 -0.7171 -0.0388 -0.7228
 1819TIP3   OH227015   3.895   0.494   2.319 -0.5907 -1.0685  0.2166
 1819TIP3    H127016   3.990   0.498   2.306 -0.8322  0.8260 -1.3376
 1819TIP3    H227017   3.882   0.415   2.372  2.0774  0.1491  3.0118
 1820TIP3   OH227018   6.048   3.085   6.120  0.1093 -0.2192  0.1026
 1820TIP3    H127019   6.096   3.020   6.171 -1.8714 -1.2883  0.7251
 1820TIP3    H227020   5.984   3.122   6.182 -0.7460  0.1850 -0.9810
 1821TIP3   OH227021   5.144   6.138   8.354  0.2977  0.7125  0.2157
 1821TIP3    H127022   5.049   6.150   8.354  0.1549 -0.2808  0.7966
 1821TIP3    H227023   5.156   6.046   8.380  1.4491  1.1105  1.1509
 1822TIP3   OH227024   1.635   6.741   1.705  0.5483 -0.0959 -0.0382
 1822TIP3    H127025   1.547   6.702   1.705  1.2881 -1.8658 -0.1545
 1822TIP3    H227026   1.639   6.791   1.623 -0.0550 -0.7142 -0.4607
 1823TIP3   OH227027   6.644   1.028   1.877  0.1102 -0.6086 -0.4446
 1823TIP3    H127028   6.637   1.031   1.973 -0.3639  2.0523 -0.4685
 1823TIP3    H227029   6.738   1.038   1.860  0.0605  0.4419 -0.2160
 1824TIP3   OH227030   3.876   3.243   8.062  0.1280 -0.1236 -0.4730
 1824TIP3    H127031   3.848   3.325   8.019 -1.3074 -0.5115 -0.3420
 1824TIP3    H227032   3.879   3.265   8.155 -0.5027 -0.2703 -0.4125
 1825TIP3   OH227033   2.166   4.654   8.535 -0.1125 -0.4804  0.3274
 1825TIP3    H127034   2.150   4.697   8.450 -1.8035 -0.5307  0.5743
 1825TIP3    H227035   2.150   4.561   8.517  1.0850 -0.7094  0.3657
 1826TIP3   OH227036   2.652   3.975   1.309  0.1739  0.7647  0.3374
 1826TIP3    H127037   2.746   3.985   1.325  0.2972 -0.7296  0.7547
 1826TIP3    H227038   2.630   4.043   1.246  1.5320  1.1625  0.2687
 1827TIP3   OH227039   3.842   0.880   1.296  0.2926 -0.1399  0.0861
 1827TIP3    H127040   3.854   0.974   1.283 -1.1545  0.1464  0.6094
 1827TIP3    H227041   3.931   0.844   1.295  0.7758  0.9022 -2.3342
 1828TIP3   OH227042   1.691   1.044   7.304 -0.1464  0.3718  0.0379
 1828TIP3    H127043   1.743   1.112   7.347 -0.4552  0.1273  0.7966
 1828TIP3    H227044   1.610   1.089   7.278 -0.1482  0.4051  0.1021
 1829TIP3   OH227045   2.655   6.594   1.439 -0.8789 -0.0065  0.0135
 1829TIP3    H127046   2.737   6.545   1.446 -0.4850  0.5455 -0.6176
 1829TIP3    H227047   2.610   6.556   1.364 -0.8760  0.1565 -0.0721
 1830TIP3   OH227048   4.129   4.342   1.166  0.1974 -0.4687 -0.2376
 1830TIP3    H127049   4.102   4.410   1.103 -0.1311 -0.0919  0.2962
 1830TIP3    H227050   4.139   4.389   1.249  0.0026 -1.0714  0.1332
 1831TIP3   OH227051   1.584   1.860   0.760  0.3831 -0.5882 -0.1624
 1831TIP3    H127052   1.636   1.792   0.802  0.8399  0.2331  0.6312
 1831TIP3    H227053   1.531   1.813   0.695  1.3743 -1.5695 -0.2941
 1832TIP3   OH227054   4.561   6.581   6.255  0.2908 -0.0507 -0.2131
 1832TIP3    H127055   4.520   6.495   6.242 -0.0957  0.1679 -0.4525
 1832TIP3    H227056   4.617   6.569   6.332 -0.0701 -0.4089  0.0013
 1833TIP3   OH227057   5.127   3.371   6.312 -0.3361  0.1078 -0.0955
 1833TIP3    H127058   5.114   3.448   6.256  0.2251 -0.6578 -1.3188
 1833TIP3    H227059   5.041   3.355   6.351 -0.0973  2.3491  1.5596
 1834TIP3   OH227060   1.695   0.746   7.282  0.2229 -0.2929  0.3908
 1834TIP3    H127061   1.614   0.744   7.231 -0.4085  0.9939  1.2818
 1834TIP3    H227062   1.706   0.838   7.305  1.7560 -0.5005  0.6067
 1835TIP3   OH227063   6.218   3.740   0.934 -0.5455  0.6955  0.2678
 1835TIP3    H127064   6.233   3.829   0.902  0.0112  0.6296  0.3420
 1835TIP3    H227065   6.304   3.698   0.929 -0.5104  0.5833  1.5316
 1836TIP3   OH227066   2.665   4.949   8.272 -0.5386  0.1201  0.3893
 1836TIP3    H127067   2.615   5.017   8.227 -0.4197  0.6841  1.0854
 1836TIP3    H227068   2.658   4.872   8.216 -0.6347  0.7213 -0.4324
 1837TIP3   OH227069   2.877   2.733   0.166 -0.7041 -0.1415 -0.2462
 1837TIP3    H127070   2.805   2.676   0.140 -0.4228 -0.4038 -0.4686
 1837TIP3    H227071   2.956   2.679   0.153 -0.3475  0.6333 -1.4908
 1838TIP3   OH227072   6.558   5.447   1.489 -0.3426  0.5535 -0.3734
 1838TIP3    H127073   6.628   5.409   1.435 -0.6040  0.2367 -0.4883
 1838TIP3    H227074   6.600   5.465   1.573  0.3605  2.0358 -0.9913
 1839TIP3   OH227075   1.445   4.922   1.551  0.1620  0.0538  0.0712
 1839TIP3    H127076   1.492   5.002   1.529  0.6153 -0.2979 -0.2587
 1839TIP3    H227077   1.389   4.905   1.474  0.7656 -0.4566 -0.2579
 1840TIP3   OH227078   1.921   3.430   8.626 -0.1423  0.1901  0.5913
 1840TIP3    H127079   1.911   3.335   8.619  2.6476 -0.2596  1.4885
 1840TIP3    H227080   1.886   3.451   8.713  1.3092 -0.4419  1.3691
 1841TIP3   OH227081   3.383   6.341   6.836 -0.2151  0.7631 -0.1522
 1841TIP3    H127082   3.389   6.367   6.928 -0.3226 -2.4188  0.8589
 1841TIP3    H227083   3.428   6.411   6.789 -3.2381  4.4472  1.7900
 1842TIP3   OH227084   1.586   1.739   1.941  0.3534 -0.3140  0.1011
 1842TIP3    H127085   1.606   1.772   2.028 -0.1963  0.1790  0.0523
 1842TIP3    H227086   1.493   1.760   1.928  0.8275  1.1980 -1.2616
 1843TIP3   OH227087   3.310   4.585   8.959  0.3001  0.3018 -0.5148
 1843TIP3    H127088   3.301   4.505   8.907 -0.2220  0.3010 -0.4200
 1843TIP3    H227089   3.370   4.560   9.029  0.9890  0.2933 -1.0839
 1844TIP3   OH227090   6.041   1.319   7.676  0.2872  0.7929  0.3414
 1844TIP3    H127091   6.077   1.267   7.605  0.9678  0.3512  0.9882
 1844TIP3    H227092   5.966   1.268   7.708  1.4660 -0.2817  1.5393
 1845TIP3   OH227093   2.826   2.521   8.375 -0.2519 -0.3406 -0.2822
 1845TIP3    H127094   2.842   2.485   8.462  1.0617  2.6995  0.8768
 1845TIP3    H227095   2.738   2.490   8.352 -0.5816 -1.3380  2.0641
 1846TIP3   OH227096   5.899   2.725   8.627 -0.1761 -0.0009 -0.7428
 1846TIP3    H127097   5.879   2.692   8.540 -0.6221  0.9723 -1.0188
 1846TIP3    H227098   5.873   2.817   8.625  0.7021  0.2895  0.1191
 1847TIP3   OH227099   1.478   0.948   7.625  0.2433  0.2766  0.2578
 1847TIP3    H127100   1.526   0.871   7.595 -0.4443  0.1128 -0.4551
 1847TIP3    H227101   1.542   0.998   7.677  1.2268  0.1522 -0.7948
 1848TIP3   OH227102   2.795   4.515   7.408  0.6576 -0.1888  0.0944
 1848TIP3    H127103   2.830   4.550   7.490 -0.0198  0.8165 -0.0263
 1848TIP3    H227104   2.853   4.552   7.341 -0.4163  1.2587 -0.0834
 1849TIP3   OH227105   0.513   5.809   8.118  0.9821 -0.4191 -0.0565
 1849TIP3    H127106   0.586   5.871   8.115 -1.0374  2.0686 -2.0815
 1849TIP3    H227107   0.543   5.734   8.067  1.6968  1.1474 -2.0574
 1850TIP3   OH227108   0.408   3.876   8.481  0.3905  0.5853 -0.5821
 1850TIP3    H127109   0.343   3.852   8.546  0.4492  2.4778  0.2267
 1850TIP3    H227110   0.409   3.802   8.420 -0.6586 -0.6085  0.7795
 1851TIP3   OH227111   6.000   2.402   8.291  0.2377 -0.0742  0.0207
 1851TIP3    H127112   5.932   2.375   8.229 -0.8124  1.0549  0.6510
 1851TIP3    H227113   6.037   2.319   8.323 -0.9967 -0.7183 -0.1547
 1852TIP3   OH227114   0.755   2.727   8.771 -0.3487  0.6290  0.0491
 1852TIP3    H127115   0.705   2.742   8.851  0.7851 -1.0302  1.0994
 1852TIP3    H227116   0.767   2.815   8.734 -0.8149  1.4362  1.7223
 1853TIP3   OH227117   2.105   0.798   1.679 -0.7133 -0.8070  0.1795
 1853TIP3    H127118   2.196   0.772   1.665 -1.3907 -3.9450  0.8615
 1853TIP3    H227119   2.108   0.858   1.753  0.9871  1.3152 -1.4754
 1854TIP3   OH227120   4.730   0.786   1.912  0.6155  0.0398 -0.1420
 1854TIP3    H127121   4.825   0.797   1.915  0.6105  0.0034  0.2103
 1854TIP3    H227122   4.699   0.823   1.995  0.3741 -0.4187 -0.0199
 1855TIP3   OH227123   0.627   1.202   6.683  0.1614  0.3449  0.2042
 1855TIP3    H127124   0.649   1.294   6.666 -1.4521  0.9330  1.0582
 1855TIP3    H227125   0.703   1.153   6.651  2.2547  2.1108  2.0306
 1856TIP3   OH227126   5.730   2.161   8.416  0.2947  0.3017  0.1248
 1856TIP3    H127127   5.717   2.196   8.504 -0.3839  0.6752 -0.1129
 1856TIP3    H227128   5.825   2.159   8.405  0.3665  1.4203  0.4030
 1857TIP3   OH227129   2.712   0.826   7.624 -0.3802 -0.3237  0.4602
 1857TIP3    H127130   2.704   0.736   7.656 -1.8735  0.4085  2.3284
 1857TIP3    H227131   2.668   0.879   7.690  1.7198  1.9672  0.1355
 1858TIP3   OH227132   0.374   2.483   7.023  0.0757 -0.1992  0.1981
 1858TIP3    H127133   0.425   2.403   7.015  1.2951  0.6715 -1.2436
 1858TIP3    H227134   0.285   2.458   7.002  0.3065 -1.3231  0.5292
 1859TIP3   OH227135   5.480   5.206   8.849  0.2077 -0.3441  0.6839
 1859TIP3    H127136   5.468   5.149   8.925 -1.9915 -1.3536 -0.3277
 1859TIP3    H227137   5.402   5.262   8.848  0.5092  0.0910 -0.4565
 1860TIP3   OH227138   5.924   4.067   0.528 -0.5650 -0.1822 -0.0983
 1860TIP3    H127139   5.829   4.071   0.538 -0.5801  1.1273 -0.6716
 1860TIP3    H227140   5.946   4.142   0.472  0.8190 -0.3900  0.1383
 1861TIP3   OH227141   1.257   3.789   7.859 -0.2825  0.4721 -0.0017
 1861TIP3    H127142   1.239   3.879   7.830 -0.4643  0.0544 -1.2759
 1861TIP3    H227143   1.179   3.764   7.909 -0.1920  1.0484  0.4339
 1862TIP3   OH227144   5.932   6.528   8.792  0.1445  0.2426  0.0600
 1862TIP3    H127145   5.937   6.439   8.827 -1.9947  0.0094 -0.0677
 1862TIP3    H227146   5.971   6.522   8.706  5.2265  0.7534  2.0081
 1863TIP3   OH227147   6.528   0.526   6.740 -0.1856  0.0087 -0.1031
 1863TIP3    H127148   6.523   0.612   6.698  1.3192 -0.2392 -0.8704
 1863TIP3    H227149   6.622   0.510   6.752 -0.4319 -1.5110  0.0672
 1864TIP3   OH227150   4.672   1.658   2.615 -0.0987  0.5694  0.5852
 1864TIP3    H127151   4.608   1.725   2.588 -2.7352 -1.8244  0.4535
 1864TIP3    H227152   4.667   1.657   2.711 -0.2828  0.3620  0.5738
 1865TIP3   OH227153   5.407   5.764   0.145 -0.4709  0.0620 -0.0312
 1865TIP3    H127154   5.327   5.712   0.150 -0.6983  0.4618  0.6190
 1865TIP3    H227155   5.413   5.807   0.230  0.6157 -0.2187  0.0483
 1866TIP3   OH227156   4.005   0.707   1.984  0.5093 -0.0894  0.8440
 1866TIP3    H127157   4.076   0.708   2.048  0.9995  0.6695  0.3092
 1866TIP3    H227158   4.049   0.714   1.899 -0.1759 -0.2046  0.4685
 1867TIP3   OH227159   1.160   2.590   7.531 -0.2869  0.3240  0.0066
 1867TIP3    H127160   1.223   2.530   7.492 -0.5725  0.1281 -0.1566
 1867TIP3    H227161   1.081   2.580   7.478 -0.1492  1.2881 -0.3849
 1868TIP3   OH227162   6.048   3.225   6.391  0.0496  0.3094  0.7099
 1868TIP3    H127163   6.024   3.278   6.315 -0.1963 -2.3328 -1.2172
 1868TIP3    H227164   6.138   3.248   6.410  0.3335  0.6108 -0.8428
 1869TIP3   OH227165   0.946   3.520   1.411  0.4168 -0.0580  0.9981
 1869TIP3    H127166   0.910   3.479   1.333  1.8672 -1.2876  0.9241
 1869TIP3    H227167   1.039   3.497   1.409  0.5250  0.0248  2.9802
 1870TIP3   OH227168   2.481   2.827   2.093  0.1169 -0.1557 -0.1761
 1870TIP3    H127169   2.506   2.820   2.185 -0.2349 -0.7370 -0.1156
 1870TIP3    H227170   2.410   2.763   2.083  1.3532 -1.4108 -1.2666
 1871TIP3   OH227171   3.882   6.514   1.058  0.1058 -0.1928  0.1574
 1871TIP3    H127172   3.922   6.460   1.125 -0.8343 -0.8269  0.2260
 1871TIP3    H227173   3.815   6.564   1.104  0.7739  0.8490  0.0421
 1872TIP3   OH227174   3.866   6.632   1.396 -0.2490 -0.0573 -0.8821
 1872TIP3    H127175   3.953   6.602   1.368 -0.4678 -2.2943  0.6161
 1872TIP3    H227176   3.881   6.721   1.427  2.1803 -1.2898  1.9920
 1873TIP3   OH227177   2.078   1.502   1.668 -0.1413 -0.4004  0.4381
 1873TIP3    H127178   2.114   1.422   1.631 -0.2269 -0.8591  1.3191
 1873TIP3    H227179   2.087   1.567   1.599  1.8080 -0.6547  0.4206
 1874TIP3   OH227180   5.791   4.515   1.120  0.0968  0.3292  0.4305
 1874TIP3    H127181   5.880   4.549   1.122  0.2688 -0.1047  2.1074
 1874TIP3    H227182   5.801   4.420   1.128 -0.5027  0.2310  0.1000
 1875TIP3   OH227183   6.359   6.594   8.608 -1.1228  0.0914  0.2866
 1875TIP3    H127184   6.358   6.498   8.604  0.4802  0.0671 -0.2425
 1875TIP3    H227185   6.330   6.622   8.522 -0.0509  0.0303 -0.1163
 1876TIP3   OH227186   1.328   2.261   7.863  0.3291  0.3964 -0.1208
 1876TIP3    H127187   1.297   2.349   7.840 -2.2064 -0.5375 -0.6459
 1876TIP3    H227188   1.353   2.222   7.779 -0.8770 -0.1697 -0.2365
 1877TIP3   OH227189   2.419   5.666   1.734  0.2886 -0.0994  0.0278
 1877TIP3    H127190   2.373   5.585   1.714  0.8830 -0.0556 -1.6672
 1877TIP3    H227191   2.508   5.637   1.756  0.2189  0.0226  0.4775
 1878TIP3   OH227192   4.202   1.923   7.828  0.4935 -0.4708  0.1028
 1878TIP3    H127193   4.182   1.909   7.735  1.0862  2.0271 -0.4943
 1878TIP3    H227194   4.175   2.013   7.844 -0.8397 -1.2580  2.7698
 1879TIP3   OH227195   1.666   3.724   0.885  0.0399 -0.2842 -0.7499
 1879TIP3    H127196   1.595   3.712   0.948  0.9047  1.2199  0.5769
 1879TIP3    H227197   1.732   3.660   0.911 -0.4269 -1.0666 -1.4318
 1880TIP3   OH227198   5.198   4.153   0.386  0.4119 -1.3841 -0.2592
 1880TIP3    H127199   5.127   4.215   0.404  1.0035 -1.1981  1.7545
 1880TIP3    H227200   5.154   4.071   0.365 -0.3735 -0.5630 -2.0306
 1881TIP3   OH227201   3.620   4.605   0.359  0.2516 -0.9237 -0.4026
 1881TIP3    H127202   3.564   4.529   0.373  0.5457 -1.2211 -0.8300
 1881TIP3    H227203   3.601   4.633   0.270 -0.2959 -0.1236 -0.0538
 1882TIP3   OH227204   4.965   2.147   1.373 -0.2808  0.4489  0.1852
 1882TIP3    H127205   4.981   2.156   1.467 -0.2390  1.9658  0.0588
 1882TIP3    H227206   4.927   2.230   1.347  0.8516  0.5377 -1.3701
 1883TIP3   OH227207   5.908   5.838   7.656 -0.5124  0.2303  0.3541
 1883TIP3    H127208   5.925   5.930   7.636  0.1559 -0.3942 -2.3324
 1883TIP3    H227209   5.814   5.835   7.674 -0.8700  1.2161 -1.1389
 1884TIP3   OH227210   4.524   5.835   8.539 -0.4986  0.4777  0.1739
 1884TIP3    H127211   4.540   5.742   8.554 -0.1702  0.5232  0.1098
 1884TIP3    H227212   4.558   5.852   8.451  1.1011  1.0412  0.8590
 1885TIP3   OH227213   4.810   1.302   0.092  0.2747  0.1330  0.0242
 1885TIP3    H127214   4.872   1.350   0.036  1.2195 -2.0604 -0.9201
 1885TIP3    H227215   4.865   1.239   0.139 -0.8924  0.1123  1.4080
 1886TIP3   OH227216   2.500   4.674   0.198  0.4275 -0.5829 -0.1119
 1886TIP3    H127217   2.445   4.643   0.126  0.9428 -0.3873 -0.5909
 1886TIP3    H227218   2.589   4.650   0.174  0.6723 -0.0233  0.1902
 1887TIP3   OH227219   4.956   4.368   1.718 -0.0601  0.7341  0.3497
 1887TIP3    H127220   4.924   4.350   1.630  0.7072 -0.5235  0.3052
 1887TIP3    H227221   4.898   4.317   1.776 -0.8339  1.8892  0.6381
 1888TIP3   OH227222   0.857   1.329   0.028  0.0924 -0.5735 -0.1405
 1888TIP3    H127223   0.865   1.391  -0.044 -0.0519  0.0211  0.3450
 1888TIP3    H227224   0.867   1.383   0.107 -1.2975 -0.9575  0.3224
 1889TIP3   OH227225   2.621   3.263   6.864  0.1147  0.3004 -0.1583
 1889TIP3    H127226   2.572   3.181   6.869  0.2758  0.2848  1.4994
 1889TIP3    H227227   2.568   3.318   6.805 -0.7194 -0.4986 -0.1792
 1890TIP3   OH227228   5.933   1.116   1.105  0.5281 -0.2330  0.0285
 1890TIP3    H127229   5.970   1.047   1.159 -1.1983 -0.3833  1.0895
 1890TIP3    H227230   5.956   1.091   1.015  0.4426 -1.8939  0.4329
 1891TIP3   OH227231   4.831   3.262   6.815 -0.0066 -0.0793  0.2775
 1891TIP3    H127232   4.870   3.200   6.753 -0.8452  0.6457 -1.0370
 1891TIP3    H227233   4.853   3.228   6.901  1.4287 -0.9879 -0.4216
 1892TIP3   OH227234   5.783   3.392   2.491 -0.0760  0.1395  0.1561
 1892TIP3    H127235   5.874   3.378   2.465 -0.2008  0.6406 -0.5797
 1892TIP3    H227236   5.734   3.322   2.447  0.2677 -2.1576  3.0147
 1893TIP3   OH227237   0.615   4.489   7.350  0.2689 -0.0334  0.0009
 1893TIP3    H127238   0.560   4.426   7.303 -1.2430 -0.6912  2.4411
 1893TIP3    H227239   0.692   4.439   7.377 -0.0476 -0.3505  0.3340
 1894TIP3   OH227240   0.520   1.013   2.399  0.0492 -0.2846  0.3008
 1894TIP3    H127241   0.513   1.108   2.393  1.4716 -0.2030 -0.5973
 1894TIP3    H227242   0.590   0.991   2.337  0.5609 -1.7952  1.3667
 1895TIP3   OH227243   0.421   6.498   1.248 -0.6779  0.2423  0.4137
 1895TIP3    H127244   0.354   6.522   1.312 -0.1898  0.9432  0.6832
 1895TIP3    H227245   0.423   6.572   1.187 -0.6400 -0.0955  0.0018
 1896TIP3   OH227246   5.629   2.708   7.020 -0.5438 -0.7136 -0.0032
 1896TIP3    H127247   5.722   2.683   7.021 -0.0999  0.8237  0.9042
 1896TIP3    H227248   5.591   2.657   6.948  0.9042 -1.6813 -0.1347
 1897TIP3   OH227249   2.223   4.742   1.754 -0.2100 -0.0334  0.3045
 1897TIP3    H127250   2.206   4.722   1.846  3.0204  1.0201  1.2760
 1897TIP3    H227251   2.276   4.670   1.723  3.2074  1.9792  0.9660
 1898TIP3   OH227252   3.610   0.307   8.139  0.8267 -0.1350 -0.4582
 1898TIP3    H127253   3.576   0.220   8.162  1.1530 -0.0346  0.4421
 1898TIP3    H227254   3.586   0.363   8.213 -0.9633  0.9888 -1.8074
 1899TIP3   OH227255   0.779   5.399   0.226  0.4355  0.4983 -0.1372
 1899TIP3    H127256   0.762   5.305   0.221  0.2195  0.6016 -1.8265
 1899TIP3    H227257   0.863   5.411   0.181  0.3293  1.1564 -0.1683
 1900TIP3   OH227258   2.520   5.281   0.099  0.2166 -0.4944 -0.3311
 1900TIP3    H127259   2.602   5.329   0.106  0.7534 -1.4469  0.1508
 1900TIP3    H227260   2.511   5.262   0.006  0.7215 -0.6738 -0.3463
 1901TIP3   OH227261   5.581   3.028   8.546 -0.7952  0.2345 -0.1656
 1901TIP3    H127262   5.494   3.018   8.508 -0.7475 -0.2625 -0.1596
 1901TIP3    H227263   5.564   3.055   8.637 -0.9466  0.0722 -0.1440
 1902TIP3   OH227264   5.376   4.939   0.931 -0.5569 -0.0414  0.5129
 1902TIP3    H127265   5.287   4.966   0.953 -0.0836 -0.0004  2.5252
 1902TIP3    H227266   5.401   4.881   1.002  0.8963 -0.3888 -0.2525
 1903TIP3   OH227267   4.656   5.431   7.700  0.7310 -0.7346 -0.3050
 1903TIP3    H127268   4.731   5.449   7.644  1.6404 -1.2206  0.7181
 1903TIP3    H227269   4.645   5.511   7.751  0.1384 -0.4294 -0.8973
 1904TIP3   OH227270   3.770   6.377   2.025  0.4720  0.0980  0.1466
 1904TIP3    H127271   3.829   6.379   2.101 -1.0624 -0.2685  1.3878
 1904TIP3    H227272   3.811   6.313   1.966  0.6861 -1.1061  1.5374
 1905TIP3   OH227273   3.088   3.839   8.508  0.3435  0.1845 -0.4507
 1905TIP3    H127274   3.144   3.790   8.569  0.1348 -1.5410 -1.5631
 1905TIP3    H227275   3.000   3.830   8.545  0.0822 -1.6071 -1.3574
 1906TIP3   OH227276   5.421   4.559   0.071  0.0895 -0.0740 -0.1072
 1906TIP3    H127277   5.419   4.484   0.130  2.0124  1.6001  2.2936
 1906TIP3    H227278   5.492   4.541   0.010 -0.8136 -1.0714 -0.8989
 1907TIP3   OH227279   5.459   5.000   2.371  0.3052  0.0596 -0.3846
 1907TIP3    H127280   5.542   5.011   2.324  1.6501  0.1422  1.8519
 1907TIP3    H227281   5.474   4.925   2.429 -0.6643  0.9421  1.0778
 1908TIP3   OH227282   5.846   2.204   0.994 -0.1098  0.1684  0.0953
 1908TIP3    H127283   5.913   2.136   0.996  1.2417  1.4747  1.7524
 1908TIP3    H227284   5.889   2.282   1.029 -2.0036  1.5296 -0.4453
 1909TIP3   OH227285   0.722   6.200   0.522  0.4815 -0.2663 -0.5303
 1909TIP3    H127286   0.700   6.266   0.587  1.0992  0.6104 -1.1821
 1909TIP3    H227287   0.703   6.116   0.565 -0.8348  0.3406  0.1039
 1910TIP3   OH227288   2.607   1.271   1.619  0.0699  0.4416  0.9546
 1910TIP3    H127289   2.578   1.258   1.529  0.8234  1.1125  0.6060
 1910TIP3    H227290   2.588   1.363   1.638 -0.7788  0.1203  1.7466
 1911TIP3   OH227291   1.928   5.502   8.727  1.0602  0.8319  0.1923
 1911TIP3    H127292   1.861   5.569   8.729  0.2957  0.1315  3.7924
 1911TIP3    H227293   1.934   5.477   8.634 -1.6529  2.8218 -0.6366
 1912TIP3   OH227294   0.095   3.150   1.158 -0.7540 -0.1223 -0.0276
 1912TIP3    H127295   0.110   3.185   1.246 -2.8311  1.0120 -0.0598
 1912TIP3    H227296   0.181   3.117   1.130  0.9884  3.3258  0.7530
 1913TIP3   OH227297   5.459   1.039   0.407 -0.0919  0.9405  0.3260
 1913TIP3    H127298   5.508   1.069   0.330 -0.7853  0.3667 -0.3570
 1913TIP3    H227299   5.373   1.080   0.398 -0.2886  0.5934  0.6198
 1914TIP3   OH227300   3.015   6.418   0.630  0.3117  0.7568 -0.4291
 1914TIP3    H127301   2.990   6.470   0.554 -0.5459  0.7016 -0.1956
 1914TIP3    H227302   2.935   6.371   0.654  0.7485  0.2723  0.1114
 1915TIP3   OH227303   3.880   1.813   1.591  1.0683  0.1253 -0.4822
 1915TIP3    H127304   3.794   1.841   1.558  0.4699 -1.0693 -0.0359
 1915TIP3    H227305   3.890   1.725   1.555  1.1252 -0.5853  1.1814
 1916TIP3   OH227306   5.992   4.691   1.314 -0.5064  0.0766 -0.5499
 1916TIP3    H127307   6.009   4.755   1.383  0.2304  0.8626 -1.4209
 1916TIP3    H227308   5.939   4.623   1.356 -0.4523  0.7522  0.6583
 1917TIP3   OH227309   6.412   3.747   7.996  0.4262 -0.4447 -0.0676
 1917TIP3    H127310   6.326   3.745   8.037 -0.0802 -0.4905 -1.0982
 1917TIP3    H227311   6.448   3.660   8.011  0.5784 -0.2169  0.9403
 1918TIP3   OH227312   5.011   4.243   0.861  0.1687 -0.2488  0.4261
 1918TIP3    H127313   4.978   4.229   0.950  1.2180 -1.7912  0.6119
 1918TIP3    H227314   4.933   4.235   0.805 -0.5055  0.7819  1.1913
 1919TIP3   OH227315   0.480   0.911   7.672  0.4423  0.6373 -1.0528
 1919TIP3    H127316   0.532   0.965   7.732  0.4510  1.0401 -1.4229
 1919TIP3    H227317   0.488   0.954   7.587  0.9578 -0.2873 -1.4890
 1920TIP3   OH227318   2.358   5.397   1.634 -0.2624 -0.0490  0.2350
 1920TIP3    H127319   2.334   5.324   1.577  0.2185  1.0482 -1.4143
 1920TIP3    H227320   2.442   5.371   1.671  0.6400  0.2639 -1.4998
 1921TIP3   OH227321   1.500   5.977   6.340 -0.2950 -0.0499  0.4090
 1921TIP3    H127322   1.456   5.897   6.311 -0.2857 -0.8967  2.5863
 1921TIP3    H227323   1.484   5.981   6.434  0.7171  1.8998  0.5476
 1922TIP3   OH227324   0.813   4.966   8.423 -0.3707 -0.4844 -0.2894
 1922TIP3    H127325   0.902   4.953   8.392 -0.1389 -1.5200  0.7294
 1922TIP3    H227326   0.757   4.947   8.348  0.2639  0.6431 -1.0693
 1923TIP3   OH227327   5.294   1.422   2.513  0.1814 -0.7988  0.2152
 1923TIP3    H127328   5.270   1.330   2.528  0.2921 -0.5414  2.2099
 1923TIP3    H227329   5.379   1.432   2.555  0.5363  0.0378 -0.6795
 1924TIP3   OH227330   2.180   5.195   8.375  0.0344 -0.3498  0.1510
 1924TIP3    H127331   2.127   5.183   8.454 -0.7540 -0.9069 -0.4320
 1924TIP3    H227332   2.262   5.233   8.405  0.1469 -1.4972  1.3597
 1925TIP3   OH227333   0.697   3.855   0.158  0.5040  0.7285 -0.0064
 1925TIP3    H127334   0.697   3.951   0.166  0.1839  0.5727  2.7472
 1925TIP3    H227335   0.708   3.839   0.064  0.7860  3.4501 -0.5230
 1926TIP3   OH227336   5.390   3.233   8.306  0.3433  0.4682  0.4217
 1926TIP3    H127337   5.297   3.246   8.287  0.4327 -1.4148 -1.5788
 1926TIP3    H227338   5.392   3.159   8.367  0.5650 -0.0105 -0.1639
 1927TIP3   OH227339   4.958   0.296   0.667  0.4321 -0.1226  0.3626
 1927TIP3    H127340   4.921   0.234   0.729 -1.2665  1.6803  1.2704
 1927TIP3    H227341   5.050   0.273   0.661  0.0345 -2.1276  1.3363
 1928TIP3   OH227342   2.446   0.405   8.504 -0.3795  0.0186 -0.2947
 1928TIP3    H127343   2.468   0.336   8.443  1.4937  1.3586 -1.2342
 1928TIP3    H227344   2.440   0.361   8.589 -0.7661 -1.5020 -1.0755
 1929TIP3   OH227345   0.642   0.064   1.583  0.5346  0.2387  0.2775
 1929TIP3    H127346   0.683   0.117   1.652 -1.1941  1.2272  0.6317
 1929TIP3    H227347   0.548   0.067   1.605  0.2384 -1.7427 -0.5765
 1930TIP3   OH227348   5.945   0.832   2.678 -0.8400  0.0381  0.2503
 1930TIP3    H127349   6.040   0.819   2.676 -0.6275  1.4659 -1.5338
 1930TIP3    H227350   5.908   0.744   2.673  0.4193 -0.4717 -0.4440
 1931TIP3   OH227351   0.031   4.678   7.998 -0.3355 -0.5699  0.6572
 1931TIP3    H127352   0.115   4.664   8.041  0.0281  1.2028  0.5830
 1931TIP3    H227353  -0.032   4.686   8.069 -0.4193 -1.6332  0.7187
 1932TIP3   OH227354   3.292   3.143   8.031  0.0594  0.3745  0.9709
 1932TIP3    H127355   3.252   3.228   8.009  2.4634  1.0678 -1.1231
 1932TIP3    H227356   3.381   3.165   8.059  1.2373 -1.4762 -0.9962
 1933TIP3   OH227357   3.050   6.119   1.916 -0.5718  0.0715  0.0566
 1933TIP3    H127358   3.074   6.041   1.967 -3.4268  0.6180  2.4674
 1933TIP3    H227359   3.134   6.161   1.897  0.8045 -1.2098  2.6591
 1934TIP3   OH227360   5.612   0.817   6.881 -0.3942 -0.1235 -0.3946
 1934TIP3    H127361   5.642   0.783   6.965 -0.1392 -1.3643 -0.9641
 1934TIP3    H227362   5.569   0.742   6.839  0.7928  0.0302 -1.9816
 1935TIP3   OH227363   0.015   3.010   8.499  0.0589 -0.1358 -0.5534
 1935TIP3    H127364   0.073   2.937   8.479 -0.4206 -1.1373  1.3892
 1935TIP3    H227365   0.060   3.056   8.571 -0.8522 -0.0883 -0.0030
 1936TIP3   OH227366   1.404   2.614   1.877 -0.5356  0.0916 -0.0156
 1936TIP3    H127367   1.479   2.555   1.888  0.5425  1.5777  0.9887
 1936TIP3    H227368   1.361   2.583   1.797  0.3030 -1.6923  0.1761
 1937TIP3   OH227369   0.905   3.300   7.317  0.0838 -0.3581  0.6300
 1937TIP3    H127370   0.907   3.392   7.294 -1.7437 -0.3830  0.1633
 1937TIP3    H227371   0.926   3.254   7.236  0.6022 -0.3563  0.7635
 1938TIP3   OH227372   5.313   0.192   8.652 -0.0001 -0.4373  0.5174
 1938TIP3    H127373   5.315   0.222   8.743  1.5792 -0.3462  0.4913
 1938TIP3    H227374   5.273   0.105   8.656 -0.8259 -0.0393  1.1561
 1939TIP3   OH227375   1.264   0.288   0.239  0.2544 -0.0605  0.3524
 1939TIP3    H127376   1.217   0.285   0.156  2.8093  0.2934 -1.2249
 1939TIP3    H227377   1.251   0.201   0.278 -2.1219  0.2277  0.3197
 1940TIP3   OH227378   0.838   1.837   1.258  0.1669  0.1530 -0.0535
 1940TIP3    H127379   0.845   1.787   1.177  2.4720  0.2332  0.0306
 1940TIP3    H227380   0.864   1.925   1.234 -1.0381  0.6594  0.4082
 1941TIP3   OH227381   3.313   3.593   1.152  0.7460  0.2261 -0.2029
 1941TIP3    H127382   3.318   3.639   1.236  0.1189 -2.2339  1.2839
 1941TIP3    H227383   3.404   3.574   1.130  0.9029  0.7725 -0.0595
 1942TIP3   OH227384   6.126   6.195   0.590 -0.1991  0.1916  0.6116
 1942TIP3    H127385   6.204   6.163   0.635  1.0145 -0.9601 -2.0741
 1942TIP3    H227386   6.135   6.290   0.590  1.5401  0.0593 -0.1138
 1943TIP3   OH227387   5.119   6.277   1.939 -0.1771 -0.5279  0.4903
 1943TIP3    H127388   5.071   6.225   2.003 -1.4580 -0.7556 -0.5982
 1943TIP3    H227389   5.066   6.355   1.926  0.6086  0.0129  0.4749
 1944TIP3   OH227390   0.457   0.632   0.270 -0.1249 -0.3823 -0.0799
 1944TIP3    H127391   0.432   0.671   0.186 -0.0504  2.0611  0.9814
 1944TIP3    H227392   0.541   0.673   0.292 -0.6068 -0.2469  1.6392
 1945TIP3   OH227393   1.838   5.374   0.606 -0.2963 -0.2188  0.6098
 1945TIP3    H127394   1.840   5.467   0.628  1.6563 -0.1509  0.3083
 1945TIP3    H227395   1.780   5.368   0.531 -1.4226  0.5653  1.3965
 1946TIP3   OH227396   4.893   4.380   7.981 -0.5249  0.1195  0.1870
 1946TIP3    H127397   4.823   4.331   7.937 -1.7593  1.2000  0.8800
 1946TIP3    H227398   4.943   4.420   7.910  0.5306 -2.0987 -0.4007
 1947TIP3   OH227399   3.247   0.975   8.614 -0.7671  0.0993 -0.3236
 1947TIP3    H127400   3.157   0.998   8.637 -0.7248 -1.2314  1.3620
 1947TIP3    H227401   3.290   0.959   8.698  1.0929  0.7669 -1.0812
 1948TIP3   OH227402   2.925   2.860   0.416  0.7028  0.4903 -0.1501
 1948TIP3    H127403   2.926   2.812   0.333  0.7046 -1.2375  0.8036
 1948TIP3    H227404   3.005   2.913   0.414  0.8747  0.2136 -1.1066
 1949TIP3   OH227405   3.413   1.203   0.737  0.6511  0.5185 -0.1425
 1949TIP3    H127406   3.382   1.161   0.817  0.8414  1.4722  0.4426
 1949TIP3    H227407   3.355   1.278   0.724 -0.3110 -0.4355 -1.7253
 1950TIP3   OH227408   4.597   0.580   1.750  0.0085  0.2041 -0.5663
 1950TIP3    H127409   4.651   0.594   1.673 -0.3253  1.4388 -0.6038
 1950TIP3    H227410   4.619   0.653   1.808 -0.5585 -0.0783  0.0159
 1951TIP3   OH227411   2.953   4.606   7.204  0.5120  0.0358 -0.1605
 1951TIP3    H127412   2.913   4.587   7.119 -1.6569  0.7748  0.6198
 1951TIP3    H227413   3.005   4.685   7.189  0.8496 -0.3344 -0.9825
 1952TIP3   OH227414   1.126   0.016   2.526  0.0906  0.1487  0.2102
 1952TIP3    H127415   1.110   0.109   2.542 -1.5466  0.6129 -3.3262
 1952TIP3    H227416   1.065  -0.029   2.585 -2.8348  1.5402 -1.5594
 1953TIP3   OH227417   3.586   6.158   0.665  0.4378  0.5228 -0.7900
 1953TIP3    H127418   3.657   6.210   0.627  1.1878 -1.1332 -1.8046
 1953TIP3    H227419   3.507   6.192   0.624  0.7461  1.6793 -0.4634
 1954TIP3   OH227420   4.844   1.386   8.416 -0.1798 -0.0206  0.3508
 1954TIP3    H127421   4.809   1.330   8.486  1.0714  0.4659  1.4145
 1954TIP3    H227422   4.919   1.337   8.382  1.8270  1.5256  2.2694
 1955TIP3   OH227423   5.894   0.608   7.891  0.0927  0.0517 -0.3272
 1955TIP3    H127424   5.968   0.664   7.868 -1.8462  3.7206  1.4110
 1955TIP3    H227425   5.824   0.635   7.830 -0.8141 -0.7879  0.3153
 1956TIP3   OH227426   4.874   0.570   6.801 -0.4458 -0.0013 -0.6636
 1956TIP3    H127427   4.925   0.617   6.734  0.6809  1.4181  1.1008
 1956TIP3    H227428   4.851   0.637   6.865  0.4081 -1.6537  1.4921
 1957TIP3   OH227429   4.511   1.785   1.961 -0.8148  0.0292 -0.4098
 1957TIP3    H127430   4.428   1.740   1.943 -0.0873 -0.9146 -1.5892
 1957TIP3    H227431   4.574   1.744   1.901  0.7769 -0.0947  1.2562
 1958TIP3   OH227432   6.462   4.591   6.417 -0.4190 -0.6242  0.5886
 1958TIP3    H127433   6.554   4.565   6.411  0.5271  2.6331 -1.2428
 1958TIP3    H227434   6.415   4.508   6.430  2.6202 -2.5589  0.3338
 1959TIP3   OH227435   1.056   5.617   7.955  0.8517 -0.5766 -0.4603
 1959TIP3    H127436   1.079   5.612   7.862  2.2021 -0.2258 -0.1623
 1959TIP3    H227437   0.962   5.633   7.955  1.0787  1.0840 -1.8137
 1960TIP3   OH227438   1.072   5.967   8.829  0.4972 -0.3338 -0.0041
 1960TIP3    H127439   1.031   5.950   8.914  1.1901  1.0036  0.6317
 1960TIP3    H227440   1.129   5.892   8.814 -0.3453 -1.0332  0.2604
 1961TIP3   OH227441   5.648   1.181   1.481  0.1109 -0.0739 -0.6600
 1961TIP3    H127442   5.714   1.211   1.544 -0.9245  0.5629  0.1481
 1961TIP3    H227443   5.622   1.094   1.513  0.8053 -0.4924 -1.1944
 1962TIP3   OH227444   5.502   3.400   8.936  0.1431  0.2086  0.4227
 1962TIP3    H127445   5.474   3.365   9.021 -1.5490  0.2094 -0.1059
 1962TIP3    H227446   5.572   3.462   8.958 -0.7203  0.7178  1.8919
 1963TIP3   OH227447   3.557   1.300   6.562 -0.6392  0.1039 -0.0604
 1963TIP3    H127448   3.514   1.241   6.500 -0.7305 -0.2963  0.3735
 1963TIP3    H227449   3.606   1.361   6.507  1.0275 -1.5415 -0.5356
 1964TIP3   OH227450   2.998   6.067   0.297  0.6701 -1.0244  0.6713
 1964TIP3    H127451   3.046   6.076   0.380  1.2960 -2.4892  0.5021
 1964TIP3    H227452   3.044   5.997   0.251  0.5162 -0.0320 -1.0591
 1965TIP3   OH227453   5.952   1.921   0.499 -0.2281 -0.3737 -0.2895
 1965TIP3    H127454   6.025   1.978   0.474  0.3935 -0.9334  0.2024
 1965TIP3    H227455   5.904   1.971   0.565 -0.3503  0.0395 -0.6880
 1966TIP3   OH227456   0.216   5.261   1.300 -1.1905  0.4121 -0.1070
 1966TIP3    H127457   0.218   5.194   1.368 -0.6474 -1.5636 -1.9441
 1966TIP3    H227458   0.302   5.302   1.303 -1.2018  0.3928  0.4505
 1967TIP3   OH227459   2.856   6.067   1.049  0.9087  0.1945 -0.4296
 1967TIP3    H127460   2.912   6.073   1.127 -1.4890  0.8459  1.3823
 1967TIP3    H227461   2.817   5.980   1.054 -1.2388  1.1149  0.7077
 1968TIP3   OH227462   0.420   5.625   1.249  0.4484  0.3903 -0.3653
 1968TIP3    H127463   0.346   5.667   1.294  0.4215  0.5139 -0.5245
 1968TIP3    H227464   0.462   5.573   1.317 -1.9178 -2.6440 -0.9774
 1969TIP3   OH227465   1.977   5.047   8.611 -0.0527 -1.2943  0.4593
 1969TIP3    H127466   1.942   4.970   8.568 -1.3924 -0.5800  0.2065
 1969TIP3    H227467   1.901   5.089   8.651  0.6348 -0.1295  0.6079
 1970TIP3   OH227468   3.931   6.419   1.693  0.0556 -0.3914 -0.2690
 1970TIP3    H127469   3.941   6.359   1.767  2.8430  0.9273  0.5730
 1970TIP3    H227470   3.854   6.472   1.716 -1.9663 -2.9758 -0.6608
 1971TIP3   OH227471   6.504   3.648   8.714  0.2398  0.8189 -0.4497
 1971TIP3    H127472   6.480   3.679   8.802 -0.6946  1.4321 -0.9107
 1971TIP3    H227473   6.420   3.641   8.668  0.5119 -1.3901 -0.7044
 1972TIP3   OH227474   2.704   1.867   7.705  0.5468 -0.0598  0.3333
 1972TIP3    H127475   2.775   1.844   7.646  1.0899  1.9129  0.1386
 1972TIP3    H227476   2.741   1.859   7.792  0.3357 -1.0707  0.3462
 1973TIP3   OH227477   5.196   6.715   0.628  0.0378  0.3724 -0.2195
 1973TIP3    H127478   5.234   6.801   0.648  0.4935  0.1351 -0.0452
 1973TIP3    H227479   5.120   6.708   0.684 -0.7553  1.2008 -1.1542
 1974TIP3   OH227480   6.650   6.683   7.845 -0.1776  0.4874 -0.0388
 1974TIP3    H127481   6.695   6.767   7.850 -0.5078  0.6952 -0.5111
 1974TIP3    H227482   6.676   6.637   7.925  1.1648  0.4591 -0.4593
 1975TIP3   OH227483   6.249   4.416   7.669  0.1552  0.4228 -0.4569
 1975TIP3    H127484   6.164   4.389   7.704  0.2016  1.1052  0.2137
 1975TIP3    H227485   6.252   4.380   7.580 -0.3725 -0.5305 -0.0955
 1976TIP3   OH227486   1.645   3.712   7.522 -0.0541  0.3427  0.0819
 1976TIP3    H127487   1.583   3.763   7.574 -0.7276  0.1738 -0.5380
 1976TIP3    H227488   1.717   3.772   7.504 -0.0035  0.5275  0.8428
 1977TIP3   OH227489   6.057   3.455   7.597  0.2638  0.0082  0.0155
 1977TIP3    H127490   6.089   3.433   7.509 -1.4574 -2.3014 -0.1316
 1977TIP3    H227491   6.096   3.388   7.653  0.2384  0.6377  0.7935
 1978TIP3   OH227492   6.710   3.675   8.501  0.6546  0.5085 -0.2805
 1978TIP3    H127493   6.657   3.672   8.581  2.0974  2.0267  0.7751
 1978TIP3    H227494   6.645   3.671   8.430 -0.7996  1.0898  0.9531
 1979TIP3   OH227495   2.236   1.777   1.009  0.1588  0.0761 -0.3445
 1979TIP3    H127496   2.331   1.769   1.008  0.1624  0.1799 -1.3764
 1979TIP3    H227497   2.219   1.858   1.058  0.6218  0.2895 -0.5346
 1980TIP3   OH227498   1.673   4.854   8.799  0.1880  0.5905  0.1922
 1980TIP3    H127499   1.738   4.821   8.861 -1.3260 -0.0625  1.5295
 1980TIP3    H227500   1.720   4.864   8.717  1.5933 -1.4619  0.6764
 1981TIP3   OH227501   0.262   5.680   7.578  0.1550 -0.2763  0.1328
 1981TIP3    H127502   0.219   5.608   7.625 -0.2243 -0.4977 -0.5423
 1981TIP3    H227503   0.213   5.688   7.496 -1.0153  1.9852  0.9449
 1982TIP3   OH227504   6.465   4.983   7.649  0.1662 -0.0422  0.3351
 1982TIP3    H127505   6.496   5.069   7.677 -2.1535  0.6214  1.0971
 1982TIP3    H227506   6.470   4.929   7.728 -1.7356  0.4543  0.8559
 1983TIP3   OH227507   2.804   5.565   8.260  0.0652  0.3555 -0.5556
 1983TIP3    H127508   2.883   5.582   8.208  0.7817  0.6075  0.5856
 1983TIP3    H227509   2.824   5.603   8.345 -0.9259 -0.4315  0.0336
 1984TIP3   OH227510   1.254   1.362   0.136 -0.0881 -0.4481 -0.0518
 1984TIP3    H127511   1.284   1.304   0.067  0.3778 -0.5269  0.2140
 1984TIP3    H227512   1.216   1.437   0.090 -0.5895 -0.9029 -0.3940
 1985TIP3   OH227513   0.185   0.807   6.983  0.0978 -0.0299 -0.1034
 1985TIP3    H127514   0.201   0.776   6.893  0.5270  0.5479 -0.2284
 1985TIP3    H227515   0.231   0.890   6.988  0.3297 -0.2041  0.7560
 1986TIP3   OH227516   3.491   1.608   2.197  0.5008 -0.0928  0.3089
 1986TIP3    H127517   3.436   1.594   2.120 -0.8390 -0.4949  1.2961
 1986TIP3    H227518   3.459   1.691   2.234  2.1876  0.9114 -0.4130
 1987TIP3   OH227519   5.706   2.975   1.465 -0.6825 -0.3446 -0.1749
 1987TIP3    H127520   5.750   3.049   1.506 -1.2473 -0.8307  1.3807
 1987TIP3    H227521   5.777   2.918   1.436 -0.2360  0.8929 -1.6391
 1988TIP3   OH227522   5.086   4.780   8.206  0.6440  0.3207  0.4812
 1988TIP3    H127523   5.054   4.690   8.205  0.5350  0.3524  0.8834
 1988TIP3    H227524   5.008   4.833   8.227  0.5789  0.5640 -0.3636
 1989TIP3   OH227525   1.120   2.406   0.209  0.1921  0.6683  0.3189
 1989TIP3    H127526   1.168   2.416   0.126  1.6758 -0.8063  0.9590
 1989TIP3    H227527   1.050   2.343   0.188  0.7039  0.1201  0.2292
 1990TIP3   OH227528   3.581   4.204   7.859  0.3343 -0.7512  0.3272
 1990TIP3    H127529   3.511   4.228   7.919 -0.1757 -0.2304 -0.4492
 1990TIP3    H227530   3.658   4.253   7.889  0.0611 -0.4321  0.5075
 1991TIP3   OH227531   5.705   6.741   0.368 -0.7215  0.1249  0.4810
 1991TIP3    H127532   5.657   6.813   0.408  0.8740  1.1933  0.5669
 1991TIP3    H227533   5.736   6.777   0.284 -0.5139 -0.6887  0.2012
 1992TIP3   OH227534   4.051   3.561   0.389 -0.2957  0.5897 -0.4814
 1992TIP3    H127535   3.987   3.591   0.453  1.8504 -0.6561  2.4438
 1992TIP3    H227536   4.109   3.635   0.376  0.8005  0.0548  1.1437
 1993TIP3   OH227537   5.464   5.936   1.100  0.8306 -0.0169 -0.0831
 1993TIP3    H127538   5.558   5.947   1.082  0.6361  0.0343 -1.1219
 1993TIP3    H227539   5.445   6.001   1.169  1.6490 -0.3582  0.4769
 1994TIP3   OH227540   3.123   1.576   8.235 -0.4002 -0.0783 -0.1442
 1994TIP3    H127541   3.195   1.514   8.221 -0.9751 -0.2535 -3.0421
 1994TIP3    H227542   3.044   1.522   8.238 -0.6700  0.3168  0.0646
 1995TIP3   OH227543   6.238   0.383   1.525 -0.1881  0.0546 -0.3097
 1995TIP3    H127544   6.227   0.437   1.446  0.6307 -1.7503 -1.7318
 1995TIP3    H227545   6.208   0.296   1.499  0.6521 -0.7339  1.2008
 1996TIP3   OH227546   4.973   4.058   6.343 -0.6415  0.8623 -0.0014
 1996TIP3    H127547   5.048   4.019   6.388  0.2267 -0.4782 -2.3802
 1996TIP3    H227548   4.896   4.017   6.383  0.1243 -0.8743 -0.2056
 1997TIP3   OH227549   5.795   3.652   7.859  0.2913  0.3857 -0.2400
 1997TIP3    H127550   5.832   3.652   7.770 -2.2599  0.9395 -1.3920
 1997TIP3    H227551   5.765   3.742   7.872  0.0357  0.1367  0.9365
 1998TIP3   OH227552   6.210   1.098   1.408 -0.2385 -0.6066 -0.0380
 1998TIP3    H127553   6.142   1.051   1.360 -0.1859 -0.8824  0.1556
 1998TIP3    H227554   6.286   1.095   1.350 -0.5524  0.2263 -0.5223
 1999TIP3   OH227555   4.812   2.132   8.111  0.4657 -0.2546 -0.4426
 1999TIP3    H127556   4.848   2.051   8.149 -0.2656 -0.2825  0.2047
 1999TIP3    H227557   4.886   2.192   8.109  1.2065 -1.1497 -1.5864
 2000TIP3   OH227558   0.816   2.209   8.486 -0.3020  0.2808 -0.4271
 2000TIP3    H127559   0.897   2.254   8.513 -0.2679 -0.3606  0.6059
 2000TIP3    H227560   0.844   2.149   8.417  0.3941 -0.9038  0.8301
 2001TIP3   OH227561   0.168   0.620   0.364  0.4665  0.3247 -0.0020
 2001TIP3    H127562   0.257   0.610   0.329 -0.2892 -0.1167 -1.9695
 2001TIP3    H227563   0.131   0.693   0.314 -0.6865 -0.3314 -0.1433
 2002TIP3   OH227564   2.329   3.169   8.965  0.8289 -0.3815 -0.0831
 2002TIP3    H127565   2.272   3.212   8.901  1.3186  0.0620 -0.2287
 2002TIP3    H227566   2.400   3.132   8.914  0.3004 -1.5659  0.0239
 2003TIP3   OH227567   3.484   3.460   7.452  0.2670  0.6325 -0.1822
 2003TIP3    H127568   3.435   3.387   7.490 -1.0298  0.7554 -1.5268
 2003TIP3    H227569   3.460   3.536   7.506 -0.8244  0.6345 -0.6532
 2004TIP3   OH227570   5.710   3.943   1.519 -0.1378 -0.6178  0.4643
 2004TIP3    H127571   5.642   3.949   1.586 -0.2353 -1.7729  0.4813
 2004TIP3    H227572   5.681   3.873   1.460 -0.3155  0.7074 -1.0983
 2005TIP3   OH227573   6.229   2.026   1.202 -0.4278  0.1726 -0.1371
 2005TIP3    H127574   6.276   1.951   1.167 -1.0815 -0.5698  0.5400
 2005TIP3    H227575   6.292   2.098   1.198  0.5534 -0.6534  0.1805
 2006TIP3   OH227576   3.913   3.501   2.070  0.5818  0.4078 -0.0270
 2006TIP3    H127577   3.945   3.501   1.980  1.2313 -0.2624  0.1977
 2006TIP3    H227578   3.895   3.409   2.090  3.6870  0.0211  1.6380
 2007TIP3   OH227579   5.210   3.641   8.565  0.0728 -0.4246  0.2891
 2007TIP3    H127580   5.254   3.684   8.491  1.0509  1.8571  2.0791
 2007TIP3    H227581   5.134   3.598   8.525 -0.1795  1.8055 -1.9005
 2008TIP3   OH227582   3.214   2.582   1.903  0.0672 -0.3233 -0.1310
 2008TIP3    H127583   3.273   2.510   1.881  0.5061 -0.0630  0.1925
 2008TIP3    H227584   3.181   2.561   1.990 -1.0798 -0.9626 -0.6966
 2009TIP3   OH227585   1.610   6.415   0.706 -0.3812 -0.5291  0.0082
 2009TIP3    H127586   1.538   6.456   0.658  2.0132  2.3193 -1.4846
 2009TIP3    H227587   1.580   6.412   0.797 -1.8769  1.8033 -0.3361
 2010TIP3   OH227588   5.857   0.322   8.493  0.4377 -0.6273  0.2225
 2010TIP3    H127589   5.904   0.404   8.508 -0.1508 -0.1278 -0.6255
 2010TIP3    H227590   5.771   0.349   8.462  1.0685 -1.5440 -2.6405
 2011TIP3   OH227591   1.290   4.520   0.236  0.4739  0.2985 -1.0234
 2011TIP3    H127592   1.232   4.476   0.174  1.1145 -0.0309 -1.3924
 2011TIP3    H227593   1.234   4.537   0.312 -0.3691  0.8636 -1.7436
 2012TIP3   OH227594   0.759   4.994   7.478 -0.0441  0.0730  0.1584
 2012TIP3    H127595   0.827   5.052   7.514  0.3603  0.0516 -0.5394
 2012TIP3    H227596   0.807   4.916   7.450 -0.4249 -0.1297  0.0756
 2013TIP3   OH227597   2.594   4.341   7.451  0.1234 -0.4154 -0.6386
 2013TIP3    H127598   2.558   4.315   7.366  0.0878 -0.6752 -0.5452
 2013TIP3    H227599   2.670   4.395   7.430 -0.3936  0.2414 -0.8387
 2014TIP3   OH227600   5.438   0.229   1.317  0.2861 -0.1071  0.0203
 2014TIP3    H127601   5.390   0.156   1.278 -0.9176  0.7462 -0.1105
 2014TIP3    H227602   5.501   0.254   1.250  2.2369 -2.3748  0.8449
 2015TIP3   OH227603   5.686   5.965   2.248 -0.3556 -0.0814 -0.1381
 2015TIP3    H127604   5.682   6.055   2.280 -1.0197 -0.3757  0.6611
 2015TIP3    H227605   5.768   5.931   2.283  0.0385  0.2952 -0.6856
 2016TIP3   OH227606   3.402   0.709   7.806 -0.3409 -0.1976 -0.4074
 2016TIP3    H127607   3.318   0.687   7.767 -1.5537  2.9794  0.1463
 2016TIP3    H227608   3.406   0.657   7.886 -2.3497  0.3781  0.1244
 2017TIP3   OH227609   1.716   1.171   1.486 -0.2649  0.1233  0.3392
 2017TIP3    H127610   1.652   1.139   1.551 -1.1079 -0.7525 -0.8657
 2017TIP3    H227611   1.765   1.239   1.532 -0.7411 -0.5593  1.9326
 2018TIP3   OH227612   4.025   5.463   2.562  0.0555  0.7548 -0.0545
 2018TIP3    H127613   4.112   5.425   2.561  0.0111  0.6619 -0.8174
 2018TIP3    H227614   4.033   5.542   2.616 -0.1991 -1.0852  2.9099
 2019TIP3   OH227615   0.388   6.740   0.642  0.1251  0.3604 -0.4384
 2019TIP3    H127616   0.365   6.779   0.726 -0.6508  0.2625 -0.6007
 2019TIP3    H227617   0.396   6.646   0.660 -1.8584  0.0867 -0.8300
 2020TIP3   OH227618   0.834   6.636   1.468 -0.2770 -0.0282 -0.0803
 2020TIP3    H127619   0.852   6.671   1.381 -1.8636 -0.0008 -0.4285
 2020TIP3    H227620   0.769   6.696   1.505 -1.6377 -1.4897  0.0437
 2021TIP3   OH227621   0.502   1.019   1.595 -0.0330  0.2664  0.0289
 2021TIP3    H127622   0.578   0.961   1.598  0.7965  1.3483  1.7508
 2021TIP3    H227623   0.442   0.978   1.533  1.2255 -1.5302 -0.0604
 2022TIP3   OH227624   1.134   2.226   1.074 -0.4185  1.0355 -0.5825
 2022TIP3    H127625   1.220   2.245   1.114  0.0925 -2.3170  0.1884
 2022TIP3    H227626   1.154   2.207   0.983  0.0100 -1.4239 -0.0358
 2023TIP3   OH227627   2.802   3.934   1.590  0.1324 -0.3570  0.0622
 2023TIP3    H127628   2.866   3.869   1.619  0.2942 -0.9709 -1.5636
 2023TIP3    H227629   2.842   3.973   1.511 -1.4407 -0.6835 -0.9319
 2024TIP3   OH227630   6.272   2.562   6.410 -0.2093  0.5315 -0.0743
 2024TIP3    H127631   6.360   2.599   6.420 -0.3554  1.5277 -1.9084
 2024TIP3    H227632   6.225   2.628   6.359 -1.6861 -0.4830 -0.0712
 2025TIP3   OH227633   1.607   2.587   1.566  0.3239  0.4309  0.3084
 2025TIP3    H127634   1.582   2.567   1.656 -0.0956 -0.4826 -0.0113
 2025TIP3    H227635   1.695   2.549   1.557  0.4326  0.6622  0.3748
 2026TIP3   OH227636   4.200   2.194   0.084 -0.0892  0.3010  0.1572
 2026TIP3    H127637   4.262   2.153   0.025 -0.7388  0.6433 -0.7926
 2026TIP3    H227638   4.138   2.125   0.107  2.2958 -0.9958  3.6898
 2027TIP3   OH227639   5.326   3.838   8.400 -0.4753 -0.2585  0.4522
 2027TIP3    H127640   5.421   3.847   8.387 -0.7353  0.6930 -0.9383
 2027TIP3    H227641   5.296   3.926   8.424 -1.0800 -0.4586  0.4439
 2028TIP3   OH227642   2.946   3.036   1.732  0.7021  0.3839  0.0799
 2028TIP3    H127643   2.964   2.954   1.777  2.7239  1.6218  1.7029
 2028TIP3    H227644   3.000   3.032   1.653 -2.3120 -1.4831 -2.1073
 2029TIP3   OH227645   3.239   1.649   2.459 -0.3409 -0.6472 -0.2680
 2029TIP3    H127646   3.308   1.701   2.418  0.4661  0.3061  2.1186
 2029TIP3    H227647   3.283   1.567   2.483 -0.4771 -0.7050 -0.2171
 2030TIP3   OH227648   0.377   2.762   7.494 -0.0176 -0.1207  0.2997
 2030TIP3    H127649   0.464   2.799   7.475 -0.3480  0.0654 -0.9148
 2030TIP3    H227650   0.320   2.839   7.500 -0.1870 -0.2722  0.6693
 2031TIP3   OH227651   5.128   1.263   0.862  0.4114  0.1972 -0.6918
 2031TIP3    H127652   5.091   1.178   0.841 -0.8656  0.1112  1.5582
 2031TIP3    H227653   5.207   1.243   0.913  1.8580  0.4172 -2.7012
 2032TIP3   OH227654   4.825   1.981   1.947  0.4022  0.1778 -0.3217
 2032TIP3    H127655   4.858   1.905   1.996 -1.4578 -0.1558  0.5000
 2032TIP3    H227656   4.882   2.053   1.973  0.4004 -0.3296  1.1959
 2033TIP3   OH227657   1.105   2.614   1.129  0.0196 -0.9600 -0.0468
 2033TIP3    H127658   1.198   2.600   1.144  0.0089 -0.4244  0.5508
 2033TIP3    H227659   1.095   2.606   1.034  0.6743 -1.0000 -0.1182
 2034TIP3   OH227660   3.753   0.720   2.329  0.5204 -0.4267  1.1848
 2034TIP3    H127661   3.748   0.769   2.411  1.1146  0.8729  0.4823
 2034TIP3    H227662   3.796   0.638   2.353  0.4130 -0.2010  2.2214
 2035TIP3   OH227663   5.924   5.960   0.614 -0.5918 -0.0393  0.1777
 2035TIP3    H127664   5.930   6.053   0.591 -0.3599  0.1278  0.8930
 2035TIP3    H227665   5.962   5.914   0.539 -0.6076  0.4469 -0.1318
 2036TIP3   OH227666   2.249   6.346   0.242 -0.5755  0.0083 -0.1153
 2036TIP3    H127667   2.198   6.394   0.177  0.7097  1.8785  0.1873
 2036TIP3    H227668   2.218   6.378   0.327  1.1859  1.3858  0.0726
 2037TIP3   OH227669   5.968   3.653   2.233 -0.1655 -0.2355  0.6177
 2037TIP3    H127670   5.917   3.668   2.312 -1.1027 -0.5019  0.0696
 2037TIP3    H227671   5.915   3.593   2.180  0.8860 -0.8373  0.2091
 2038TIP3   OH227672   3.478   1.909   8.821 -0.0195  0.0754 -0.4047
 2038TIP3    H127673   3.525   1.906   8.905  0.1264 -1.5567 -0.5031
 2038TIP3    H227674   3.540   1.872   8.758 -1.3427 -2.0678 -0.5474
 2039TIP3   OH227675   4.320   3.003   7.889 -0.2434  0.0049 -0.2440
 2039TIP3    H127676   4.407   2.965   7.874 -0.5344 -0.4539 -0.8169
 2039TIP3    H227677   4.333   3.067   7.959  0.5473 -0.0925 -0.2968
 2040TIP3   OH227678   5.809   2.566   8.126  0.2100 -0.3289  0.3028
 2040TIP3    H127679   5.823   2.471   8.120  0.0002 -0.2622 -2.3063
 2040TIP3    H227680   5.726   2.581   8.080  0.4167  1.1488  0.3773
 2041TIP3   OH227681   4.890   4.975   8.923  0.5702  0.3979  0.4132
 2041TIP3    H127682   4.851   4.923   8.994 -1.7032  2.7880  1.1081
 2041TIP3    H227683   4.950   4.915   8.879 -1.3168 -2.5717  1.5376
 2042TIP3   OH227684   0.483   1.212   1.948  0.2519 -0.2395 -0.1653
 2042TIP3    H127685   0.440   1.131   1.924  1.3469 -1.2452  1.1353
 2042TIP3    H227686   0.452   1.231   2.037 -1.7583  2.0450 -1.2297
 2043TIP3   OH227687   3.840   3.607   0.589 -0.1590 -0.0481 -0.0251
 2043TIP3    H127688   3.838   3.670   0.517 -4.2262 -1.1899 -1.1881
 2043TIP3    H227689   3.787   3.647   0.658  1.5226 -0.1062  1.3841
 2044TIP3   OH227690   4.923   3.168   8.805 -0.3384  0.3634 -0.0223
 2044TIP3    H127691   4.858   3.174   8.875  0.4028 -1.4954  0.9010
 2044TIP3    H227692   5.007   3.178   8.849  0.0740  1.1490 -0.9570
 2045TIP3   OH227693   0.424   6.369   1.576 -0.1439  0.3710  0.1211
 2045TIP3    H127694   0.359   6.409   1.518 -1.0192  1.2581  1.6524
 2045TIP3    H227695   0.392   6.386   1.664  2.1011  0.7421  0.9464
 2046TIP3   OH227696   0.208   2.845   6.144  0.2995  0.1324 -0.4481
 2046TIP3    H127697   0.251   2.884   6.220  0.9042  0.2823 -0.8577
 2046TIP3    H227698   0.122   2.886   6.141  0.6144  0.8111 -0.3822
 2047TIP3   OH227699   5.993   2.813   2.366  0.0307 -0.6026  0.2239
 2047TIP3    H127700   5.998   2.805   2.462 -0.6962 -0.5604  0.2691
 2047TIP3    H227701   5.970   2.725   2.336  4.6634 -1.8982 -0.3098
 2048TIP3   OH227702   2.518   0.410   7.485 -0.8185  0.0727  0.0212
 2048TIP3    H127703   2.567   0.328   7.493  0.1755  0.7623  1.3643
 2048TIP3    H227704   2.426   0.383   7.490 -0.5069 -0.9531  0.4987
 2049TIP3   OH227705   0.212   0.163   7.638 -0.1005  0.1440  0.0583
 2049TIP3    H127706   0.169   0.101   7.578  2.0996 -0.7418 -0.7268
 2049TIP3    H227707   0.256   0.225   7.580 -0.3626  1.0640  0.8280
 2050TIP3   OH227708   1.629   2.720   8.015 -0.0919  0.0522 -0.2123
 2050TIP3    H127709   1.534   2.714   8.007 -0.1100  0.6410 -0.5007
 2050TIP3    H227710   1.651   2.806   7.979  0.3559  0.7080  1.5090
 2051TIP3   OH227711   5.838   6.621   8.148  0.2619 -0.0820  0.9281
 2051TIP3    H127712   5.878   6.567   8.080  0.5846 -2.4963  2.8733
 2051TIP3    H227713   5.910   6.671   8.185  0.4764 -0.3525  0.8794
 2052TIP3   OH227714   6.251   6.181   7.585  0.7881 -0.1938 -0.3514
 2052TIP3    H127715   6.221   6.207   7.498 -0.0024  0.6730  0.1680
 2052TIP3    H227716   6.326   6.238   7.602  0.0728  0.6336  0.1034
 2053TIP3   OH227717   6.115   1.641   8.778  0.4061  0.0495  0.0877
 2053TIP3    H127718   6.199   1.601   8.800 -0.1124 -1.4760 -0.5498
 2053TIP3    H227719   6.126   1.670   8.688  0.5084  0.6167  0.2793
 2054TIP3   OH227720   3.777   3.640   7.671 -0.0574  0.5495  0.4482
 2054TIP3    H127721   3.724   3.708   7.629 -0.2577  0.4800  0.5856
 2054TIP3    H227722   3.773   3.662   7.764  1.1965  1.2836  0.3538
 2055TIP3   OH227723   0.182   4.869   0.655  0.4108 -0.0974 -0.8111
 2055TIP3    H127724   0.271   4.835   0.663 -0.0993 -1.5334 -0.7852
 2055TIP3    H227725   0.191   4.951   0.607  1.9708  0.9560  1.1543
 2056TIP3   OH227726   4.557   3.368   8.327 -0.1889 -0.2426  0.0707
 2056TIP3    H127727   4.607   3.440   8.366 -1.2965 -0.7034  2.5713
 2056TIP3    H227728   4.506   3.409   8.257  0.2637  1.1442  0.5112
 2057TIP3   OH227729   6.406   0.189   8.822  0.0815 -0.3968  0.0566
 2057TIP3    H127730   6.416   0.239   8.741 -0.6204 -0.5644 -0.1422
 2057TIP3    H227731   6.314   0.162   8.822 -0.2010  0.4452  1.3971
 2058TIP3   OH227732   0.287   3.802   8.193  0.0192 -0.2561 -0.2371
 2058TIP3    H127733   0.338   3.738   8.143  0.6317 -1.0489  1.3234
 2058TIP3    H227734   0.304   3.886   8.150  2.4171 -0.5364  0.0231
 2059TIP3   OH227735   1.654   0.558   8.782  0.2051 -0.4549  0.1363
 2059TIP3    H127736   1.688   0.542   8.693 -1.4539 -1.1735 -0.4004
 2059TIP3    H227737   1.686   0.645   8.804  1.7953 -0.8088 -0.6028
 2060TIP3   OH227738   3.145   0.392   7.599  0.0660  0.9752  0.1629
 2060TIP3    H127739   3.133   0.417   7.507 -2.3371  2.1363  0.7026
 2060TIP3    H227740   3.239   0.399   7.614  0.4843  0.9755 -2.1357
 2061TIP3   OH227741   1.238   5.841   1.316  0.1216 -0.0304 -0.5817
 2061TIP3    H127742   1.228   5.881   1.230  2.8449 -0.7072 -1.3020
 2061TIP3    H227743   1.284   5.759   1.299 -0.1193 -0.6345  1.4440
 2062TIP3   OH227744   3.394   1.923   0.996  0.1258  0.5940  0.2614
 2062TIP3    H127745   3.436   2.009   1.004  1.3096  0.1069 -0.4475
 2062TIP3    H227746   3.384   1.910   0.902  0.8611 -0.4409  0.3045
 2063TIP3   OH227747   0.310   3.636   8.792  0.2908 -0.9934  0.5384
 2063TIP3    H127748   0.357   3.556   8.768  1.1485  0.3133 -2.6502
 2063TIP3    H227749   0.237   3.641   8.730  0.1965  0.6411  0.7396
 2064TIP3   OH227750   1.742   2.758   0.561 -0.4796  0.0156 -0.0292
 2064TIP3    H127751   1.820   2.705   0.580 -0.5268  0.3972  1.2504
 2064TIP3    H227752   1.723   2.738   0.469  3.1349  2.4891 -1.5540
 2065TIP3   OH227753   2.485   4.873   7.308 -0.5589 -0.4550  0.1786
 2065TIP3    H127754   2.519   4.900   7.393 -3.2936  0.0902  1.2012
 2065TIP3    H227755   2.556   4.823   7.268  0.7642 -0.8577  2.8345
 2066TIP3   OH227756   0.750   5.154   1.944 -0.4308  0.5570  0.5751
 2066TIP3    H127757   0.728   5.137   1.852 -0.7663 -0.0562  0.7658
 2066TIP3    H227758   0.684   5.216   1.973 -0.5885  0.4135  0.5257
 2067TIP3   OH227759   1.290   6.657   0.887  0.3002 -0.3493  0.3680
 2067TIP3    H127760   1.358   6.608   0.934 -0.1018  0.7771  2.2326
 2067TIP3    H227761   1.212   6.603   0.896  0.3089 -0.3108  0.6967
 2068TIP3   OH227762   0.391   5.100   2.349  0.5239 -0.0521 -0.2506
 2068TIP3    H127763   0.417   5.165   2.414  0.0474 -0.2739  0.1718
 2068TIP3    H227764   0.446   5.024   2.368  1.4825  0.3963 -1.1012
 2069TIP3   OH227765   3.877   4.077   0.836  0.4086 -0.2635 -0.3956
 2069TIP3    H127766   3.900   4.108   0.923  0.0184 -0.2354 -0.3020
 2069TIP3    H227767   3.829   4.150   0.796 -1.6020 -1.1491  0.2654
 2070TIP3   OH227768   1.944   3.154   8.809  0.1381 -0.1110  0.6040
 2070TIP3    H127769   1.915   3.128   8.897 -1.4211  1.2823  0.5588
 2070TIP3    H227770   1.994   3.079   8.777  0.7495 -0.6433  2.6708
 2071TIP3   OH227771   0.595   1.465   8.653 -0.6891  1.1464  0.3868
 2071TIP3    H127772   0.527   1.466   8.586  0.4473  1.7427 -0.7912
 2071TIP3    H227773   0.563   1.403   8.719 -2.1674  1.1015 -0.3295
 2072TIP3   OH227774   4.806   4.531   6.636  0.5014  0.3734 -0.6126
 2072TIP3    H127775   4.780   4.453   6.587  0.0832  0.9334 -1.2995
 2072TIP3    H227776   4.725   4.580   6.647  0.7538  0.6932 -0.1368
 2073TIP3   OH227777   6.327   6.113   0.736 -0.3109  0.2344 -0.5976
 2073TIP3    H127778   6.375   6.183   0.781 -1.2935  0.6121 -0.1173
 2073TIP3    H227779   6.390   6.040   0.733  0.5832  0.9916 -0.7500
 2074TIP3   OH227780   4.323   4.740   2.635 -0.0594  0.9971  0.3889
 2074TIP3    H127781   4.396   4.763   2.692 -0.8065 -0.0490  1.8166
 2074TIP3    H227782   4.259   4.810   2.649  0.1301  1.2178  0.1479
 2075TIP3   OH227783   5.270   3.468   6.512  0.3209 -0.2573  0.2229
 2075TIP3    H127784   5.227   3.426   6.437  0.1624  0.1420  0.0800
 2075TIP3    H227785   5.273   3.561   6.487  0.4447 -0.1519  0.6296
 2076TIP3   OH227786   3.831   4.739   7.526 -0.6388  0.0276  0.6227
 2076TIP3    H127787   3.825   4.646   7.548 -1.3058 -0.3189 -0.8637
 2076TIP3    H227788   3.766   4.751   7.457 -0.4168  1.5604  0.6514
 2077TIP3   OH227789   5.247   3.310   1.530 -0.4867  0.9239 -0.4383
 2077TIP3    H127790   5.204   3.374   1.472  0.4286  0.4210 -1.7205
 2077TIP3    H227791   5.335   3.301   1.494 -0.9004 -1.8339 -0.9719
 2078TIP3   OH227792   5.033   6.473   7.320  0.4191  0.6195 -0.2984
 2078TIP3    H127793   5.103   6.452   7.383 -0.7669 -0.4927  0.7236
 2078TIP3    H227794   5.007   6.563   7.341 -1.0080 -0.2182  1.9578
 2079TIP3   OH227795   6.147   6.291   7.315 -0.2154 -0.5173 -0.1072
 2079TIP3    H127796   6.081   6.342   7.361 -0.7476 -1.1340 -0.1604
 2079TIP3    H227797   6.182   6.350   7.248  0.8955  0.5506  1.3327
 2080TIP3   OH227798   3.043   3.159   1.067  0.2230  0.0488 -0.2331
 2080TIP3    H127799   3.002   3.113   0.993  0.3207  1.1421 -0.9899
 2080TIP3    H227800   3.070   3.243   1.031  0.5288  0.4972  0.9941
 2081TIP3   OH227801   5.225   4.257   1.888  0.5036  0.2854 -0.4609
 2081TIP3    H127802   5.282   4.223   1.957  0.1754 -1.0128 -0.7954
 2081TIP3    H227803   5.136   4.246   1.922  0.3548 -0.0510 -0.9397
 2082TIP3   OH227804   4.390   5.779   0.095 -0.3737  0.2195  0.2282
 2082TIP3    H127805   4.421   5.830   0.019  1.1519 -1.6995 -0.5346
 2082TIP3    H227806   4.295   5.774   0.084 -0.0817 -1.3361 -2.5280
 2083TIP3   OH227807   3.434   1.512   0.659  0.2115  0.0924 -0.5950
 2083TIP3    H127808   3.491   1.584   0.632  1.1084 -0.6149 -0.6185
 2083TIP3    H227809   3.358   1.555   0.698  0.8464  1.0460 -0.3826
 2084TIP3   OH227810   3.662   1.793   7.845 -0.0887  0.9618 -0.5309
 2084TIP3    H127811   3.724   1.827   7.781 -1.7497  0.0208 -2.7451
 2084TIP3    H227812   3.652   1.701   7.823  0.1693  0.2810  1.8998
 2085TIP3   OH227813   3.620   6.054   2.388 -0.8078 -0.3682 -0.0245
 2085TIP3    H127814   3.641   6.084   2.476  1.0039  0.1518 -0.5811
 2085TIP3    H227815   3.589   5.964   2.399  2.3742 -1.4777  0.9225
 2086TIP3   OH227816   1.251   5.921   0.821 -0.3287  0.1947 -0.7755
 2086TIP3    H127817   1.165   5.900   0.786 -1.1917 -0.7430  1.6545
 2086TIP3    H227818   1.276   5.843   0.871  0.3727  1.6908  1.3398
 2087TIP3   OH227819   1.451   4.999   7.321  0.2685 -0.0443  0.5353
 2087TIP3    H127820   1.543   5.013   7.299  0.1255  0.3289  0.1520
 2087TIP3    H227821   1.443   4.905   7.332  0.5626 -0.1496 -0.0730
 2088TIP3   OH227822   2.374   1.548   2.875  0.2327  0.2254 -0.3002
 2088TIP3    H127823   2.374   1.455   2.853  2.0700  0.1305 -0.0297
 2088TIP3    H227824   2.441   1.587   2.819  1.7178  0.7917  1.7566
 2089TIP3   OH227825   0.166   4.459   0.156 -0.8819  0.4211 -0.2852
 2089TIP3    H127826   0.182   4.443   0.063 -0.7207  0.6412 -0.2978
 2089TIP3    H227827   0.073   4.444   0.167 -1.0067  0.9262 -0.5976
 2090TIP3   OH227828   6.463   3.390   0.013 -0.1035  0.1975  0.4654
 2090TIP3    H127829   6.451   3.484   0.004 -1.2720  0.0414  0.2901
 2090TIP3    H227830   6.391   3.351  -0.036  0.6228 -0.8032  0.1554
 2091TIP3   OH227831   5.103   0.982   0.809 -0.4101 -0.2880 -0.2786
 2091TIP3    H127832   5.111   0.906   0.867 -0.1587 -1.3196 -1.6166
 2091TIP3    H227833   5.190   0.994   0.772  0.1013  1.9786  1.4498
 2092TIP3   OH227834   2.341   2.145   1.795 -0.1567  0.2546 -0.4905
 2092TIP3    H127835   2.415   2.090   1.769  0.1147  0.9308 -1.1693
 2092TIP3    H227836   2.275   2.083   1.827  1.5447 -0.2601  2.3823
 2093TIP3   OH227837   6.536   1.990   0.941 -0.1946 -0.3646 -0.1418
 2093TIP3    H127838   6.564   1.960   1.028 -0.3138  0.3363  0.1429
 2093TIP3    H227839   6.534   1.910   0.888 -0.8069 -0.9182  0.6856
 2094TIP3   OH227840   2.661   4.480   8.523 -0.3253  0.0222 -0.2476
 2094TIP3    H127841   2.594   4.498   8.589 -0.9112 -2.0878 -0.1943
 2094TIP3    H227842   2.719   4.556   8.527 -2.8497  2.1194 -0.5328
 2095TIP3   OH227843   2.833   0.952   6.762 -0.1123  0.0623 -0.0617
 2095TIP3    H127844   2.780   0.938   6.684  1.4496  0.7149 -1.2755
 2095TIP3    H227845   2.809   1.040   6.791 -1.7056 -0.6827  1.0626
 2096TIP3   OH227846   5.492   0.409   8.098 -0.1511 -0.0961  0.4639
 2096TIP3    H127847   5.464   0.496   8.126  1.6670  0.6705  0.0341
 2096TIP3    H227848   5.521   0.421   8.008  0.5291 -1.0580  0.5448
 2097TIP3   OH227849   0.629   3.544   6.601 -0.1774  0.2510 -0.2223
 2097TIP3    H127850   0.607   3.578   6.514 -1.3359  1.3721  0.4725
 2097TIP3    H227851   0.634   3.622   6.656 -0.0705 -0.4957  0.8547
 2098TIP3   OH227852   1.451   6.088   8.616  0.1143  0.0802 -0.2669
 2098TIP3    H127853   1.407   6.130   8.690 -1.5170  0.1772 -1.2610
 2098TIP3    H227854   1.416   6.133   8.539  1.6923 -0.1007 -1.1269
 2099TIP3   OH227855   2.749   2.157   0.159 -0.3453  0.1450 -0.1295
 2099TIP3    H127856   2.843   2.175   0.149 -0.2842 -0.2108 -0.2149
 2099TIP3    H227857   2.706   2.220   0.101 -0.0491 -1.2519 -1.9697
 2100TIP3   OH227858   4.092   4.239   6.561  0.2853 -0.0669  0.0820
 2100TIP3    H127859   4.035   4.258   6.486  0.7106 -0.5813 -0.3802
 2100TIP3    H227860   4.044   4.273   6.637  0.7080  2.2619 -0.6150
 2101TIP3   OH227861   6.013   2.219   7.133  0.5025  0.3638  0.4183
 2101TIP3    H127862   5.986   2.246   7.221 -0.7313  2.3415 -0.5093
 2101TIP3    H227863   5.952   2.148   7.111  0.1582  0.5483  0.7638
 2102TIP3   OH227864   5.822   1.084   2.574  0.1676  0.0249  0.2777
 2102TIP3    H127865   5.778   1.048   2.498 -0.4733 -1.0290  1.1328
 2102TIP3    H227866   5.891   1.021   2.595 -0.2094 -0.1467  1.0712
 2103TIP3   OH227867   5.593   4.897   2.004  0.1127  0.0841  0.1310
 2103TIP3    H127868   5.615   4.942   2.085  0.3442 -0.3116  0.2866
 2103TIP3    H227869   5.501   4.873   2.014  0.2527 -0.3186  0.4390
 2104TIP3   OH227870   1.896   4.244   0.177 -0.5459 -0.2129 -0.1549
 2104TIP3    H127871   1.855   4.161   0.202  1.3950 -1.7222 -1.5506
 2104TIP3    H227872   1.832   4.311   0.200 -2.2005 -2.0834  1.0601
 2105TIP3   OH227873   5.849   4.548   6.838 -0.3172 -0.5531  0.5804
 2105TIP3    H127874   5.828   4.580   6.926  0.1533  0.8289  0.2266
 2105TIP3    H227875   5.935   4.507   6.848 -0.3638 -0.5946  0.8183
 2106TIP3   OH227876   4.488   0.844   0.746  0.0410  0.5470 -0.0297
 2106TIP3    H127877   4.550   0.898   0.795  0.5307  0.3402 -0.4142
 2106TIP3    H227878   4.465   0.773   0.807 -1.7453  1.9423  1.0272
 2107TIP3   OH227879   4.400   1.837   0.510  0.4193  0.5826  0.2618
 2107TIP3    H127880   4.341   1.873   0.443  0.9942  0.4736 -0.3075
 2107TIP3    H227881   4.346   1.835   0.590 -0.9850 -1.3017 -0.6550
 2108TIP3   OH227882   3.620   1.194   2.079  0.0183  0.1707  0.1351
 2108TIP3    H127883   3.699   1.239   2.051  0.4377 -0.1638  0.7728
 2108TIP3    H227884   3.561   1.200   2.003  0.9407 -0.2883 -0.6455
 2109TIP3   OH227885   2.639   1.575   0.396 -0.0532  0.3461  0.2287
 2109TIP3    H127886   2.648   1.569   0.491  1.3797  0.2159  0.1018
 2109TIP3    H227887   2.685   1.499   0.362 -0.4439  0.4607 -0.5858
 2110TIP3   OH227888   2.305   0.853   0.097  0.0607 -0.4443 -0.1604
 2110TIP3    H127889   2.289   0.782   0.159  1.7106 -0.2519  0.5583
 2110TIP3    H227890   2.313   0.931   0.152  0.6510 -0.1189 -0.6972
 2111TIP3   OH227891   3.924   2.766   7.142 -0.0274  0.4982 -0.6213
 2111TIP3    H127892   4.014   2.740   7.123 -0.9466 -1.3849 -2.8999
 2111TIP3    H227893   3.913   2.751   7.236  1.8140  0.1098 -0.4392
 2112TIP3   OH227894   5.957   6.428   7.484 -0.0007  0.0549  0.1042
 2112TIP3    H127895   6.022   6.494   7.458  1.1442 -1.2930 -0.5557
 2112TIP3    H227896   5.937   6.450   7.575  1.9515  0.0816  0.5870
 2113TIP3   OH227897   5.685   1.256   0.568  1.0187 -0.0881 -0.6079
 2113TIP3    H127898   5.718   1.217   0.649  1.1972 -0.4311 -0.8456
 2113TIP3    H227899   5.742   1.223   0.500  2.1619  1.8255 -0.6431
 2114TIP3   OH227900   5.634   5.756   7.550  1.2020  0.3312 -0.6955
 2114TIP3    H127901   5.677   5.725   7.471  0.6891  0.9940 -1.2496
 2114TIP3    H227902   5.644   5.852   7.547  2.0621  0.3095  0.5621
 2115TIP3   OH227903   0.787   5.256   8.121  0.6538  0.7415 -0.2213
 2115TIP3    H127904   0.850   5.278   8.052  2.9792 -1.9861  0.8110
 2115TIP3    H227905   0.798   5.326   8.186  2.2406  0.6689 -0.3656
 2116TIP3   OH227906   1.743   4.981   0.973 -0.2169 -0.1393 -0.0507
 2116TIP3    H127907   1.771   5.045   0.909 -0.3386 -0.6630 -0.6406
 2116TIP3    H227908   1.697   5.031   1.040  0.2752  0.4607 -0.1594
 2117TIP3   OH227909   4.309   5.345   8.301 -0.3613  0.5622 -0.0967
 2117TIP3    H127910   4.368   5.348   8.377 -0.0053 -1.2123 -0.2443
 2117TIP3    H227911   4.234   5.399   8.327 -0.7331 -0.8096  1.9896
 2118TIP3   OH227912   2.214   2.110   0.477  0.5431  0.2680  0.1063
 2118TIP3    H127913   2.276   2.086   0.546 -1.0405 -4.0717  0.3310
 2118TIP3    H227914   2.255   2.080   0.396  0.5958  1.4788 -0.3332
 2119TIP3   OH227915   5.856   2.666   0.702  0.4596 -0.2969 -0.1126
 2119TIP3    H127916   5.784   2.728   0.703 -0.1364 -0.9882  0.6019
 2119TIP3    H227917   5.908   2.688   0.779  0.8230 -0.0421 -0.4211
 2120TIP3   OH227918   4.992   2.752   8.701 -0.6132  0.6998 -0.3297
 2120TIP3    H127919   4.920   2.805   8.667 -0.4244  1.8856  1.0558
 2120TIP3    H227920   4.994   2.770   8.795  0.9838  0.0669 -0.2081
 2121TIP3   OH227921   3.758   4.284   0.701 -0.2424 -0.0038 -0.4662
 2121TIP3    H127922   3.732   4.249   0.615  1.5647 -0.4716 -0.8796
 2121TIP3    H227923   3.823   4.351   0.681  1.7047 -1.4950  0.5597
 2122TIP3   OH227924   6.642   1.173   7.813  0.2776  0.1829  0.0405
 2122TIP3    H127925   6.643   1.090   7.862  1.1587  0.4710  0.5126
 2122TIP3    H227926   6.549   1.195   7.807  0.0888 -0.4075  0.6501
 2123TIP3   OH227927   1.337   4.308   1.971 -0.4992  0.3613 -0.3436
 2123TIP3    H127928   1.324   4.378   1.907 -2.2072  0.6352  0.2462
 2123TIP3    H227929   1.393   4.348   2.038 -1.9010  1.3830  0.2599
 2124TIP3   OH227930   1.475   1.448   0.890 -0.1288 -0.4996 -0.4238
 2124TIP3    H127931   1.425   1.392   0.949 -0.9425 -0.4233 -1.0302
 2124TIP3    H227932   1.482   1.531   0.936  0.2743 -0.8074  0.0756
 2125TIP3   OH227933   0.381   0.585   0.704  0.0676  0.7020 -0.5120
 2125TIP3    H127934   0.310   0.532   0.741 -0.3256  1.5840  0.0158
 2125TIP3    H227935   0.404   0.540   0.622 -0.2560 -0.2785 -0.0846
 2126TIP3   OH227936   4.656   3.330   7.343 -1.0338  0.4138  0.0413
 2126TIP3    H127937   4.713   3.373   7.407  1.9200 -1.9791 -0.7416
 2126TIP3    H227938   4.586   3.291   7.396 -0.1762  0.7278  1.4642
 2127TIP3   OH227939   3.656   1.223   1.511  0.7134  0.2765 -0.2439
 2127TIP3    H127940   3.604   1.230   1.430 -1.4075  0.8285  1.0671
 2127TIP3    H227941   3.617   1.149   1.557  1.1099  0.6884  0.7719
 2128TIP3   OH227942   0.818   5.744   1.230 -0.4340  0.4409  0.6743
 2128TIP3    H127943   0.867   5.826   1.220 -0.4607  0.3374 -0.3558
 2128TIP3    H227944   0.726   5.771   1.233 -0.3721  0.5732  1.9073
 2129TIP3   OH227945   3.082   2.492   0.247  0.2794 -0.7268  0.2056
 2129TIP3    H127946   3.068   2.475   0.340  0.7540  2.5187  0.9817
 2129TIP3    H227947   3.155   2.555   0.245  0.9239 -1.4248 -2.4454
 2130TIP3   OH227948   2.828   1.955   8.122  0.3259  0.2903  0.0257
 2130TIP3    H127949   2.889   1.997   8.061 -1.3135  0.6990 -1.4007
 2130TIP3    H227950   2.789   2.029   8.170  0.1650  0.1112  0.1701
 2131TIP3   OH227951   6.701   4.330   7.371  0.2223  0.2027 -0.3899
 2131TIP3    H127952   6.730   4.241   7.351 -0.1840 -0.1473  0.5132
 2131TIP3    H227953   6.777   4.385   7.352  1.5700 -0.6990  1.9182
 2132TIP3   OH227954   1.482   0.108   0.950 -0.2910 -0.1088 -0.4361
 2132TIP3    H127955   1.445   0.039   0.894  1.4162 -0.5146 -1.1231
 2132TIP3    H227956   1.545   0.153   0.894 -0.0437  0.8424  0.5717
 2133TIP3   OH227957   4.585   6.285   1.135  0.1140 -0.1370  0.6289
 2133TIP3    H127958   4.506   6.271   1.082 -1.8593 -0.8097  3.5043
 2133TIP3    H227959   4.592   6.380   1.143  0.3757 -0.0257 -0.6391
 2134TIP3   OH227960   4.385   2.752   8.561 -0.5915  0.6185 -0.1648
 2134TIP3    H127961   4.421   2.834   8.526  0.2116  1.2593  2.0033
 2134TIP3    H227962   4.300   2.742   8.518 -0.2521  2.0419 -1.2286
 2135TIP3   OH227963   4.454   3.287   6.962 -0.0719  0.8320  0.6691
 2135TIP3    H127964   4.534   3.237   6.977 -0.7134 -0.1746  0.7925
 2135TIP3    H227965   4.433   3.273   6.870  0.2884  1.7026  0.4444
 2136TIP3   OH227966   6.314   1.582   7.900  0.4675 -0.0478  0.3629
 2136TIP3    H127967   6.342   1.672   7.885  1.9957 -0.2242  1.8532
 2136TIP3    H227968   6.223   1.590   7.931  0.8173  1.0590  1.1650
 2137TIP3   OH227969   5.506   4.518   2.394 -0.0329  0.0496 -0.2101
 2137TIP3    H127970   5.419   4.484   2.371  0.2923 -0.4767 -0.6846
 2137TIP3    H227971   5.554   4.441   2.425  0.5668  0.1624 -0.8547
 2138TIP3   OH227972   4.908   4.886   6.776  0.2135  0.1409  0.1697
 2138TIP3    H127973   4.940   4.976   6.774  0.1951  0.1635 -2.8295
 2138TIP3    H227974   4.842   4.885   6.846  1.1650  2.0716  1.1520
 2139TIP3   OH227975   0.580   4.029   8.894 -0.7893  0.1970 -0.0021
 2139TIP3    H127976   0.586   4.096   8.826 -0.6513 -0.9997 -1.1971
 2139TIP3    H227977   0.594   3.946   8.848  0.1408 -0.5943  1.6021
 2140TIP3   OH227978   6.614   3.276   7.709  0.7031 -0.4590 -0.2302
 2140TIP3    H127979   6.548   3.314   7.651 -0.1524 -0.3881  0.7694
 2140TIP3    H227980   6.688   3.337   7.705  1.1187 -1.0116 -2.0799
 2141TIP3   OH227981   3.118   0.708   7.741  0.2017  0.0136  0.1734
 2141TIP3    H127982   3.085   0.728   7.654  1.5269 -2.2777 -0.9431
 2141TIP3    H227983   3.050   0.653   7.780 -0.6598  1.5037  0.8970
 2142TIP3   OH227984   0.757   5.249   6.758  0.0194 -0.0127 -0.2078
 2142TIP3    H127985   0.705   5.192   6.702  0.6658 -0.1782 -0.6558
 2142TIP3    H227986   0.695   5.282   6.823 -1.6487  2.9327 -2.9952
 2143TIP3   OH227987   0.324   6.010   6.418  0.3601 -0.4548 -0.0869
 2143TIP3    H127988   0.294   5.919   6.417 -1.0388 -0.0230  0.6591
 2143TIP3    H227989   0.391   6.014   6.350 -0.8496 -1.6178 -1.4050
 2144TIP3   OH227990   1.085   4.689   1.346  0.1164  0.4472 -0.2759
 2144TIP3    H127991   1.041   4.736   1.276 -1.1670 -1.3320 -0.7314
 2144TIP3    H227992   1.036   4.712   1.425 -0.7363 -0.3518 -0.5525
 2145TIP3   OH227993   5.683   1.472   1.558  0.3242  0.6918  0.0262
 2145TIP3    H127994   5.725   1.389   1.538  0.3315  0.3476  1.3862
 2145TIP3    H227995   5.746   1.520   1.611 -0.6967  0.4428  1.5317
 2146TIP3   OH227996   2.187   0.981   7.985  0.0104 -0.2637  0.4879
 2146TIP3    H127997   2.114   0.944   7.936  0.2979 -0.6933  0.3826
 2146TIP3    H227998   2.258   0.917   7.975  0.3325  0.0465  0.7669
 2147TIP3   OH227999   3.472   2.110   7.701  0.5925  0.3825 -0.0952
 2147TIP3    H128000   3.465   2.030   7.754  2.7937  0.3632  0.2272
 2147TIP3    H228001   3.381   2.129   7.676 -0.2349 -0.9967  1.6118
 2148TIP3   OH228002   4.252   3.289   1.126 -0.3346 -0.2678 -0.2164
 2148TIP3    H128003   4.184   3.313   1.189 -0.0743 -0.2667  0.0680
 2148TIP3    H228004   4.260   3.194   1.135 -0.0677 -0.2263 -0.0125
 2149TIP3   OH228005   3.587   3.533   1.152 -0.7366 -0.1518 -0.5164
 2149TIP3    H128006   3.614   3.483   1.229 -0.5621 -0.3862 -0.7274
 2149TIP3    H228007   3.636   3.615   1.158  1.3320 -1.2143 -1.7463
 2150TIP3   OH228008   2.770   3.303   1.409 -0.0077  0.6877  0.5901
 2150TIP3    H128009   2.780   3.343   1.495  0.6686  2.1019 -0.1123
 2150TIP3    H228010   2.860   3.285   1.381 -0.1633  1.0963 -0.1986
 2151TIP3   OH228011   5.204   4.840   7.606 -0.0970 -0.0703  0.2953
 2151TIP3    H128012   5.290   4.879   7.622 -0.1828  1.0883 -1.7108
 2151TIP3    H228013   5.142   4.911   7.626 -0.6462 -0.9591  1.9300
 2152TIP3   OH228014   6.003   2.083   2.276 -0.3184 -0.6388  0.1842
 2152TIP3    H128015   5.953   2.138   2.216  2.4237  1.8735 -0.0608
 2152TIP3    H228016   6.094   2.092   2.246  0.7088 -2.3318  2.4800
 2153TIP3   OH228017   0.617   6.306   7.287 -0.4822  0.0793  0.0941
 2153TIP3    H128018   0.700   6.305   7.335  0.3985  1.5689 -1.3116
 2153TIP3    H228019   0.598   6.399   7.275 -1.7978 -0.2548 -0.5574
 2154TIP3   OH228020   5.058   0.097   1.255 -0.0450  0.2922  0.1414
 2154TIP3    H128021   5.042   0.146   1.336  0.1926 -1.3419  1.2329
 2154TIP3    H228022   4.980   0.043   1.245 -0.6085  1.3327 -1.4173
 2155TIP3   OH228023   0.426   6.749   8.920 -0.3656  0.2360  0.0496
 2155TIP3    H128024   0.500   6.697   8.889  0.3896  1.1489  0.2703
 2155TIP3    H228025   0.382   6.692   8.983  0.0887 -0.3585 -0.1574
 2156TIP3   OH228026   3.780   3.762   1.575  0.0554 -0.2942 -0.1627
 2156TIP3    H128027   3.870   3.733   1.591 -0.9648 -3.1527  1.0365
 2156TIP3    H228028   3.755   3.808   1.655 -0.1986 -1.3707  0.3927
 2157TIP3   OH228029   5.612   6.408   0.031 -0.9686 -0.0283  0.0923
 2157TIP3    H128030   5.696   6.362   0.034 -0.9591  0.0173  1.3594
 2157TIP3    H228031   5.636   6.500   0.019 -1.0056 -0.3128 -2.8862
 2158TIP3   OH228032   0.747   6.020   1.264 -0.2406  0.5717 -0.5894
 2158TIP3    H128033   0.665   5.982   1.232 -1.1255  0.8225  1.2482
 2158TIP3    H228034   0.720   6.081   1.333  1.5837 -0.8003  1.4573
 2159TIP3   OH228035   6.631   2.101   7.990  0.1510  0.2561  0.2760
 2159TIP3    H128036   6.557   2.147   8.029 -0.5781 -1.2935  0.7883
 2159TIP3    H228037   6.705   2.124   8.046 -0.1136  1.0524  0.3202
 2160TIP3   OH228038   3.856   0.701   7.681 -0.0383 -0.1157  0.2241
 2160TIP3    H128039   3.786   0.670   7.625  1.2744  1.0153 -2.2027
 2160TIP3    H228040   3.848   0.796   7.679  0.1577 -0.0347  1.8795
 2161TIP3   OH228041   0.053   5.128   8.848 -0.0030  0.0025  0.7158
 2161TIP3    H128042  -0.030   5.084   8.830  0.4453 -0.8407  0.6395
 2161TIP3    H228043   0.088   5.150   8.761 -1.0372  2.1404  0.7703
 2162TIP3   OH228044   3.032   2.168   8.395  0.5403 -0.1103 -0.0880
 2162TIP3    H128045   3.054   2.245   8.342 -1.3656 -0.1364 -1.0335
 2162TIP3    H228046   2.940   2.151   8.374  0.8437 -2.5200  0.2542
 2163TIP3   OH228047   2.865   0.812   8.886  0.1396 -0.0336 -0.0570
 2163TIP3    H128048   2.800   0.842   8.949 -0.1168 -1.0237  0.1677
 2163TIP3    H228049   2.824   0.737   8.843  1.0231 -0.5075 -0.1023
 2164TIP3   OH228050   6.202   5.397   7.323  0.3566 -0.3163  0.3583
 2164TIP3    H128051   6.234   5.389   7.233  1.2410 -0.5210  0.6816
 2164TIP3    H228052   6.266   5.453   7.367 -0.7202  0.7920  0.5638
 2165TIP3   OH228053   2.076   4.491   7.880  0.1360 -0.1867  0.2507
 2165TIP3    H128054   2.119   4.515   7.962  0.4130 -0.1494  0.0932
 2165TIP3    H228055   2.131   4.423   7.843 -0.7821 -1.2849  0.8255
 2166TIP3   OH228056   3.260   0.569   0.967 -0.6403 -0.8423 -0.2196
 2166TIP3    H128057   3.289   0.553   0.877  0.5958  0.3521 -0.0562
 2166TIP3    H228058   3.167   0.593   0.959 -0.8082 -1.7059 -1.0535
 2167TIP3   OH228059   4.112   2.488   7.258  0.2757 -0.3270 -0.5036
 2167TIP3    H128060   4.137   2.516   7.346  1.2018 -0.7297 -0.6248
 2167TIP3    H228061   4.128   2.565   7.203 -0.1328 -0.1315 -0.3524
 2168TIP3   OH228062   4.914   3.433   8.851 -0.1531 -0.0336 -0.6566
 2168TIP3    H128063   4.924   3.359   8.791  0.6216 -0.7370  0.2976
 2168TIP3    H228064   4.938   3.397   8.937  1.5970  1.6627 -0.3663
 2169TIP3   OH228065   5.070   3.597   6.990 -0.2918  0.3196  0.5788
 2169TIP3    H128066   4.975   3.586   6.987 -0.2505  0.1624 -0.2081
 2169TIP3    H228067   5.104   3.522   6.942  0.1343  1.7631 -1.4866
 2170TIP3   OH228068   1.196   2.047   0.228  0.1584  0.2061  0.2929
 2170TIP3    H128069   1.144   2.025   0.152  0.3602 -0.8840  0.4523
 2170TIP3    H228070   1.283   2.066   0.193  0.2720 -0.3727  0.2461
 2171TIP3   OH228071   5.871   6.476   0.912  0.1208 -0.7000  0.2356
 2171TIP3    H128072   5.884   6.381   0.901 -1.0707 -0.9151  0.5617
 2171TIP3    H228073   5.829   6.485   0.997 -1.1039 -0.0018 -0.4202
 2172TIP3   OH228074   2.091   3.677   8.603  0.2652 -1.0474  0.3841
 2172TIP3    H128075   2.062   3.587   8.585  0.6294 -1.0792 -0.0499
 2172TIP3    H228076   2.133   3.705   8.522 -3.0178  0.8263 -0.8684
 2173TIP3   OH228077   1.832   5.188   0.798 -0.1557 -0.5990  0.4847
 2173TIP3    H128078   1.846   5.243   0.721 -0.8569 -0.6868  0.2829
 2173TIP3    H228079   1.919   5.155   0.821 -0.1621 -2.4017 -1.6467
 2174TIP3   OH228080   5.439   1.572   1.452 -0.0178  0.4656 -0.2099
 2174TIP3    H128081   5.519   1.536   1.490  0.5773 -0.1870 -1.9668
 2174TIP3    H228082   5.456   1.573   1.358 -1.7008  1.2863 -0.5390
 2175TIP3   OH228083   3.731   2.677   1.896  0.2471 -0.5163 -0.1270
 2175TIP3    H128084   3.745   2.771   1.897 -2.2887 -0.0577 -0.4748
 2175TIP3    H228085   3.789   2.643   1.965 -0.4270  1.5856  1.5945
 2176TIP3   OH228086   6.249   1.753   1.085  0.0415 -0.3781 -0.4267
 2176TIP3    H128087   6.321   1.690   1.089 -0.5841 -1.0521  0.8171
 2176TIP3    H228088   6.175   1.703   1.049  0.0430  0.1691 -1.2178
 2177TIP3   OH228089   3.260   1.417   0.024 -0.5263  0.8679  0.5309
 2177TIP3    H128090   3.327   1.454   0.081  1.8241 -1.7030 -0.3554
 2177TIP3    H228091   3.235   1.490  -0.032  2.9739  1.6207 -0.3337
 2178TIP3   OH228092   3.652   5.011   7.958 -0.2984 -0.0626  0.4296
 2178TIP3    H128093   3.708   5.088   7.964 -0.5829  0.3401 -1.6172
 2178TIP3    H228094   3.652   4.987   7.866 -1.2062 -1.7946  0.8247
 2179TIP3   OH228095   3.647   1.313   1.191 -0.8753  0.1575  0.8504
 2179TIP3    H128096   3.603   1.300   1.107  0.5969  0.1395  0.0543
 2179TIP3    H228097   3.642   1.407   1.207  2.6222  0.9479 -1.5226
 2180TIP3   OH228098   5.209   5.341   7.458  0.1168  0.5677  0.4509
 2180TIP3    H128099   5.249   5.425   7.479  1.6754  0.0900 -0.5066
 2180TIP3    H228100   5.230   5.325   7.366  0.0485 -0.9805  0.6709
 2181TIP3   OH228101   5.822   6.110   1.185  0.2906  0.0184 -0.0738
 2181TIP3    H128102   5.745   6.115   1.243  0.3818 -0.1711  0.0649
 2181TIP3    H228103   5.818   6.191   1.134 -1.3260 -1.0397 -1.7608
 2182TIP3   OH228104   4.611   4.093   6.858  0.6167 -0.3935  0.3440
 2182TIP3    H128105   4.650   4.068   6.774 -1.2962  0.3727 -0.8337
 2182TIP3    H228106   4.519   4.068   6.849 -0.1038  1.7282  1.3331
 2183TIP3   OH228107   3.290   6.129   7.482 -0.4449 -0.3691  0.3454
 2183TIP3    H128108   3.231   6.069   7.437  1.5042 -0.2631 -2.5919
 2183TIP3    H228109   3.265   6.216   7.451  0.0337 -0.1523  0.5460
 2184TIP3   OH228110   0.004   0.747   1.967  0.3537  0.0701  0.1498
 2184TIP3    H128111  -0.053   0.788   1.902  0.7223  1.7609  0.8420
 2184TIP3    H228112  -0.045   0.754   2.049  1.2795  1.0029  0.6400
 2185TIP3   OH228113   4.439   3.681   2.136  0.4316 -0.3713 -0.3561
 2185TIP3    H128114   4.490   3.759   2.115  0.1281 -0.4654 -1.5104
 2185TIP3    H228115   4.360   3.715   2.179  2.4036 -0.3364  3.6855
 2186TIP3   OH228116   3.810   3.796   7.901 -0.1109 -0.4762  0.1392
 2186TIP3    H128117   3.857   3.870   7.862  1.2542 -0.5512  1.5296
 2186TIP3    H228118   3.761   3.835   7.973 -0.3719 -0.7460  0.1049
 2187TIP3   OH228119   1.943   1.622   7.958 -0.8354  0.7527 -0.1399
 2187TIP3    H128120   1.930   1.530   7.980 -0.3447  0.6456 -0.2915
 2187TIP3    H228121   1.855   1.658   7.949 -1.0244  0.2827 -0.1408
 2188TIP3   OH228122   3.727   1.670   7.378 -0.1002  0.1975 -0.2388
 2188TIP3    H128123   3.738   1.731   7.305 -0.2162  1.2104  0.5732
 2188TIP3    H228124   3.687   1.722   7.447 -0.4308 -0.8725  0.3932
 2189TIP3   OH228125   2.650   2.565   1.534  0.2882  0.0925 -0.2067
 2189TIP3    H128126   2.719   2.503   1.557 -0.3281 -1.6061 -2.5871
 2189TIP3    H228127   2.681   2.649   1.568  2.1386 -1.1117  1.3010
 2190TIP3   OH228128   3.925   0.174   8.706 -0.0384 -0.0588  0.0215
 2190TIP3    H128129   3.872   0.131   8.774  0.7870 -0.1201  0.6501
 2190TIP3    H228130   4.011   0.132   8.714  0.6160  1.2713  0.2366
 2191TIP3   OH228131   1.547   0.623   0.075 -0.1308 -0.0719  0.0947
 2191TIP3    H128132   1.538   0.555   0.142 -0.2508  1.2170  1.4430
 2191TIP3    H228133   1.603   0.584   0.008  1.1126 -0.9453  1.5962
 2192TIP3   OH228134   3.450   5.160   7.662 -0.7641 -0.4273 -0.1243
 2192TIP3    H128135   3.434   5.221   7.735  0.5014 -0.6266  0.3431
 2192TIP3    H228136   3.394   5.085   7.681  0.3974 -0.9891  1.3117
 2193TIP3   OH228137   4.303   5.325   7.313 -0.2351  0.1560  0.2553
 2193TIP3    H128138   4.249   5.352   7.239  1.4504 -0.3516 -1.2287
 2193TIP3    H228139   4.290   5.230   7.319 -2.2162  0.4887  2.2020
 2194TIP3   OH228140   0.885   4.370   8.276  0.5326  0.2787  0.4807
 2194TIP3    H128141   0.936   4.445   8.306  0.9594 -0.5703  2.0070
 2194TIP3    H228142   0.847   4.334   8.356  0.9329 -1.5457 -0.1130
 2195TIP3   OH228143   1.979   6.558   0.942  0.2045  0.4052  0.0568
 2195TIP3    H128144   1.959   6.490   1.006  0.4079  0.7712  0.5183
 2195TIP3    H228145   2.005   6.511   0.863 -1.1258 -0.0666 -0.1197
 2196TIP3   OH228146   5.967   0.995   0.049 -0.1749  0.1064 -0.4520
 2196TIP3    H128147   5.933   1.052  -0.020 -3.4178 -1.3492 -0.2266
 2196TIP3    H228148   6.007   0.922   0.002  0.1007  0.4472 -0.7536
 2197TIP3   OH228149   2.669   5.363   8.408  0.8085 -0.6566 -0.2498
 2197TIP3    H128150   2.722   5.418   8.350  0.2991 -0.5651 -0.6388
 2197TIP3    H228151   2.696   5.389   8.497  1.2831 -0.4889 -0.4393
 2198TIP3   OH228152   0.075   5.741   1.125  0.1233  0.4846  0.0230
 2198TIP3    H128153   0.016   5.793   1.070 -1.9549 -0.6001  1.1033
 2198TIP3    H228154   0.089   5.794   1.203 -1.5207 -0.2351  0.8642
 2199TIP3   OH228155   0.585   2.706   8.471  0.9239 -0.4560 -0.4483
 2199TIP3    H128156   0.631   2.710   8.388  2.6671  0.9316  0.5096
 2199TIP3    H228157   0.637   2.761   8.530 -0.8525 -0.5008  1.2665
 2200TIP3   OH228158   6.309   6.112   1.655 -0.3241 -0.3739  0.1052
 2200TIP3    H128159   6.392   6.156   1.669 -0.0973 -0.9438  0.6061
 2200TIP3    H228160   6.260   6.126   1.736 -0.5638 -0.3741 -0.0367
 2201TIP3   OH228161   3.260   3.679   8.639 -0.0315  0.2326 -0.7416
 2201TIP3    H128162   3.354   3.690   8.653  0.2573 -1.0901 -1.4564
 2201TIP3    H228163   3.245   3.585   8.649 -1.2969  0.4322 -0.5744
 2202TIP3   OH228164   4.316   3.509   7.555 -0.3116 -0.1042 -0.4700
 2202TIP3    H128165   4.246   3.575   7.559  0.2758  0.4731  1.1341
 2202TIP3    H228166   4.368   3.534   7.479 -0.0495  1.3723  0.1645
 2203TIP3   OH228167   1.116   0.876   2.257  0.0348 -0.4236  0.4590
 2203TIP3    H128168   1.025   0.854   2.236 -1.3282  0.4201  4.6774
 2203TIP3    H228169   1.138   0.944   2.194 -1.1515 -2.4994 -2.4687
 2204TIP3   OH228170   2.228   3.848   7.038  0.0533 -0.0708 -0.3084
 2204TIP3    H128171   2.200   3.815   6.953  0.0876 -2.1587  0.4409
 2204TIP3    H228172   2.323   3.834   7.039 -0.2951 -3.2294  1.2544
 2205TIP3   OH228173   4.946   0.666   1.345  0.1696  0.5883 -0.5234
 2205TIP3    H128174   4.905   0.744   1.308 -1.8428  1.2630  2.7106
 2205TIP3    H228175   5.037   0.692   1.362 -0.1543  1.8226 -0.5766
 2206TIP3   OH228176   6.154   6.436   1.087 -0.3987  0.1790  0.4511
 2206TIP3    H128177   6.090   6.366   1.076  0.5999 -0.7288  0.2936
 2206TIP3    H228178   6.170   6.440   1.181 -2.1014  1.7347  0.7318
 2207TIP3   OH228179   1.682   3.849   7.821  0.2315  0.3171  0.4463
 2207TIP3    H128180   1.733   3.841   7.902  0.7381 -0.5383  0.0609
 2207TIP3    H228181   1.746   3.833   7.752 -0.7577 -2.0585 -0.0281
 2208TIP3   OH228182   5.168   0.071   1.920  0.5748  0.1471 -0.0290
 2208TIP3    H128183   5.089   0.084   1.971  0.2315  0.1277 -0.5427
 2208TIP3    H228184   5.208   0.158   1.915 -0.1982  0.4680 -1.0126
 2209TIP3   OH228185   0.561   4.755   7.377 -0.0011  0.3598 -0.4018
 2209TIP3    H128186   0.473   4.770   7.343  0.3067  2.6902 -0.3886
 2209TIP3    H228187   0.576   4.661   7.368 -3.2079 -0.4494  1.4124
 2210TIP3   OH228188   3.261   2.762   1.246  0.2132 -0.0606 -0.1875
 2210TIP3    H128189   3.305   2.837   1.206 -1.8682  1.2532 -0.2041
 2210TIP3    H228190   3.168   2.782   1.238 -0.3792 -1.4810  2.0427
 2211TIP3   OH228191   1.483   5.630   0.578  0.3196 -0.4802  0.0829
 2211TIP3    H128192   1.497   5.678   0.659 -1.3799 -0.0945  0.1872
 2211TIP3    H228193   1.495   5.695   0.509 -0.5474 -0.2263  0.1571
 2212TIP3   OH228194   1.719   4.558   0.827  0.2100 -0.2025  0.6065
 2212TIP3    H128195   1.659   4.596   0.764  0.4696 -2.9200 -1.4812
 2212TIP3    H228196   1.662   4.524   0.897 -0.1444  2.0712  1.4918
 2213TIP3   OH228197   2.370   4.111   0.003 -0.2096  0.3650  0.0971
 2213TIP3    H128198   2.418   4.151  -0.070  0.2444  0.3899  0.4003
 2213TIP3    H228199   2.431   4.118   0.077 -0.6560  0.3190  0.4704
 2214TIP3   OH228200   4.810   3.289   0.567  0.2345  0.3420 -0.0040
 2214TIP3    H128201   4.794   3.377   0.601 -0.0107  0.0592  0.6273
 2214TIP3    H228202   4.730   3.240   0.589  0.3756 -0.0432 -0.3313
 2215TIP3   OH228203   0.731   3.997   1.962 -0.0655  0.2129 -0.4645
 2215TIP3    H128204   0.687   3.931   2.015  0.5120 -0.2240 -0.5102
 2215TIP3    H228205   0.699   3.982   1.873  0.0191  0.0268 -0.4653
 2216TIP3   OH228206   5.765   3.461   6.677 -0.6675  0.2750 -0.2781
 2216TIP3    H128207   5.840   3.405   6.657  0.5139  2.5700 -2.8135
 2216TIP3    H228208   5.699   3.436   6.612 -0.5638  1.0089 -0.6742
 2217TIP3   OH228209   0.535   0.240   2.636  0.4185  0.3252 -0.1124
 2217TIP3    H128210   0.622   0.203   2.619  1.0853  1.8044 -0.1386
 2217TIP3    H228211   0.492   0.243   2.551  0.2412 -0.6206 -0.0643
 2218TIP3   OH228212   3.648   5.947   8.905  0.3429  0.1433 -0.1808
 2218TIP3    H128213   3.604   5.986   8.980  0.9267  0.1104  0.1920
 2218TIP3    H228214   3.600   5.979   8.829  0.0667  0.6054  0.1814
 2219TIP3   OH228215   6.248   1.029   1.031 -0.2753 -0.9014  0.0587
 2219TIP3    H128216   6.310   1.092   0.992 -0.5136 -0.5639  0.2202
 2219TIP3    H228217   6.299   0.949   1.042 -0.1283 -0.9223 -0.7101
 2220TIP3   OH228218   3.794   4.441   7.640 -0.4099 -0.0470  0.3385
 2220TIP3    H128219   3.739   4.500   7.692  0.8078  0.0780  1.5474
 2220TIP3    H228220   3.819   4.372   7.701  1.9398  0.6632  0.2684
 2221TIP3   OH228221   0.268   6.230   8.069  0.6582 -0.4060 -0.4323
 2221TIP3    H128222   0.335   6.205   8.006 -0.1218 -0.6050 -1.2029
 2221TIP3    H228223   0.247   6.149   8.116  1.2475 -0.2552  0.1019
 2222TIP3   OH228224   0.672   2.933   0.956 -0.2387  0.1095 -0.3533
 2222TIP3    H128225   0.670   2.849   1.002  0.0641  0.2774 -0.0317
 2222TIP3    H228226   0.615   2.920   0.880 -1.1199 -0.0261  0.3139
 2223TIP3   OH228227   3.082   4.571   2.351 -0.3180 -0.3494 -0.0630
 2223TIP3    H128228   3.159   4.628   2.364 -0.8715  0.4403 -0.1922
 2223TIP3    H228229   3.077   4.520   2.432 -0.1056  0.1483  0.2689
 2224TIP3   OH228230   0.210   4.169   1.486 -0.3128 -0.2081  0.1632
 2224TIP3    H128231   0.259   4.236   1.438  1.6790 -1.6789 -0.0324
 2224TIP3    H228232   0.262   4.089   1.474 -3.1998 -2.1359 -0.7003
 2225TIP3   OH228233   6.285   1.933   7.687  0.1049  0.1715 -0.0920
 2225TIP3    H128234   6.347   1.894   7.748  1.1113  0.0720 -1.1471
 2225TIP3    H228235   6.200   1.896   7.712  0.4119  0.4368  1.4849
 2226TIP3   OH228236   0.275   2.367   6.414 -0.4487  0.0089 -0.5526
 2226TIP3    H128237   0.275   2.293   6.353 -0.5946  0.3259 -0.9412
 2226TIP3    H228238   0.314   2.439   6.364  3.1222 -0.6960  0.9173
 2227TIP3   OH228239   1.906   2.710   1.625  0.1017  0.1705 -0.4977
 2227TIP3    H128240   1.846   2.725   1.698 -1.5715  0.2534 -1.8440
 2227TIP3    H228241   1.960   2.636   1.654 -0.8322 -0.0939  0.6398
 2228TIP3   OH228242   5.949   3.028   7.963  0.2764 -0.0162 -0.1798
 2228TIP3    H128243   5.924   3.096   8.026  0.5075  0.4845 -0.6253
 2228TIP3    H228244   5.972   2.953   8.018 -1.8231 -0.3799  0.2618
 2229TIP3   OH228245   4.482   5.015   2.181 -0.2083  0.2274 -0.0384
 2229TIP3    H128246   4.416   5.001   2.248  0.2817  0.7114  0.5584
 2229TIP3    H228247   4.529   4.932   2.175 -0.3364  0.1446  0.1304
 2230TIP3   OH228248   2.098   5.029   6.862  0.1370 -0.2051 -0.5310
 2230TIP3    H128249   2.096   5.080   6.943 -0.9994 -2.4605  0.9694
 2230TIP3    H228250   2.187   4.993   6.860 -0.2523 -1.2787  0.5118
 2231TIP3   OH228251   6.097   5.458   7.717  0.4410  1.0391  0.3753
 2231TIP3    H128252   6.120   5.367   7.696  0.4469  1.0619  0.2841
 2231TIP3    H228253   6.051   5.489   7.640 -0.9809  0.6084  1.0228
 2232TIP3   OH228254   1.143   3.662   8.639  0.3857  0.2212 -0.4243
 2232TIP3    H128255   1.049   3.677   8.625  0.3622 -0.2841 -0.8496
 2232TIP3    H228256   1.155   3.671   8.734 -0.2806 -0.7155 -0.2387
 2233TIP3   OH228257   1.011   0.187   1.350 -0.8816 -0.2286 -0.5474
 2233TIP3    H128258   0.953   0.217   1.280 -1.0157  0.8433  0.0032
 2233TIP3    H228259   1.071   0.260   1.364  0.6815 -1.3244 -1.1483
 2234TIP3   OH228260   3.048   3.642   7.033 -0.1638 -0.3522  0.5581
 2234TIP3    H128261   2.952   3.645   7.030 -0.1941 -1.2943  0.3467
 2234TIP3    H228262   3.076   3.685   6.952 -0.4197 -0.7109  0.2816
 2235TIP3   OH228263   3.511   5.254   8.156 -0.7055  0.0505  0.4460
 2235TIP3    H128264   3.551   5.167   8.150 -0.6682  0.1482 -1.3487
 2235TIP3    H228265   3.419   5.237   8.173 -0.3794 -0.2536  2.0684
 2236TIP3   OH228266   2.865   2.209   0.529 -0.4663  0.2930  0.2193
 2236TIP3    H128267   2.770   2.206   0.527 -0.5148  1.4081  0.5241
 2236TIP3    H228268   2.890   2.138   0.588 -1.0833 -0.2542 -0.1625
 2237TIP3   OH228269   0.537   2.405   0.208  0.3463 -0.9493  0.1114
 2237TIP3    H128270   0.556   2.404   0.114  0.2154 -0.9954  0.0866
 2237TIP3    H228271   0.511   2.316   0.228 -2.9857 -0.2296 -0.4733
 2238TIP3   OH228272   1.751   6.100   7.940  0.6008 -0.4244 -0.0952
 2238TIP3    H128273   1.736   6.189   7.969 -1.9008 -0.7754 -0.1257
 2238TIP3    H228274   1.742   6.104   7.845  2.9697 -0.3250 -0.3762
 2239TIP3   OH228275   1.594   6.352   1.874 -0.3418  0.1426 -0.1496
 2239TIP3    H128276   1.662   6.390   1.818  0.3759 -1.8155 -0.6891
 2239TIP3    H228277   1.641   6.319   1.950 -0.4860 -1.9525 -0.8929
 2240TIP3   OH228278   4.195   1.830   7.068  0.8192 -0.1388  0.4708
 2240TIP3    H128279   4.105   1.833   7.037  0.9745  1.7324  0.0673
 2240TIP3    H228280   4.215   1.737   7.076 -0.7004 -0.6045 -0.7275
 2241TIP3   OH228281   1.845   1.931   7.219 -0.0243  0.1843  0.4903
 2241TIP3    H128282   1.767   1.975   7.185  0.2428  1.3237  1.2879
 2241TIP3    H228283   1.827   1.921   7.313  0.8727  0.6978  0.7347
 2242TIP3   OH228284   2.310   0.071   8.463 -0.4743 -0.2977 -0.4180
 2242TIP3    H128285   2.285   0.076   8.371  0.5958 -0.1225 -0.7157
 2242TIP3    H228286   2.406   0.068   8.461 -0.4722 -1.4890  0.6394
 2243TIP3   OH228287   5.959   0.420   8.860  0.1389  0.4396  0.4059
 2243TIP3    H128288   5.921   0.371   8.787 -1.8642  1.5332  0.6500
 2243TIP3    H228289   5.995   0.353   8.917  0.9436 -0.4883 -1.1249
 2244TIP3   OH228290   5.248   0.722   0.712  0.2510  0.7630 -0.3359
 2244TIP3    H128291   5.334   0.686   0.687 -0.3527 -0.2248 -1.1119
 2244TIP3    H228292   5.213   0.657   0.773  0.3903  1.5843  0.6293
 2245TIP3   OH228293   3.989   0.548   1.244  0.6610  0.4513 -0.1449
 2245TIP3    H128294   4.054   0.617   1.255 -0.3963  1.4297  0.1698
 2245TIP3    H228295   4.019   0.499   1.167  0.4466  2.4468 -1.5806
 2246TIP3   OH228296   1.411   6.559   0.570 -0.4425 -0.2140 -0.9684
 2246TIP3    H128297   1.331   6.540   0.617  1.1302 -4.9069  0.3715
 2246TIP3    H228298   1.392   6.535   0.479 -0.4838 -1.9355 -0.5401
 2247TIP3   OH228299   1.393   2.982   7.079  0.4751  0.9854  0.3714
 2247TIP3    H128300   1.373   2.938   6.997  1.2585  0.7116  0.3230
 2247TIP3    H228301   1.443   2.918   7.130  0.4156  1.3232  0.8693
 2248TIP3   OH228302   3.941   6.192   8.082 -0.3611  0.4299  0.7627
 2248TIP3    H128303   3.902   6.173   7.997 -1.2189  1.2214  0.9616
 2248TIP3    H228304   3.938   6.287   8.089  0.6464  0.4431  1.2486
 2249TIP3   OH228305   1.292   1.860   0.578  0.0901  0.0700  0.4013
 2249TIP3    H128306   1.356   1.860   0.508  1.8903  0.1370  1.9812
 2249TIP3    H228307   1.209   1.878   0.534  0.9732 -0.8766 -1.8227
 2250TIP3   OH228308   4.180   2.879   1.893 -0.2899  0.7575  0.2682
 2250TIP3    H128309   4.105   2.820   1.891 -0.0923  0.4971  0.5747
 2250TIP3    H228310   4.191   2.902   1.985  1.4771 -1.1070  0.5982
 2251TIP3   OH228311   5.123   2.914   7.400 -0.0904  0.5899 -0.3361
 2251TIP3    H128312   5.217   2.924   7.381  0.8329 -0.8928  2.8176
 2251TIP3    H228313   5.090   2.861   7.328  1.7839  0.0513 -0.8621
 2252TIP3   OH228314   2.833   5.785   7.791 -0.4292  0.4127 -0.6176
 2252TIP3    H128315   2.781   5.865   7.799 -0.8292 -0.0420  2.6118
 2252TIP3    H228316   2.916   5.815   7.753 -0.3550  2.5327  0.9967
 2253TIP3   OH228317   2.638   1.235   0.235  0.1148 -0.0737 -0.1165
 2253TIP3    H128318   2.700   1.262   0.303 -0.9733 -0.1925  0.9506
 2253TIP3    H228319   2.618   1.315   0.188  1.5265 -0.1387 -0.8654
 2254TIP3   OH228320   2.474   1.622   1.839 -0.6435 -0.1267 -0.3217
 2254TIP3    H128321   2.458   1.595   1.929 -0.7129  2.0381  0.3688
 2254TIP3    H228322   2.404   1.581   1.788 -0.0687 -2.1179  0.4295
 2255TIP3   OH228323   6.170   0.561   0.936 -0.3549 -0.1281  0.1673
 2255TIP3    H128324   6.235   0.528   0.999  1.1336 -1.1815 -1.7979
 2255TIP3    H228325   6.205   0.645   0.908 -0.0717 -0.4604 -0.5067
 2256TIP3   OH228326   6.490   0.800   6.686  0.2760 -0.0748 -0.6196
 2256TIP3    H128327   6.415   0.836   6.637  0.2511  1.0261  0.1905
 2256TIP3    H228328   6.560   0.864   6.673  0.0211  0.6803  1.4465
 2257TIP3   OH228329   3.030   6.633   2.226  0.5097 -0.1495  0.2362
 2257TIP3    H128330   2.987   6.604   2.145 -0.2876 -0.8669  0.8969
 2257TIP3    H228331   2.968   6.609   2.295  1.7307 -0.7056  1.1666
 2258TIP3   OH228332   5.578   6.655   1.756 -0.1925  0.4253  0.2294
 2258TIP3    H128333   5.621   6.736   1.785 -1.0800  0.6369  1.0109
 2258TIP3    H228334   5.532   6.680   1.676  0.3473  0.4328 -0.0857
 2259TIP3   OH228335   5.222   3.029   1.417  0.2153  0.0480  0.3740
 2259TIP3    H128336   5.153   3.086   1.450  0.1078  0.2416 -0.1815
 2259TIP3    H228337   5.297   3.048   1.473  0.6300  1.8146 -0.6893
 2260TIP3   OH228338   3.968   1.512   2.653 -0.4423  0.2151  0.2331
 2260TIP3    H128339   3.948   1.435   2.706 -0.3699 -0.1107 -0.2064
 2260TIP3    H228340   4.035   1.483   2.592 -0.4793  0.6017  0.0021
 2261TIP3   OH228341   1.776   0.758   0.470  0.2567  0.4654  0.7342
 2261TIP3    H128342   1.819   0.673   0.470 -1.9863 -0.7452  0.3618
 2261TIP3    H228343   1.796   0.795   0.385  3.2090  1.4612  1.7406
 2262TIP3   OH228344   6.161   1.623   0.299 -0.2213  0.0676 -0.4260
 2262TIP3    H128345   6.068   1.628   0.278 -0.2433 -0.3959 -0.4459
 2262TIP3    H228346   6.166   1.561   0.373 -0.1646  1.7764  1.0758
 2263TIP3   OH228347   0.085   5.396   6.902  0.1071 -0.0994  0.5967
 2263TIP3    H128348   0.010   5.443   6.938  0.0231  0.9097 -0.8136
 2263TIP3    H228349   0.142   5.382   6.978 -0.4907  1.1033  1.3067
 2264TIP3   OH228350   6.049   5.267   8.476  0.1831 -0.2809 -0.0213
 2264TIP3    H128351   6.085   5.179   8.482 -0.7203 -0.9672 -2.8119
 2264TIP3    H228352   6.108   5.322   8.527  1.2281 -2.3691  1.1172
 2265TIP3   OH228353   4.800   3.714   8.673  0.6307  0.2853  0.3322
 2265TIP3    H128354   4.891   3.740   8.661  1.1546 -1.1903  0.8466
 2265TIP3    H228355   4.788   3.639   8.614 -0.2151  0.4061  0.3407
 2266TIP3   OH228356   5.987   6.456   1.710 -0.4422 -0.0822  0.0101
 2266TIP3    H128357   5.910   6.445   1.765 -1.0671 -0.6229 -0.9443
 2266TIP3    H228358   5.974   6.394   1.638  0.3761  0.5604 -0.7118
 2267TIP3   OH228359   2.600   6.735   0.091  0.4120 -0.4156 -0.0998
 2267TIP3    H128360   2.550   6.811   0.120  0.5329  0.1231 -1.2291
 2267TIP3    H228361   2.683   6.771   0.061  0.6153 -1.0374 -0.3023
 2268TIP3   OH228362   2.874   5.752   1.069 -0.0905  0.1688 -0.1882
 2268TIP3    H128363   2.855   5.682   1.132 -0.7286 -0.1449 -0.7150
 2268TIP3    H228364   2.820   5.730   0.993  1.8217 -0.3195 -1.4740
 2269TIP3   OH228365   3.584   0.536   7.646 -0.1948 -0.0606 -0.1616
 2269TIP3    H128366   3.514   0.600   7.659 -0.9219 -0.9762  0.5851
 2269TIP3    H228367   3.608   0.545   7.554 -0.5019  1.0523 -0.1467
 2270TIP3   OH228368   6.521   5.670   0.600 -0.1986  0.6277 -0.4157
 2270TIP3    H128369   6.470   5.730   0.655  0.5469  0.4891  0.4474
 2270TIP3    H228370   6.506   5.584   0.639  1.3250  0.6868  0.3514
 2271TIP3   OH228371   6.627   4.439   8.480  0.4798  0.1290 -0.2614
 2271TIP3    H128372   6.718   4.409   8.487 -0.3216 -2.0704  2.4176
 2271TIP3    H228373   6.583   4.371   8.430 -0.0950  0.1028  0.2649
 2272TIP3   OH228374   2.587   1.427   7.245  0.1989 -0.6678 -0.4579
 2272TIP3    H128375   2.495   1.418   7.272  0.2229  0.6020  0.1252
 2272TIP3    H228376   2.631   1.353   7.287 -0.4469 -0.9297 -0.2126
 2273TIP3   OH228377   4.437   0.414   2.689  0.4607  0.2288 -0.0167
 2273TIP3    H128378   4.419   0.489   2.745  0.0641 -0.3147  0.6077
 2273TIP3    H228379   4.492   0.357   2.742  1.7669  0.6139 -0.9252
 2274TIP3   OH228380   5.814   1.978   1.720  0.5194 -0.0809 -0.2225
 2274TIP3    H128381   5.744   1.957   1.782  1.8410  0.5632  1.5323
 2274TIP3    H228382   5.791   2.065   1.686  0.7655  0.3822  0.7827
 2275TIP3   OH228383   0.303   2.987   8.671 -0.0749  0.3056 -0.5030
 2275TIP3    H128384   0.312   3.006   8.765 -1.7897 -0.7115 -0.0784
 2275TIP3    H228385   0.274   2.896   8.668 -2.5764  1.0469 -1.8521
 2276TIP3   OH228386   6.118   1.910   6.965  0.0760  0.6655  0.5169
 2276TIP3    H128387   6.104   1.955   6.882  0.1703  2.9285  1.6560
 2276TIP3    H228388   6.196   1.951   7.002  0.6295 -1.0003  1.2914
 2277TIP3   OH228389   4.303   2.148   1.921  0.0706 -0.0310  0.7989
 2277TIP3    H128390   4.266   2.100   1.995 -0.2162 -0.7469  0.2065
 2277TIP3    H228391   4.316   2.237   1.953 -2.2780  0.2992  0.9993
 2278TIP3   OH228392   5.291   2.875   1.167  0.2946 -0.7148 -0.2211
 2278TIP3    H128393   5.357   2.852   1.232  0.2030 -0.7171 -0.1298
 2278TIP3    H228394   5.242   2.947   1.206  0.9698  0.0674 -0.7513
 2279TIP3   OH228395   1.069   0.642   7.829  0.3901 -0.1127  0.4408
 2279TIP3    H128396   1.022   0.560   7.812  1.0718 -0.7013  1.2934
 2279TIP3    H228397   1.022   0.682   7.903 -0.7659  0.9706 -0.8175
 2280TIP3   OH228398   1.828   1.397   8.463 -0.3213 -0.3179 -0.4288
 2280TIP3    H128399   1.789   1.472   8.418 -2.5406 -0.3562  1.2403
 2280TIP3    H228400   1.846   1.334   8.393 -0.7993  0.7849 -1.5960
 2281TIP3   OH228401   1.209   5.638   0.161  0.3951 -0.6798  0.5081
 2281TIP3    H128402   1.279   5.679   0.110 -1.9677  0.1726 -2.2955
 2281TIP3    H228403   1.167   5.711   0.206 -0.1990 -0.8317  0.2044
 2282TIP3   OH228404   5.521   5.834   7.843 -0.2660 -0.1477 -0.0306
 2282TIP3    H128405   5.473   5.821   7.761  0.2770  0.7851 -0.5097
 2282TIP3    H228406   5.466   5.895   7.892  1.5164  3.0052 -1.6324
 2283TIP3   OH228407   4.335   5.212   7.820  0.3456  0.4213 -0.0398
 2283TIP3    H128408   4.355   5.301   7.847 -0.5180 -0.0144  2.2594
 2283TIP3    H228409   4.294   5.172   7.897  1.6058 -2.2632 -0.6550
 2284TIP3   OH228410   5.297   3.945   1.661 -0.0426 -0.7243 -0.9123
 2284TIP3    H128411   5.269   4.025   1.616  3.5607  1.9834  1.0717
 2284TIP3    H228412   5.227   3.928   1.724 -0.2935  1.9259 -0.3289
 2285TIP3   OH228413   6.290   1.118   8.006  0.1488 -0.0955  0.1843
 2285TIP3    H128414   6.321   1.120   8.097 -0.1277  0.8501  0.2674
 2285TIP3    H228415   6.274   1.025   7.989 -0.2663 -0.2514  1.2749
 2286TIP3   OH228416   4.422   6.636   0.364 -0.6420 -0.0886  0.3732
 2286TIP3    H128417   4.500   6.620   0.417 -1.6649 -0.6980  1.7420
 2286TIP3    H228418   4.456   6.659   0.278  1.0691  1.7218  1.4771
 2287TIP3   OH228419   1.401   4.115   1.257  0.0821 -0.9019  0.0756
 2287TIP3    H128420   1.311   4.086   1.248 -0.3501  0.4516 -0.1822
 2287TIP3    H228421   1.413   4.128   1.352 -0.0720 -0.8642  0.0897
 2288TIP3   OH228422   0.128   3.863   8.615 -0.1334 -0.0690 -0.1032
 2288TIP3    H128423   0.086   3.947   8.595  0.6009  0.2199 -0.4508
 2288TIP3    H228424   0.064   3.797   8.588 -1.0474  0.3778  0.9052
 2289TIP3   OH228425   3.683   4.955   7.686 -0.0811 -0.0606  0.3301
 2289TIP3    H128426   3.766   4.963   7.638 -0.4892 -2.2736 -0.8483
 2289TIP3    H228427   3.631   5.030   7.658  0.5482 -0.0846 -0.9480
 2290TIP3   OH228428   3.255   2.435   1.606  0.2800  0.2917 -0.6422
 2290TIP3    H128429   3.328   2.417   1.546 -0.3938 -1.6661 -0.9534
 2290TIP3    H228430   3.290   2.413   1.692 -0.2941 -2.0364 -0.9370
 2291TIP3   OH228431   0.277   5.755   8.569 -0.3378  0.1197 -0.1937
 2291TIP3    H128432   0.358   5.782   8.612 -0.5947  1.4679 -0.4830
 2291TIP3    H228433   0.305   5.726   8.482 -0.0936 -0.0967 -0.0441
 2292TIP3   OH228434   2.613   3.678   8.960 -0.4114  0.4337 -0.2294
 2292TIP3    H128435   2.667   3.712   9.031 -0.9880  1.8996 -0.4692
 2292TIP3    H228436   2.644   3.588   8.948  0.9451  0.7544  0.6347
 2293TIP3   OH228437   1.103   4.279   0.867  0.3835 -0.5478  0.2669
 2293TIP3    H128438   1.057   4.328   0.936 -1.1696  2.8366 -2.8307
 2293TIP3    H228439   1.196   4.286   0.889 -0.0842  0.0504  2.1892
 2294TIP3   OH228440   6.583   1.889   8.741  0.4906  0.0311 -0.4577
 2294TIP3    H128441   6.677   1.882   8.726  0.2626  0.3244 -2.3241
 2294TIP3    H228442   6.546   1.812   8.697 -0.1395 -0.1469  0.3612
 2295TIP3   OH228443   5.842   5.518   0.500 -0.4756  0.1060  0.3693
 2295TIP3    H128444   5.789   5.538   0.423  0.4843 -1.2957 -0.7055
 2295TIP3    H228445   5.778   5.496   0.568 -1.3009 -0.5554 -0.6035
 2296TIP3   OH228446   0.982   1.254   8.290  0.1922 -0.2555 -0.6795
 2296TIP3    H128447   0.948   1.188   8.351 -1.2041  0.6191 -0.4643
 2296TIP3    H228448   0.922   1.328   8.300  1.8969  1.1735 -0.6939
 2297TIP3   OH228449   5.459   1.879   8.826 -0.0194 -0.3294 -0.1817
 2297TIP3    H128450   5.531   1.940   8.843  1.3054 -1.5053 -1.2759
 2297TIP3    H228451   5.502   1.802   8.789 -1.7948 -1.3550 -0.2129
 2298TIP3   OH228452   1.757   1.448   0.510  0.1075 -0.7535 -0.2223
 2298TIP3    H128453   1.675   1.491   0.486  0.6323  0.4499  0.0672
 2298TIP3    H228454   1.738   1.403   0.592 -0.5112 -1.2927 -0.6499
 2299TIP3   OH228455   4.427   6.734   7.438 -0.0786 -0.3407 -0.3386
 2299TIP3    H128456   4.473   6.652   7.420  1.7295  0.6336 -0.4085
 2299TIP3    H228457   4.445   6.789   7.363  0.0300  0.6500  0.3931
 2300TIP3   OH228458   1.265   2.276   0.389  0.2063  0.1380 -0.1116
 2300TIP3    H128459   1.232   2.309   0.306  0.6076 -0.3462 -0.4709
 2300TIP3    H228460   1.231   2.186   0.394  1.1638 -0.2517 -0.3238
 2301TIP3   OH228461   4.738   0.407   1.043 -0.3878 -0.3907 -0.1474
 2301TIP3    H128462   4.660   0.391   0.990 -0.4667  0.0286 -0.1595
 2301TIP3    H228463   4.764   0.497   1.022 -0.0792 -0.4227  0.0854
 2302TIP3   OH228464   1.756   4.597   6.835 -0.2442 -0.4751  0.2384
 2302TIP3    H128465   1.765   4.550   6.917 -1.1040  0.1379  0.7033
 2302TIP3    H228466   1.840   4.642   6.823 -0.5441  0.4349  1.4314
 2303TIP3   OH228467   5.161   4.574   1.670  0.2838  0.6986  0.1946
 2303TIP3    H128468   5.092   4.509   1.665  0.1462  0.8306  0.3586
 2303TIP3    H228469   5.186   4.591   1.579  1.4224 -0.7471  0.2057
 2304TIP3   OH228470   6.288   4.378   0.719 -0.3181  0.1869 -0.2436
 2304TIP3    H128471   6.357   4.342   0.773 -1.4590  0.3262  1.3710
 2304TIP3    H228472   6.218   4.401   0.780 -1.4728  0.8220 -1.7177
 2305TIP3   OH228473   2.254   2.691   0.162 -0.0169  0.1201  0.2673
 2305TIP3    H128474   2.232   2.764   0.105  0.1315 -0.9416 -1.1840
 2305TIP3    H228475   2.333   2.653   0.124  0.6006 -0.0980  1.6830
 2306TIP3   OH228476   3.317   6.027   1.284  0.5493 -0.1782  0.0201
 2306TIP3    H128477   3.295   6.089   1.215  0.4005 -0.1296  0.1108
 2306TIP3    H228478   3.340   6.082   1.359 -2.9385 -0.1535  1.2283
 2307TIP3   OH228479   3.934   5.186   7.580  0.4749  0.3750  0.5834
 2307TIP3    H128480   3.961   5.232   7.501 -0.5898 -1.7031 -1.0751
 2307TIP3    H228481   3.860   5.236   7.613  0.5303  0.9074 -0.0915
 2308TIP3   OH228482   4.749   4.513   7.231 -0.2787  0.1356  0.5112
 2308TIP3    H128483   4.726   4.573   7.159  0.5206  1.0449  0.9871
 2308TIP3    H228484   4.844   4.507   7.227 -0.3509 -1.1739  0.4409
 2309TIP3   OH228485   5.196   5.854   8.327  0.1918 -0.3547  0.2811
 2309TIP3    H128486   5.219   5.786   8.264 -1.4981 -0.8302  0.1410
 2309TIP3    H228487   5.166   5.806   8.404 -1.1471  0.2086  0.1294
 2310TIP3   OH228488   6.462   3.720   1.126 -0.1685 -0.9189 -0.0138
 2310TIP3    H128489   6.510   3.654   1.176  0.0134 -0.0026  1.0442
 2310TIP3    H228490   6.370   3.693   1.133 -0.2099 -0.5138  1.2954
 2311TIP3   OH228491   4.344   1.752   8.645  0.3603 -0.6129 -0.1230
 2311TIP3    H128492   4.300   1.753   8.730 -0.1136 -0.0258 -0.3629
 2311TIP3    H228493   4.275   1.771   8.582  0.4158 -2.4436 -0.8053
 2312TIP3   OH228494   6.151   5.591   1.311  0.1778  0.1309  0.5386
 2312TIP3    H128495   6.156   5.651   1.236  0.0359  0.0995  0.5027
 2312TIP3    H228496   6.119   5.646   1.383 -1.9675 -0.3275  0.0090
 2313TIP3   OH228497   5.546   0.422   7.806  0.1868  0.1019 -0.0137
 2313TIP3    H128498   5.478   0.481   7.774 -1.4194 -0.8762  1.4160
 2313TIP3    H228499   5.627   0.455   7.767 -0.4645  3.7900  1.4014
 2314TIP3   OH228500   0.688   4.676   8.771  0.7727  0.0409  0.3136
 2314TIP3    H128501   0.609   4.655   8.721  1.8748  0.3865 -1.7032
 2314TIP3    H228502   0.701   4.601   8.829 -0.7077 -0.2656  0.2830
 2315TIP3   OH228503   4.174   0.742   7.844  0.5704  0.0258  0.1818
 2315TIP3    H128504   4.087   0.781   7.849  0.2438 -0.7575  0.9463
 2315TIP3    H228505   4.209   0.773   7.761 -1.0357 -0.8235 -0.8690
 2316TIP3   OH228506   1.728   2.756   7.695  0.0195 -0.2373 -0.2775
 2316TIP3    H128507   1.795   2.808   7.652  0.7149  0.6814  1.7918
 2316TIP3    H228508   1.777   2.686   7.739 -0.4255 -0.0358  0.5722
 2317TIP3   OH228509   0.705   1.321   1.020 -0.0869  0.4273  0.2585
 2317TIP3    H128510   0.738   1.254   0.959  1.0258  0.4449  0.8225
 2317TIP3    H228511   0.729   1.288   1.106  0.2406  1.4370  0.5579
 2318TIP3   OH228512   5.045   0.131   8.391  0.4085 -0.0120 -0.4103
 2318TIP3    H128513   5.074   0.042   8.371  1.6187 -0.0775  1.3484
 2318TIP3    H228514   5.044   0.134   8.487  4.0185  2.8557 -0.2309
 2319TIP3   OH228515   5.536   1.315   8.695 -0.2128  0.0442 -0.7240
 2319TIP3    H128516   5.444   1.305   8.674 -0.8882 -0.5866  2.0423
 2319TIP3    H228517   5.583   1.295   8.614 -2.4529 -0.5492 -1.9328
 2320TIP3   OH228518   1.759   1.215   2.530 -0.3657  0.1804 -0.0273
 2320TIP3    H128519   1.742   1.286   2.593 -2.9383 -0.2042 -0.1840
 2320TIP3    H228520   1.776   1.261   2.447 -0.1177  0.6340  0.2687
 2321TIP3   OH228521   6.170   3.079   2.710  0.3199  0.3962  0.0384
 2321TIP3    H128522   6.263   3.059   2.721  0.0833 -0.1283  1.2940
 2321TIP3    H228523   6.146   3.127   2.790 -0.1569  1.8449 -0.9369
 2322TIP3   OH228524   2.253   5.879   8.730  0.4088  0.3472 -0.2083
 2322TIP3    H128525   2.171   5.850   8.690 -0.2441 -1.3010  2.1100
 2322TIP3    H228526   2.248   5.975   8.727 -1.2089  0.2751 -0.8593
 2323TIP3   OH228527   4.289   3.115   1.377 -0.1349  0.2463  0.6809
 2323TIP3    H128528   4.378   3.117   1.341 -0.8495  1.6870 -1.1869
 2323TIP3    H228529   4.289   3.042   1.438  2.8702  1.3767  2.2099
 2324TIP3   OH228530   3.532   3.134   8.147 -0.2077 -0.0787 -0.1829
 2324TIP3    H128531   3.577   3.172   8.222  0.5311  0.2778 -0.7978
 2324TIP3    H228532   3.541   3.039   8.160  0.7075 -0.0177 -0.2766
 2325TIP3   OH228533   6.201   2.157   6.442 -0.4315  0.5347 -0.1852
 2325TIP3    H128534   6.237   2.089   6.498 -1.4438 -1.4403 -1.7837
 2325TIP3    H228535   6.127   2.192   6.491 -0.7032 -0.4687  0.1570
 2326TIP3   OH228536   2.894   5.762   0.596 -0.1007 -0.2130  0.1629
 2326TIP3    H128537   2.888   5.701   0.523 -3.1000 -2.9722  2.4393
 2326TIP3    H228538   2.838   5.836   0.571 -1.5679 -1.3924 -0.1864
 2327TIP3   OH228539   4.104   2.143   8.112  0.7714  0.8101 -0.0017
 2327TIP3    H128540   4.104   2.206   8.040  0.8225 -0.3946 -1.0717
 2327TIP3    H228541   4.041   2.076   8.086  0.5376  0.5220  1.2382
 2328TIP3   OH228542   2.066   5.658   7.183 -0.3200 -0.2191 -0.0191
 2328TIP3    H128543   2.017   5.691   7.108  1.0292  1.2005 -0.3189
 2328TIP3    H228544   2.088   5.567   7.160 -1.8371 -0.5342 -0.3270
 2329TIP3   OH228545   0.783   4.857   7.075 -0.2306  0.1849 -0.1295
 2329TIP3    H128546   0.871   4.886   7.098 -0.2476 -0.1805  0.4191
 2329TIP3    H228547   0.769   4.889   6.986  1.2881 -1.6033 -1.0618
 2330TIP3   OH228548   0.055   0.676   7.244 -0.4211 -0.2545  0.6042
 2330TIP3    H128549   0.093   0.740   7.183  0.1659  0.3896  1.6018
 2330TIP3    H228550  -0.039   0.678   7.226 -0.0915 -1.4541 -1.5300
 2331TIP3   OH228551   1.433   5.600   7.363  0.2730 -0.1522  0.1233
 2331TIP3    H128552   1.411   5.586   7.455 -0.1596 -0.8138 -0.0698
 2331TIP3    H228553   1.389   5.528   7.317 -0.4873  0.8134 -0.7247
 2332TIP3   OH228554   5.833   4.994   0.119 -0.1091 -0.1611  0.1226
 2332TIP3    H128555   5.788   5.051   0.056 -1.4598 -1.1954  0.0867
 2332TIP3    H228556   5.865   5.053   0.187 -1.0314  0.7052 -0.1619
 2333TIP3   OH228557   6.600   6.089   8.227  0.0522 -0.1385 -0.4064
 2333TIP3    H128558   6.668   6.051   8.171  1.2059  0.5537  0.4704
 2333TIP3    H228559   6.527   6.027   8.223  0.9634 -1.2065 -0.9044
 2334TIP3   OH228560   5.412   1.519   1.161 -0.1160 -1.1424 -0.3687
 2334TIP3    H128561   5.437   1.431   1.190  0.5292 -1.0003 -0.4916
 2334TIP3    H228562   5.446   1.526   1.072 -0.7601 -1.0142 -0.6110
 2335TIP3   OH228563   0.949   0.053   1.049 -0.4151  0.0750 -0.8759
 2335TIP3    H128564   0.907  -0.030   1.071 -0.4667  0.8011  2.2146
 2335TIP3    H228565   0.904   0.118   1.102  1.5051  1.6040 -0.9961
 2336TIP3   OH228566   4.859   1.138   8.574 -0.0735 -0.2067 -0.3938
 2336TIP3    H128567   4.842   1.046   8.596  0.3574 -0.3484 -0.6379
 2336TIP3    H228568   4.924   1.134   8.505 -0.1771  0.2837 -0.5235
 2337TIP3   OH228569   6.510   5.408   8.931  0.7577  0.0991  0.0749
 2337TIP3    H128570   6.555   5.489   8.954  0.7375  0.1268  0.0143
 2337TIP3    H228571   6.525   5.397   8.838  2.5312 -1.0460  0.4511
 2338TIP3   OH228572   5.232   2.491   8.403 -0.0598 -0.2730 -0.3749
 2338TIP3    H128573   5.276   2.575   8.394 -0.7531 -0.0934 -2.6144
 2338TIP3    H228574   5.143   2.507   8.371  0.0315 -2.0176 -1.6349
 2339TIP3   OH228575   1.863   2.027   8.294 -0.0770 -0.0583 -0.2817
 2339TIP3    H128576   1.896   2.071   8.216 -2.5425  0.6302 -1.0254
 2339TIP3    H228577   1.897   1.938   8.287  2.8175  0.9556 -0.1281
 2340TIP3   OH228578   4.533   6.235   1.440 -0.3628  0.4959 -0.5503
 2340TIP3    H128579   4.576   6.272   1.363 -1.2085  0.3362 -1.1015
 2340TIP3    H228580   4.502   6.149   1.412  0.3387 -0.0668  0.3116
 2341TIP3   OH228581   6.164   0.027   8.803 -0.2529  0.2702 -0.6368
 2341TIP3    H128582   6.230  -0.043   8.812 -0.9310 -0.5264 -1.6256
 2341TIP3    H228583   6.097   0.004   8.867  0.3628  1.0336  0.3083
 2342TIP3   OH228584   2.654   1.259   0.816  0.3322  0.1365 -0.2178
 2342TIP3    H128585   2.731   1.202   0.823 -0.7406 -1.2760  0.6258
 2342TIP3    H228586   2.652   1.306   0.900  0.4545  0.4297 -0.3769
 2343TIP3   OH228587   1.743   3.114   8.560  0.5620  0.2589 -0.0472
 2343TIP3    H128588   1.718   3.063   8.483  0.8847  0.4623 -0.2855
 2343TIP3    H228589   1.838   3.109   8.563  0.4853 -2.4010  2.1238
 2344TIP3   OH228590   5.580   5.918   8.525  0.0001 -0.1216 -0.1341
 2344TIP3    H128591   5.585   5.832   8.483 -0.6535  0.4387 -1.4035
 2344TIP3    H228592   5.494   5.920   8.567  0.3585 -0.3939  0.6505
 2345TIP3   OH228593   0.649   0.005   0.940 -0.4616 -0.5225  0.5384
 2345TIP3    H128594   0.643  -0.068   1.001  0.4116 -0.0803  1.1904
 2345TIP3    H228595   0.636   0.083   0.995 -0.8339 -0.1596 -0.0478
 2346TIP3   OH228596   5.153   5.119   8.839  0.1134  0.7032  0.1471
 2346TIP3    H128597   5.137   5.030   8.808 -0.4843  1.1657 -0.9201
 2346TIP3    H228598   5.157   5.111   8.934 -0.4273 -0.3827  0.0907
 2347TIP3   OH228599   2.524   5.675   1.287 -0.2831  0.7203 -0.1318
 2347TIP3    H128600   2.611   5.634   1.291  0.0554  1.4716  0.2830
 2347TIP3    H228601   2.525   5.725   1.205 -0.6345  0.0758 -0.5472
 2348TIP3   OH228602   4.720   4.689   0.565 -0.3464  0.2129 -0.1880
 2348TIP3    H128603   4.681   4.603   0.552 -1.3573  0.7942 -1.1482
 2348TIP3    H228604   4.673   4.747   0.505 -1.4059  1.9472  2.1453
 2349TIP3   OH228605   0.681   6.695   7.880  0.0258  0.5478 -0.0081
 2349TIP3    H128606   0.692   6.722   7.971 -2.3861  0.3146  0.4411
 2349TIP3    H228607   0.711   6.770   7.829  0.9565  0.8758  0.9816
 2350TIP3   OH228608   2.742   1.828   0.631 -0.5242 -0.4868  0.7966
 2350TIP3    H128609   2.715   1.744   0.596 -2.5089  0.9533 -1.4667
 2350TIP3    H228610   2.778   1.875   0.556 -1.5617  1.4427  1.4177
 2351TIP3   OH228611   6.686   1.779   8.385 -0.2101  0.0551 -0.0520
 2351TIP3    H128612   6.645   1.692   8.378 -0.1087 -0.0983  1.0728
 2351TIP3    H228613   6.621   1.838   8.348  0.1989 -0.6132 -1.9118
 2352TIP3   OH228614   5.529   4.789   1.657  0.4896  0.4698  0.6388
 2352TIP3    H128615   5.548   4.700   1.687  1.1197  0.8976  1.5576
 2352TIP3    H228616   5.457   4.818   1.712  0.3236  0.5498  0.3809
 2353TIP3   OH228617   6.711   2.647   7.690 -0.2391  0.0117 -0.1518
 2353TIP3    H128618   6.622   2.666   7.660  0.2333  0.9866 -0.9885
 2353TIP3    H228619   6.767   2.703   7.637  0.7396  0.8739  1.7134
 2354TIP3   OH228620   1.288   0.933   7.406 -0.1467 -0.2166 -0.4004
 2354TIP3    H128621   1.371   0.972   7.434  0.3727 -1.2465 -0.4418
 2354TIP3    H228622   1.232   0.939   7.483  0.3983 -0.6670  0.0421
 2355TIP3   OH228623   0.884   6.471   8.817  0.2591 -0.4895  0.0053
 2355TIP3    H128624   0.911   6.523   8.893 -0.7819  0.2604 -0.1076
 2355TIP3    H228625   0.924   6.515   8.742  0.6090 -0.7429  0.0421
 2356TIP3   OH228626   5.841   2.159   1.471 -0.2253  0.4231 -0.7778
 2356TIP3    H128627   5.929   2.145   1.435  0.1840 -1.7877  0.8603
 2356TIP3    H228628   5.789   2.086   1.439 -0.6656  0.1240  0.5379
 2357TIP3   OH228629   2.186   5.872   7.518  0.5727 -0.3223  0.1051
 2357TIP3    H128630   2.208   5.811   7.588 -0.5645  0.1015  0.8586
 2357TIP3    H228631   2.238   5.950   7.536 -0.9389  0.4230  1.4848
 2358TIP3   OH228632   5.303   1.797   1.591  0.4083 -0.1520  0.3834
 2358TIP3    H128633   5.265   1.831   1.510  3.7691  1.2533 -0.7785
 2358TIP3    H228634   5.340   1.712   1.567 -0.1645 -0.5741  0.9521
 2359TIP3   OH228635   2.346   0.230   2.589  0.4372 -0.1515 -0.4870
 2359TIP3    H128636   2.402   0.296   2.548  0.2263 -0.4502 -1.2848
 2359TIP3    H228637   2.338   0.162   2.522 -2.3945  0.7090 -1.1451
 2360TIP3   OH228638   3.377   0.621   0.037  0.5300  0.1013 -0.1929
 2360TIP3    H128639   3.302   0.655  -0.011  0.5039  0.3447  0.0145
 2360TIP3    H228640   3.423   0.565  -0.025 -0.5355 -1.0974  0.0607
 2361TIP3   OH228641   1.399   1.649   1.044  0.1627  0.0692  0.1873
 2361TIP3    H128642   1.363   1.738   1.053  0.9066  0.4458 -0.4656
 2361TIP3    H228643   1.392   1.613   1.132  0.0573  0.8551  0.5164
 2362TIP3   OH228644   3.794   3.127   1.422 -0.8425  0.4276  0.1551
 2362TIP3    H128645   3.723   3.188   1.445 -2.3258 -1.0586 -0.2987
 2362TIP3    H228646   3.849   3.123   1.501 -2.2248  0.3254  1.1450
 2363TIP3   OH228647   3.703   3.023   0.561  0.7874  0.0847  0.6020
 2363TIP3    H128648   3.608   3.027   0.572  0.9066  0.1938  1.6498
 2363TIP3    H228649   3.728   3.111   0.535  0.4256 -0.3349 -1.3391
 2364TIP3   OH228650   0.949   4.494   7.375 -0.3842  0.0053  0.0129
 2364TIP3    H128651   1.041   4.478   7.397 -0.5672 -0.3113  0.5743
 2364TIP3    H228652   0.918   4.410   7.339 -0.7494 -0.2332  0.8668
 2365TIP3   OH228653   0.975   3.802   0.178 -0.3068 -0.3068  0.3495
 2365TIP3    H128654   1.004   3.875   0.233 -0.7759  0.2329 -0.1099
 2365TIP3    H228655   0.881   3.796   0.194 -0.2032 -1.1235  0.7390
 2366TIP3   OH228656   2.524   3.672   2.127  0.1100 -0.4338  0.2858
 2366TIP3    H128657   2.467   3.743   2.096  0.5984 -0.5538 -0.9676
 2366TIP3    H228658   2.612   3.709   2.122  0.2721 -0.7566  0.7474
 2367TIP3   OH228659   6.597   5.846   8.831  0.3356 -0.0648  0.0503
 2367TIP3    H128660   6.681   5.815   8.799  0.0109 -0.3792 -0.5116
 2367TIP3    H228661   6.616   5.930   8.871  0.3402  1.8078 -3.5169
 2368TIP3   OH228662   2.099   4.495   6.595 -0.6225  0.2256  0.3303
 2368TIP3    H128663   2.014   4.537   6.580  0.3817  2.3397  0.1326
 2368TIP3    H228664   2.081   4.427   6.659 -2.5935  0.1121 -0.2848
 2369TIP3   OH228665   4.984   1.674   1.669  0.3721 -0.1770 -0.1534
 2369TIP3    H128666   4.979   1.677   1.574  0.2564 -0.6299 -0.1626
 2369TIP3    H228667   5.066   1.717   1.691  0.1422  0.4136 -0.4278
 2370TIP3   OH228668   5.701   3.231   8.100  0.3642 -0.0048  0.2807
 2370TIP3    H128669   5.622   3.281   8.122  0.2390 -0.9159  2.1094
 2370TIP3    H228670   5.672   3.140   8.101  1.6978 -0.4674  2.4370
 2371TIP3   OH228671   3.771   2.031   1.086 -0.3510 -0.2057  0.0960
 2371TIP3    H128672   3.861   2.049   1.058 -0.3155 -0.7162 -0.1359
 2371TIP3    H228673   3.719   2.102   1.047 -0.0919 -0.0845 -0.0307
 2372TIP3   OH228674   3.345   2.433   8.759 -0.1749  0.8979  0.2098
 2372TIP3    H128675   3.431   2.467   8.732 -0.9275  2.1491 -0.7377
 2372TIP3    H228676   3.286   2.507   8.748 -1.2438  0.2897  1.6580
 2373TIP3   OH228677   5.604   1.217   8.085  0.2264 -0.1100 -0.1421
 2373TIP3    H128678   5.696   1.207   8.060  1.2651  1.8359  2.4564
 2373TIP3    H228679   5.595   1.164   8.164 -1.3086 -1.3315 -1.0785
 2374TIP3   OH228680   6.499   4.979   8.321  0.0074  0.3529 -0.0776
 2374TIP3    H128681   6.477   5.008   8.233  0.9236  0.0020 -0.4347
 2374TIP3    H228682   6.560   5.045   8.353 -0.5909  0.6699  0.4424
 2375TIP3   OH228683   2.404   2.970   0.251  0.5751 -0.4233  0.5102
 2375TIP3    H128684   2.489   2.990   0.211 -1.2012  1.8873 -2.5131
 2375TIP3    H228685   2.363   2.909   0.190 -0.5773 -0.2296  1.0724
 2376TIP3   OH228686   2.120   6.545   8.352  0.0865  0.1252 -0.2069
 2376TIP3    H128687   2.033   6.555   8.390 -0.0572 -0.4861 -0.3670
 2376TIP3    H228688   2.157   6.634   8.353 -0.1427  0.2272  0.7984
 2377TIP3   OH228689   5.865   4.966   8.414 -0.1456  0.8671 -0.2625
 2377TIP3    H128690   5.875   5.012   8.330 -0.6821 -0.1927 -0.9228
 2377TIP3    H228691   5.939   4.906   8.417 -0.5302  0.3914 -0.3153
 2378TIP3   OH228692   6.653   0.330   8.835  0.3052 -0.6807  0.0827
 2378TIP3    H128693   6.588   0.283   8.887 -0.4680 -1.1305 -1.2334
 2378TIP3    H228694   6.683   0.266   8.771  1.0391 -0.0716 -0.1940
 2379TIP3   OH228695   0.029   0.824   0.253 -0.0086 -0.1667 -0.0302
 2379TIP3    H128696   0.010   0.887   0.322 -0.2453  0.5442 -0.7304
 2379TIP3    H228697  -0.016   0.858   0.176  0.0305 -1.0851 -0.4749
 2380TIP3   OH228698   6.459   1.702   8.589  0.7636  0.2161 -0.2512
 2380TIP3    H128699   6.447   1.640   8.661  0.2068  2.0610  1.3381
 2380TIP3    H228700   6.370   1.720   8.558  0.8151  0.9810  0.0139
 2381TIP3   OH228701   0.212   4.764   7.687  0.4816  0.5386 -0.1756
 2381TIP3    H128702   0.254   4.846   7.662  0.7945  0.6937  0.8010
 2381TIP3    H228703   0.119   4.778   7.673  0.5799  0.8860 -0.4793
 2382TIP3   OH228704   5.650   5.595   8.527  0.7812  0.3810 -0.7696
 2382TIP3    H128705   5.601   5.519   8.559 -0.7139  2.2304  1.7566
 2382TIP3    H228706   5.740   5.565   8.519  0.4585 -1.3903  1.3461
 2383TIP3   OH228707   5.996   6.286   8.048  0.1297  0.5240  0.3002
 2383TIP3    H128708   6.068   6.329   8.093  2.6982 -1.9767 -1.1225
 2383TIP3    H228709   6.010   6.304   7.955 -0.3159 -0.9792 -0.0982
 2384TIP3   OH228710   3.927   2.080   2.424  0.0420 -0.2110 -0.0105
 2384TIP3    H128711   3.890   2.168   2.429 -1.4450 -0.7241 -1.1069
 2384TIP3    H228712   4.019   2.091   2.447  0.1364  1.8017 -1.1072
 2385TIP3   OH228713   4.306   4.837   0.980 -1.0928 -0.1260 -0.4925
 2385TIP3    H128714   4.318   4.864   0.889 -0.9324 -2.9864 -1.4134
 2385TIP3    H228715   4.218   4.801   0.983 -0.7633 -0.8933  0.2656
 2386TIP3   OH228716   5.610   4.184   8.275 -0.2927 -0.1564  0.6848
 2386TIP3    H128717   5.531   4.230   8.303 -0.0702  1.1557 -0.7521
 2386TIP3    H228718   5.579   4.119   8.211 -0.2504  0.1227  0.3800
 2387TIP3   OH228719   1.986   5.240   0.325  0.1944  0.1061 -0.0207
 2387TIP3    H128720   1.992   5.224   0.419  2.7227 -1.9030 -0.3983
 2387TIP3    H228721   2.078   5.244   0.296 -0.5143  0.9121 -2.3739
 2388TIP3   OH228722   5.785   1.153   0.813  0.5135 -0.2460 -0.3073
 2388TIP3    H128723   5.772   1.060   0.831  0.0331 -0.1137  0.0757
 2388TIP3    H228724   5.879   1.166   0.815  0.5270 -0.1593  2.7105
 2389TIP3   OH228725   0.561   5.101   8.606 -0.0942  0.7043 -0.1534
 2389TIP3    H128726   0.578   5.164   8.536 -0.3282  0.6958 -0.2186
 2389TIP3    H228727   0.641   5.101   8.658  0.8007 -0.6387 -1.4491
 2390TIP3   OH228728   0.230   3.605   8.375 -0.0356  0.9661  0.7391
 2390TIP3    H128729   0.160   3.637   8.433 -0.5692 -0.3016  0.8248
 2390TIP3    H228730   0.227   3.664   8.299 -0.8766  1.2176  0.9553
 2391TIP3   OH228731   6.409   2.888   8.269  0.4569  0.0157  0.3163
 2391TIP3    H128732   6.477   2.829   8.302  1.4640  0.4316 -0.9400
 2391TIP3    H228733   6.455   2.947   8.210 -0.9223  0.6296 -0.1860
 2392TIP3   OH228734   1.381   6.700   7.650 -0.2048 -0.0003  0.7464
 2392TIP3    H128735   1.453   6.709   7.588  1.2109 -1.1172  2.1457
 2392TIP3    H228736   1.398   6.768   7.715  0.0564 -0.7672  1.4947
 2393TIP3   OH228737   0.580   1.218   8.800  0.2157 -0.2899 -0.0017
 2393TIP3    H128738   0.552   1.212   8.892 -0.0525  0.3486 -0.0382
 2393TIP3    H228739   0.499   1.213   8.750  0.3726 -0.7476 -0.2089
 2394TIP3   OH228740   4.566   0.782   1.262  0.2892  0.5235 -0.0717
 2394TIP3    H128741   4.560   0.820   1.350  1.8154  1.2643 -0.2539
 2394TIP3    H228742   4.478   0.792   1.226  0.0607  1.7599  0.7558
 2395TIP3   OH228743   6.703   4.636   1.687  0.0389  0.2940  0.4350
 2395TIP3    H128744   6.700   4.566   1.621  0.0097  0.9804 -0.3071
 2395TIP3    H228745   6.795   4.660   1.693 -0.0010  0.4496  0.4179
 2396TIP3   OH228746   6.422   6.280   8.128  0.1916  0.0311  0.1102
 2396TIP3    H128747   6.410   6.331   8.208  0.0420  1.9402 -1.0500
 2396TIP3    H228748   6.474   6.205   8.155 -3.4506 -1.8250  2.8389
 2397TIP3   OH228749   6.166   5.175   2.046 -0.5204  0.3923 -0.4630
 2397TIP3    H128750   6.250   5.219   2.054 -0.7519  0.8903 -0.7481
 2397TIP3    H228751   6.115   5.205   2.121 -1.1140  1.5938 -1.3138
 2398TIP3   OH228752   4.591   1.421   2.504  0.6561  0.5625 -0.2534
 2398TIP3    H128753   4.540   1.377   2.572 -0.2040  0.8844 -0.6708
 2398TIP3    H228754   4.636   1.492   2.550  2.2887 -0.8880  0.4795
 2399TIP3   OH228755   4.092   6.044   1.046 -0.4829 -0.4412  0.5950
 2399TIP3    H128756   4.041   6.113   1.088  0.2538 -0.6021  1.8242
 2399TIP3    H228757   4.033   5.969   1.043 -0.7859 -0.2098  0.6628
 2400TIP3   OH228758   2.575   2.633   0.572 -0.4644 -0.2935  0.2541
 2400TIP3    H128759   2.531   2.574   0.510 -0.3886 -0.5943  0.4795
 2400TIP3    H228760   2.653   2.584   0.599 -0.1288  0.1312  0.0509
 2401TIP3   OH228761   1.104   2.307   6.758 -0.0801  0.0168 -0.0260
 2401TIP3    H128762   1.048   2.361   6.814  0.8001  1.8837 -0.8686
 2401TIP3    H228763   1.044   2.243   6.719 -1.0311 -0.1043  1.5523
 2402TIP3   OH228764   3.259   1.830   8.235 -0.1494 -0.0635 -0.8103
 2402TIP3    H128765   3.203   1.753   8.240  0.1466 -0.2376 -0.0545
 2402TIP3    H228766   3.287   1.834   8.143  0.7145 -1.4955 -0.6284
 2403TIP3   OH228767   5.492   2.694   2.267  0.1642  0.9012 -0.2157
 2403TIP3    H128768   5.421   2.752   2.293 -0.8901 -0.9403  1.2597
 2403TIP3    H228769   5.450   2.625   2.216  0.7468 -0.4279  1.0042
 2404TIP3   OH228770   0.059   3.048   7.178  0.5169  0.2061  0.7842
 2404TIP3    H128771   0.082   3.007   7.095  0.2470 -1.0935  1.3387
 2404TIP3    H228772  -0.036   3.040   7.185  0.6837 -1.0856  1.9117
 2405TIP3   OH228773   5.812   0.319   1.932  0.1431  0.2317 -0.1926
 2405TIP3    H128774   5.748   0.273   1.879  1.1780  0.7792 -2.0127
 2405TIP3    H228775   5.883   0.255   1.945  0.0974  0.2480  0.1482
 2406TIP3   OH228776   5.741   3.378   8.342  0.0449 -0.3388 -0.8056
 2406TIP3    H128777   5.725   3.292   8.304 -2.3742  0.3428 -1.5191
 2406TIP3    H228778   5.753   3.362   8.435  1.9484 -1.6150 -1.1900
 2407TIP3   OH228779   4.500   3.110   8.260  0.0220 -0.3443 -0.1976
 2407TIP3    H128780   4.531   3.172   8.327  0.8276 -0.8650 -0.0704
 2407TIP3    H228781   4.412   3.140   8.238  0.2367  0.5904  0.1762
 2408TIP3   OH228782   3.337   6.408   7.387  1.2898  0.1558 -0.0390
 2408TIP3    H128783   3.281   6.486   7.393  1.2524  0.2171 -1.1220
 2408TIP3    H228784   3.320   6.373   7.300  0.1220 -1.9776  0.9676
 2409TIP3   OH228785   6.406   1.605   6.927  0.4683 -0.0037 -0.2352
 2409TIP3    H128786   6.483   1.574   6.974 -0.0742  0.6684  1.1503
 2409TIP3    H228787   6.419   1.574   6.837  3.3100  1.7321 -0.5619
 2410TIP3   OH228788   3.559   1.530   7.174  0.3460 -0.0499 -0.3431
 2410TIP3    H128789   3.544   1.611   7.126 -0.4638  0.6104  0.9601
 2410TIP3    H228790   3.606   1.557   7.253 -0.3325 -0.7625  0.3268
 2411TIP3   OH228791   2.068   4.920   8.067  0.4102  0.5341  0.4030
 2411TIP3    H128792   2.146   4.968   8.096  0.6570  1.7436 -2.0342
 2411TIP3    H228793   2.020   4.983   8.014 -2.2931 -0.1856  1.8094
 2412TIP3   OH228794   1.657   1.683   1.591  0.3079 -0.8979 -0.6398
 2412TIP3    H128795   1.714   1.722   1.659  0.3448 -0.9939 -0.6158
 2412TIP3    H228796   1.571   1.721   1.608  0.3288 -0.8791 -0.5736
 2413TIP3   OH228797   1.701   4.847   6.475 -0.9703  0.5808 -1.1037
 2413TIP3    H128798   1.734   4.919   6.422 -1.1168  1.0691 -0.5335
 2413TIP3    H228799   1.627   4.883   6.523  0.7595  0.9732  1.5043
 2414TIP3   OH228800   5.133   1.308   7.882  0.6124 -0.4680  0.0602
 2414TIP3    H128801   5.086   1.328   7.963  0.2028 -0.9980 -0.0414
 2414TIP3    H228802   5.201   1.247   7.908  1.1590  0.1804  0.1803
 2415TIP3   OH228803   3.503   1.734   0.399 -0.2490 -0.0176 -0.3105
 2415TIP3    H128804   3.575   1.728   0.462  0.6976 -0.3416 -1.3833
 2415TIP3    H228805   3.430   1.772   0.448  0.9018  1.0819  0.6136
 2416TIP3   OH228806   3.823   1.320   7.910 -0.4928  0.0576 -0.1528
 2416TIP3    H128807   3.760   1.383   7.945 -0.9093  0.9084 -2.2613
 2416TIP3    H228808   3.907   1.367   7.911 -0.8219  0.7642 -1.8226
 2417TIP3   OH228809   1.350   0.738   7.943 -0.0690 -0.0701  0.0430
 2417TIP3    H128810   1.294   0.669   7.907  1.2148 -1.0144 -0.2236
 2417TIP3    H228811   1.313   0.819   7.909 -2.0445 -0.5208  0.9223
 2418TIP3   OH228812   2.063   3.269   2.455  0.8262  0.3566  0.4831
 2418TIP3    H128813   1.976   3.242   2.483  0.3584  1.2771 -0.0546
 2418TIP3    H228814   2.071   3.235   2.365  1.3297 -0.3864  0.7970
 2419TIP3   OH228815   2.101   0.845   0.545 -0.2142 -0.0922 -0.2506
 2419TIP3    H128816   2.144   0.911   0.599 -1.3345  0.9262 -0.5637
 2419TIP3    H228817   2.056   0.788   0.608 -0.7017  0.5051 -0.0505
 2420TIP3   OH228818   5.521   5.021   1.201 -0.4515  0.2624 -0.2994
 2420TIP3    H128819   5.510   4.944   1.257  0.9327 -0.1491 -0.5446
 2420TIP3    H228820   5.434   5.060   1.196 -1.3644 -1.6879 -0.7614
 2421TIP3   OH228821   3.773   1.622   2.451  0.5098 -0.3485  0.0278
 2421TIP3    H128822   3.702   1.558   2.443  1.0011 -0.7648 -1.0703
 2421TIP3    H228823   3.824   1.592   2.527 -1.5960  1.0816  2.1508
 2422TIP3   OH228824   3.691   1.560   8.034 -0.2107 -0.2631  0.3292
 2422TIP3    H128825   3.641   1.569   8.115  0.5311 -1.0280  0.8875
 2422TIP3    H228826   3.757   1.629   8.039  0.5471 -1.0119  0.9246
 2423TIP3   OH228827   5.282   0.047   8.139  0.1640 -0.7275 -0.4207
 2423TIP3    H128828   5.293  -0.046   8.157 -2.0006 -0.6800  1.7274
 2423TIP3    H228829   5.289   0.089   8.224  0.8054  1.0734 -1.3124
 2424TIP3   OH228830   1.451   3.117   8.494 -0.0301  0.3324 -0.0934
 2424TIP3    H128831   1.434   3.024   8.509  0.5257  0.0575 -1.0521
 2424TIP3    H228832   1.545   3.121   8.475  0.0539  1.1635  0.4535
 2425TIP3   OH228833   6.727   2.830   7.968 -0.3053 -0.0924 -0.3679
 2425TIP3    H128834   6.721   2.920   7.937  1.2300 -0.0614 -0.6549
 2425TIP3    H228835   6.715   2.776   7.890  0.1719 -0.0888 -0.4501
 2426TIP3   OH228836   0.469   1.711   0.453 -0.4847 -0.0501 -0.1832
 2426TIP3    H128837   0.470   1.707   0.548 -0.4754 -1.9017 -0.2354
 2426TIP3    H228838   0.562   1.717   0.428 -0.4707  0.1161 -0.0943
 2427TIP3   OH228839   5.682   0.223   7.235  0.2650  0.1394 -0.5434
 2427TIP3    H128840   5.593   0.252   7.218 -0.5634 -2.0167 -0.1336
 2427TIP3    H228841   5.685   0.206   7.329  0.9384 -0.3522 -0.6460
 2428TIP3   OH228842   3.520   1.403   8.754 -0.2286  0.5614 -0.4102
 2428TIP3    H128843   3.535   1.422   8.661 -0.3649 -0.6567 -0.7025
 2428TIP3    H228844   3.448   1.340   8.754 -0.6778  1.0650  0.5687
 2429TIP3   OH228845   0.852   2.480   0.394  0.0848  0.2697 -0.2354
 2429TIP3    H128846   0.855   2.406   0.333 -1.7321 -1.7526  1.9315
 2429TIP3    H228847   0.760   2.484   0.423  0.6105  1.9306  1.4090
 2430TIP3   OH228848   0.157   5.114   1.523  0.4038 -0.2085 -0.4246
 2430TIP3    H128849   0.116   5.048   1.580 -1.1787 -1.1633 -2.5105
 2430TIP3    H228850   0.173   5.189   1.581  1.8562 -2.1801  1.9580
 2431TIP3   OH228851   2.760   5.273   7.604 -0.6086  0.1831 -0.0512
 2431TIP3    H128852   2.755   5.321   7.686  0.7724 -1.2823  0.9439
 2431TIP3    H228853   2.823   5.320   7.551  0.1430 -0.0685  0.6067
 2432TIP3   OH228854   0.657   2.796   0.035  0.0481  0.3354 -0.4109
 2432TIP3    H128855   0.680   2.882   0.070 -1.3234  0.1636  1.0220
 2432TIP3    H228856   0.718   2.735   0.078 -1.3498  0.1804  1.5066
 2433TIP3   OH228857   6.629   5.533   7.021 -0.1101 -0.1554 -0.0964
 2433TIP3    H128858   6.610   5.512   7.113 -1.7915  0.7619 -0.1973
 2433TIP3    H228859   6.575   5.610   7.002  0.3976 -0.1788 -1.7874
 2434TIP3   OH228860   1.444   0.690   1.442 -0.1763  0.5445 -0.0898
 2434TIP3    H128861   1.386   0.624   1.481 -0.1221  0.0955 -0.7548
 2434TIP3    H228862   1.453   0.663   1.351  1.9316 -0.0018  0.2238
 2435TIP3   OH228863   2.945   3.295   6.635  0.3432  0.1156 -0.1478
 2435TIP3    H128864   2.987   3.335   6.558  1.2189  2.0560  1.2442
 2435TIP3    H228865   2.937   3.202   6.612  3.1474  0.0944 -1.5082
 2436TIP3   OH228866   3.988   1.909   2.029 -0.4062 -0.2513 -0.3027
 2436TIP3    H128867   4.025   1.897   1.942  0.6165 -0.3144  0.1260
 2436TIP3    H228868   4.057   1.954   2.079 -1.6266  1.3579  0.0013
 2437TIP3   OH228869   5.386   2.928   0.038  0.2892 -0.3488 -0.2043
 2437TIP3    H128870   5.471   2.971   0.039  0.4177 -0.6004 -0.0123
 2437TIP3    H228871   5.407   2.835   0.053  0.2036 -0.8024 -2.5278
 2438TIP3   OH228872   0.370   3.078   1.145 -0.0184 -0.1437 -0.0643
 2438TIP3    H128873   0.405   3.132   1.215 -0.7289  1.6951 -1.0616
 2438TIP3    H228874   0.407   3.115   1.064 -1.8575 -0.0077 -0.9036
 2439TIP3   OH228875   3.212   0.634   7.465 -0.2335  0.0882 -0.0291
 2439TIP3    H128876   3.124   0.611   7.435  0.5336  0.7154 -3.0389
 2439TIP3    H228877   3.267   0.561   7.438  0.2996 -0.1450  1.5369
 2440TIP3   OH228878   5.661   2.657   1.974  0.6032  0.1181  0.3585
 2440TIP3    H128879   5.656   2.714   2.051 -0.3023 -1.0639  1.1986
 2440TIP3    H228880   5.699   2.576   2.006  2.0187  0.2485 -0.8660
 2441TIP3   OH228881   0.159   5.365   1.662  0.2091 -0.3286 -0.1987
 2441TIP3    H128882   0.126   5.311   1.735 -0.7652  0.6746  0.1246
 2441TIP3    H228883   0.084   5.417   1.635  1.3463  1.6013  0.1543
 2442TIP3   OH228884   1.269   0.987   8.699  0.1485  0.1917 -0.2098
 2442TIP3    H128885   1.281   0.942   8.783  1.9859  1.6584  0.4023
 2442TIP3    H228886   1.200   1.051   8.716  1.0674  1.0364  0.4769
 2443TIP3   OH228887   4.273   4.291   7.911 -0.1449  0.4058  0.2834
 2443TIP3    H128888   4.351   4.292   7.855 -0.7088 -0.2093 -0.5218
 2443TIP3    H228889   4.225   4.370   7.887 -0.2739  0.2591  0.0581
 2444TIP3   OH228890   4.235   2.130   1.645 -0.2925 -0.2820  0.6229
 2444TIP3    H128891   4.273   2.125   1.732  1.9358  1.8969 -0.1181
 2444TIP3    H228892   4.249   2.221   1.617 -0.3621 -1.0347 -2.2234
 2445TIP3   OH228893   5.152   1.795   6.496  0.6526 -0.7564  0.1176
 2445TIP3    H128894   5.077   1.776   6.553  0.1505  0.0814 -0.2415
 2445TIP3    H228895   5.151   1.890   6.487  2.1372 -0.6690  0.5992
 2446TIP3   OH228896   4.909   2.287   7.511 -0.3952  0.0556  0.1529
 2446TIP3    H128897   4.859   2.338   7.447 -0.5282  1.0049  0.9727
 2446TIP3    H228898   4.870   2.200   7.509 -0.2154 -0.0128 -1.2371
 2447TIP3   OH228899   3.628   5.445   8.950 -0.3451 -0.4943 -0.2734
 2447TIP3    H128900   3.582   5.520   8.913 -0.7333 -0.7912 -0.4118
 2447TIP3    H228901   3.588   5.433   9.036  0.3106 -0.0223  0.1031
 2448TIP3   OH228902   3.354   2.703   7.507 -0.3279 -0.0989 -0.4128
 2448TIP3    H128903   3.375   2.611   7.524  0.5622 -0.0985 -1.4510
 2448TIP3    H228904   3.276   2.701   7.452 -1.5769 -0.1553  1.2647
 2449TIP3   OH228905   4.304   6.101   0.135 -0.4746  0.6534  0.0181
 2449TIP3    H128906   4.373   6.065   0.190 -0.3517 -2.0312 -1.7298
 2449TIP3    H228907   4.222   6.069   0.174 -0.3916 -1.1686 -1.1943
 2450TIP3   OH228908   1.631   4.076   1.135 -0.2956 -0.3658  0.7216
 2450TIP3    H128909   1.541   4.104   1.154 -0.0330 -1.0550  3.3346
 2450TIP3    H228910   1.626   3.981   1.131 -0.1624 -0.3401 -2.3847
 2451TIP3   OH228911   0.162   1.470   1.508  0.0907  0.0618  0.2349
 2451TIP3    H128912   0.076   1.488   1.546 -0.4420 -0.2530 -0.7876
 2451TIP3    H228913   0.219   1.455   1.584 -1.1087 -1.3346  0.8999
 2452TIP3   OH228914   0.463   0.217   0.104  0.1664 -0.0985 -0.1810
 2452TIP3    H128915   0.389   0.275   0.088  0.4330  0.5336  0.8050
 2452TIP3    H228916   0.449   0.143   0.044 -1.2357  0.0181 -0.0309
 2453TIP3   OH228917   5.825   2.520   6.798 -0.0599  0.0245  0.1233
 2453TIP3    H128918   5.826   2.453   6.867  2.2666  0.0165  0.1653
 2453TIP3    H228919   5.736   2.555   6.801 -1.5698 -3.3314 -0.2052
 2454TIP3   OH228920   3.739   0.904   0.639  0.4407 -0.1172 -0.4301
 2454TIP3    H128921   3.669   0.841   0.627 -0.1228  0.6429 -1.3314
 2454TIP3    H228922   3.716   0.976   0.580  1.4066  0.6287  0.0770
 2455TIP3   OH228923   3.544   1.086   7.507 -0.6292  0.4690  0.3688
 2455TIP3    H128924   3.498   1.026   7.567 -0.4067 -1.4388 -1.2683
 2455TIP3    H228925   3.517   1.058   7.420  0.2099  2.2197 -0.5017
 2456TIP3   OH228926   1.702   0.131   1.494  0.3530  0.1500  0.4354
 2456TIP3    H128927   1.647   0.139   1.416 -0.2201  0.0538  0.8174
 2456TIP3    H228928   1.791   0.145   1.463  0.1437 -0.0241 -0.2585
 2457TIP3   OH228929   5.536   0.806   8.771  0.1353 -0.3107 -0.5172
 2457TIP3    H128930   5.627   0.817   8.744  0.2810  0.4131  0.2101
 2457TIP3    H228931   5.486   0.859   8.709  0.2101 -0.6911 -0.9041
 2458TIP3   OH228932   6.503   0.815   0.361  0.6240  0.1899  0.1790
 2458TIP3    H128933   6.595   0.806   0.386  0.6718  0.2408  0.0243
 2458TIP3    H228934   6.489   0.909   0.352  0.6126  0.1715 -0.0008
 2459TIP3   OH228935   1.491   3.482   0.939  0.2533  0.1902 -0.7601
 2459TIP3    H128936   1.435   3.544   0.986  0.7853  0.3392 -0.3151
 2459TIP3    H228937   1.572   3.479   0.990 -0.0409 -1.4497 -0.3337
 2460TIP3   OH228938   4.458   0.621   0.920 -0.4889  0.4028  0.1137
 2460TIP3    H128939   4.398   0.547   0.906 -0.6560  0.7012 -0.7958
 2460TIP3    H228940   4.541   0.592   0.882 -1.0258  1.3328 -1.9048
 2461TIP3   OH228941   0.739   0.303   0.120  0.2201  0.0665  0.3086
 2461TIP3    H128942   0.646   0.325   0.114 -0.0838 -1.2857 -0.2457
 2461TIP3    H228943   0.748   0.256   0.203  0.3930  0.0739  0.2951
 2462TIP3   OH228944   0.380   2.123   1.601  0.2696  0.3779 -0.4694
 2462TIP3    H128945   0.452   2.062   1.589 -0.7336 -0.8190 -0.6137
 2462TIP3    H228946   0.333   2.089   1.677 -0.4706  0.8089 -0.7281
 2463TIP3   OH228947   6.686   0.604   8.771 -0.3837 -0.5012  0.4996
 2463TIP3    H128948   6.593   0.627   8.780 -0.4496 -1.3727  2.5328
 2463TIP3    H228949   6.689   0.510   8.789  0.8343 -0.6331 -0.2544
 2464TIP3   OH228950   3.295   4.662   7.298 -0.5596 -0.0661  0.5371
 2464TIP3    H128951   3.387   4.666   7.273  0.0087  0.4159  2.4817
 2464TIP3    H228952   3.249   4.711   7.230  0.4110 -1.4491 -1.1874
 2465TIP3   OH228953   2.069   4.035   1.791 -0.3199  0.0596  0.1591
 2465TIP3    H128954   2.092   4.052   1.883 -1.3737  0.6528  0.3396
 2465TIP3    H228955   1.991   3.980   1.797 -1.2053  1.2068 -0.3361
 2466TIP3   OH228956   0.378   1.629   2.083  0.2113  0.4634  0.1030
 2466TIP3    H128957   0.383   1.566   2.155  0.7934 -1.1130 -1.2506
 2466TIP3    H228958   0.286   1.652   2.077  0.1730  0.7265  1.4170
 2467TIP3   OH228959   5.390   1.213   0.703 -1.1350 -0.3659 -0.4889
 2467TIP3    H128960   5.408   1.188   0.612  1.2518 -0.5008 -0.0348
 2467TIP3    H228961   5.384   1.129   0.749  0.8525 -0.3024 -0.0191
 2468TIP3   OH228962   1.834   2.613   0.802 -0.2924 -0.1049  0.4078
 2468TIP3    H128963   1.761   2.553   0.788  0.1947 -0.5684 -0.1575
 2468TIP3    H228964   1.892   2.568   0.863 -0.9809  0.7084  1.7163
 2469TIP3   OH228965   3.786   1.619   8.508  0.2439  0.0019  0.2656
 2469TIP3    H128966   3.759   1.530   8.483  2.4948 -0.9304  0.8812
 2469TIP3    H228967   3.877   1.609   8.536 -0.3333  1.9926  3.2652
 2470TIP3   OH228968   6.242   5.267   7.062  0.5123 -0.1503 -0.0604
 2470TIP3    H128969   6.231   5.342   7.004 -0.5535  0.5538  1.0271
 2470TIP3    H228970   6.163   5.214   7.049 -0.3493  0.6466  1.6122
 2471TIP3   OH228971   0.701   2.860   1.717 -0.4525  0.2485 -0.4521
 2471TIP3    H128972   0.790   2.884   1.743  0.1663 -0.9530 -1.3660
 2471TIP3    H228973   0.648   2.874   1.795  0.5868  0.7272  0.1845
 2472TIP3   OH228974   6.428   5.070   7.141  0.4961 -0.9441  0.0226
 2472TIP3    H128975   6.500   5.129   7.165 -0.0688  0.7361 -2.0112
 2472TIP3    H228976   6.351   5.127   7.138 -0.9397 -2.6323  1.8302
 2473TIP3   OH228977   3.958   4.093   1.487  0.1152  0.0249  0.1665
 2473TIP3    H128978   3.910   4.168   1.454  1.8864  0.1867 -2.3403
 2473TIP3    H228979   4.050   4.122   1.488  0.5345 -1.1923  1.9662
 2474TIP3   OH228980   0.206   1.043   0.516  0.3484 -0.0210 -0.1074
 2474TIP3    H128981   0.250   1.101   0.453 -0.6046  0.2443 -0.5523
 2474TIP3    H228982   0.276   0.989   0.552  1.0421  0.4179 -0.7662
 2475TIP3   OH228983   3.430   4.519   2.000  0.5267 -0.6804  0.7373
 2475TIP3    H128984   3.441   4.437   2.048 -2.1099 -1.4425  0.2259
 2475TIP3    H228985   3.513   4.565   2.011  0.9505 -1.9531  3.8003
 2476TIP3   OH228986   6.041   4.130   7.093 -0.1866  0.0880  0.7000
 2476TIP3    H128987   6.116   4.188   7.079 -0.2044  0.2917  1.4354
 2476TIP3    H228988   5.988   4.175   7.159 -0.7676 -0.2346  0.4552
 2477TIP3   OH228989   6.705   4.063   1.425  0.2922  0.0085  0.4285
 2477TIP3    H128990   6.761   4.126   1.470 -0.5569 -0.9665  3.0228
 2477TIP3    H228991   6.726   3.979   1.467  1.2429 -1.4978 -2.7480
 2478TIP3   OH228992   5.515   5.369   7.379  0.2031  0.7170  0.4125
 2478TIP3    H128993   5.518   5.291   7.324 -1.1829 -0.0635  1.3841
 2478TIP3    H228994   5.603   5.374   7.417  0.5687  0.1194 -0.3245
 2479TIP3   OH228995   0.903   4.667   1.667  0.0624  0.2497  0.0714
 2479TIP3    H128996   0.868   4.673   1.578  0.3525 -2.8488 -0.3414
 2479TIP3    H228997   0.971   4.735   1.669 -0.0991  0.5625 -1.9734
 2480TIP3   OH228998   6.678   0.357   7.359 -0.3840  0.2354 -0.1993
 2480TIP3    H128999   6.663   0.439   7.312  1.1542 -0.2756 -1.6463
 2480TIP3    H229000   6.768   0.363   7.391 -0.0146 -1.1483 -0.8980
 2481TIP3   OH229001   2.417   1.567   2.118  0.2986  0.1008 -0.5353
 2481TIP3    H129002   2.465   1.544   2.198  0.9985 -0.4993 -1.1099
 2481TIP3    H229003   2.424   1.663   2.113 -0.3330  0.2088  0.4697
 2482TIP3   OH229004   0.304   0.937   1.411 -0.2901 -0.2132 -0.2825
 2482TIP3    H129005   0.249   1.014   1.423 -0.7806 -0.4445 -1.0048
 2482TIP3    H229006   0.257   0.867   1.458  0.0111 -0.1421  0.1319
 2483TIP3   OH229007   5.752   6.553   8.412 -0.0433 -0.3748  0.3240
 2483TIP3    H129008   5.773   6.568   8.320  1.3115 -0.4758  0.6005
 2483TIP3    H229009   5.763   6.638   8.453  0.9430 -0.6568  0.6690
 2484TIP3   OH229010   2.794   6.360   1.112 -0.7491  0.4701  0.1547
 2484TIP3    H129011   2.884   6.346   1.083 -1.2786 -0.0868 -1.3327
 2484TIP3    H229012   2.767   6.276   1.150 -0.9710  0.3140 -0.3458
 2485TIP3   OH229013   3.298   0.760   0.344 -0.1159  0.1304  0.1545
 2485TIP3    H129014   3.358   0.831   0.321 -0.6166  0.6882  0.5604
 2485TIP3    H229015   3.339   0.681   0.307 -1.4362  1.0678 -3.8050
 2486TIP3   OH229016   5.141   5.906   0.081  0.2144  0.2700  0.6879
 2486TIP3    H129017   5.183   5.843   0.022 -0.8039 -1.5558  1.8395
 2486TIP3    H229018   5.054   5.870   0.097 -0.7622  2.4649  0.6833
 2487TIP3   OH229019   0.255   2.313   0.116  0.9157  0.2225 -0.3365
 2487TIP3    H129020   0.226   2.403   0.128  2.2141  0.8212 -1.3940
 2487TIP3    H229021   0.195   2.261   0.169  1.3113  1.8571  1.8407
 2488TIP3   OH229022   2.017   6.432   8.120  0.2996  0.7718 -0.3932
 2488TIP3    H129023   2.027   6.472   8.206 -0.5232 -0.5783  0.3723
 2488TIP3    H229024   2.080   6.477   8.064  1.2689  1.2623  1.0571
 2489TIP3   OH229025   6.541   5.557   1.210 -0.6202  0.4234  0.1055
 2489TIP3    H129026   6.525   5.483   1.269 -0.4594 -0.0086 -0.3967
 2489TIP3    H229027   6.637   5.563   1.204 -0.6212  0.9937  0.5462
 2490TIP3   OH229028   5.466   4.932   6.404 -0.5306  0.5799  0.3031
 2490TIP3    H129029   5.442   5.018   6.370 -0.9521  0.3829  0.0891
 2490TIP3    H229030   5.402   4.872   6.364 -0.3832  0.2018  0.6271
 2491TIP3   OH229031   3.177   6.262   7.143  0.0889 -0.5926  0.2511
 2491TIP3    H129032   3.155   6.237   7.054 -1.2777  0.8166  0.1484
 2491TIP3    H229033   3.126   6.202   7.198  0.0615 -0.7283  0.0763
 2492TIP3   OH229034   0.485   4.159   8.169 -0.1393 -0.1225  0.0860
 2492TIP3    H129035   0.576   4.131   8.167  0.0085  0.3250  0.4618
 2492TIP3    H229036   0.482   4.226   8.237 -0.3714  1.1727 -1.1448
 2493TIP3   OH229037   3.550   1.041   1.108 -0.7271  0.0716  0.1862
 2493TIP3    H129038   3.635   1.079   1.084 -1.3521  1.1049 -0.3965
 2493TIP3    H229039   3.532   0.978   1.038 -0.8989  0.5611 -0.2147
 2494TIP3   OH229040   2.447   1.329   8.871 -0.1787 -0.5202 -0.4720
 2494TIP3    H129041   2.517   1.264   8.878  2.1217  1.8590  0.2283
 2494TIP3    H229042   2.453   1.361   8.781  2.0854  2.1080  0.4991
 2495TIP3   OH229043   3.748   5.005   8.247 -0.5569 -0.1295  0.8077
 2495TIP3    H129044   3.766   4.999   8.153  1.4639 -1.2690  1.2130
 2495TIP3    H229045   3.719   4.917   8.271  1.0218 -0.4496  1.6176
 2496TIP3   OH229046   6.323   2.378   0.655  1.1360 -0.7802 -0.5890
 2496TIP3    H129047   6.373   2.358   0.734  0.6585 -0.0011 -0.0714
 2496TIP3    H229048   6.373   2.339   0.583  2.0929 -0.6323 -0.0104
 2497TIP3   OH229049   2.399   4.415   1.299 -0.1199 -0.2889  0.5716
 2497TIP3    H129050   2.379   4.505   1.272  1.6511  0.3289  1.2146
 2497TIP3    H229051   2.343   4.400   1.375  0.1935  0.5891  0.9898
 2498TIP3   OH229052   1.085   2.728   7.776  0.2973 -0.2705 -0.4970
 2498TIP3    H129053   1.076   2.706   7.683 -0.8162  1.1337 -0.7408
 2498TIP3    H229054   1.140   2.806   7.776 -0.0178 -0.0511  0.0014
 2499TIP3   OH229055   0.498   5.836   6.603 -0.1414  0.1228  0.1684
 2499TIP3    H129056   0.481   5.839   6.509  0.2796 -0.1232  0.0835
 2499TIP3    H229057   0.431   5.893   6.641 -0.1183  0.4729 -0.3071
 2500TIP3   OH229058   2.296   1.130   1.157 -0.0725  0.4370  0.3121
 2500TIP3    H129059   2.215   1.162   1.116  1.0793  1.0537 -1.6320
 2500TIP3    H229060   2.286   1.034   1.158 -1.1643  0.5386  0.9144
 2501TIP3   OH229061   2.394   4.433   7.617 -0.0692 -0.1179 -0.3900
 2501TIP3    H129062   2.463   4.440   7.551  0.5180 -0.8979  0.1250
 2501TIP3    H229063   2.324   4.488   7.584  0.5978  0.2739 -1.1857
 2502TIP3   OH229064   0.550   0.958   7.399  0.4504  0.4629 -0.1168
 2502TIP3    H129065   0.548   0.884   7.339  0.2318 -0.9984  1.5998
 2502TIP3    H229066   0.635   0.952   7.442  0.3432  1.0790  0.1934
 2503TIP3   OH229067   3.431   4.663   1.182  0.3602 -0.5454 -0.4557
 2503TIP3    H129068   3.429   4.577   1.142 -1.3904 -0.5855 -0.3631
 2503TIP3    H229069   3.413   4.724   1.110  0.1227 -0.3819 -0.2614
 2504TIP3   OH229070   5.846   5.713   0.990  0.2831 -0.3041 -0.0430
 2504TIP3    H129071   5.870   5.720   1.082  1.0379 -1.1774 -0.1580
 2504TIP3    H229072   5.768   5.658   0.989  0.5290 -0.6504  0.0356
 2505TIP3   OH229073   0.034   2.622   0.013 -0.3236  0.0813  0.1669
 2505TIP3    H129074   0.009   2.552  -0.047 -0.6563 -0.5599  1.0302
 2505TIP3    H229075  -0.019   2.697  -0.015  0.4445  0.1790 -1.1178
 2506TIP3   OH229076   2.382   2.096   7.549 -0.1758  0.0520 -0.9933
 2506TIP3    H129077   2.403   2.003   7.549  2.4064  0.5334  1.0306
 2506TIP3    H229078   2.416   2.129   7.466  1.4420 -0.3675 -0.5225
 2507TIP3   OH229079   0.909   0.453   6.516 -0.2380 -1.1790 -1.0492
 2507TIP3    H129080   0.952   0.368   6.501  0.6352 -0.9991  0.3228
 2507TIP3    H229081   0.865   0.443   6.600  0.4996 -0.0503 -0.4972
 2508TIP3   OH229082   5.945   5.585   7.551 -0.1961  0.3051  0.6511
 2508TIP3    H129083   5.948   5.663   7.607 -1.6697 -0.2516  1.5988
 2508TIP3    H229084   5.879   5.606   7.485 -1.2702 -0.4104  1.4456
 2509TIP3   OH229085   4.145   1.392   1.084  0.3935  0.0858  0.6430
 2509TIP3    H129086   4.055   1.361   1.094  0.4232 -0.5629 -0.8137
 2509TIP3    H229087   4.200   1.318   1.108  0.4983 -0.1652 -0.3248
 2510TIP3   OH229088   6.336   0.367   7.300 -0.6058 -0.0491  0.0666
 2510TIP3    H129089   6.391   0.432   7.256 -0.0721 -1.4470 -1.4184
 2510TIP3    H229090   6.398   0.301   7.331 -1.1813 -0.0931  1.1436
 2511TIP3   OH229091   0.579   6.159   8.953 -0.2045 -0.8885  0.2049
 2511TIP3    H129092   0.513   6.098   8.986 -1.3687  1.0923  1.7174
 2511TIP3    H229093   0.532   6.218   8.895  0.2974  0.2506  0.9104
 2512TIP3   OH229094   1.270   6.706   2.293  0.4122 -0.1247  0.1988
 2512TIP3    H129095   1.260   6.773   2.225  1.0503 -0.2428 -0.0166
 2512TIP3    H229096   1.251   6.753   2.375  0.9869  0.3674  0.0648
 2513TIP3   OH229097   3.912   0.729   0.151 -0.2711 -0.7097  0.4781
 2513TIP3    H129098   3.882   0.763   0.066 -1.5080 -0.2945  1.0548
 2513TIP3    H229099   4.005   0.752   0.154 -0.2866 -0.4247 -0.6130
 2514TIP3   OH229100   5.330   6.050   8.157  0.1557  0.1270  0.3352
 2514TIP3    H129101   5.336   6.134   8.204 -0.4137  1.0096 -1.1074
 2514TIP3    H229102   5.268   5.999   8.209 -0.0351  0.8607  0.8533
 2515TIP3   OH229103   5.578   5.616   0.998 -0.1008 -0.2658 -0.1968
 2515TIP3    H129104   5.515   5.688   0.999  1.2929  1.0175 -0.0738
 2515TIP3    H229105   5.605   5.606   1.090 -0.7400 -1.4008 -0.1113
 2516TIP3   OH229106   2.851   3.896   2.794 -0.3480 -0.3774  0.3669
 2516TIP3    H129107   2.783   3.844   2.837 -0.7018 -1.3032 -1.2249
 2516TIP3    H229108   2.802   3.953   2.734  0.2193 -0.3586 -0.0796
 2517TIP3   OH229109   0.491   4.211   8.683  0.6925  0.2655  0.5966
 2517TIP3    H129110   0.400   4.222   8.713  1.3564 -0.5394  3.1170
 2517TIP3    H229111   0.520   4.299   8.664 -0.6265  0.5369 -0.3290
 2518TIP3   OH229112   6.061   5.150   7.774 -0.1415 -0.3410  0.1024
 2518TIP3    H129113   6.114   5.144   7.853 -0.0396  0.0018  0.0614
 2518TIP3    H229114   5.971   5.143   7.805 -0.1940  1.2964  0.4392
 2519TIP3   OH229115   3.878   5.227   8.317 -0.0254 -0.5644  0.5310
 2519TIP3    H129116   3.813   5.283   8.359  0.3583  0.2228  0.0885
 2519TIP3    H229117   3.839   5.139   8.318 -0.4619 -0.3753  1.5954
 2520TIP3   OH229118   3.118   0.536   8.222  0.1483  0.2065  0.2299
 2520TIP3    H129119   3.045   0.510   8.278 -0.4758 -0.6935 -0.9584
 2520TIP3    H229120   3.095   0.623   8.190  1.2179  1.4098  2.4949
 2521TIP3   OH229121   0.803   2.531   7.212 -0.3185  0.4989 -0.3268
 2521TIP3    H129122   0.758   2.510   7.130 -2.6022  1.2037  0.6792
 2521TIP3    H229123   0.896   2.532   7.189 -0.7094 -1.6744 -2.3742
 2522TIP3   OH229124   0.308   5.746   6.353  0.2458 -0.0299  0.6912
 2522TIP3    H129125   0.294   5.651   6.353  1.4855 -0.2472 -0.3502
 2522TIP3    H229126   0.382   5.759   6.293 -0.8836  1.7559 -0.3954
 2523TIP3   OH229127   0.475   5.359   0.202  0.0329 -0.1194 -0.0640
 2523TIP3    H129128   0.409   5.356   0.132 -0.1965 -1.9718  0.2012
 2523TIP3    H229129   0.557   5.380   0.157 -0.5363  1.2664 -0.5213
 2524TIP3   OH229130   2.446   2.198   1.206 -0.4598 -0.0424 -0.6792
 2524TIP3    H129131   2.463   2.277   1.155 -1.5863  0.6750  0.0198
 2524TIP3    H229132   2.500   2.209   1.285  0.6639 -0.7759 -1.3167
 2525TIP3   OH229133   6.124   4.864   8.239  0.4438 -0.2758 -0.6498
 2525TIP3    H129134   6.196   4.822   8.285  0.0962  0.3690  0.5296
 2525TIP3    H229135   6.166   4.913   8.168  1.4970  1.9816  1.3866
 2526TIP3   OH229136   1.544   2.008   8.229 -1.2541  0.2515 -0.3129
 2526TIP3    H129137   1.627   2.055   8.227 -1.5856  0.8480 -0.4523
 2526TIP3    H229138   1.556   1.935   8.169 -0.6784  0.0739  0.0197
 2527TIP3   OH229139   4.304   0.741   7.591  0.1941 -0.2011 -0.5285
 2527TIP3    H129140   4.382   0.688   7.574  0.4015 -0.5007  1.1949
 2527TIP3    H229141   4.231   0.682   7.571  0.3680 -2.0622  3.3870
 2528TIP3   OH229142   4.237   0.851   8.103  0.8176 -0.5533  0.2648
 2528TIP3    H129143   4.206   0.803   8.026 -1.0516  0.7755  0.1052
 2528TIP3    H229144   4.239   0.943   8.074  0.5140 -0.0892  1.6590
 2529TIP3   OH229145   4.885   2.503   8.574  0.0923  0.1874  0.4937
 2529TIP3    H129146   4.809   2.556   8.547  0.9094  1.2485  0.1993
 2529TIP3    H229147   4.946   2.567   8.610  1.2403 -0.5376 -0.1408
 2530TIP3   OH229148   0.192   6.530   7.682 -0.5574 -0.6519  0.1756
 2530TIP3    H129149   0.136   6.593   7.636  0.3037 -0.9462 -1.3697
 2530TIP3    H229150   0.144   6.508   7.761 -0.6886  2.2474  0.9894
 2531TIP3   OH229151   5.792   6.539   0.644 -0.0329  0.7694 -0.2171
 2531TIP3    H129152   5.826   6.512   0.729 -1.2256 -0.8409 -0.1985
 2531TIP3    H229153   5.714   6.590   0.664 -0.3069  0.4010 -0.3263
 2532TIP3   OH229154   5.416   1.657   0.842  0.2485  0.2896 -0.0565
 2532TIP3    H129155   5.464   1.674   0.761 -1.5347  1.7512 -0.8664
 2532TIP3    H229156   5.417   1.561   0.851  1.2381  0.1666 -1.3159
 2533TIP3   OH229157   2.761   2.210   8.352  0.9127  0.1627  0.3913
 2533TIP3    H129158   2.692   2.276   8.351 -1.0659 -1.7749 -0.0899
 2533TIP3    H229159   2.757   2.172   8.440  1.3910  0.0470  0.3663
 2534TIP3   OH229160   5.194   0.398   1.559  0.0992  0.5420  0.4044
 2534TIP3    H129161   5.233   0.429   1.477 -1.1228  0.7219 -0.1254
 2534TIP3    H229162   5.188   0.477   1.614  0.7609  0.4512  0.6266
 2535TIP3   OH229163   6.301   3.212   7.522 -0.4841 -0.0643 -0.4984
 2535TIP3    H129164   6.328   3.290   7.571 -2.0441  0.2654 -0.0946
 2535TIP3    H229165   6.280   3.245   7.434 -0.2560 -0.1961 -0.6038
 2536TIP3   OH229166   4.395   5.484   1.122  0.0833 -0.2312 -0.4279
 2536TIP3    H129167   4.406   5.522   1.209 -0.6275 -0.3825 -0.2700
 2536TIP3    H229168   4.437   5.398   1.127 -0.0262 -0.2713 -0.2112
 2537TIP3   OH229169   5.236   6.139   8.677 -0.7503 -0.1591 -0.3880
 2537TIP3    H129170   5.186   6.202   8.625  0.2826  0.7351 -0.3278
 2537TIP3    H229171   5.323   6.178   8.684  0.5131 -2.4556 -1.9394
 2538TIP3   OH229172   2.875   3.485   8.913  0.2710  0.0520  0.2106
 2538TIP3    H129173   2.892   3.468   9.005  0.0462 -0.5938  0.1358
 2538TIP3    H229174   2.884   3.580   8.904  2.0851 -0.0510  0.5303
 2539TIP3   OH229175   6.610   0.275   0.210  0.1345 -0.6759 -0.3954
 2539TIP3    H129176   6.671   0.203   0.225 -0.7925 -1.7711 -1.6489
 2539TIP3    H229177   6.657   0.334   0.151  0.7234 -0.4882  0.2559
 2540TIP3   OH229178   0.390   5.698   8.334  0.0331  0.5634 -0.0289
 2540TIP3    H129179   0.476   5.659   8.347  0.4544  1.5740  0.3300
 2540TIP3    H229180   0.403   5.762   8.264 -0.4356  0.6896 -0.0061
 2541TIP3   OH229181   0.318   6.087   0.675 -0.2748  0.4746  0.1584
 2541TIP3    H129182   0.224   6.074   0.690 -0.2335  0.6255  0.5419
 2541TIP3    H229183   0.322   6.136   0.593 -0.4955 -0.3085 -0.3343
 2542TIP3   OH229184   1.912   3.874   8.848 -0.5893  0.1739  0.0882
 2542TIP3    H129185   1.843   3.810   8.868  0.2642 -0.5336  0.8572
 2542TIP3    H229186   1.867   3.958   8.851 -1.9227 -0.4154 -1.8195
 2543TIP3   OH229187   0.660   4.705   7.910 -0.4639  0.4089  0.0234
 2543TIP3    H129188   0.566   4.684   7.907 -1.7015  4.4436  1.9564
 2543TIP3    H229189   0.700   4.631   7.955 -2.7751 -1.3001 -0.5359
 2544TIP3   OH229190   3.844   5.821   1.053 -0.1462 -0.0772 -0.2093
 2544TIP3    H129191   3.788   5.893   1.081 -1.2467 -1.4052  1.1221
 2544TIP3    H229192   3.784   5.755   1.018  0.9075  0.0106 -2.3846
 2545TIP3   OH229193   3.198   6.310   7.837  0.7062  0.0441 -0.9191
 2545TIP3    H129194   3.178   6.377   7.903 -0.1691 -0.7473 -0.3519
 2545TIP3    H229195   3.117   6.297   7.790  0.5682 -1.3041 -0.3677
 2546TIP3   OH229196   4.518   0.481   8.828 -0.1853  0.1158  0.2050
 2546TIP3    H129197   4.444   0.421   8.821 -0.4649  0.5384 -0.4849
 2546TIP3    H229198   4.581   0.435   8.884  0.0871 -1.3025 -1.2261
 2547TIP3   OH229199   0.676   5.414   7.278 -0.4090 -0.4264  0.7094
 2547TIP3    H129200   0.631   5.434   7.196  0.2879 -2.2173 -0.1624
 2547TIP3    H229201   0.702   5.499   7.313 -2.5881  0.5171  0.1938
 2548TIP3   OH229202   5.658   4.534   8.883  0.6854  0.2296 -0.5482
 2548TIP3    H129203   5.714   4.458   8.868  1.0363  0.4508 -0.3787
 2548TIP3    H229204   5.712   4.593   8.935 -0.2025 -0.1630  0.8794
 2549TIP3   OH229205   0.289   0.440   1.759  0.9521 -0.1375  0.0278
 2549TIP3    H129206   0.286   0.438   1.854  0.7636  0.2929  0.0319
 2549TIP3    H229207   0.229   0.510   1.734 -2.8639 -3.2694 -0.5874
 2550TIP3   OH229208   4.987   4.237   0.123  0.2307 -0.4286 -0.5975
 2550TIP3    H129209   4.946   4.154   0.098 -0.5965 -0.0589 -0.5188
 2550TIP3    H229210   4.930   4.271   0.192  1.9173 -0.9623  1.1420
 2551TIP3   OH229211   6.132   4.865   2.050 -0.3807 -0.7052 -0.1305
 2551TIP3    H129212   6.209   4.892   2.000  0.3516  1.0211  1.7857
 2551TIP3    H229213   6.165   4.803   2.115 -0.9169 -1.2072 -0.3235
 2552TIP3   OH229214   1.901   0.966   6.569 -0.5816  0.5279  0.3102
 2552TIP3    H129215   1.841   0.891   6.571 -0.3569  0.3391  0.0927
 2552TIP3    H229216   1.924   0.976   6.477  0.6039 -0.1203  0.5105
 2553TIP3   OH229217   5.128   0.652   2.827  0.2630 -0.1235  0.4876
 2553TIP3    H129218   5.102   0.562   2.846 -0.7198 -0.6025 -2.5509
 2553TIP3    H229219   5.185   0.645   2.751 -1.5549  1.9073 -1.1916
 2554TIP3   OH229220   4.152   5.310   8.926  0.0522  0.1701 -0.2634
 2554TIP3    H129221   4.203   5.327   9.005 -0.8297 -1.1966  0.6530
 2554TIP3    H229222   4.212   5.260   8.870  0.2349 -0.0648  0.1345
 2555TIP3   OH229223   4.530   2.593   1.752  0.0601  0.3909 -0.1084
 2555TIP3    H129224   4.535   2.501   1.777 -2.7712  0.2721  0.3624
 2555TIP3    H229225   4.616   2.628   1.772  0.1897 -1.3920  3.0179
 2556TIP3   OH229226   3.004   2.589   7.599  0.5914  0.3275  0.3882
 2556TIP3    H129227   3.057   2.510   7.585  0.9315  1.0564 -3.7199
 2556TIP3    H229228   2.918   2.556   7.623  1.0428 -1.2247 -0.0017
 2557TIP3   OH229229   2.422   0.239   1.066  0.2424  0.2234  0.4733
 2557TIP3    H129230   2.352   0.178   1.092  0.7458 -0.7963 -0.4720
 2557TIP3    H229231   2.503   0.196   1.092  0.6086  0.4899 -0.1872
 2558TIP3   OH229232   1.777   6.510   2.147  0.4759  0.4405 -0.2494
 2558TIP3    H129233   1.688   6.546   2.152  0.9223  1.5738 -0.2572
 2558TIP3    H229234   1.764   6.415   2.142 -0.7580  0.6280 -0.9715
 2559TIP3   OH229235   5.867   4.233   1.127  0.3179 -0.3762  0.2330
 2559TIP3    H129236   5.796   4.183   1.087 -0.7090  1.4431 -0.3319
 2559TIP3    H229237   5.867   4.206   1.219  0.2469 -1.8594 -0.1742
 2560TIP3   OH229238   3.802   4.906   0.647 -0.6096  0.1924 -0.2457
 2560TIP3    H129239   3.871   4.952   0.599  1.9232 -1.8704  1.1479
 2560TIP3    H229240   3.740   4.974   0.671 -0.8958  1.6788 -4.4115
 2561TIP3   OH229241   1.617   5.865   0.991 -0.1212  0.2096  0.2463
 2561TIP3    H129242   1.700   5.892   1.030  0.8699 -1.5411 -0.5242
 2561TIP3    H229243   1.551   5.891   1.055  1.1417  0.3578  1.5383
 2562TIP3   OH229244   6.571   3.879   1.994 -0.0521  0.2672 -0.4490
 2562TIP3    H129245   6.569   3.964   1.951  1.3495 -0.1119 -1.3376
 2562TIP3    H229246   6.545   3.817   1.925  2.4486 -0.3749 -0.9228
 2563TIP3   OH229247   0.862   6.609   0.133 -0.0098 -0.5388  0.1079
 2563TIP3    H129248   0.776   6.568   0.138 -0.3449  0.1774  0.3406
 2563TIP3    H229249   0.912   6.568   0.204 -0.2798 -0.6783  0.2210
 2564TIP3   OH229250   0.052   4.441   7.764  0.0296 -0.3758 -0.4418
 2564TIP3    H129251   0.122   4.471   7.707 -1.4807 -0.4914 -2.4461
 2564TIP3    H229252   0.043   4.511   7.829  1.1875  0.1957 -0.8716
 2565TIP3   OH229253   1.511   2.346   7.224 -0.3197 -0.1348 -0.1107
 2565TIP3    H129254   1.543   2.261   7.254 -0.8296 -0.1047  0.5532
 2565TIP3    H229255   1.416   2.338   7.226 -0.3756  0.0099 -1.3674
 2566TIP3   OH229256   5.903   1.871   8.235  0.1875  0.2113  0.1834
 2566TIP3    H129257   5.988   1.836   8.209  0.2947  0.1502  0.6079
 2566TIP3    H229258   5.847   1.793   8.242 -0.5029  0.3969 -2.1623
 2567TIP3   OH229259   1.885   5.608   1.262 -0.2091  0.6825 -0.3730
 2567TIP3    H129260   1.941   5.676   1.223  1.1068  0.0623  0.3836
 2567TIP3    H229261   1.887   5.627   1.356 -0.0705 -0.2349 -0.1893
 2568TIP3   OH229262   4.524   2.994   8.530 -0.0607  0.1577  0.5466
 2568TIP3    H129263   4.566   3.030   8.608 -0.2471  1.2844  0.1464
 2568TIP3    H229264   4.445   3.046   8.518 -0.1504 -0.1467 -0.2691
 2569TIP3   OH229265   2.725   2.125   6.657  0.0875 -0.4441 -0.0425
 2569TIP3    H129266   2.814   2.128   6.620 -0.0017 -0.0153 -0.2301
 2569TIP3    H229267   2.735   2.158   6.746 -0.1003  0.9879 -0.5207
 2570TIP3   OH229268   3.162   4.931   8.741  0.1120  0.8724 -0.1593
 2570TIP3    H129269   3.139   4.936   8.649  0.4333 -3.2112 -0.6711
 2570TIP3    H229270   3.257   4.921   8.742 -0.0652 -1.6143  0.2591
 2571TIP3   OH229271   4.044   5.580   8.924 -0.7961 -0.6086  0.4424
 2571TIP3    H129272   4.107   5.511   8.949  0.0693 -0.0437 -0.1210
 2571TIP3    H229273   4.072   5.656   8.976 -0.4593 -0.1035 -0.4646
 2572TIP3   OH229274   5.856   5.715   1.267 -0.7682  0.4640 -0.4056
 2572TIP3    H129275   5.763   5.723   1.287 -0.5672 -1.4959  1.6575
 2572TIP3    H229276   5.872   5.621   1.260  1.3099  0.6523  0.8426
 2573TIP3   OH229277   3.666   1.260   0.199  0.0019  0.3159  0.0234
 2573TIP3    H129278   3.745   1.227   0.158 -0.8133 -1.5555 -0.1285
 2573TIP3    H229279   3.651   1.204   0.274 -1.2449  0.5445 -0.0199
 2574TIP3   OH229280   4.817   3.762   1.054  0.0402  0.5886 -0.1513
 2574TIP3    H129281   4.814   3.742   0.961 -1.0619  0.9124 -0.1970
 2574TIP3    H229282   4.902   3.728   1.083 -0.6994 -1.8934 -0.7116
 2575TIP3   OH229283   0.765   0.571   0.415 -0.3791 -0.4224  0.6291
 2575TIP3    H129284   0.835   0.507   0.400  0.4669  0.5294  0.3985
 2575TIP3    H229285   0.753   0.571   0.510 -0.0464 -0.5767  0.6745
 2576TIP3   OH229286   5.977   0.138   2.121  0.4124 -0.2632 -0.0828
 2576TIP3    H129287   6.052   0.079   2.113 -0.0442 -0.5972 -2.4377
 2576TIP3    H229288   6.007   0.220   2.083 -0.2582 -0.2523 -0.6048
 2577TIP3   OH229289   6.467   0.651   0.157  0.1769 -0.1001  0.3306
 2577TIP3    H129290   6.464   0.698   0.073 -1.6509 -1.1765 -0.2608
 2577TIP3    H229291   6.460   0.719   0.223 -0.9374  0.5818 -0.4663
 2578TIP3   OH229292   6.019   2.206   6.670  0.4702  0.8738  0.2440
 2578TIP3    H129293   5.969   2.264   6.613  1.2993  0.0716 -1.3891
 2578TIP3    H229294   5.960   2.133   6.688  0.4012  0.8381 -0.1137
 2579TIP3   OH229295   5.433   2.257   6.477  0.2733  0.6590 -0.0424
 2579TIP3    H129296   5.364   2.263   6.410  0.4053  1.4938 -0.1141
 2579TIP3    H229297   5.415   2.330   6.536  0.1554 -0.0816  0.8544
 2580TIP3   OH229298   6.150   1.626   7.031 -0.1440  0.6802 -0.0269
 2580TIP3    H129299   6.233   1.593   6.996  0.5854  0.1271  2.0744
 2580TIP3    H229300   6.165   1.720   7.041 -0.7734  1.0652 -2.1521
 2581TIP3   OH229301   3.935   5.035   0.454 -0.1602  0.0652 -0.2708
 2581TIP3    H129302   3.912   5.126   0.433  0.0266  0.1314 -0.1893
 2581TIP3    H229303   4.029   5.037   0.470 -0.2447 -0.0474  0.2401
 2582TIP3   OH229304   6.003   3.577   0.999  0.4638  0.3232 -0.1209
 2582TIP3    H129305   6.085   3.598   0.953  0.0207  1.2145 -0.5302
 2582TIP3    H229306   5.948   3.655   0.987 -1.0067 -0.8046 -1.1122
 2583TIP3   OH229307   5.069   1.785   2.455 -0.1219  0.2969  0.5653
 2583TIP3    H129308   5.106   1.757   2.538  1.7560 -0.3055 -0.4219
 2583TIP3    H229309   5.143   1.786   2.395 -1.4353  0.6695 -1.1205
 2584TIP3   OH229310   1.535   0.150   8.686  0.1872  0.3108  0.3216
 2584TIP3    H129311   1.493   0.075   8.727 -0.2194  0.1375 -0.3918
 2584TIP3    H229312   1.471   0.221   8.695 -0.1062  0.1489 -0.4171
 2585TIP3   OH229313   1.141   1.191   7.389  0.0699  0.9259  0.1211
 2585TIP3    H129314   1.213   1.247   7.418 -0.5758  1.5213  0.6133
 2585TIP3    H229315   1.101   1.160   7.469  0.9868 -1.0441 -0.1322
 2586TIP3   OH229316   4.957   4.337   0.481  0.4285 -0.5069  1.0036
 2586TIP3    H129317   4.952   4.312   0.573 -0.8519 -1.6456  0.6594
 2586TIP3    H229318   4.880   4.298   0.441  0.6485  0.4523 -0.4581
 2587TIP3   OH229319   0.734   5.414   7.598  0.2168 -0.2295  0.6836
 2587TIP3    H129320   0.667   5.376   7.656  1.1512  0.8898  2.5942
 2587TIP3    H229321   0.696   5.497   7.570  0.1198 -0.3821  0.3528
 2588TIP3   OH229322   6.692   2.312   7.488 -0.0411 -0.1076 -0.3636
 2588TIP3    H129323   6.679   2.267   7.571 -1.5054  0.5992 -0.1776
 2588TIP3    H229324   6.707   2.241   7.425  2.0416 -0.6149  0.6059
 2589TIP3   OH229325   1.243   5.728   8.750  0.0289 -0.7136  0.0985
 2589TIP3    H129326   1.224   5.635   8.734  0.5033 -0.5212 -1.8604
 2589TIP3    H229327   1.335   5.729   8.778 -0.0355 -0.8589  0.3120
 2590TIP3   OH229328   3.875   3.528   0.962  0.3031 -0.4068  0.2364
 2590TIP3    H129329   3.807   3.517   0.896  0.0129  2.1133  0.0068
 2590TIP3    H229330   3.828   3.532   1.045  0.2170  0.5083  0.1570
 2591TIP3   OH229331   3.426   5.529   0.553  0.1815 -0.0833  0.0589
 2591TIP3    H129332   3.366   5.525   0.478 -0.1340 -2.5321  0.3613
 2591TIP3    H229333   3.378   5.578   0.619 -0.1958  0.6875 -0.7637
 2592TIP3   OH229334   2.718   0.592   8.242 -0.0932 -0.1360 -0.0081
 2592TIP3    H129335   2.736   0.641   8.322 -2.4332  1.4522 -0.3733
 2592TIP3    H229336   2.630   0.620   8.215 -0.0147 -1.7864 -2.2907
 2593TIP3   OH229337   0.346   0.145   0.857  0.0683  1.0305 -0.0074
 2593TIP3    H129338   0.291   0.211   0.899 -0.5741  0.0892  0.6641
 2593TIP3    H229339   0.429   0.191   0.840  0.0602  1.6853  1.5396
 2594TIP3   OH229340   6.558   6.439   7.865  0.0289  0.1489 -0.2853
 2594TIP3    H129341   6.628   6.425   7.929 -0.6343 -1.0728  0.1967
 2594TIP3    H229342   6.554   6.535   7.856  1.8036  0.2514 -0.4082
 2595TIP3   OH229343   2.435   0.874   2.688 -0.0790 -0.3170  0.0545
 2595TIP3    H129344   2.347   0.835   2.685 -1.1372  1.9241 -2.3700
 2595TIP3    H229345   2.419   0.968   2.694  2.2141  0.1096  0.3841
 2596TIP3   OH229346   0.194   0.131   8.083  0.0622  0.0517 -0.1227
 2596TIP3    H129347   0.236   0.178   8.154  2.5759 -0.4285 -1.2029
 2596TIP3    H229348   0.137   0.196   8.041  0.6065  1.0682  0.6762
 2597TIP3   OH229349   1.659   1.133   8.863  0.1004  0.4828  0.8046
 2597TIP3    H129350   1.747   1.171   8.870  0.2277  0.2168  0.6791
 2597TIP3    H229351   1.605   1.187   8.920  0.1094  1.3336  0.0308
 2598TIP3   OH229352   1.129   0.789   0.481 -0.0244  0.5878 -0.2292
 2598TIP3    H129353   1.115   0.756   0.392  1.8973 -1.8258  0.2344
 2598TIP3    H229354   1.145   0.883   0.470 -2.3732  0.8637 -2.0820
 2599TIP3   OH229355   1.382   1.202   8.937 -0.1972 -0.3971 -0.0828
 2599TIP3    H129356   1.389   1.135   9.005 -1.5636 -0.3198  0.1710
 2599TIP3    H229357   1.319   1.166   8.875 -0.9494  0.6326  0.0593
 2600TIP3   OH229358   0.733   6.092   0.262  0.0559 -0.5452 -0.2767
 2600TIP3    H129359   0.738   6.000   0.284 -0.7051 -0.3130  0.9797
 2600TIP3    H229360   0.736   6.138   0.346 -0.3858  0.5279 -0.8165
 2601TIP3   OH229361   0.872   1.042   8.403 -0.5486  0.5997  0.0197
 2601TIP3    H129362   0.899   1.001   8.486  3.0267  1.0163 -0.7375
 2601TIP3    H229363   0.809   0.981   8.366  0.7532 -1.6741  1.2692
 2602TIP3   OH229364   6.457   2.249   0.885  0.4109 -0.2216 -0.1850
 2602TIP3    H129365   6.496   2.162   0.893  0.0517 -0.3950 -0.3496
 2602TIP3    H229366   6.533   2.308   0.883  0.7577 -0.6670 -2.1453
 2603TIP3   OH229367   1.109   4.862   1.626  0.2537  0.1132  0.1889
 2603TIP3    H129368   1.050   4.925   1.667  1.2570  1.0996  0.1664
 2603TIP3    H229369   1.163   4.914   1.568  1.1108 -0.7725  0.1621
 2604TIP3   OH229370   5.373   5.592   7.460  0.4323  0.6483 -0.1444
 2604TIP3    H129371   5.423   5.522   7.418 -0.2346 -0.8716  1.4663
 2604TIP3    H229372   5.438   5.641   7.511  1.0824  1.9304 -2.1221
 2605TIP3   OH229373   3.456   0.389   1.112  0.7382 -0.0505 -0.0046
 2605TIP3    H129374   3.381   0.371   1.055 -0.5176  0.6226  1.3812
 2605TIP3    H229375   3.466   0.309   1.163  1.1582 -0.2477 -0.3938
 2606TIP3   OH229376   3.507   0.922   7.982  0.0676  0.3716  0.2118
 2606TIP3    H129377   3.521   0.837   7.942  0.5421 -0.6927  2.4992
 2606TIP3    H229378   3.571   0.980   7.939  1.2003 -0.9306  0.0808
 2607TIP3   OH229379   0.639   6.005   0.928 -0.0922  0.0235 -0.2151
 2607TIP3    H129380   0.570   6.070   0.919 -0.0457 -0.0458 -1.2485
 2607TIP3    H229381   0.611   5.949   1.000 -1.1053  0.0165 -0.6006
 2608TIP3   OH229382   5.071   3.475   1.088 -0.4664  0.0363 -0.2695
 2608TIP3    H129383   5.015   3.416   1.036 -0.3736  0.4582 -0.8615
 2608TIP3    H229384   5.095   3.545   1.026  2.0104 -0.9386 -0.5031
 2609TIP3   OH229385   5.191   5.533   1.163 -0.6236 -0.3240 -0.3721
 2609TIP3    H129386   5.191   5.612   1.109 -1.6370  2.4035  3.2275
 2609TIP3    H229387   5.104   5.494   1.150 -1.3371  1.0272  0.1589
 2610TIP3   OH229388   2.452   6.266   7.541  0.6619  0.2551 -0.4814
 2610TIP3    H129389   2.442   6.358   7.562  1.3521  0.6174 -1.6808
 2610TIP3    H229390   2.367   6.227   7.563  0.5721  1.0389  0.6364
 2611TIP3   OH229391   6.247   0.778   0.785  0.1161  0.1668  0.2888
 2611TIP3    H129392   6.217   0.768   0.694 -0.0987  0.9629  0.2574
 2611TIP3    H229393   6.340   0.755   0.782  0.0595 -0.0286 -0.0921
 2612TIP3   OH229394   5.021   0.866   2.713 -0.5480  0.1542 -0.5491
 2612TIP3    H129395   5.065   0.888   2.631  1.8545  1.6766  1.0355
 2612TIP3    H229396   5.086   0.817   2.763 -0.7889  1.8753  1.6180
 2613TIP3   OH229397   1.888   1.671   8.599  1.6374 -0.3925  0.8130
 2613TIP3    H129398   1.848   1.614   8.533  0.9090  0.8521  0.1310
 2613TIP3    H229399   1.815   1.720   8.635  2.2091 -0.1056  1.6007
 2614TIP3   OH229400   2.332   4.070   7.328 -0.7156  0.3111  0.9869
 2614TIP3    H129401   2.288   4.044   7.246 -0.6701 -1.4583  1.4675
 2614TIP3    H229402   2.402   4.005   7.338 -2.1369 -0.9826  3.5627
 2615TIP3   OH229403   4.728   5.569   2.051 -0.4812 -0.3084 -0.3387
 2615TIP3    H129404   4.716   5.650   2.000  0.8309  0.5102  0.5905
 2615TIP3    H229405   4.802   5.525   2.010  2.0991  1.4651  2.0530
 2616TIP3   OH229406   0.031   3.988   7.549 -0.4943  0.1606  0.3174
 2616TIP3    H129407  -0.048   4.029   7.584 -0.5624  1.6388 -1.3869
 2616TIP3    H229408   0.076   4.059   7.502  0.0297 -1.4184 -1.7364
 2617TIP3   OH229409   1.375   0.817   8.940  0.2122 -0.3582 -0.3241
 2617TIP3    H129410   1.410   0.737   8.978  0.9944  0.5874  0.9978
 2617TIP3    H229411   1.309   0.847   9.002 -0.4019 -0.2009 -1.0315
 2618TIP3   OH229412   3.388   0.203   0.290 -0.1785  0.0456  0.0079
 2618TIP3    H129413   3.297   0.181   0.271 -0.3557  0.4190  0.3904
 2618TIP3    H229414   3.414   0.141   0.359 -0.4835  0.6129  0.6492
 2619TIP3   OH229415   3.342   6.193   1.046  0.4908 -0.1466  0.0834
 2619TIP3    H129416   3.412   6.256   1.032 -0.3885  1.1134  1.1990
 2619TIP3    H229417   3.313   6.169   0.957  1.3725  0.3811 -0.3558
 2620TIP3   OH229418   5.762   4.576   0.406  0.1286  0.2689  0.4169
 2620TIP3    H129419   5.801   4.649   0.358  1.2103  0.8792  2.1593
 2620TIP3    H229420   5.771   4.501   0.346 -0.3837  1.3803 -1.1189
 2621TIP3   OH229421   5.722   5.930   0.823  0.0774  0.0893 -0.0361
 2621TIP3    H129422   5.767   5.862   0.873  0.5786 -0.9093 -1.7695
 2621TIP3    H229423   5.780   5.948   0.749  0.1520  2.7488  0.5930
 2622TIP3   OH229424   3.979   0.019   0.262 -0.3380 -0.2280 -0.5476
 2622TIP3    H129425   3.932  -0.050   0.215 -0.3101 -0.2786 -0.5016
 2622TIP3    H229426   3.926   0.098   0.249 -0.1098 -0.1487 -1.0194
 2623TIP3   OH229427   4.859   1.527   8.806 -0.5554 -0.1522 -0.0515
 2623TIP3    H129428   4.842   1.588   8.879  1.1528 -0.0924  0.3417
 2623TIP3    H229429   4.863   1.583   8.729  0.3856  0.1955  0.2240
 2624TIP3   OH229430   0.026   2.430   8.192 -0.3227  0.1602 -0.3060
 2624TIP3    H129431   0.113   2.463   8.170 -0.7165  0.1026 -2.0580
 2624TIP3    H229432  -0.034   2.501   8.169 -0.7520  0.3937  1.3400
 2625TIP3   OH229433   3.425   5.581   2.417  0.0633  0.8929  0.6238
 2625TIP3    H129434   3.378   5.532   2.484  2.4695 -0.8832  1.1615
 2625TIP3    H229435   3.405   5.536   2.335  1.2229 -0.2371  0.9347
 2626TIP3   OH229436   5.756   0.943   0.251  0.2934  0.9007  0.3448
 2626TIP3    H129437   5.664   0.922   0.236  0.3404  0.9977 -0.0981
 2626TIP3    H229438   5.781   0.995   0.175  0.9511  0.1384  0.0238
 2627TIP3   OH229439   2.316   1.669   0.623 -0.1634  0.4426 -0.4038
 2627TIP3    H129440   2.397   1.665   0.674 -0.3218 -1.8343 -0.1879
 2627TIP3    H229441   2.263   1.736   0.666  0.4832 -0.0607  1.2544
 2628TIP3   OH229442   5.000   4.542   0.974  0.3932 -0.2386 -0.1581
 2628TIP3    H129443   4.910   4.554   1.003  0.7029  0.5127  0.5470
 2628TIP3    H229444   4.997   4.551   0.879 -0.1506  0.6743 -0.0646
 2629TIP3   OH229445   6.149   0.329   2.002 -0.0112  0.9246  0.4571
 2629TIP3    H129446   6.198   0.318   2.083 -0.6851 -2.0121  0.5659
 2629TIP3    H229447   6.177   0.256   1.947 -2.4955  0.5189 -0.3875
 2630TIP3   OH229448   2.982   0.075   7.970 -0.5842  0.3053  0.6653
 2630TIP3    H129449   3.015  -0.015   7.978 -1.0950  0.1644  1.2981
 2630TIP3    H229450   3.054   0.129   8.004  0.2565  0.2512 -0.9622
 2631TIP3   OH229451   1.061   0.607   1.767 -0.7052  0.0288  0.1731
 2631TIP3    H129452   0.977   0.599   1.812 -0.9721 -0.6041 -0.4291
 2631TIP3    H229453   1.108   0.674   1.817 -2.2887  1.8339 -0.6310
 2632TIP3   OH229454   4.528   3.754   0.647  0.7476 -0.4462  0.6284
 2632TIP3    H129455   4.451   3.698   0.656 -0.3839  0.4450 -2.3862
 2632TIP3    H229456   4.531   3.804   0.729 -0.5841 -1.9805  1.6828
 2633TIP3   OH229457   4.361   2.961   0.855  0.1245  0.1047 -0.3022
 2633TIP3    H129458   4.302   2.908   0.909 -0.6068  1.0958 -0.1200
 2633TIP3    H229459   4.309   3.036   0.828  0.8781  0.2800 -1.3299
 2634TIP3   OH229460   1.675   6.622   8.928  0.4178  0.2854  0.0919
 2634TIP3    H129461   1.685   6.707   8.971  0.5247  0.3386 -0.0385
 2634TIP3    H229462   1.650   6.563   8.999 -2.3375  0.9319 -0.2347
 2635TIP3   OH229463   3.126   4.815   0.081  0.5856  0.6104  0.4458
 2635TIP3    H129464   3.041   4.837   0.119 -0.3816 -1.1466 -0.5381
 2635TIP3    H229465   3.143   4.886   0.018 -1.0828  0.0893 -0.6673
 2636TIP3   OH229466   4.828   4.795   8.037 -0.4107 -0.1011  0.1259
 2636TIP3    H129467   4.823   4.888   8.061  1.1230 -0.2689  1.2821
 2636TIP3    H229468   4.880   4.794   7.957  0.6408 -0.0187  0.7851
 2637TIP3   OH229469   1.671   4.077   0.211  0.2036 -0.1804 -0.1705
 2637TIP3    H129470   1.576   4.069   0.195 -0.1263 -0.5968  1.7464
 2637TIP3    H229471   1.677   4.121   0.296  1.7034 -1.4303  0.4081
 2638TIP3   OH229472   0.207   0.305   8.602 -0.3683 -0.4326  0.1003
 2638TIP3    H129473   0.215   0.349   8.518  0.6527 -0.1469  0.3248
 2638TIP3    H229474   0.113   0.295   8.616 -0.5784  0.4805 -0.5703
 2639TIP3   OH229475   2.149   3.021   8.208  0.0440 -0.1172  0.1819
 2639TIP3    H129476   2.109   2.970   8.138  0.0932  0.3689 -0.2094
 2639TIP3    H229477   2.121   3.111   8.191  2.4950  0.5031 -1.0260
 2640TIP3   OH229478   2.774   0.703   8.004 -0.1095 -0.2462  0.4225
 2640TIP3    H129479   2.839   0.664   7.946 -1.2075 -0.2616 -0.8451
 2640TIP3    H229480   2.767   0.642   8.078  1.7678  0.0889  0.9341
 2641TIP3   OH229481   5.552   3.161   8.788 -1.1669 -0.2163 -0.2476
 2641TIP3    H129482   5.617   3.138   8.854 -0.5556  0.9449 -0.4320
 2641TIP3    H229483   5.509   3.239   8.823 -2.7899 -1.2134  0.0856
 2642TIP3   OH229484   1.839   1.551   8.855 -0.4563  0.0057  0.1179
 2642TIP3    H129485   1.877   1.559   8.767 -1.0392  2.4361  0.0184
 2642TIP3    H229486   1.890   1.481   8.897  2.1651  1.1180 -0.9822
 2643TIP3   OH229487   2.338   2.284   8.027 -0.2346 -0.1121  1.1145
 2643TIP3    H129488   2.354   2.268   7.934 -0.2397  2.6965  0.5451
 2643TIP3    H229489   2.293   2.205   8.057  1.8518 -2.1175 -0.6363
 2644TIP3   OH229490   5.497   4.821   0.486  0.0131  0.3946 -0.0313
 2644TIP3    H129491   5.556   4.890   0.518 -1.1866  1.3336  0.2236
 2644TIP3    H229492   5.451   4.790   0.564  0.6952 -0.8715 -0.1135
 2645TIP3   OH229493   3.470   5.064   1.106  0.1419 -0.8233  0.4592
 2645TIP3    H129494   3.414   5.027   1.175 -0.7930 -0.0331  0.1493
 2645TIP3    H229495   3.408   5.093   1.039  1.0381 -1.6372 -0.7609
 2646TIP3   OH229496   5.146   4.085   8.744 -0.2951  0.5945 -0.6207
 2646TIP3    H129497   5.152   4.058   8.836  1.4841  0.0963 -0.8262
 2646TIP3    H229498   5.130   4.179   8.747  0.7181  0.7661  0.2464
 2647TIP3   OH229499   3.267   3.166   1.796 -0.1694  0.2348 -0.4432
 2647TIP3    H129500   3.359   3.153   1.771 -0.1198  0.4185 -0.3542
 2647TIP3    H229501   3.218   3.139   1.718 -0.0036  1.0621 -0.8471
 2648TIP3   OH229502   0.057   6.076   8.823  0.0025 -0.1726 -0.2164
 2648TIP3    H129503   0.110   6.024   8.884  0.0067 -0.4174 -0.4301
 2648TIP3    H229504   0.114   6.149   8.798  0.3157 -0.5438 -0.6005
 2649TIP3   OH229505   4.423   0.594   7.068  0.3634 -0.0067  0.1878
 2649TIP3    H129506   4.478   0.670   7.049  0.7603 -0.3715 -0.1339
 2649TIP3    H229507   4.484   0.522   7.081  0.0300 -0.0938  1.3544
 2650TIP3   OH229508   2.778   3.592   0.603 -0.4791  0.3113 -0.5705
 2650TIP3    H129509   2.767   3.567   0.694  0.0632  0.6354 -0.4082
 2650TIP3    H229510   2.853   3.541   0.572  0.5486  1.5722 -0.2759
 2651TIP3   OH229511   2.627   6.680   0.960 -0.1603  0.5069 -0.1434
 2651TIP3    H129512   2.651   6.747   1.024  0.0632  0.5648 -0.2885
 2651TIP3    H229513   2.557   6.720   0.908  0.1229  0.7102 -0.3714
 2652TIP3   OH229514   2.804   2.139   1.325 -0.1486  0.1262 -0.1584
 2652TIP3    H129515   2.840   2.224   1.300 -0.2446  0.0470 -0.5740
 2652TIP3    H229516   2.877   2.095   1.370  0.6633 -0.4526 -1.9379
 2653TIP3   OH229517   3.052   6.634   7.754 -0.2976  0.0609 -0.6056
 2653TIP3    H129518   2.969   6.652   7.710  0.3274 -0.4466 -2.0328
 2653TIP3    H229519   3.119   6.653   7.689  0.7266  0.5113  0.5417
 2654TIP3   OH229520   0.255   4.098   0.570  0.0847 -0.1275 -0.1325
 2654TIP3    H129521   0.292   4.142   0.493  0.5776 -0.4137 -0.0618
 2654TIP3    H229522   0.161   4.096   0.552 -0.2320  2.6933  0.7560
 2655TIP3   OH229523   1.803   2.893   7.137  1.0109 -0.6378  0.0761
 2655TIP3    H129524   1.787   2.892   7.232 -0.2783  1.0636 -0.0748
 2655TIP3    H229525   1.744   2.826   7.102  0.1998 -0.0817  0.3388
 2656TIP3   OH229526   3.944   0.829   1.609 -0.0162 -0.0021  0.4814
 2656TIP3    H129527   4.035   0.802   1.622 -0.1936 -0.1025  1.5767
 2656TIP3    H229528   3.899   0.750   1.582  0.5618  0.4221 -2.0340
 2657TIP3   OH229529   2.995   4.932   8.092  0.6469  0.0466  0.5776
 2657TIP3    H129530   3.078   4.942   8.044  0.2268  0.2817 -0.1015
 2657TIP3    H229531   2.930   4.975   8.037  0.3925  1.6810  2.0896
 2658TIP3   OH229532   6.460   2.185   1.491 -0.1177 -0.0561  0.2317
 2658TIP3    H129533   6.384   2.238   1.514  0.6409  0.8178  0.7813
 2658TIP3    H229534   6.431   2.133   1.416 -1.3914 -0.0623  0.7061
 2659TIP3   OH229535   2.388   5.100   7.767  0.1404  0.1397 -0.9544
 2659TIP3    H129536   2.318   5.095   7.703  0.4920  2.9894 -1.6976
 2659TIP3    H229537   2.377   5.185   7.808  1.4255 -0.5880  1.0488
 2660TIP3   OH229538   1.854   3.089   0.061 -0.3577 -0.3387  0.1206
 2660TIP3    H129539   1.850   3.172   0.107  1.2260  0.2188 -0.6979
 2660TIP3    H229540   1.866   3.024   0.130  1.0285  0.3870  0.6052
 2661TIP3   OH229541   6.613   3.318   8.657 -0.0335 -0.5506  0.7641
 2661TIP3    H129542   6.707   3.336   8.657  0.1284 -1.3601  1.8393
 2661TIP3    H229543   6.574   3.391   8.706  0.0331 -0.2614  0.3916
 2662TIP3   OH229544   5.646   6.432   7.430 -0.2095  0.2376 -0.5054
 2662TIP3    H129545   5.740   6.427   7.450 -0.6091  0.0197  1.5436
 2662TIP3    H229546   5.629   6.526   7.419  0.1241  0.3433 -0.1471
 2663TIP3   OH229547   2.648   1.903   1.372  0.4175  0.4815  0.0151
 2663TIP3    H129548   2.711   1.974   1.358  1.0381 -0.1934 -0.6868
 2663TIP3    H229549   2.701   1.823   1.369 -0.3862 -0.0601  0.0456
 2664TIP3   OH229550   1.223   0.800   1.876  0.3177  0.4905 -0.3086
 2664TIP3    H129551   1.301   0.822   1.826  2.3548 -1.6588  1.6566
 2664TIP3    H229552   1.208   0.876   1.932 -0.3649  1.7920 -2.1966
 2665TIP3   OH229553   6.710   3.294   0.761  0.0276 -0.2009 -0.2716
 2665TIP3    H129554   6.779   3.254   0.707 -0.1911 -1.2769  0.2195
 2665TIP3    H229555   6.682   3.371   0.711  0.7270 -0.4454 -1.0698
 2666TIP3   OH229556   2.249   6.168   8.177  0.3853 -0.4235  0.4281
 2666TIP3    H129557   2.237   6.153   8.270 -0.8778 -0.3575  0.2955
 2666TIP3    H229558   2.160   6.168   8.141  0.8603 -0.5925 -0.7963
 2667TIP3   OH229559   3.958   3.793   8.372 -0.1090  0.1436 -0.0109
 2667TIP3    H129560   3.953   3.872   8.317  2.3981  1.1341  1.0205
 2667TIP3    H229561   3.981   3.826   8.459  2.4013 -1.7245  0.1626
 2668TIP3   OH229562   2.776   6.606   6.757 -0.1903 -0.0723  0.1841
 2668TIP3    H129563   2.742   6.640   6.839  1.3191  0.3435  0.6589
 2668TIP3    H229564   2.767   6.678   6.695  0.2350  0.1834  0.4198
 2669TIP3   OH229565   1.163   2.611   0.410 -0.1390 -0.1198  0.0082
 2669TIP3    H129566   1.100   2.588   0.478 -1.7066  1.3101 -0.8625
 2669TIP3    H229567   1.154   2.542   0.345 -0.7612  0.0100 -0.0539
 2670TIP3   OH229568   3.115   4.497   1.327 -0.2578 -0.1977  0.0618
 2670TIP3    H129569   3.100   4.509   1.233 -2.2356 -1.6771  0.1418
 2670TIP3    H229570   3.140   4.405   1.336  0.5020  0.0705  0.9543
 2671TIP3   OH229571   5.475   4.019   2.390  0.2093  0.5537 -0.0971
 2671TIP3    H129572   5.524   4.015   2.308 -0.6103  2.5704 -0.7512
 2671TIP3    H229573   5.509   4.096   2.435 -0.0663  0.0609  0.9986
 2672TIP3   OH229574   1.063   3.379   8.914  0.2468 -0.2555  0.1791
 2672TIP3    H129575   1.056   3.447   8.981  1.4904 -1.3788  1.5095
 2672TIP3    H229576   1.033   3.300   8.958 -1.7254 -0.5328 -1.5161
 2673TIP3   OH229577   5.661   1.839   1.154 -0.0526  0.4878  0.1230
 2673TIP3    H129578   5.565   1.834   1.146 -0.0683  1.7518 -0.8292
 2673TIP3    H229579   5.693   1.821   1.066  0.6368 -0.5867  0.5816
 2674TIP3   OH229580   5.606   3.461   6.453 -0.6114 -0.1415  0.3046
 2674TIP3    H129581   5.584   3.415   6.372 -0.4850  0.5016 -0.1104
 2674TIP3    H229582   5.640   3.546   6.423 -2.1982  0.8084  1.0634
 2675TIP3   OH229583   5.704   5.655   8.222  0.3019 -0.1530  0.2574
 2675TIP3    H129584   5.710   5.637   8.316 -1.9688  1.0057  0.7058
 2675TIP3    H229585   5.794   5.667   8.194  0.9925  0.4906  2.5250
 2676TIP3   OH229586   2.156   0.965   2.158  0.0436 -0.2020 -0.5590
 2676TIP3    H129587   2.123   0.879   2.184  0.4940 -0.0448  0.6276
 2676TIP3    H229588   2.136   1.022   2.233  0.4622  0.5428 -0.9992
 2677TIP3   OH229589   1.804   6.277   6.919  0.0361 -0.2772  0.0286
 2677TIP3    H129590   1.828   6.367   6.937 -3.3823  0.3715  2.3894
 2677TIP3    H229591   1.749   6.281   6.841 -0.9750 -0.0874  0.7274
 2678TIP3   OH229592   0.679   1.601   1.709  0.0860 -0.2009 -0.6164
 2678TIP3    H129593   0.630   1.610   1.627  0.7895  0.1292 -1.0106
 2678TIP3    H229594   0.771   1.596   1.681  0.3693  0.3752  0.1708
 2679TIP3   OH229595   5.910   6.320   0.080  0.6274 -0.2140 -0.3382
 2679TIP3    H129596   5.928   6.374   0.157 -0.7611 -0.3350  0.0973
 2679TIP3    H229597   5.991   6.324   0.028  1.4772  0.1199  0.9666
 2680TIP3   OH229598   4.650   3.666   1.816  0.3656  0.2226  0.3910
 2680TIP3    H129599   4.625   3.693   1.904 -0.2631  0.7357  0.0710
 2680TIP3    H229600   4.628   3.573   1.812  0.3905  0.2001  0.7767
 2681TIP3   OH229601   5.737   3.113   0.080 -0.0354  0.2029 -0.4118
 2681TIP3    H129602   5.718   3.161   0.161 -0.1238 -0.6286  0.0800
 2681TIP3    H229603   5.763   3.026   0.110 -1.8017 -0.6967 -1.3288
 2682TIP3   OH229604   3.124   3.109   8.433  0.0465 -0.0246  0.2801
 2682TIP3    H129605   3.142   3.199   8.405 -0.3761  0.4733  1.5400
 2682TIP3    H229606   3.061   3.076   8.368 -1.6622  1.4267  1.1176
 2683TIP3   OH229607   2.537   5.875   7.619  0.3451 -0.1572  0.1630
 2683TIP3    H129608   2.590   5.954   7.611 -1.1946  0.7865 -1.5556
 2683TIP3    H229609   2.507   5.875   7.710  0.4206  1.2129  0.2000
 2684TIP3   OH229610   3.036   4.744   8.270  0.2996  0.0737  0.4991
 2684TIP3    H129611   2.967   4.678   8.286  1.4806 -1.7804 -1.4167
 2684TIP3    H229612   2.998   4.801   8.203 -0.1461  0.3417  0.9799
 2685TIP3   OH229613   1.868   5.049   0.146  0.2381  0.3015  0.3336
 2685TIP3    H129614   1.800   5.075   0.207 -0.3441  1.0719 -0.6163
 2685TIP3    H229615   1.948   5.089   0.181 -0.1800  1.1614  0.3277
 2686TIP3   OH229616   0.854   4.979   8.127 -0.6575 -0.7152  0.0879
 2686TIP3    H129617   0.875   4.937   8.044  1.1116 -0.5835  0.4210
 2686TIP3    H229618   0.846   5.072   8.106  1.2727 -0.4748  0.2589
 2687TIP3   OH229619   0.117   3.267   1.410 -0.8060  0.2265 -0.3445
 2687TIP3    H129620   0.030   3.227   1.410 -0.5393 -0.3540 -0.4510
 2687TIP3    H229621   0.146   3.262   1.501  0.0544 -1.6561 -0.6743
 2688TIP3   OH229622   2.839   2.774   2.500 -0.0350 -0.1362 -0.1405
 2688TIP3    H129623   2.909   2.724   2.541 -1.5021 -0.4799  2.0779
 2688TIP3    H229624   2.844   2.861   2.540 -0.2081  0.1924 -0.8036
 2689TIP3   OH229625   4.315   4.954   0.029 -0.0823 -0.2938 -0.2470
 2689TIP3    H129626   4.326   5.014   0.103 -1.0900  0.6826 -0.8552
 2689TIP3    H229627   4.342   4.869   0.063 -0.3307  0.1724  1.1842
 2690TIP3   OH229628   1.099   4.117   1.417  0.4445 -0.1923 -0.2844
 2690TIP3    H129629   1.029   4.052   1.417  1.0000 -0.8079  0.0454
 2690TIP3    H229630   1.054   4.201   1.409 -0.4575 -0.4585  1.5103
 2691TIP3   OH229631   1.694   5.048   0.370  0.3390  0.3361 -0.1931
 2691TIP3    H129632   1.621   5.085   0.419  0.3687  0.9603 -0.6014
 2691TIP3    H229633   1.747   5.003   0.435  0.8995  1.9590  0.5416
 2692TIP3   OH229634   1.853   1.695   6.769  0.5559 -0.4725  0.0656
 2692TIP3    H129635   1.775   1.640   6.772 -1.0663  1.7363  2.3935
 2692TIP3    H229636   1.925   1.635   6.788 -1.0215 -1.9435  1.7224
 2693TIP3   OH229637   4.742   4.161   1.809  0.0520 -0.3870  0.3626
 2693TIP3    H129638   4.786   4.080   1.835 -2.1458 -1.7674  0.0464
 2693TIP3    H229639   4.713   4.201   1.891  0.8860 -0.0314  0.4983
 2694TIP3   OH229640   3.740   0.153   1.002  0.3429  0.0728  0.1914
 2694TIP3    H129641   3.726   0.203   1.082 -0.7107  1.5012 -0.8618
 2694TIP3    H229642   3.830   0.119   1.011  0.3776  0.5160  1.7868
 2695TIP3   OH229643   2.702   4.817   2.482 -0.5021  0.3853 -0.7081
 2695TIP3    H129644   2.795   4.813   2.503 -0.0827  2.1176 -2.0214
 2695TIP3    H229645   2.676   4.725   2.471  0.9567 -0.1382  0.0228
 2696TIP3   OH229646   2.452   1.897   8.884 -0.1767 -0.2662 -0.0560
 2696TIP3    H129647   2.414   1.810   8.899 -0.4502 -0.1891 -0.2990
 2696TIP3    H229648   2.545   1.885   8.903  0.1356 -1.0830 -1.9337
 2697TIP3   OH229649   0.108   3.200   2.325 -0.1557  0.0289 -0.3799
 2697TIP3    H129650   0.119   3.284   2.370  0.1243 -0.5346  0.6274
 2697TIP3    H229651   0.196   3.163   2.321 -0.5035 -0.9637  0.6981
 2698TIP3   OH229652   1.566   6.552   1.398 -0.1408 -0.0590 -0.2852
 2698TIP3    H129653   1.606   6.552   1.485 -0.2665 -1.0036 -0.2186
 2698TIP3    H229654   1.490   6.609   1.408 -0.4338 -0.5436  0.3704
 2699TIP3   OH229655   0.770   4.237   7.436  0.4696  0.0828  0.8022
 2699TIP3    H129656   0.792   4.256   7.527  0.1924 -0.5660  1.0105
 2699TIP3    H229657   0.761   4.142   7.433  0.9503  0.0544 -0.0142
 2700TIP3   OH229658   2.272   2.238   2.149 -0.1550 -0.0680 -0.4897
 2700TIP3    H129659   2.279   2.295   2.226 -1.0721  1.4200 -1.4491
 2700TIP3    H229660   2.363   2.217   2.127  0.1036 -1.5813  1.6920
 2701TIP3   OH229661   0.700   2.471   8.922 -0.3634  0.0583  0.0792
 2701TIP3    H129662   0.629   2.519   8.880 -0.6635  0.2446  0.7865
 2701TIP3    H229663   0.779   2.521   8.899 -0.1740 -1.1717 -2.2663
 2702TIP3   OH229664   2.371   2.287   6.784  0.0702  0.0505  0.4301
 2702TIP3    H129665   2.397   2.379   6.790  0.4182 -0.0470  0.4017
 2702TIP3    H229666   2.401   2.259   6.698 -1.4483  0.3448 -0.2458
 2703TIP3   OH229667   1.124   2.977   1.235  0.5000 -0.0865 -0.1944
 2703TIP3    H129668   1.033   2.957   1.257 -0.0580 -2.1476 -3.6479
 2703TIP3    H229669   1.173   2.901   1.266  1.0105  0.6661  0.9391
 2704TIP3   OH229670   6.261   1.468   6.703  0.1204  0.1599 -0.7575
 2704TIP3    H129671   6.169   1.457   6.683  0.5768 -0.7859 -2.5161
 2704TIP3    H229672   6.300   1.501   6.622  1.5232 -0.6974 -0.4738
 2705TIP3   OH229673   1.567   3.965   8.289 -0.2414 -0.0419 -0.7334
 2705TIP3    H129674   1.487   3.961   8.343 -1.6735 -2.8848 -2.8488
 2705TIP3    H229675   1.618   3.889   8.316  0.6122  0.3994 -1.0857
 2706TIP3   OH229676   5.825   5.243   1.900 -0.4510  0.3107  0.3784
 2706TIP3    H129677   5.782   5.225   1.983 -0.0616  0.0264  0.5200
 2706TIP3    H229678   5.892   5.175   1.892  0.3094  1.0456  0.3974
 2707TIP3   OH229679   1.499   4.819   1.814  0.2854  0.0582 -0.1162
 2707TIP3    H129680   1.472   4.860   1.732  0.9166  0.8051  0.0393
 2707TIP3    H229681   1.516   4.892   1.873  0.7004 -0.4481  0.3998
 2708TIP3   OH229682   3.207   6.637   8.301  0.1597 -0.3869  0.1945
 2708TIP3    H129683   3.144   6.705   8.280  0.8427 -0.0442 -0.8322
 2708TIP3    H229684   3.189   6.614   8.392 -0.5053  0.6963  0.3496
 2709TIP3   OH229685   1.273   3.435   0.308  0.4775  0.6232  0.3752
 2709TIP3    H129686   1.322   3.375   0.363 -1.6919 -1.8258 -0.1674
 2709TIP3    H229687   1.329   3.513   0.301  3.5582 -1.3815  0.9040
 2710TIP3   OH229688   4.998   0.669   2.043 -0.3783 -0.3160  0.2384
 2710TIP3    H129689   5.090   0.652   2.021 -1.2157 -1.8061 -2.6649
 2710TIP3    H229690   5.000   0.694   2.135  2.9436 -0.1028  0.2479
 2711TIP3   OH229691   2.398   6.742   0.801  0.3017 -0.0262  0.0227
 2711TIP3    H129692   2.320   6.756   0.855 -0.9353  1.9528 -2.1165
 2711TIP3    H229693   2.399   6.648   0.784 -0.9750 -0.2436  1.0018
 2712TIP3   OH229694   0.390   3.356   8.715  0.3576 -0.5533 -0.1022
 2712TIP3    H129695   0.420   3.402   8.637 -0.3550 -1.2910 -0.8305
 2712TIP3    H229696   0.424   3.267   8.705  1.0266 -0.4165  0.8784
 2713TIP3   OH229697   5.336   0.323   1.834 -0.1276 -0.3012  0.0247
 2713TIP3    H129698   5.417   0.372   1.824  0.7839 -1.8349 -0.4866
 2713TIP3    H229699   5.270   0.389   1.855  1.1016  1.0682 -0.2732
 2714TIP3   OH229700   1.353   3.262   7.554  0.2042  0.4326  0.2022
 2714TIP3    H129701   1.370   3.267   7.460  0.3152  2.5781  0.2799
 2714TIP3    H229702   1.436   3.236   7.593 -0.2328 -2.0913 -0.3392
 2715TIP3   OH229703   5.454   2.891   1.579  0.3836  0.4500  0.6077
 2715TIP3    H129704   5.464   2.894   1.674  0.8526  0.3692  0.5638
 2715TIP3    H229705   5.527   2.944   1.546  1.5188 -1.2424  0.2252
 2716TIP3   OH229706   3.452   0.351   7.813 -0.3497 -0.3282 -0.0273
 2716TIP3    H129707   3.466   0.393   7.897  0.8919 -1.3468  0.3114
 2716TIP3    H229708   3.539   0.348   7.773 -0.8016 -0.4983 -1.0288
 2717TIP3   OH229709   5.024   0.082   8.656 -0.5371 -0.1121 -0.1720
 2717TIP3    H129710   5.100   0.033   8.686 -0.5606 -0.0154  0.0500
 2717TIP3    H229711   4.952   0.019   8.656 -0.5853 -0.0552  0.1917
 2718TIP3   OH229712   1.835   0.046   0.278 -0.2537 -0.3749  0.2388
 2718TIP3    H129713   1.893  -0.030   0.286  0.3233 -0.0004 -0.2364
 2718TIP3    H229714   1.747   0.010   0.285 -0.0146 -1.1883 -0.6566
 2719TIP3   OH229715   5.067   6.484   0.547 -0.0055 -0.5671  0.2664
 2719TIP3    H129716   5.111   6.560   0.583  0.0407 -0.0797 -0.7686
 2719TIP3    H229717   5.058   6.504   0.454  0.7399 -2.1679 -0.1919
 2720TIP3   OH229718   4.020   2.240   1.276 -0.0317 -0.6331  0.5892
 2720TIP3    H129719   4.106   2.281   1.266  1.0362 -3.1140 -1.3854
 2720TIP3    H229720   4.036   2.164   1.332 -0.9076 -1.2182  0.0713
 2721TIP3   OH229721   2.780   3.644   1.278  0.4003 -0.1595  0.3303
 2721TIP3    H129722   2.829   3.579   1.229 -2.2515 -2.2530  0.2514
 2721TIP3    H229723   2.845   3.683   1.338  2.6105 -1.0157 -1.3762
 2722TIP3   OH229724   4.922   3.067   0.862  0.5147  0.2563 -0.0659
 2722TIP3    H129725   4.835   3.070   0.822  0.5160  0.9644 -0.0284
 2722TIP3    H229726   4.914   3.000   0.930  1.3133 -3.2003 -3.0475
 2723TIP3   OH229727   0.184   5.345   2.426  0.1271  0.3517 -0.3447
 2723TIP3    H129728   0.256   5.321   2.484 -0.2413 -2.0754 -0.8101
 2723TIP3    H229729   0.140   5.263   2.406 -1.0501  1.3845 -2.3804
 2724TIP3   OH229730   0.854   4.424   7.794  0.4644 -0.0091  0.4792
 2724TIP3    H129731   0.785   4.450   7.733  1.3310 -1.4085 -1.1765
 2724TIP3    H229732   0.935   4.459   7.757  1.0580 -1.2252  0.5803
 2725TIP3   OH229733   6.054   5.947   8.349 -0.3519 -0.0164 -0.1105
 2725TIP3    H129734   6.116   5.877   8.368  0.4944  0.9770  0.9711
 2725TIP3    H229735   5.999   5.953   8.427  0.3269  1.2425  0.3110
 2726TIP3   OH229736   2.717   3.843   7.066 -0.5964 -0.1804  0.1782
 2726TIP3    H129737   2.749   3.763   7.026 -1.1551 -0.8127  0.9686
 2726TIP3    H229738   2.648   3.874   7.007 -1.0606 -0.8228  0.3772
 2727TIP3   OH229739   4.885   6.524   0.952  0.3217  0.0723 -0.5374
 2727TIP3    H129740   4.807   6.560   0.911  0.5133 -1.5415 -2.5016
 2727TIP3    H229741   4.857   6.438   0.984  0.5723  0.6943  1.4888
 2728TIP3   OH229742   6.172   3.100   8.220  0.3433 -1.0613  0.1162
 2728TIP3    H129743   6.189   3.130   8.309  2.9300  2.2340 -1.2297
 2728TIP3    H229744   6.099   3.155   8.190  0.0981 -1.4914 -0.0826
 2729TIP3   OH229745   0.995   2.377   7.804  0.0284 -0.0219 -0.0819
 2729TIP3    H129746   1.057   2.428   7.752  0.5001 -0.2522  0.2486
 2729TIP3    H229747   0.956   2.316   7.741 -0.0169  0.2606 -0.3314
 2730TIP3   OH229748   6.230   5.206   0.168 -0.1536 -0.1953  0.5007
 2730TIP3    H129749   6.185   5.273   0.116 -0.8463  0.0629  1.3962
 2730TIP3    H229750   6.294   5.254   0.220  0.4340 -0.4315 -0.0004
 2731TIP3   OH229751   1.595   2.999   2.607  0.6173 -0.5108  0.3140
 2731TIP3    H129752   1.533   3.010   2.535  1.6752  0.5825 -0.4661
 2731TIP3    H229753   1.541   2.996   2.686 -0.4147  0.6287 -0.3255
 2732TIP3   OH229754   5.973   5.023   8.815  0.4941 -0.6623  0.6657
 2732TIP3    H129755   5.916   4.993   8.744 -0.7220 -0.4875  1.5377
 2732TIP3    H229756   5.928   5.098   8.853  1.2628 -0.5677  1.4436
 2733TIP3   OH229757   3.101   2.288   6.830  0.2932 -0.0507  0.0834
 2733TIP3    H129758   3.118   2.383   6.833 -0.0861  0.1461 -2.0364
 2733TIP3    H229759   3.011   2.281   6.798  1.0129 -1.0872 -1.8848
 2734TIP3   OH229760   5.839   4.120   7.789 -0.1445 -0.4815  0.3177
 2734TIP3    H129761   5.755   4.098   7.747 -0.7415  0.7043  0.8560
 2734TIP3    H229762   5.890   4.039   7.783 -0.2896 -0.4491 -2.4486
 2735TIP3   OH229763   3.170   1.679   1.023 -1.0767  0.1214  0.4686
 2735TIP3    H129764   3.115   1.756   1.011 -0.9539  0.1170 -0.1597
 2735TIP3    H229765   3.255   1.714   1.049 -1.8082  0.0622  3.2660
 2736TIP3   OH229766   4.064   3.322   1.830 -0.1818 -0.1070  0.3931
 2736TIP3    H129767   3.995   3.332   1.896  0.5992  1.2084  1.0397
 2736TIP3    H229768   4.118   3.401   1.839  0.9606 -0.7402 -0.6267
 2737TIP3   OH229769   2.149   2.707   0.897 -0.3594 -0.2690 -0.0426
 2737TIP3    H129770   2.100   2.649   0.956 -1.1026 -0.2361 -0.6299
 2737TIP3    H229771   2.199   2.647   0.841 -1.5205 -0.3747 -0.9923
 2738TIP3   OH229772   6.676   6.568   8.080 -0.5245 -0.6541 -0.6023
 2738TIP3    H129773   6.744   6.550   8.145 -0.4133 -1.1438 -0.8480
 2738TIP3    H229774   6.597   6.582   8.131 -0.1540  0.3387 -0.2932
 2739TIP3   OH229775   4.310   4.700   1.403  0.0211 -0.1975  0.0682
 2739TIP3    H129776   4.303   4.776   1.462 -0.7545  0.2810 -0.6179
 2739TIP3    H229777   4.395   4.662   1.424 -0.4620 -0.3871  1.9031
 2740TIP3   OH229778   5.124   6.342   0.112 -0.7852 -0.0134 -0.0983
 2740TIP3    H129779   5.197   6.295   0.152 -1.0966 -1.1858 -0.8827
 2740TIP3    H229780   5.047   6.310   0.158 -1.1776 -1.5773 -1.7418
 2741TIP3   OH229781   3.415   1.595   0.190 -0.0385 -0.3908  0.3175
 2741TIP3    H129782   3.430   1.645   0.271 -0.2308  0.0341  0.0937
 2741TIP3    H229783   3.499   1.598   0.145  0.5177 -1.9144  1.1956
 2742TIP3   OH229784   4.203   2.044   2.153 -0.1192  0.5182 -0.1848
 2742TIP3    H129785   4.241   1.977   2.210 -0.8554  0.5913  0.4026
 2742TIP3    H229786   4.238   2.127   2.186 -0.4612  0.5519  0.0925
 2743TIP3   OH229787   3.924   4.337   2.421  0.1910 -0.0203 -0.7050
 2743TIP3    H129788   3.965   4.419   2.446 -0.9191 -0.0858  1.5252
 2743TIP3    H229789   3.859   4.361   2.354 -2.3418  1.5299  2.0807
 2744TIP3   OH229790   3.364   5.108   6.742 -0.2696  0.1712 -0.3794
 2744TIP3    H129791   3.368   5.122   6.648  1.1570  1.8604 -0.1167
 2744TIP3    H229792   3.455   5.092   6.768 -0.7782 -1.4479  0.5904
 2745TIP3   OH229793   3.777   4.177   8.175 -0.2961 -0.8011 -0.1990
 2745TIP3    H129794   3.687   4.145   8.183 -0.4549 -0.4631 -0.6375
 2745TIP3    H229795   3.829   4.098   8.160 -0.1970 -1.3072  2.3107
 2746TIP3   OH229796   5.300   0.025   0.342  0.3744 -0.9181  0.1650
 2746TIP3    H129797   5.253   0.100   0.306  1.7927 -1.1864 -2.5066
 2746TIP3    H229798   5.232  -0.028   0.384 -0.9796  0.7860  0.2205
 2747TIP3   OH229799   3.017   3.018   0.833  0.4014  0.9842  0.5214
 2747TIP3    H129800   2.940   2.964   0.815  0.0729  1.7759 -0.5440
 2747TIP3    H229801   3.044   3.051   0.747  1.1943  1.7018  1.0303
 2748TIP3   OH229802   1.281   3.805   2.125 -0.5705  0.2055 -0.2343
 2748TIP3    H129803   1.301   3.744   2.195  0.4519 -1.4642 -1.8756
 2748TIP3    H229804   1.211   3.860   2.160 -0.5037 -0.9352  1.8446
 2749TIP3   OH229805   4.682   4.960   7.783  0.7643 -0.5015  0.2796
 2749TIP3    H129806   4.664   5.032   7.843  0.1603 -1.8068  1.7425
 2749TIP3    H229807   4.643   4.988   7.700  0.3451  0.7455  0.8648
 2750TIP3   OH229808   0.167   0.178   1.824 -0.2283 -0.2825  0.5769
 2750TIP3    H129809   0.246   0.132   1.851  0.3545 -0.6783 -1.5956
 2750TIP3    H229810   0.199   0.264   1.795 -0.0019 -1.4765 -3.2225
 2751TIP3   OH229811   2.089   2.718   1.922  0.5011  0.2786  0.0743
 2751TIP3    H129812   2.068   2.627   1.903 -1.9319  0.5173  1.2401
 2751TIP3    H229813   2.049   2.735   2.007  4.0425  1.4697  1.6921
 2752TIP3   OH229814   2.949   1.666   0.760  0.3513 -0.4784  0.0356
 2752TIP3    H129815   2.892   1.731   0.720 -0.4265 -0.8387  0.5243
 2752TIP3    H229816   2.934   1.586   0.708 -0.0807 -0.7424  0.5582
 2753TIP3   OH229817   6.137   3.481   6.881  0.3031 -0.6007 -0.9049
 2753TIP3    H129818   6.066   3.433   6.925 -0.5788 -0.5310 -2.1887
 2753TIP3    H229819   6.206   3.488   6.947 -1.0967 -0.1959  0.5806
 2754TIP3   OH229820   0.493   5.024   1.188  1.0499  0.4262  0.3091
 2754TIP3    H129821   0.498   5.108   1.233  1.3522  0.6943 -0.2157
 2754TIP3    H229822   0.477   5.046   1.097  0.9265 -0.0940  0.1976
 2755TIP3   OH229823   1.466   5.057   0.012  0.1082  0.7966  0.1187
 2755TIP3    H129824   1.441   4.977   0.059  0.6823  0.0282 -0.8367
 2755TIP3    H229825   1.516   5.108   0.076  1.9375 -0.7767  0.0498
 2756TIP3   OH229826   1.986   1.555   0.722 -0.1416  0.0839  0.2430
 2756TIP3    H129827   1.920   1.488   0.707 -0.3570  0.3423  0.0219
 2756TIP3    H229828   1.961   1.627   0.663 -1.7452  1.6763  2.6833
 2757TIP3   OH229829   5.898   4.955   7.996 -0.5226  0.5135 -0.0649
 2757TIP3    H129830   5.977   5.001   8.027 -0.4908  0.6358 -0.3229
 2757TIP3    H229831   5.848   5.022   7.950 -1.6334  0.8722  1.5831
 2758TIP3   OH229832   6.637   5.494   7.333  0.0630  0.0504  0.0672
 2758TIP3    H129833   6.673   5.577   7.365  0.6149  0.0194 -0.4636
 2758TIP3    H229834   6.578   5.465   7.403 -0.8423  1.3422 -0.1408
 2759TIP3   OH229835   6.315   1.394   8.279  0.2419  0.0355 -0.4438
 2759TIP3    H129836   6.291   1.301   8.276  1.1083 -0.2200  0.0877
 2759TIP3    H229837   6.235   1.440   8.254 -0.0269 -0.8723 -1.3159
 2760TIP3   OH229838   1.631   6.698   7.538 -0.1644  0.2069  0.6619
 2760TIP3    H129839   1.717   6.660   7.518 -0.9324 -0.5580 -1.4577
 2760TIP3    H229840   1.648   6.792   7.545  0.8928  0.0366  0.5546
 2761TIP3   OH229841   6.137   6.263   1.499 -0.2343 -0.5045 -0.6494
 2761TIP3    H129842   6.049   6.225   1.492 -0.4726  0.3030 -2.7282
 2761TIP3    H229843   6.183   6.206   1.560 -2.3364 -0.6714  0.8753
 2762TIP3   OH229844   5.470   5.431   8.677 -0.5948 -0.4215  0.0334
 2762TIP3    H129845   5.494   5.485   8.753  1.8730 -0.6635 -0.4769
 2762TIP3    H229846   5.501   5.343   8.700  0.1099 -0.5141 -1.1679
 2763TIP3   OH229847   5.297   3.710   6.415 -0.1138 -0.6343  0.3864
 2763TIP3    H129848   5.266   3.799   6.428 -3.3427 -1.4788 -0.6556
 2763TIP3    H229849   5.348   3.714   6.334 -1.6864  0.0291 -0.6189
 2764TIP3   OH229850   6.431   4.669   1.775 -0.3700  0.0812 -0.0163
 2764TIP3    H129851   6.508   4.660   1.719 -1.4338 -2.0617 -1.3134
 2764TIP3    H229852   6.463   4.708   1.856  1.8674  0.1810 -0.8873
 2765TIP3   OH229853   1.416   2.318   0.982  0.2510  0.2157 -0.3045
 2765TIP3    H129854   1.381   2.398   1.021 -0.5184 -0.9581  1.5516
 2765TIP3    H229855   1.494   2.298   1.033  0.4249 -0.2304 -0.7319
 2766TIP3   OH229856   5.950   4.054   8.767 -0.3776 -0.5369 -0.3564
 2766TIP3    H129857   5.914   4.056   8.678 -0.9856 -1.4137 -0.1482
 2766TIP3    H229858   6.042   4.077   8.757 -0.9376  1.7249 -0.9198
 2767TIP3   OH229859   6.565   2.627   1.092 -0.3769 -0.1271 -1.4373
 2767TIP3    H129860   6.498   2.688   1.061 -1.3284 -1.1547 -1.4810
 2767TIP3    H229861   6.521   2.573   1.157  0.9800  0.4718  0.0435
 2768TIP3   OH229862   3.951   4.873   1.476  0.5898 -0.0391 -0.0240
 2768TIP3    H129863   3.921   4.807   1.413  2.6379 -0.3177 -0.7806
 2768TIP3    H229864   3.959   4.825   1.558 -1.3907  0.1570  0.3329
 2769TIP3   OH229865   3.639   1.294   0.914 -0.3290 -0.0199  0.5017
 2769TIP3    H129866   3.632   1.388   0.898 -0.6389  0.0540  1.0461
 2769TIP3    H229867   3.606   1.254   0.834 -1.9939  0.3347  0.9736
 2770TIP3   OH229868   0.668   1.474   7.700  0.3875 -0.3528 -0.1571
 2770TIP3    H129869   0.607   1.543   7.725 -0.8930 -1.3064 -0.5554
 2770TIP3    H229870   0.618   1.393   7.707  1.2550 -1.0673 -1.5996
 2771TIP3   OH229871   1.169   6.448   1.246 -0.1037 -0.5299 -0.4903
 2771TIP3    H129872   1.171   6.458   1.342 -0.9828  1.1732 -0.6063
 2771TIP3    H229873   1.077   6.465   1.223  0.3627  0.4415 -1.7318
 2772TIP3   OH229874   5.628   2.888   7.399  0.5086  0.1685 -0.1784
 2772TIP3    H129875   5.701   2.897   7.338  0.7723 -1.2628 -0.1081
 2772TIP3    H229876   5.654   2.940   7.475  3.2035 -3.0903  1.3586
 2773TIP3   OH229877   5.385   4.769   8.647  0.5475 -0.3700  0.4707
 2773TIP3    H129878   5.443   4.772   8.722 -0.3203 -0.3517  1.1582
 2773TIP3    H229879   5.391   4.679   8.615  2.7922  0.2297 -0.9799
 2774TIP3   OH229880   6.321   2.898   8.800 -0.2354 -0.6342 -0.0946
 2774TIP3    H129881   6.323   2.807   8.772 -0.1764 -0.3386 -1.0866
 2774TIP3    H229882   6.388   2.941   8.746  0.1614 -0.1199  0.7858
 2775TIP3   OH229883   5.902   0.302   7.897  0.1497  0.3893 -0.0197
 2775TIP3    H129884   5.921   0.317   7.990  1.9990  0.0582 -0.3047
 2775TIP3    H229885   5.904   0.389   7.858  0.7743  0.3968  0.0222
 2776TIP3   OH229886   2.797   1.159   1.243 -0.4620 -0.4726 -0.4031
 2776TIP3    H129887   2.729   1.208   1.196  0.1376  1.1003  0.3227
 2776TIP3    H229888   2.814   1.083   1.186 -2.7461 -0.8938 -0.6327
 2777TIP3   OH229889   3.514   2.321   8.468 -0.6098 -0.7841 -0.1241
 2777TIP3    H129890   3.492   2.243   8.520 -1.1014 -0.0028  0.8833
 2777TIP3    H229891   3.607   2.335   8.485 -0.4341 -1.3469 -0.5909
 2778TIP3   OH229892   1.992   2.068   7.745  0.1257  0.0622 -0.1498
 2778TIP3    H129893   1.984   2.078   7.650 -0.2949 -2.0149 -0.3861
 2778TIP3    H229894   1.906   2.095   7.778 -0.1736 -0.4212 -0.5029
 2779TIP3   OH229895   6.588   6.086   8.613 -0.2400  0.2335  0.5940
 2779TIP3    H129896   6.632   6.027   8.675 -0.5580 -0.3004  0.3271
 2779TIP3    H229897   6.520   6.031   8.573 -0.7659  0.8810  0.5833
 2780TIP3   OH229898   5.570   4.760   0.850 -0.0422 -0.6263 -0.1043
 2780TIP3    H129899   5.503   4.825   0.826 -0.4461 -0.2951  1.7304
 2780TIP3    H229900   5.563   4.753   0.945  0.9258 -2.3811 -0.1175
 2781TIP3   OH229901   4.608   3.527   2.317  0.5285  0.7036 -0.1577
 2781TIP3    H129902   4.552   3.478   2.378  1.2736 -2.4761 -1.7968
 2781TIP3    H229903   4.546   3.569   2.257 -0.2299 -1.0763 -0.7126
 2782TIP3   OH229904   0.649   5.895   1.741  0.2481 -0.4941  0.7685
 2782TIP3    H129905   0.564   5.941   1.739  1.2072  1.4178 -1.1940
 2782TIP3    H229906   0.653   5.855   1.828 -2.0984  0.4366  1.3947
 2783TIP3   OH229907   3.279   6.556   1.234 -0.1201  0.1496 -0.4731
 2783TIP3    H129908   3.321   6.635   1.267 -0.0432  0.4424 -1.2681
 2783TIP3    H229909   3.258   6.506   1.313  2.2270 -0.2825 -0.0614
 2784TIP3   OH229910   5.341   1.163   7.975  0.3749  0.0810  0.2440
 2784TIP3    H129911   5.435   1.168   7.993  0.1086 -0.6962  2.0846
 2784TIP3    H229912   5.303   1.128   8.056 -1.4320 -0.1979 -0.6763
 2785TIP3   OH229913   3.940   0.751   2.676  0.5784 -0.4728 -0.3046
 2785TIP3    H129914   3.864   0.775   2.623  0.1731 -1.5683 -0.2410
 2785TIP3    H229915   3.960   0.830   2.726  0.3366  0.2542 -1.3274
 2786TIP3   OH229916   0.994   5.507   7.666 -0.3058 -0.3230 -0.2777
 2786TIP3    H129917   0.940   5.573   7.622  0.1712  0.0498 -0.3080
 2786TIP3    H229918   0.948   5.424   7.649 -1.2509  0.0647  0.2974
 2787TIP3   OH229919   2.069   3.738   1.703  0.2748 -1.0777 -0.2553
 2787TIP3    H129920   2.042   3.648   1.686  1.4009 -1.6658  0.9218
 2787TIP3    H229921   1.991   3.780   1.740 -0.0190 -1.7878 -0.0630
 2788TIP3   OH229922   6.513   0.761   1.432 -0.1347 -0.0667 -0.4945
 2788TIP3    H129923   6.577   0.700   1.393 -1.5801 -2.4453  0.6113
 2788TIP3    H229924   6.565   0.837   1.457  1.9501 -1.1428 -1.2667
 2789TIP3   OH229925   3.231   6.673   7.555  0.3627  0.7776 -0.0003
 2789TIP3    H129926   3.317   6.702   7.588  1.0615 -0.4388 -0.6895
 2789TIP3    H229927   3.220   6.720   7.472  0.6222  0.5305 -0.1780
 2790TIP3   OH229928   3.512   3.985   1.013  0.5435 -0.2846 -0.0829
 2790TIP3    H129929   3.562   3.909   0.986 -0.8947 -0.8070 -1.4417
 2790TIP3    H229930   3.469   3.958   1.094  1.1356 -0.4129  0.1922
 2791TIP3   OH229931   5.067   3.952   7.287  0.0293  0.6774  0.3792
 2791TIP3    H129932   5.080   4.029   7.231  0.0536  0.2165 -0.2499
 2791TIP3    H229933   4.973   3.953   7.307 -0.1785  0.2752 -0.5127
 2792TIP3   OH229934   3.415   6.184   8.439  0.2382 -0.1063  0.1390
 2792TIP3    H129935   3.400   6.124   8.365  0.0615  1.6605 -1.3146
 2792TIP3    H229936   3.353   6.255   8.426  0.4660  0.4488  1.8109
 2793TIP3   OH229937   4.092   6.466   8.592 -0.3466 -0.3150  0.9102
 2793TIP3    H129938   4.051   6.545   8.625  1.2599  0.7337  0.5205
 2793TIP3    H229939   4.186   6.480   8.604  0.4699  0.2463 -3.9752
 2794TIP3   OH229940   5.902   2.020   8.630  0.0224 -0.3046  0.4957
 2794TIP3    H129941   5.915   2.061   8.545  0.8672 -2.3068 -0.4204
 2794TIP3    H229942   5.964   2.063   8.688  0.7652 -0.1726 -0.3752
 2795TIP3   OH229943   2.264   5.165   0.348 -0.3630 -0.0618 -0.1474
 2795TIP3    H129944   2.333   5.160   0.414 -0.5377  1.1782  0.1623
 2795TIP3    H229945   2.215   5.083   0.357 -0.4391  0.1213  1.3201
 2796TIP3   OH229946   0.228   6.338   1.016 -0.0366  0.0387  0.1588
 2796TIP3    H129947   0.271   6.414   0.977 -0.0103 -0.2888 -0.4638
 2796TIP3    H229948   0.299   6.280   1.042 -0.0687  0.0300  0.2286
 2797TIP3   OH229949   5.658   6.230   2.020  0.2181 -0.1486  0.2833
 2797TIP3    H129950   5.590   6.197   2.078  1.1182 -1.7366  0.4678
 2797TIP3    H229951   5.665   6.323   2.042 -2.1421  0.1711 -0.0216
 2798TIP3   OH229952   6.453   3.434   7.455 -0.1309  0.0658 -0.2518
 2798TIP3    H129953   6.516   3.389   7.399  0.2676 -1.0404  1.0350
 2798TIP3    H229954   6.372   3.435   7.403  1.0997  2.3548 -2.3153
 2799TIP3   OH229955   4.881   3.218   8.525 -0.3883 -0.3165  0.5555
 2799TIP3    H129956   4.925   3.217   8.610  0.7359  0.7055  0.0227
 2799TIP3    H229957   4.846   3.307   8.518 -0.5929 -0.4382  0.0054
 2800TIP3   OH229958   5.336   1.342   0.329 -0.0727 -0.4197 -0.6728
 2800TIP3    H129959   5.263   1.318   0.386  1.2144 -1.8596  0.4942
 2800TIP3    H229960   5.358   1.431   0.355 -0.1941 -0.6767  0.3571
 2801TIP3   OH229961   2.102   0.274   8.024 -0.4543 -0.2920  0.3310
 2801TIP3    H129962   2.106   0.179   8.016 -2.8480 -0.3737 -0.9258
 2801TIP3    H229963   2.027   0.290   8.081 -1.0940  0.8433 -0.7832
 2802TIP3   OH229964   3.481   2.939   7.779  0.1547  0.3810  0.2115
 2802TIP3    H129965   3.503   3.032   7.781  0.5314  0.2949 -0.0098
 2802TIP3    H229966   3.394   2.937   7.739  1.3579  0.4195 -2.6267
 2803TIP3   OH229967   2.682   0.531   1.984  0.2474 -0.5238  0.2145
 2803TIP3    H129968   2.766   0.521   2.028 -0.4050  2.2652  2.3443
 2803TIP3    H229969   2.691   0.611   1.932 -1.0565 -0.2044  0.4452
 2804TIP3   OH229970   1.077   4.969   8.359 -0.3648  0.0928  1.4187
 2804TIP3    H129971   1.115   4.984   8.272 -1.9461 -1.5186  0.3775
 2804TIP3    H229972   1.144   5.000   8.420  0.5083  1.9229 -0.3574
 2805TIP3   OH229973   6.101   2.829   2.635  0.1015 -0.1569  0.0041
 2805TIP3    H129974   6.187   2.801   2.605 -1.0389 -0.7976 -3.0484
 2805TIP3    H229975   6.107   2.925   2.640  1.3082 -0.2762  1.0083
 2806TIP3   OH229976   1.560   6.460   7.712  0.4511 -0.5107 -0.0814
 2806TIP3    H129977   1.614   6.518   7.658  0.6451 -0.1459  0.5000
 2806TIP3    H229978   1.550   6.381   7.659 -0.5873  0.3803 -1.2904
 2807TIP3   OH229979   2.778   2.340   8.034  0.4284 -0.6412 -0.3523
 2807TIP3    H129980   2.733   2.293   8.104  1.5844 -0.7338  0.3471
 2807TIP3    H229981   2.866   2.355   8.068  0.9406 -0.4893 -1.7070
 2808TIP3   OH229982   6.243   5.243   7.538 -0.0327 -0.2993 -0.5140
 2808TIP3    H129983   6.227   5.337   7.528 -0.5742 -0.4970 -1.6246
 2808TIP3    H229984   6.276   5.215   7.453  1.3304 -0.8959  0.1910
 2809TIP3   OH229985   1.370   0.210   7.891  0.3778  0.3452  0.2108
 2809TIP3    H129986   1.460   0.193   7.865 -0.7684 -1.7196 -3.0986
 2809TIP3    H229987   1.329   0.248   7.813 -1.9777 -0.3720  1.0071
 2810TIP3   OH229988   5.471   4.856   1.406 -0.0197 -0.0161 -0.6168
 2810TIP3    H129989   5.489   4.842   1.499 -1.5139  1.5482 -0.0359
 2810TIP3    H229990   5.428   4.775   1.378  1.4249 -0.9348 -0.2447
 2811TIP3   OH229991   5.216   5.190   0.650 -1.0772  0.2244 -0.6204
 2811TIP3    H129992   5.176   5.256   0.594  0.5287  2.3018  0.5137
 2811TIP3    H229993   5.296   5.164   0.603  0.1807  1.8425  0.5096
 2812TIP3   OH229994   1.748   0.755   6.636  0.0324  0.2078 -0.1221
 2812TIP3    H129995   1.792   0.673   6.614  0.6820  0.4782  0.1534
 2812TIP3    H229996   1.672   0.728   6.687 -0.3345 -0.2892 -0.9096
 2813TIP3   OH229997   0.296   0.688   8.216  0.0695 -0.0733 -0.7829
 2813TIP3    H129998   0.348   0.640   8.281  1.1800  2.1204  0.0314
 2813TIP3    H229999   0.311   0.640   8.134  1.1495 -1.0841 -0.0367
 2814TIP3   OH230000   6.102   3.673   8.838  0.5073 -0.4360 -0.3153
 2814TIP3    H130001   6.187   3.694   8.800  1.0907 -0.3081  1.0209
 2814TIP3    H230002   6.094   3.731   8.913 -0.4420 -0.9689  0.0131
 2815TIP3   OH230003   5.451   1.667   7.346 -0.6741 -0.4644 -0.7982
 2815TIP3    H130004   5.452   1.582   7.389 -1.3785 -0.8089 -1.4303
 2815TIP3    H230005   5.358   1.689   7.340 -0.4819  1.6868  1.9033
 2816TIP3   OH230006   2.367   2.143   6.999  0.4669  0.2927  0.3201
 2816TIP3    H130007   2.377   2.208   7.069 -0.8715  0.7589  0.1026
 2816TIP3    H230008   2.367   2.194   6.918  1.9522 -0.2415 -0.0452
 2817TIP3   OH230009   2.684   0.851   0.689  0.4300 -0.2343  0.1266
 2817TIP3    H130010   2.695   0.763   0.726 -2.0882 -1.0546 -0.8924
 2817TIP3    H230011   2.644   0.902   0.760  2.0019  0.1740  0.7586
 2818TIP3   OH230012   5.866   0.228   3.106  0.1879  0.2459 -0.5466
 2818TIP3    H130013   5.797   0.236   3.171 -1.4192 -1.0242 -2.0149
 2818TIP3    H230014   5.830   0.169   3.039  1.5472  1.8798 -2.8683
 2819TIP3   OH230015   4.898   1.127   1.096 -0.1655 -0.0793  0.2449
 2819TIP3    H130016   4.851   1.168   1.024  2.3137  1.3297 -0.6777
 2819TIP3    H230017   4.928   1.200   1.150 -0.4443 -1.0281  1.7419
 2820TIP3   OH230018   4.074   2.169   7.807  0.4410  0.1613 -0.1679
 2820TIP3    H130019   4.105   2.237   7.747  0.1703 -1.2778 -2.0470
 2820TIP3    H230020   3.982   2.191   7.822  0.6590  0.8445  0.1822
 2821TIP3   OH230021   1.209   5.635   0.688  0.3288  0.0046 -0.0055
 2821TIP3    H130022   1.287   5.584   0.709  1.3288  1.6064  0.3478
 2821TIP3    H230023   1.169   5.655   0.773 -0.6441 -1.0070 -0.1932
 2822TIP3   OH230024   1.757   5.817   8.372  0.1259  0.6073 -0.0795
 2822TIP3    H130025   1.848   5.804   8.345  0.2105 -1.3833  1.0027
 2822TIP3    H230026   1.707   5.754   8.320 -0.3126  0.1045  0.9159
 2823TIP3   OH230027   2.172   1.327   8.938  0.3618  0.3138 -0.1443
 2823TIP3    H130028   2.261   1.313   8.906 -0.4880  0.0718 -2.5538
 2823TIP3    H230029   2.159   1.422   8.932  1.4776  0.8286  3.3246
 2824TIP3   OH230030   3.587   3.245   8.425 -0.4232 -0.1393 -0.6029
 2824TIP3    H130031   3.652   3.265   8.492 -0.6701 -0.7209 -0.1670
 2824TIP3    H230032   3.569   3.328   8.382 -0.3770  0.2773  0.1720
 2825TIP3   OH230033   3.590   5.133   8.872  0.0454 -0.2264  0.2465
 2825TIP3    H130034   3.614   5.086   8.792  1.8964  1.0475 -0.0021
 2825TIP3    H230035   3.598   5.067   8.941 -0.5760 -1.0790 -0.4543
 2826TIP3   OH230036   3.410   3.363   1.605 -0.4599 -0.1858  0.2232
 2826TIP3    H130037   3.340   3.382   1.667  1.4154 -0.0145  2.4442
 2826TIP3    H230038   3.490   3.388   1.651  0.9741  2.1473 -3.1698
 2827TIP3   OH230039   1.467   3.463   6.688  0.1030  0.1253  0.1443
 2827TIP3    H130040   1.520   3.493   6.763  0.5532  0.2515 -0.2203
 2827TIP3    H230041   1.388   3.518   6.691 -0.1620 -0.2816  0.8818
 2828TIP3   OH230042   0.132   2.240   2.067 -0.5624  0.1761  0.4160
 2828TIP3    H130043   0.068   2.285   2.123 -1.2265 -1.3494  0.9434
 2828TIP3    H230044   0.089   2.232   1.982 -0.9346 -0.4895  0.6576
 2829TIP3   OH230045   2.571   1.676   2.751 -0.0284  0.4265 -0.0684
 2829TIP3    H130046   2.606   1.662   2.663 -0.9059  1.9092 -0.7055
 2829TIP3    H230047   2.601   1.764   2.775  0.7591 -0.2195  1.4138
 2830TIP3   OH230048   6.734   1.128   2.372 -0.6543  0.0220 -0.2005
 2830TIP3    H130049   6.787   1.124   2.451  1.1455  2.1269 -1.1997
 2830TIP3    H230050   6.674   1.201   2.387  0.9061  1.6352 -1.3704
 2831TIP3   OH230051   2.899   6.262   2.335 -0.2751  0.4173  0.3057
 2831TIP3    H130052   2.873   6.240   2.246 -0.3386  0.6485  0.2677
 2831TIP3    H230053   2.852   6.343   2.355 -1.6085 -0.5335  1.1748
 2832TIP3   OH230054   0.265   1.383   7.600  0.5194 -0.0671  0.2895
 2832TIP3    H130055   0.291   1.475   7.607 -1.4763  0.7070 -1.3764
 2832TIP3    H230056   0.180   1.379   7.643  0.1033 -0.8767 -0.5595
 2833TIP3   OH230057   4.353   3.803   8.810  0.3430  0.2395  0.1622
 2833TIP3    H130058   4.431   3.814   8.863 -0.9301  0.2588  2.1484
 2833TIP3    H230059   4.328   3.711   8.823  0.2388  0.1236 -0.7799
 2834TIP3   OH230060   4.215   4.057   0.505 -0.3134 -0.3451  0.2174
 2834TIP3    H130061   4.238   4.143   0.539 -0.1669 -1.0287  1.9211
 2834TIP3    H230062   4.144   4.026   0.561 -1.0434 -0.9543 -0.9791
 2835TIP3   OH230063   2.303   1.404   0.244 -0.2982 -0.0654 -0.6900
 2835TIP3    H130064   2.307   1.313   0.215  3.3376  0.1423 -1.4041
 2835TIP3    H230065   2.258   1.450   0.173  1.4246 -0.7813 -2.3249
 2836TIP3   OH230066   6.008   5.051   1.847  0.1007 -0.3800 -0.0679
 2836TIP3    H130067   6.053   4.997   1.783  0.3737 -1.6993  1.1707
 2836TIP3    H230068   6.072   5.064   1.917  0.5387  2.7763 -0.8872
 2837TIP3   OH230069   4.031   3.961   8.900 -0.4117 -0.1262 -0.1754
 2837TIP3    H130070   3.975   4.039   8.891  0.4182  0.4873 -0.2026
 2837TIP3    H230071   4.119   3.997   8.913 -0.2181 -1.0596  1.2464
 2838TIP3   OH230072   6.343   6.184   8.867  0.1920  0.3017  0.3774
 2838TIP3    H130073   6.384   6.249   8.810 -0.8928  1.0136  0.3802
 2838TIP3    H230074   6.415   6.149   8.918  1.3669 -0.9864 -1.9902
 2839TIP3   OH230075   5.727   5.856   1.552 -0.5907 -0.1173 -0.3501
 2839TIP3    H130076   5.761   5.767   1.542  1.6470  0.6257  0.1115
 2839TIP3    H230077   5.713   5.866   1.646 -0.8279  0.0113 -0.4000
 2840TIP3   OH230078   6.288   3.015   7.705 -0.4040 -0.2557  0.0008
 2840TIP3    H130079   6.280   3.069   7.784  1.1898 -0.9639  0.6795
 2840TIP3    H230080   6.276   3.077   7.633 -1.2038  0.5214  0.7681
 2841TIP3   OH230081   0.757   5.562   0.428 -0.0003 -0.0444 -0.0819
 2841TIP3    H130082   0.772   5.519   0.344 -0.7425  0.5302 -0.5263
 2841TIP3    H230083   0.836   5.545   0.479  0.4011 -0.5081 -0.8503
 2842TIP3   OH230084   4.770   6.316   0.518 -0.1583  0.0796  0.2883
 2842TIP3    H130085   4.748   6.240   0.464 -0.9533  0.8101 -0.4493
 2842TIP3    H230086   4.766   6.284   0.608  2.4932 -1.5021 -0.0597
 2843TIP3   OH230087   4.559   2.699   8.777  0.0547  0.3963 -0.0492
 2843TIP3    H130088   4.540   2.613   8.814 -0.5239  1.2350  1.7377
 2843TIP3    H230089   4.484   2.718   8.720 -0.7323  0.4562  0.9723
 2844TIP3   OH230090   3.531   4.736   0.815 -0.0580  0.0089 -0.2958
 2844TIP3    H130091   3.587   4.691   0.751 -1.6933 -1.8473 -0.4915
 2844TIP3    H230092   3.591   4.760   0.886  1.2855 -0.3983 -1.2410
 2845TIP3   OH230093   6.177   1.699   8.513  0.0352  0.4702 -0.4017
 2845TIP3    H130094   6.164   1.794   8.521 -0.9089  0.2233  1.8516
 2845TIP3    H230095   6.121   1.674   8.440 -1.3071  1.4255  0.2395
 2846TIP3   OH230096   2.155   0.607   0.960  0.3174  0.4812 -0.0621
 2846TIP3    H130097   2.087   0.649   0.907 -0.7264 -0.7313  0.2662
 2846TIP3    H230098   2.198   0.546   0.900  0.6522  0.7379 -0.0857
 2847TIP3   OH230099   3.417   6.189   7.945 -0.2364  0.0236  0.4663
 2847TIP3    H130100   3.434   6.128   7.873 -3.4690 -1.5516  0.8651
 2847TIP3    H230101   3.351   6.249   7.911 -0.9586 -0.0225  1.7239
 2848TIP3   OH230102   3.853   5.435   0.169 -0.4489 -0.2492  0.1010
 2848TIP3    H130103   3.796   5.504   0.136 -0.7494 -0.4743  0.1534
 2848TIP3    H230104   3.845   5.365   0.104 -0.5461 -0.4418  0.3243
 2849TIP3   OH230105   2.258   5.761   8.082 -0.0248 -0.2436 -0.0873
 2849TIP3    H130106   2.323   5.769   8.012 -0.5211  1.0090 -0.4214
 2849TIP3    H230107   2.226   5.671   8.073  0.3868 -0.3132 -1.0532
 2850TIP3   OH230108   3.922   2.231   8.887 -0.2836 -0.7414 -0.0503
 2850TIP3    H130109   3.909   2.194   8.800 -0.4849 -0.8761  0.0352
 2850TIP3    H230110   3.834   2.251   8.918 -0.4867 -3.1110  1.1583
 2851TIP3   OH230111   2.565   0.439   0.961 -0.2499 -0.1596 -0.3092
 2851TIP3    H130112   2.619   0.473   1.033 -1.5714  0.5448  0.3878
 2851TIP3    H230113   2.511   0.372   1.002 -1.1847  0.4120 -0.5768
 2852TIP3   OH230114   3.949   3.859   2.303 -0.4089 -0.1367  0.6828
 2852TIP3    H130115   3.921   3.804   2.375  0.7695 -1.0859  0.4476
 2852TIP3    H230116   3.910   3.945   2.321  1.4616  0.2588  3.5363
 2853TIP3   OH230117   5.084   0.561   0.323  0.1704 -0.2032  0.9199
 2853TIP3    H130118   5.015   0.496   0.309 -0.1117  0.1221  0.7680
 2853TIP3    H230119   5.158   0.511   0.357 -0.0602 -0.5941  0.8546
 2854TIP3   OH230120   5.574   4.357   7.519  0.3834  0.1089  0.1264
 2854TIP3    H130121   5.581   4.433   7.576 -0.3176 -0.7805  1.4377
 2854TIP3    H230122   5.618   4.287   7.567  3.2242  0.1797 -2.1038
 2855TIP3   OH230123   4.503   1.164   8.445 -0.6180 -0.1838  0.2198
 2855TIP3    H130124   4.543   1.106   8.380 -0.0613  0.4169  0.0087
 2855TIP3    H230125   4.496   1.248   8.400  3.1412  1.3080  1.9616
 2856TIP3   OH230126   2.179   4.293   0.125 -0.3670 -0.0394  0.0033
 2856TIP3    H130127   2.088   4.266   0.140 -0.6150  0.4818 -0.5078
 2856TIP3    H230128   2.220   4.218   0.083 -0.9060  0.1551 -0.9111
 2857TIP3   OH230129   2.392   6.530   8.876 -0.2805  0.6678  0.4442
 2857TIP3    H130130   2.358   6.607   8.830 -1.5205  0.0163  0.2473
 2857TIP3    H230131   2.364   6.455   8.824  0.2141  0.0263  1.0760
 2858TIP3   OH230132   1.486   5.684   6.762 -0.1655  0.4792  0.7102
 2858TIP3    H130133   1.518   5.725   6.843 -0.1697 -1.1356  1.5744
 2858TIP3    H230134   1.518   5.594   6.767 -1.2990 -0.0148 -0.4441
 2859TIP3   OH230135   4.974   2.649   8.183 -0.4620 -0.1403 -0.0196
 2859TIP3    H130136   4.890   2.625   8.221 -0.0763  0.6300  1.3878
 2859TIP3    H230137   4.951   2.704   8.107 -1.2694  2.0954  1.7233
 2860TIP3   OH230138   4.851   5.203   1.250  0.1983 -0.4618  0.9370
 2860TIP3    H130139   4.896   5.282   1.281  0.2414 -0.2836  0.4271
 2860TIP3    H230140   4.849   5.145   1.326  0.1312  0.0462  1.3240
 2861TIP3   OH230141   6.093   2.324   0.853 -0.5929 -0.1307  0.0005
 2861TIP3    H130142   6.054   2.278   0.778  1.2282 -0.0854 -1.0309
 2861TIP3    H230143   6.176   2.356   0.820  0.0804  0.2357  1.9586
 2862TIP3   OH230144   5.053   1.648   7.243  0.4416 -0.1300 -0.1156
 2862TIP3    H130145   4.971   1.655   7.194 -0.1375  0.9845  0.9556
 2862TIP3    H230146   5.051   1.561   7.282 -0.5439  0.1130  0.3987
 2863TIP3   OH230147   3.067   4.405   6.568 -0.0016  0.1003 -0.5222
 2863TIP3    H130148   3.028   4.374   6.649  0.5720 -0.0887 -0.3096
 2863TIP3    H230149   3.000   4.461   6.528 -0.9236 -1.1376 -0.7460
 2864TIP3   OH230150   3.707   3.785   6.932 -0.3884  0.4986  0.4797
 2864TIP3    H130151   3.712   3.871   6.975  1.6605  0.4824  0.3824
 2864TIP3    H230152   3.725   3.722   7.003  1.3661  0.3776 -0.0237
 2865TIP3   OH230153   0.764   2.760   6.239 -0.3443  0.0626 -0.6043
 2865TIP3    H130154   0.691   2.761   6.177 -1.2130  3.1725  0.2915
 2865TIP3    H230155   0.741   2.826   6.304  1.6531 -1.3781  1.7462
 2866TIP3   OH230156   4.303   0.974   1.872 -0.4809  0.1463 -0.7870
 2866TIP3    H130157   4.290   1.068   1.865  0.7345  0.2729 -1.6555
 2866TIP3    H230158   4.370   0.953   1.806  1.5570 -0.8126  1.3998
 2867TIP3   OH230159   6.346   5.980   7.290  0.1514 -0.1512  0.0064
 2867TIP3    H130160   6.306   6.062   7.320  2.3193  0.7618  0.5858
 2867TIP3    H230161   6.333   5.981   7.195 -0.3819  0.5522  0.0764
 2868TIP3   OH230162   0.958   3.846   1.370 -0.0770  0.0768  0.1251
 2868TIP3    H130163   0.872   3.804   1.372 -0.4542  0.8537  1.2815
 2868TIP3    H230164   1.009   3.801   1.437  0.3327 -0.1921 -0.3634
 2869TIP3   OH230165   5.213   2.371   7.489  0.7190  0.0264 -0.1616
 2869TIP3    H130166   5.191   2.434   7.557  1.8720  1.4139 -1.0120
 2869TIP3    H230167   5.128   2.334   7.462  0.0704  0.8412  0.7050
 2870TIP3   OH230168   4.782   0.347   6.969  0.1687  0.3473 -0.7379
 2870TIP3    H130169   4.710   0.297   6.931 -0.8025  0.6322  0.6493
 2870TIP3    H230170   4.788   0.426   6.914 -0.7225  0.4194 -0.7487
 2871TIP3   OH230171   4.075   4.822   0.242  0.3167  0.1842  0.0284
 2871TIP3    H130172   4.133   4.813   0.167  0.5764 -0.4713  0.3075
 2871TIP3    H230173   4.133   4.840   0.316  0.0093  1.6846 -0.0510
 2872TIP3   OH230174   2.560   6.392   7.277 -0.6094 -0.1085  0.2741
 2872TIP3    H130175   2.590   6.301   7.280 -4.5785 -1.6102  0.8726
 2872TIP3    H230176   2.539   6.413   7.369  2.5126  2.4452  0.5813
 2873TIP3   OH230177   0.368   5.907   7.705 -0.4866 -0.6164 -0.1424
 2873TIP3    H130178   0.327   5.980   7.659  0.1745 -0.5780 -0.6921
 2873TIP3    H230179   0.323   5.830   7.672 -1.3277 -0.4555  0.5915
 2874TIP3   OH230180   0.733   5.669   8.830 -0.3167  0.2226  0.4168
 2874TIP3    H130181   0.676   5.694   8.757 -0.1867  0.1965  0.3047
 2874TIP3    H230182   0.805   5.621   8.788 -0.5741 -0.3533  0.6257
 2875TIP3   OH230183   6.100   6.638   0.808 -0.4305  0.0691  0.2840
 2875TIP3    H130184   6.195   6.631   0.812 -0.1416  3.0626  0.9696
 2875TIP3    H230185   6.068   6.566   0.863  1.5105  0.1966  1.6748
 2876TIP3   OH230186   3.285   6.522   7.047 -0.6372  0.1443 -0.6314
 2876TIP3    H130187   3.216   6.484   6.993 -0.7488 -0.6950  0.0934
 2876TIP3    H230188   3.258   6.506   7.137 -0.3979  1.4433 -0.3133
 2877TIP3   OH230189   4.103   1.178   1.660  0.0700 -0.1763 -0.2197
 2877TIP3    H130190   4.063   1.157   1.575  1.2243  0.9913 -1.0806
 2877TIP3    H230191   4.048   1.132   1.724  0.0032 -2.2986 -1.6802
 2878TIP3   OH230192   0.763   0.167   2.281  0.3669 -0.5184  0.0634
 2878TIP3    H130193   0.786   0.147   2.372  0.9860 -1.2664 -0.2387
 2878TIP3    H230194   0.755   0.262   2.278 -0.6808 -0.5461  1.1227
 2879TIP3   OH230195   5.835   3.036   1.067  0.1987 -0.8130  0.1336
 2879TIP3    H130196   5.838   3.129   1.089  0.9237 -0.4530 -1.3210
 2879TIP3    H230197   5.743   3.020   1.046  0.3532  0.0947 -1.4639
 2880TIP3   OH230198   5.707   1.095   1.997  0.0595  0.0088 -0.1831
 2880TIP3    H130199   5.794   1.130   1.978  1.2177 -2.0994  0.8929
 2880TIP3    H230200   5.651   1.172   2.004  2.1197  1.5387  0.4684
 2881TIP3   OH230201   0.499   4.928   1.944 -0.1325  0.2116 -0.2147
 2881TIP3    H130202   0.578   4.907   1.994 -0.9766 -2.2333  0.2342
 2881TIP3    H230203   0.493   4.859   1.878 -1.2368  1.0718 -1.0639
 2882TIP3   OH230204   0.455   6.195   7.054 -0.3707 -0.3982  0.2687
 2882TIP3    H130205   0.483   6.282   7.025  1.7508 -1.0158  0.2805
 2882TIP3    H230206   0.376   6.176   7.002  1.0866  0.1374 -2.3169
 2883TIP3   OH230207   0.855   3.614   8.224  0.0882 -0.0130  0.2127
 2883TIP3    H130208   0.800   3.659   8.289 -0.6052 -1.8392  0.9451
 2883TIP3    H230209   0.856   3.674   8.149 -0.4068  1.4225  1.2916
 2884TIP3   OH230210   5.103   5.675   8.518  0.0851  0.1580  0.1955
 2884TIP3    H130211   5.050   5.753   8.533 -0.1916 -0.0031  0.0482
 2884TIP3    H230212   5.050   5.602   8.550  0.2912  0.0142  0.2149
 2885TIP3   OH230213   2.454   5.624   8.276  0.5435  0.0852  0.1511
 2885TIP3    H130214   2.531   5.648   8.328  0.8877  0.2170 -0.4085
 2885TIP3    H230215   2.481   5.638   8.186 -0.0623 -0.1044 -0.0639
 2886TIP3   OH230216   4.927   2.129   8.765  0.5584  0.3995 -0.1338
 2886TIP3    H130217   4.870   2.201   8.742 -0.9575 -0.6539  0.2007
 2886TIP3    H230218   4.976   2.111   8.684 -1.7092 -0.5513 -1.3979
 2887TIP3   OH230219   2.331   1.508   2.359 -0.3424 -0.0300  0.2575
 2887TIP3    H130220   2.243   1.543   2.342 -0.7908 -1.5793 -0.8892
 2887TIP3    H230221   2.316   1.436   2.421 -0.0648 -1.0409 -0.8192
 2888TIP3   OH230222   3.795   2.403   1.343  0.2955  0.3449  0.7561
 2888TIP3    H130223   3.868   2.362   1.296 -0.2576  1.4978 -1.2109
 2888TIP3    H230224   3.751   2.330   1.386  1.5405 -0.5996  0.4881
 2889TIP3   OH230225   2.709   0.456   1.240 -0.6384 -0.5377 -0.5258
 2889TIP3    H130226   2.727   0.367   1.210  1.3468  0.0877 -1.3341
 2889TIP3    H230227   2.777   0.510   1.199 -0.3177  0.9995  1.8134
 2890TIP3   OH230228   6.064   3.400   1.556  0.0413 -0.2183 -0.6895
 2890TIP3    H130229   5.996   3.399   1.489 -1.3879 -1.4107  0.6889
 2890TIP3    H230230   6.093   3.491   1.560 -2.6530  0.7034 -0.1957
 2891TIP3   OH230231   2.275   0.429   8.817  0.0365 -0.1695  0.5957
 2891TIP3    H130232   2.278   0.339   8.784 -0.1517 -0.4188  1.2533
 2891TIP3    H230233   2.359   0.441   8.861  0.7662  0.5412 -0.9195
 2892TIP3   OH230234   1.949   0.865   1.237  0.0083 -0.6066 -0.3200
 2892TIP3    H130235   1.893   0.820   1.300  2.3706 -2.2033  0.7951
 2892TIP3    H230236   2.024   0.806   1.225  2.5165  2.2646 -0.0484
 2893TIP3   OH230237   5.066   0.337   7.389  0.1265 -0.0428  0.1624
 2893TIP3    H130238   5.020   0.305   7.467  1.1430 -1.2516  0.2965
 2893TIP3    H230239   5.026   0.288   7.317 -0.4463  0.6829 -0.0174
 2894TIP3   OH230240   4.710   1.242   0.916 -0.1787  0.5595 -0.2316
 2894TIP3    H130241   4.703   1.337   0.903  3.5155  0.9213 -0.7717
 2894TIP3    H230242   4.671   1.204   0.837  1.2910  1.8354 -1.6479
 2895TIP3   OH230243   4.819   6.653   8.664  0.4395  0.3970  0.0755
 2895TIP3    H130244   4.806   6.646   8.570  1.8186  1.3709 -0.2251
 2895TIP3    H230245   4.794   6.568   8.699 -3.0793  0.9549 -0.7540
 2896TIP3   OH230246   2.681   1.233   7.399 -0.1632  0.5192  0.0244
 2896TIP3    H130247   2.629   1.170   7.449 -0.7992  0.9204 -0.1266
 2896TIP3    H230248   2.722   1.180   7.330 -0.7219  0.2785 -0.1266
 2897TIP3   OH230249   5.328   5.198   6.314  0.0272  0.3182 -0.0270
 2897TIP3    H130250   5.234   5.187   6.303 -0.0537  0.7366  0.2273
 2897TIP3    H230251   5.337   5.275   6.369  0.5339  0.6080 -0.4989
 2898TIP3   OH230252   6.638   4.435   0.170  0.2713 -0.2670  0.6639
 2898TIP3    H130253   6.577   4.390   0.112  0.2967  0.2334  0.2397
 2898TIP3    H230254   6.593   4.516   0.195  0.2177 -0.5277  1.4334
 2899TIP3   OH230255   3.606   5.781   7.483 -0.1068  0.2281  0.0147
 2899TIP3    H130256   3.511   5.792   7.489 -0.2294 -1.1970  1.4638
 2899TIP3    H230257   3.629   5.812   7.395 -1.9284  0.3779 -0.4416
 2900TIP3   OH230258   0.874   2.038   8.731  0.0084 -0.1310 -0.1815
 2900TIP3    H130259   0.921   2.103   8.784  0.1338 -0.1746 -0.2384
 2900TIP3    H230260   0.880   2.071   8.642 -2.8359  1.5685  0.1404
 2901TIP3   OH230261   5.009   3.670   2.467 -0.4733 -1.2321  0.7892
 2901TIP3    H130262   5.059   3.690   2.546  2.9789 -0.1741 -1.4030
 2901TIP3    H230263   4.963   3.752   2.446  0.0216 -0.9494  0.7959
 2902TIP3   OH230264   0.909   5.461   8.284 -0.0281 -0.0958 -0.7223
 2902TIP3    H130265   0.941   5.551   8.273  0.7791  0.0195  1.7933
 2902TIP3    H230266   0.849   5.466   8.359  0.9509 -1.7989  0.2375
 2903TIP3   OH230267   2.805   1.830   8.608 -0.1311 -0.6821  0.8427
 2903TIP3    H130268   2.745   1.759   8.587 -1.0219  0.0193  0.9876
 2903TIP3    H230269   2.787   1.897   8.542  0.4973 -0.4666  0.8843
 2904TIP3   OH230270   1.703   0.749   2.218  0.0486 -0.3743  0.1899
 2904TIP3    H130271   1.708   0.655   2.234  0.1448 -0.3927  0.0587
 2904TIP3    H230272   1.635   0.758   2.152 -0.4588 -0.2843  0.7213
 2905TIP3   OH230273   4.928   0.192   7.196  0.2061 -0.1133  0.6924
 2905TIP3    H130274   4.909   0.098   7.199  0.7583 -0.2528  0.0519
 2905TIP3    H230275   4.872   0.226   7.126 -0.2814  0.1154  1.1812
 2906TIP3   OH230276   3.880   5.994   0.675  0.3552 -0.1834  0.0954
 2906TIP3    H130277   3.841   6.015   0.760 -1.0245 -0.9160 -0.3319
 2906TIP3    H230278   3.816   5.938   0.632  1.6629 -0.9987 -0.8689
 2907TIP3   OH230279   2.684   0.384   0.259  0.3251  0.2622  0.3424
 2907TIP3    H130280   2.652   0.352   0.175  1.3201  0.0577  0.0255
 2907TIP3    H230281   2.607   0.421   0.302 -0.4251 -0.6586 -0.1692
 2908TIP3   OH230282   4.526   5.533   0.197 -0.0315 -0.2408  0.3159
 2908TIP3    H130283   4.612   5.565   0.226 -0.0456  0.7324 -0.6099
 2908TIP3    H230284   4.483   5.611   0.161 -1.5040 -0.6089  1.1787
 2909TIP3   OH230285   3.475   3.868   8.542  0.4116  0.0252 -0.4099
 2909TIP3    H130286   3.545   3.838   8.484  0.7319 -0.8621  0.4158
 2909TIP3    H230287   3.405   3.895   8.482  0.9222 -0.4121 -1.2225
 2910TIP3   OH230288   6.140   6.120   2.358  0.5716  0.2569 -0.4461
 2910TIP3    H130289   6.158   6.208   2.324 -1.6034  0.5491 -1.0333
 2910TIP3    H230290   6.069   6.134   2.421  0.8266 -0.9868  0.1418
 2911TIP3   OH230291   0.096   0.947   8.122  0.2440 -0.1991  0.6817
 2911TIP3    H130292   0.066   1.024   8.171 -1.1817 -0.1761 -0.1767
 2911TIP3    H230293   0.187   0.936   8.149 -0.7757 -1.0585  4.4543
 2912TIP3   OH230294   3.847   2.491   0.142 -0.5823 -0.6183  0.3382
 2912TIP3    H130295   3.923   2.474   0.198 -0.9709 -0.7589  0.8304
 2912TIP3    H230296   3.775   2.444   0.185 -0.8967 -0.6819 -0.2539
 2913TIP3   OH230297   4.981   3.042   1.604 -0.2564  0.0136  0.4757
 2913TIP3    H130298   4.886   3.039   1.610 -0.1855 -2.5224  1.6192
 2913TIP3    H230299   5.011   2.973   1.663  2.3205  0.9875  0.4320
 2914TIP3   OH230300   2.227   4.543   7.260  0.6108  0.3823  0.5020
 2914TIP3    H130301   2.311   4.526   7.217 -0.0164 -0.2778 -0.5190
 2914TIP3    H230302   2.223   4.639   7.267  0.7122  0.5265 -1.0233
 2915TIP3   OH230303   6.315   2.025   7.125 -0.1093  0.3106  0.2634
 2915TIP3    H130304   6.385   2.083   7.156 -1.2301  2.9976 -1.8302
 2915TIP3    H230305   6.270   1.997   7.205  2.0293  0.2522  1.5001
 2916TIP3   OH230306   1.455   2.594   0.014 -0.3216 -0.0255 -0.2258
 2916TIP3    H130307   1.535   2.602   0.066 -0.1050 -0.0765 -0.5519
 2916TIP3    H230308   1.385   2.600   0.079 -0.0466 -0.3808  0.1145
 2917TIP3   OH230309   1.518   2.079   8.591 -0.2340  0.1947 -0.0278
 2917TIP3    H130310   1.518   2.009   8.525 -0.0038  0.2236 -0.0594
 2917TIP3    H230311   1.610   2.107   8.596 -0.5133  1.3663 -0.9483
 2918TIP3   OH230312   1.574   1.343   7.202  0.3573  0.0600  0.3341
 2918TIP3    H130313   1.492   1.299   7.227  0.0600 -0.3654 -1.2680
 2918TIP3    H230314   1.633   1.272   7.177  0.6884  0.4563 -0.0220
 2919TIP3   OH230315   6.348   6.126   7.879  0.8153 -0.4517 -0.3504
 2919TIP3    H130316   6.315   6.210   7.846  1.3975 -0.2266 -0.3660
 2919TIP3    H230317   6.389   6.147   7.963  2.2820 -0.4597 -1.0420
 2920TIP3   OH230318   0.747   3.453   0.113 -0.0627  0.4366 -0.3393
 2920TIP3    H130319   0.840   3.472   0.127 -0.2279  0.7812  0.2829
 2920TIP3    H230320   0.718   3.413   0.195 -0.8469  1.7659  0.0490
 2921TIP3   OH230321   1.631   0.996   1.293  0.0069  0.3592  0.6081
 2921TIP3    H130322   1.673   1.073   1.329  3.5262  0.3356 -2.7966
 2921TIP3    H230323   1.681   0.922   1.329 -0.9261 -0.1417  0.9285
 2922TIP3   OH230324   4.611   2.934   6.680 -0.2663  0.0483 -0.5135
 2922TIP3    H130325   4.591   2.967   6.768  1.9167 -0.8585  0.3985
 2922TIP3    H230326   4.561   2.991   6.621  0.5176  2.6574  1.1679
 2923TIP3   OH230327   4.134   0.166   0.785  0.1618 -0.2372  0.3196
 2923TIP3    H130328   4.195   0.102   0.750 -0.9309 -0.9194 -0.3879
 2923TIP3    H230329   4.095   0.207   0.708  0.3458  0.7953  0.7660
 2924TIP3   OH230330   1.210   5.867   7.998  0.4151  0.3441 -0.1854
 2924TIP3    H130331   1.302   5.841   7.996  0.4929  0.5437  0.5963
 2924TIP3    H230332   1.162   5.789   7.970  0.8102  0.1888 -0.4384
 2925TIP3   OH230333   3.159   2.371   7.248  0.2011  0.6138  0.0940
 2925TIP3    H130334   3.201   2.345   7.167  0.0728  0.8390 -0.0469
 2925TIP3    H230335   3.149   2.466   7.241 -0.8491  0.5034 -0.1319
 2926TIP3   OH230336   2.704   3.882   7.568 -0.6621 -0.1863 -0.6532
 2926TIP3    H130337   2.637   3.937   7.527 -0.8303 -0.6099 -0.9548
 2926TIP3    H230338   2.671   3.793   7.558  0.3733 -0.4850 -1.6272
 2927TIP3   OH230339   0.305   6.584   0.938 -0.0186 -0.0779  0.6246
 2927TIP3    H130340   0.257   6.666   0.950 -1.1114 -0.6203  0.1314
 2927TIP3    H230341   0.318   6.577   0.844  0.8548 -0.0499  0.7371
 2928TIP3   OH230342   0.467   1.312   1.549 -0.2095 -0.0751 -0.2993
 2928TIP3    H130343   0.508   1.322   1.463  1.8277 -0.0206  0.6267
 2928TIP3    H230344   0.476   1.220   1.570 -0.4037 -0.0276 -0.0018
 2929TIP3   OH230345   1.470   2.986   8.111 -0.6852 -0.1997 -0.2723
 2929TIP3    H130346   1.396   3.046   8.120 -1.1271 -0.5397 -1.4607
 2929TIP3    H230347   1.536   3.036   8.064 -0.4305 -0.1329  0.1507
 2930TIP3   OH230348   2.892   0.394   8.134  0.3587  0.3380  0.0485
 2930TIP3    H130349   2.849   0.414   8.217 -0.1078  3.4237 -0.8194
 2930TIP3    H230350   2.949   0.320   8.153 -2.0964 -1.1432  2.3051
 2931TIP3   OH230351   4.865   2.631   0.425  0.0516 -0.4559 -0.3518
 2931TIP3    H130352   4.878   2.701   0.360  0.2752 -0.1943 -0.0276
 2931TIP3    H230353   4.891   2.671   0.508  0.5277 -1.0439 -0.2182
 2932TIP3   OH230354   1.956   5.901   0.874  0.4999 -0.1031  0.0338
 2932TIP3    H130355   1.887   5.900   0.807  1.8363 -0.7306 -1.3868
 2932TIP3    H230356   1.996   5.815   0.868  1.5097  0.3097  0.7148
 2933TIP3   OH230357   1.242   5.313   0.552  0.5494 -0.4119 -0.1211
 2933TIP3    H130358   1.181   5.251   0.511  0.7772 -0.4529 -0.4017
 2933TIP3    H230359   1.261   5.377   0.483  0.3992 -0.0918  0.1349
 2934TIP3   OH230360   6.523   4.010   8.513 -0.3185  0.2716 -0.3371
 2934TIP3    H130361   6.438   4.021   8.556 -1.0033  1.8566 -1.9606
 2934TIP3    H230362   6.501   3.994   8.421  1.1310  0.7931 -0.7944
 2935TIP3   OH230363   0.895   2.064   8.269  0.0177 -0.4304 -0.5623
 2935TIP3    H130364   0.982   2.025   8.261  0.4894  0.7706 -1.8845
 2935TIP3    H230365   0.845   2.026   8.197 -0.1621 -0.1970 -0.5610
 2936TIP3   OH230366   1.672   4.730   1.530 -0.4485 -0.8218  0.9469
 2936TIP3    H130367   1.627   4.773   1.602  0.9288 -1.9221  2.5407
 2936TIP3    H230368   1.658   4.788   1.455 -1.4597  0.6381  2.2052
 2937TIP3   OH230369   0.276   1.065   7.771  0.1339  0.0115  0.8133
 2937TIP3    H130370   0.200   1.010   7.790 -0.2403 -0.8258 -2.4797
 2937TIP3    H230371   0.343   1.003   7.739  0.1424  1.2535 -1.7808
 2938TIP3   OH230372   1.629   2.462   7.727 -0.4574  0.2504 -0.2674
 2938TIP3    H130373   1.716   2.497   7.747  0.1565 -0.1354 -2.0703
 2938TIP3    H230374   1.575   2.486   7.802  1.1073  0.8513  0.7018
 2939TIP3   OH230375   2.496   3.650   7.198 -0.3070  0.3267 -0.2484
 2939TIP3    H130376   2.513   3.646   7.104  0.0568  0.4806 -0.1872
 2939TIP3    H230377   2.512   3.561   7.229 -0.8517  0.1699 -0.4034
 2940TIP3   OH230378   1.865   2.343   0.896  0.6759 -0.3353  0.2582
 2940TIP3    H130379   1.850   2.270   0.836  0.4987  0.1426 -0.2921
 2940TIP3    H230380   1.791   2.339   0.958  0.0570  0.0239 -0.4362
 2941TIP3   OH230381   3.462   2.572   1.269 -0.1738  0.4329  0.2855
 2941TIP3    H130382   3.509   2.605   1.192 -0.0632  0.7833  0.5019
 2941TIP3    H230383   3.373   2.606   1.258 -0.3899 -0.2362 -0.1277
 2942TIP3   OH230384   4.907   5.804   8.144  0.2955  0.2388 -0.6792
 2942TIP3    H130385   4.957   5.821   8.064  0.4089 -2.3191 -1.2579
 2942TIP3    H230386   4.950   5.728   8.184 -2.0842 -1.0803 -0.3818
 2943TIP3   OH230387   2.235   1.579   8.907 -0.0027 -0.3193 -0.0522
 2943TIP3    H130388   2.279   1.642   8.963  0.5102  0.7374 -1.5971
 2943TIP3    H230389   2.205   1.630   8.832 -1.7950 -1.4552 -0.1641
 2944TIP3   OH230390   2.683   3.008   8.306 -0.5640 -0.3975 -0.2681
 2944TIP3    H130391   2.727   2.927   8.332  1.1164 -0.0347 -1.8081
 2944TIP3    H230392   2.595   2.980   8.281 -0.5901 -1.4580  0.9067
 2945TIP3   OH230393   1.173   6.031   1.078 -0.3925  0.6906 -0.0407
 2945TIP3    H130394   1.078   6.020   1.066 -0.3366 -1.3596  0.9683
 2945TIP3    H230395   1.210   6.005   0.994 -0.6627 -0.3479  0.1428
 2946TIP3   OH230396   2.323   3.763   1.015  0.5992  0.7283  0.5384
 2946TIP3    H130397   2.416   3.745   1.026  0.2248 -1.3187  0.6946
 2946TIP3    H230398   2.281   3.723   1.092 -0.3075  2.9098  1.2543
 2947TIP3   OH230399   2.558   6.505   1.195  0.1099 -0.1385  0.1125
 2947TIP3    H130400   2.526   6.593   1.176 -2.2836 -0.7081  1.1522
 2947TIP3    H230401   2.642   6.500   1.149 -0.6727  1.9356 -1.7318
 2948TIP3   OH230402   0.764   5.196   7.132  0.4111  0.4351  0.2396
 2948TIP3    H130403   0.758   5.259   7.204  3.6488  1.8468 -0.5349
 2948TIP3    H230404   0.721   5.239   7.059  1.6284  1.3192  0.0155
 2949TIP3   OH230405   2.057   1.727   1.494  0.4010  0.2824  0.0154
 2949TIP3    H130406   2.034   1.678   1.414 -1.2174  2.2507 -0.8150
 2949TIP3    H230407   2.116   1.796   1.463  1.7468 -0.3936  0.9824
 2950TIP3   OH230408   5.777   2.277   8.929  0.1321  1.2226 -0.2824
 2950TIP3    H130409   5.786   2.356   8.875 -2.7292  2.1947  0.4820
 2950TIP3    H230410   5.735   2.307   9.009 -2.2031 -1.1970 -0.4514
 2951TIP3   OH230411   3.114   4.950   6.703 -0.3603  0.7911  0.4163
 2951TIP3    H130412   3.147   4.886   6.640 -1.3628  0.8210 -0.1592
 2951TIP3    H230413   3.192   4.981   6.748  0.0003 -2.8320  2.6918
 2952TIP3   OH230414   4.333   6.159   1.000 -0.3746 -0.5254  0.7328
 2952TIP3    H130415   4.335   6.158   0.905  0.0741 -0.9101  0.7408
 2952TIP3    H230416   4.253   6.113   1.024 -1.7363  1.6223  0.5240
 2953TIP3   OH230417   1.008   1.011   1.227 -0.2677 -0.4253  0.5131
 2953TIP3    H130418   0.938   1.070   1.254  0.8784  0.6851  1.1867
 2953TIP3    H230419   1.087   1.048   1.266  0.4903 -2.5182  1.1078
 2954TIP3   OH230420   5.224   3.178   0.448  0.1097  0.9515  0.2754
 2954TIP3    H130421   5.273   3.231   0.510  0.6742  1.3734 -0.5148
 2954TIP3    H230422   5.145   3.153   0.494 -0.1636  2.4789  0.6620
 2955TIP3   OH230423   1.800   2.126   8.569  0.3136 -0.2704  0.8318
 2955TIP3    H130424   1.854   2.066   8.620 -0.1324 -0.4965  1.0347
 2955TIP3    H230425   1.806   2.093   8.479 -0.2727 -0.8733  1.0071
 2956TIP3   OH230426   1.651   5.886   8.597  0.0267 -0.1094 -0.3838
 2956TIP3    H130427   1.690   5.861   8.513  1.6384  0.3869  0.1763
 2956TIP3    H230428   1.596   5.961   8.577  0.1436 -0.1962 -1.0495
 2957TIP3   OH230429   5.304   6.050   7.892  0.2212  0.2244  0.0877
 2957TIP3    H130430   5.262   6.134   7.874 -1.7539 -0.7693 -0.1327
 2957TIP3    H230431   5.293   6.038   7.987 -1.2657 -0.6446 -0.1618
 2958TIP3   OH230432   0.322   4.037   1.134  0.5335 -0.8277 -0.1045
 2958TIP3    H130433   0.227   4.037   1.148  0.9134  0.5308  3.3068
 2958TIP3    H230434   0.357   3.983   1.204  2.4625  1.6662  0.9790
 2959TIP3   OH230435   4.900   3.554   1.490  0.2702  0.0240 -0.4938
 2959TIP3    H130436   4.828   3.495   1.514 -0.4899  0.7561 -0.9190
 2959TIP3    H230437   4.888   3.630   1.547 -0.0087  0.6535 -1.3709
 2960TIP3   OH230438   2.942   4.698   1.395 -0.2584 -0.6418 -0.3678
 2960TIP3    H130439   2.850   4.682   1.375  0.0185 -1.2933 -1.1882
 2960TIP3    H230440   2.985   4.615   1.376  0.1500 -1.1700  2.4352
 2961TIP3   OH230441   3.876   5.962   7.419 -0.3014  0.2149  0.1863
 2961TIP3    H130442   3.856   5.872   7.444 -1.2310  0.5283  0.6174
 2961TIP3    H230443   3.803   6.013   7.452 -0.1757  1.0311 -0.7408
 2962TIP3   OH230444   3.815   0.297   1.286  0.3543 -1.1859  0.7202
 2962TIP3    H130445   3.910   0.290   1.279  0.6712  2.3328  0.0460
 2962TIP3    H230446   3.800   0.365   1.352 -1.5859  0.2921 -1.1143
 2963TIP3   OH230447   1.425   1.361   8.068 -0.3187 -0.8262  0.0542
 2963TIP3    H130448   1.370   1.318   8.004 -0.8046  0.5639 -0.4988
 2963TIP3    H230449   1.393   1.330   8.153 -0.0152 -2.2596 -0.3355
 2964TIP3   OH230450   5.494   2.884   0.540 -0.0274  0.5666  0.3251
 2964TIP3    H130451   5.542   2.886   0.457  0.4266  1.3387  0.5978
 2964TIP3    H230452   5.402   2.890   0.514  0.1669  2.2072 -0.0824
 2965TIP3   OH230453   1.497   0.885   6.916 -0.2675 -0.6006 -0.2016
 2965TIP3    H130454   1.558   0.925   6.854 -0.8736 -1.5514 -1.4421
 2965TIP3    H230455   1.411   0.915   6.888 -0.5247 -0.7650  0.3982
 2966TIP3   OH230456   3.678   0.186   6.895  0.0695 -0.0712 -0.3682
 2966TIP3    H130457   3.711   0.140   6.972 -1.7036 -0.5998  0.1148
 2966TIP3    H230458   3.731   0.153   6.823  2.4360  1.1345  0.6729
 2967TIP3   OH230459   2.966   4.397   8.780  0.5041  0.1507  0.0658
 2967TIP3    H130460   2.970   4.428   8.871  2.4700 -1.2680  0.5340
 2967TIP3    H230461   3.056   4.376   8.758 -0.2667 -2.0849 -1.3034
 2968TIP3   OH230462   0.438   0.398   0.496  0.0550  0.7021  0.1041
 2968TIP3    H130463   0.465   0.448   0.419  4.0414 -0.6774  0.3900
 2968TIP3    H230464   0.403   0.316   0.460 -1.6066  1.5048 -0.2204
 2969TIP3   OH230465   6.355   0.546   1.707 -0.3802 -0.0344 -0.0074
 2969TIP3    H130466   6.437   0.570   1.664 -0.7953 -0.2362 -0.9556
 2969TIP3    H230467   6.337   0.458   1.676 -1.5576  0.4488 -0.7877
 2970TIP3   OH230468   2.208   4.319   6.785  0.0150  0.2776  0.4917
 2970TIP3    H130469   2.200   4.231   6.821 -2.1572  0.2024 -0.0457
 2970TIP3    H230470   2.191   4.377   6.859 -1.1970  0.1653  0.3303
 2971TIP3   OH230471   0.965   6.162   1.264 -0.2224 -0.1002 -0.1298
 2971TIP3    H130472   0.894   6.100   1.244  1.9352 -2.4432 -1.0744
 2971TIP3    H230473   0.991   6.196   1.178  1.2225 -0.9914 -0.0691
 2972TIP3   OH230474   4.627   3.412   0.303 -0.4754 -0.0100  0.3261
 2972TIP3    H130475   4.663   3.394   0.390  3.2679 -0.6496 -1.1971
 2972TIP3    H230476   4.608   3.506   0.305  0.1538  0.1191  1.5951
 2973TIP3   OH230477   6.410   5.491   7.529 -0.1295  0.5079 -0.1799
 2973TIP3    H130478   6.385   5.583   7.526 -1.5623  0.1304 -0.4616
 2973TIP3    H230479   6.472   5.485   7.602  0.7949  1.8622 -0.8175
 2974TIP3   OH230480   4.315   4.283   1.750  0.3296 -0.1753  0.1782
 2974TIP3    H130481   4.407   4.297   1.727  0.7431 -0.5234  1.5437
 2974TIP3    H230482   4.309   4.306   1.843 -0.1267 -3.6311  1.1504
 2975TIP3   OH230483   6.013   1.309   8.567 -0.0039  0.2029  0.0241
 2975TIP3    H130484   6.106   1.326   8.576 -0.3760  2.1933  0.5493
 2975TIP3    H230485   5.997   1.229   8.619  1.6494 -1.2126 -1.5220
 2976TIP3   OH230486   2.944   5.290   8.740  0.1340  0.1714  0.2747
 2976TIP3    H130487   2.913   5.327   8.657 -0.8760 -2.8623 -0.8584
 2976TIP3    H230488   3.038   5.305   8.740  0.6595 -2.2442 -2.9330
 2977TIP3   OH230489   0.396   5.537   0.424  0.2344  0.1138  0.0611
 2977TIP3    H130490   0.313   5.491   0.442  0.0894  1.1515  2.4243
 2977TIP3    H230491   0.463   5.469   0.432 -0.1885 -0.2139  0.9758
 2978TIP3   OH230492   3.462   1.552   2.613  0.4034 -0.5751 -0.1091
 2978TIP3    H130493   3.403   1.496   2.663 -0.5468  1.0454  0.6659
 2978TIP3    H230494   3.524   1.585   2.679  0.8546 -0.5624 -0.5297
 2979TIP3   OH230495   3.866   2.442   0.860  0.2482  0.1774 -0.7364
 2979TIP3    H130496   3.932   2.440   0.930  1.3969  0.7963 -1.7531
 2979TIP3    H230497   3.859   2.351   0.832 -0.3565 -0.1049  0.2910
 2980TIP3   OH230498   3.175   0.418   1.240 -0.2136 -0.4787  0.5999
 2980TIP3    H130499   3.085   0.433   1.213  0.2994 -0.7734 -1.4748
 2980TIP3    H230500   3.200   0.337   1.195  0.9181 -0.7034  1.5850
 2981TIP3   OH230501   2.532   6.417   1.908 -0.3989  1.0368  0.1990
 2981TIP3    H130502   2.579   6.431   1.826 -1.1226  0.9275 -0.2481
 2981TIP3    H230503   2.598   6.429   1.976  0.9561 -1.8102 -0.4478
 2982TIP3   OH230504   1.532   2.406   8.792  0.0499  0.7282 -0.4453
 2982TIP3    H130505   1.610   2.423   8.739  0.3152  0.1083 -0.2541
 2982TIP3    H230506   1.519   2.486   8.842  0.7573  0.7124 -0.2326
 2983TIP3   OH230507   2.923   0.512   8.440  0.5219 -0.1461 -0.2202
 2983TIP3    H130508   2.828   0.511   8.448  0.4320  0.5972 -0.9749
 2983TIP3    H230509   2.953   0.557   8.519  0.1111  1.1816 -0.7852
 2984TIP3   OH230510   4.095   3.574   6.758  0.6001 -0.1263  0.0274
 2984TIP3    H130511   4.019   3.552   6.705  0.8144 -1.9513  0.4080
 2984TIP3    H230512   4.168   3.576   6.696  0.5587 -0.4155 -0.0331
 2985TIP3   OH230513   3.126   3.381   7.955 -0.5306  0.2563 -0.0864
 2985TIP3    H130514   3.078   3.463   7.963  0.0183  0.6760 -0.9155
 2985TIP3    H230515   3.181   3.393   7.878  1.3325  0.0230  1.1308
 2986TIP3   OH230516   0.282   5.815   0.712  0.1310  0.2237 -0.5876
 2986TIP3    H130517   0.238   5.789   0.631 -1.1696  1.1865 -0.2128
 2986TIP3    H230518   0.302   5.908   0.700 -1.8520  0.9115  0.9233
 2987TIP3   OH230519   1.452   6.335   2.409  0.3295 -0.3658 -0.4516
 2987TIP3    H130520   1.486   6.312   2.496  1.7909 -0.4805 -1.0118
 2987TIP3    H230521   1.499   6.415   2.385 -0.8765  0.2870 -0.6946
 2988TIP3   OH230522   5.731   4.346   7.929 -0.1179  0.1872 -0.2729
 2988TIP3    H130523   5.636   4.356   7.928 -0.0505  1.1174  0.6715
 2988TIP3    H230524   5.747   4.258   7.896 -1.2971  0.0839 -0.5932
 2989TIP3   OH230525   1.534   3.130   1.936  0.0542 -0.1146  0.4514
 2989TIP3    H130526   1.528   3.219   1.970 -0.0863 -0.1095  0.4123
 2989TIP3    H230527   1.603   3.133   1.870  0.4069 -0.1471  0.8133
 2990TIP3   OH230528   6.624   5.775   0.337  0.2241 -0.0730  0.1782
 2990TIP3    H130529   6.557   5.806   0.276 -0.7274 -0.0724  1.1834
 2990TIP3    H230530   6.574   5.735   0.408  1.2929  0.2995  1.1564
 2991TIP3   OH230531   4.283   2.965   1.151 -0.5154  0.4550 -0.0200
 2991TIP3    H130532   4.284   2.874   1.182 -0.4680  0.4000 -0.1831
 2991TIP3    H230533   4.287   3.017   1.231 -0.5966  0.3136  0.0772
 2992TIP3   OH230534   3.557   6.418   8.253  0.0182 -0.7261 -0.0705
 2992TIP3    H130535   3.605   6.480   8.199 -1.6277  0.3489 -0.3754
 2992TIP3    H230536   3.622   6.384   8.315  1.3797 -0.1499 -1.1374
 2993TIP3   OH230537   2.137   6.532   0.447 -0.2191  0.1053  0.4473
 2993TIP3    H130538   2.134   6.615   0.494 -0.0526  1.1834 -1.3766
 2993TIP3    H230539   2.062   6.536   0.387 -0.8178 -1.5213  1.0154
 2994TIP3   OH230540   5.283   2.698   8.155 -0.4762  0.1550  0.0219
 2994TIP3    H130541   5.194   2.664   8.162 -0.0147 -0.9004  1.1512
 2994TIP3    H230542   5.307   2.684   8.064 -1.5643  0.7261 -0.3632
 2995TIP3   OH230543   5.518   3.762   7.724  0.5120  0.1336  0.3656
 2995TIP3    H130544   5.472   3.680   7.744  1.6399 -0.5709  0.1590
 2995TIP3    H230545   5.538   3.799   7.810  2.2177 -1.1061  0.5538
 2996TIP3   OH230546   2.104   0.523   1.536  0.1006  0.0429  0.1742
 2996TIP3    H130547   2.030   0.527   1.475 -0.3621  0.4326  0.7489
 2996TIP3    H230548   2.181   0.522   1.479 -0.3573 -1.8095 -0.4693
 2997TIP3   OH230549   4.765   5.991   2.252 -1.0540 -0.3141  0.3846
 2997TIP3    H130550   4.844   5.979   2.198  0.1081  1.1387  1.6690
 2997TIP3    H230551   4.768   5.919   2.315 -0.8141 -0.3194  0.3698
 2998TIP3   OH230552   0.469   3.284   7.158 -0.1663 -0.1762 -0.5241
 2998TIP3    H130553   0.559   3.314   7.172  0.0140 -1.6973  2.2856
 2998TIP3    H230554   0.425   3.359   7.118  1.8524  1.3363 -0.0782
 2999TIP3   OH230555   0.987   0.347   1.643 -0.4019  0.2423  0.0311
 2999TIP3    H130556   1.056   0.297   1.687 -1.0342 -1.4699 -0.7935
 2999TIP3    H230557   0.975   0.425   1.696  0.4722 -0.6166  1.5516
 3000TIP3   OH230558   2.198   1.669   8.294 -0.6927 -0.0111 -0.1382
 3000TIP3    H130559   2.288   1.703   8.292 -1.5464  2.7324  1.6116
 3000TIP3    H230560   2.207   1.575   8.283  2.2765  0.2911 -1.2323
 3001TIP3   OH230561   5.451   3.538   0.796  0.4088 -0.2390  0.2841
 3001TIP3    H130562   5.428   3.627   0.825  0.1543 -0.1197 -0.2535
 3001TIP3    H230563   5.542   3.545   0.768 -0.5780  0.8448 -3.2808
 3002TIP3   OH230564   4.733   6.466   2.635  0.1105 -0.7053  0.1092
 3002TIP3    H130565   4.669   6.426   2.576 -0.0021 -3.4082  1.8616
 3002TIP3    H230566   4.697   6.450   2.723  1.3395  1.1720  1.0001
 3003TIP3   OH230567   4.929   6.340   8.336 -0.6193  0.2237 -0.1549
 3003TIP3    H130568   4.921   6.392   8.257  0.9119  0.1268 -0.4011
 3003TIP3    H230569   4.844   6.298   8.346 -1.2103  1.1601 -1.0783
 3004TIP3   OH230570   6.542   6.508   8.350  0.2328  0.2490 -0.2004
 3004TIP3    H130571   6.508   6.454   8.421  0.6886  1.0289  0.6253
 3004TIP3    H230572   6.480   6.581   8.344  2.1446  2.1725  1.9245
 3005TIP3   OH230573   0.498   1.251   7.614  0.3418 -0.6546 -0.7137
 3005TIP3    H130574   0.415   1.298   7.621 -0.5537 -2.1770 -0.6108
 3005TIP3    H230575   0.528   1.268   7.524  0.3259  0.5159 -0.5115
 3006TIP3   OH230576   3.442   6.284   2.280 -0.0641 -0.1478 -0.2553
 3006TIP3    H130577   3.482   6.207   2.319 -0.9815 -1.0109 -0.9590
 3006TIP3    H230578   3.348   6.275   2.300 -0.1231  1.0710  0.1195
 3007TIP3   OH230579   0.179   2.102   7.516 -0.2455 -0.3427  0.3586
 3007TIP3    H130580   0.231   2.025   7.535  0.2103 -0.2853 -0.5778
 3007TIP3    H230581   0.109   2.070   7.458 -0.0611 -0.0703 -0.0238
 3008TIP3   OH230582   5.381   0.661   0.151 -0.1585  0.1349 -0.1089
 3008TIP3    H130583   5.311   0.699   0.099  0.6502  1.1249 -0.5201
 3008TIP3    H230584   5.405   0.580   0.106 -0.5754  0.1443 -0.3439
 3009TIP3   OH230585   0.752   4.574   7.130  0.1560 -0.2625 -0.2330
 3009TIP3    H130586   0.758   4.669   7.131  0.3124 -0.2643 -0.9783
 3009TIP3    H230587   0.755   4.549   7.223 -1.1017  0.5221  0.0438
 3010TIP3   OH230588   3.843   3.554   6.611 -0.0623 -0.1363  0.1621
 3010TIP3    H130589   3.800   3.494   6.673 -1.0934  0.1498 -0.2586
 3010TIP3    H230590   3.829   3.513   6.526 -0.9935  0.8173 -0.1557
 3011TIP3   OH230591   2.471   0.929   0.526  0.0823 -0.3598  0.5444
 3011TIP3    H130592   2.556   0.897   0.558  0.8811  0.7278 -0.4209
 3011TIP3    H230593   2.434   0.976   0.600  0.5780 -0.3556  0.7939
 3012TIP3   OH230594   0.533   0.716   7.268 -0.0036  0.3842 -0.0640
 3012TIP3    H130595   0.493   0.686   7.186  1.5210 -1.9415 -0.0766
 3012TIP3    H230596   0.624   0.687   7.261 -0.4179 -2.5262  3.5587
 3013TIP3   OH230597   6.589   3.098   0.295 -0.3339 -0.3881  0.0730
 3013TIP3    H130598   6.600   3.003   0.292 -1.0014 -0.4604 -0.4117
 3013TIP3    H230599   6.622   3.129   0.211  0.7305 -0.0834  0.5879
 3014TIP3   OH230600   5.757   1.921   1.408  0.2383  0.7634 -0.1398
 3014TIP3    H130601   5.784   1.835   1.440  2.9865  1.3007 -0.8212
 3014TIP3    H230602   5.727   1.904   1.319  4.5912  0.8874 -1.8448
 3015TIP3   OH230603   1.522   4.632   0.110  0.5620  0.9948 -0.3257
 3015TIP3    H130604   1.459   4.584   0.163 -1.7833  0.8623 -3.0159
 3015TIP3    H230605   1.487   4.721   0.104  1.4635  1.3450 -0.5884
 3016TIP3   OH230606   5.776   3.678   2.423  0.6748  0.1777 -0.4374
 3016TIP3    H130607   5.798   3.587   2.443  1.8757  0.6921  0.7470
 3016TIP3    H230608   5.810   3.728   2.497 -1.4863  1.4400 -0.2127
 3017TIP3   OH230609   1.300   6.739   6.641 -0.2768 -0.1406 -0.0639
 3017TIP3    H130610   1.360   6.810   6.620 -0.4235  1.0399  2.9945
 3017TIP3    H230611   1.351   6.681   6.698 -1.5239  0.0603  1.3137
 3018TIP3   OH230612   4.778   1.334   0.511 -0.0318 -0.6113 -0.2290
 3018TIP3    H130613   4.867   1.366   0.522  0.1031 -0.8012 -0.7413
 3018TIP3    H230614   4.733   1.359   0.592 -0.0299  1.1699 -0.7378
 3019TIP3   OH230615   2.819   4.345   1.361  0.2231 -0.6933 -0.3418
 3019TIP3    H130616   2.861   4.378   1.441 -1.4254  0.0158  0.2839
 3019TIP3    H230617   2.806   4.422   1.307 -0.7113 -0.8006 -0.2896
 3020TIP3   OH230618   4.040   2.412   0.328  0.0476  0.3408  0.1042
 3020TIP3    H130619   4.057   2.482   0.391  1.2472  0.2438 -0.0726
 3020TIP3    H230620   4.123   2.364   0.324 -1.0995 -1.8196  1.0731
 3021TIP3   OH230621   6.114   5.828   1.472 -0.2988  0.8157  0.8208
 3021TIP3    H130622   6.198   5.840   1.517  0.0195 -2.3324  1.2964
 3021TIP3    H230623   6.126   5.870   1.387  1.0935  2.0122  1.5671
 3022TIP3   OH230624   4.208   1.387   8.807 -0.2713 -0.0515  0.2485
 3022TIP3    H130625   4.227   1.334   8.884  0.1334 -0.7216 -0.3011
 3022TIP3    H230626   4.230   1.477   8.833 -1.3054 -0.0864  1.3070
 3023TIP3   OH230627   6.615   0.563   8.072  0.1390  0.2234 -0.5987
 3023TIP3    H130628   6.596   0.650   8.108  0.3921  0.2844 -0.6133
 3023TIP3    H230629   6.573   0.502   8.133 -0.6718  0.3805 -0.9826
 3024TIP3   OH230630   3.177   1.758   0.181 -0.4633  0.2914 -0.3947
 3024TIP3    H130631   3.263   1.719   0.198 -1.2044 -1.5177 -0.6204
 3024TIP3    H230632   3.197   1.839   0.134  1.0714 -1.3591 -2.8175
 3025TIP3   OH230633   5.831   4.642   0.704 -0.1488  0.5759 -0.7223
 3025TIP3    H130634   5.884   4.575   0.660  0.7990  0.3537  0.6843
 3025TIP3    H230635   5.781   4.593   0.770  0.7806  1.2591  0.5218
 3026TIP3   OH230636   5.169   2.670   0.044 -0.3344 -0.3985  0.1487
 3026TIP3    H130637   5.147   2.617  -0.033 -0.4142 -1.0499  0.6191
 3026TIP3    H230638   5.115   2.749   0.035  1.4143  0.7065 -1.7669
 3027TIP3   OH230639   1.584   2.003   7.094 -0.0352 -0.0397 -0.3868
 3027TIP3    H130640   1.580   1.942   7.020 -0.1637 -1.1260  0.5000
 3027TIP3    H230641   1.510   2.062   7.080 -0.6999 -0.9034 -0.5541
 3028TIP3   OH230642   3.194   2.475   2.172  0.1755 -0.1473  0.1656
 3028TIP3    H130643   3.108   2.433   2.161 -0.4930  0.5781  2.1750
 3028TIP3    H230644   3.185   2.527   2.252  2.1837  0.7752 -0.1513
 3029TIP3   OH230645   0.237   0.296   2.720  0.1479  0.4931 -0.4357
 3029TIP3    H130646   0.201   0.209   2.707 -0.7017  0.5239  1.4540
 3029TIP3    H230647   0.325   0.292   2.683 -0.4616 -0.6579 -1.8414
 3030TIP3   OH230648   0.688   3.563   8.828 -0.4365 -0.4964  0.3904
 3030TIP3    H130649   0.704   3.554   8.921 -1.6284 -0.2677  0.6398
 3030TIP3    H230650   0.710   3.477   8.791 -0.1619 -0.6510  0.9130
 3031TIP3   OH230651   3.799   4.121   6.417 -0.4840  0.0066 -0.0938
 3031TIP3    H130652   3.840   4.207   6.405 -1.4321  0.3819 -0.7322
 3031TIP3    H230653   3.712   4.140   6.451 -0.1010 -0.7954  1.4118
 3032TIP3   OH230654   6.684   1.556   7.615 -0.6024  0.7487 -0.3404
 3032TIP3    H130655   6.728   1.474   7.636 -1.8412 -0.1578 -1.1451
 3032TIP3    H230656   6.672   1.598   7.700  2.4927  1.4722 -0.1432
 3033TIP3   OH230657   2.527   2.629   8.500  1.0828  0.2065 -0.2864
 3033TIP3    H130658   2.610   2.590   8.527  0.9295  0.9837  1.4340
 3033TIP3    H230659   2.498   2.679   8.577  0.1497  1.8235 -1.6212
 3034TIP3   OH230660   4.648   4.452   8.203 -0.3472 -0.1484 -0.1260
 3034TIP3    H130661   4.561   4.491   8.205 -0.1100  0.3618  0.4805
 3034TIP3    H230662   4.652   4.400   8.284 -0.7851 -1.7292 -1.0743
 3035TIP3   OH230663   4.433   5.666   1.400  0.1408  0.3449 -0.0947
 3035TIP3    H130664   4.474   5.727   1.461 -0.3767  1.0010 -0.3959
 3035TIP3    H230665   4.392   5.722   1.334  1.3083 -0.3449 -1.4707
 3036TIP3   OH230666   6.001   2.948   1.729 -0.6216 -0.5590  0.1672
 3036TIP3    H130667   6.004   2.917   1.819  0.7868  0.9756  0.6943
 3036TIP3    H230668   5.929   3.011   1.727  0.2752  0.5196  0.6424
 3037TIP3   OH230669   2.422   0.323   6.624 -0.1466  0.1975 -0.0767
 3037TIP3    H130670   2.351   0.263   6.601 -1.1230  1.5515 -0.7515
 3037TIP3    H230671   2.382   0.385   6.686  0.4237  1.0055 -0.4965
 3038TIP3   OH230672   4.633   2.009   0.830  0.3254  0.4295 -0.5139
 3038TIP3    H130673   4.680   2.081   0.872 -0.7722  0.6926  0.3180
 3038TIP3    H230674   4.642   2.024   0.736 -0.7976  2.2986 -0.3664
 3039TIP3   OH230675   0.790   0.222   1.779 -0.4817 -0.2391 -0.5953
 3039TIP3    H130676   0.820   0.252   1.865  0.7947 -2.7587 -0.0608
 3039TIP3    H230677   0.835   0.279   1.717  0.4878  0.0872  0.3679
 3040TIP3   OH230678   3.911   0.215   8.019 -0.2356  0.0003  0.4729
 3040TIP3    H130679   3.843   0.200   7.953 -2.2634  0.3463  2.3575
 3040TIP3    H230680   3.975   0.146   8.004 -0.2502  0.4427 -2.2238
 3041TIP3   OH230681   4.907   6.456   8.112  0.3565  0.6772  0.3955
 3041TIP3    H130682   4.813   6.465   8.100  0.1052 -1.4648  0.3069
 3041TIP3    H230683   4.945   6.534   8.072 -1.3354  1.2092 -0.2233
 3042TIP3   OH230684   2.757   6.120   0.798  0.4820 -0.2316 -0.9011
 3042TIP3    H130685   2.724   6.189   0.856  1.0556 -0.5469 -0.1857
 3042TIP3    H230686   2.793   6.054   0.857  1.8730 -0.1599 -1.6277
 3043TIP3   OH230687   5.315   5.038   0.429 -0.3993  0.0112  0.4407
 3043TIP3    H130688   5.313   4.973   0.359 -0.9885  0.1520  0.3244
 3043TIP3    H230689   5.402   5.029   0.467  0.2287  0.4581 -0.8109
 3044TIP3   OH230690   3.542   0.877   0.866  0.0478  0.4981 -0.1538
 3044TIP3    H130691   3.508   0.902   0.780 -0.0828  0.7421 -0.0333
 3044TIP3    H230692   3.631   0.848   0.848  0.5178  1.8823 -0.1950
 3045TIP3   OH230693   5.941   5.450   1.747  0.2616 -0.0435  0.3049
 3045TIP3    H130694   5.889   5.413   1.818 -0.4699  1.3960  0.5576
 3045TIP3    H230695   5.988   5.523   1.788 -1.5891  2.0049 -1.0095
 3046TIP3   OH230696   5.424   2.775   6.327  0.5382  0.1673  0.0281
 3046TIP3    H130697   5.464   2.688   6.320  0.7853  0.1154  1.6834
 3046TIP3    H230698   5.350   2.762   6.386 -0.2513  0.8265 -0.7980
 3047TIP3   OH230699   0.623   2.941   1.453  0.0845  0.5755 -0.0115
 3047TIP3    H130700   0.595   2.908   1.538 -2.4327 -1.4402 -1.4694
 3047TIP3    H230701   0.685   2.876   1.421 -2.3153 -1.1993 -1.4448
 3048TIP3   OH230702   2.794   2.269   6.907 -0.5697 -0.1044 -0.4949
 3048TIP3    H130703   2.752   2.229   6.983  1.2614  0.8821  1.1389
 3048TIP3    H230704   2.759   2.358   6.905  0.6705  0.4325  0.3249
 3049TIP3   OH230705   5.623   4.662   7.038 -0.0360  0.5100  0.6474
 3049TIP3    H130706   5.645   4.701   6.953 -2.7477  1.0067  0.0885
 3049TIP3    H230707   5.685   4.702   7.099  0.0059  2.4827 -0.5949
 3050TIP3   OH230708   3.619   5.095   6.827 -0.2116  0.0378  0.0678
 3050TIP3    H130709   3.683   5.030   6.857 -0.2127  0.7618  1.7171
 3050TIP3    H230710   3.670   5.154   6.771  0.2327 -0.2428  0.1725
 3051TIP3   OH230711   2.597   1.111   8.841  0.1853  0.6510 -0.3752
 3051TIP3    H130712   2.593   1.050   8.914  0.0566 -2.3378 -2.6736
 3051TIP3    H230713   2.689   1.135   8.835  0.2908  0.4575  0.3958
 3052TIP3   OH230714   3.515   0.478   1.929  0.2544 -0.3085  0.1617
 3052TIP3    H130715   3.520   0.386   1.957  0.9404 -0.7221 -1.2015
 3052TIP3    H230716   3.448   0.479   1.861 -0.1604  0.3216  0.5756
 3053TIP3   OH230717   2.215   1.455   1.300  0.1933  0.2495 -0.3103
 3053TIP3    H130718   2.137   1.405   1.326 -0.0940  0.2012 -1.2296
 3053TIP3    H230719   2.179   1.537   1.266  0.5669  0.3449 -0.4724
 3054TIP3   OH230720   5.791   1.287   7.477 -0.1190  0.3248  0.0884
 3054TIP3    H130721   5.833   1.246   7.402 -1.9011 -1.7656  0.1429
 3054TIP3    H230722   5.819   1.235   7.552  0.9478  1.8625  0.8051
 3055TIP3   OH230723   0.101   5.168   6.738 -0.5466 -0.0489  0.5290
 3055TIP3    H130724   0.139   5.196   6.655 -1.2089 -2.2112 -0.5551
 3055TIP3    H230725   0.120   5.240   6.798  4.1731 -0.4010 -0.1940
 3056TIP3   OH230726   5.237   3.523   0.599  0.1108  0.3780 -0.0511
 3056TIP3    H130727   5.220   3.560   0.686  0.2248 -1.4731  0.8098
 3056TIP3    H230728   5.332   3.526   0.590  0.0113  2.3754 -1.0016
 3057TIP3   OH230729   0.072   2.161   8.162  0.1307  0.5678  0.1971
 3057TIP3    H130730   0.064   2.107   8.240  1.7730 -0.4069 -0.2657
 3057TIP3    H230731   0.053   2.250   8.192 -0.2081  0.0804  1.4890
 3058TIP3   OH230732   3.968   2.900   2.123  0.3963 -1.0120  0.3998
 3058TIP3    H130733   3.948   2.807   2.124 -0.4791 -0.8338  1.0723
 3058TIP3    H230734   3.937   2.931   2.038  0.6801 -1.3322  0.1815
 3059TIP3   OH230735   4.835   6.039   0.169  0.6092  0.0109 -0.1157
 3059TIP3    H130736   4.861   6.131   0.161 -0.3090  0.1500 -2.1691
 3059TIP3    H230737   4.876   6.009   0.250  0.9379  2.2251  0.6015
 3060TIP3   OH230738   4.182   6.468   2.165 -0.2688  0.2781  1.0785
 3060TIP3    H130739   4.242   6.409   2.210  2.0690  1.1386 -0.7159
 3060TIP3    H230740   4.224   6.554   2.169 -0.3389  0.5641 -1.8886
 3061TIP3   OH230741   1.105   6.262   7.153 -0.4460  0.2680  0.7012
 3061TIP3    H130742   1.162   6.334   7.126 -0.0825  0.0401  0.8483
 3061TIP3    H230743   1.046   6.302   7.218  0.6504  0.1422  1.8198
 3062TIP3   OH230744   2.443   0.673   7.403 -0.1736  0.3531  0.4591
 3062TIP3    H130745   2.522   0.728   7.394  0.0189  0.0197  0.0905
 3062TIP3    H230746   2.477   0.584   7.410 -0.5255  0.1787  0.0009
 3063TIP3   OH230747   3.413   4.845   8.823 -0.9506 -0.0847  0.1105
 3063TIP3    H130748   3.475   4.887   8.883 -1.3430  1.7449 -0.6938
 3063TIP3    H230749   3.352   4.799   8.881 -1.4200  1.7676  1.1562
 3064TIP3   OH230750   4.533   3.071   0.357 -0.5219  0.2222 -0.0934
 3064TIP3    H130751   4.479   3.059   0.435  1.7116 -0.0659  1.5429
 3064TIP3    H230752   4.568   2.984   0.338 -0.3751  0.4486 -0.8907
 3065TIP3   OH230753   1.401   0.982   0.928  0.3339 -0.0263  0.3074
 3065TIP3    H130754   1.461   1.053   0.950 -0.2307  0.9015 -1.0294
 3065TIP3    H230755   1.325   1.025   0.890 -0.8907 -1.2296  1.2716
 3066TIP3   OH230756   3.586   2.590   8.779 -0.1037  0.0686  0.1690
 3066TIP3    H130757   3.638   2.661   8.817 -0.1352  0.9158 -1.2756
 3066TIP3    H230758   3.616   2.511   8.824  1.7330  0.6692  0.0913
 3067TIP3   OH230759   2.703   0.349   6.587  0.5405 -0.9341 -0.1835
 3067TIP3    H130760   2.702   0.444   6.597  0.8510 -0.8837 -0.5809
 3067TIP3    H230761   2.611   0.323   6.588  0.3031 -0.3766 -2.3382
 3068TIP3   OH230762   2.545   2.099   7.797 -0.0495  0.4667  0.2918
 3068TIP3    H130763   2.579   2.011   7.783 -0.7675  0.1107  0.6880
 3068TIP3    H230764   2.493   2.117   7.719  0.6741  0.8371 -0.1163
 3069TIP3   OH230765   1.193   0.860   8.426  0.1385  0.1641 -0.2409
 3069TIP3    H130766   1.109   0.841   8.465  0.3618  0.1335  0.2315
 3069TIP3    H230767   1.242   0.906   8.495  0.3518  0.5612 -0.6508
 3070TIP3   OH230768   0.744   2.554   6.627 -0.0865 -0.2935 -0.4904
 3070TIP3    H130769   0.828   2.580   6.590 -0.4322 -0.0209 -1.1136
 3070TIP3    H230770   0.682   2.564   6.554 -0.5233 -1.2229 -0.2660
 3071TIP3   OH230771   3.014   2.262   0.112  0.5383 -0.5182  0.0322
 3071TIP3    H130772   3.083   2.243   0.049  0.7629  0.7494 -0.1225
 3071TIP3    H230773   3.049   2.332   0.166  0.1234 -1.2060  1.2277
 3072TIP3   OH230774   0.888   5.265   1.589 -0.2017  0.0207 -0.2409
 3072TIP3    H130775   0.794   5.254   1.606 -0.4319  2.3530  0.4058
 3072TIP3    H230776   0.894   5.350   1.545  1.6940  0.5310  0.8996
 3073TIP3   OH230777   3.831   0.823   8.596  0.2528  0.4861 -0.7980
 3073TIP3    H130778   3.865   0.851   8.681 -3.0494  2.5134  0.0438
 3073TIP3    H230779   3.907   0.824   8.538  2.5388 -0.4313  1.9291
 3074TIP3   OH230780   6.318   3.136   7.994 -0.0693  0.0593 -0.0066
 3074TIP3    H130781   6.324   3.229   7.972 -0.2693  0.3024  0.9299
 3074TIP3    H230782   6.267   3.134   8.075 -2.5005 -1.0674 -1.4467
 3075TIP3   OH230783   3.411   2.849   6.737 -0.6730 -0.0561 -0.4110
 3075TIP3    H130784   3.448   2.915   6.679 -2.5603  0.2319 -1.3643
 3075TIP3    H230785   3.433   2.766   6.696  2.2491 -0.1697  1.1127
 3076TIP3   OH230786   6.716   0.938   0.493 -0.3258 -0.2564  0.3457
 3076TIP3    H130787   6.808   0.956   0.508 -0.2298 -0.3480 -0.1158
 3076TIP3    H230788   6.670   0.989   0.559  0.0961 -0.8722  1.1228
 3077TIP3   OH230789   3.705   3.336   6.739 -0.4150 -0.0823 -0.2541
 3077TIP3    H130790   3.715   3.243   6.761  0.0167  0.4616  2.0316
 3077TIP3    H230791   3.625   3.339   6.687  0.3273 -1.8936 -1.6499
 3078TIP3   OH230792   5.362   3.789   0.839  0.2845 -0.6213 -0.4179
 3078TIP3    H130793   5.415   3.849   0.787  0.9125 -0.9728 -0.1888
 3078TIP3    H230794   5.369   3.822   0.928  0.2343 -0.7534 -0.3652
 3079TIP3   OH230795   6.140   6.666   1.475 -0.0192 -0.1029  1.1058
 3079TIP3    H130796   6.057   6.628   1.504 -1.7888  1.7568 -1.0734
 3079TIP3    H230797   6.130   6.760   1.494  1.1373  0.2928 -0.1035
 3080TIP3   OH230798   1.932   5.788   1.800  0.3374  0.2019  0.6517
 3080TIP3    H130799   2.005   5.735   1.767 -0.0370 -0.8416  1.4313
 3080TIP3    H230800   1.959   5.815   1.887  0.2361  0.7281  0.5245
 3081TIP3   OH230801   4.052   3.800   8.642 -0.6057  0.1686  0.5746
 3081TIP3    H130802   4.096   3.719   8.616 -0.6135 -0.0409  1.2021
 3081TIP3    H230803   4.083   3.816   8.732  1.8725  2.5077 -0.5269
 3082TIP3   OH230804   2.488   1.759   2.428  0.2838  0.9432  0.4264
 3082TIP3    H130805   2.410   1.801   2.392 -0.3723  0.1858  0.9182
 3082TIP3    H230806   2.457   1.673   2.458  1.0328  1.1133  1.7675
 3083TIP3   OH230807   0.639   5.185   1.676  0.4565 -0.6099  0.6212
 3083TIP3    H130808   0.553   5.207   1.712 -0.3344  0.6400 -1.7819
 3083TIP3    H230809   0.623   5.109   1.621  0.4615  0.5486 -1.0842
 3084TIP3   OH230810   6.263   4.937   1.789  0.5278 -0.1997 -0.5519
 3084TIP3    H130811   6.323   4.882   1.741  1.4693  1.1046 -0.9286
 3084TIP3    H230812   6.318   5.004   1.830 -0.5064  0.1655  0.3182
 3085TIP3   OH230813   1.852   3.845   8.028 -0.2509 -0.3028  1.0827
 3085TIP3    H130814   1.893   3.829   8.113  2.8988 -0.1749 -0.2621
 3085TIP3    H230815   1.889   3.928   7.998 -1.9366  0.0874 -0.0900
 3086TIP3   OH230816   6.228   2.335   1.509 -0.4989 -0.3431 -0.2831
 3086TIP3    H130817   6.174   2.287   1.446  1.8912 -1.0759 -1.9238
 3086TIP3    H230818   6.246   2.419   1.466  1.4709 -1.0007 -0.8406
 3087TIP3   OH230819   2.647   1.977   8.457  0.0143 -0.2625 -0.6641
 3087TIP3    H130820   2.607   2.041   8.516 -0.2017  0.0558 -1.1454
 3087TIP3    H230821   2.594   1.983   8.377 -0.0926 -1.1404 -0.6663
 3088TIP3   OH230822   2.631   0.997   0.099 -0.3863  0.0193 -0.3739
 3088TIP3    H130823   2.602   0.917   0.143  1.5405 -0.8441 -0.5765
 3088TIP3    H230824   2.637   1.062   0.169  0.7061 -0.7959  0.3204
 3089TIP3   OH230825   2.009   1.295   1.412 -0.5159 -0.1626  0.5315
 3089TIP3    H130826   2.018   1.245   1.493  1.5745 -1.5355 -0.4642
 3089TIP3    H230827   1.959   1.237   1.354  0.7912 -0.5974 -0.1968
 3090TIP3   OH230828   4.706   5.161   7.525  0.3731 -0.0459 -0.6599
 3090TIP3    H130829   4.745   5.224   7.465  1.5970 -0.9208 -0.8190
 3090TIP3    H230830   4.624   5.201   7.552  1.3979  1.8683 -0.2740
 3091TIP3   OH230831   2.620   2.559   8.029 -0.4307 -0.1245 -0.2588
 3091TIP3    H130832   2.677   2.484   8.012 -1.6355 -1.3494  0.8773
 3091TIP3    H230833   2.680   2.633   8.039  1.1723 -1.6188  2.3670
 3092TIP3   OH230834   5.496   4.549   7.324  0.2954 -0.0062  0.3567
 3092TIP3    H130835   5.500   4.468   7.376 -0.8592 -0.0390  0.4299
 3092TIP3    H230836   5.473   4.616   7.388  0.8983  0.3143  0.2334
 3093TIP3   OH230837   5.292   4.788   1.795 -0.0122  0.4097  0.0769
 3093TIP3    H130838   5.322   4.749   1.877  0.8107 -0.2060 -0.5037
 3093TIP3    H230839   5.256   4.714   1.746 -2.7752  1.1222  0.8188
 3094TIP3   OH230840   4.709   4.549   1.076  0.1789  0.3724 -0.1407
 3094TIP3    H130841   4.680   4.469   1.119 -1.2847  0.0631 -1.5682
 3094TIP3    H230842   4.634   4.608   1.083 -0.3525  0.1044 -2.6503
 3095TIP3   OH230843   6.196   3.384   0.790 -0.1938 -0.4724  0.0543
 3095TIP3    H130844   6.218   3.459   0.735 -1.5406  0.9025  1.3334
 3095TIP3    H230845   6.110   3.356   0.759 -0.3485 -0.5566  0.5609
 3096TIP3   OH230846   5.826   0.475   7.396  0.1333  0.2172 -0.4101
 3096TIP3    H130847   5.750   0.452   7.343 -0.3895 -1.8201  1.0762
 3096TIP3    H230848   5.872   0.541   7.345 -2.1894  0.9388 -1.7269
 3097TIP3   OH230849   1.389   6.240   7.169  0.2546 -0.2182  0.1041
 3097TIP3    H130850   1.359   6.160   7.125  0.1107  0.2627 -0.6814
 3097TIP3    H230851   1.372   6.310   7.107  2.3053  0.1899 -0.0593
 3098TIP3   OH230852   6.332   4.731   6.916 -0.6824  0.1287 -0.4443
 3098TIP3    H130853   6.313   4.776   6.834  0.7536  0.6591 -0.5181
 3098TIP3    H230854   6.427   4.724   6.917 -0.5137  1.8850  2.0993
 3099TIP3   OH230855   1.478   4.292   2.254  0.1607  0.3434  0.3824
 3099TIP3    H130856   1.521   4.212   2.224  0.5117  0.2364  1.1357
 3099TIP3    H230857   1.410   4.262   2.314 -1.9463  0.4269 -1.8550
 3100TIP3   OH230858   6.030   5.627   0.197 -0.3085 -0.0574 -0.3681
 3100TIP3    H130859   5.954   5.645   0.141 -0.7922 -0.2555  0.2163
 3100TIP3    H230860   6.054   5.537   0.177 -0.6304 -0.2067 -0.0778
 3101TIP3   OH230861   5.986   6.633   0.242  0.3942  0.0303  0.5950
 3101TIP3    H130862   5.968   6.647   0.149  1.2549  1.0531  0.5656
 3101TIP3    H230863   6.077   6.660   0.253 -0.3639  2.1869  2.1706
 3102TIP3   OH230864   0.868   2.555   7.484 -0.6574 -0.4091  0.1281
 3102TIP3    H130865   0.824   2.601   7.555  0.1835  0.0288  0.3804
 3102TIP3    H230866   0.819   2.579   7.406 -0.9302 -0.0164  0.4150
 3103TIP3   OH230867   3.304   5.334   1.899  0.0362 -0.2095  0.6047
 3103TIP3    H130868   3.324   5.365   1.810 -0.0168  1.2659  1.0811
 3103TIP3    H230869   3.389   5.328   1.942  0.1560 -1.8243  0.2075
 3104TIP3   OH230870   1.990   5.527   7.435 -0.2439  0.3279  0.5681
 3104TIP3    H130871   1.934   5.450   7.422 -1.5852  1.5213 -1.2844
 3104TIP3    H230872   2.027   5.543   7.348  0.0101  1.7585  0.9276
 3105TIP3   OH230873   6.548   5.998   1.873  0.2477  0.3044  0.1980
 3105TIP3    H130874   6.599   5.998   1.954  1.8970 -1.3164 -0.7743
 3105TIP3    H230875   6.612   6.019   1.805 -1.2178  2.2562 -0.6919
 3106TIP3   OH230876   0.264   1.611   0.997  0.1357 -0.1551 -0.1431
 3106TIP3    H130877   0.287   1.525   0.963  0.2255 -0.3010  0.2845
 3106TIP3    H230878   0.344   1.663   0.989  0.0133 -0.0393 -0.6262
 3107TIP3   OH230879   5.665   4.132   0.544  0.3215  0.3994  0.5976
 3107TIP3    H130880   5.680   4.226   0.559 -0.6749  0.3379  2.1530
 3107TIP3    H230881   5.575   4.118   0.572  0.0874 -0.8353 -0.6760
 3108TIP3   OH230882   3.240   1.118   7.992 -1.4144  0.6474  0.4027
 3108TIP3    H130883   3.213   1.064   7.918 -1.5821  1.9953 -0.5621
 3108TIP3    H230884   3.163   1.170   8.013 -2.0888 -1.2138  3.0016
 3109TIP3   OH230885   5.902   4.591   7.122 -0.2935 -0.0747  0.5106
 3109TIP3    H130886   5.996   4.605   7.132 -0.0428 -0.4451 -1.1619
 3109TIP3    H230887   5.885   4.508   7.166 -0.4387  1.4251  3.5612
 3110TIP3   OH230888   5.632   3.926   8.749  0.1598 -0.6866 -0.2190
 3110TIP3    H130889   5.583   4.000   8.784  1.1340  0.1175 -0.5046
 3110TIP3    H230890   5.565   3.861   8.726 -0.6579 -0.1605  0.6285
 3111TIP3   OH230891   4.472   3.457   8.040 -0.1881  0.6300  0.1358
 3111TIP3    H130892   4.507   3.496   7.960 -0.5808  1.0537  0.1628
 3111TIP3    H230893   4.493   3.364   8.033 -0.2920  0.6494 -0.4989
 3112TIP3   OH230894   4.436   6.154   7.209 -0.3825  0.2198  0.1827
 3112TIP3    H130895   4.488   6.149   7.129  0.1600 -1.9690  0.6197
 3112TIP3    H230896   4.357   6.102   7.189 -0.3624 -0.1249  0.9637
 3113TIP3   OH230897   0.167   6.498   8.235  0.4727 -0.1274  0.4953
 3113TIP3    H130898   0.186   6.537   8.321  1.1777 -0.6816  0.5995
 3113TIP3    H230899   0.243   6.443   8.217  0.3202 -0.0217 -0.4860
 3114TIP3   OH230900   0.625   1.205   7.331  0.0613 -0.0650 -0.4129
 3114TIP3    H130901   0.583   1.216   7.246 -1.1133  1.9596  0.3503
 3114TIP3    H230902   0.571   1.139   7.376 -0.1636 -0.0844 -0.7081
 3115TIP3   OH230903   3.454   6.339   1.737  0.1969 -0.0241  0.0650
 3115TIP3    H130904   3.367   6.379   1.739  0.6650  1.0315  2.0615
 3115TIP3    H230905   3.514   6.413   1.746  1.1359 -1.0016  2.4419
 3116TIP3   OH230906   6.388   4.892   0.406 -0.0336  0.1759  0.8037
 3116TIP3    H130907   6.377   4.965   0.345  1.7930  0.9360  1.3067
 3116TIP3    H230908   6.444   4.928   0.476 -0.1416 -1.3454  1.7129
 3117TIP3   OH230909   5.346   5.332   6.744  0.7986 -0.8983 -0.0209
 3117TIP3    H130910   5.338   5.284   6.662 -0.3147  2.1861 -1.9251
 3117TIP3    H230911   5.440   5.341   6.757  1.1014  0.5477 -2.4031
 3118TIP3   OH230912   6.078   6.173   0.925  0.5145 -0.8686  0.2961
 3118TIP3    H130913   6.146   6.173   0.858  0.1391 -1.0166 -0.0902
 3118TIP3    H230914   6.120   6.132   1.001  0.3767 -2.5185 -0.4619
 3119TIP3   OH230915   1.963   4.465   0.426 -0.9094 -0.0654 -0.5545
 3119TIP3    H130916   1.881   4.465   0.476 -2.1849  1.8677 -2.4727
 3119TIP3    H230917   1.936   4.486   0.337  1.6098 -0.3147 -1.4386
 3120TIP3   OH230918   1.551   6.523   8.175  0.2712 -0.1899 -0.1976
 3120TIP3    H130919   1.592   6.609   8.171 -2.3406  1.1205 -0.5489
 3120TIP3    H230920   1.513   6.518   8.262 -2.1829  0.3472 -1.1750
 3121TIP3   OH230921   4.308   1.278   1.919 -0.0640  0.3549 -0.2821
 3121TIP3    H130922   4.403   1.271   1.931  0.1384  1.6358 -1.0653
 3121TIP3    H230923   4.274   1.289   2.008  0.3272 -1.8525  0.1944
 3122TIP3   OH230924   1.879   6.215   0.985 -0.0126 -0.5063  0.0499
 3122TIP3    H130925   1.802   6.271   0.974  0.4156  0.3995  1.5245
 3122TIP3    H230926   1.869   6.177   1.072  1.8378  0.6303  0.8016
 3123TIP3   OH230927   0.433   2.054   0.837 -0.5299  0.8517  0.1879
 3123TIP3    H130928   0.359   2.009   0.878  0.9429  0.7449  2.9873
 3123TIP3    H230929   0.509   2.001   0.859  0.5161  1.2467 -2.1549
 3124TIP3   OH230930   1.923   1.134   1.208 -0.1146  0.3294 -0.3535
 3124TIP3    H130931   1.994   1.173   1.158 -0.5276  0.2211 -1.0344
 3124TIP3    H230932   1.930   1.040   1.191  1.1138  0.0170  1.5822
 3125TIP3   OH230933   1.595   0.053   8.187  0.2035  0.1059  0.0245
 3125TIP3    H130934   1.551   0.122   8.138  1.5060  0.6028 -0.5103
 3125TIP3    H230935   1.565   0.065   8.277  1.2616  2.1498  0.1739
 3126TIP3   OH230936   4.312   6.741   0.682 -0.1167 -0.3809  0.3961
 3126TIP3    H130937   4.346   6.820   0.640  0.1881 -0.5691  0.2910
 3126TIP3    H230938   4.322   6.672   0.617 -1.8178 -0.2042 -0.0844
 3127TIP3   OH230939   0.371   3.626   7.979 -0.0209  0.3914  0.5034
 3127TIP3    H130940   0.363   3.666   7.893 -1.6577  4.1498  2.1918
 3127TIP3    H230941   0.306   3.555   7.979  0.5815 -0.2114 -1.5531
 3128TIP3   OH230942   6.310   2.463   8.492  0.1138 -0.3178  0.1638
 3128TIP3    H130943   6.401   2.493   8.490 -0.1210  0.5835  1.4986
 3128TIP3    H230944   6.260   2.542   8.513 -0.7742 -1.1623  1.3424
 3129TIP3   OH230945   3.399   0.342   1.517 -0.2352  0.0099 -0.4695
 3129TIP3    H130946   3.304   0.332   1.526 -0.2227 -0.4157 -0.7790
 3129TIP3    H230947   3.435   0.295   1.593 -0.2226 -1.3013 -1.2514
 3130TIP3   OH230948   0.753   4.737   8.207  0.0840 -0.5138  0.3920
 3130TIP3    H130949   0.788   4.694   8.129 -1.0169  0.9870 -0.9980
 3130TIP3    H230950   0.776   4.829   8.196 -1.0177 -0.1018  1.2956
 3131TIP3   OH230951   6.164   2.668   1.097  0.7420  0.4412 -0.0547
 3131TIP3    H130952   6.086   2.709   1.059  1.0605  1.2875  0.1797
 3131TIP3    H230953   6.214   2.741   1.133  1.9380 -0.0164 -0.7301
 3132TIP3   OH230954   1.461   5.109   0.795  0.0736 -0.3508 -0.0249
 3132TIP3    H130955   1.511   5.080   0.871  0.1921  3.0023  1.3563
 3132TIP3    H230956   1.462   5.205   0.801 -1.6845 -0.0062 -3.1400
 3133TIP3   OH230957   3.747   2.579   1.545  0.1836 -0.1903  0.1240
 3133TIP3    H130958   3.781   2.532   1.469  0.9795  1.0493 -0.3167
 3133TIP3    H230959   3.825   2.610   1.591 -0.2522  2.5540 -0.8067
 3134TIP3   OH230960   4.118   3.263   6.847  0.0672  0.2569  0.2373
 3134TIP3    H130961   4.189   3.278   6.784 -0.7206  0.2292 -0.6858
 3134TIP3    H230962   4.074   3.348   6.854 -0.1704  0.1260  0.3503
 3135TIP3   OH230963   2.358   1.860   2.081  0.0226  0.8954  0.2901
 3135TIP3    H130964   2.424   1.928   2.070 -0.4030  1.1164 -1.1441
 3135TIP3    H230965   2.283   1.892   2.030 -0.8954  0.2692  1.2200
 3136TIP3   OH230966   6.376   1.594   8.846  0.2033 -0.4573 -0.2258
 3136TIP3    H130967   6.471   1.604   8.848  0.2157 -0.4643  1.9690
 3136TIP3    H230968   6.360   1.511   8.891 -0.8516 -0.4131 -0.4913
 3137TIP3   OH230969   3.909   5.206   1.827 -0.4172 -0.3580 -0.0303
 3137TIP3    H130970   3.928   5.187   1.919 -1.1935 -1.9191 -0.1535
 3137TIP3    H230971   3.993   5.237   1.791 -0.1110  0.2721  1.1876
 3138TIP3   OH230972   0.248   3.937   7.732  0.0476  0.0819 -0.7159
 3138TIP3    H130973   0.267   3.988   7.811  0.9789  1.1583 -1.6122
 3138TIP3    H230974   0.182   3.988   7.685 -0.7994 -0.7540 -0.4558
 3139TIP3   OH230975   0.987   0.995   0.380  0.2017 -0.0653  0.1674
 3139TIP3    H130976   1.027   1.065   0.329 -1.0400  1.4891  1.2519
 3139TIP3    H230977   0.935   0.946   0.317  3.5119 -2.0844 -1.2767
 3140TIP3   OH230978   2.500   0.236   8.738 -0.6580 -0.0788  0.0372
 3140TIP3    H130979   2.495   0.152   8.784  1.5469 -0.6298 -0.6126
 3140TIP3    H230980   2.537   0.296   8.803  2.5575 -0.8816 -0.8394
 3141TIP3   OH230981   5.859   5.869   6.996 -0.1934 -0.0669 -0.0648
 3141TIP3    H130982   5.895   5.877   6.908  1.2075 -0.7922  0.4152
 3141TIP3    H230983   5.831   5.957   7.019  0.8495  0.4226 -0.6332
 3142TIP3   OH230984   0.462   0.634   7.536 -0.1514  0.3096 -0.3065
 3142TIP3    H130985   0.491   0.654   7.448 -1.3598  1.1518 -0.5464
 3142TIP3    H230986   0.441   0.719   7.575  2.0419  0.1314  1.4478
 3143TIP3   OH230987   0.063   3.890   1.786 -0.4544 -0.3395  0.0050
 3143TIP3    H130988   0.054   3.872   1.693 -0.3219  0.3704 -0.1485
 3143TIP3    H230989  -0.014   3.943   1.808 -0.7578 -0.9367  0.4166
 3144TIP3   OH230990   4.050   6.385   1.443 -0.4645  0.7334 -0.8151
 3144TIP3    H130991   3.977   6.420   1.494  1.6544  2.2769  1.4382
 3144TIP3    H230992   4.097   6.328   1.504  0.4779  0.1715 -2.0303
 3145TIP3   OH230993   1.826   0.380   8.097  0.0199 -0.1051 -0.2610
 3145TIP3    H130994   1.867   0.345   8.177 -1.7022  1.5791  1.4723
 3145TIP3    H230995   1.740   0.337   8.095 -0.6893  1.2749 -0.1068
 3146TIP3   OH230996   2.074   5.644   0.933 -0.4924  0.1518 -0.6903
 3146TIP3    H130997   2.102   5.590   1.007 -0.2887  1.6377  0.3851
 3146TIP3    H230998   2.054   5.582   0.863  2.3170 -1.1722 -0.4611
 3147TIP3   OH230999   3.017   3.205   1.346 -0.1675  0.4366 -0.1245
 3147TIP3    H131000   3.048   3.172   1.262 -0.3333 -0.5381  0.1812
 3147TIP3    H231001   3.068   3.155   1.411 -0.2785  0.9389  0.3567
 3148TIP3   OH231002   0.942   4.177   8.844 -0.4890 -0.0081 -0.0123
 3148TIP3    H131003   0.921   4.090   8.809 -1.8665  1.0004 -1.8924
 3148TIP3    H231004   0.946   4.165   8.939 -1.4878 -1.9685 -0.1766
 3149TIP3   OH231005   0.733   0.682   7.658 -0.3738 -0.1692 -0.2605
 3149TIP3    H131006   0.652   0.732   7.667 -2.0186 -2.8783  1.2249
 3149TIP3    H231007   0.716   0.600   7.703  2.5966 -1.6160 -1.4924
 3150TIP3   OH231008   3.931   6.408   2.254 -0.4757  0.5478  0.0462
 3150TIP3    H131009   3.928   6.504   2.258 -0.0024  0.5172  1.6659
 3150TIP3    H231010   4.024   6.388   2.241 -0.7683  0.3071 -2.1535
 3151TIP3   OH231011   4.930   4.819   1.387 -0.2560  0.3313 -0.2320
 3151TIP3    H131012   4.980   4.747   1.348 -0.0978  0.0806  0.4196
 3151TIP3    H231013   4.976   4.838   1.469 -1.6304 -0.3831  0.7319
 3152TIP3   OH231014   6.181   4.561   1.753  0.2833 -0.4795  0.6716
 3152TIP3    H131015   6.266   4.604   1.765 -0.3869  0.5988  1.8513
 3152TIP3    H231016   6.117   4.633   1.753 -0.4945 -1.0326 -2.5780
 3153TIP3   OH231017   0.313   2.129   6.277  0.3230  0.1181  0.2574
 3153TIP3    H131018   0.291   2.175   6.196  0.3351  1.6201  1.0920
 3153TIP3    H231019   0.302   2.036   6.254 -0.5227  0.5405 -1.2051
 3154TIP3   OH231020   4.036   5.762   0.683  0.1923 -0.7308 -0.4195
 3154TIP3    H131021   3.994   5.848   0.685  0.0929 -0.7932  0.6045
 3154TIP3    H231022   4.004   5.718   0.762  1.3576 -1.1819 -0.1824
 3155TIP3   OH231023   4.620   5.802   1.981 -0.0189  0.5472 -0.2205
 3155TIP3    H131024   4.527   5.790   1.963  0.0343  1.3114 -1.0982
 3155TIP3    H231025   4.647   5.872   1.920  1.5273 -0.8966 -1.2752
 3156TIP3   OH231026   4.539   1.574   2.194  0.3969  0.4133  0.2637
 3156TIP3    H131027   4.553   1.657   2.148  0.6779 -0.7690 -1.9401
 3156TIP3    H231028   4.482   1.596   2.267  0.1332  2.4653 -0.4967
 3157TIP3   OH231029   3.923   0.127   8.388 -0.4355 -0.0499  0.0756
 3157TIP3    H131030   3.905   0.176   8.468 -0.4071  0.4325 -0.2072
 3157TIP3    H231031   3.838   0.091   8.362 -0.1001 -2.0682  1.4963
 3158TIP3   OH231032   0.649   0.886   8.304 -0.1970  0.1026  0.1810
 3158TIP3    H131033   0.638   0.807   8.252 -1.6024  0.5215 -0.2050
 3158TIP3    H231034   0.560   0.918   8.319  0.2843  1.0582  1.1977
 3159TIP3   OH231035   1.858   3.582   2.124  0.4384 -0.1549  0.3860
 3159TIP3    H131036   1.791   3.571   2.191  0.3896 -1.8706  0.0908
 3159TIP3    H231037   1.840   3.668   2.086 -1.5158 -0.5189  0.4053
 3160TIP3   OH231038   5.250   5.611   0.777 -0.7013 -0.3512 -0.0600
 3160TIP3    H131039   5.268   5.682   0.839 -0.9074 -0.9980  0.7686
 3160TIP3    H231040   5.163   5.580   0.801 -1.1010 -0.1356 -1.1710
 3161TIP3   OH231041   1.561   0.047   7.242 -0.3661 -0.4512 -0.4820
 3161TIP3    H131042   1.486   0.003   7.200 -1.5396 -0.4938  1.5609
 3161TIP3    H231043   1.566   0.008   7.329  0.3364  1.4851  0.3942
 3162TIP3   OH231044   1.401   3.876   1.692 -0.1287  0.1043 -0.3715
 3162TIP3    H131045   1.486   3.892   1.735 -0.0875  1.9236 -1.0300
 3162TIP3    H231046   1.339   3.931   1.741 -0.0871  2.2240 -2.4824
 3163TIP3   OH231047   2.015   2.681   7.112 -0.1963 -0.3014 -0.6142
 3163TIP3    H131048   1.952   2.674   7.040 -2.1863 -1.6211  1.1010
 3163TIP3    H231049   2.099   2.656   7.074 -0.8443  0.5634 -2.7877
 3164TIP3   OH231050   0.059   6.107   0.188  0.8661 -0.2504 -0.3648
 3164TIP3    H131051   0.028   6.117   0.277 -0.9658  0.1386 -1.0170
 3164TIP3    H231052   0.128   6.173   0.179  1.0126 -0.2384  0.7037
 3165TIP3   OH231053   1.629   4.624   1.973 -0.4976 -0.3423 -0.2046
 3165TIP3    H131054   1.613   4.658   2.061  0.9410 -1.2931  0.4587
 3165TIP3    H231055   1.569   4.674   1.917  1.1066  2.9323  0.7536
 3166TIP3   OH231056   1.492   5.580   8.782  0.4804 -0.1765  0.4965
 3166TIP3    H131057   1.580   5.617   8.774  0.3391 -0.0954 -1.0304
 3166TIP3    H231058   1.461   5.572   8.692 -0.3124 -2.0742  0.8752
 3167TIP3   OH231059   5.831   2.977   8.697  0.5403 -0.1717  0.3613
 3167TIP3    H131060   5.763   2.996   8.632 -0.8051  1.1049  2.0371
 3167TIP3    H231061   5.783   2.953   8.776  2.1016 -0.7724  1.1736
 3168TIP3   OH231062   3.024   5.123   1.072 -0.1227  0.4626 -0.4460
 3168TIP3    H131063   3.106   5.084   1.104  0.1972  0.7474 -0.9009
 3168TIP3    H231064   2.959   5.053   1.081 -0.5275  1.0944  2.6628
 3169TIP3   OH231065   4.334   2.904   1.572  0.3805  0.2262 -0.2554
 3169TIP3    H131066   4.260   2.869   1.622 -1.3979  2.2204 -1.2851
 3169TIP3    H231067   4.399   2.928   1.638  1.2641 -3.7337  0.5509
 3170TIP3   OH231068   6.227   2.330   7.621  0.0377 -0.5533  0.4871
 3170TIP3    H131069   6.193   2.354   7.535  3.3986 -0.3827 -0.9289
 3170TIP3    H231070   6.205   2.404   7.677 -1.3576 -0.2357 -0.4263
 3171TIP3   OH231071   4.604   6.601   8.179  0.3647 -0.0870 -0.3295
 3171TIP3    H131072   4.587   6.600   8.085 -2.2741  1.8388  0.0028
 3171TIP3    H231073   4.537   6.660   8.214  0.7716 -1.3418  2.8578
 3172TIP3   OH231074   6.736   1.025   1.254 -0.0893  0.0367 -0.1630
 3172TIP3    H131075   6.764   0.946   1.209 -0.8428 -0.6298  0.5161
 3172TIP3    H231076   6.815   1.078   1.262  0.2534 -0.2713 -1.3616
 3173TIP3   OH231077   1.511   4.966   6.634 -0.3771 -0.3233 -0.4673
 3173TIP3    H131078   1.433   5.014   6.604 -0.3788 -1.6176 -2.7528
 3173TIP3    H231079   1.574   5.035   6.657 -1.8321  0.7469  0.5176
 3174TIP3   OH231080   5.161   3.366   6.903  0.2453  0.5726  0.0650
 3174TIP3    H131081   5.115   3.298   6.854  1.3406 -0.5559  0.5456
 3174TIP3    H231082   5.251   3.333   6.912  0.6639  1.8380  0.7794
 3175TIP3   OH231083   1.908   4.655   0.183 -0.1386  0.0045  0.3794
 3175TIP3    H131084   1.857   4.729   0.215 -1.4267 -0.6127 -0.1658
 3175TIP3    H231085   1.936   4.681   0.095 -0.4822 -0.0859  0.2389
 3176TIP3   OH231086   5.347   4.315   8.337 -0.7768 -0.0912 -0.1156
 3176TIP3    H131087   5.281   4.253   8.305  0.3681 -2.0506  1.1404
 3176TIP3    H231088   5.317   4.339   8.425 -0.6373  0.2762 -0.1652
 3177TIP3   OH231089   6.198   6.176   8.461 -0.0250 -0.4079 -0.2457
 3177TIP3    H131090   6.136   6.189   8.532  0.2409 -0.7093  0.0499
 3177TIP3    H231091   6.153   6.117   8.400  0.0410 -0.7925  0.0694
 3178TIP3   OH231092   4.897   5.106   0.979 -0.6740  0.2833 -0.0991
 3178TIP3    H131093   4.891   5.016   0.949  0.9992  0.2562 -0.4450
 3178TIP3    H231094   4.866   5.103   1.070  1.1807 -1.0467  0.5521
 3179TIP3   OH231095   2.730   2.136   1.728  0.0526  0.2059 -0.6521
 3179TIP3    H131096   2.742   2.042   1.740  0.0050  0.2618 -0.1289
 3179TIP3    H231097   2.743   2.173   1.815  0.5977  0.7430 -0.9549
 3180TIP3   OH231098   4.122   4.942   2.558  0.3469  0.1884  0.2439
 3180TIP3    H131099   4.139   4.969   2.467 -3.1217  0.3551 -0.4985
 3180TIP3    H231100   4.028   4.952   2.568  0.5587 -0.2816  3.7875
 3181TIP3   OH231101   2.292   2.411   2.362 -0.1515  0.4655  0.4903
 3181TIP3    H131102   2.369   2.365   2.397  1.2197  1.4227 -1.1050
 3181TIP3    H231103   2.264   2.468   2.434  0.1747 -0.3980  1.3367
 3182TIP3   OH231104   1.881   5.283   7.395 -0.2928 -0.4575  0.2322
 3182TIP3    H131105   1.911   5.196   7.371 -1.0351 -0.4676 -0.7606
 3182TIP3    H231106   1.793   5.289   7.358 -1.1814 -0.1048  2.2587
 3183TIP3   OH231107   0.358   4.850   2.174  0.0772 -0.4101  0.0472
 3183TIP3    H131108   0.401   4.877   2.093 -0.1536 -0.2155 -0.0101
 3183TIP3    H231109   0.428   4.854   2.240  0.9936 -3.2281 -0.6309
 3184TIP3   OH231110   0.967   1.344   7.913  0.1297 -0.1371 -0.0934
 3184TIP3    H131111   0.972   1.253   7.940  2.6157 -0.0071  0.0815
 3184TIP3    H231112   0.888   1.377   7.955  0.0836 -1.7834  1.1956
 3185TIP3   OH231113   6.156   3.021   7.333 -0.3084  0.1619 -0.9269
 3185TIP3    H131114   6.223   2.965   7.372  0.2928  0.7887 -1.0527
 3185TIP3    H231115   6.171   3.107   7.372 -2.0525 -0.0337  0.2766
 3186TIP3   OH231116   3.876   4.669   1.285  0.3582 -0.4585 -0.1176
 3186TIP3    H131117   3.788   4.640   1.307  0.6052  0.0367  1.6179
 3186TIP3    H231118   3.877   4.668   1.189 -1.6670 -0.0896 -0.2001
 3187TIP3   OH231119   4.232   1.367   2.775  0.2204 -0.3779 -0.2107
 3187TIP3    H131120   4.234   1.426   2.700 -2.1091  0.5676  0.3826
 3187TIP3    H231121   4.203   1.283   2.740  2.4897 -0.9444 -0.8784
 3188TIP3   OH231122   3.914   6.328   2.525 -0.1458  0.2366  0.1590
 3188TIP3    H131123   3.927   6.356   2.434 -0.4234  0.4249  0.1776
 3188TIP3    H231124   3.977   6.379   2.575  0.4154 -0.2843  0.0041
 3189TIP3   OH231125   0.402   6.038   6.774  0.1886 -0.1242  0.5268
 3189TIP3    H131126   0.319   6.073   6.806 -1.0072 -1.1149 -1.3466
 3189TIP3    H231127   0.452   6.115   6.746 -0.2416  0.4452  1.2786
 3190TIP3   OH231128   3.838   3.323   0.660  0.1817 -0.4856 -0.2567
 3190TIP3    H131129   3.746   3.319   0.687 -0.0297  0.7198 -0.7163
 3190TIP3    H231130   3.859   3.417   0.661  1.6631 -0.8020  0.6661
 3191TIP3   OH231131   0.651   3.733   1.047 -0.1344 -0.1545 -0.2944
 3191TIP3    H131132   0.613   3.646   1.045  0.4879 -0.5294  1.7934
 3191TIP3    H231133   0.727   3.727   0.989 -0.5390 -0.7723 -0.7716
 3192TIP3   OH231134   0.726   3.943   7.625 -0.0447  0.2398  0.3213
 3192TIP3    H131135   0.780   3.917   7.699 -1.0558 -0.3784  0.8684
 3192TIP3    H231136   0.699   3.861   7.583 -2.2633  0.3606  1.3434
 3193TIP3   OH231137   1.273   5.877   8.368 -0.1179  0.1025  0.6932
 3193TIP3    H131138   1.306   5.806   8.423 -1.1405 -2.1801 -1.4476
 3193TIP3    H231139   1.340   5.888   8.300 -0.6340  0.1987  0.1954
 3194TIP3   OH231140   2.252   2.956   8.562  0.3494  0.0415  0.0807
 3194TIP3    H131141   2.237   2.937   8.469 -1.7212 -0.7546  0.5114
 3194TIP3    H231142   2.266   3.050   8.566  1.7128 -0.0768 -1.1483
 3195TIP3   OH231143   1.692   6.465   1.632  0.2292 -0.3348  0.1015
 3195TIP3    H131144   1.764   6.526   1.650 -0.1873 -0.5739  3.3142
 3195TIP3    H231145   1.733   6.379   1.626  0.3656 -0.2964  0.4601
 3196TIP3   OH231146   2.592   5.881   2.046 -0.1414 -0.0366  0.2291
 3196TIP3    H131147   2.623   5.955   1.995  1.3347 -0.8423 -0.1060
 3196TIP3    H231148   2.663   5.816   2.040 -1.7229 -1.8088 -0.2068
 3197TIP3   OH231149   4.588   4.971   8.380  0.2098 -0.0639  0.1263
 3197TIP3    H131150   4.622   4.899   8.328 -3.3353 -0.5050 -1.9085
 3197TIP3    H231151   4.656   5.038   8.375  1.8324 -1.7112 -1.4544
 3198TIP3   OH231152   3.026   4.619   7.919 -0.1089  0.1070 -0.1837
 3198TIP3    H131153   2.979   4.702   7.927 -3.7270 -1.9070  3.3217
 3198TIP3    H231154   2.975   4.568   7.856  0.0313 -0.6056  0.2660
 3199TIP3   OH231155   1.478   2.573   0.512 -0.1981 -0.1105  0.7563
 3199TIP3    H131156   1.430   2.500   0.552 -1.0396  0.3262  0.5622
 3199TIP3    H231157   1.415   2.645   0.511  0.3605  0.3769  0.1777
 3200TIP3   OH231158   2.949   4.395   1.054 -0.2720 -0.0602 -0.6296
 3200TIP3    H131159   2.911   4.384   0.967  0.0271 -1.1703 -0.6380
 3200TIP3    H231160   2.981   4.308   1.077 -0.3989  0.2077  0.6171
 3201TIP3   OH231161   4.304   3.493   7.083  0.4044  0.3028 -0.3526
 3201TIP3    H131162   4.361   3.538   7.145 -0.7499 -0.4144  1.3195
 3201TIP3    H231163   4.363   3.438   7.032  1.6192  2.3116 -1.2571
 3202TIP3   OH231164   4.368   6.497   8.657  0.4507  0.4098 -0.0195
 3202TIP3    H131165   4.401   6.582   8.626 -1.3314  1.4095  0.6515
 3202TIP3    H231166   4.436   6.435   8.634  1.2789  1.8390 -1.6520
 3203TIP3   OH231167   3.282   2.341   0.655 -0.5549  0.2051 -0.0784
 3203TIP3    H131168   3.307   2.414   0.711  0.4921 -0.7771  0.7904
 3203TIP3    H231169   3.364   2.296   0.636 -1.1703 -0.7238 -0.6307
 3204TIP3   OH231170   6.089   5.961   7.959 -0.1964 -0.2843 -0.4970
 3204TIP3    H131171   6.169   6.013   7.954  0.2613 -0.4781  2.7240
 3204TIP3    H231172   6.101   5.892   7.893  0.6855  1.6411 -2.4562
 3205TIP3   OH231173   4.567   0.088   7.228  0.0435 -0.9415  0.2889
 3205TIP3    H131174   4.490   0.052   7.185 -0.4527  2.8761 -2.5293
 3205TIP3    H231175   4.641   0.059   7.175 -0.1200  0.1615 -0.5730
 3206TIP3   OH231176   1.049   0.662   8.830  0.2167  0.2242  0.2030
 3206TIP3    H131177   1.140   0.653   8.803 -0.1027  1.1300 -1.2689
 3206TIP3    H231178   1.001   0.598   8.776 -0.1263  0.2860  0.4282
 3207TIP3   OH231179   4.675   1.020   8.280 -0.5224  0.0341 -0.3580
 3207TIP3    H131180   4.678   1.025   8.184  0.1017  0.5579 -0.3128
 3207TIP3    H231181   4.748   1.073   8.310 -0.2787 -0.6936  0.3992
 3208TIP3   OH231182   5.150   4.433   1.164 -0.3222  0.4628  0.0224
 3208TIP3    H131183   5.243   4.420   1.144 -0.6773 -3.3971  0.0149
 3208TIP3    H231184   5.112   4.469   1.084  0.9755  0.9718 -0.3777
 3209TIP3   OH231185   5.141   2.768   0.317 -0.3468 -0.5736 -0.3909
 3209TIP3    H131186   5.174   2.755   0.229  0.2571 -1.6498 -0.0233
 3209TIP3    H231187   5.183   2.700   0.369 -1.0266 -0.2328  0.6431
 3210TIP3   OH231188   1.189   4.212   8.757 -0.2098  0.1481  0.2712
 3210TIP3    H131189   1.208   4.305   8.742 -0.7467 -0.0364 -1.8812
 3210TIP3    H231190   1.100   4.211   8.790 -0.9398  0.3536 -1.5527
 3211TIP3   OH231191   5.071   3.501   8.319 -0.0276 -0.0194  0.3148
 3211TIP3    H131192   5.095   3.409   8.330 -0.9064 -0.4025 -0.7088
 3211TIP3    H231193   4.984   3.508   8.359 -0.5366  0.0317 -0.7583
 3212TIP3   OH231194   2.679   4.716   7.201  0.2546 -0.2211 -0.5602
 3212TIP3    H131195   2.627   4.638   7.182  0.1656  0.1956 -2.1610
 3212TIP3    H231196   2.760   4.681   7.239 -0.9677 -0.8896  1.6349
 3213TIP3   OH231197   4.285   5.077   6.707  0.3494 -0.1872  0.4393
 3213TIP3    H131198   4.192   5.096   6.701  0.6061  1.6318  1.5217
 3213TIP3    H231199   4.318   5.091   6.618 -0.5386 -1.8329 -0.1865
 3214TIP3   OH231200   4.649   3.747   7.825 -0.1897  0.4270 -0.1846
 3214TIP3    H131201   4.579   3.690   7.793 -1.2693 -0.7535  3.7254
 3214TIP3    H231202   4.697   3.693   7.887  1.9321  2.3666 -0.0351
 3215TIP3   OH231203   3.450   2.146   1.969 -0.4504  0.3119  0.3899
 3215TIP3    H131204   3.425   2.120   2.058 -1.2762  0.3133  0.1636
 3215TIP3    H231205   3.468   2.064   1.924 -1.5289  0.2045  0.1271
 3216TIP3   OH231206   2.349   6.170   7.922  0.5929  0.1648 -0.1884
 3216TIP3    H131207   2.398   6.252   7.932 -1.4338  1.4115  0.0791
 3216TIP3    H231208   2.307   6.158   8.007  1.1458 -1.3905 -0.1117
 3217TIP3   OH231209   2.490   6.375   1.612  0.1853 -0.7130 -0.5378
 3217TIP3    H131210   2.571   6.424   1.595 -0.4046 -0.2287 -2.1659
 3217TIP3    H231211   2.420   6.440   1.600 -0.4809 -1.3305 -0.0342
 3218TIP3   OH231212   4.005   2.621   1.638 -0.1541  0.3308  0.0719
 3218TIP3    H131213   4.100   2.611   1.644 -0.0332  0.2445 -1.5676
 3218TIP3    H231214   3.989   2.714   1.658  0.0256 -0.0859  2.4144
 3219TIP3   OH231215   0.117   5.173   1.839  0.4227 -0.1019 -0.4183
 3219TIP3    H131216   0.097   5.085   1.807 -0.2591 -0.1204  0.0217
 3219TIP3    H231217   0.038   5.199   1.887  0.8530  0.5046 -0.0210
 3220TIP3   OH231218   1.078   3.011   8.802  0.6657  0.2170  0.1185
 3220TIP3    H131219   1.139   2.956   8.753 -1.0938 -0.5367 -1.3216
 3220TIP3    H231220   1.049   2.956   8.875  0.4886 -0.0011 -0.1182
 3221TIP3   OH231221   2.329   2.541   8.134 -0.7266  0.2584 -0.1588
 3221TIP3    H131222   2.373   2.494   8.063  0.3158 -1.5392  1.5796
 3221TIP3    H231223   2.370   2.627   8.134 -0.2873  0.0682 -1.3082
 3222TIP3   OH231224   1.391   1.728   6.982  0.1249  0.3128  0.3892
 3222TIP3    H131225   1.367   1.810   6.937 -0.1070  0.1039  0.1266
 3222TIP3    H231226   1.386   1.661   6.913 -0.3949 -0.0372  0.7587
 3223TIP3   OH231227   5.083   6.620   8.411 -0.3854  0.0166 -0.3854
 3223TIP3    H131228   5.078   6.589   8.501  2.8021 -0.2546 -0.1823
 3223TIP3    H231229   5.021   6.565   8.363 -0.4571 -1.4262  1.2536
 3224TIP3   OH231230   6.426   4.249   7.906 -0.0730 -0.0354 -0.3846
 3224TIP3    H131231   6.483   4.292   7.970 -0.0474  1.2853 -1.2394
 3224TIP3    H231232   6.345   4.300   7.908 -0.1404 -0.0897 -1.2485
 3225TIP3   OH231233   1.449   4.458   0.642  0.0177  0.1528 -0.3640
 3225TIP3    H131234   1.471   4.545   0.675  0.5787 -1.4932  4.4328
 3225TIP3    H231235   1.384   4.425   0.704  1.2276 -3.4753 -0.7805
 3226TIP3   OH231236   5.220   4.057   8.281 -0.4408  0.0901  0.3401
 3226TIP3    H131237   5.159   4.072   8.210 -0.0615 -0.5013 -0.1237
 3226TIP3    H231238   5.229   3.962   8.286 -1.0571  0.0681  1.7008
 3227TIP3   OH231239   4.049   4.095   1.068 -0.3117 -0.1588  0.2549
 3227TIP3    H131240   4.113   4.024   1.063 -1.1431 -0.8422 -1.6507
 3227TIP3    H231241   4.098   4.169   1.104  0.6444 -1.5893  2.0453
 3228TIP3   OH231242   5.672   2.940   2.115 -0.2439  0.2907 -0.5810
 3228TIP3    H131243   5.628   2.904   2.192  0.1271 -0.8170 -0.8578
 3228TIP3    H231244   5.612   3.006   2.080 -0.9852 -0.1085 -0.0737
 3229TIP3   OH231245   6.684   6.657   0.459  0.7266 -0.0771 -0.4889
 3229TIP3    H131246   6.649   6.577   0.420 -1.0796  0.8770 -0.9388
 3229TIP3    H231247   6.723   6.629   0.542 -3.3565 -1.0251  1.3544
 3230TIP3   OH231248   1.915   1.179   2.204  0.2496  0.4049  0.0573
 3230TIP3    H131249   2.010   1.175   2.192  0.3326  0.8984  0.5249
 3230TIP3    H231250   1.900   1.262   2.250 -0.5929  1.2860 -1.7298
 3231TIP3   OH231251   5.906   4.671   7.686  0.0343 -0.1891  0.0721
 3231TIP3    H131252   5.948   4.669   7.772  2.4079 -1.1967 -1.0085
 3231TIP3    H231253   5.912   4.580   7.655 -0.5352  0.2187 -1.2747
 3232TIP3   OH231254   4.208   1.243   8.314  0.2808 -0.8484 -0.0399
 3232TIP3    H131255   4.216   1.244   8.409  1.6050 -1.2249 -0.1359
 3232TIP3    H231256   4.254   1.322   8.285  0.0545 -0.8428 -0.3874
 3233TIP3   OH231257   3.398   0.543   0.715 -0.1887  0.2519 -0.3582
 3233TIP3    H131258   3.327   0.523   0.653 -0.0179  0.4202 -0.6086
 3233TIP3    H231259   3.459   0.596   0.665 -0.7692  1.6601  0.3572
 3234TIP3   OH231260   3.183   2.202   8.889  0.1568  0.0402 -0.1921
 3234TIP3    H131261   3.246   2.271   8.871  0.0048 -0.1022 -1.3990
 3234TIP3    H231262   3.119   2.209   8.818 -1.9293  0.9933  1.6594
 3235TIP3   OH231263   2.794   4.296   8.094 -0.5833  0.1958  0.2658
 3235TIP3    H131264   2.793   4.274   8.187  1.5036 -0.8011  0.1132
 3235TIP3    H231265   2.874   4.255   8.060 -1.1077  0.8069 -1.9075
 3236TIP3   OH231266   2.277   3.881   0.720  0.3875 -0.0444  0.2886
 3236TIP3    H131267   2.222   3.894   0.798 -1.3822 -2.3438 -0.4553
 3236TIP3    H231268   2.359   3.844   0.755  0.2331  0.4198  1.1689
 3237TIP3   OH231269   5.493   4.809   7.464 -0.3456  0.1664 -0.4787
 3237TIP3    H131270   5.551   4.886   7.467  0.8594 -0.7236  0.8983
 3237TIP3    H231271   5.532   4.748   7.527 -3.3918 -0.0852  1.3215
 3238TIP3   OH231272   1.082   3.500   8.340 -0.0230 -0.0771 -0.5688
 3238TIP3    H131273   0.991   3.531   8.330  0.1830  0.1319 -2.0520
 3238TIP3    H231274   1.125   3.528   8.259  1.4695  0.1465  0.2713
 3239TIP3   OH231275   0.152   2.068   7.146 -0.4958  0.1854 -0.7884
 3239TIP3    H131276   0.092   2.070   7.221  0.4100  1.2319 -0.0549
 3239TIP3    H231277   0.139   1.982   7.107 -1.9965  0.1459 -0.2621
 3240TIP3   OH231278   4.439   2.021   1.007  0.3830 -0.0133 -0.8347
 3240TIP3    H131279   4.451   2.104   1.052 -1.0618  0.7088 -1.7259
 3240TIP3    H231280   4.521   2.007   0.961  0.4771  1.1455 -1.0395
 3241TIP3   OH231281   3.548   3.819   0.754  0.1774  0.1526  0.1958
 3241TIP3    H131282   3.456   3.842   0.755  0.2881  0.8833 -1.9865
 3241TIP3    H231283   3.556   3.751   0.687  1.2786  0.3588  0.0904
 3242TIP3   OH231284   5.130   2.779   8.427 -0.0054  0.3647  0.7049
 3242TIP3    H131285   5.087   2.803   8.509 -2.0798 -0.1846 -0.1689
 3242TIP3    H231286   5.061   2.740   8.374  1.9846 -2.4781 -0.0307
 3243TIP3   OH231287   3.396   4.848   6.866  0.0312 -0.2114 -0.4651
 3243TIP3    H131288   3.422   4.872   6.955  0.0503  1.2445 -0.8335
 3243TIP3    H231289   3.392   4.932   6.819 -1.6635 -0.7562 -1.3790
 3244TIP3   OH231290   1.249   4.037   7.732 -0.6649 -0.4277 -0.3815
 3244TIP3    H131291   1.174   4.018   7.676 -0.7228 -0.6490 -0.2331
 3244TIP3    H231292   1.293   4.110   7.690 -1.1457 -0.0883 -0.3033
 3245TIP3   OH231293   2.345   2.438   8.407 -0.0890 -0.3220 -0.9320
 3245TIP3    H131294   2.314   2.472   8.324 -0.9435 -1.0070 -0.9095
 3245TIP3    H231295   2.383   2.513   8.452 -3.3704  1.0410 -0.1768
 3246TIP3   OH231296   6.021   0.047   8.246  0.4351 -0.3626  0.6597
 3246TIP3    H131297   6.079   0.080   8.315 -0.6073  0.1237  1.3280
 3246TIP3    H231298   5.966   0.122   8.223  0.9177 -0.4517 -0.8879
 3247TIP3   OH231299   1.370   5.941   1.719 -0.8589  0.5702 -0.3791
 3247TIP3    H131300   1.447   5.955   1.664  0.1312  1.9053  1.2746
 3247TIP3    H231301   1.296   5.952   1.659  0.1691  2.2239 -1.4241
 3248TIP3   OH231302   4.978   2.470   7.274  0.4272 -0.1377 -0.3679
 3248TIP3    H131303   4.990   2.549   7.220 -0.7315  0.6680  0.5000
 3248TIP3    H231304   4.892   2.482   7.315  1.1690 -0.8028  1.4928
 3249TIP3   OH231305   3.634   4.610   0.063  0.2761 -0.1740  0.3298
 3249TIP3    H131306   3.630   4.600  -0.032  1.5598  2.1522 -0.0554
 3249TIP3    H231307   3.720   4.575   0.087  1.0815  1.5901  0.1936
 3250TIP3   OH231308   5.537   4.145   1.063  0.5178  0.0296 -0.0335
 3250TIP3    H131309   5.596   4.164   0.990  0.2769  0.9153 -0.0034
 3250TIP3    H231310   5.451   4.134   1.023  0.6169 -0.8086 -0.0263
 3251TIP3   OH231311   0.920   0.445   8.701  0.0592  0.1540  0.5155
 3251TIP3    H131312   0.842   0.406   8.741 -0.8783  0.5493 -0.8470
 3251TIP3    H231313   0.944   0.385   8.631  0.4177  0.5091  0.3255
 3252TIP3   OH231314   5.719   3.350   6.938  0.5108 -0.7023  0.1363
 3252TIP3    H131315   5.742   3.351   6.845  3.0708 -0.9618  0.7092
 3252TIP3    H231316   5.795   3.386   6.982 -0.8091 -0.2242  2.1455
 3253TIP3   OH231317   1.172   5.715   6.618  0.2076 -0.1352 -0.0314
 3253TIP3    H131318   1.082   5.726   6.648 -0.0095  1.0659 -1.0658
 3253TIP3    H231319   1.166   5.659   6.541  0.2367  0.7193 -0.6608
 3254TIP3   OH231320   1.387   3.453   6.244  0.6594 -0.7288  0.5212
 3254TIP3    H131321   1.461   3.421   6.193  1.0554  0.6608  0.1833
 3254TIP3    H231322   1.417   3.536   6.280 -0.0362 -1.1107  2.0615
 3255TIP3   OH231323   3.706   0.127   0.634  0.3433  0.1930 -0.0834
 3255TIP3    H131324   3.651   0.102   0.707 -0.2926  1.3685 -0.1262
 3255TIP3    H231325   3.672   0.212   0.606  1.0794  0.1454 -1.2283
 3256TIP3   OH231326   4.125   5.404   1.349  0.0296  0.3904  0.4050
 3256TIP3    H131327   4.177   5.439   1.421  0.4055 -0.5956  0.6393
 3256TIP3    H231328   4.185   5.345   1.302 -0.4371  0.4106 -0.2414
 3257TIP3   OH231329   6.006   2.025   2.553  0.5165  0.3730  0.1142
 3257TIP3    H131330   6.078   2.070   2.597  1.4313 -0.8669 -0.0716
 3257TIP3    H231331   6.011   2.056   2.463  0.9942  0.0826  0.0384
 3258TIP3   OH231332   1.232   5.474   8.337  0.2626  0.3066  0.7419
 3258TIP3    H131333   1.165   5.535   8.306  1.1638  1.7333  1.4655
 3258TIP3    H231334   1.217   5.394   8.287 -1.6473  0.7529  0.5397
 3259TIP3   OH231335   4.049   5.888   1.988  0.1440 -0.6866 -0.1434
 3259TIP3    H131336   4.091   5.965   1.949 -0.1589 -0.8128 -0.7446
 3259TIP3    H231337   4.040   5.827   1.915  0.1395 -1.1874  0.2716
 3260TIP3   OH231338   3.973   4.783   7.061 -0.5759  0.1276  0.4929
 3260TIP3    H131339   3.903   4.722   7.039  0.1627 -0.3567 -0.6396
 3260TIP3    H231340   4.048   4.752   7.011  0.1923  1.1863  0.9452
 3261TIP3   OH231341   6.285   3.348   1.275  0.1854  0.2225  0.0939
 3261TIP3    H131342   6.232   3.426   1.293  0.1840  0.4253 -0.7362
 3261TIP3    H231343   6.314   3.359   1.184  2.0927  0.3571  0.6774
 3262TIP3   OH231344   1.560   1.541   8.581  0.0879 -0.5674 -0.1292
 3262TIP3    H131345   1.540   1.523   8.490 -0.4855 -2.1433  0.2739
 3262TIP3    H231346   1.606   1.462   8.611  1.4687  0.4717  0.5950
 3263TIP3   OH231347   4.630   1.282   7.482 -0.4107 -0.0473 -0.0778
 3263TIP3    H131348   4.663   1.348   7.421  0.6444  0.5432  1.0822
 3263TIP3    H231349   4.644   1.199   7.437  0.8531  0.3381 -0.4413
 3264TIP3   OH231350   1.271   3.093   0.202  0.3929  0.4377 -0.1895
 3264TIP3    H131351   1.296   3.050   0.120  0.7450  1.9001 -0.8956
 3264TIP3    H231352   1.318   3.176   0.200 -1.1629  1.3848  0.5127
 3265TIP3   OH231353   3.794   0.158   7.510 -0.1196  0.3596  0.0180
 3265TIP3    H131354   3.796   0.071   7.549 -1.5728 -0.0443 -0.7494
 3265TIP3    H231355   3.887   0.182   7.499  0.3032 -0.5225  1.4175
 3266TIP3   OH231356   4.990   3.770   8.082  0.5022 -0.0337  0.2192
 3266TIP3    H131357   4.988   3.786   8.176  2.1336 -0.4416  0.3459
 3266TIP3    H231358   4.918   3.708   8.067 -0.4250  0.8012  1.0057
 3267TIP3   OH231359   3.840   4.005   7.730 -0.1287 -0.8114 -0.8022
 3267TIP3    H131360   3.781   4.029   7.658 -0.0960  0.6459 -0.3925
 3267TIP3    H231361   3.927   4.026   7.697 -0.2011  1.0220  0.0293
 3268TIP3   OH231362   6.344   4.841   1.167  0.5552 -0.0530  0.2267
 3268TIP3    H131363   6.302   4.908   1.113  0.8984  0.2358  0.3133
 3268TIP3    H231364   6.411   4.888   1.216 -0.5021 -0.1063  1.7808
 3269TIP3   OH231365   3.397   1.540   7.796 -0.1232 -0.7298 -0.1347
 3269TIP3    H131366   3.474   1.566   7.745 -0.7635  1.2649 -0.1690
 3269TIP3    H231367   3.432   1.487   7.867  1.1870 -0.6187 -0.6677
 3270TIP3   OH231368   2.675   3.866   2.355  0.4497 -0.0714  0.0905
 3270TIP3    H131369   2.662   3.960   2.344  1.0220 -0.1667 -1.8705
 3270TIP3    H231370   2.587   3.829   2.363  0.2466  0.6687  1.5607
 3271TIP3   OH231371   5.168   2.940   7.800 -0.4087 -0.2244 -0.1820
 3271TIP3    H131372   5.128   2.963   7.884  1.4030  1.0627  0.3736
 3271TIP3    H231373   5.193   3.023   7.761  0.3275 -0.9031 -1.2197
 3272TIP3   OH231374   6.130   5.835   0.414 -0.7851 -0.3945  1.0299
 3272TIP3    H131375   6.073   5.834   0.338  0.8155  0.6437 -0.2588
 3272TIP3    H231376   6.178   5.752   0.410 -1.4496 -0.8201  1.5526
 3273TIP3   OH231377   4.653   5.852   8.290 -0.0634 -0.7143  0.3925
 3273TIP3    H131378   4.711   5.788   8.249 -2.0622 -1.7475 -1.0152
 3273TIP3    H231379   4.636   5.916   8.221 -0.2621 -0.2013  0.9143
 3274TIP3   OH231380   4.484   4.576   6.939 -0.2526  0.0610 -0.3814
 3274TIP3    H131381   4.534   4.496   6.953 -0.0716 -0.0401 -1.5405
 3274TIP3    H231382   4.528   4.641   6.994 -1.2832 -0.9197  1.7509
 3275TIP3   OH231383   1.335   2.918   7.749  0.0763 -0.0697 -0.2844
 3275TIP3    H131384   1.379   2.855   7.691 -0.8135 -0.2833 -0.7412
 3275TIP3    H231385   1.267   2.956   7.694 -0.2414  0.3344  0.3894
 3276TIP3   OH231386   0.387   5.155   7.031 -0.2925 -0.7989 -0.1030
 3276TIP3    H131387   0.398   5.063   7.006 -0.2283 -0.4088 -1.6015
 3276TIP3    H231388   0.460   5.200   6.989  1.2545 -0.3886  2.7892
 3277TIP3   OH231389   1.476   0.401   7.458  0.4686 -0.0390  0.1764
 3277TIP3    H131390   1.414   0.362   7.396 -0.1213 -0.5490  1.0668
 3277TIP3    H231391   1.432   0.479   7.491  0.8099  0.2704 -0.1005
 3278TIP3   OH231392   4.494   3.715   1.531 -0.4128 -0.0997 -0.0180
 3278TIP3    H131393   4.569   3.682   1.481 -0.7230 -1.0242  0.1123
 3278TIP3    H231394   4.469   3.642   1.587 -0.4153  0.7345  1.1021
 3279TIP3   OH231395   1.279   4.541   1.143  0.0047  0.2264 -0.3056
 3279TIP3    H131396   1.254   4.615   1.198  0.4355 -0.4146  0.7814
 3279TIP3    H231397   1.358   4.506   1.184 -1.6002 -2.4243  0.8158
 3280TIP3   OH231398   6.144   0.988   2.885  0.0868  0.3295 -0.1992
 3280TIP3    H131399   6.200   1.062   2.865  0.1769  0.4155  0.3512
 3280TIP3    H231400   6.165   0.923   2.818  1.3498  0.0996  0.3969
 3281TIP3   OH231401   5.318   0.172   7.760  0.1624  0.4862 -0.3206
 3281TIP3    H131402   5.410   0.178   7.785 -0.2114  1.5557  0.8958
 3281TIP3    H231403   5.270   0.204   7.836 -1.3701 -2.3362  0.0289
 3282TIP3   OH231404   2.120   4.232   0.882  0.2139 -0.0230  0.1427
 3282TIP3    H131405   2.148   4.144   0.909 -0.3347 -0.2534 -0.0449
 3282TIP3    H231406   2.137   4.287   0.960 -1.4501 -0.7061  1.0215
 3283TIP3   OH231407   2.340   3.876   2.070  0.2225 -0.2108 -0.3004
 3283TIP3    H131408   2.276   3.808   2.048  0.4543 -0.5649  0.0961
 3283TIP3    H231409   2.307   3.915   2.151  0.6931 -0.6433  0.1073
 3284TIP3   OH231410   0.281   3.132   7.306  0.0522 -0.8054  0.1747
 3284TIP3    H131411   0.212   3.116   7.241 -0.5130 -2.3712  1.0952
 3284TIP3    H231412   0.356   3.162   7.255 -0.5613 -1.4329 -1.1384
 3285TIP3   OH231413   0.123   4.347   8.376  0.1714  0.0415  0.0449
 3285TIP3    H131414   0.173   4.277   8.419  0.0480 -0.0676  0.0138
 3285TIP3    H231415   0.134   4.331   8.283  1.0066  0.6855  0.0207
 3286TIP3   OH231416   0.816   2.942   0.354 -0.3585 -0.4406  0.0134
 3286TIP3    H131417   0.911   2.954   0.356 -0.3221 -0.8259  1.7854
 3286TIP3    H231418   0.783   2.997   0.425 -1.3724 -1.0309  0.0251
 3287TIP3   OH231419   0.794   1.184   6.281  0.0386  0.6166 -0.2231
 3287TIP3    H131420   0.862   1.117   6.286  0.5377  1.1329 -0.0095
 3287TIP3    H231421   0.841   1.267   6.294 -0.5460  1.0193 -0.6412
 3288TIP3   OH231422   4.954   4.806   0.468 -0.0240  0.3712 -0.2770
 3288TIP3    H131423   4.977   4.751   0.393  1.2334  0.4558  0.0311
 3288TIP3    H231424   4.879   4.762   0.508 -0.0881 -0.2068 -1.0059
 3289TIP3   OH231425   3.886   3.468   8.782 -0.3029 -0.3344  0.2224
 3289TIP3    H131426   3.807   3.498   8.826 -0.0337  1.0531 -0.2027
 3289TIP3    H231427   3.957   3.487   8.843 -0.0258  0.8082 -0.4239
 3290TIP3   OH231428   3.431   0.077   6.803 -0.1968  0.1548 -0.6306
 3290TIP3    H131429   3.516   0.095   6.844 -0.1926 -0.7237 -0.2304
 3290TIP3    H231430   3.435   0.121   6.719  0.5268  0.4067 -0.4682
 3291TIP3   OH231431   5.165   2.153   1.869  0.2926  0.1433  0.3621
 3291TIP3    H131432   5.148   2.169   1.962 -1.2598 -0.4376  0.2113
 3291TIP3    H231433   5.213   2.070   1.868  1.1346  0.6115  0.6754
 3292TIP3   OH231434   2.839   1.060   1.546 -0.5634 -0.7085 -0.0027
 3292TIP3    H131435   2.917   1.098   1.585 -0.7400 -2.2844  2.0415
 3292TIP3    H231436   2.819   1.117   1.471  2.1062  0.1246 -0.1664
 3293TIP3   OH231437   4.486   0.061   6.397 -0.2226  0.2072 -0.1684
 3293TIP3    H131438   4.419   0.007   6.439 -1.0786  0.2219 -1.4456
 3293TIP3    H231439   4.526   0.003   6.332  1.5788 -0.0327  1.1046
 3294TIP3   OH231440   4.149   5.009   7.613 -0.2094  0.3335 -0.2248
 3294TIP3    H131441   4.069   5.052   7.583 -0.5292  0.0248  0.1790
 3294TIP3    H231442   4.175   5.058   7.691 -0.1639  0.2551 -0.1903
 3295TIP3   OH231443   6.513   3.157   0.887 -0.4742 -0.6854 -0.9301
 3295TIP3    H131444   6.430   3.151   0.841 -1.2756  1.5464  0.0330
 3295TIP3    H231445   6.571   3.204   0.827 -1.7091  2.8000  0.3390
 3296TIP3   OH231446   1.242   6.721   0.297 -0.1259 -0.3522 -0.6736
 3296TIP3    H131447   1.209   6.732   0.386  1.6549 -0.4720  0.0354
 3296TIP3    H231448   1.179   6.769   0.242 -1.3971 -0.5189  0.5936
 3297TIP3   OH231449   3.999   3.927   1.752  0.3454 -0.4183  0.5747
 3297TIP3    H131450   4.003   3.925   1.657  0.8352  1.0982  0.5350
 3297TIP3    H231451   4.085   3.961   1.779 -0.6219  1.4902  1.4123
 3298TIP3   OH231452   5.263   1.098   1.597  0.1285  0.4398  0.2299
 3298TIP3    H131453   5.319   1.122   1.670 -1.5596 -1.2901  2.2434
 3298TIP3    H231454   5.190   1.160   1.601 -0.2348  0.0110  0.3765
 3299TIP3   OH231455   2.641   4.523   0.982  0.1218  0.2773 -0.4268
 3299TIP3    H131456   2.622   4.431   0.998 -0.8820  0.5640  0.1398
 3299TIP3    H231457   2.700   4.523   0.907 -0.3909 -0.7964 -0.8474
 3300TIP3   OH231458   2.421   4.449   0.056 -0.1249  0.1960 -0.3568
 3300TIP3    H131459   2.349   4.390   0.080  0.0194 -0.0325 -0.4750
 3300TIP3    H231460   2.419   4.451  -0.040 -0.1967  0.4688 -0.3486
 3301TIP3   OH231461   4.611   4.729   0.826 -0.0026 -0.4562  0.2666
 3301TIP3    H131462   4.652   4.705   0.743  0.6857  1.3394  0.0442
 3301TIP3    H231463   4.682   4.722   0.891  0.4926  1.7132  0.0413
 3302TIP3   OH231464   3.700   4.748   8.343 -0.0505  0.3548 -0.1990
 3302TIP3    H131465   3.691   4.664   8.298 -0.6316  0.7094 -0.7758
 3302TIP3    H231466   3.644   4.740   8.420  1.7927 -0.6449  1.0886
 3303TIP3   OH231467   6.566   6.669   8.825  0.1668 -0.2887  0.0479
 3303TIP3    H131468   6.550   6.762   8.844  0.6294 -0.0192 -0.8065
 3303TIP3    H231469   6.538   6.659   8.733  0.4362 -0.9158  0.0298
 3304TIP3   OH231470   1.814   0.511   1.099 -0.4514  0.1825  0.2690
 3304TIP3    H131471   1.850   0.444   1.041 -2.2365  0.3593 -1.1300
 3304TIP3    H231472   1.768   0.462   1.167  0.4263 -0.0203  0.7216
 3305TIP3   OH231473   4.244   3.480   8.703  0.3816 -0.8647 -0.3541
 3305TIP3    H131474   4.298   3.495   8.780 -0.2940 -1.5773  0.2707
 3305TIP3    H231475   4.282   3.537   8.636  2.4733 -2.0281 -0.2271
 3306TIP3   OH231476   5.619   3.760   1.349 -0.2317 -0.1663  0.3861
 3306TIP3    H131477   5.651   3.672   1.368 -1.5850 -0.2587  2.5484
 3306TIP3    H231478   5.551   3.746   1.283  1.6237 -0.3368 -1.5936
 3307TIP3   OH231479   5.387   4.165   2.105  0.5642  0.1274  0.3447
 3307TIP3    H131480   5.337   4.111   2.166  2.0659 -2.5636 -0.6345
 3307TIP3    H231481   5.439   4.223   2.161 -0.0164 -0.4425  1.5018
 3308TIP3   OH231482   4.037   4.853   0.824 -0.4388  0.2800  0.1966
 3308TIP3    H131483   3.998   4.786   0.881 -0.0206 -0.7877 -0.7346
 3308TIP3    H231484   3.994   4.840   0.740  1.0089 -0.1138 -0.5151
 3309TIP3   OH231485   2.092   4.005   7.899 -0.5416 -0.5363  0.0290
 3309TIP3    H131486   2.071   4.091   7.937 -1.2091  0.2795 -2.0517
 3309TIP3    H231487   2.120   3.952   7.974  1.1962  1.8602  1.2168
 3310TIP3   OH231488   0.616   6.158   1.882 -0.2342 -0.6590 -0.7593
 3310TIP3    H131489   0.678   6.124   1.818  1.1544 -0.0978  0.2318
 3310TIP3    H231490   0.668   6.171   1.961 -1.2121  1.5650 -0.4051
 3311TIP3   OH231491   4.511   4.939   8.051  0.2960 -0.2083  0.1338
 3311TIP3    H131492   4.542   4.871   8.111  0.4223 -0.2145  0.0614
 3311TIP3    H231493   4.480   4.891   7.974 -0.1275 -0.2182  0.3048
 3312TIP3   OH231494   2.547   6.174   8.502  0.2702 -0.2279 -0.2799
 3312TIP3    H131495   2.595   6.183   8.419  0.9497  0.6605  0.1921
 3312TIP3    H231496   2.543   6.263   8.537  1.0074 -0.7428  1.1999
 3313TIP3   OH231497   1.855   3.235   7.457 -0.0245 -0.9631 -0.7156
 3313TIP3    H131498   1.831   3.320   7.494  1.1000 -0.4860 -1.0703
 3313TIP3    H231499   1.945   3.221   7.483  0.3271 -1.2992 -2.0131
 3314TIP3   OH231500   1.939   4.550   8.187 -0.2319  0.3552  0.3162
 3314TIP3    H131501   1.911   4.482   8.249 -0.4130 -0.8244 -0.9832
 3314TIP3    H231502   2.009   4.508   8.137 -0.6472  0.9803 -0.8125
 3315TIP3   OH231503   2.803   4.817   7.898  0.0204  0.5704 -0.4420
 3315TIP3    H131504   2.775   4.907   7.883  0.5859  0.9831  0.8908
 3315TIP3    H231505   2.750   4.766   7.836 -1.8598  1.5751  0.2280
 3316TIP3   OH231506   5.977   3.865   7.137 -0.7372  0.2560 -0.1727
 3316TIP3    H131507   6.055   3.816   7.164 -1.1666  0.4583  1.5733
 3316TIP3    H231508   6.009   3.954   7.123 -0.5564  0.2187 -0.0133
 3317TIP3   OH231509   3.221   0.025   2.044  0.0875 -0.0243  0.1841
 3317TIP3    H131510   3.302   0.038   2.093 -0.3888  1.5191  0.6302
 3317TIP3    H231511   3.168  -0.033   2.098 -0.6480  2.0734  1.8374
 3318TIP3   OH231512   1.545   3.866   1.436  0.3149  0.1881 -0.0151
 3318TIP3    H131513   1.483   3.831   1.372  1.3878 -0.9482 -0.4846
 3318TIP3    H231514   1.492   3.887   1.512 -0.8717  0.7804 -0.9765
 3319TIP3   OH231515   1.227   3.314   6.418  0.4397  0.4139  0.2949
 3319TIP3    H131516   1.290   3.342   6.351 -0.2276 -0.5417 -0.7756
 3319TIP3    H231517   1.141   3.330   6.377 -0.0131 -3.3891 -0.5767
 3320TIP3   OH231518   0.247   5.128   8.142  1.2041 -0.7586 -0.7283
 3320TIP3    H131519   0.245   5.057   8.206  1.4834 -0.5442 -0.4790
 3320TIP3    H231520   0.339   5.155   8.139  1.0349 -0.1603 -0.5517
 3321TIP3   OH231521   3.623   5.120   0.702 -0.3213 -0.3696  0.2720
 3321TIP3    H131522   3.581   5.185   0.758 -0.4477 -0.8292  0.7222
 3321TIP3    H231523   3.553   5.085   0.648 -0.4632 -0.8773  0.7702
 3322TIP3   OH231524   5.796   5.979   7.979 -0.8797  0.4544  0.5498
 3322TIP3    H131525   5.713   5.969   8.026 -1.0856 -0.2778  0.0575
 3322TIP3    H231526   5.775   5.955   7.889 -0.4079  1.4854  0.1485
 3323TIP3   OH231527   6.002   4.606   8.284 -0.1443 -0.4489 -0.6486
 3323TIP3    H131528   5.982   4.606   8.378 -0.8418 -0.4407 -0.7931
 3323TIP3    H231529   6.059   4.681   8.271  1.9766 -1.8350  0.1852
 3324TIP3   OH231530   4.273   0.261   8.830 -0.8373  0.3880  0.4613
 3324TIP3    H131531   4.182   0.265   8.858 -1.6096 -0.0620 -1.7513
 3324TIP3    H231532   4.317   0.207   8.896 -2.4101 -0.3113  0.9786
 3325TIP3   OH231533   3.319   2.482   0.984  0.7396 -0.0324  0.6044
 3325TIP3    H131534   3.333   2.407   1.042  2.4566  0.3962  0.7804
 3325TIP3    H231535   3.406   2.506   0.953  0.1851  1.6418  0.2304
 3326TIP3   OH231536   3.228   5.322   8.673  0.1849  0.7126  0.4189
 3326TIP3    H131537   3.199   5.273   8.596 -2.2771  0.1567  1.6036
 3326TIP3    H231538   3.275   5.397   8.637 -0.5795  0.2829 -1.6175
 3327TIP3   OH231539   5.715   2.384   0.697  0.0100 -0.4931 -0.0156
 3327TIP3    H131540   5.736   2.477   0.707  0.7371 -0.6699  0.1888
 3327TIP3    H231541   5.726   2.348   0.785  1.6359 -1.1272 -0.4360
 3328TIP3   OH231542   5.027   5.295   7.998  0.5929  0.5614 -0.0593
 3328TIP3    H131543   5.026   5.240   8.075  0.9598  2.4477  1.3801
 3328TIP3    H231544   4.936   5.326   7.989 -0.1031 -1.8040 -2.1085
 3329TIP3   OH231545   6.138   0.400   8.447 -0.2988 -0.0305  0.1198
 3329TIP3    H131546   6.085   0.473   8.477 -1.0214 -0.5020  0.0275
 3329TIP3    H231547   6.114   0.390   8.354 -1.7013 -1.6100  0.6061
 3330TIP3   OH231548   1.509   3.348   1.531  0.0505 -0.3215  0.3258
 3330TIP3    H131549   1.520   3.430   1.482  0.1818 -0.6845 -0.2660
 3330TIP3    H231550   1.417   3.327   1.522  0.0335 -0.2839  0.4091
 3331TIP3   OH231551   3.942   1.167   1.429  0.1156  0.1690 -0.4629
 3331TIP3    H131552   3.922   1.259   1.416 -2.1811 -0.0838  0.7225
 3331TIP3    H231553   3.878   1.137   1.494  0.7460 -2.2724 -0.8412
 3332TIP3   OH231554   1.503   6.513   2.072  0.6451  0.1106  0.2207
 3332TIP3    H131555   1.530   6.478   1.987  3.3869 -0.6305  1.2729
 3332TIP3    H231556   1.473   6.602   2.053  0.8945 -0.1496 -1.5662
 3333TIP3   OH231557   5.491   4.557   8.283  0.4196 -0.0247  0.4116
 3333TIP3    H131558   5.583   4.560   8.255 -0.5617  1.7129 -3.2275
 3333TIP3    H231559   5.469   4.464   8.281  1.3128 -0.2709 -1.9752
 3334TIP3   OH231560   4.603   0.244   1.633  0.4648  0.3424  0.1386
 3334TIP3    H131561   4.511   0.249   1.658  0.5291  1.7972  0.1665
 3334TIP3    H231562   4.610   0.163   1.583 -0.6085 -0.3117  0.9958
 3335TIP3   OH231563   3.587   5.711   8.462  0.9620  0.0985  0.1120
 3335TIP3    H131564   3.614   5.780   8.400  1.7189  0.7514  1.1265
 3335TIP3    H231565   3.601   5.750   8.548  1.2096 -1.2680  0.7159
 3336TIP3   OH231566   5.175   6.488   7.725  0.7678 -0.1458 -0.7982
 3336TIP3    H131567   5.127   6.437   7.791  1.1226  0.9800  0.3909
 3336TIP3    H231568   5.115   6.559   7.703  1.7049  1.1240  0.5054
 3337TIP3   OH231569   5.383   1.666   1.968 -0.1734  0.8555 -0.0632
 3337TIP3    H131570   5.345   1.586   1.933  1.6388 -1.6675  3.1956
 3337TIP3    H231571   5.332   1.685   2.046  1.0421  1.3287  0.6403
 3338TIP3   OH231572   4.270   4.275   0.748 -0.2825  0.1493  0.0535
 3338TIP3    H131573   4.346   4.218   0.746  0.5344  1.1571 -2.2101
 3338TIP3    H231574   4.295   4.347   0.806 -0.0836 -0.2556  0.4671
 3339TIP3   OH231575   2.334   5.731   8.952 -0.3560 -0.0121 -0.2880
 3339TIP3    H131576   2.332   5.803   8.890  0.4280 -1.3442 -1.9149
 3339TIP3    H231577   2.270   5.669   8.918 -1.3208  0.0423  1.3179
 3340TIP3   OH231578   1.368   5.083   6.850 -0.6016  0.0275  0.1775
 3340TIP3    H131579   1.452   5.122   6.825 -1.1318  0.3196 -1.2263
 3340TIP3    H231580   1.314   5.091   6.772 -1.7137 -0.8051  0.8393
 3341TIP3   OH231581   4.411   0.842   8.344  0.1202 -0.5214 -0.2102
 3341TIP3    H131582   4.368   0.870   8.263 -0.0296  0.4869  0.2080
 3341TIP3    H231583   4.366   0.762   8.369 -2.0967  0.9180  0.6519
 3342TIP3   OH231584   5.629   2.111   8.115  0.5013 -0.2778  0.5683
 3342TIP3    H131585   5.579   2.148   8.188  2.2136 -0.0196  1.6727
 3342TIP3    H231586   5.689   2.181   8.089 -1.9965  0.8192 -3.2215
 3343TIP3   OH231587   5.924   3.495   0.568 -0.3022 -0.7752 -0.3109
 3343TIP3    H131588   5.917   3.493   0.472  2.3727  0.4336 -0.6403
 3343TIP3    H231589   5.969   3.414   0.590 -1.6408 -1.4375  0.0411
 3344TIP3   OH231590   1.778   6.036   7.039 -0.1100  0.0483 -0.0252
 3344TIP3    H131591   1.834   5.969   7.000 -1.2065 -1.1895  0.4465
 3344TIP3    H231592   1.794   6.114   6.987  1.8101 -0.3443 -0.0872
 3345TIP3   OH231593   2.586   1.415   2.345 -0.5222 -0.1171 -0.2183
 3345TIP3    H131594   2.633   1.409   2.428  0.7663 -1.9917 -0.9882
 3345TIP3    H231595   2.494   1.400   2.367 -0.3086  0.2162  0.9400
 3346TIP3   OH231596   2.511   4.934   7.574  0.0815  0.6012 -0.6481
 3346TIP3    H131597   2.475   4.994   7.640 -0.2412  2.4523 -2.3959
 3346TIP3    H231598   2.506   4.848   7.615 -1.3198  1.4869  1.2255
 3347TIP3   OH231599   5.930   0.873   2.003  0.4818 -0.2962  0.3443
 3347TIP3    H131600   5.855   0.930   1.988 -0.5524 -1.8779 -0.8257
 3347TIP3    H231601   5.998   0.931   2.037 -1.0351  1.3074  0.7700
 3348TIP3   OH231602   2.772   6.047   2.446  0.8108 -0.6698  0.1706
 3348TIP3    H131603   2.816   6.111   2.390  0.2419 -0.4943 -0.0771
 3348TIP3    H231604   2.808   6.064   2.533  0.8254 -0.1501  0.0693
 3349TIP3   OH231605   3.293   0.727   1.998  0.4609  0.1539 -0.4566
 3349TIP3    H131606   3.289   0.647   1.945 -1.6761  1.2837 -2.2202
 3349TIP3    H231607   3.382   0.730   2.031  0.2192 -3.7463  1.0537
 3350TIP3   OH231608   1.236   4.092   1.826  0.7628 -0.6747  0.3344
 3350TIP3    H131609   1.166   4.070   1.887  0.6483 -0.3704  0.3121
 3350TIP3    H231610   1.284   4.163   1.868  0.1799  0.1063 -0.3014
 3351TIP3   OH231611   3.914   3.357   2.359 -0.6336 -0.2043 -0.0098
 3351TIP3    H131612   3.964   3.315   2.430 -0.1957 -0.4240 -0.4466
 3351TIP3    H231613   3.870   3.285   2.315 -2.7981  0.1280  1.4507
 3352TIP3   OH231614   4.567   3.159   1.536  0.1786 -0.0888  0.2832
 3352TIP3    H131615   4.554   3.220   1.463 -3.2501 -1.0635 -0.1267
 3352TIP3    H231616   4.589   3.076   1.494  1.3539  0.0500  0.6044
 3353TIP3   OH231617   2.221   4.415   1.084  0.1948  0.1626  0.3653
 3353TIP3    H131618   2.166   4.481   1.042 -0.4134  0.3754  1.4554
 3353TIP3    H231619   2.292   4.464   1.125  2.3197 -0.2275 -2.5136
 3354TIP3   OH231620   3.353   2.433   7.508 -0.5149 -0.3192 -0.6969
 3354TIP3    H131621   3.408   2.386   7.446 -0.3558 -0.3382 -0.5416
 3354TIP3    H231622   3.278   2.376   7.522  0.6710 -1.5376  1.1378
 3355TIP3   OH231623   6.417   0.820   8.072 -0.2754  0.4729  0.3505
 3355TIP3    H131624   6.359   0.815   7.996 -0.0816 -2.5952  0.2884
 3355TIP3    H231625   6.363   0.793   8.146  0.7513 -1.3913  0.4608
 3356TIP3   OH231626   3.783   2.896   6.605 -0.0437  0.1356 -0.3480
 3356TIP3    H131627   3.695   2.928   6.583  0.0346  0.1505 -0.6393
 3356TIP3    H231628   3.839   2.974   6.598 -0.2467  0.4725  1.3162
 3357TIP3   OH231629   0.771   1.731   7.968  0.2330 -0.4146 -0.1425
 3357TIP3    H131630   0.820   1.740   7.887  0.8929 -0.1681  0.2676
 3357TIP3    H231631   0.751   1.638   7.974 -2.1387 -0.0971 -1.8791
 3358TIP3   OH231632   6.250   2.829   1.604 -0.1518  0.4231 -0.0687
 3358TIP3    H131633   6.296   2.846   1.686 -1.3158 -2.1868  1.2334
 3358TIP3    H231634   6.171   2.883   1.609  1.1079  2.5064 -0.9083
 3359TIP3   OH231635   2.408   1.388   8.586  0.4391 -0.0515 -0.0552
 3359TIP3    H131636   2.369   1.474   8.601  0.6011 -0.0221  0.1943
 3359TIP3    H231637   2.334   1.327   8.584  0.2429  0.2031 -1.0731
 3360TIP3   OH231638   3.901   1.949   8.097  0.3768 -0.2939  0.7309
 3360TIP3    H131639   3.912   1.894   8.175  0.1200 -0.9000  0.3489
 3360TIP3    H231640   3.833   2.012   8.121  0.2224 -0.5479  0.9615
 3361TIP3   OH231641   5.235   2.232   1.221  0.0015 -0.1261  0.1372
 3361TIP3    H131642   5.146   2.220   1.256 -0.1487  1.7273  0.4930
 3361TIP3    H231643   5.286   2.265   1.295  0.9882 -1.0628 -0.0986
 3362TIP3   OH231644   2.195   4.232   1.619 -0.5290  0.4895  0.0678
 3362TIP3    H131645   2.133   4.164   1.645  0.3437  0.1857  1.4891
 3362TIP3    H231646   2.253   4.190   1.556 -0.5749  0.1973  0.2198
 3363TIP3   OH231647   0.774   4.242   8.496  0.2550 -0.8923  0.0068
 3363TIP3    H131648   0.761   4.306   8.566 -0.8475  0.5501 -1.4320
 3363TIP3    H231649   0.746   4.159   8.534  0.5809 -0.3313  1.5493
 3364TIP3   OH231650   1.285   4.870   0.842 -0.1235 -0.6391 -0.0816
 3364TIP3    H131651   1.266   4.833   0.756 -1.4989 -0.1881  0.0014
 3364TIP3    H231652   1.317   4.958   0.825 -1.8815  0.0387 -0.1217
 3365TIP3   OH231653   2.420   1.918   7.151 -0.0265  0.0874 -0.1697
 3365TIP3    H131654   2.516   1.910   7.145 -0.0780 -1.0006  0.3565
 3365TIP3    H231655   2.398   1.982   7.083  1.0290  0.0102 -0.6117
 3366TIP3   OH231656   5.787   4.734   0.066  0.1834  0.0229  0.4217
 3366TIP3    H131657   5.832   4.819   0.068 -0.7599  0.5308  0.7085
 3366TIP3    H231658   5.829   4.683   0.134  1.3828 -0.0752 -0.3663
 3367TIP3   OH231659   1.695   4.454   0.529 -0.0325 -0.7215  0.0384
 3367TIP3    H131660   1.693   4.361   0.506  0.0086 -1.4003  2.4936
 3367TIP3    H231661   1.634   4.461   0.603 -0.4896  1.3293 -0.4975
 3368TIP3   OH231662   3.064   2.255   7.681  0.7070  0.3429 -0.2498
 3368TIP3    H131663   2.980   2.239   7.724  0.7634  0.8669  0.0654
 3368TIP3    H231664   3.120   2.183   7.711 -0.1142 -1.0341 -1.8464
 3369TIP3   OH231665   1.849   1.378   1.702  0.2942 -0.0205  0.0889
 3369TIP3    H131666   1.928   1.428   1.719  0.8374 -0.9985  0.5755
 3369TIP3    H231667   1.797   1.387   1.783 -0.6754  1.5943 -0.6604
 3370TIP3   OH231668   1.835   1.012   8.009 -0.2268  0.6780 -0.3327
 3370TIP3    H131669   1.863   1.050   7.926 -0.7815  0.5794 -0.5716
 3370TIP3    H231670   1.744   0.985   7.993 -0.1797  0.2195  0.1555
 3371TIP3   OH231671   5.049   1.308   1.251 -0.0591 -0.7497  0.4218
 3371TIP3    H131672   5.116   1.246   1.279  1.4234  0.6257  0.0961
 3371TIP3    H231673   5.032   1.362   1.329  1.1700  0.5486 -0.1487
 3372TIP3   OH231674   5.292   3.000   8.411 -0.4676 -0.1038  0.4005
 3372TIP3    H131675   5.232   2.927   8.397  0.6198 -1.0077  0.3546
 3372TIP3    H231676   5.258   3.044   8.489 -0.8447 -0.9700  0.7324
 3373TIP3   OH231677   2.881   5.845   1.760 -0.7797  0.6790 -0.4184
 3373TIP3    H131678   2.818   5.773   1.762 -0.8990  0.7502 -1.1282
 3373TIP3    H231679   2.919   5.847   1.848 -1.5496  0.4409 -0.0721
 3374TIP3   OH231680   4.419   1.988   6.975 -0.0374  0.2267 -0.0960
 3374TIP3    H131681   4.420   1.913   6.916  0.4386 -0.3539  0.6318
 3374TIP3    H231682   4.330   1.988   7.012 -0.1382  0.2226 -0.3326
 3375TIP3   OH231683   2.000   1.786   6.547 -0.3246  0.0806 -0.3066
 3375TIP3    H131684   1.943   1.748   6.614 -0.5935  0.4078 -0.3518
 3375TIP3    H231685   1.985   1.880   6.551  0.3512  0.1919 -0.1908
 3376TIP3   OH231686   5.945   1.300   0.083 -0.1489  0.0297  0.4968
 3376TIP3    H131687   6.001   1.232   0.121 -0.0819  0.1444  0.6036
 3376TIP3    H231688   5.868   1.303   0.140  0.2250  0.6225  0.9774
 3377TIP3   OH231689   5.501   0.598   0.687  0.1064  0.0750 -0.1326
 3377TIP3    H131690   5.513   0.601   0.592  2.5923  2.0118  0.1523
 3377TIP3    H231691   5.546   0.517   0.714  2.0224  0.9887 -0.3934
 3378TIP3   OH231692   2.342   0.965   8.417  0.3838  0.3279 -0.1454
 3378TIP3    H131693   2.262   0.914   8.411  0.2328  0.5039  0.3460
 3378TIP3    H231694   2.380   0.941   8.501  1.6683 -0.9330 -1.0477
 3379TIP3   OH231695   0.413   1.488   0.727 -0.6635 -0.2820 -0.2286
 3379TIP3    H131696   0.491   1.436   0.709 -0.3629  0.0359  0.1339
 3379TIP3    H231697   0.358   1.476   0.650  0.9587  1.7704 -1.8129
 3380TIP3   OH231698   2.688   6.191   1.599 -0.6330  0.4850  0.1983
 3380TIP3    H131699   2.611   6.248   1.600 -0.8450  0.3624 -2.3371
 3380TIP3    H231700   2.699   6.168   1.506 -0.0521 -2.8987  0.9702
 3381TIP3   OH231701   2.671   4.230   7.190  0.4608 -0.4554 -0.8154
 3381TIP3    H131702   2.737   4.254   7.126 -0.6397  2.9383 -0.9039
 3381TIP3    H231703   2.601   4.190   7.139  0.9126 -0.6725 -1.2683
 3382TIP3   OH231704   4.795   1.965   8.954 -0.3859 -0.2132 -0.2249
 3382TIP3    H131705   4.853   2.003   8.888 -1.0186  0.7086 -0.2645
 3382TIP3    H231706   4.842   1.887   8.985  1.2953  0.9933  0.3993
 3383TIP3   OH231707   6.276   0.468   1.271  0.3951 -0.6968 -0.7161
 3383TIP3    H131708   6.278   0.381   1.229  2.2706  0.6549 -3.7817
 3383TIP3    H231709   6.318   0.526   1.208 -1.2293  2.6123  0.9839
 3384TIP3   OH231710   5.575   3.433   1.562  0.4655  0.0045 -0.2594
 3384TIP3    H131711   5.499   3.489   1.545  2.1327  2.0110 -1.6908
 3384TIP3    H231712   5.609   3.463   1.646  1.0481  0.8398 -0.7746
 3385TIP3   OH231713   4.516   1.926   7.668 -0.3753  0.0570 -0.2355
 3385TIP3    H131714   4.524   1.890   7.580 -0.8737  1.6784 -0.9739
 3385TIP3    H231715   4.593   1.981   7.680  0.6618 -1.5680  1.0929
 3386TIP3   OH231716   5.721   5.424   7.980 -0.3583  0.5830 -0.3815
 3386TIP3    H131717   5.648   5.458   8.031 -0.0657  1.2666 -0.4086
 3386TIP3    H231718   5.702   5.450   7.890 -0.9992 -0.8352 -0.6713
 3387TIP3   OH231719   0.568   0.886   0.121 -0.1061  0.1445 -0.5153
 3387TIP3    H131720   0.475   0.886   0.095 -0.7201 -0.8681  1.5028
 3387TIP3    H231721   0.596   0.976   0.106 -1.8466  0.8626  0.2035
 3388TIP3   OH231722   1.525   4.448   8.548 -0.3066  0.4553  0.0590
 3388TIP3    H131723   1.519   4.431   8.642 -0.9338  0.1100 -0.0354
 3388TIP3    H231724   1.547   4.363   8.510 -0.3239  0.5355 -0.1291
 3389TIP3   OH231725   1.815   3.640   1.312 -0.1653 -0.3229  0.3836
 3389TIP3    H131726   1.873   3.712   1.286 -1.4529  0.1278 -1.4123
 3389TIP3    H231727   1.784   3.665   1.400  1.5990 -0.1417  1.0037
 3390TIP3   OH231728   1.297   5.399   7.848 -0.5096 -0.0252 -1.2481
 3390TIP3    H131729   1.286   5.482   7.800  0.4919  0.0623 -1.3574
 3390TIP3    H231730   1.314   5.334   7.780  2.0910  0.3044 -1.0174
 3391TIP3   OH231731   5.800   4.982   0.917 -0.2351  0.2960  0.1679
 3391TIP3    H131732   5.834   4.973   0.828 -0.1019 -1.5902  0.3603
 3391TIP3    H231733   5.729   4.917   0.922 -1.7134  1.8844  0.7870
 3392TIP3   OH231734   2.936   6.277   7.688 -0.0136  0.1375 -0.8796
 3392TIP3    H131735   2.864   6.339   7.679 -0.8868 -0.7531 -0.2219
 3392TIP3    H231736   2.965   6.260   7.598  0.7988  2.0832 -1.0408
 3393TIP3   OH231737   5.917   6.169   2.046  0.3540 -0.2068  0.3567
 3393TIP3    H131738   5.822   6.178   2.038  0.2396  0.2833  1.9389
 3393TIP3    H231739   5.937   6.202   2.133  2.0371  0.0783 -0.0975
 3394TIP3   OH231740   5.263   1.906   1.836  0.0564  0.1310 -0.1623
 3394TIP3    H131741   5.288   1.896   1.744 -0.2571 -1.7962 -0.0883
 3394TIP3    H231742   5.314   1.838   1.881  1.0326  1.7547  1.2773
 3395TIP3   OH231743   3.296   0.982   7.256 -0.2610 -0.9683  0.1037
 3395TIP3    H131744   3.343   1.063   7.273 -1.9731 -0.1906  1.3423
 3395TIP3    H231745   3.334   0.918   7.316 -0.3346 -0.5259  0.6178
 3396TIP3   OH231746   5.646   0.215   8.854  0.0011 -0.8474  0.7316
 3396TIP3    H131747   5.632   0.170   8.771  1.6757 -0.2276  0.0539
 3396TIP3    H231748   5.652   0.308   8.831  0.2412 -0.6379  1.5661
 3397TIP3   OH231749   2.557   6.289   6.855  0.3078 -0.0355 -0.0669
 3397TIP3    H131750   2.525   6.200   6.845  2.4423 -0.8447 -0.2690
 3397TIP3    H231751   2.623   6.298   6.786 -1.5594  2.5709 -1.6687
 3398TIP3   OH231752   0.569   1.927   1.598  0.2477  0.0967  0.0005
 3398TIP3    H131753   0.542   1.849   1.647 -0.6407  0.2168 -0.2732
 3398TIP3    H231754   0.611   1.984   1.662  1.9950 -1.0867 -0.0077
 3399TIP3   OH231755   4.752   2.898   1.647 -0.4040 -0.3350 -0.3812
 3399TIP3    H131756   4.794   2.834   1.705  0.8117  1.2234  0.5673
 3399TIP3    H231757   4.675   2.927   1.696 -0.5672 -0.5678 -0.5002
 3400TIP3   OH231758   4.738   1.847   8.344 -0.0018  0.7221  1.0628
 3400TIP3    H131759   4.799   1.811   8.409  1.0810 -1.6753 -1.0875
 3400TIP3    H231760   4.794   1.869   8.269 -1.3430  2.2050  0.4470
 3401TIP3   OH231761   1.835   4.590   6.551 -0.4721  0.4478 -0.1750
 3401TIP3    H131762   1.769   4.591   6.481 -1.0136  2.7791  0.2587
 3401TIP3    H231763   1.786   4.567   6.630 -0.0869 -1.0533 -0.3559
 3402TIP3   OH231764   5.191   4.996   7.129 -0.0180  0.5310 -0.0023
 3402TIP3    H131765   5.284   4.981   7.149 -0.3638 -0.0885  1.2323
 3402TIP3    H231766   5.190   5.015   7.035  1.4288  1.1723  0.0776
 3403TIP3   OH231767   3.809   6.060   7.812 -0.0477  0.4737  0.5572
 3403TIP3    H131768   3.840   5.980   7.769 -3.1422 -0.3569 -0.4157
 3403TIP3    H231769   3.822   6.129   7.747  2.8874  0.9257  1.4989
 3404TIP3   OH231770   6.023   5.427   8.238 -0.1052 -0.7006  1.0686
 3404TIP3    H131771   6.054   5.505   8.284  0.8396  0.4080 -1.2778
 3404TIP3    H231772   6.096   5.365   8.245 -0.2414 -0.8035  1.6268
 3405TIP3   OH231773   0.222   6.383   1.770 -1.0650 -0.2396 -0.1712
 3405TIP3    H131774   0.203   6.436   1.848  0.4359 -0.1689  0.1856
 3405TIP3    H231775   0.201   6.441   1.697  2.0965  1.6053  0.1880
 3406TIP3   OH231776   2.760   3.576   6.980  0.1587 -0.2149  0.1059
 3406TIP3    H131777   2.806   3.494   6.963  2.0836  0.6714  0.7231
 3406TIP3    H231778   2.668   3.556   6.964  0.6681 -2.2560 -0.5647
 3407TIP3   OH231779   3.618   3.448   0.835  0.4107 -0.7912  0.3457
 3407TIP3    H131780   3.562   3.493   0.898 -3.0326 -1.7783 -1.7384
 3407TIP3    H231781   3.625   3.358   0.869  2.9089 -0.1366  1.8144
 3408TIP3   OH231782   3.446   6.002   8.658 -0.3014  0.5398 -0.4676
 3408TIP3    H131783   3.459   6.084   8.610 -1.3268  1.1280  0.2185
 3408TIP3    H231784   3.372   5.960   8.615 -0.0372  0.1734 -0.5640
 3409TIP3   OH231785   3.108   5.815   0.765 -0.0978 -0.2905 -0.4189
 3409TIP3    H131786   3.092   5.909   0.780 -0.6203 -0.2995 -0.8990
 3409TIP3    H231787   3.039   5.788   0.705 -1.1204 -1.4230  1.1733
 3410TIP3   OH231788   4.778   5.812   6.693 -0.0334 -0.4306  0.3890
 3410TIP3    H131789   4.716   5.880   6.669  1.0887  0.5632  0.2367
 3410TIP3    H231790   4.862   5.843   6.661  0.4570 -2.0508  0.0272
 3411TIP3   OH231791   2.753   2.803   1.574 -0.1301  0.7479  0.4510
 3411TIP3    H131792   2.732   2.894   1.596 -0.7485  0.5214  0.8409
 3411TIP3    H231793   2.838   2.787   1.615 -0.8006  0.6437  1.8719
 3412TIP3   OH231794   3.701   0.560   8.613  0.2694 -0.4753  0.6642
 3412TIP3    H131795   3.769   0.511   8.658  1.2919 -1.6029 -1.8979
 3412TIP3    H231796   3.730   0.652   8.618  2.3541 -0.9845 -0.8349
 3413TIP3   OH231797   2.698   6.704   0.501  0.0420 -0.4807  0.7368
 3413TIP3    H131798   2.721   6.781   0.449  0.4040 -1.0623  0.0146
 3413TIP3    H231799   2.761   6.704   0.573 -0.9626  0.7761  1.6590
 3414TIP3   OH231800   1.045   1.949   0.449 -0.1836  0.2970 -0.3660
 3414TIP3    H131801   1.109   1.970   0.380  0.2303  2.5754  0.6444
 3414TIP3    H231802   0.963   1.986   0.417 -0.9090 -1.8712 -1.2534
 3415TIP3   OH231803   2.609   5.681   8.023 -0.0068 -0.4428  0.3876
 3415TIP3    H131804   2.681   5.703   7.964 -0.1156 -0.5134  0.2241
 3415TIP3    H231805   2.622   5.588   8.042 -1.9604 -1.4496 -2.4271
 3416TIP3   OH231806   1.720   2.668   1.836 -0.2556  0.7405  1.0426
 3416TIP3    H131807   1.737   2.687   1.928  1.0333  0.5739  0.8587
 3416TIP3    H231808   1.685   2.579   1.836  1.6405 -0.0555  1.2439
 3417TIP3   OH231809   4.430   4.019   8.070 -0.0958 -0.2834 -0.2583
 3417TIP3    H131810   4.490   4.084   8.034  2.0925 -0.4289  2.7063
 3417TIP3    H231811   4.456   3.937   8.028 -0.1848  0.1057 -1.0936
 3418TIP3   OH231812   2.596   0.729   0.190  0.1155  0.0220 -0.0676
 3418TIP3    H131813   2.624   0.704   0.278  0.0729 -1.3457 -0.4181
 3418TIP3    H231814   2.570   0.647   0.149  0.9325  0.5042 -1.6478
 3419TIP3   OH231815   0.958   6.712   8.621  0.0478  0.1197  0.2893
 3419TIP3    H131816   0.942   6.742   8.531  0.5348 -0.0550  0.1446
 3419TIP3    H231817   1.053   6.718   8.631  0.0166 -0.1158  0.7061
 3420TIP3   OH231818   0.719   3.519   7.724  0.1526 -0.0338  0.2647
 3420TIP3    H131819   0.713   3.450   7.658  1.4664  0.4005 -0.3622
 3420TIP3    H231820   0.725   3.472   7.808 -2.0411 -0.5789  0.1545
 3421TIP3   OH231821   2.037   5.793   1.431  0.5737 -0.2545  0.4398
 3421TIP3    H131822   2.104   5.732   1.401  1.1506 -0.1127  1.3880
 3421TIP3    H231823   2.085   5.871   1.457  0.1661 -0.5169  2.0934
 3422TIP3   OH231824   6.589   3.278   1.147 -0.1165  0.1473  0.0783
 3422TIP3    H131825   6.543   3.276   1.063  0.6218  0.8806 -0.3638
 3422TIP3    H231826   6.682   3.271   1.124  0.0047 -1.7690  0.9861
 3423TIP3   OH231827   5.368   0.419   8.935  0.2881 -0.2611  0.3171
 3423TIP3    H131828   5.456   0.421   8.896  0.3136  1.3661  0.4034
 3423TIP3    H231829   5.309   0.424   8.860  0.3059  0.4228  0.3419
 3424TIP3   OH231830   5.375   1.554   7.910 -0.6411 -0.2756 -0.0603
 3424TIP3    H131831   5.340   1.546   7.821  0.1315 -1.3851 -0.2976
 3424TIP3    H231832   5.470   1.556   7.897 -0.3145 -3.6288  0.8399
 3425TIP3   OH231833   6.192   0.165   7.496  0.0151  0.7740  0.1582
 3425TIP3    H131834   6.153   0.206   7.419 -0.2424 -1.2543 -0.8589
 3425TIP3    H231835   6.286   0.163   7.477 -0.1072 -0.3180 -0.4707
 3426TIP3   OH231836   6.440   3.972   0.850 -1.1779  0.6445 -0.1530
 3426TIP3    H131837   6.525   3.929   0.837 -0.7397  1.4216  0.0609
 3426TIP3    H231838   6.393   3.957   0.767 -0.7445  0.3939 -0.3569
 3427TIP3   OH231839   2.797   2.227   7.774  0.4796  0.1514 -0.3463
 3427TIP3    H131840   2.709   2.195   7.754 -0.1069  1.4060  0.0941
 3427TIP3    H231841   2.800   2.231   7.869  1.2597 -0.4954 -0.3332
 3428TIP3   OH231842   5.069   6.356   1.639 -0.8201 -0.0480 -0.1145
 3428TIP3    H131843   4.997   6.418   1.638  0.5116  1.5695  0.2232
 3428TIP3    H231844   5.142   6.404   1.677  0.2623 -1.8479  0.2102
 3429TIP3   OH231845   1.017   6.692   7.155 -0.0437 -0.2494 -0.3360
 3429TIP3    H131846   0.938   6.731   7.116 -0.9246 -0.0499  1.5253
 3429TIP3    H231847   0.991   6.671   7.244  2.3874  0.9550  0.7411
 3430TIP3   OH231848   0.485   0.273   1.101 -0.1434 -0.2332 -0.2015
 3430TIP3    H131849   0.404   0.307   1.064  0.8523  2.4917 -0.1198
 3430TIP3    H231850   0.458   0.230   1.182 -1.6078 -0.3888 -0.7398
 3431TIP3   OH231851   5.561   4.252   1.328 -0.2200  0.1280  0.6836
 3431TIP3    H131852   5.498   4.224   1.394 -1.9527 -1.3363 -1.4429
 3431TIP3    H231853   5.548   4.191   1.255  0.2426  2.7496 -1.7728
 3432TIP3   OH231854   5.287   4.223   0.074  0.1870 -0.2067  0.2339
 3432TIP3    H131855   5.192   4.214   0.067 -0.0329  2.2478 -0.8055
 3432TIP3    H231856   5.300   4.309   0.116  1.9473 -0.1646 -0.3175
 3433TIP3   OH231857   3.812   0.191   2.364  0.2246  0.1400 -0.1280
 3433TIP3    H131858   3.858   0.187   2.447  2.1327  2.4029 -0.9437
 3433TIP3    H231859   3.738   0.250   2.380  1.9366  2.5391 -0.4715
 3434TIP3   OH231860   5.131   2.147   8.041  0.4526  0.5060 -0.2670
 3434TIP3    H131861   5.179   2.068   8.065 -1.8290 -0.5903  1.0145
 3434TIP3    H231862   5.136   2.203   8.119  1.6586  1.4774 -1.0030
 3435TIP3   OH231863   0.788   2.010   0.396  0.3196  0.5233 -0.4391
 3435TIP3    H131864   0.782   2.074   0.467  0.4924  0.7100 -0.5902
 3435TIP3    H231865   0.738   2.050   0.324 -0.8292 -0.1766 -0.0541
 3436TIP3   OH231866   2.283   3.638   7.672  0.1560  0.0160 -0.1197
 3436TIP3    H131867   2.259   3.728   7.654  0.1970  0.0985  0.2366
 3436TIP3    H231868   2.374   3.631   7.644  0.2562  0.1763  0.1633
 3437TIP3   OH231869   2.258   3.850   0.023  0.3493 -0.3084  0.3171
 3437TIP3    H131870   2.313   3.777   0.051 -0.7954 -1.4743 -0.3222
 3437TIP3    H231871   2.316   3.926   0.023  1.7568 -1.3482  0.3494
 3438TIP3   OH231872   0.665   4.905   6.843  0.1192  0.5954  0.0358
 3438TIP3    H131873   0.579   4.910   6.801  0.3256 -3.4766 -1.3004
 3438TIP3    H231874   0.725   4.880   6.773  2.1033  1.4236  1.3349
 3439TIP3   OH231875   3.810   0.987   7.597 -0.1906 -0.3174 -0.1015
 3439TIP3    H131876   3.801   1.080   7.578 -4.0882 -0.2216  1.3870
 3439TIP3    H231877   3.756   0.943   7.532 -0.4083 -1.2947  0.7007
 3440TIP3   OH231878   1.923   1.968   1.039 -0.6538 -0.3979 -0.4254
 3440TIP3    H131879   1.980   1.941   0.966 -0.7665 -0.2786 -0.5582
 3440TIP3    H231880   1.862   1.895   1.050 -0.9520 -0.2035 -0.7775
 3441TIP3   OH231881   4.176   3.767   8.167 -0.0104 -0.1896  0.3423
 3441TIP3    H131882   4.267   3.778   8.194  0.4249 -0.9582 -0.7413
 3441TIP3    H231883   4.135   3.719   8.239 -0.1273  1.9724  1.8002
 3442TIP3   OH231884   1.602   3.837   0.649  0.1534  0.2500 -0.5851
 3442TIP3    H131885   1.624   3.784   0.726  0.6443  0.7362 -0.3889
 3442TIP3    H231886   1.653   3.917   0.659 -0.1167  0.5052 -1.1961
 3443TIP3   OH231887   2.531   2.858   7.847  0.3523  0.4092 -0.2161
 3443TIP3    H131888   2.613   2.874   7.894  2.4444 -0.2807 -3.2922
 3443TIP3    H231889   2.539   2.911   7.767 -2.5218  0.7514 -0.3732
 3444TIP3   OH231890   3.781   5.655   8.211  0.1833 -0.1042  0.1743
 3444TIP3    H131891   3.822   5.679   8.127 -0.1173 -1.2554 -0.3237
 3444TIP3    H231892   3.812   5.722   8.272 -0.2304  1.2374 -1.0170
 3445TIP3   OH231893   2.192   5.725   7.773  0.4241  0.0838 -0.1848
 3445TIP3    H131894   2.107   5.763   7.796  0.3455 -0.1485 -0.0869
 3445TIP3    H231895   2.173   5.633   7.753  1.0709 -0.8466  2.9296
 3446TIP3   OH231896   2.189   4.389   8.407 -0.4824 -0.2488  0.4634
 3446TIP3    H131897   2.271   4.370   8.453 -0.9316  1.0581  1.9398
 3446TIP3    H231898   2.132   4.315   8.427 -0.0056 -0.6628  0.3034
 3447TIP3   OH231899   4.983   2.924   1.071  0.2513 -0.1031 -0.0964
 3447TIP3    H131900   5.076   2.928   1.050 -0.1166  2.6978 -1.6733
 3447TIP3    H231901   4.973   2.981   1.147 -0.6071  2.9753 -2.3401
 3448TIP3   OH231902   1.831   0.349   1.649 -0.1586 -0.1160  0.2526
 3448TIP3    H131903   1.856   0.397   1.570  2.2037  0.9503  1.5606
 3448TIP3    H231904   1.796   0.266   1.616 -0.0471  0.6253 -1.9172
 3449TIP3   OH231905   4.235   6.469   0.386 -0.0320  0.1964  0.3331
 3449TIP3    H131906   4.298   6.397   0.389 -0.3931 -0.3458 -2.2175
 3449TIP3    H231907   4.287   6.547   0.406  0.3107 -0.7175  3.3944
 3450TIP3   OH231908   4.873   1.436   1.706 -0.0297 -0.5323  0.3665
 3450TIP3    H131909   4.848   1.425   1.798 -0.9635 -0.8670  0.0848
 3450TIP3    H231910   4.923   1.518   1.705 -1.4259  0.3717  0.9135
 3451TIP3   OH231911   5.585   5.709   1.277 -0.3095 -0.1885  0.4909
 3451TIP3    H131912   5.506   5.764   1.275  0.0879  0.4038  0.6387
 3451TIP3    H231913   5.553   5.621   1.298 -0.8700  0.1776  1.2252
 3452TIP3   OH231914   6.316   1.418   1.543 -0.9995  0.6788  0.7039
 3452TIP3    H131915   6.268   1.493   1.577 -3.2917 -0.7741  0.8847
 3452TIP3    H231916   6.309   1.352   1.612 -1.3217 -0.5667 -0.4710
 3453TIP3   OH231917   2.099   1.887   0.773 -0.4258 -0.7023  0.2701
 3453TIP3    H131918   2.183   1.919   0.740 -0.5731 -1.1161 -0.5321
 3453TIP3    H231919   2.122   1.829   0.845  0.0281 -1.3716 -0.3921
 3454TIP3   OH231920   0.036   6.141   1.789 -0.2410 -0.4454  0.0149
 3454TIP3    H131921   0.104   6.208   1.778  0.9153 -1.4235  0.9168
 3454TIP3    H231922  -0.000   6.158   1.876  1.3281 -2.0246  1.0576
 3455TIP3   OH231923   4.209   1.519   8.127  0.1096 -0.2434  0.1698
 3455TIP3    H131924   4.279   1.557   8.180  0.1691  0.2084 -0.2333
 3455TIP3    H231925   4.174   1.592   8.077 -1.4386 -0.2291  1.2121
 3456TIP3   OH231926   6.745   1.125   0.201  0.0603  0.4215  0.1004
 3456TIP3    H131927   6.839   1.107   0.194 -0.1034 -0.2879 -0.3915
 3456TIP3    H231928   6.705   1.073   0.131 -0.6777  0.9161  0.1428
 3457TIP3   OH231929   2.968   4.101   0.352 -0.3557 -0.1702 -0.5475
 3457TIP3    H131930   2.973   4.194   0.372 -0.0980  0.1180 -1.8802
 3457TIP3    H231931   2.921   4.063   0.426  2.9676  0.3402  2.0902
 3458TIP3   OH231932   5.256   5.796   0.981 -0.0330  0.4746  0.0158
 3458TIP3    H131933   5.326   5.855   1.008  0.3412  0.2967 -0.5515
 3458TIP3    H231934   5.179   5.826   1.030 -0.6561  3.3820 -2.4857
 3459TIP3   OH231935   1.987   6.160   1.830  0.1561 -0.1051  0.1463
 3459TIP3    H131936   1.972   6.133   1.921  2.3811  0.0489  0.6145
 3459TIP3    H231937   1.979   6.255   1.831  3.7431  0.3496  1.0972
 3460TIP3   OH231938   2.114   0.530   7.781  0.5158 -0.1877  0.0038
 3460TIP3    H131939   2.208   0.542   7.766  0.2124  0.9855 -1.1378
 3460TIP3    H231940   2.080   0.498   7.698 -0.2854  0.6093  0.0065
 3461TIP3   OH231941   0.484   3.599   1.578 -0.7244  0.0454  0.8026
 3461TIP3    H131942   0.564   3.581   1.529 -2.6118 -0.8980 -2.2100
 3461TIP3    H231943   0.512   3.658   1.648  2.4607  0.3130 -0.4988
 3462TIP3   OH231944   4.705   2.292   8.716 -0.0084 -0.5605  0.0748
 3462TIP3    H131945   4.632   2.230   8.730  1.3929 -2.4767 -0.6645
 3462TIP3    H231946   4.713   2.298   8.621  0.4436  0.0969  0.1523
 3463TIP3   OH231947   6.503   0.131   6.890  0.0904  0.4330  0.0305
 3463TIP3    H131948   6.428   0.169   6.845 -0.7470  0.5106  1.4394
 3463TIP3    H231949   6.532   0.199   6.951  0.2451 -0.2023  0.6829
 3464TIP3   OH231950   4.813   2.751   7.401  0.0202 -0.1664 -0.4765
 3464TIP3    H131951   4.730   2.779   7.363  0.1473 -1.2615 -1.6325
 3464TIP3    H231952   4.788   2.695   7.474 -0.2301  0.8675  0.2550
 3465TIP3   OH231953   5.223   5.346   0.317  0.5778  0.3850  0.1875
 3465TIP3    H131954   5.161   5.381   0.382  1.0278  0.6285  0.4891
 3465TIP3    H231955   5.307   5.346   0.362  0.6925 -0.5229 -0.0192
 3466TIP3   OH231956   4.543   1.762   7.134  0.1785 -0.0768 -0.0897
 3466TIP3    H131957   4.477   1.790   7.071  0.5825 -0.2770 -0.6042
 3466TIP3    H231958   4.539   1.666   7.131  0.5532 -0.0894 -0.1875
 3467TIP3   OH231959   3.728   4.266   8.525  0.1071 -0.2894 -0.4414
 3467TIP3    H131960   3.760   4.185   8.564  0.5233 -1.5619 -3.1564
 3467TIP3    H231961   3.806   4.319   8.509  0.5684 -1.6112 -3.2394
 3468TIP3   OH231962   0.940   3.168   7.075  0.2058 -0.1707 -0.4848
 3468TIP3    H131963   1.024   3.132   7.103  1.2105  1.3016 -1.4768
 3468TIP3    H231964   0.917   3.119   6.996  0.3440 -0.2961 -0.4465
 3469TIP3   OH231965   1.422   0.819   1.689  0.2078  0.0939 -0.2101
 3469TIP3    H131966   1.474   0.744   1.718 -0.1696 -0.0374  0.1366
 3469TIP3    H231967   1.429   0.817   1.593  1.3996  0.4815 -0.1507
 3470TIP3   OH231968   6.600   0.289   7.095  0.0128  0.4758  0.2130
 3470TIP3    H131969   6.573   0.367   7.143  0.1030  0.6747 -0.0587
 3470TIP3    H231970   6.692   0.276   7.119 -0.4545 -0.5233  1.5781
 3471TIP3   OH231971   4.666   0.105   0.617  0.5907 -0.0544  0.3259
 3471TIP3    H131972   4.752   0.123   0.579  0.5039 -0.7340 -0.2232
 3471TIP3    H231973   4.615   0.070   0.544 -0.0548  0.0374  0.7255
 3472TIP3   OH231974   1.792   4.825   2.180  0.7317 -0.6331  1.0364
 3472TIP3    H131975   1.696   4.827   2.176  0.6345  3.1112  1.2819
 3472TIP3    H231976   1.812   4.820   2.273  0.6101  1.7361  1.2424
 3473TIP3   OH231977   4.950   2.358   8.187 -0.2554 -0.2807 -0.3947
 3473TIP3    H131978   4.868   2.391   8.150  0.5190  0.0692 -1.8814
 3473TIP3    H231979   5.018   2.395   8.131  0.8221 -2.0184 -0.3063
 3474TIP3   OH231980   6.455   3.816   7.716 -0.4198  0.2091  0.1755
 3474TIP3    H131981   6.425   3.903   7.691 -1.5595 -0.3111 -0.3346
 3474TIP3    H231982   6.449   3.814   7.811  4.2541  2.3230  0.7894
 3475TIP3   OH231983   2.819   3.778   8.587  0.5585 -0.1069 -0.2327
 3475TIP3    H131984   2.747   3.763   8.526  0.6184  0.7503 -0.5156
 3475TIP3    H231985   2.778   3.818   8.664  0.7656  0.6125 -0.4941
 3476TIP3   OH231986   1.952   5.257   8.251  0.0832  0.5302 -0.1522
 3476TIP3    H131987   1.977   5.346   8.229  1.4132 -0.5708 -3.9141
 3476TIP3    H231988   2.027   5.222   8.299  0.2635  0.9424 -0.1286
 3477TIP3   OH231989   4.766   0.955   0.107 -0.2800 -0.0381  0.6530
 3477TIP3    H131990   4.820   0.885   0.142 -0.9744 -0.5524  0.7030
 3477TIP3    H231991   4.809   0.980   0.025  0.2477 -0.1671  0.8863
 3478TIP3   OH231992   2.266   5.025   8.620 -0.1853 -0.0372 -0.5685
 3478TIP3    H131993   2.290   5.090   8.686  1.8517 -0.1499 -1.1463
 3478TIP3    H231994   2.170   5.029   8.617 -0.2180  1.4557  0.8733
 3479TIP3   OH231995   3.707   6.657   8.130 -0.3247  0.3600  0.3690
 3479TIP3    H131996   3.719   6.698   8.044 -0.2353  1.6246  0.9583
 3479TIP3    H231997   3.627   6.697   8.164  0.4042  0.9296  1.4462
 3480TIP3   OH231998   0.339   5.866   1.889  0.5999  0.1063 -0.2143
 3480TIP3    H131999   0.347   5.945   1.834 -1.9692  0.6780  0.1107
 3480TIP3    H232000   0.316   5.899   1.975 -2.0331 -0.9871 -0.4214
 3481TIP3   OH232001   0.385   4.665   0.007 -0.0611 -0.1510 -0.3460
 3481TIP3    H132002   0.440   4.731   0.050 -0.6558 -0.1810  0.4822
 3481TIP3    H232003   0.302   4.710  -0.009 -0.5887 -0.7668  0.5235
 3482TIP3   OH232004   2.078   4.841   1.559 -0.2319 -0.5406  0.8623
 3482TIP3    H132005   2.138   4.842   1.633 -0.1389 -0.4490  0.7866
 3482TIP3    H232006   2.012   4.776   1.582 -1.0464  0.5374  1.6920
 3483TIP3   OH232007   5.308   0.644   7.531 -0.4438  0.1515  0.9020
 3483TIP3    H132008   5.298   0.551   7.552  0.3305 -0.4205 -1.0541
 3483TIP3    H232009   5.369   0.677   7.596  2.4529 -1.7094 -0.6753
 3484TIP3   OH232010   4.084   3.581   1.852 -0.7113  0.2075  0.0618
 3484TIP3    H132011   4.028   3.629   1.791 -1.2880 -1.0062 -0.3907
 3484TIP3    H232012   4.124   3.649   1.907 -0.5646  1.2772 -1.3317
 3485TIP3   OH232013   5.814   1.745   6.847 -0.4369  0.5265  0.2520
 3485TIP3    H132014   5.908   1.741   6.865 -0.8704 -3.5796  2.7446
 3485TIP3    H232015   5.804   1.708   6.760  0.1871 -1.0059  0.8023
 3486TIP3   OH232016   2.118   2.339   0.787 -0.3213  0.4148  0.1613
 3486TIP3    H132017   2.123   2.262   0.731  0.4977 -0.4533  1.3743
 3486TIP3    H232018   2.026   2.344   0.813 -0.1341 -1.0438  1.2276
 3487TIP3   OH232019   3.256   6.215   8.794 -0.1294  0.7318 -0.0862
 3487TIP3    H132020   3.257   6.286   8.858 -3.1667 -0.4671  1.4912
 3487TIP3    H232021   3.329   6.158   8.820  1.1045  2.2010 -0.1729
 3488TIP3   OH232022   6.426   3.516   6.449 -0.4057 -0.0304  0.2910
 3488TIP3    H132023   6.441   3.606   6.419 -0.1438 -0.3734 -0.6404
 3488TIP3    H232024   6.513   3.479   6.458 -0.5082 -0.1281  0.8729
 3489TIP3   OH232025   2.745   6.411   0.802 -0.1557  0.0233 -0.3138
 3489TIP3    H132026   2.750   6.418   0.898  1.1084  1.9826 -0.4806
 3489TIP3    H232027   2.761   6.500   0.770 -3.0129 -0.0228 -2.3090
 3490TIP3   OH232028   2.962   0.444   0.170  0.1106 -0.4514 -0.3369
 3490TIP3    H132029   3.013   0.525   0.162  3.4571 -2.0602  2.1162
 3490TIP3    H232030   2.875   0.473   0.196  0.5787  2.3992 -1.5215
 3491TIP3   OH232031   5.920   2.640   1.469  0.2766  0.3990 -0.0975
 3491TIP3    H132032   5.942   2.725   1.431  0.1482  0.8492  0.7852
 3491TIP3    H232033   5.848   2.660   1.529 -2.3586 -0.9371 -2.5752
 3492TIP3   OH232034   2.902   2.729   1.047 -0.3780 -0.4578 -0.0784
 3492TIP3    H132035   2.870   2.646   1.080 -1.7542  0.7219  1.7083
 3492TIP3    H232036   2.936   2.775   1.124  1.1762  0.3092 -1.1576
 3493TIP3   OH232037   2.783   5.135   0.477 -0.0123  0.1942  0.0639
 3493TIP3    H132038   2.735   5.138   0.394 -1.2980 -1.8690  0.6433
 3493TIP3    H232039   2.849   5.067   0.463  0.6072  0.7396  0.3250
 3494TIP3   OH232040   3.495   5.586   7.843 -0.1709 -0.3199 -0.5561
 3494TIP3    H132041   3.566   5.545   7.794  0.3488 -0.0064 -0.0737
 3494TIP3    H232042   3.528   5.673   7.866 -0.7031 -0.1760 -0.3045
 3495TIP3   OH232043   4.578   3.859   0.937 -0.8007 -0.1188 -0.0524
 3495TIP3    H132044   4.670   3.832   0.938 -0.6556  0.2665  1.9049
 3495TIP3    H232045   4.534   3.795   0.993 -1.6926 -0.1622 -0.7879
 3496TIP3   OH232046   1.386   0.140   8.374  0.3059 -0.7207 -0.1919
 3496TIP3    H132047   1.379   0.217   8.430  1.5863  0.0507 -1.0329
 3496TIP3    H232048   1.326   0.158   8.301 -0.6766 -1.3120  0.4554
 3497TIP3   OH232049   3.534   6.531   8.634 -0.6408 -0.2514 -0.2081
 3497TIP3    H132050   3.534   6.561   8.725 -1.1012 -1.0564  0.0674
 3497TIP3    H232051   3.498   6.605   8.584  1.4361  0.9702 -0.0304
 3498TIP3   OH232052   2.113   5.573   1.667 -0.0654 -0.7160  0.1009
 3498TIP3    H132053   2.153   5.539   1.588  0.3637 -2.3989  1.0004
 3498TIP3    H232054   2.119   5.502   1.731 -1.1816  0.2699  1.3948
 3499TIP3   OH232055   3.077   5.688   7.569 -0.0286  0.2345 -0.1306
 3499TIP3    H132056   3.144   5.702   7.635 -0.7358 -0.0602  0.6683
 3499TIP3    H232057   3.045   5.776   7.548 -0.7486  0.2463  0.9407
 3500TIP3   OH232058   4.537   2.034   1.529 -0.5536  0.3381  0.3494
 3500TIP3    H132059   4.533   2.037   1.624 -0.3894  1.5896  0.3345
 3500TIP3    H232060   4.607   1.972   1.510  0.2410  0.9745  1.0794
 3501TIP3   OH232061   1.492   3.171   0.845 -0.7525  0.2856  0.2858
 3501TIP3    H132062   1.460   3.120   0.771  2.6024 -0.1600 -1.0350
 3501TIP3    H232063   1.504   3.107   0.915 -1.1680  0.1787  0.2619
 3502TIP3   OH232064   0.483   2.853   0.769 -0.0477 -0.5351  0.0508
 3502TIP3    H132065   0.404   2.906   0.778  0.4175  0.1376  0.2078
 3502TIP3    H232066   0.479   2.819   0.679 -0.1305  0.1177 -0.1938
 3503TIP3   OH232067   3.115   2.864   8.898 -0.3597 -0.2382  0.3168
 3503TIP3    H132068   3.104   2.772   8.875  0.8913 -0.3154 -0.0934
 3503TIP3    H232069   3.106   2.910   8.814  0.7297 -0.1731  0.2215
 3504TIP3   OH232070   0.394   0.828   1.050 -0.3854  0.0387  0.0211
 3504TIP3    H132071   0.346   0.890   0.995 -0.3818  0.2062  0.2073
 3504TIP3    H232072   0.414   0.877   1.130 -0.1341 -0.1123  0.0524
 3505TIP3   OH232073   5.345   1.574   7.621  0.6305  0.3114 -0.1523
 3505TIP3    H132074   5.299   1.647   7.581  0.7016 -0.1771 -1.1636
 3505TIP3    H232075   5.291   1.498   7.602  0.3458  0.1376  1.2495
 3506TIP3   OH232076   1.586   1.471   2.192  0.5446  0.3277  0.1544
 3506TIP3    H132077   1.664   1.456   2.246  1.2175  0.7085 -0.6911
 3506TIP3    H232078   1.567   1.564   2.204 -0.7615 -0.0817  1.6154
 3507TIP3   OH232079   1.438   3.604   8.540  0.0655 -0.0771 -0.3379
 3507TIP3    H132080   1.348   3.623   8.567  0.4514  0.1623  0.8249
 3507TIP3    H232081   1.445   3.509   8.549  0.6795  0.1356  2.1254
 3508TIP3   OH232082   6.619   5.704   8.081 -0.3903  0.7089  0.2436
 3508TIP3    H132083   6.682   5.776   8.073  0.9430 -0.4577 -0.2006
 3508TIP3    H232084   6.534   5.745   8.068  0.3622  2.1248 -0.4561
 3509TIP3   OH232085   2.779   4.648   0.218  0.1353 -0.1723 -0.0384
 3509TIP3    H132086   2.802   4.735   0.186 -0.8882 -0.3609 -1.4074
 3509TIP3    H232087   2.746   4.663   0.307  1.1270  0.6624  0.1986
 3510TIP3   OH232088   0.466   6.639   8.361  0.2096 -0.0103 -0.2710
 3510TIP3    H132089   0.386   6.627   8.412  0.4717  0.5228  0.2922
 3510TIP3    H232090   0.487   6.552   8.326  0.1823 -0.4579  0.7873
 3511TIP3   OH232091   5.906   3.878   7.402  0.4250  0.8007  0.0981
 3511TIP3    H132092   5.839   3.945   7.417 -0.1288  0.4410 -0.7201
 3511TIP3    H232093   5.926   3.884   7.309  3.9059  3.1154  0.7703
 3512TIP3   OH232094   3.319   2.034   0.735  1.2417 -0.4166 -0.0357
 3512TIP3    H132095   3.281   2.118   0.711  1.5678 -0.0975  0.5471
 3512TIP3    H232096   3.316   1.983   0.654  0.1942 -0.1775 -0.1664
 3513TIP3   OH232097   6.021   1.371   7.048 -0.3373 -0.3404 -0.1392
 3513TIP3    H132098   6.092   1.319   7.085  0.7689  1.0571 -0.2195
 3513TIP3    H232099   6.065   1.440   6.998 -1.7599  0.2849 -0.5856
 3514TIP3   OH232100   2.001   1.802   8.176 -0.2009 -0.7278  0.1360
 3514TIP3    H132101   2.075   1.754   8.214 -0.3316 -0.7787  0.3260
 3514TIP3    H232102   1.975   1.751   8.100 -0.4223 -1.0261  0.4115
 3515TIP3   OH232103   5.321   0.759   8.419 -0.3705 -0.7950 -0.0532
 3515TIP3    H132104   5.337   0.715   8.503 -0.0252  0.6884  0.6871
 3515TIP3    H232105   5.401   0.808   8.402 -0.0390 -1.8390 -1.7857
 3516TIP3   OH232106   5.023   2.383   0.448 -0.1701 -0.3763  0.4427
 3516TIP3    H132107   5.031   2.422   0.360  1.1403 -0.2300  0.6110
 3516TIP3    H232108   4.994   2.455   0.503  1.2649  0.1507  0.5558
 3517TIP3   OH232109   3.358   0.571   8.045  0.1507 -0.6398 -0.1456
 3517TIP3    H132110   3.271   0.543   8.072  0.9702 -2.1596  1.0945
 3517TIP3    H232111   3.388   0.630   8.114 -0.2600  0.7141 -1.0841
 3518TIP3   OH232112   5.880   4.542   1.691  0.1051 -0.5083 -0.4430
 3518TIP3    H132113   5.931   4.613   1.731 -1.5390 -0.9939  2.8688
 3518TIP3    H232114   5.936   4.509   1.621  2.7336  1.3264  0.6126
 3519TIP3   OH232115   5.774   5.196   8.574 -0.7465 -0.1884  0.0148
 3519TIP3    H132116   5.835   5.150   8.517 -0.1413 -1.5812  1.7366
 3519TIP3    H232117   5.719   5.127   8.612 -2.9784  0.9472 -0.9231
 3520TIP3   OH232118   3.696   1.349   8.415  0.3304  0.8830  0.0174
 3520TIP3    H132119   3.734   1.272   8.457  0.0063  1.1840  0.8948
 3520TIP3    H232120   3.674   1.320   8.327 -0.9656 -0.4241  0.7274
 3521TIP3   OH232121   0.487   3.129   8.532 -0.0407  0.0741  0.1083
 3521TIP3    H132122   0.421   3.065   8.559  0.7950 -0.7660  0.2302
 3521TIP3    H232123   0.450   3.171   8.455 -0.2330 -1.2095 -0.5187
 3522TIP3   OH232124   0.671   2.956   8.647  0.1164 -0.1307  0.7184
 3522TIP3    H132125   0.755   3.000   8.639  0.3249 -0.4835  0.9270
 3522TIP3    H232126   0.610   3.010   8.597  0.6122 -0.2667 -0.0513
 3523TIP3   OH232127   5.954   4.992   2.219 -0.4383  0.0707 -0.3824
 3523TIP3    H132128   5.991   5.078   2.203 -1.3081  0.2355 -1.6557
 3523TIP3    H232129   6.000   4.934   2.159  1.7226 -0.8384  1.9902
 3524TIP3   OH232130   2.498   2.442   7.627 -0.0483 -0.2076  0.0161
 3524TIP3    H132131   2.446   2.479   7.698  1.0304 -0.6496  1.0583
 3524TIP3    H232132   2.589   2.464   7.649  0.5110 -2.2894 -0.0373
 3525TIP3   OH232133   0.328   4.489   0.664 -0.6985 -0.0711 -0.3528
 3525TIP3    H132134   0.380   4.414   0.694 -0.1170 -0.1504 -1.4835
 3525TIP3    H232135   0.261   4.451   0.607 -1.1399  0.1612  0.0098
 3526TIP3   OH232136   4.917   2.408   8.874 -0.0210  0.0207  0.1781
 3526TIP3    H132137   4.883   2.390   8.962  0.0535 -2.6013 -0.2285
 3526TIP3    H232138   4.841   2.439   8.825 -0.0822  1.4392  1.1130
 3527TIP3   OH232139   0.427   6.114   7.870 -0.4532 -0.0880 -0.2099
 3527TIP3    H132140   0.516   6.122   7.836 -0.5892 -0.6713 -0.7271
 3527TIP3    H232141   0.395   6.032   7.834 -1.4411  0.4402 -0.5686
 3528TIP3   OH232142   3.309   2.563   2.408  0.5953 -0.4513 -0.2046
 3528TIP3    H132143   3.357   2.638   2.443  0.0983  0.8142 -2.0559
 3528TIP3    H232144   3.370   2.522   2.346  0.7906 -1.4677  0.6474
 3529TIP3   OH232145   2.465   4.859   1.954 -0.0697 -1.0794 -0.1052
 3529TIP3    H132146   2.390   4.885   2.007  0.9316 -1.2929  1.5050
 3529TIP3    H232147   2.495   4.939   1.912  0.7494 -0.3006  1.8554
 3530TIP3   OH232148   5.624   5.555   1.932 -0.4477 -0.5365 -0.5932
 3530TIP3    H132149   5.664   5.507   2.004 -2.3178 -0.5188  0.5218
 3530TIP3    H232150   5.536   5.577   1.963 -0.7387  0.9242 -2.2576
 3531TIP3   OH232151   1.730   5.126   8.769 -0.0291  0.2052 -0.1385
 3531TIP3    H132152   1.789   5.166   8.833 -1.5262  1.6780  0.3921
 3531TIP3    H232153   1.700   5.046   8.811  0.8850 -0.1042 -0.0476
 3532TIP3   OH232154   5.627   0.318   0.396 -0.5093 -0.0017  0.2187
 3532TIP3    H132155   5.639   0.412   0.405  1.4003 -0.3598  2.3885
 3532TIP3    H232156   5.674   0.296   0.315 -1.7236  0.9786 -0.7879
 3533TIP3   OH232157   2.321   5.667   0.640  0.5409 -0.0688  0.1619
 3533TIP3    H132158   2.344   5.616   0.562 -0.7183 -0.7382  0.1953
 3533TIP3    H232159   2.262   5.735   0.607  1.7894  1.0639  0.2029
 3534TIP3   OH232160   4.169   2.735   0.087  0.2501 -0.6338 -0.0735
 3534TIP3    H132161   4.205   2.748   0.175  0.8683 -0.0247 -0.4042
 3534TIP3    H232162   4.152   2.641   0.081 -0.5706 -0.5718  0.9818
 3535TIP3   OH232163   5.289   3.759   8.894  0.5197 -0.1618  0.4655
 3535TIP3    H132164   5.227   3.808   8.948 -0.1300 -1.0929  0.5946
 3535TIP3    H232165   5.297   3.674   8.938 -1.3989 -1.6362 -1.7620
 3536TIP3   OH232166   6.086   1.423   6.418 -0.3741  0.1238  0.3605
 3536TIP3    H132167   6.021   1.408   6.487  1.2888  1.6724  2.4014
 3536TIP3    H232168   6.035   1.460   6.345 -1.8244  1.2634  1.8649
 3537TIP3   OH232169   3.910   3.143   6.600  0.2599  0.1677 -0.1005
 3537TIP3    H132170   3.960   3.205   6.547  0.0039  0.0576 -0.4814
 3537TIP3    H232171   3.929   3.167   6.690  1.2492 -0.0677 -0.2263
 3538TIP3   OH232172   0.935   2.587   0.638  0.1889  1.1291  0.5581
 3538TIP3    H132173   0.902   2.675   0.623 -1.6822  0.3930  0.0104
 3538TIP3    H232174   0.917   2.540   0.556 -1.4040 -0.4533  1.7251
 3539TIP3   OH232175   4.281   4.331   6.891  0.0776  0.0219  0.5271
 3539TIP3    H132176   4.255   4.404   6.835 -0.8011  1.0208  2.1537
 3539TIP3    H232177   4.213   4.328   6.959  0.1310 -2.2837  0.5569
 3540TIP3   OH232178   3.050   1.898   7.763  0.4456 -0.5626 -0.1329
 3540TIP3    H132179   3.114   1.839   7.804 -0.6440 -1.4967  0.2744
 3540TIP3    H232180   3.042   1.864   7.673  1.4269  0.3323 -0.5895
 3541TIP3   OH232181   6.119   3.702   1.587  0.0119  0.2958  0.4538
 3541TIP3    H132182   6.058   3.771   1.613 -0.2891  0.4156 -0.5227
 3541TIP3    H232183   6.124   3.710   1.491  1.2544  0.0288  0.4836
 3542TIP3   OH232184   5.642   6.720   0.035 -0.2945  1.0832  0.8299
 3542TIP3    H132185   5.548   6.702   0.040 -0.3880  1.5418  0.6745
 3542TIP3    H232186   5.649   6.802  -0.013  0.2294  0.6727  0.1810
 3543TIP3   OH232187   4.765   5.734   7.545 -0.4294  0.0118 -0.6290
 3543TIP3    H132188   4.819   5.791   7.600  0.8673 -0.5385 -1.2959
 3543TIP3    H232189   4.827   5.672   7.506 -1.7375 -1.6685 -0.1899
 3544TIP3   OH232190   6.125   6.337   8.899  0.2807  0.1636  0.0830
 3544TIP3    H132191   6.178   6.258   8.886  0.5031  0.6562 -2.5732
 3544TIP3    H232192   6.189   6.407   8.907  0.0497  0.3078  0.7581
 3545TIP3   OH232193   5.217   0.609   1.730 -0.1308  0.3916 -0.6239
 3545TIP3    H132194   5.169   0.687   1.704 -1.8186 -0.3798  0.0428
 3545TIP3    H232195   5.230   0.619   1.824 -1.7903 -0.8290 -0.2267
 3546TIP3   OH232196   4.558   4.990   8.806  0.9886 -0.1823 -0.4482
 3546TIP3    H132197   4.492   5.029   8.749 -0.6654 -0.7388  0.9936
 3546TIP3    H232198   4.568   5.054   8.877  2.1582 -0.0260 -0.7293
 3547TIP3   OH232199   4.296   5.875   1.729  0.1009  0.1365 -0.4422
 3547TIP3    H132200   4.244   5.826   1.666 -0.6955  0.0251  0.2853
 3547TIP3    H232201   4.366   5.815   1.754  1.5328  0.8068 -2.5534
 3548TIP3   OH232202   5.894   1.581   7.210  0.3628 -0.3401  0.5805
 3548TIP3    H132203   5.970   1.575   7.153  0.3355  0.2516  0.4793
 3548TIP3    H232204   5.842   1.503   7.189 -0.9005  1.0747 -2.0057
 3549TIP3   OH232205   5.181   5.728   0.507 -0.4120  0.3495 -0.2078
 3549TIP3    H132206   5.256   5.719   0.447 -1.2806 -0.0617 -1.2584
 3549TIP3    H232207   5.163   5.638   0.536 -1.6896  0.1727 -1.4719
 3550TIP3   OH232208   4.998   3.828   7.824 -0.3520  0.4052  0.2441
 3550TIP3    H132209   4.981   3.789   7.910 -1.5630 -0.7154 -0.4713
 3550TIP3    H232210   5.066   3.773   7.786 -1.5642 -0.6133 -0.4863
 3551TIP3   OH232211   3.874   1.003   0.971  0.0571  0.1200 -0.5436
 3551TIP3    H132212   3.962   0.991   0.936  0.2558 -1.4622  0.4060
 3551TIP3    H232213   3.822   0.935   0.928 -0.7107  1.0525 -1.1039
 3552TIP3   OH232214   2.517   3.000   6.913 -0.2519 -0.0556 -0.0552
 3552TIP3    H132215   2.556   2.919   6.880 -0.0816  0.2770 -0.6803
 3552TIP3    H232216   2.425   2.979   6.927 -0.5006  0.0008 -1.4735
 3553TIP3   OH232217   0.292   0.036   8.666 -1.0134  0.1529  0.4594
 3553TIP3    H132218   0.279   0.125   8.633 -0.1284 -0.3501 -1.4148
 3553TIP3    H232219   0.356   0.045   8.736  0.8665  0.8052 -1.2341
 3554TIP3   OH232220   5.972   3.316   6.632  0.1269  0.3833  0.1586
 3554TIP3    H132221   6.026   3.259   6.688  2.3876  3.3822  1.3377
 3554TIP3    H232222   5.989   3.285   6.543  1.4452 -0.6555  0.7283
 3555TIP3   OH232223   1.852   4.607   7.249 -0.1942 -0.5001 -0.2458
 3555TIP3    H132224   1.831   4.695   7.218 -4.3072 -0.9504  0.7918
 3555TIP3    H232225   1.854   4.553   7.169  1.5869  0.2827 -0.7964
 3556TIP3   OH232226   0.955   2.390   1.959  0.7766 -0.0182 -0.0551
 3556TIP3    H132227   1.022   2.457   1.973  0.4572  0.3162 -0.1241
 3556TIP3    H232228   0.905   2.388   2.041  1.2235 -0.6684  0.2079
 3557TIP3   OH232229   1.094   5.213   0.338  0.1496  0.0824  0.0863
 3557TIP3    H132230   1.142   5.295   0.326  2.4271 -0.9174  1.8363
 3557TIP3    H232231   1.129   5.154   0.271  0.0205 -0.1066  0.1845
 3558TIP3   OH232232   0.687   6.396   0.687 -0.9163  0.1329 -0.1796
 3558TIP3    H132233   0.724   6.462   0.627 -1.4345 -1.2832 -2.1494
 3558TIP3    H232234   0.635   6.447   0.749 -1.3296  1.6171 -1.6629
 3559TIP3   OH232235   6.585   6.059   7.435 -0.2103  0.2196  0.0202
 3559TIP3    H132236   6.506   6.035   7.386 -0.0062 -0.0756 -0.1705
 3559TIP3    H232237   6.554   6.121   7.500 -0.6593 -0.1179  0.1406
 3560TIP3   OH232238   5.214   3.939   6.537 -0.4222  0.2421 -0.1521
 3560TIP3    H132239   5.129   3.957   6.577  0.6823  1.8370  1.6167
 3560TIP3    H232240   5.278   3.984   6.592  1.6686 -1.3854 -1.0611
 3561TIP3   OH232241   1.922   4.139   2.089  0.1318  0.9947  0.1122
 3561TIP3    H132242   1.863   4.203   2.128 -0.5495  2.3958 -2.9320
 3561TIP3    H232243   2.004   4.186   2.076  0.3290  0.5692 -0.2030
 3562TIP3   OH232244   0.750   0.955   7.968 -0.5565 -0.6472 -0.2775
 3562TIP3    H132245   0.691   0.892   8.008  0.7632  0.1321  3.2698
 3562TIP3    H232246   0.693   1.018   7.924 -2.1399 -1.7384  0.1628
 3563TIP3   OH232247   5.707   4.179   1.735  0.0089 -0.4362  0.4658
 3563TIP3    H132248   5.653   4.107   1.703 -0.4863 -0.1510  0.6520
 3563TIP3    H232249   5.685   4.185   1.828  1.0105 -0.8882  0.7503
 3564TIP3   OH232250   1.044   2.593   8.721  0.5713  0.3477  0.0670
 3564TIP3    H132251   1.043   2.606   8.626  1.3321 -2.3838 -0.3995
 3564TIP3    H232252   0.982   2.658   8.754  0.3566  1.4476 -2.2737
 3565TIP3   OH232253   6.055   0.175   1.508 -0.0760 -0.1003 -0.1182
 3565TIP3    H132254   5.988   0.174   1.577 -0.6729 -1.5426 -0.6737
 3565TIP3    H232255   6.021   0.236   1.443  0.4954  1.2825  0.8202
 3566TIP3   OH232256   4.344   2.517   7.848 -0.1298 -0.4084  0.2768
 3566TIP3    H132257   4.261   2.489   7.887 -0.5149 -0.1206 -0.3114
 3566TIP3    H232258   4.407   2.514   7.919 -0.9898  0.9153  1.1469
 3567TIP3   OH232259   2.467   5.990   6.892  0.0396 -0.0591 -0.0842
 3567TIP3    H132260   2.467   5.897   6.916  0.2505 -0.5632 -1.8686
 3567TIP3    H232261   2.374   6.011   6.878  0.0974 -0.4245 -1.0990
 3568TIP3   OH232262   5.773   1.459   2.009 -0.2627 -0.3277  0.1414
 3568TIP3    H132263   5.771   1.543   2.054  0.4667 -0.6156  0.7145
 3568TIP3    H232264   5.865   1.445   1.986 -0.6198 -0.1405 -1.5407
 3569TIP3   OH232265   3.764   0.483   0.104  0.2553 -0.6035 -0.1990
 3569TIP3    H132266   3.758   0.575   0.130  0.9848 -0.5173 -0.3374
 3569TIP3    H232267   3.812   0.484   0.021  2.1470 -1.2663  0.8290
 3570TIP3   OH232268   0.600   3.810   6.704  0.1341  0.9234  0.1833
 3570TIP3    H132269   0.568   3.844   6.787  2.0040 -0.5443  1.5805
 3570TIP3    H232270   0.644   3.885   6.663  0.9309  1.1712  1.4574
 3571TIP3   OH232271   4.405   4.890   0.744  0.1281 -0.3481  0.1409
 3571TIP3    H132272   4.457   4.970   0.751  0.0599 -0.4354  2.1414
 3571TIP3    H232273   4.461   4.821   0.779 -1.2798 -0.4180  2.5082
 3572TIP3   OH232274   0.666   0.934   2.187 -0.4771  0.8500 -0.1854
 3572TIP3    H132275   0.719   0.962   2.112 -0.6905  1.6886 -0.0372
 3572TIP3    H232276   0.668   0.838   2.183  0.9654  0.8497 -0.2391
 3573TIP3   OH232277   1.552   1.438   8.946 -0.4117  0.2048  0.2665
 3573TIP3    H132278   1.465   1.403   8.964 -1.2228  1.0947 -1.6503
 3573TIP3    H232279   1.539   1.496   8.871  1.8716  0.2449 -0.1504
 3574TIP3   OH232280   0.042   5.923   8.025 -0.5802  0.5952 -0.1005
 3574TIP3    H132281   0.131   5.954   8.042  0.2638 -0.7064 -1.8659
 3574TIP3    H232282   0.008   5.981   7.957 -0.2437 -0.2421 -0.9991
 3575TIP3   OH232283   6.742   5.137   0.642  0.5361 -0.6948  0.1359
 3575TIP3    H132284   6.836   5.158   0.639  0.4490 -0.3639 -1.3563
 3575TIP3    H232285   6.702   5.211   0.687  0.9704 -0.7357  0.5919
 3576TIP3   OH232286   5.695   5.143   7.220 -0.3712  0.0543  0.2023
 3576TIP3    H132287   5.747   5.221   7.238 -0.1721 -0.0957  0.2726
 3576TIP3    H232288   5.628   5.173   7.158 -0.1980  0.2455  0.1071
 3577TIP3   OH232289   3.521   1.159   2.384 -0.3166 -0.1942 -0.1242
 3577TIP3    H132290   3.473   1.158   2.301 -3.0090 -0.8995  1.2959
 3577TIP3    H232291   3.548   1.250   2.396 -3.1920  0.7557 -0.1058
 3578TIP3   OH232292   0.384   1.009   6.974  0.5283 -0.0244 -1.1231
 3578TIP3    H132293   0.387   1.073   7.045 -0.0301 -1.1567 -0.0323
 3578TIP3    H232294   0.369   1.061   6.895  0.3230  1.2052 -0.3016
 3579TIP3   OH232295   4.453   1.741   6.835  0.7476 -0.1979 -0.6489
 3579TIP3    H132296   4.445   1.723   6.742 -2.3925 -1.7045 -0.1923
 3579TIP3    H232297   4.463   1.655   6.876 -1.5565  0.0685  0.6207
 3580TIP3   OH232298   1.994   1.135   0.798  0.2643 -0.3859  0.5036
 3580TIP3    H132299   1.926   1.113   0.734 -0.7726 -0.7935  1.7019
 3580TIP3    H232300   2.069   1.081   0.772  1.3106  2.2108 -2.6514
 3581TIP3   OH232301   6.396   2.245   1.183 -0.2147 -0.6323  0.1565
 3581TIP3    H132302   6.420   2.242   1.091  0.0976 -0.2862  0.2271
 3581TIP3    H232303   6.399   2.337   1.206 -0.6660 -0.6785  0.4165
 3582TIP3   OH232304   2.422   1.210   1.372 -0.2211 -0.1387  0.3743
 3582TIP3    H132305   2.460   1.294   1.348 -0.4208 -0.2151 -0.2194
 3582TIP3    H232306   2.400   1.168   1.289  0.5545 -1.0952  0.6270
 3583TIP3   OH232307   4.545   0.706   8.680  0.2852 -0.1424  0.8789
 3583TIP3    H132308   4.526   0.621   8.720  0.3944 -0.0395  1.1516
 3583TIP3    H232309   4.462   0.754   8.685 -0.4446 -1.0176 -1.3013
 3584TIP3   OH232310   4.801   5.637   0.980  0.7458  0.5764  0.5915
 3584TIP3    H132311   4.711   5.670   0.970  0.9253  0.8497 -0.1523
 3584TIP3    H232312   4.791   5.560   1.036 -0.0248  0.3107  0.1128
 3585TIP3   OH232313   1.815   0.731   1.688 -0.5149  0.4940 -0.4365
 3585TIP3    H132314   1.910   0.727   1.702 -0.5891 -1.4840 -0.2265
 3585TIP3    H232315   1.782   0.650   1.726 -2.4116  1.5325  0.2262
 3586TIP3   OH232316   5.439   4.921   7.966 -0.0561  0.0844  0.2048
 3586TIP3    H132317   5.493   4.949   8.039  4.7606 -1.8969 -2.1808
 3586TIP3    H232318   5.460   4.982   7.895 -1.2485 -0.5764 -0.7739
 3587TIP3   OH232319   3.328   5.178   6.465  0.0954  0.7690  0.3367
 3587TIP3    H132320   3.236   5.201   6.478 -0.8873  0.7921 -4.6739
 3587TIP3    H232321   3.369   5.258   6.432  1.1709  0.0345 -0.1793
 3588TIP3   OH232322   2.072   1.843   7.114  0.1725 -0.4857  0.2883
 3588TIP3    H132323   2.146   1.882   7.161 -0.0294 -1.5745  1.5738
 3588TIP3    H232324   1.995   1.883   7.154  0.0291  1.0031 -1.3691
 3589TIP3   OH232325   6.282   0.057   7.192  0.2187  0.5165 -0.3045
 3589TIP3    H132326   6.217   0.097   7.249  1.1179  0.8318  0.5405
 3589TIP3    H232327   6.274   0.105   7.110  0.4380  1.6294  0.2977
 3590TIP3   OH232328   5.745   0.241   6.335 -0.1070 -0.8103 -0.7052
 3590TIP3    H132329   5.790   0.315   6.376 -2.3844  0.8043 -0.8909
 3590TIP3    H232330   5.718   0.185   6.408 -1.0617  0.2123 -0.2353
 3591TIP3   OH232331   4.573   1.491   7.132 -0.2201 -0.4466 -0.8016
 3591TIP3    H132332   4.517   1.430   7.180 -1.6402  1.5848  0.2739
 3591TIP3    H232333   4.661   1.475   7.165 -0.4836 -2.0740 -0.7791
 3592TIP3   OH232334   5.337   1.522   8.174 -0.0646  0.0357 -0.1525
 3592TIP3    H132335   5.341   1.542   8.081 -0.3267  0.5029 -0.0641
 3592TIP3    H232336   5.416   1.471   8.191  0.7149  1.1461 -0.3429
 3593TIP3   OH232337   2.187   3.606   7.921 -0.4218  0.3719 -0.3803
 3593TIP3    H132338   2.113   3.565   7.876 -0.1409 -1.2018  0.4915
 3593TIP3    H232339   2.259   3.601   7.858 -0.1763 -1.3084 -0.0257
 3594TIP3   OH232340   4.309   4.580   1.950 -0.2575 -0.2014 -0.1419
 3594TIP3    H132341   4.375   4.562   1.883  1.2742 -1.9844  1.7483
 3594TIP3    H232342   4.315   4.507   2.011  0.0823  2.4400  3.2820
 3595TIP3   OH232343   5.084   6.252   7.939  0.1654  0.2440 -0.0248
 3595TIP3    H132344   5.100   6.263   8.033  0.8399  1.1645 -0.2276
 3595TIP3    H232345   5.005   6.197   7.933 -0.6131  1.2081  1.0860
 3596TIP3   OH232346   2.821   0.235   0.442 -0.3688  0.4267 -0.1885
 3596TIP3    H132347   2.770   0.281   0.375  0.6091  1.8920  0.0217
 3596TIP3    H232348   2.837   0.301   0.510 -0.2594 -0.6748  0.8961
 3597TIP3   OH232349   0.053   1.386   7.780 -0.1600 -0.0664  0.3685
 3597TIP3    H132350   0.020   1.457   7.835 -1.8269  0.7695 -1.5566
 3597TIP3    H232351  -0.013   1.317   7.788 -0.2675 -0.0532 -0.2917
 3598TIP3   OH232352   2.094   0.000   7.988  0.0671 -0.0127  0.3223
 3598TIP3    H132353   1.999   0.003   8.001 -0.2367 -1.0729 -1.3856
 3598TIP3    H232354   2.106  -0.059   7.914  2.1470 -0.7608  1.1861
 3599TIP3   OH232355   5.782   5.454   7.136 -0.7528  0.8933 -0.3353
 3599TIP3    H132356   5.845   5.400   7.088 -1.7650 -0.5623 -0.0634
 3599TIP3    H232357   5.777   5.535   7.085  0.1651  0.4167 -1.2204
 3600TIP3   OH232358   5.261   3.477   8.825  0.3559  0.2861 -0.0559
 3600TIP3    H132359   5.218   3.525   8.753 -0.6133  0.9214  0.9173
 3600TIP3    H232360   5.347   3.455   8.790  0.1141  1.0688 -1.2230
 3601TIP3   OH232361   1.737   4.853   1.261 -0.0720  0.0252 -0.3299
 3601TIP3    H132362   1.734   4.758   1.246 -2.9042 -0.1301  0.5208
 3601TIP3    H232363   1.754   4.890   1.174  0.4659 -1.2466 -0.7905
 3602TIP3   OH232364   0.182   0.320   0.624 -0.5993  0.8619  0.2427
 3602TIP3    H132365   0.266   0.278   0.606 -1.3154  0.2440 -1.9796
 3602TIP3    H232366   0.164   0.372   0.546 -2.7095  0.2607  0.2737
 3603TIP3   OH232367   2.384   5.384   8.399 -0.3476 -0.5928 -0.0151
 3603TIP3    H132368   2.454   5.321   8.414  0.0908  0.2216  1.6051
 3603TIP3    H232369   2.423   5.451   8.343 -0.2488 -0.8254 -0.2234
 3604TIP3   OH232370   1.510   6.170   8.154 -0.0333  0.4928 -0.1651
 3604TIP3    H132371   1.522   6.223   8.076  0.7091 -1.1374 -1.1894
 3604TIP3    H232372   1.592   6.179   8.203  0.2703 -0.0673 -0.5669
 3605TIP3   OH232373   0.689   3.355   7.506 -0.1780 -0.2324  0.1508
 3605TIP3    H132374   0.764   3.353   7.445 -0.1799  2.6122 -0.0901
 3605TIP3    H232375   0.645   3.271   7.493  0.8914 -0.4852 -2.4280
 3606TIP3   OH232376   1.063   5.707   8.290  0.0056  0.4301 -0.0939
 3606TIP3    H132377   1.104   5.776   8.341 -0.9815 -0.1183  1.4961
 3606TIP3    H232378   1.014   5.754   8.222  0.1767  1.2502  0.3354
 3607TIP3   OH232379   4.296   0.402   0.898  0.1214 -0.0711  0.0253
 3607TIP3    H132380   4.215   0.410   0.948  0.8867 -0.4383  1.3724
 3607TIP3    H232381   4.272   0.352   0.820 -0.5758 -1.8227  1.3130
 3608TIP3   OH232382   2.026   0.724   2.202 -0.6413  0.2266 -0.4214
 3608TIP3    H132383   2.030   0.675   2.284  1.0935 -2.5449 -1.9880
 3608TIP3    H232384   1.964   0.675   2.148  1.3992 -0.5754 -2.1672
 3609TIP3   OH232385   5.820   3.566   8.908  0.1110 -0.5215 -0.5046
 3609TIP3    H132386   5.865   3.646   8.933 -0.5224 -0.9268  2.3043
 3609TIP3    H232387   5.889   3.509   8.874  0.6912  0.8515 -1.7622
 3610TIP3   OH232388   6.305   4.368   6.440 -0.6132  0.0116 -0.0491
 3610TIP3    H132389   6.240   4.333   6.379  1.2260  0.5094 -2.4264
 3610TIP3    H232390   6.329   4.293   6.495 -1.7092 -0.6820 -0.4852
 3611TIP3   OH232391   1.544   0.935   8.010  0.2343  0.0902  0.3674
 3611TIP3    H132392   1.507   0.948   8.097 -2.2141 -1.7425 -0.2698
 3611TIP3    H232393   1.468   0.929   7.953  1.7558  0.5926 -1.8133
 3612TIP3   OH232394   3.713   3.842   8.743  0.1698  0.0605 -0.0326
 3612TIP3    H132395   3.790   3.883   8.782 -0.2847 -0.3530  1.3294
 3612TIP3    H232396   3.708   3.881   8.655  0.7902  1.5340  0.5517
 3613TIP3   OH232397   4.962   5.252   2.100 -0.2702  0.2084 -0.4058
 3613TIP3    H132398   4.952   5.157   2.098 -1.2424  0.2811 -2.4307
 3613TIP3    H232399   4.897   5.281   2.164 -0.2288 -0.4748 -0.0442
 3614TIP3   OH232400   4.917   3.970   0.018 -0.4427 -0.2689  0.4679
 3614TIP3    H132401   4.928   3.876   0.007  0.9698 -0.1707  0.9354
 3614TIP3    H232402   4.858   3.996  -0.053  0.7471 -1.1871 -0.8993
 3615TIP3   OH232403   5.033   1.076   7.131 -0.3647  0.0434 -0.1163
 3615TIP3    H132404   5.077   1.055   7.049 -1.2764 -0.9047 -0.3804
 3615TIP3    H232405   4.952   1.119   7.104  0.0260  1.0964  0.3420
 3616TIP3   OH232406   2.391   3.230   8.609 -0.4619  0.0467 -0.1728
 3616TIP3    H132407   2.423   3.224   8.519  1.2671  0.6403  0.3773
 3616TIP3    H232408   2.369   3.322   8.621  0.5851  0.2360  0.4057
 3617TIP3   OH232409   2.261   5.825   1.938 -0.1725  0.1246  0.6246
 3617TIP3    H132410   2.345   5.835   1.984 -0.5989 -0.2285  1.5187
 3617TIP3    H232411   2.275   5.753   1.877 -0.3509 -1.2489  2.1306
 3618TIP3   OH232412   1.234   5.423   2.161  0.5005 -0.0939  0.4387
 3618TIP3    H132413   1.306   5.462   2.211  0.2206  0.4065  0.4570
 3618TIP3    H232414   1.277   5.363   2.099  0.8247 -1.0551  1.5566
 3619TIP3   OH232415   1.537   1.176   1.045  0.0985 -0.1935  0.0117
 3619TIP3    H132416   1.623   1.136   1.032  0.4652  1.2323 -2.7098
 3619TIP3    H232417   1.554   1.252   1.101  0.4722 -0.4296  0.2187
 3620TIP3   OH232418   4.562   1.178   0.142 -0.1622  0.0030  0.3847
 3620TIP3    H132419   4.631   1.238   0.114  1.5336 -1.6479  0.8058
 3620TIP3    H232420   4.588   1.093   0.107 -1.6340 -0.7967  1.1386
 3621TIP3   OH232421   4.448   2.977   7.466  0.1447  0.4892 -0.6665
 3621TIP3    H132422   4.467   3.050   7.524 -1.2331  1.0816 -0.9112
 3621TIP3    H232423   4.382   2.926   7.513 -2.0769  1.7504 -2.2098
 3622TIP3   OH232424   6.500   4.264   0.386 -0.3221 -0.6174  0.2473
 3622TIP3    H132425   6.405   4.266   0.398 -0.5609  1.0170 -1.4288
 3622TIP3    H232426   6.522   4.354   0.361  1.7608 -0.8462  1.0830
 3623TIP3   OH232427   0.041   5.702   8.707  0.2952 -0.0012  0.5644
 3623TIP3    H132428  -0.018   5.670   8.638 -0.1844  3.5588 -0.9361
 3623TIP3    H232429   0.127   5.706   8.666  0.7160 -0.9152  1.3048
 3624TIP3   OH232430   3.357   3.294   8.848  0.0663 -0.1519 -0.5311
 3624TIP3    H132431   3.369   3.331   8.760 -0.0383  2.0166  0.2902
 3624TIP3    H232432   3.440   3.250   8.866  0.4202  0.1221 -1.4033
 3625TIP3   OH232433   4.301   1.576   1.907 -0.7365 -0.9738  0.3947
 3625TIP3    H132434   4.251   1.510   1.956 -2.1496 -0.8204 -0.7729
 3625TIP3    H232435   4.345   1.527   1.838 -0.0556 -0.9693  0.8175
 3626TIP3   OH232436   1.248   1.228   8.215  0.8640 -0.2477  0.2761
 3626TIP3    H132437   1.154   1.233   8.233  0.9854 -1.3180  1.2931
 3626TIP3    H232438   1.263   1.136   8.192  1.8067 -0.2940  1.0186
 3627TIP3   OH232439   3.349   5.123   0.550  0.1632  0.5220 -0.1471
 3627TIP3    H132440   3.301   5.206   0.551  1.8072  1.5352 -1.3606
 3627TIP3    H232441   3.300   5.069   0.487 -1.0108  0.4809  0.7695
 3628TIP3   OH232442   2.838   3.909   0.177  0.2121  0.4239 -0.3851
 3628TIP3    H132443   2.893   3.988   0.183  1.3799 -0.4074  0.4996
 3628TIP3    H232444   2.876   3.850   0.242 -0.8370 -0.7567 -0.8220
 3629TIP3   OH232445   5.443   3.508   1.883  0.2252 -0.0652 -0.2003
 3629TIP3    H132446   5.447   3.414   1.901  1.8838 -0.1293 -0.6867
 3629TIP3    H232447   5.363   3.537   1.925  0.0845 -1.5619  0.6487
 3630TIP3   OH232448   3.450   6.455   7.825 -0.6313 -0.0105  0.2179
 3630TIP3    H132449   3.467   6.542   7.860 -0.4810  0.7235 -1.5416
 3630TIP3    H232450   3.356   6.454   7.807 -0.3774  0.4641 -1.3301
 3631TIP3   OH232451   3.969   2.726   6.476 -0.2299  0.1711  0.6203
 3631TIP3    H132452   3.900   2.791   6.490  1.1054  1.9359 -0.4524
 3631TIP3    H232453   3.927   2.642   6.491 -2.0800  1.2675  1.9623
 3632TIP3   OH232454   0.825   2.217   0.581  0.1767 -0.3951  0.2043
 3632TIP3    H132455   0.891   2.244   0.645  0.6493 -2.9628  0.9110
 3632TIP3    H232456   0.741   2.240   0.622  0.5341  0.2647  0.5859
 3633TIP3   OH232457   2.653   0.641   6.627  0.2041  0.0725 -0.7311
 3633TIP3    H132458   2.686   0.665   6.714 -2.4605  0.3640  0.2830
 3633TIP3    H232459   2.560   0.662   6.630 -0.4575 -2.1082 -2.8731
 3634TIP3   OH232460   5.451   4.290   7.994  0.0166 -0.0203 -0.0006
 3634TIP3    H132461   5.400   4.370   7.984  1.8180  0.9786 -1.9555
 3634TIP3    H232462   5.386   4.219   7.988 -1.3520  1.2206 -0.5433
 3635TIP3   OH232463   5.822   1.436   8.395  0.2273 -0.4114 -0.2900
 3635TIP3    H132464   5.874   1.418   8.473  0.9250  0.3742 -0.5626
 3635TIP3    H232465   5.886   1.461   8.328 -0.3547 -1.1037 -1.1322
 3636TIP3   OH232466   0.443   3.916   0.900 -0.0116  0.1609  0.1764
 3636TIP3    H132467   0.536   3.926   0.923  0.0000  0.4287  0.0174
 3636TIP3    H232468   0.396   3.952   0.975  0.0200  0.4655  0.0522
 3637TIP3   OH232469   3.134   5.970   8.844 -0.0883  0.7976  0.2228
 3637TIP3    H132470   3.186   6.049   8.831 -0.3424  0.8558 -0.4888
 3637TIP3    H232471   3.133   5.956   8.939  1.3574  0.6928  0.2361
 3638TIP3   OH232472   6.652   3.411   0.343 -0.0426  0.4010 -0.3666
 3638TIP3    H132473   6.662   3.318   0.323 -1.2690  0.0942  0.3706
 3638TIP3    H232474   6.694   3.456   0.270  0.5483 -0.7286 -0.7377
 3639TIP3   OH232475   3.773   2.037   7.412 -0.2304  0.0585  0.3141
 3639TIP3    H132476   3.688   2.009   7.445 -0.2287  0.2999  0.5249
 3639TIP3    H232477   3.788   1.982   7.335  0.3217 -1.3478  1.3949
 3640TIP3   OH232478   4.566   4.414   0.155 -0.9833  0.2966 -0.2975
 3640TIP3    H132479   4.535   4.482   0.095 -0.6763 -0.3742 -1.2429
 3640TIP3    H232480   4.486   4.380   0.195 -1.3905 -0.4344 -1.6472
 3641TIP3   OH232481   5.722   2.706   1.636  0.2279  0.5789 -0.5838
 3641TIP3    H132482   5.687   2.770   1.698 -0.2075  1.1389 -1.3910
 3641TIP3    H232483   5.741   2.629   1.689 -1.3369  0.5903  0.0377
 3642TIP3   OH232484   2.401   4.092   0.589  0.0680  0.1068  0.1785
 3642TIP3    H132485   2.353   4.033   0.647  0.1865  0.3938  0.5700
 3642TIP3    H232486   2.343   4.166   0.575 -0.1681 -0.1914 -0.4878
 3643TIP3   OH232487   2.493   5.969   0.326  0.2219 -0.1614  0.2033
 3643TIP3    H132488   2.517   5.893   0.273  1.0357  0.8862 -0.9966
 3643TIP3    H232489   2.412   6.001   0.287  1.3129  1.1633 -1.0672
 3644TIP3   OH232490   4.670   1.588   7.800 -0.0858 -0.4081  0.6213
 3644TIP3    H132491   4.650   1.522   7.866  0.8513 -1.0602  0.2592
 3644TIP3    H232492   4.761   1.572   7.776 -0.1169  0.4522 -0.1165
 3645TIP3   OH232493   1.710   0.281   7.225  0.5146 -0.0278 -0.2184
 3645TIP3    H132494   1.638   0.222   7.248  2.2479 -2.1627  0.0106
 3645TIP3    H232495   1.667   0.357   7.185 -1.8534 -1.1129  0.1160
 3646TIP3   OH232496   4.558   2.225   1.185 -0.2505  0.5168 -0.2698
 3646TIP3    H132497   4.544   2.275   1.266  0.1505  0.5548 -0.2213
 3646TIP3    H232498   4.607   2.148   1.212 -1.6260 -0.3554 -0.2133
 3647TIP3   OH232499   5.607   6.488   2.092 -0.3689  0.4533 -0.6500
 3647TIP3    H132500   5.605   6.538   2.173 -2.1941 -1.1064  0.3541
 3647TIP3    H232501   5.532   6.521   2.042 -0.6035 -0.1522 -0.6998
 3648TIP3   OH232502   3.721   5.724   2.028 -0.1327 -0.0549  0.1913
 3648TIP3    H132503   3.751   5.653   1.971 -0.2881 -0.0889  0.1526
 3648TIP3    H232504   3.628   5.708   2.040  0.1028 -0.7008  1.3772
 3649TIP3   OH232505   4.247   0.225   1.174 -0.1334 -0.1031  0.7106
 3649TIP3    H132506   4.176   0.288   1.162 -0.3619 -0.5740 -0.5281
 3649TIP3    H232507   4.316   0.275   1.218 -0.6656  0.7518  0.5978
 3650TIP3   OH232508   1.358   2.168   0.774  0.2614 -0.0509 -0.8303
 3650TIP3    H132509   1.315   2.090   0.808 -1.2305  1.3432  0.6444
 3650TIP3    H232510   1.393   2.213   0.852  1.4645  0.5593 -1.6769
 3651TIP3   OH232511   5.765   5.164   8.895 -0.1156 -0.1578  0.2695
 3651TIP3    H132512   5.781   5.236   8.957  0.4016 -1.4019  1.6539
 3651TIP3    H232513   5.681   5.185   8.855 -0.1349  1.0436  0.8856
 3652TIP3   OH232514   2.538   4.094   8.400  0.3034  0.2476  0.2712
 3652TIP3    H132515   2.533   4.036   8.325  1.0864 -2.7854  2.3892
 3652TIP3    H232516   2.609   4.155   8.379  1.5643 -1.5247 -0.8112
 3653TIP3   OH232517   3.125   6.596   8.561  0.7601 -0.1034  0.1908
 3653TIP3    H132518   3.187   6.523   8.556  0.0916 -0.5844 -2.4105
 3653TIP3    H232519   3.144   6.637   8.645  1.6937 -2.7931  1.4087
 3654TIP3   OH232520   6.166   0.220   7.012  0.1496 -0.3129 -0.2841
 3654TIP3    H132521   6.122   0.291   7.058 -1.7506 -1.6941  0.1722
 3654TIP3    H232522   6.197   0.259   6.931 -1.2466  0.9580 -0.2446
 3655TIP3   OH232523   0.179   2.405   0.937 -0.4777 -0.0830  0.1803
 3655TIP3    H132524   0.269   2.376   0.954 -0.2232  0.2455 -0.5554
 3655TIP3    H232525   0.180   2.498   0.958 -1.0494 -0.3852  1.6295
 3656TIP3   OH232526   5.888   1.533   8.900 -0.0556  0.4765 -0.1196
 3656TIP3    H132527   5.962   1.540   8.841  1.7129  0.0990  1.9113
 3656TIP3    H232528   5.902   1.450   8.947 -1.7288  0.4302  0.3975
 3657TIP3   OH232529   0.053   5.802   0.156 -0.1641 -0.0084 -0.3970
 3657TIP3    H132530  -0.022   5.805   0.215 -0.9731 -0.0770 -1.3857
 3657TIP3    H232531   0.084   5.892   0.152 -0.7922  0.2000 -0.7101
 3658TIP3   OH232532   2.050   0.366   0.011 -0.5904 -0.5348 -0.2690
 3658TIP3    H132533   2.013   0.452   0.030  1.1994 -0.0962  1.5679
 3658TIP3    H232534   2.088   0.374  -0.076 -0.1134  0.6763  0.0329
 3659TIP3   OH232535   3.935   3.935   1.273 -0.3681  0.5515  0.7707
 3659TIP3    H132536   3.966   3.980   1.194  0.3886 -0.2143  0.6108
 3659TIP3    H232537   3.943   4.001   1.343 -1.2513  1.3038  0.1882
 3660TIP3   OH232538   2.955   4.942   1.531 -0.1792  0.3644 -1.0861
 3660TIP3    H132539   2.948   5.006   1.461  1.0193 -0.5104 -2.0554
 3660TIP3    H232540   2.972   4.859   1.486  4.7143  0.3270  0.2280
 3661TIP3   OH232541   1.554   0.627   1.842  0.3111 -0.7326 -0.1456
 3661TIP3    H132542   1.504   0.632   1.922 -0.4143 -1.5410 -0.5331
 3661TIP3    H232543   1.566   0.533   1.827  1.4271 -0.5693 -0.3771
 3662TIP3   OH232544   6.718   4.439   1.499 -0.6331 -0.4911  0.3811
 3662TIP3    H132545   6.630   4.403   1.509 -0.9350 -0.3977 -1.5384
 3662TIP3    H232546   6.775   4.362   1.497 -1.0367 -0.7788 -1.4741
 3663TIP3   OH232547   0.208   0.283   2.316 -0.2006 -0.4578 -0.4142
 3663TIP3    H132548   0.226   0.195   2.349  0.8350  0.0076  0.3105
 3663TIP3    H232549   0.128   0.310   2.361 -0.8516 -1.2469 -1.0840
 3664TIP3   OH232550   0.650   5.195   7.782  0.6134  0.6601 -0.0854
 3664TIP3    H132551   0.574   5.222   7.835  0.9982  1.1374  0.2308
 3664TIP3    H232552   0.619   5.117   7.735  0.4563 -0.1905  1.3418
 3665TIP3   OH232553   6.191   3.583   8.361  0.2841  0.4284  0.1127
 3665TIP3    H132554   6.202   3.489   8.349  0.6728  0.3294  1.1310
 3665TIP3    H232555   6.136   3.591   8.440  1.3577  1.0622  0.8155
 3666TIP3   OH232556   0.913   4.673   1.084 -0.0098 -0.5782 -0.1964
 3666TIP3    H132557   0.946   4.760   1.060 -1.1185 -0.5631 -1.8617
 3666TIP3    H232558   0.821   4.687   1.106  0.1662 -1.1299  0.9308
 3667TIP3   OH232559   5.733   2.135   7.138  1.0541  0.0670  0.1898
 3667TIP3    H132560   5.644   2.141   7.174  0.4026  0.8829 -1.4450
 3667TIP3    H232561   5.758   2.044   7.151 -0.4923 -0.4702 -0.3568
 3668TIP3   OH232562   0.430   2.929   7.150  0.1592 -0.2859 -0.4404
 3668TIP3    H132563   0.363   2.861   7.158 -0.0164 -0.0557  0.1283
 3668TIP3    H232564   0.458   2.946   7.240  0.6988 -0.0961 -0.6391
 3669TIP3   OH232565   1.288   2.394   0.634  0.2552 -0.2549  0.2750
 3669TIP3    H132566   1.317   2.315   0.680 -0.5735 -1.1102 -0.6173
 3669TIP3    H232567   1.261   2.363   0.547  1.7396  1.2909 -0.8110
 3670TIP3   OH232568   1.229   0.223   8.823 -0.2694 -0.5521  0.4922
 3670TIP3    H132569   1.207   0.136   8.789 -0.3614 -0.4009  0.1641
 3670TIP3    H232570   1.157   0.246   8.881 -0.0005 -0.9108  0.9863
 3671TIP3   OH232571   5.224   1.117   1.335  0.4515 -0.4650  0.1247
 3671TIP3    H132572   5.241   1.039   1.282 -0.9192 -0.0180 -1.0035
 3671TIP3    H232573   5.242   1.088   1.425  0.0491 -2.0526 -0.2712
 3672TIP3   OH232574   4.215   1.965   0.328 -0.0610 -0.2659 -0.1271
 3672TIP3    H132575   4.137   1.910   0.324 -0.1574 -0.1647  0.2872
 3672TIP3    H232576   4.188   2.049   0.292 -0.2588 -0.1053  0.3830
 3673TIP3   OH232577   0.607   1.937   8.788  0.2262 -0.1117 -0.4262
 3673TIP3    H132578   0.700   1.949   8.772  0.4545 -0.7227  0.4004
 3673TIP3    H232579   0.571   2.026   8.787  1.1772  0.3575  1.3680
 3674TIP3   OH232580   2.945   5.076   0.764 -0.4005  0.0082  0.1847
 3674TIP3    H132581   2.866   5.127   0.784  0.4869  0.5926  2.5897
 3674TIP3    H232582   2.988   5.066   0.849  1.2288 -1.8135 -0.7912
 3675TIP3   OH232583   6.060   0.634   1.343 -0.3953 -0.6125 -0.3187
 3675TIP3    H132584   6.103   0.562   1.297  0.7112 -1.3312  1.7447
 3675TIP3    H232585   6.131   0.693   1.367 -1.1516  0.5755 -0.8832
 3676TIP3   OH232586   2.103   4.554   0.879 -0.3324 -0.1656  0.0314
 3676TIP3    H132587   2.116   4.556   0.784  2.4114 -0.0936  0.3133
 3676TIP3    H232588   2.082   4.645   0.902  2.5665  0.6715 -0.2056
 3677TIP3   OH232589   3.741   1.622   1.304  0.2359 -0.4561 -0.4718
 3677TIP3    H132590   3.664   1.674   1.282  0.8865  0.0672 -1.6140
 3677TIP3    H232591   3.803   1.639   1.233  0.9633 -1.7873 -0.1983
 3678TIP3   OH232592   4.770   2.032   7.461  0.7205  0.6521 -0.1313
 3678TIP3    H132593   4.789   1.939   7.467  1.6444  0.9200  1.8772
 3678TIP3    H232594   4.687   2.037   7.413 -0.5752 -1.3698  1.7137
 3679TIP3   OH232595   5.575   2.277   8.642  0.0325  0.0355  0.0260
 3679TIP3    H132596   5.560   2.354   8.586 -0.0507 -0.2425 -0.3376
 3679TIP3    H232597   5.540   2.302   8.727  0.0964  0.4405 -0.0642
 3680TIP3   OH232598   0.858   3.793   7.799 -0.0470 -0.0764 -0.3943
 3680TIP3    H132599   0.837   3.822   7.888 -0.5794 -0.0153 -0.5395
 3680TIP3    H232600   0.824   3.704   7.793  0.1979 -0.1670 -0.4618
 3681TIP3   OH232601   4.303   0.238   1.693 -0.4890  0.2106  0.3317
 3681TIP3    H132602   4.266   0.283   1.769  1.1355  1.5349  0.3852
 3681TIP3    H232603   4.237   0.248   1.624 -1.6124 -0.2870  1.2904
 3682TIP3   OH232604   3.590   3.526   8.341 -0.4632 -1.2881 -0.1178
 3682TIP3    H132605   3.682   3.501   8.333  0.0194  0.1465  0.6877
 3682TIP3    H232606   3.592   3.615   8.375 -2.1565 -0.9814 -0.7307
 3683TIP3   OH232607   0.270   6.571   0.094 -0.3352  0.4799 -0.6940
 3683TIP3    H132608   0.209   6.567   0.167  1.2595  0.2891  0.7089
 3683TIP3    H232609   0.216   6.589   0.017 -2.4712 -2.3530 -0.0082
 3684TIP3   OH232610   1.855   2.645   8.878 -0.3625 -0.2359 -0.3509
 3684TIP3    H132611   1.801   2.668   8.954  0.4894 -0.9423  0.5024
 3684TIP3    H232612   1.874   2.552   8.890  1.3658  0.0822 -0.4076
 3685TIP3   OH232613   1.700   3.607   8.088 -0.3898 -0.4486  0.0547
 3685TIP3    H132614   1.626   3.625   8.030 -0.9289  3.0120  1.5499
 3685TIP3    H232615   1.756   3.685   8.080  2.2234 -2.1616  0.3379
 3686TIP3   OH232616   1.372   2.627   7.219  0.3871  0.5914 -0.0296
 3686TIP3    H132617   1.423   2.703   7.245  0.4013  0.2295  1.0437
 3686TIP3    H232618   1.402   2.557   7.277  0.7568 -0.3799 -1.3408
 3687TIP3   OH232619   6.144   5.722   7.758  0.5895 -0.3802 -0.2008
 3687TIP3    H132620   6.068   5.749   7.705  0.3583 -0.6480 -0.0072
 3687TIP3    H232621   6.150   5.628   7.744 -0.0299 -0.6022  0.9756
 3688TIP3   OH232622   0.316   1.964   0.373  0.1296 -0.2946 -0.1989
 3688TIP3    H132623   0.292   1.927   0.288 -2.5702 -1.4234  0.9378
 3688TIP3    H232624   0.367   1.894   0.416 -1.9498 -1.4165  0.5810
 3689TIP3   OH232625   5.286   2.889   8.685  0.1810  0.1189  0.3959
 3689TIP3    H132626   5.196   2.881   8.717  0.1358  1.1869  0.5857
 3689TIP3    H232627   5.311   2.979   8.706  0.9681  0.1286 -0.4887
 3690TIP3   OH232628   4.080   0.069   1.724  0.2808  0.3672 -0.1639
 3690TIP3    H132629   4.176   0.078   1.722  0.2525  0.6474 -1.0625
 3690TIP3    H232630   4.061   0.023   1.805  1.2456 -0.4600 -0.3897
 3691TIP3   OH232631   0.431   3.686   7.325  0.2241  0.3003 -0.4979
 3691TIP3    H132632   0.502   3.667   7.387 -0.0629 -0.3761 -0.3620
 3691TIP3    H232633   0.377   3.752   7.369  0.4240  0.3586 -0.3388
 3692TIP3   OH232634   3.437   1.083   2.615  0.2496  0.1137  0.5010
 3692TIP3    H132635   3.469   1.094   2.526  2.3863 -0.0050  1.2055
 3692TIP3    H232636   3.419   0.989   2.623 -2.0463  0.4103 -0.4146
 3693TIP3   OH232637   4.890   3.770   1.654 -0.0547 -0.0859  0.3021
 3693TIP3    H132638   4.958   3.738   1.713  0.0456 -1.2499 -0.4106
 3693TIP3    H232639   4.813   3.780   1.710  0.5106  0.5735  0.9742
 3694TIP3   OH232640   4.625   2.353   8.126  0.1253 -0.0901 -0.2474
 3694TIP3    H132641   4.547   2.317   8.170 -0.1972 -0.1527 -0.8588
 3694TIP3    H232642   4.680   2.276   8.110  1.1071  0.1331  1.6669
 3695TIP3   OH232643   4.367   5.235   0.796  0.5744  0.0403 -0.5220
 3695TIP3    H132644   4.296   5.234   0.731  2.2775 -1.2916 -2.5179
 3695TIP3    H232645   4.329   5.193   0.873 -0.5316 -1.6711 -1.9152
 3696TIP3   OH232646   6.546   3.576   8.297  0.0542  0.0297 -0.0876
 3696TIP3    H132647   6.533   3.484   8.322  1.4890 -0.2575 -0.2954
 3696TIP3    H232648   6.591   3.571   8.212  1.4397  0.8896  0.5709
 3697TIP3   OH232649   2.356   3.405   0.153 -0.0724  0.7741 -0.1788
 3697TIP3    H132650   2.449   3.413   0.135  0.0091 -0.9978 -0.7439
 3697TIP3    H232651   2.328   3.330   0.100 -1.6087  0.6698  0.7238
 3698TIP3   OH232652   6.708   5.482   8.307  0.2955  0.3234 -0.6566
 3698TIP3    H132653   6.731   5.535   8.231  2.5198  0.5434  0.0656
 3698TIP3    H232654   6.793   5.456   8.343 -0.7122 -0.6481  1.1375
 3699TIP3   OH232655   0.034   5.013   7.375  0.4046  0.0712  0.0066
 3699TIP3    H132656  -0.015   4.985   7.298 -1.1049  2.5613 -0.0258
 3699TIP3    H232657   0.032   4.936   7.433  0.3437 -1.3664 -1.8061
 3700TIP3   OH232658   1.757   5.381   1.431  0.1976  0.1222 -0.2422
 3700TIP3    H132659   1.736   5.401   1.340  0.8822 -0.6237 -0.5822
 3700TIP3    H232660   1.853   5.384   1.435  0.2577 -1.3085  0.0761
 3701TIP3   OH232661   0.822   4.791   1.413  0.0313  0.3328  0.3783
 3701TIP3    H132662   0.749   4.836   1.456  0.1798  0.3393  0.6251
 3701TIP3    H232663   0.792   4.777   1.323 -0.1442  0.6333  0.3887
 3702TIP3   OH232664   6.573   4.437   8.066 -0.1782 -0.3156 -0.2887
 3702TIP3    H132665   6.542   4.468   7.981 -2.1898 -0.7284  0.2526
 3702TIP3    H232666   6.571   4.514   8.122  1.9397  0.1485 -0.7623
 3703TIP3   OH232667   0.613   5.992   6.937 -0.0993  0.0030 -0.1592
 3703TIP3    H132668   0.541   6.022   6.882  1.6101 -0.1953 -2.6895
 3703TIP3    H232669   0.626   5.901   6.912  0.3605 -0.2863  1.0508
 3704TIP3   OH232670   3.741   0.330   7.811  0.2050 -0.0249  0.0346
 3704TIP3    H132671   3.815   0.386   7.832 -0.2059  1.1612 -1.5302
 3704TIP3    H232672   3.694   0.377   7.742 -0.9106 -1.6732 -0.3810
 3705TIP3   OH232673   5.512   0.050   7.950 -0.0034  0.1940 -0.2624
 3705TIP3    H132674   5.426   0.045   7.992 -0.9881  3.7418 -1.5335
 3705TIP3    H232675   5.571   0.004   8.010 -2.5229 -1.3761  1.2104
 3706TIP3   OH232676   5.980   1.912   0.181  0.0905 -0.4157  0.7072
 3706TIP3    H132677   5.940   1.854   0.246 -1.5764 -1.8701 -1.5111
 3706TIP3    H232678   5.964   1.870   0.097  0.2730  2.4491 -0.8796
 3707TIP3   OH232679   1.947   5.338   2.186 -0.4873  0.1752  0.0230
 3707TIP3    H132680   1.894   5.417   2.180  1.0941  1.3536  1.0865
 3707TIP3    H232681   2.037   5.367   2.173  0.4035 -1.0440  2.6788
 3708TIP3   OH232682   1.335   1.912   7.657  0.2173 -0.1642  0.1973
 3708TIP3    H132683   1.373   1.843   7.603 -0.4505 -1.6909  1.5773
 3708TIP3    H232684   1.247   1.881   7.677  0.8950 -0.4699  3.3378
 3709TIP3   OH232685   1.363   1.339   8.437  0.2697  0.7728 -0.1290
 3709TIP3    H132686   1.410   1.259   8.461 -0.7161  0.4365  0.7881
 3709TIP3    H232687   1.302   1.311   8.369 -0.7929  0.4967  0.9134
 3710TIP3   OH232688   3.858   1.692   6.999 -0.0687 -0.7326  0.1169
 3710TIP3    H132689   3.781   1.726   7.044  0.0506  0.2720 -0.4078
 3710TIP3    H232690   3.908   1.770   6.975  1.2278 -1.3673  0.6317
 3711TIP3   OH232691   5.601   0.522   7.240  0.0785 -0.3752  0.0891
 3711TIP3    H132692   5.619   0.594   7.180  0.9385  1.0745  1.9696
 3711TIP3    H232693   5.536   0.469   7.195  1.6070 -0.0984 -2.6354
 3712TIP3   OH232694   2.877   1.170   8.932 -0.4285  0.5141  0.2551
 3712TIP3    H132695   2.911   1.240   8.988 -2.2242  1.5673  0.0890
 3712TIP3    H232696   2.869   1.094   8.990  0.3948  0.7820  0.7254
 3713TIP3   OH232697   4.489   4.943   6.848 -0.0255  0.1026  0.5688
 3713TIP3    H132698   4.474   4.949   6.942 -0.5142  2.4913  0.4119
 3713TIP3    H232699   4.407   4.973   6.808 -0.2601 -1.9857 -0.6967
 3714TIP3   OH232700   1.997   3.868   2.191 -0.4021  0.9058 -0.3666
 3714TIP3    H132701   1.941   3.943   2.166  0.6154  1.8015 -0.0289
 3714TIP3    H232702   2.078   3.908   2.222  0.3421 -0.3707 -0.6077
 3715TIP3   OH232703   6.220   4.633   7.962  0.0041 -0.1461  0.2940
 3715TIP3    H132704   6.127   4.647   7.943 -0.2550 -0.7009  1.1138
 3715TIP3    H232705   6.236   4.680   8.044  0.2349 -0.7791  0.6181
 3716TIP3   OH232706   0.947   5.873   1.973  0.8677 -0.4073 -0.3187
 3716TIP3    H132707   0.937   5.951   2.027  0.9621  0.3897 -1.3997
 3716TIP3    H232708   0.861   5.830   1.977 -0.0650  1.1688 -1.7716
 3717TIP3   OH232709   2.198   2.969   0.925 -0.2132 -0.2227 -0.1431
 3717TIP3    H132710   2.175   2.967   1.018  0.6069 -0.1743  0.0674
 3717TIP3    H232711   2.183   2.880   0.894  0.5394 -0.5076  0.2957
 3718TIP3   OH232712   5.533   3.772   6.250 -0.0627 -0.0949  0.1605
 3718TIP3    H132713   5.606   3.732   6.297  0.3197 -0.5393 -0.7884
 3718TIP3    H232714   5.527   3.860   6.286  1.6845  0.3457 -0.5305
 3719TIP3   OH232715   1.165   0.698   1.261 -0.2699 -0.0431 -0.0244
 3719TIP3    H132716   1.122   0.738   1.337 -0.2710 -1.1764  0.6017
 3719TIP3    H232717   1.214   0.770   1.221 -1.7468  1.0005 -0.0420
 3720TIP3   OH232718   2.255   4.687   7.558  0.1828  0.1637  0.1145
 3720TIP3    H132719   2.268   4.746   7.633  0.4983  0.4368 -0.1520
 3720TIP3    H232720   2.225   4.744   7.488 -3.1943 -0.4991  0.8480
 3721TIP3   OH232721   5.650   0.645   2.531  0.5199 -0.4962 -0.2394
 3721TIP3    H132722   5.618   0.658   2.620 -0.9107 -2.5452 -0.3874
 3721TIP3    H232723   5.741   0.617   2.542  0.8155  0.6498  0.4559
 3722TIP3   OH232724   0.897   2.600   7.927  0.1693 -0.3156  0.2051
 3722TIP3    H132725   0.932   2.518   7.891 -0.8596 -0.3158 -0.8624
 3722TIP3    H232726   0.964   2.665   7.907  0.8909 -0.8388  0.8531
 3723TIP3   OH232727   2.628   3.900   8.768  0.0463 -0.0872  0.0065
 3723TIP3    H132728   2.590   3.862   8.847  0.0659  0.9552  0.5410
 3723TIP3    H232729   2.653   3.988   8.794  1.5588 -0.2801 -0.7249
 3724TIP3   OH232730   0.998   2.928   1.582  0.2001  0.6198  0.1080
 3724TIP3    H132731   1.092   2.912   1.573  0.0614 -0.0250 -0.3280
 3724TIP3    H232732   0.973   2.883   1.663  0.2003  0.4482  0.0140
 3725TIP3   OH232733   1.360   1.092   0.222  0.3926  0.3895  0.1433
 3725TIP3    H132734   1.372   1.015   0.278 -0.9730 -0.1357 -0.2455
 3725TIP3    H232735   1.310   1.153   0.277 -2.7154 -0.8938 -1.0315
 3726TIP3   OH232736   4.970   0.664   0.554 -0.2092 -0.3356  0.6155
 3726TIP3    H132737   5.014   0.646   0.471 -1.4632 -1.4177  0.1368
 3726TIP3    H232738   5.033   0.715   0.605  0.9036 -0.3689 -0.6782
 3727TIP3   OH232739   0.224   2.730   8.742 -0.9941  0.3776 -0.3412
 3727TIP3    H132740   0.187   2.700   8.824  0.9226  0.4090  0.5946
 3727TIP3    H232741   0.176   2.683   8.674 -1.2507 -1.1885  0.8851
 3728TIP3   OH232742   3.055   1.206   1.621 -0.0331 -0.3294  0.0274
 3728TIP3    H132743   3.058   1.243   1.710  1.2425 -0.6427  0.1335
 3728TIP3    H232744   3.141   1.225   1.584 -0.6974  0.1802 -1.3168
 3729TIP3   OH232745   6.270   3.159   8.473  0.1133  0.8450  0.0984
 3729TIP3    H132746   6.255   3.222   8.543 -2.0587 -0.3842  0.8466
 3729TIP3    H232747   6.359   3.128   8.486  0.4912  2.2117  0.9649
 3730TIP3   OH232748   5.119   1.345   1.748 -0.1805 -0.7662  0.1165
 3730TIP3    H132749   5.191   1.389   1.703  0.5779  0.7552  2.6528
 3730TIP3    H232750   5.040   1.382   1.708  0.4572  1.5822  0.8746
 3731TIP3   OH232751   4.305   1.240   0.726  0.2750 -0.3552 -0.2546
 3731TIP3    H132752   4.214   1.268   0.739 -0.0226  0.4759 -3.3546
 3731TIP3    H232753   4.357   1.313   0.759 -0.1297 -0.7835  1.4319
 3732TIP3   OH232754   2.327   2.712   1.134  0.4349  0.4764  0.2418
 3732TIP3    H132755   2.259   2.733   1.070  0.7206  0.3948 -0.0864
 3732TIP3    H232756   2.352   2.796   1.171 -0.6463  0.4211  1.1951
 3733TIP3   OH232757   5.208   1.421   0.594  0.3956  0.6483  0.0771
 3733TIP3    H132758   5.201   1.452   0.684 -0.1522 -0.0635  0.2871
 3733TIP3    H232759   5.252   1.336   0.601 -1.2171 -0.2385 -0.1361
 3734TIP3   OH232760   0.284   6.278   0.198  1.1169  0.5186  0.6371
 3734TIP3    H132761   0.312   6.350   0.141  1.3695  0.5279  0.7707
 3734TIP3    H232762   0.360   6.220   0.201  0.8537  0.1595  0.3940
 3735TIP3   OH232763   5.944   1.832   8.903 -0.0402  0.2509 -0.2184
 3735TIP3    H132764   6.030   1.800   8.874  0.5465  1.7026 -0.1402
 3735TIP3    H232765   5.884   1.760   8.884  1.1777 -0.7637 -0.3442
 3736TIP3   OH232766   5.542   5.354   7.057 -0.3011  0.4642  0.2441
 3736TIP3    H132767   5.575   5.334   6.969 -0.0869 -0.7024  0.5766
 3736TIP3    H232768   5.615   5.398   7.101  1.1964 -2.6882  1.1980
 3737TIP3   OH232769   1.970   0.710   0.758 -0.0482 -0.3785  0.3631
 3737TIP3    H132770   1.957   0.651   0.684  0.6141  0.3172 -0.3125
 3737TIP3    H232771   1.885   0.714   0.801 -0.4729 -0.6713 -0.4459
 3738TIP3   OH232772   2.718   1.614   8.781  0.4329 -0.1793 -0.3331
 3738TIP3    H132773   2.748   1.705   8.778  0.6568 -0.1269  1.7950
 3738TIP3    H232774   2.660   1.605   8.706 -0.1902  1.9552 -0.1752
 3739TIP3   OH232775   3.854   6.112   2.251  0.5819  0.2386 -0.0357
 3739TIP3    H132776   3.860   6.201   2.216 -0.7498 -0.4820 -2.3013
 3739TIP3    H232777   3.775   6.113   2.305  1.4396  0.7943  1.2558
 3740TIP3   OH232778   5.652   5.990   7.235  0.0460 -0.0006 -0.4994
 3740TIP3    H132779   5.719   5.982   7.303  0.4942  0.6892 -0.8328
 3740TIP3    H232780   5.686   6.060   7.178 -2.2849  2.4220  0.8833
 3741TIP3   OH232781   2.476   6.507   8.506 -0.2673  0.3749 -0.5176
 3741TIP3    H132782   2.467   6.595   8.543 -0.0624  0.3186 -0.3308
 3741TIP3    H232783   2.392   6.465   8.524  0.8924 -0.8059  2.9547
 3742TIP3   OH232784   3.290   6.578   0.529 -0.4018 -0.2695 -0.4696
 3742TIP3    H132785   3.221   6.644   0.532  1.6440  1.9913  1.8300
 3742TIP3    H232786   3.261   6.510   0.589 -1.3193 -0.1610 -0.7754
 3743TIP3   OH232787   1.080   1.961   8.900 -0.0204  0.9127 -0.0683
 3743TIP3    H132788   1.150   1.913   8.855 -0.7374 -0.6408  0.3748
 3743TIP3    H232789   1.011   1.968   8.834 -0.2900  0.4355  0.1542
 3744TIP3   OH232790   1.097   0.914   1.485  0.0241  0.6113  0.2403
 3744TIP3    H132791   1.070   0.981   1.547  0.9739  0.0108  1.3248
 3744TIP3    H232792   1.176   0.949   1.444 -0.5914  0.9992 -0.6446
 3745TIP3   OH232793   0.533   5.869   1.145 -0.5657 -0.1382  0.0101
 3745TIP3    H132794   0.512   5.785   1.184 -0.9783  0.4479  1.1118
 3745TIP3    H232795   0.451   5.898   1.104  0.0779 -1.1165 -2.0527
 3746TIP3   OH232796   1.239   4.112   8.479 -0.2829 -0.2039  0.6281
 3746TIP3    H132797   1.203   4.116   8.567 -2.4297 -0.7636 -0.1513
 3746TIP3    H232798   1.210   4.027   8.445 -0.4627  0.4736 -1.0033
 3747TIP3   OH232799   4.392   4.931   7.535  0.1965 -0.0163 -0.5432
 3747TIP3    H132800   4.375   4.863   7.470  0.8892 -0.2579 -0.4837
 3747TIP3    H232801   4.308   4.944   7.580  0.5154 -2.3311  0.8600
 3748TIP3   OH232802   3.407   1.324   7.952  0.1409 -0.4481  0.3087
 3748TIP3    H132803   3.410   1.380   8.030  3.9069  0.5910 -0.3810
 3748TIP3    H232804   3.370   1.242   7.983  0.7385  0.2018  3.0365
 3749TIP3   OH232805   3.178   2.304   8.023  0.4540  0.0324  0.4293
 3749TIP3    H132806   3.139   2.319   8.109 -1.5173  1.5951 -0.6665
 3749TIP3    H232807   3.194   2.392   7.988 -1.3341 -0.4674 -1.8616
 3750TIP3   OH232808   2.922   6.406   8.599  0.6619  0.3651 -0.6259
 3750TIP3    H132809   2.931   6.394   8.694  0.5431  0.4356 -0.6060
 3750TIP3    H232810   2.998   6.458   8.574  2.4064 -2.1706 -1.0518
 3751TIP3   OH232811   3.229   4.259   7.863  0.1236 -0.1651  0.0714
 3751TIP3    H132812   3.178   4.206   7.802  1.5017 -0.8813 -0.4982
 3751TIP3    H232813   3.209   4.222   7.949  1.0840 -1.6596 -0.3183
 3752TIP3   OH232814   5.268   0.362   7.541  0.2346 -0.0063 -0.0564
 3752TIP3    H132815   5.233   0.324   7.621 -2.3510  0.6461 -0.7878
 3752TIP3    H232816   5.200   0.349   7.476  1.6902  0.7020 -1.8157
 3753TIP3   OH232817   5.924   6.075   7.364  0.2510 -0.0024 -0.1624
 3753TIP3    H132818   6.012   6.111   7.375  1.0473 -1.7112 -0.5098
 3753TIP3    H232819   5.899   6.100   7.275  0.6989 -0.1007 -0.3220
 3754TIP3   OH232820   0.572   1.104   7.841  0.0514 -0.2957 -0.0495
 3754TIP3    H132821   0.529   1.154   7.771 -0.9418 -1.5875 -0.3965
 3754TIP3    H232822   0.558   1.156   7.920  0.4475  0.7675 -0.6605
 3755TIP3   OH232823   0.344   6.677   7.427 -0.0900  0.0659  0.5797
 3755TIP3    H132824   0.433   6.642   7.428  0.4992  1.4310 -0.2599
 3755TIP3    H232825   0.322   6.691   7.519  1.2712  1.3304  0.7562
 3756TIP3   OH232826   6.334   6.507   8.928 -0.1130 -0.5403  0.1277
 3756TIP3    H132827   6.419   6.508   8.884  0.0441 -0.6783  0.4226
 3756TIP3    H232828   6.353   6.538   9.017 -0.4725  0.0019  0.0192
 3757TIP3   OH232829   0.800   2.360   1.738 -0.0249 -0.5246 -0.3172
 3757TIP3    H132830   0.801   2.432   1.676 -0.7109 -0.8343 -0.7071
 3757TIP3    H232831   0.873   2.377   1.798  1.1526 -0.6421 -1.6774
 3758TIP3   OH232832   2.128   5.584   8.865  0.2722 -0.2474 -0.1030
 3758TIP3    H132833   2.050   5.592   8.810  0.2048  2.4848  0.2569
 3758TIP3    H232834   2.199   5.562   8.804 -0.0976  1.1577 -1.0968
 3759TIP3   OH232835   4.024   3.495   8.533  0.2444 -0.2057  0.1810
 3759TIP3    H132836   3.968   3.486   8.610 -0.1454 -1.9704 -0.2683
 3759TIP3    H232837   4.112   3.479   8.565  0.2296  0.2912  0.4761
 3760TIP3   OH232838   3.026   1.405   1.248  0.2929 -0.0795 -0.6362
 3760TIP3    H132839   2.973   1.399   1.169 -1.1726  0.3883  0.2721
 3760TIP3    H232840   3.086   1.331   1.243 -1.4911 -1.5715 -0.9742
 3761TIP3   OH232841   0.038   3.504   7.134 -0.2213 -0.3528 -0.1120
 3761TIP3    H132842   0.028   3.553   7.216 -1.2190  0.8188 -0.8923
 3761TIP3    H232843   0.132   3.499   7.120 -0.0378 -0.4685  1.0361
 3762TIP3   OH232844   5.630   0.847   0.539  0.0772  0.2472 -0.5364
 3762TIP3    H132845   5.575   0.912   0.496 -0.6613  0.8777  1.2530
 3762TIP3    H232846   5.572   0.805   0.603  1.0305 -0.8643 -0.3730
 3763TIP3   OH232847   0.785   2.138   2.022 -0.1388 -0.0027 -0.1420
 3763TIP3    H132848   0.811   2.229   2.037  0.3782 -0.3137  0.9652
 3763TIP3    H232849   0.800   2.095   2.106 -3.5873 -0.4029  0.4329
 3764TIP3   OH232850   6.050   1.980   0.984  0.3120 -0.2503 -0.0621
 3764TIP3    H132851   6.117   1.990   0.916  0.8523 -2.4952  0.0767
 3764TIP3    H232852   6.099   1.979   1.066 -0.1910  0.9143  0.2657
 3765TIP3   OH232853   5.477   3.683   8.667  0.4155  0.2250  0.0002
 3765TIP3    H132854   5.411   3.716   8.606 -0.3933  0.4460  0.9680
 3765TIP3    H232855   5.433   3.682   8.752  1.3501 -0.5829  0.4969
 3766TIP3   OH232856   1.025   0.286   2.602  0.0151 -0.1758 -0.2930
 3766TIP3    H132857   1.092   0.320   2.543 -0.8037  2.5556  0.2325
 3766TIP3    H232858   1.042   0.329   2.686 -0.7274 -1.5909  0.6305
 3767TIP3   OH232859   6.553   6.475   7.431 -0.2154  0.1878 -0.1099
 3767TIP3    H132860   6.533   6.551   7.486  1.5895 -0.6311  1.7969
 3767TIP3    H232861   6.507   6.493   7.349  0.1120  3.3332  0.2491
 3768TIP3   OH232862   0.191   0.452   7.281 -0.0670  0.1409  0.2910
 3768TIP3    H132863   0.139   0.523   7.243 -0.3558  0.2124  0.8208
 3768TIP3    H232864   0.277   0.491   7.296 -0.3918  0.5593  1.1288
 3769TIP3   OH232865   6.060   5.663   1.857  0.1139  0.5068 -0.2732
 3769TIP3    H132866   6.098   5.688   1.941 -1.7406  0.6261  0.5822
 3769TIP3    H232867   6.022   5.744   1.822  2.3682  0.8811 -2.1531
 3770TIP3   OH232868   1.349   0.329   7.226  0.4500  0.0892  0.0268
 3770TIP3    H132869   1.288   0.274   7.176 -1.2889  2.4085 -0.5952
 3770TIP3    H232870   1.419   0.350   7.163  0.1421  0.0775 -0.3251
 3771TIP3   OH232871   2.382   6.318   1.059 -0.0025 -0.1712  0.5042
 3771TIP3    H132872   2.331   6.347   1.135 -0.0383  2.4838 -0.4317
 3771TIP3    H232873   2.473   6.320   1.090 -0.0863  0.0112  0.7475
 3772TIP3   OH232874   0.980   1.035   7.889  0.1587  0.8995  0.2026
 3772TIP3    H132875   1.043   1.023   7.961  0.1443  1.9699  0.3999
 3772TIP3    H232876   0.906   0.980   7.913  1.2981 -1.0002 -0.4030
 3773TIP3   OH232877   4.583   3.395   1.926  0.6474 -0.4365 -0.2970
 3773TIP3    H132878   4.600   3.317   1.978 -1.8311 -0.9519 -0.1388
 3773TIP3    H232879   4.491   3.415   1.943  1.0237  2.0838 -0.9396
 3774TIP3   OH232880   4.273   4.001   7.661 -0.4234 -0.3317  0.7701
 3774TIP3    H132881   4.247   3.921   7.707  0.2622 -1.0830 -0.1084
 3774TIP3    H232882   4.368   3.994   7.652 -0.5083 -0.1195 -0.5524
 3775TIP3   OH232883   6.542   0.061   0.677  0.4812 -0.4064  0.1647
 3775TIP3    H132884   6.606   0.011   0.727 -0.4729 -0.9077  0.9347
 3775TIP3    H232885   6.585   0.145   0.658 -0.0205  1.0082  4.2946
 3776TIP3   OH232886   3.391   0.179   1.779  0.7173 -0.2926  0.1953
 3776TIP3    H132887   3.407   0.088   1.753  0.8740 -0.5352  1.0877
 3776TIP3    H232888   3.421   0.183   1.870 -0.1452  0.4074  0.4686
 3777TIP3   OH232889   2.703   6.147   7.284  0.0205  0.4750  0.2207
 3777TIP3    H132890   2.700   6.109   7.197  0.1293 -1.1334  0.8848
 3777TIP3    H232891   2.796   6.150   7.307  0.0356  1.3920  0.0942
 3778TIP3   OH232892   3.566   5.214   0.405 -0.8556 -0.1305  0.0679
 3778TIP3    H132893   3.621   5.137   0.395 -0.4245  0.1680  0.1380
 3778TIP3    H232894   3.496   5.186   0.465 -1.3367 -0.7992 -0.7818
 3779TIP3   OH232895   5.904   6.184   8.629  0.5240  0.7024  0.2588
 3779TIP3    H132896   5.876   6.169   8.720  1.3772  0.9000  0.5671
 3779TIP3    H232897   5.914   6.096   8.593  1.7174  0.5795  0.8556
 3780TIP3   OH232898   6.610   6.301   8.882 -0.6530  0.4468  0.2239
 3780TIP3    H132899   6.636   6.277   8.793  2.2890  2.0365  0.5296
 3780TIP3    H232900   6.627   6.222   8.933 -3.4645 -0.8727 -0.6905
 3781TIP3   OH232901   3.599   1.365   7.485 -0.0812 -0.1600  0.3086
 3781TIP3    H132902   3.581   1.274   7.509 -0.0427 -0.2939 -0.1637
 3781TIP3    H232903   3.579   1.370   7.392 -0.4424  0.4106  0.4138
 3782TIP3   OH232904   5.848   5.149   1.628  0.0764 -0.6384  0.0308
 3782TIP3    H132905   5.815   5.061   1.644 -0.7145 -0.4859 -0.7015
 3782TIP3    H232906   5.832   5.196   1.709 -0.5333 -0.8580  0.0412
 3783TIP3   OH232907   5.437   6.404   1.112 -0.2832 -0.0197  0.3343
 3783TIP3    H132908   5.390   6.485   1.088  0.5107  0.4352  0.2726
 3783TIP3    H232909   5.368   6.340   1.125 -0.8686  0.2130 -1.3172
 3784TIP3   OH232910   2.807   2.834   0.828  0.2017  0.1564 -0.1588
 3784TIP3    H132911   2.848   2.796   0.905  0.8858  1.5996  0.2151
 3784TIP3    H232912   2.859   2.801   0.754  1.4875  1.2096  0.2388
 3785TIP3   OH232913   3.445   5.621   8.814  0.0412 -0.1597 -0.0893
 3785TIP3    H132914   3.469   5.714   8.816 -1.9691  0.4055 -0.3842
 3785TIP3    H232915   3.424   5.605   8.722  1.8658 -1.3550 -0.3433
 3786TIP3   OH232916   3.965   6.009   1.660 -0.4584 -0.5315  0.4676
 3786TIP3    H132917   3.925   5.922   1.659  1.2330 -1.3502 -0.4631
 3786TIP3    H232918   3.972   6.033   1.567  0.8116 -0.2671  0.6100
 3787TIP3   OH232919   4.085   6.187   8.657  0.3910 -0.2674  0.3553
 3787TIP3    H132920   4.075   6.282   8.657  0.3188 -0.2506 -1.3700
 3787TIP3    H232921   4.162   6.171   8.711 -0.3127  0.6555  1.6915
 3788TIP3   OH232922   5.832   4.880   2.460  0.4483  0.1582  0.0684
 3788TIP3    H132923   5.884   4.910   2.386  0.7076  0.6109  0.4275
 3788TIP3    H232924   5.796   4.960   2.498 -0.2683 -0.1254  0.0034
 3789TIP3   OH232925   3.435   2.158   8.060  0.2184  0.0930  0.0458
 3789TIP3    H132926   3.349   2.197   8.074  0.2354  0.2462 -0.2730
 3789TIP3    H232927   3.417   2.080   8.008  0.3573  0.5611 -0.7053
 3790TIP3   OH232928   3.798   6.655   2.287  0.1647 -0.4133  0.3056
 3790TIP3    H132929   3.720   6.641   2.339 -0.8382  0.0464 -1.0078
 3790TIP3    H232930   3.779   6.734   2.236  2.1850  0.7599  1.2203
 3791TIP3   OH232931   0.278   2.710   1.589 -0.3049  0.0624 -0.3790
 3791TIP3    H132932   0.190   2.716   1.627 -0.4667  1.9772 -0.9374
 3791TIP3    H232933   0.285   2.787   1.533  0.9306 -1.2440 -2.1322
 3792TIP3   OH232934   1.648   1.505   8.023 -0.2229 -0.1234  0.6140
 3792TIP3    H132935   1.568   1.454   8.040 -0.4880 -0.1322 -0.5974
 3792TIP3    H232936   1.719   1.446   8.046 -0.5224 -1.1280 -0.8989
 3793TIP3   OH232937   3.494   5.117   1.417 -0.3205  0.1183 -0.3215
 3793TIP3    H132938   3.577   5.099   1.375 -0.5656 -1.2482 -0.2396
 3793TIP3    H232939   3.455   5.031   1.433 -0.3149  0.5615  2.5599
 3794TIP3   OH232940   1.677   2.249   1.082  0.1403  0.1558 -0.3491
 3794TIP3    H132941   1.654   2.165   1.042  0.4250 -0.4999  0.8291
 3794TIP3    H232942   1.723   2.225   1.162  1.4380  1.4438 -0.6844
 3795TIP3   OH232943   5.998   3.493   7.968  0.1576  0.5708 -0.0005
 3795TIP3    H132944   6.031   3.558   8.030 -1.5037 -1.0496  2.7749
 3795TIP3    H232945   5.920   3.534   7.929  0.1043  0.8829  0.4330
 3796TIP3   OH232946   6.213   2.110   8.173 -0.2524  0.1975 -0.1623
 3796TIP3    H132947   6.220   2.020   8.142  1.3683  0.5779 -1.0432
 3796TIP3    H232948   6.258   2.162   8.106  1.5467  1.3032  1.7667
 3797TIP3   OH232949   4.094   4.109   0.222 -0.5393 -0.1420 -0.6021
 3797TIP3    H132950   4.026   4.088   0.285 -1.4635 -2.1054 -2.1582
 3797TIP3    H232951   4.070   4.195   0.187 -2.2794 -0.8322 -1.1710
 3798TIP3   OH232952   6.476   4.061   0.194  0.6768 -0.6630 -0.2718
 3798TIP3    H132953   6.451   4.107   0.113  0.8694 -1.7353 -0.9669
 3798TIP3    H232954   6.483   4.130   0.259  0.0342  0.1793 -1.0540
 3799TIP3   OH232955   5.961   3.197   7.535 -0.1013  0.5814 -0.7040
 3799TIP3    H132956   6.007   3.196   7.620 -3.3961  0.9368  1.2440
 3799TIP3    H232957   5.982   3.282   7.498  2.4429 -0.0726 -0.9719
 3800TIP3   OH232958   1.137   6.498   0.604  0.5199 -0.2945  0.2615
 3800TIP3    H132959   1.165   6.409   0.623 -0.4718 -0.6685  0.0262
 3800TIP3    H232960   1.089   6.526   0.682 -1.7028 -1.0601 -0.7320
 3801TIP3   OH232961   3.378   1.458   8.216 -0.2757 -0.5576 -0.1354
 3801TIP3    H132962   3.390   1.389   8.281  0.3801 -1.6662 -1.3737
 3801TIP3    H232963   3.453   1.516   8.228  0.7722 -1.6777 -0.9418
 3802TIP3   OH232964   6.090   3.930   0.723  0.2496 -0.3622 -0.2282
 3802TIP3    H132965   6.045   3.972   0.649  1.7282 -0.8604 -1.4555
 3802TIP3    H232966   6.038   3.956   0.800 -2.8270 -1.8678 -1.6221
 3803TIP3   OH232967   4.681   1.727   0.757  0.0664  0.1575 -0.2204
 3803TIP3    H132968   4.723   1.683   0.831  2.4280  0.1080 -1.4924
 3803TIP3    H232969   4.634   1.800   0.797  0.3481 -0.5130  1.4297
 3804TIP3   OH232970   3.712   5.619   0.918  0.6019  0.2807  0.0334
 3804TIP3    H132971   3.774   5.585   0.853 -0.2472 -0.4506 -0.4117
 3804TIP3    H232972   3.630   5.575   0.898  0.0248  0.9604  0.8539
 3805TIP3   OH232973   3.522   0.755   2.154  0.5638 -0.1317  0.1253
 3805TIP3    H132974   3.617   0.748   2.163  0.6937 -0.3656 -1.2278
 3805TIP3    H232975   3.487   0.695   2.221  1.2736  1.7760  2.3357
 3806TIP3   OH232976   4.439   1.506   0.091 -0.0860  0.1849 -0.1544
 3806TIP3    H132977   4.402   1.430   0.136  0.7921  0.0327  0.3383
 3806TIP3    H232978   4.453   1.571   0.161 -0.4323  0.6443 -0.5029
 3807TIP3   OH232979   5.293   0.920   1.165  0.3529  0.2950  0.7209
 3807TIP3    H132980   5.330   0.997   1.122  0.2095 -0.9909 -1.9113
 3807TIP3    H232981   5.267   0.862   1.093  0.0016 -2.0257  2.5758
 3808TIP3   OH232982   3.073   3.358   0.894  0.0499 -0.3338  0.3774
 3808TIP3    H132983   3.037   3.382   0.809  0.4939 -3.1723 -0.7361
 3808TIP3    H232984   3.166   3.379   0.887  0.1583 -0.9271 -0.0003
 3809TIP3   OH232985   4.087   5.814   0.079  0.0147  0.4729  0.0181
 3809TIP3    H132986   4.093   5.885   0.143 -0.2132  0.1602  0.3925
 3809TIP3    H232987   4.037   5.851   0.007  2.0607  1.5233 -0.9550
 3810TIP3   OH232988   1.018   1.032   7.579 -0.3367 -0.3158 -0.4844
 3810TIP3    H132989   0.969   0.972   7.522  0.7020 -0.3756 -1.3484
 3810TIP3    H232990   0.972   1.029   7.663 -0.4448 -2.1424 -0.5739
 3811TIP3   OH232991   2.777   5.693   1.991 -0.4148 -0.0483  0.1460
 3811TIP3    H132992   2.854   5.745   2.014 -1.0288  0.7032  0.5770
 3811TIP3    H232993   2.805   5.602   2.001  0.5615  0.2025 -0.2128
 3812TIP3   OH232994   1.165   1.933   8.435 -0.0664  0.2889 -0.0237
 3812TIP3    H132995   1.196   1.855   8.390 -0.4441  0.8496 -1.2900
 3812TIP3    H232996   1.070   1.931   8.426 -0.1765  0.2995  0.9675
 3813TIP3   OH232997   3.071   5.222   6.503 -0.2652 -0.4126  0.3828
 3813TIP3    H132998   2.992   5.253   6.459  0.1544  1.8872  1.1532
 3813TIP3    H232999   3.052   5.231   6.597  0.0167 -2.2881  0.6790
 3814TIP3   OH233000   0.762   1.348   1.505  0.2982  0.5715 -0.0023
 3814TIP3    H133001   0.764   1.442   1.488 -0.4877  0.4757 -0.7373
 3814TIP3    H233002   0.694   1.337   1.571  0.7022  0.5607  0.4142
 3815TIP3   OH233003   5.990   3.229   0.645 -0.2459  0.6059 -0.4323
 3815TIP3    H133004   6.034   3.190   0.569 -0.6375  0.8502 -0.7868
 3815TIP3    H233005   5.954   3.154   0.693 -1.2069  0.5251 -1.2400
 3816TIP3   OH233006   1.462   4.972   8.185 -0.2256  0.2243  0.7862
 3816TIP3    H133007   1.477   5.065   8.204 -0.2031  0.0105  1.8708
 3816TIP3    H233008   1.476   4.965   8.091  0.8410  1.1231  0.8542
 3817TIP3   OH233009   1.031   2.500   6.984  0.3410 -0.3638 -0.0660
 3817TIP3    H133010   1.109   2.555   6.987 -1.4966  2.3618  1.0827
 3817TIP3    H233011   0.968   2.550   6.933 -1.6358 -1.0731  1.5695
 3818TIP3   OH233012   3.065   2.593   2.575 -0.3358  0.2757  0.1136
 3818TIP3    H133013   3.142   2.604   2.518 -1.8357 -0.4755 -2.2129
 3818TIP3    H233014   3.091   2.526   2.638  0.7754 -0.3648 -0.9772
 3819TIP3   OH233015   0.120   3.963   8.876 -0.4181  0.4811  0.0297
 3819TIP3    H133016   0.133   3.911   8.797 -0.7498 -0.7584  0.7589
 3819TIP3    H233017   0.137   4.053   8.849 -0.5895  0.0907 -1.4543
 3820TIP3   OH233018   0.667   0.380   8.444  0.1793 -0.0996 -0.1753
 3820TIP3    H133019   0.637   0.292   8.466 -2.5931  0.7231 -0.3766
 3820TIP3    H233020   0.686   0.421   8.529  3.5052 -1.3977 -0.1131
 3821TIP3   OH233021   1.075   1.157   8.818 -0.1759  0.3479  0.1455
 3821TIP3    H133022   0.984   1.187   8.829  0.2843  1.2534  1.7957
 3821TIP3    H233023   1.113   1.218   8.755 -0.5485  0.3084 -0.1213
 3822TIP3   OH233024   1.805   5.964   0.333  0.0338  0.0527 -0.1202
 3822TIP3    H133025   1.766   6.045   0.299 -0.4988 -0.6069 -1.1623
 3822TIP3    H233026   1.835   5.918   0.255  2.8392  0.4398  0.6194
 3823TIP3   OH233027   1.906   1.260   7.277 -0.0226 -0.3040  0.0897
 3823TIP3    H133028   1.945   1.338   7.236 -0.3199  0.6640  1.5804
 3823TIP3    H233029   1.981   1.204   7.297  0.3136  0.1429  0.1078
 3824TIP3   OH233030   1.551   2.866   1.729 -0.3481 -0.3723 -0.7794
 3824TIP3    H133031   1.597   2.801   1.677 -0.7803  0.9881 -2.9785
 3824TIP3    H233032   1.596   2.949   1.710  0.1154  0.0972  1.8357
 3825TIP3   OH233033   3.665   1.155   0.501 -0.2054 -0.2941  0.1732
 3825TIP3    H133034   3.578   1.192   0.485  0.2652 -0.3489 -3.0029
 3825TIP3    H233035   3.717   1.230   0.531 -0.5148  0.5336 -1.2902
 3826TIP3   OH233036   2.701   1.266   0.526  0.3455  0.7427  0.0837
 3826TIP3    H133037   2.636   1.244   0.592 -0.2460  0.7471 -0.4878
 3826TIP3    H233038   2.767   1.197   0.535 -0.6225 -0.3019 -0.5090
 3827TIP3   OH233039   4.854   3.171   8.206  0.5279  0.2058 -0.0121
 3827TIP3    H133040   4.819   3.085   8.230  1.4328 -0.1494  0.0606
 3827TIP3    H233041   4.802   3.233   8.257  0.8107 -0.3914  1.0289
 3828TIP3   OH233042   5.846   1.106   8.014 -0.3946 -0.3419 -0.0337
 3828TIP3    H133043   5.855   1.035   8.078  3.2300 -0.2039 -0.2213
 3828TIP3    H233044   5.924   1.159   8.025 -0.0239  0.2275 -3.9467
 3829TIP3   OH233045   5.695   3.577   0.732  0.4965 -0.0358 -0.7298
 3829TIP3    H133046   5.776   3.548   0.691  0.6579  0.1946 -0.5761
 3829TIP3    H233047   5.676   3.661   0.689 -0.4428 -0.7716 -1.8158
 3830TIP3   OH233048   6.298   1.870   7.359  0.4143 -0.3301 -0.5916
 3830TIP3    H133049   6.219   1.839   7.404  0.3133 -0.9454 -1.1882
 3830TIP3    H233050   6.356   1.898   7.429 -0.1930 -0.2053 -0.1290
 3831TIP3   OH233051   2.760   5.264   6.857  0.3392  0.3414  0.1045
 3831TIP3    H133052   2.779   5.355   6.879  0.3334  0.3656  0.0112
 3831TIP3    H233053   2.683   5.241   6.909 -0.3069  0.7201 -0.6753
 3832TIP3   OH233054   4.571   6.548   7.258  0.1032  0.1706  0.3186
 3832TIP3    H133055   4.645   6.608   7.247 -1.2180  1.8426  0.0989
 3832TIP3    H233056   4.569   6.498   7.177  1.9323 -1.0529  0.9669
 3833TIP3   OH233057   0.235   6.291   8.622 -0.0779  0.0485  0.1679
 3833TIP3    H133058   0.318   6.260   8.585 -0.3504 -0.1429 -0.3053
 3833TIP3    H233059   0.168   6.259   8.560 -0.7263 -1.8063  1.7234
 3834TIP3   OH233060   6.507   5.596   0.901  0.0926 -0.5241 -0.0501
 3834TIP3    H133061   6.547   5.510   0.891  2.7304  0.4865  0.8873
 3834TIP3    H233062   6.478   5.598   0.992  2.0873  0.3009  0.6173
 3835TIP3   OH233063   3.555   1.557   0.936  0.5492 -0.1216  0.1207
 3835TIP3    H133064   3.613   1.629   0.962 -0.5319  0.8901 -0.1943
 3835TIP3    H233065   3.533   1.576   0.845 -0.3750 -0.4237  0.2787
 3836TIP3   OH233066   2.981   1.196   2.208  0.4993 -0.6958 -0.0061
 3836TIP3    H133067   2.978   1.138   2.284 -0.5602 -1.2414 -0.4396
 3836TIP3    H233068   3.049   1.159   2.152 -0.0617 -1.4552 -0.2053
 3837TIP3   OH233069   4.549   3.572   7.239  0.4748  0.2569  0.7206
 3837TIP3    H133070   4.589   3.605   7.158 -0.3968 -1.1845 -0.3546
 3837TIP3    H233071   4.596   3.492   7.259 -0.4929 -0.3649  0.5934
 3838TIP3   OH233072   0.822   5.097   0.492  0.0534  0.2961  0.5271
 3838TIP3    H133073   0.854   5.144   0.415  0.4124  0.8928  1.0287
 3838TIP3    H233074   0.846   5.006   0.476 -1.2957  0.1485 -0.7899
 3839TIP3   OH233075   3.200   2.588   6.849  0.1267  0.0009  0.9933
 3839TIP3    H133076   3.272   2.544   6.802  0.7806  0.9024  1.1239
 3839TIP3    H233077   3.187   2.670   6.802 -0.3934  0.1295  1.3564
 3840TIP3   OH233078   4.512   6.364   0.198  0.4482  1.0635  0.1153
 3840TIP3    H133079   4.455   6.295   0.164  1.2947  1.4231 -2.1555
 3840TIP3    H233080   4.493   6.366   0.292 -1.7734 -0.2037 -0.2394
 3841TIP3   OH233081   5.591   2.464   7.499  0.0954  0.1699  0.7564
 3841TIP3    H133082   5.602   2.471   7.404  1.0769 -0.8933  0.7679
 3841TIP3    H233083   5.625   2.547   7.533 -0.2219  0.5413  0.1911
 3842TIP3   OH233084   1.254   2.581   1.627 -0.3024  1.1102 -0.4017
 3842TIP3    H133085   1.277   2.670   1.603 -2.4591  1.3342 -1.9159
 3842TIP3    H233086   1.163   2.587   1.658 -0.8972 -0.6806 -1.6333
 3843TIP3   OH233087   1.592   6.297   6.731 -0.4069  0.6557  0.0362
 3843TIP3    H133088   1.534   6.234   6.774  1.1352  0.4079  1.8819
 3843TIP3    H233089   1.566   6.295   6.639 -2.1814 -0.6560  0.5094
 3844TIP3   OH233090   0.704   1.130   1.770  0.3262 -0.1302 -0.1073
 3844TIP3    H133091   0.668   1.107   1.685  0.8764 -0.8110 -0.1636
 3844TIP3    H233092   0.629   1.165   1.819 -0.6184 -2.1892  0.0414
 3845TIP3   OH233093   3.552   1.032   8.232  0.6712 -0.0241 -0.4873
 3845TIP3    H133094   3.579   0.947   8.198 -0.0459  0.2455 -1.7781
 3845TIP3    H233095   3.618   1.093   8.200  0.6298  0.0599 -0.4137
 3846TIP3   OH233096   1.990   3.215   0.470  0.1665 -0.3678 -0.3780
 3846TIP3    H133097   1.940   3.270   0.410  0.7416  0.0272 -0.5099
 3846TIP3    H233098   2.075   3.204   0.426 -0.1432 -1.9115 -0.6713
 3847TIP3   OH233099   1.678   3.796   0.391 -0.6464  0.1506  0.5577
 3847TIP3    H133100   1.644   3.799   0.481 -1.3099  0.4647  0.3056
 3847TIP3    H233101   1.750   3.858   0.390 -2.8298  2.8653  0.0151
 3848TIP3   OH233102   0.816   3.317   6.626 -0.1645  0.0731  0.1220
 3848TIP3    H133103   0.773   3.402   6.634 -0.8468 -0.3792  1.6674
 3848TIP3    H233104   0.882   3.330   6.558  0.8694  2.3006  1.4427
 3849TIP3   OH233105   1.108   6.114   8.552  0.5672 -0.3103  0.2231
 3849TIP3    H133106   1.191   6.155   8.577  0.4802 -0.8407  1.4782
 3849TIP3    H233107   1.129   6.021   8.542  0.5127 -0.1787 -1.4326
 3850TIP3   OH233108   4.113   0.916   7.377  0.2758 -0.5307 -0.0047
 3850TIP3    H133109   4.129   0.861   7.301  1.2258 -0.5906  0.2266
 3850TIP3    H233110   4.018   0.915   7.388  0.0510  0.1017 -1.6352
 3851TIP3   OH233111   1.425   2.186   6.365  0.1152  0.1292 -0.1779
 3851TIP3    H133112   1.484   2.260   6.349  0.4694 -0.0444  0.3014
 3851TIP3    H233113   1.481   2.119   6.404 -0.5678  0.2902  1.1215
 3852TIP3   OH233114   0.484   0.267   2.376  0.1226  0.4513  0.2757
 3852TIP3    H133115   0.399   0.305   2.355  0.0573 -1.1539 -3.0877
 3852TIP3    H233116   0.548   0.330   2.343  0.1337  0.3616  0.1203
 3853TIP3   OH233117   5.139   3.998   6.863  0.7500  0.2533 -0.4314
 3853TIP3    H133118   5.226   4.004   6.823  0.4806  0.7304 -0.9466
 3853TIP3    H233119   5.078   4.022   6.793  0.2089  0.0634 -0.0330
 3854TIP3   OH233120   1.595   3.011   7.841  0.0309  0.3486 -0.2193
 3854TIP3    H133121   1.550   3.078   7.892 -2.4107 -2.1331  1.1255
 3854TIP3    H233122   1.531   2.941   7.831  1.8165 -1.0638 -3.1961
 3855TIP3   OH233123   0.464   4.635   1.308 -0.2594  0.9856  0.4983
 3855TIP3    H133124   0.458   4.574   1.382 -0.8048 -1.4674 -1.4230
 3855TIP3    H233125   0.390   4.693   1.319 -0.5450  0.4428  1.6762
 3856TIP3   OH233126   0.510   5.178   8.139 -0.0077 -0.0243 -0.3215
 3856TIP3    H133127   0.476   5.225   8.063  0.1639 -0.0926 -0.4420
 3856TIP3    H233128   0.603   5.201   8.142 -0.5310  2.1256  1.4437
 3857TIP3   OH233129   2.403   6.434   0.794 -0.2807  0.2764  0.0709
 3857TIP3    H133130   2.483   6.434   0.742 -1.0585  1.5117 -1.1899
 3857TIP3    H233131   2.432   6.413   0.883  1.5382  1.3940 -0.2141
 3858TIP3   OH233132   1.976   5.869   7.353 -0.1420  0.4613  0.2629
 3858TIP3    H133133   1.997   5.782   7.319  0.2204  0.4801  0.4289
 3858TIP3    H233134   2.035   5.880   7.428  1.5537  1.8167 -1.1851
 3859TIP3   OH233135   6.189   0.102   1.860  0.1392  0.5747 -0.0253
 3859TIP3    H133136   6.236   0.077   1.780 -0.8191 -0.3587 -0.3246
 3859TIP3    H233137   6.107   0.052   1.856  0.0868  0.4875  1.5607
 3860TIP3   OH233138   5.599   3.907   8.394 -0.0755  0.4009 -0.2466
 3860TIP3    H133139   5.679   3.875   8.435 -0.2645  0.4523  0.1642
 3860TIP3    H233140   5.568   3.977   8.451 -1.2134 -0.6101  0.4313
 3861TIP3   OH233141   4.274   4.489   0.284  0.8532 -0.8918 -0.2731
 3861TIP3    H133142   4.282   4.486   0.379 -1.5563  0.5550  0.0463
 3861TIP3    H233143   4.203   4.429   0.263 -0.7366  1.0834 -0.7819
 3862TIP3   OH233144   4.887   6.049   8.243 -0.3585  0.5788 -0.0917
 3862TIP3    H133145   4.840   6.069   8.162 -1.4875 -0.1233  0.3598
 3862TIP3    H233146   4.900   5.954   8.239  1.6243  0.8372 -0.4970
 3863TIP3   OH233147   4.520   6.584   7.900 -0.1524  0.0401 -0.0151
 3863TIP3    H133148   4.483   6.655   7.848  1.2466  1.0761  0.3386
 3863TIP3    H233149   4.504   6.505   7.849  0.2299  0.9011 -1.5138
 3864TIP3   OH233150   0.528   0.709   7.865  0.5599  0.0606  0.0452
 3864TIP3    H133151   0.477   0.633   7.835  0.6259  0.4003 -0.9767
 3864TIP3    H233152   0.501   0.780   7.807  0.9777  0.6571  0.5783
 3865TIP3   OH233153   4.774   1.638   1.003  1.0959 -0.0579  0.3953
 3865TIP3    H133154   4.757   1.653   1.096 -0.4516 -0.1372  0.1516
 3865TIP3    H233155   4.843   1.571   1.001  2.3101  1.0867  1.4621
 3866TIP3   OH233156   4.561   5.864   1.562  0.7382  0.7218 -0.9658
 3866TIP3    H133157   4.549   5.798   1.631 -0.0147  1.1953 -0.6346
 3866TIP3    H233158   4.630   5.921   1.595 -0.9598  2.1376  0.3570
 3867TIP3   OH233159   6.318   3.455   1.024 -0.1439  0.7664  0.0703
 3867TIP3    H133160   6.270   3.431   0.944  1.2736 -0.7191 -0.4043
 3867TIP3    H233161   6.398   3.498   0.992  0.7046 -0.3340  0.6124
 3868TIP3   OH233162   0.811   4.194   0.411  0.1724 -0.7013 -0.3339
 3868TIP3    H133163   0.752   4.156   0.475 -2.2720 -0.4122 -2.2629
 3868TIP3    H233164   0.844   4.274   0.453 -1.9835 -0.0859  0.3420
 3869TIP3   OH233165   6.602   2.421   8.767  0.5890 -0.0749  0.7566
 3869TIP3    H133166   6.615   2.470   8.686  0.7361 -0.4433  0.5522
 3869TIP3    H233167   6.599   2.329   8.739  0.9262 -0.2251  1.2012
 3870TIP3   OH233168   5.995   0.797   0.325  0.2669 -0.0855 -0.4480
 3870TIP3    H133169   6.040   0.765   0.248  0.2089 -0.4876 -0.3181
 3870TIP3    H233170   5.936   0.865   0.292  2.6522  2.2112 -0.3382
 3871TIP3   OH233171   4.180   6.476   0.104 -0.2646 -0.5298 -0.5012
 3871TIP3    H133172   4.232   6.487   0.184 -1.4760 -1.3510  0.4326
 3871TIP3    H233173   4.116   6.408   0.126 -1.9925  0.7026 -1.4838
 3872TIP3   OH233174   4.216   1.692   0.680  0.3557  0.2696 -0.1332
 3872TIP3    H133175   4.249   1.711   0.768 -1.4396 -1.0079  0.8968
 3872TIP3    H233176   4.275   1.626   0.645 -0.4409 -1.2701  1.2819
 3873TIP3   OH233177   3.703   0.616   1.814  0.1317  0.6680  0.0768
 3873TIP3    H133178   3.693   0.711   1.822 -1.2006  0.4885  0.8326
 3873TIP3    H233179   3.629   0.580   1.863  0.3657 -0.7609 -0.5700
 3874TIP3   OH233180   1.043   5.689   1.458  0.1439 -0.3154  0.0446
 3874TIP3    H133181   0.977   5.750   1.491  0.5454  0.5885 -0.7934
 3874TIP3    H233182   1.121   5.743   1.445  1.0641 -1.3567  0.9829
 3875TIP3   OH233183   3.503   1.916   1.814 -0.3568 -0.1666 -0.0484
 3875TIP3    H133184   3.587   1.900   1.856 -1.4204 -2.7940  1.3550
 3875TIP3    H233185   3.521   1.911   1.720  1.0591 -0.7118  0.2308
 3876TIP3   OH233186   0.643   4.013   8.567  0.2089  0.2515 -0.3500
 3876TIP3    H133187   0.582   3.955   8.521  0.6364 -2.5509  2.2874
 3876TIP3    H233188   0.587   4.067   8.623 -0.0672  0.9558 -1.2789
 3877TIP3   OH233189   3.646   0.768   1.443 -0.0602  0.5083  0.7742
 3877TIP3    H133190   3.623   0.822   1.519 -0.0977  1.5382  0.0543
 3877TIP3    H233191   3.700   0.826   1.389  0.7291 -0.5078  0.4438
 3878TIP3   OH233192   6.216   4.809   0.621 -0.1573  0.8966  0.0267
 3878TIP3    H133193   6.215   4.719   0.588 -2.0973  1.1565 -0.7437
 3878TIP3    H233194   6.275   4.855   0.560  0.6656  0.2254  0.2891
 3879TIP3   OH233195   5.398   5.494   7.819  0.2698  1.0609  0.1034
 3879TIP3    H133196   5.456   5.540   7.881 -0.4586  0.8873  0.9427
 3879TIP3    H233197   5.457   5.457   7.754  1.2053  0.1689  1.3955
 3880TIP3   OH233198   1.158   5.377   8.069  1.1228  0.1762 -0.1398
 3880TIP3    H133199   1.192   5.376   7.979 -1.2952 -1.4364 -1.1303
 3880TIP3    H233200   1.100   5.453   8.072  1.1041  0.1552  0.0281
 3881TIP3   OH233201   0.874   5.528   1.070 -0.0347  0.2826 -0.3424
 3881TIP3    H133202   0.869   5.590   1.143  2.1466 -0.4906  0.5827
 3881TIP3    H233203   0.857   5.580   0.992 -1.3405  1.3683  0.6181
 3882TIP3   OH233204   2.432   3.185   0.928  0.6375 -0.1713 -0.4920
 3882TIP3    H133205   2.395   3.097   0.940 -0.2754  0.2976  0.3193
 3882TIP3    H233206   2.523   3.177   0.955  0.6519 -0.9494 -0.7601
 3883TIP3   OH233207   2.408   2.947   1.709  0.2313 -0.0201 -0.0600
 3883TIP3    H133208   2.312   2.946   1.718  0.1360  0.0888 -1.0034
 3883TIP3    H233209   2.439   2.981   1.793 -0.5574 -0.0407  0.2512
 3884TIP3   OH233210   1.196   0.647   2.429  0.0290 -0.1347 -0.2841
 3884TIP3    H133211   1.167   0.716   2.369 -1.2323  1.3511  1.8839
 3884TIP3    H233212   1.176   0.681   2.516  1.5971 -2.2666  1.0087
 3885TIP3   OH233213   6.272   3.760   8.638  0.5783 -0.4151 -0.2167
 3885TIP3    H133214   6.286   3.778   8.546 -1.5862  0.8435 -0.3434
 3885TIP3    H233215   6.332   3.819   8.684  0.5779  0.0380 -0.7969
 3886TIP3   OH233216   5.067   5.218   8.296 -0.0088  0.4222  0.1544
 3886TIP3    H133217   5.114   5.266   8.364  1.1994 -0.1232 -0.2460
 3886TIP3    H233218   5.123   5.142   8.279 -1.4628 -0.7036  0.2144
 3887TIP3   OH233219   4.056   5.036   1.263  0.0281 -0.2438 -0.3693
 3887TIP3    H133220   4.018   4.981   1.332  1.6063  0.6585  1.3119
 3887TIP3    H233221   4.111   5.098   1.310 -0.0075  1.4008 -2.3769
 3888TIP3   OH233222   0.837   2.700   0.210 -0.0171 -0.0789  0.1349
 3888TIP3    H133223   0.848   2.780   0.261 -0.9491  0.1762 -0.0504
 3888TIP3    H233224   0.859   2.630   0.271  1.4484  0.3279  0.1103
 3889TIP3   OH233225   4.343   3.518   1.685  0.5398  0.2126  0.0281
 3889TIP3    H133226   4.323   3.516   1.779  0.7777  1.8695  0.1569
 3889TIP3    H233227   4.311   3.435   1.651  0.5740 -0.4733  1.6056
 3890TIP3   OH233228   4.295   4.346   8.182 -0.8126 -0.7888 -0.2964
 3890TIP3    H133229   4.324   4.354   8.091 -0.1785  0.4338 -0.0117
 3890TIP3    H233230   4.205   4.378   8.182 -0.7477 -0.6005 -0.4727
 3891TIP3   OH233231   3.201   5.213   8.194  0.0593 -0.3305  0.2434
 3891TIP3    H133232   3.120   5.243   8.152 -0.2687 -0.1821  0.9571
 3891TIP3    H233233   3.221   5.131   8.150  0.2243  0.2515 -0.8070
 3892TIP3   OH233234   2.394   5.116   7.190  0.1773  0.1596 -0.6189
 3892TIP3    H133235   2.421   5.136   7.100  2.0868 -0.4223 -0.2209
 3892TIP3    H233236   2.433   5.031   7.209  1.9646  1.3381  1.5646
 3893TIP3   OH233237   1.011   1.642   0.467 -0.9129  0.2211 -0.7070
 3893TIP3    H133238   1.103   1.663   0.485 -1.2609  0.1447  1.4170
 3893TIP3    H233239   1.013   1.596   0.383  1.1749 -0.9031 -0.1134
 3894TIP3   OH233240   6.212   1.639   1.685  0.4539 -0.6091 -0.6632
 3894TIP3    H133241   6.145   1.676   1.743 -0.3978  0.9392 -2.4998
 3894TIP3    H233242   6.216   1.701   1.611  2.9447 -1.4010 -1.2769
 3895TIP3   OH233243   0.373   3.758   1.176 -0.2626 -0.0784  0.2989
 3895TIP3    H133244   0.431   3.822   1.133  0.9490 -0.9872  0.5119
 3895TIP3    H233245   0.363   3.688   1.112 -0.5988 -0.2326  0.5169
 3896TIP3   OH233246   5.819   1.171   7.713  0.2094 -0.3887 -0.6958
 3896TIP3    H133247   5.811   1.137   7.803  0.7326  0.3739 -0.3573
 3896TIP3    H233248   5.755   1.120   7.663 -0.2011 -0.7154  0.1419
 3897TIP3   OH233249   1.677   5.208   8.283 -0.1828 -0.2071 -0.1566
 3897TIP3    H133250   1.754   5.176   8.237 -0.3138 -1.4857  0.4816
 3897TIP3    H233251   1.702   5.295   8.315  0.9151 -0.5140 -0.1473
 3898TIP3   OH233252   5.113   3.669   0.191  0.2883  0.1910  0.1825
 3898TIP3    H133253   5.163   3.613   0.251  0.0466 -0.6654 -0.4006
 3898TIP3    H233254   5.146   3.757   0.207  0.7936 -0.1389  1.0026
 3899TIP3   OH233255   3.407   2.936   7.001  0.6137  0.3825  0.0986
 3899TIP3    H133256   3.399   2.931   6.905 -0.7234  1.3034  0.1296
 3899TIP3    H233257   3.501   2.936   7.018  0.8677 -1.4306 -1.1106
 3900TIP3   OH233258   1.105   4.247   0.155  0.0401 -0.5614  0.1132
 3900TIP3    H133259   1.020   4.292   0.154  1.1254  1.7739  2.2267
 3900TIP3    H233260   1.099   4.186   0.228 -0.0493 -0.9126 -0.1860
 3901TIP3   OH233261   4.913   0.137   1.723  0.0117  0.4476 -0.2935
 3901TIP3    H133262   4.827   0.099   1.738  0.2096  0.0475 -0.1462
 3901TIP3    H233263   4.967   0.104   1.796  1.0431 -1.6750 -1.8807
 3902TIP3   OH233264   3.419   2.840   1.005  0.4491 -0.1056 -0.4690
 3902TIP3    H133265   3.459   2.767   0.957 -0.0335 -2.0613  1.8939
 3902TIP3    H233266   3.486   2.868   1.067 -0.5340 -1.0589  1.1109
 3903TIP3   OH233267   6.620   0.891   7.924  0.2393  0.0857  0.3801
 3903TIP3    H133268   6.693   0.898   7.985  0.8951  2.5787 -0.5607
 3903TIP3    H233269   6.542   0.884   7.979  0.9776  0.1303  1.4465
 3904TIP3   OH233270   0.202   6.242   7.748 -0.1091  0.3400  0.3773
 3904TIP3    H133271   0.213   6.336   7.735  2.3024  0.1049  0.1732
 3904TIP3    H233272   0.288   6.212   7.778 -0.5299 -1.9318 -0.4654
 3905TIP3   OH233273   4.826   2.732   0.016 -0.1471  0.2633  0.4737
 3905TIP3    H133274   4.746   2.758  -0.030 -0.1328 -0.9150 -0.2506
 3905TIP3    H233275   4.852   2.811   0.064 -1.7063  0.6959  0.6831
 3906TIP3   OH233276   5.596   0.193   1.806 -0.0320 -0.1513 -0.2920
 3906TIP3    H133277   5.509   0.202   1.846  1.3869  1.1617  2.7784
 3906TIP3    H233278   5.581   0.213   1.714 -2.7874  1.4440  0.3682
 3907TIP3   OH233279   4.364   2.424   1.978 -0.3840  0.2939  0.2097
 3907TIP3    H133280   4.290   2.485   1.983 -2.0105 -1.4406 -1.1621
 3907TIP3    H233281   4.412   2.452   1.901 -0.9523  0.0533 -0.2417
 3908TIP3   OH233282   6.390   2.633   7.981  0.1301 -0.1069  0.1848
 3908TIP3    H133283   6.481   2.631   8.011  0.0262  0.1758  0.5173
 3908TIP3    H233284   6.347   2.696   8.038  0.0894  0.9530 -0.9919
 3909TIP3   OH233285   2.948   3.072   8.216 -1.0685 -0.4445  0.0027
 3909TIP3    H133286   2.951   3.145   8.154 -3.2670 -1.9879 -2.0875
 3909TIP3    H233287   2.855   3.062   8.238 -0.6378 -1.6299  1.4946
 3910TIP3   OH233288   3.451   5.642   2.035  0.4556  0.2027 -0.0760
 3910TIP3    H133289   3.438   5.566   2.092  1.2026 -1.3608 -1.8410
 3910TIP3    H233290   3.364   5.661   2.000  0.6820 -2.2025 -2.3034
 3911TIP3   OH233291   0.606   2.268   1.181  0.8830  0.6820 -0.0762
 3911TIP3    H133292   0.547   2.305   1.116  1.2166 -0.9064 -1.3315
 3911TIP3    H233293   0.549   2.247   1.255  0.6724  3.5373  0.7045
 3912TIP3   OH233294   2.181   5.524   2.134 -0.3895  0.0708 -0.4456
 3912TIP3    H133295   2.259   5.475   2.158 -0.7295 -1.4966 -2.2623
 3912TIP3    H233296   2.187   5.605   2.184  1.8211 -0.4749  0.2881
 3913TIP3   OH233297   2.942   0.428   1.051  0.5305  0.3472  0.0437
 3913TIP3    H133298   2.968   0.354   0.996  3.0268  0.7224  0.5961
 3913TIP3    H233299   2.951   0.504   0.993 -1.6128  0.3254 -0.3958
 3914TIP3   OH233300   4.135   1.130   1.240  0.0437 -0.3501 -0.2071
 3914TIP3    H133301   4.140   1.034   1.231  0.1105 -0.4503  0.8055
 3914TIP3    H233302   4.055   1.145   1.290 -0.4237  0.1923 -1.0854
 3915TIP3   OH233303   3.558   6.749   0.154 -0.1360 -0.2978  0.1700
 3915TIP3    H133304   3.554   6.677   0.216 -1.1258  0.3161  0.8279
 3915TIP3    H233305   3.518   6.823   0.199  1.0476  0.7369 -0.4103
 3916TIP3   OH233306   5.540   1.418   2.650 -0.0813 -0.1440  0.1229
 3916TIP3    H133307   5.506   1.347   2.705  2.0320  0.0519  1.7937
 3916TIP3    H233308   5.487   1.494   2.675  0.3842 -0.2198  1.4207
 3917TIP3   OH233309   0.283   3.552   0.939  0.2356 -0.1124 -0.4699
 3917TIP3    H133310   0.202   3.502   0.949  1.1866 -1.7960 -0.6943
 3917TIP3    H233311   0.340   3.494   0.888  2.2913  0.1649  1.3596
 3918TIP3   OH233312   4.804   6.068   7.926  0.0552  0.1040  0.6422
 3918TIP3    H133313   4.867   5.997   7.915  0.1611  0.0923  1.2955
 3918TIP3    H233314   4.765   6.079   7.839  1.6529  0.7773 -0.0271
 3919TIP3   OH233315   2.712   0.585   0.777 -0.0192 -0.1889  0.4342
 3919TIP3    H133316   2.670   0.539   0.850  0.6863 -1.2876  0.1658
 3919TIP3    H233317   2.650   0.575   0.704  0.4716 -1.4164  0.1631
 3920TIP3   OH233318   2.530   2.167   8.938 -0.2342 -0.0853 -0.1561
 3920TIP3    H133319   2.511   2.082   8.899  0.8900 -1.3079  1.8190
 3920TIP3    H233320   2.454   2.221   8.915 -1.4559 -1.9067 -0.6286
 3921TIP3   OH233321   3.299   1.097   0.988 -0.0253 -0.0584 -0.0196
 3921TIP3    H133322   3.365   1.049   1.038  1.2093  0.6880 -0.8778
 3921TIP3    H233323   3.237   1.128   1.054  1.0255  0.0739  0.9290
 3922TIP3   OH233324   4.697   4.757   8.272  0.5724  0.4096 -0.3080
 3922TIP3    H133325   4.755   4.764   8.197  3.2211 -1.3741  1.3807
 3922TIP3    H233326   4.677   4.664   8.279  0.3872  0.5362  1.1984
 3923TIP3   OH233327   1.680   4.347   1.076 -0.1891 -0.2391 -0.2541
 3923TIP3    H133328   1.735   4.312   1.006 -2.4701  0.4709 -2.5338
 3923TIP3    H233329   1.611   4.282   1.088 -1.0437  0.6491 -0.2268
 3924TIP3   OH233330   1.183   5.169   1.647  0.0087  0.2012  0.3650
 3924TIP3    H133331   1.128   5.212   1.581  0.8113  1.9438  0.7588
 3924TIP3    H233332   1.268   5.212   1.638  0.5699 -0.6415  1.4742
 3925TIP3   OH233333   6.217   1.532   7.643  0.4885 -0.0215  0.3556
 3925TIP3    H133334   6.145   1.470   7.651 -0.0457  0.7465  2.1634
 3925TIP3    H233335   6.248   1.545   7.733  0.9556  1.8584 -0.0224
 3926TIP3   OH233336   4.614   4.964   1.128 -0.6140  0.2353  0.4371
 3926TIP3    H133337   4.522   4.962   1.157 -0.3872  0.3855  1.1841
 3926TIP3    H233338   4.660   4.910   1.192 -0.0933  0.5944  0.3648
 3927TIP3   OH233339   1.989   3.797   7.719 -0.1208  0.1121 -0.4290
 3927TIP3    H133340   2.031   3.795   7.633  0.5880  1.0875 -0.1304
 3927TIP3    H233341   2.022   3.877   7.760 -0.8065 -0.0939  0.5740
 3928TIP3   OH233342   5.108   2.939   8.908  0.5485 -0.0471  0.4985
 3928TIP3    H133343   5.191   2.946   8.955  0.8010  2.1662 -0.1953
 3928TIP3    H233344   5.042   2.970   8.970  0.3629 -0.7146  0.6494
 3929TIP3   OH233345   6.431   1.065   1.576 -0.3814 -0.1262  0.0476
 3929TIP3    H133346   6.526   1.064   1.576 -0.2742  2.5321  0.1924
 3929TIP3    H233347   6.406   1.084   1.486 -0.7747 -0.5432  0.0622
 3930TIP3   OH233348   5.732   1.999   2.628 -0.4568  0.0445 -0.1730
 3930TIP3    H133349   5.815   2.019   2.586  0.8036 -0.9248  1.6972
 3930TIP3    H233350   5.713   1.908   2.604 -0.5899  0.0269 -0.0099
 3931TIP3   OH233351   3.921   6.611   8.967 -0.0079 -0.3340 -0.5268
 3931TIP3    H133352   3.909   6.545   8.899  0.0071 -1.5085  0.5560
 3931TIP3    H233353   3.996   6.579   9.018  1.5554  1.7728 -1.3595
 3932TIP3   OH233354   6.465   2.572   6.709 -0.2912 -0.4139  0.7005
 3932TIP3    H133355   6.390   2.517   6.688 -0.6335  0.2297  0.2180
 3932TIP3    H233356   6.534   2.510   6.734 -1.5614 -0.9811  3.1994
 3933TIP3   OH233357   1.698   3.529   0.323  0.7445 -0.1397  0.3730
 3933TIP3    H133358   1.647   3.503   0.246 -0.3461 -0.9174  1.3293
 3933TIP3    H233359   1.670   3.618   0.341  1.8872  0.5030 -0.8028
 3934TIP3   OH233360   0.826   0.371   2.021  0.6013 -0.1313  1.1366
 3934TIP3    H133361   0.768   0.358   2.096 -0.2742 -0.8532  0.3539
 3934TIP3    H233362   0.900   0.420   2.057 -0.5333  0.9281  2.1455
 3935TIP3   OH233363   4.846   0.380   0.297  0.3868  0.4125 -0.0323
 3935TIP3    H133364   4.849   0.369   0.392  0.3142  0.6928  0.0019
 3935TIP3    H233365   4.767   0.431   0.281  0.1173 -0.0823 -0.2881
 3936TIP3   OH233366   0.276   1.815   1.480 -0.2163  0.0097 -0.2480
 3936TIP3    H133367   0.221   1.810   1.558 -0.9150  0.4579 -0.6945
 3936TIP3    H233368   0.330   1.893   1.493 -0.3002  0.0577 -0.1832
 3937TIP3   OH233369   2.133   2.085   2.458  0.2964 -0.6638 -0.8454
 3937TIP3    H133370   2.147   2.034   2.538  0.6992 -1.4437 -1.4027
 3937TIP3    H233371   2.042   2.113   2.463  0.9478  1.4385  1.0983
 3938TIP3   OH233372   1.052   4.055   7.556 -0.2015 -0.2548 -0.5355
 3938TIP3    H133373   0.960   4.033   7.542  0.0423 -0.1043 -2.9325
 3938TIP3    H233374   1.054   4.151   7.552  0.0060 -0.2428 -0.1246
 3939TIP3   OH233375   1.132   6.338   8.167 -0.2940  0.4149  0.1850
 3939TIP3    H133376   1.221   6.372   8.179 -0.4536  0.4787  1.3003
 3939TIP3    H233377   1.145   6.245   8.145  0.0822  0.7631 -1.1672
 3940TIP3   OH233378   4.142   1.923   7.549  0.0035  0.2929  0.0325
 3940TIP3    H133379   4.118   1.848   7.495 -2.1583  1.9005 -1.3959
 3940TIP3    H233380   4.200   1.975   7.494 -0.1593  0.6744  0.2172
 3941TIP3   OH233381   0.708   3.321   7.902 -0.1110 -0.1516  0.0323
 3941TIP3    H133382   0.744   3.323   7.990  0.1355 -2.3343  0.0364
 3941TIP3    H233383   0.767   3.265   7.853  0.0255  1.4183 -1.6883
 3942TIP3   OH233384   0.333   2.536   8.424  0.2036  0.1095  0.0582
 3942TIP3    H133385   0.419   2.575   8.439 -0.2897  0.7279  1.5012
 3942TIP3    H233386   0.320   2.543   8.329  2.0181 -0.6633 -0.2978
 3943TIP3   OH233387   0.177   1.960   7.980 -0.6719 -0.0288 -0.0000
 3943TIP3    H133388   0.224   2.024   7.928 -0.8577  0.3742  0.3241
 3943TIP3    H233389   0.137   2.010   8.051 -2.7089 -0.1117 -0.9987
 3944TIP3   OH233390   1.460   0.047   1.931  0.1342 -0.2333  0.9511
 3944TIP3    H133391   1.441   0.089   1.848 -0.2070 -0.0478  1.1192
 3944TIP3    H233392   1.546   0.007   1.919 -1.2848 -3.1271 -0.6747
 3945TIP3   OH233393   3.858   0.385   7.209  0.6438  0.8934 -0.1847
 3945TIP3    H133394   3.850   0.299   7.169  1.8008  0.2541  0.8964
 3945TIP3    H233395   3.821   0.445   7.144  1.5512 -0.1922 -1.7685
 3946TIP3   OH233396   0.096   1.708   2.084 -0.3331  0.4657  0.7386
 3946TIP3    H133397   0.050   1.678   2.006 -1.2453  1.3197  0.9268
 3946TIP3    H233398   0.076   1.642   2.151 -0.4637  0.3192  0.5550
 3947TIP3   OH233399   1.861   6.541   6.928 -0.0442 -0.1394  0.1132
 3947TIP3    H133400   1.803   6.605   6.968  0.6400  0.5422  0.0472
 3947TIP3    H233401   1.949   6.578   6.940  0.6703 -2.2826  2.4202
 3948TIP3   OH233402   3.976   3.968   8.140 -0.0145 -0.4350 -0.1241
 3948TIP3    H133403   4.045   3.902   8.135  1.4171  0.9602  0.3011
 3948TIP3    H233404   3.997   4.029   8.070 -1.2953 -0.4068 -0.4922
 3949TIP3   OH233405   4.534   3.677   0.360 -0.4710  0.6069 -0.1184
 3949TIP3    H133406   4.462   3.726   0.320 -0.1716  2.3942  1.4003
 3949TIP3    H233407   4.566   3.734   0.429  1.2195 -0.9459  0.4521
 3950TIP3   OH233408   0.205   1.899   0.935 -0.9409  0.2051  0.3980
 3950TIP3    H133409   0.208   1.806   0.912 -1.7627  0.8167 -2.7451
 3950TIP3    H233410   0.188   1.900   1.029 -1.0329 -2.8158  0.5159
 3951TIP3   OH233411   1.690   0.308   8.502 -0.0824  0.0075  0.2871
 3951TIP3    H133412   1.649   0.284   8.419 -0.9966  1.5609  0.2429
 3951TIP3    H233413   1.636   0.267   8.569 -0.8006  0.7580  0.1772
 3952TIP3   OH233414   0.715   3.722   1.385 -0.5957 -0.2418 -0.8510
 3952TIP3    H133415   0.632   3.704   1.340 -0.0231 -0.8786 -1.7017
 3952TIP3    H233416   0.760   3.638   1.385 -0.2218 -0.0506  0.2061
 3953TIP3   OH233417   6.596   1.407   8.597  0.3082  0.4179 -0.1544
 3953TIP3    H133418   6.647   1.439   8.522 -0.1828  0.1031 -0.6270
 3953TIP3    H233419   6.649   1.430   8.673  0.9506  0.4877 -0.6135
 3954TIP3   OH233420   0.525   4.486   8.149 -0.3379 -0.2139  0.5226
 3954TIP3    H133421   0.511   4.467   8.056 -1.3538 -0.9760  0.8213
 3954TIP3    H233422   0.618   4.468   8.163  0.2909  1.6739 -0.7341
 3955TIP3   OH233423   5.946   6.709   7.580  0.5009 -0.0047  0.2105
 3955TIP3    H133424   5.874   6.657   7.616  0.8206 -1.6569 -1.3978
 3955TIP3    H233425   5.923   6.800   7.600 -1.3241 -0.5880  0.9316
 3956TIP3   OH233426   2.688   4.137   0.734 -0.4166 -0.8923  0.1253
 3956TIP3    H133427   2.618   4.165   0.676  1.4399  2.6778 -0.6446
 3956TIP3    H233428   2.653   4.150   0.822 -0.3532  2.4796 -0.2213
 3957TIP3   OH233429   5.240   4.293   0.739  0.0247  0.3267 -0.0858
 3957TIP3    H133430   5.163   4.284   0.796  0.2946  0.4549  0.2975
 3957TIP3    H233431   5.233   4.382   0.704 -1.0976 -0.3242 -1.6493
 3958TIP3   OH233432   1.614   0.355   7.809  0.7817 -0.4732  0.1830
 3958TIP3    H133433   1.603   0.450   7.800  2.0531 -0.4626 -1.9441
 3958TIP3    H233434   1.597   0.338   7.901 -3.3538  1.2279  0.0001
 3959TIP3   OH233435   1.718   2.469   0.063  0.2150  0.2061 -0.5443
 3959TIP3    H133436   1.698   2.384   0.025 -1.4835  0.1789  0.3152
 3959TIP3    H233437   1.760   2.449   0.147  1.0412  0.2495 -0.9338
 3960TIP3   OH233438   1.355   3.560   1.181  0.8121  0.3684 -0.3912
 3960TIP3    H133439   1.321   3.604   1.259  3.1320  1.4142  0.1037
 3960TIP3    H233440   1.391   3.477   1.214 -2.1131 -1.3280 -1.0890
 3961TIP3   OH233441   4.743   4.000   0.620 -0.8375  0.4387 -0.0893
 3961TIP3    H133442   4.653   4.019   0.594 -1.2965 -0.9617  0.4020
 3961TIP3    H233443   4.782   3.958   0.543 -0.2905  1.9069 -0.6396
 3962TIP3   OH233444   5.810   1.032   7.261 -0.5686  0.9139 -0.3967
 3962TIP3    H133445   5.892   1.040   7.212  0.3465  1.3546  1.1383
 3962TIP3    H233446   5.743   1.065   7.201  0.2613 -0.0488 -1.9199
 3963TIP3   OH233447   5.009   3.085   7.982 -0.4489  0.3359  0.7993
 3963TIP3    H133448   5.009   3.142   7.905 -2.0669 -1.3507 -0.5374
 3963TIP3    H233449   4.972   3.139   8.052 -0.2689  1.4522  0.0539
 3964TIP3   OH233450   3.842   1.278   1.932 -0.1634 -0.4424  0.4884
 3964TIP3    H133451   3.914   1.337   1.911 -0.7317 -0.4624 -1.7995
 3964TIP3    H233452   3.873   1.191   1.905  0.6307 -1.2884  3.7455
 3965TIP3   OH233453   2.347   3.681   8.761  0.3816 -0.3615  0.2609
 3965TIP3    H133454   2.428   3.630   8.758  0.3967 -0.3272  0.0821
 3965TIP3    H233455   2.373   3.767   8.727 -0.0282 -0.7428 -1.0665
 3966TIP3   OH233456   3.763   5.546   7.263 -0.3787  0.0066 -0.6231
 3966TIP3    H133457   3.697   5.478   7.247 -0.2711  0.1914 -1.9729
 3966TIP3    H233458   3.728   5.624   7.220 -1.2891  1.3357  2.3105
 3967TIP3   OH233459   6.559   1.020   6.935 -0.4354  0.1531 -0.1931
 3967TIP3    H133460   6.569   1.106   6.975  0.7493 -0.8644  1.8517
 3967TIP3    H233461   6.603   1.028   6.850  1.1096  1.1361  0.6522
 3968TIP3   OH233462   6.358   6.633   0.874 -0.2533 -0.5743 -0.0709
 3968TIP3    H133463   6.432   6.585   0.910 -0.1163 -0.4781 -0.2243
 3968TIP3    H233464   6.363   6.719   0.916  1.4151  0.4577 -2.1777
 3969TIP3   OH233465   6.534   3.582   0.871 -0.2584  0.0049  0.8610
 3969TIP3    H133466   6.602   3.588   0.938 -0.0566  0.1395  0.6433
 3969TIP3    H233467   6.582   3.579   0.788 -0.5305  0.4617  0.6867
 3970TIP3   OH233468   0.533   2.616   1.510  0.3556  0.1771  0.5641
 3970TIP3    H133469   0.501   2.567   1.434  1.0895  0.2459  0.2054
 3970TIP3    H233470   0.462   2.676   1.531  1.4680  2.7956 -2.3546
 3971TIP3   OH233471   0.654   0.438   7.101 -0.0267  0.1123 -0.5487
 3971TIP3    H133472   0.560   0.457   7.102 -0.2470 -0.8955  1.5003
 3971TIP3    H233473   0.694   0.520   7.072 -1.2037  2.6069  3.9588
 3972TIP3   OH233474   4.619   3.239   6.513 -0.0968 -0.3665 -0.0988
 3972TIP3    H133475   4.565   3.260   6.590  0.4761  0.9729 -0.0373
 3972TIP3    H233476   4.576   3.285   6.441  0.8992  0.6711 -0.0572
 3973TIP3   OH233477   1.405   1.759   1.649 -0.0786  0.2260 -0.0902
 3973TIP3    H133478   1.391   1.761   1.743  0.6663 -0.0238  0.0321
 3973TIP3    H233479   1.322   1.789   1.611 -0.5354 -0.1341  0.6236
 3974TIP3   OH233480   2.364   1.699   0.357 -0.2487 -0.0796  0.0219
 3974TIP3    H133481   2.433   1.633   0.369 -0.5621 -0.8794 -2.0966
 3974TIP3    H233482   2.304   1.685   0.430  0.1946 -1.5198  0.1429
 3975TIP3   OH233483   6.236   1.322   1.849  0.5101 -0.0736 -0.3279
 3975TIP3    H133484   6.147   1.347   1.873  0.0389 -1.9708  0.1057
 3975TIP3    H233485   6.291   1.388   1.890 -0.5485 -0.5629  2.0955
 3976TIP3   OH233486   3.280   4.622   0.781  0.0719 -0.5474 -0.0946
 3976TIP3    H133487   3.353   4.677   0.752 -1.7040  2.1271  0.2123
 3976TIP3    H233488   3.314   4.576   0.858  1.5863  0.2716 -0.2423
 3977TIP3   OH233489   2.247   1.225   7.859  0.6388 -0.1811  0.2182
 3977TIP3    H133490   2.244   1.146   7.913  0.9441 -0.9116 -0.8199
 3977TIP3    H233491   2.157   1.237   7.830  0.7202 -0.5438 -0.1864
 3978TIP3   OH233492   2.986   2.130   1.078  0.1545  0.3302 -1.2618
 3978TIP3    H133493   2.891   2.117   1.069  0.1768 -0.0281 -1.0426
 3978TIP3    H233494   2.998   2.224   1.075 -0.7979  0.8649  3.5343
 3979TIP3   OH233495   5.037   3.138   7.069 -0.1959  0.2438 -0.0157
 3979TIP3    H133496   4.983   3.213   7.092  0.3459  0.9298 -0.9471
 3979TIP3    H233497   5.119   3.175   7.038  0.1825 -0.7436 -0.2432
 3980TIP3   OH233498   3.650   0.493   7.391 -1.0050  0.1974 -0.0478
 3980TIP3    H133499   3.696   0.410   7.382 -2.0696 -0.5909  1.4296
 3980TIP3    H233500   3.611   0.508   7.305  0.7571  0.1771 -0.9116
 3981TIP3   OH233501   0.757   3.842   0.437 -0.0094  0.1234  0.4365
 3981TIP3    H133502   0.694   3.821   0.506  0.7816 -0.7236  0.9237
 3981TIP3    H233503   0.704   3.852   0.358 -0.8473  0.3640  1.0196
 3982TIP3   OH233504   4.550   5.204   8.028  0.1920 -0.1759  0.5213
 3982TIP3    H133505   4.505   5.121   8.010 -0.4713  0.2941 -0.0334
 3982TIP3    H233506   4.483   5.258   8.072 -0.8190  1.5821 -2.8308
 3983TIP3   OH233507   3.806   1.122   8.561 -0.3427 -0.9003  0.2468
 3983TIP3    H133508   3.885   1.097   8.609 -0.8397  0.3333  1.7853
 3983TIP3    H233509   3.741   1.055   8.584 -0.8924  0.2428  2.2357
 3984TIP3   OH233510   4.687   3.148   2.016 -0.5264 -0.3081 -0.2634
 3984TIP3    H133511   4.695   3.084   1.945  3.3626  0.0270 -0.3379
 3984TIP3    H233512   4.661   3.097   2.092  0.3627 -1.5954 -0.7992
 3985TIP3   OH233513   0.296   4.900   8.315  0.0127 -0.0369 -0.5983
 3985TIP3    H133514   0.232   4.841   8.353 -0.3118  0.7853  0.1620
 3985TIP3    H233515   0.366   4.906   8.380 -0.8440  1.8761  0.2124
 3986TIP3   OH233516   4.983   6.385   2.747 -0.0169 -0.2240 -0.1000
 3986TIP3    H133517   4.900   6.397   2.700  0.6386 -0.9059 -1.5085
 3986TIP3    H233518   5.028   6.317   2.697  1.3946  0.1447  0.6337
 3987TIP3   OH233519   2.366   2.762   7.484 -0.5959  0.4015  0.5495
 3987TIP3    H133520   2.390   2.853   7.502 -3.4439  2.0923 -2.9531
 3987TIP3    H233521   2.274   2.755   7.511 -1.4699 -0.2876 -2.2532
 3988TIP3   OH233522   1.804   4.012   1.364  0.2883 -0.7190 -0.4542
 3988TIP3    H133523   1.774   4.054   1.283 -0.9756  1.4100  1.0378
 3988TIP3    H233524   1.733   3.952   1.387 -1.2632  1.5431  1.0577
 3989TIP3   OH233525   2.997   4.919   7.342  0.2007  0.6722 -0.4044
 3989TIP3    H133526   2.917   4.956   7.379 -0.9950 -0.4464 -1.7804
 3989TIP3    H233527   3.033   4.865   7.412 -1.7794 -1.0610 -0.6357
 3990TIP3   OH233528   6.428   6.246   0.973  0.2210  0.1496 -0.6325
 3990TIP3    H133529   6.429   6.342   0.976  0.3828  0.1252  1.2940
 3990TIP3    H233530   6.367   6.221   1.043  0.9424 -1.1651 -0.4540
 3991TIP3   OH233531   0.507   4.911   7.119  0.2460  0.1608 -0.0426
 3991TIP3    H133532   0.427   4.907   7.067 -0.5339 -1.1739  1.1637
 3991TIP3    H233533   0.574   4.869   7.064 -0.2083  0.1021 -0.5513
 3992TIP3   OH233534   3.132   6.062   0.526 -0.3142 -0.0685  0.3077
 3992TIP3    H133535   3.143   6.057   0.621  0.6256 -1.3388  0.1623
 3992TIP3    H233536   3.180   5.986   0.493  0.5946  1.1455 -1.2771
 3993TIP3   OH233537   5.652   5.726   7.119  0.3091 -0.1963 -0.7751
 3993TIP3    H133538   5.690   5.755   7.036  1.8957  0.6168  0.1896
 3993TIP3    H233539   5.614   5.805   7.157 -1.5651 -0.8142 -1.2745
 3994TIP3   OH233540   6.703   6.507   0.116  0.3748  0.3242 -0.1886
 3994TIP3    H133541   6.684   6.444   0.185  0.1691  0.1828 -0.3721
 3994TIP3    H233542   6.698   6.455   0.035  1.9362  0.1735 -0.2308
 3995TIP3   OH233543   4.854   2.838   7.997 -0.1478  0.2891  0.1306
 3995TIP3    H133544   4.852   2.801   7.909  0.7871 -1.0685  0.6369
 3995TIP3    H233545   4.940   2.881   8.002 -0.5033  1.0138  0.1480
 3996TIP3   OH233546   6.723   5.229   7.807 -0.2705  0.4610 -0.1651
 3996TIP3    H133547   6.679   5.239   7.723 -0.6960 -0.5297 -0.0786
 3996TIP3    H233548   6.681   5.293   7.864 -1.8237 -0.6442 -0.0074
 3997TIP3   OH233549   2.325   1.275   7.360  0.6695  0.0200  0.3132
 3997TIP3    H133550   2.247   1.299   7.408 -0.0224 -0.4928 -0.5203
 3997TIP3    H233551   2.331   1.180   7.368  1.2102  0.0524  0.3705
 3998TIP3   OH233552   0.938   0.918   8.643 -0.7613 -0.2484 -0.2250
 3998TIP3    H133553   0.878   0.903   8.715 -0.4342 -1.0674 -0.1148
 3998TIP3    H233554   1.023   0.933   8.684 -0.8130  0.5653 -0.3943
 3999TIP3   OH233555   1.571   3.450   8.310  0.2891 -0.3669  0.1257
 3999TIP3    H133556   1.504   3.512   8.338 -1.0164 -0.9927 -1.4186
 3999TIP3    H233557   1.617   3.494   8.239  0.6543 -0.4421  0.3108
 4000TIP3   OH233558   2.948   4.845   1.120  0.1113 -0.4077  0.6634
 4000TIP3    H133559   2.991   4.774   1.073 -0.5813 -1.2308  1.2431
 4000TIP3    H233560   2.975   4.833   1.211 -0.6580 -0.4256  0.8944
 4001TIP3   OH233561   5.673   4.783   7.926  0.0252  0.0350  0.5534
 4001TIP3    H133562   5.757   4.830   7.925  0.1808 -0.1618  2.2179
 4001TIP3    H233563   5.607   4.852   7.924  0.1767  0.1851 -1.1914
 4002TIP3   OH233564   6.436   5.889   0.191 -0.4691 -0.0092 -0.6074
 4002TIP3    H133565   6.407   5.922   0.276 -0.1711 -2.4209  0.5129
 4002TIP3    H233566   6.357   5.856   0.149 -0.4548  0.2022 -0.8007
 4003TIP3   OH233567   3.926   2.883   0.520  0.4806  0.4568 -0.2880
 4003TIP3    H133568   3.961   2.898   0.433  2.6706  1.6365  0.7079
 4003TIP3    H233569   3.849   2.939   0.525 -0.3844 -0.5245 -1.8064
 4004TIP3   OH233570   3.077   4.405   7.344 -0.4146 -0.0824  0.9493
 4004TIP3    H133571   3.019   4.329   7.340 -0.3342 -0.1085 -0.0047
 4004TIP3    H233572   3.035   4.470   7.286  1.5479 -0.8623 -1.5520
 4005TIP3   OH233573   2.423   0.684   2.338 -0.2104  0.1474  0.4976
 4005TIP3    H133574   2.403   0.644   2.253  0.6640 -2.2392  1.3126
 4005TIP3    H233575   2.516   0.708   2.331 -0.5788  1.5823  0.2247
 4006TIP3   OH233576   4.828   3.714   0.791 -0.8145 -0.4059  0.2712
 4006TIP3    H133577   4.858   3.757   0.711 -0.2490 -0.0496  0.6731
 4006TIP3    H233578   4.794   3.629   0.761 -2.0050  0.3246 -0.5293
 4007TIP3   OH233579   3.448   2.977   8.792 -0.3617 -0.2529  0.3789
 4007TIP3    H133580   3.525   3.025   8.824  0.4103 -1.1908 -0.0301
 4007TIP3    H233581   3.417   3.029   8.718  0.6041 -0.4870 -0.2076
 4008TIP3   OH233582   5.354   0.780   7.067  0.4275 -0.2514 -0.2743
 4008TIP3    H133583   5.364   0.811   6.977 -2.5024  1.1576 -0.2495
 4008TIP3    H233584   5.320   0.691   7.058 -1.6675  0.5357 -0.6898
 4009TIP3   OH233585   2.395   1.173   8.229 -0.1530  0.0847 -0.6967
 4009TIP3    H133586   2.339   1.249   8.246 -0.5531  0.2508 -2.5485
 4009TIP3    H233587   2.371   1.110   8.297 -1.6685  0.6431 -0.6795
 4010TIP3   OH233588   4.492   3.209   7.568 -0.6942  0.4852  0.0569
 4010TIP3    H133589   4.575   3.177   7.603 -0.1339  2.1433  0.3529
 4010TIP3    H233590   4.461   3.272   7.633 -3.1988 -1.4382  0.9141
 4011TIP3   OH233591   6.507   5.832   1.243  0.1388 -0.3688 -0.4484
 4011TIP3    H133592   6.483   5.745   1.211  1.3140 -1.1757  0.7220
 4011TIP3    H233593   6.565   5.814   1.317  1.0038  1.4331 -0.6447
 4012TIP3   OH233594   3.512   2.558   0.730  0.5215 -0.3992 -0.3262
 4012TIP3    H133595   3.455   2.631   0.709 -1.9882 -2.1928 -0.2300
 4012TIP3    H233596   3.576   2.556   0.659 -0.5875  0.6688 -1.3925
 4013TIP3   OH233597   2.810   5.868   8.161  0.8866 -0.2183  0.0715
 4013TIP3    H133598   2.736   5.814   8.135  2.2614 -1.4313 -1.5394
 4013TIP3    H233599   2.784   5.957   8.140 -0.5723 -0.4714  0.7029
 4014TIP3   OH233600   2.627   0.735   8.472  0.0315 -0.0300 -1.0380
 4014TIP3    H133601   2.585   0.782   8.544  1.4766  0.2910 -0.3652
 4014TIP3    H233602   2.555   0.710   8.414 -0.8464  2.5462 -1.1654
 4015TIP3   OH233603   4.991   3.741   1.926 -0.3625  0.2254 -0.2393
 4015TIP3    H133604   4.914   3.697   1.961 -0.6800  0.7934 -0.1997
 4015TIP3    H233605   5.065   3.686   1.953 -0.7626 -0.4013 -0.4034
 4016TIP3   OH233606   5.382   1.290   0.061  0.8438  0.0759 -0.6200
 4016TIP3    H133607   5.397   1.376   0.022  1.0195 -0.2757 -1.3406
 4016TIP3    H233608   5.352   1.309   0.150  1.8228  0.8585 -0.4422
 4017TIP3   OH233609   2.161   1.232   2.350 -0.7737 -0.0567 -0.4688
 4017TIP3    H133610   2.222   1.267   2.414 -3.0886  0.9808  1.3400
 4017TIP3    H233611   2.186   1.273   2.268 -0.2826  1.9444  0.6213
 4018TIP3   OH233612   0.830   5.282   0.672  0.7118 -0.7128  0.0485
 4018TIP3    H133613   0.747   5.275   0.720  0.8205 -3.0113  0.0478
 4018TIP3    H233614   0.832   5.203   0.618  2.7519 -0.5314 -0.2077
 4019TIP3   OH233615   3.000   4.982   0.479  0.5943  0.4907  0.3594
 4019TIP3    H133616   3.081   4.966   0.430  0.2730 -0.1649  0.0131
 4019TIP3    H233617   3.028   5.021   0.561  1.0822  2.6702 -0.7796
 4020TIP3   OH233618   0.530   1.014   1.265  0.3389 -0.2776  0.7783
 4020TIP3    H133619   0.444   0.992   1.301 -0.1162 -0.2992 -0.3115
 4020TIP3    H233620   0.578   0.931   1.264 -0.2453 -0.6153 -0.2665
 4021TIP3   OH233621   2.954   5.449   8.524  0.5445  0.0258  0.0154
 4021TIP3    H133622   2.934   5.542   8.513 -0.6764 -0.3108 -0.8439
 4021TIP3    H233623   3.032   5.435   8.471  0.4454  0.4672 -0.2565
 4022TIP3   OH233624   0.131   3.316   8.294 -0.4496  0.0890  0.5811
 4022TIP3    H133625   0.179   3.377   8.350 -0.2066  2.3336 -1.8727
 4022TIP3    H233626   0.054   3.291   8.346 -1.1798  3.4423  1.3527
 4023TIP3   OH233627   5.210   0.354   8.419 -0.6453  0.1820 -0.7793
 4023TIP3    H133628   5.296   0.321   8.446 -0.4940  0.1221 -1.3295
 4023TIP3    H233629   5.163   0.277   8.387 -0.9412  0.1982 -0.3895
 4024TIP3   OH233630   1.565   5.674   1.563 -0.4374  0.0926  0.6256
 4024TIP3    H133631   1.651   5.665   1.603 -1.0330  0.9896  2.1889
 4024TIP3    H233632   1.581   5.723   1.482  0.4523  0.7570  1.1842
 4025TIP3   OH233633   6.456   5.724   7.190 -0.3765  0.0846  0.0215
 4025TIP3    H133634   6.429   5.703   7.100  2.4307  0.0989 -0.9321
 4025TIP3    H233635   6.424   5.813   7.205 -0.2284  0.3783 -1.2797
 4026TIP3   OH233636   0.233   3.146   7.931  0.0672 -0.8245  0.1716
 4026TIP3    H133637   0.288   3.209   7.883 -0.3601 -0.3738  0.2566
 4026TIP3    H233638   0.174   3.111   7.864 -1.4564  0.8161  0.5605
 4027TIP3   OH233639   2.603   1.701   7.319 -0.7886 -0.8465  0.3297
 4027TIP3    H133640   2.697   1.716   7.307 -0.9672  0.5068  0.4661
 4027TIP3    H233641   2.591   1.608   7.300  0.4304 -0.8446 -0.6026
 4028TIP3   OH233642   2.974   2.726   2.015 -0.6979 -0.2061  0.0688
 4028TIP3    H133643   2.900   2.785   2.002 -0.9169 -0.0827  1.6756
 4028TIP3    H233644   2.959   2.686   2.101  1.2675  0.0709  0.6016
 4029TIP3   OH233645   0.774   0.013   8.141  0.0849 -0.2426 -0.0692
 4029TIP3    H133646   0.752   0.041   8.230  0.9058  2.2859 -0.5882
 4029TIP3    H233647   0.848  -0.048   8.154  1.2077  1.2536  0.9438
 4030TIP3   OH233648   2.428   0.041   1.372 -0.3225 -0.2248  1.0025
 4030TIP3    H133649   2.514   0.000   1.382  0.0538  0.1767 -0.3818
 4030TIP3    H233650   2.430   0.115   1.433 -0.0335 -0.7351  1.6297
 4031TIP3   OH233651   1.693   1.634   7.705 -0.3975 -0.0506  0.2292
 4031TIP3    H133652   1.601   1.658   7.715  0.1246  2.0325  0.6423
 4031TIP3    H233653   1.738   1.682   7.776  0.9331 -1.5286  0.4407
 4032TIP3   OH233654   5.631   6.070   1.396 -0.1998 -0.1070  0.5558
 4032TIP3    H133655   5.645   5.981   1.428 -0.5239 -0.0299  0.9147
 4032TIP3    H233656   5.577   6.111   1.463 -1.2180 -0.0612 -0.2725
 4033TIP3   OH233657   4.939   3.712   8.931  0.5149  0.3617  0.4642
 4033TIP3    H133658   4.902   3.634   8.889 -1.4941  1.0666  0.8054
 4033TIP3    H233659   5.011   3.678   8.985  0.0128 -1.1936  0.2165
 4034TIP3   OH233660   4.422   1.712   8.188 -0.1305  0.5037  0.6899
 4034TIP3    H133661   4.499   1.671   8.227 -0.1026 -0.3307 -0.1889
 4034TIP3    H233662   4.442   1.717   8.094 -1.2516  0.0084  0.4036
 4035TIP3   OH233663   3.711   2.272   6.469 -0.0207  0.8278  0.5069
 4035TIP3    H133664   3.635   2.322   6.498  0.1973  0.6919  1.3489
 4035TIP3    H233665   3.770   2.337   6.432 -0.3225  1.0040  0.3288
 4036TIP3   OH233666   0.914   6.479   1.182 -0.2130  0.0899  0.1280
 4036TIP3    H133667   0.837   6.520   1.221 -2.8100 -4.2471  0.1847
 4036TIP3    H233668   0.888   6.459   1.092  1.6827  0.4063 -0.5368
 4037TIP3   OH233669   1.641   6.292   7.318  0.4005  0.1175 -0.2519
 4037TIP3    H133670   1.551   6.277   7.289 -0.0595  1.2473  0.5226
 4037TIP3    H233671   1.669   6.208   7.353 -1.2399  0.3288  1.7620
 4038TIP3   OH233672   3.517   1.796   1.211  0.8022 -0.1948  0.2490
 4038TIP3    H133673   3.510   1.834   1.124  0.2679 -0.2051  0.2860
 4038TIP3    H233674   3.458   1.720   1.209 -0.6601  0.8693  1.1887
 4039TIP3   OH233675   0.612   4.641   6.684 -0.5996 -0.3336 -0.8129
 4039TIP3    H133676   0.562   4.719   6.708 -0.2844 -0.4856  0.3889
 4039TIP3    H233677   0.696   4.674   6.653 -1.3715 -0.0782 -2.7916
 4040TIP3   OH233678   4.272   1.199   8.613 -0.6081  0.1941  0.2958
 4040TIP3    H133679   4.360   1.205   8.651 -0.9365 -1.3607  1.4102
 4040TIP3    H233680   4.227   1.278   8.643  0.0317  0.3813  0.7801
 4041TIP3   OH233681   4.516   1.374   1.131 -0.1361  0.3267 -0.2818
 4041TIP3    H133682   4.530   1.408   1.220  1.2747  3.6683 -1.6223
 4041TIP3    H233683   4.596   1.325   1.111  0.3297  1.0750 -0.2959
 4042TIP3   OH233684   1.163   6.066   8.174 -0.1049  0.0823  0.2571
 4042TIP3    H133685   1.166   5.976   8.142  0.3337  0.4806 -0.8818
 4042TIP3    H233686   1.217   6.066   8.253 -1.0622 -0.8959  0.9290
 4043TIP3   OH233687   1.886   3.540   8.364  0.0211 -0.3916 -0.0663
 4043TIP3    H133688   1.828   3.476   8.323  0.0615 -1.1814  1.0615
 4043TIP3    H233689   1.909   3.501   8.448 -0.1028  1.1815  0.7406
 4044TIP3   OH233690   1.229   4.762   1.867  0.1226  0.0093  0.0212
 4044TIP3    H133691   1.320   4.792   1.859  0.6335 -1.7546 -1.8474
 4044TIP3    H233692   1.182   4.809   1.799 -0.2673  0.5581  0.6639
 4045TIP3   OH233693   5.716   5.182   1.115 -0.4874 -0.1907  0.4307
 4045TIP3    H133694   5.640   5.134   1.148 -0.5270  0.1184  0.8001
 4045TIP3    H233695   5.751   5.127   1.045 -1.0344 -0.3493  0.2789
 4046TIP3   OH233696   5.585   2.034   6.492 -0.2443 -0.4963 -0.6953
 4046TIP3    H133697   5.517   1.967   6.491 -0.0364 -0.7230 -0.1890
 4046TIP3    H233698   5.538   2.117   6.495 -0.5048 -0.6118 -1.5132
 4047TIP3   OH233699   2.282   5.965   0.928  0.1992 -0.0013 -0.0693
 4047TIP3    H133700   2.300   5.875   0.956 -0.2328 -0.5516 -1.4872
 4047TIP3    H233701   2.354   5.986   0.868 -0.8516 -0.1884 -1.4181
 4048TIP3   OH233702   3.548   1.037   8.491  0.0481 -0.0275  0.8283
 4048TIP3    H133703   3.560   1.022   8.398  2.6816  0.7224  0.9831
 4048TIP3    H233704   3.484   1.108   8.496  0.9754  0.9394 -0.4738
 4049TIP3   OH233705   4.337   3.188   1.905 -0.8193  0.2274  0.7901
 4049TIP3    H133706   4.329   3.253   1.835  1.7203  2.6686  2.5407
 4049TIP3    H233707   4.265   3.207   1.964 -2.0875 -0.8798 -0.3173
 4050TIP3   OH233708   3.518   6.462   0.844  0.7937 -0.3673  0.5995
 4050TIP3    H133709   3.498   6.436   0.755  0.9206 -1.5021  0.8846
 4050TIP3    H233710   3.433   6.477   0.885  0.7583  2.0529 -0.2111
 4051TIP3   OH233711   2.744   3.021   8.624  0.2746 -0.0628  0.5519
 4051TIP3    H133712   2.753   2.968   8.545  0.5552  1.6362 -0.6055
 4051TIP3    H233713   2.830   3.062   8.635  0.3430 -0.5488  1.9531
 4052TIP3   OH233714   3.941   2.673   7.654  0.5658  0.6531  0.0757
 4052TIP3    H133715   3.873   2.659   7.719  0.5983  2.9305  0.6783
 4052TIP3    H233716   4.009   2.722   7.701  0.6860  2.1606 -1.5811
 4053TIP3   OH233717   0.278   5.971   8.168 -0.2995  0.1178 -0.2800
 4053TIP3    H133718   0.324   6.016   8.239  0.4153 -1.6735  0.4614
 4053TIP3    H233719   0.338   5.901   8.141 -1.1490 -0.1061 -1.7084
 4054TIP3   OH233720   5.982   4.412   0.635 -0.3317 -0.2768  0.1719
 4054TIP3    H133721   6.000   4.350   0.706 -1.1262  0.3363  0.9305
 4054TIP3    H233722   5.894   4.387   0.604 -0.2701 -0.1105 -0.1378
 4055TIP3   OH233723   1.669   1.271   0.734  0.3800 -0.4801  0.0409
 4055TIP3    H133724   1.586   1.245   0.694 -0.4994  0.0349  1.4798
 4055TIP3    H233725   1.651   1.276   0.828  1.6294  1.1517  0.2476
 4056TIP3   OH233726   1.824   0.002   8.016 -0.2436  0.3873 -0.6853
 4056TIP3    H133727   1.759  -0.033   7.955  0.2103  0.6240 -1.3125
 4056TIP3    H233728   1.772   0.047   8.083 -0.7267  0.7242 -1.2760
 4057TIP3   OH233729   1.559   5.849   1.295 -0.3911 -0.2548  0.1114
 4057TIP3    H133730   1.641   5.869   1.341 -0.0339 -1.2198 -0.1046
 4057TIP3    H233731   1.494   5.906   1.338 -0.0205 -0.9450  1.6665
 4058TIP3   OH233732   0.371   0.871   0.662 -0.2449 -0.8701  0.0200
 4058TIP3    H133733   0.442   0.903   0.718 -0.7083  0.7667 -0.2625
 4058TIP3    H233734   0.365   0.777   0.681  2.3421 -1.1778 -0.3549
 4059TIP3   OH233735   0.071   2.128   0.800  0.0497  0.1566 -0.3319
 4059TIP3    H133736   0.120   2.048   0.822  0.4065 -0.0158 -1.6743
 4059TIP3    H233737   0.087   2.186   0.874  1.4390 -0.2871 -0.2430
 4060TIP3   OH233738   6.204   0.589   7.466 -1.0403 -0.5264 -0.0784
 4060TIP3    H133739   6.168   0.643   7.395  1.5747  2.1873  0.4855
 4060TIP3    H233740   6.256   0.522   7.421  0.0984  0.7940 -0.7943
 4061TIP3   OH233741   2.753   2.624   1.295 -0.1854  0.0952  0.4173
 4061TIP3    H133742   2.703   2.616   1.376 -2.4208  0.1683 -0.8623
 4061TIP3    H233743   2.745   2.538   1.253  0.6960  0.1481  0.1081
 4062TIP3   OH233744   4.999   0.353   0.072 -0.0390  0.5637  0.0558
 4062TIP3    H133745   4.929   0.352   0.138 -0.8346 -1.8092 -0.7254
 4062TIP3    H233746   4.955   0.329  -0.009  1.5162  0.0711 -0.6703
 4063TIP3   OH233747   2.342   2.748   8.354  0.2195  0.2463 -0.3451
 4063TIP3    H133748   2.374   2.825   8.307  0.4625 -0.4008 -1.2502
 4063TIP3    H233749   2.417   2.721   8.407  0.2105  0.4787 -0.2082
 4064TIP3   OH233750   4.229   1.474   2.515 -0.1065 -0.3511 -0.0253
 4064TIP3    H133751   4.269   1.398   2.474  1.3305 -0.1292  0.9054
 4064TIP3    H233752   4.275   1.550   2.479  0.4065 -0.0981  1.0964
 4065TIP3   OH233753   5.620   0.200   6.842  0.2271 -0.0996 -0.3963
 4065TIP3    H133754   5.558   0.272   6.845  0.0718 -0.2075 -1.0055
 4065TIP3    H233755   5.687   0.224   6.906 -0.0080  0.4056 -0.3339
 4066TIP3   OH233756   3.789   1.133   7.334  0.0700  0.0108  0.4873
 4066TIP3    H133757   3.802   1.061   7.272 -0.5251  0.3890 -0.0960
 4066TIP3    H233758   3.705   1.112   7.376 -0.0375  0.2842  0.4119
 4067TIP3   OH233759   0.150   1.922   8.281 -0.1464  0.6601  0.1180
 4067TIP3    H133760   0.211   1.959   8.345  1.5251  0.6914 -1.4226
 4067TIP3    H233761   0.077   1.889   8.334  1.3284  0.3391  2.0784
 4068TIP3   OH233762   5.812   3.216   0.356  0.4819  0.1457 -0.0063
 4068TIP3    H133763   5.751   3.246   0.424 -0.6142 -0.0376 -0.8723
 4068TIP3    H233764   5.899   3.234   0.391 -0.0054 -1.1627  2.0007
 4069TIP3   OH233765   2.974   2.024   1.519  0.1948  0.1171 -0.2231
 4069TIP3    H133766   2.937   1.949   1.566  0.4644  0.9099  1.3082
 4069TIP3    H233767   3.049   2.051   1.572  0.1138  1.4567 -0.7519
 4070TIP3   OH233768   0.766   2.808   0.608 -0.0684  1.3147 -0.3750
 4070TIP3    H133769   0.810   2.829   0.526  1.5821 -1.7863 -0.4245
 4070TIP3    H233770   0.675   2.791   0.582  0.1085  1.7345 -1.3299
 4071TIP3   OH233771   5.037   1.867   0.374  0.6267 -0.1188  0.0742
 4071TIP3    H133772   5.102   1.865   0.444  0.3145  0.2705  0.3813
 4071TIP3    H233773   5.010   1.958   0.369  1.2182  0.0137 -1.0986
 4072TIP3   OH233774   5.273   0.086   1.105  0.0937 -0.3031 -0.6623
 4072TIP3    H133775   5.193   0.099   1.157  0.4509  0.1058 -0.2056
 4072TIP3    H233776   5.276  -0.008   1.089 -0.3204 -0.3603 -0.4196
 4073TIP3   OH233777   4.194   3.525   8.012 -0.3999 -0.0435  0.8062
 4073TIP3    H133778   4.202   3.612   8.051  3.0837 -0.1166  0.5774
 4073TIP3    H233779   4.274   3.480   8.039 -1.3967 -2.6856 -0.3355
 4074TIP3   OH233780   4.647   4.794   6.641 -0.4489  0.3112  0.0845
 4074TIP3    H133781   4.612   4.855   6.707 -2.8696 -1.0682  0.1900
 4074TIP3    H233782   4.580   4.726   6.633  1.7315 -1.9009 -0.6845
 4075TIP3   OH233783   3.230   0.109   7.345  0.4017 -0.4444 -0.0975
 4075TIP3    H133784   3.214   0.197   7.379 -0.7478 -1.2051  1.4342
 4075TIP3    H233785   3.145   0.078   7.314  0.3637 -1.6902  1.1189
 4076TIP3   OH233786   1.448   0.624   1.167  0.1246 -0.4352  0.0338
 4076TIP3    H133787   1.446   0.677   1.088  0.7087 -0.1300  0.2199
 4076TIP3    H233788   1.483   0.539   1.139  1.2011 -0.0364  0.1262
 4077TIP3   OH233789   2.498   5.971   0.757  0.3418  0.2642  0.6205
 4077TIP3    H133790   2.424   5.996   0.703  2.0777 -0.4465 -2.3152
 4077TIP3    H233791   2.546   6.053   0.772 -0.1508  0.4642  1.1375
 4078TIP3   OH233792   3.351   4.822   1.385 -0.4145  0.5055 -0.4879
 4078TIP3    H133793   3.396   4.786   1.309  1.4709  2.1559 -0.2482
 4078TIP3    H233794   3.350   4.751   1.448 -0.3956 -0.3331 -1.4145
 4079TIP3   OH233795   6.615   1.363   2.875 -0.1172 -0.3675 -0.0289
 4079TIP3    H133796   6.592   1.450   2.907  2.5866  1.1096 -1.6694
 4079TIP3    H233797   6.580   1.359   2.787  1.5096 -0.0231 -0.7353
 4080TIP3   OH233798   6.281   4.313   7.398  0.1083  0.2750 -0.2344
 4080TIP3    H133799   6.206   4.293   7.343  0.1366 -0.5631  0.0218
 4080TIP3    H233800   6.352   4.332   7.336 -0.0347  0.0118 -0.4789
 4081TIP3   OH233801   5.904   2.901   0.184 -0.0379 -0.8753  0.4556
 4081TIP3    H133802   5.979   2.878   0.239  2.3733  0.7886 -1.8332
 4081TIP3    H233803   5.903   2.834   0.115  0.6724  0.1920 -0.6309
 4082TIP3   OH233804   6.417   5.752   1.835 -0.0077 -0.0463  0.3684
 4082TIP3    H133805   6.447   5.843   1.842  2.0563 -0.7565  1.6002
 4082TIP3    H233806   6.441   5.712   1.919  1.2027 -2.2932 -0.9581
 4083TIP3   OH233807   0.373   4.706   7.905 -0.3562 -0.2703  0.5573
 4083TIP3    H133808   0.333   4.693   7.991 -2.0471  1.5937  0.1071
 4083TIP3    H233809   0.300   4.715   7.845  0.7844 -0.1284 -0.8732
 4084TIP3   OH233810   6.125   1.018   0.471 -0.0693  0.6924 -0.6962
 4084TIP3    H133811   6.161   0.931   0.485 -1.1639 -0.0881 -2.4256
 4084TIP3    H233812   6.195   1.078   0.499  0.4525 -0.6941  1.1299
 4085TIP3   OH233813   3.769   4.448   8.173 -0.1199 -0.1185  1.2237
 4085TIP3    H133814   3.766   4.353   8.163  0.6509  0.0692 -2.5999
 4085TIP3    H233815   3.678   4.474   8.183 -0.9151 -1.1515 -1.9098
 4086TIP3   OH233816   0.449   4.440   0.267 -0.1456  0.1477 -0.4144
 4086TIP3    H133817   0.447   4.371   0.334  2.1360 -0.5589 -0.9825
 4086TIP3    H233818   0.359   4.444   0.234 -0.5122 -2.0649  0.1446
 4087TIP3   OH233819   2.632   0.545   7.690 -0.0520 -0.0511 -0.1345
 4087TIP3    H133820   2.720   0.515   7.711  0.2214  1.1391  0.4871
 4087TIP3    H233821   2.615   0.507   7.604  0.7047 -1.0323  0.1228
 4088TIP3   OH233822   5.601   2.592   7.907  0.1261  0.0436 -0.1804
 4088TIP3    H133823   5.630   2.670   7.860 -1.0248  1.2740  1.0610
 4088TIP3    H233824   5.518   2.568   7.866  0.1580 -0.1381 -0.1413
 4089TIP3   OH233825   4.028   0.385   1.035 -0.0409  0.2107  0.4167
 4089TIP3    H133826   3.970   0.409   0.962  0.9648  0.4951 -0.3103
 4089TIP3    H233827   4.017   0.290   1.043 -0.3477  0.2108  0.0638
 4090TIP3   OH233828   4.059   2.409   8.683 -0.3116  0.0863  0.0888
 4090TIP3    H133829   3.972   2.419   8.645 -0.6375  0.3579  0.8789
 4090TIP3    H233830   4.059   2.468   8.758  0.6292  0.2471 -0.0217
 4091TIP3   OH233831   4.312   0.048   1.413  0.7439 -0.5200  0.3404
 4091TIP3    H133832   4.328   0.108   1.340  2.5112 -0.4130  0.7572
 4091TIP3    H233833   4.250  -0.016   1.379 -2.8126  2.4980  0.4310
 4092TIP3   OH233834   2.079   0.847   8.369  0.0677  0.1598 -0.4357
 4092TIP3    H133835   2.063   0.783   8.438  1.6648 -1.2605 -1.3165
 4092TIP3    H233836   2.020   0.822   8.298  1.3364 -0.9807 -1.1381
 4093TIP3   OH233837   4.079   3.026   0.322  0.2693 -0.0172 -0.2083
 4093TIP3    H133838   4.117   3.078   0.251 -0.4175  0.7391 -0.0319
 4093TIP3    H233839   4.012   3.083   0.361 -1.1909 -1.3899 -0.6378
 4094TIP3   OH233840   2.301   3.471   1.685 -0.2313  0.3510 -0.7263
 4094TIP3    H133841   2.364   3.539   1.706  0.4952 -0.6830  0.6229
 4094TIP3    H233842   2.345   3.416   1.620 -0.7096  0.9714 -1.6025
 4095TIP3   OH233843   0.612   4.127   0.661 -0.1531  0.0086  0.3842
 4095TIP3    H133844   0.530   4.079   0.674  0.6790 -1.9039 -0.9111
 4095TIP3    H233845   0.669   4.095   0.730  0.8155 -1.9933 -1.2205
 4096TIP3   OH233846   2.659   5.063   0.201 -0.3728 -0.2229  0.3801
 4096TIP3    H133847   2.598   4.995   0.230 -0.2446 -0.7243 -0.4752
 4096TIP3    H233848   2.603   5.133   0.167 -0.4932 -0.4540  0.0910
 4097TIP3   OH233849   2.321   4.673   1.214 -0.7919  0.3415 -0.2967
 4097TIP3    H133850   2.230   4.699   1.207 -1.0382 -0.4994 -0.3336
 4097TIP3    H233851   2.348   4.702   1.301 -0.2676  3.0189 -1.2337
 4098TIP3   OH233852   3.665   6.185   2.621 -0.4084 -0.5395  0.6151
 4098TIP3    H133853   3.596   6.229   2.670 -0.3803  1.3191 -0.8903
 4098TIP3    H233854   3.733   6.252   2.609  0.5815 -1.6078 -0.0017
 4099TIP3   OH233855   0.903   4.473   0.126  0.7184  0.1269 -0.5578
 4099TIP3    H133856   0.810   4.492   0.110  0.1131 -1.6267  0.5172
 4099TIP3    H233857   0.948   4.503   0.047 -0.6829  1.5153 -0.8797
 4100TIP3   OH233858   0.605   3.404   0.371  0.8094  0.0766  0.0576
 4100TIP3    H133859   0.559   3.322   0.383 -0.2326  0.7363  0.6875
 4100TIP3    H233860   0.538   3.472   0.380  1.2683  0.9579 -2.3369
 4101TIP3   OH233861   4.990   5.855   7.895 -0.3419  0.3890  0.5475
 4101TIP3    H133862   5.024   5.876   7.808  0.2072  1.2525  0.9642
 4101TIP3    H233863   4.967   5.762   7.889  1.0414  0.0496 -0.0943
 4102TIP3   OH233864   0.400   4.296   1.087 -0.2661 -0.2378 -0.0980
 4102TIP3    H133865   0.365   4.329   1.170 -0.1122 -1.3511  0.4326
 4102TIP3    H233866   0.394   4.200   1.095 -1.8587 -0.3549 -2.0740
 4103TIP3   OH233867   5.064   1.245   0.203  0.2870  0.5393 -0.5182
 4103TIP3    H133868   5.091   1.316   0.144  2.4610 -0.7457 -1.1867
 4103TIP3    H233869   5.139   1.185   0.203 -0.9782 -1.1208  1.0280
 4104TIP3   OH233870   3.823   2.223   0.333 -0.0795 -0.0350  0.6778
 4104TIP3    H133871   3.906   2.268   0.347 -0.2274  0.0968  1.1522
 4104TIP3    H233872   3.805   2.179   0.417 -1.9369  2.3230  1.6311
 4105TIP3   OH233873   3.981   5.093   2.071 -0.5814 -0.2008  0.4484
 4105TIP3    H133874   4.022   5.121   2.152 -2.3567  3.0772  0.3883
 4105TIP3    H233875   3.904   5.045   2.098  0.0956 -1.2011  0.6347
 4106TIP3   OH233876   5.876   1.174   0.407  0.2959  0.2162 -0.3381
 4106TIP3    H133877   5.843   1.120   0.335  1.7383  0.1450 -0.9879
 4106TIP3    H233878   5.931   1.114   0.458 -0.1779  0.4385  0.4541
 4107TIP3   OH233879   4.375   2.463   1.084 -0.0535 -0.1459 -0.1808
 4107TIP3    H133880   4.318   2.525   1.038 -1.2021 -0.8801  0.2356
 4107TIP3    H233881   4.463   2.484   1.052 -0.3158  2.1373  0.4224
 4108TIP3   OH233882   2.530   1.453   1.367 -0.1657 -0.8840 -0.2424
 4108TIP3    H133883   2.483   1.533   1.342 -0.2903 -1.0437 -0.5268
 4108TIP3    H233884   2.620   1.481   1.378 -0.5085 -0.3398  1.4237
 4109TIP3   OH233885   5.689   4.529   1.406 -0.0539  0.1594 -0.3039
 4109TIP3    H133886   5.650   4.446   1.378 -2.3106  1.1666 -0.2857
 4109TIP3    H233887   5.693   4.582   1.326 -0.8964  0.8942  0.1335
 4110TIP3   OH233888   2.577   3.757   1.692 -0.6704 -0.0053 -0.3359
 4110TIP3    H133889   2.627   3.813   1.632 -0.7653  0.3625 -0.0727
 4110TIP3    H233890   2.501   3.809   1.717  1.7061  1.9863  3.9758
 4111TIP3   OH233891   2.840   4.551   0.783 -0.5873 -0.1518 -0.2884
 4111TIP3    H133892   2.871   4.636   0.752  0.3054 -0.9110 -1.6013
 4111TIP3    H233893   2.794   4.514   0.708 -1.8205 -0.4553  0.5790
 4112TIP3   OH233894   4.789   2.467   0.154 -0.0431  0.0049  0.4404
 4112TIP3    H133895   4.820   2.557   0.166  0.0272 -0.0378  0.5787
 4112TIP3    H233896   4.695   2.472   0.166  0.1721 -0.2952  2.5959
 4113TIP3   OH233897   1.831   2.413   1.524 -0.8288 -0.0408  0.5080
 4113TIP3    H133898   1.868   2.330   1.553  1.4295  0.4269 -0.7626
 4113TIP3    H233899   1.887   2.479   1.564 -1.6966  0.8072  0.3412
 4114TIP3   OH233900   5.233   3.858   0.562 -0.6787 -0.3088 -0.5146
 4114TIP3    H133901   5.254   3.832   0.472 -0.6323 -1.0186 -0.3045
 4114TIP3    H233902   5.288   3.934   0.578 -0.2062 -0.5638 -0.8739
 4115TIP3   OH233903   1.638   2.903   0.158  0.2813  0.2237  0.5524
 4115TIP3    H133904   1.695   2.936   0.227  2.2354  0.5102 -1.1083
 4115TIP3    H233905   1.624   2.811   0.180  3.1220 -0.4203 -0.0439
 4116TIP3   OH233906   1.043   3.543   0.168  0.1804 -0.0236  0.3434
 4116TIP3    H133907   1.114   3.514   0.226  0.7370  1.2582  0.3376
 4116TIP3    H233908   1.047   3.638   0.171  0.1913  0.0907 -1.7721
 4117TIP3   OH233909   3.705   3.029   0.148  0.0036  0.1139 -0.2682
 4117TIP3    H133910   3.682   3.057   0.059  3.3902  1.6730 -0.8458
 4117TIP3    H233911   3.757   2.950   0.135 -0.3616 -0.2517  0.4459
 4118TIP3   OH233912   4.359   2.456   8.133  0.0274  0.0800 -0.0949
 4118TIP3    H133913   4.387   2.499   8.214 -0.4966 -1.0474  0.7093
 4118TIP3    H233914   4.328   2.370   8.161 -2.2064  0.4384 -1.2050
 4119TIP3   OH233915   4.766   0.615   8.889 -0.0629 -0.1218  0.3797
 4119TIP3    H133916   4.686   0.649   8.850  0.3100 -1.5964 -1.8892
 4119TIP3    H233917   4.741   0.531   8.927  0.5534 -1.2515 -1.5329
 4120TIP3   OH233918   2.488   5.701   8.620  0.2412  0.1513  0.3101
 4120TIP3    H133919   2.419   5.744   8.670 -2.6277 -0.5756 -2.7336
 4120TIP3    H233920   2.515   5.765   8.555  1.3299 -0.1701  0.4084
 4121TIP3   OH233921   0.153   5.217   0.949 -0.1887 -0.0729  0.0025
 4121TIP3    H133922   0.203   5.255   1.021 -2.3269 -1.3446  2.3239
 4121TIP3    H233923   0.137   5.127   0.976 -3.0277  0.0408 -0.9157
 4122TIP3   OH233924   1.619   0.362   0.616 -0.4512 -0.1563  0.0025
 4122TIP3    H133925   1.644   0.277   0.654 -0.2186 -0.1439 -0.1233
 4122TIP3    H233926   1.530   0.376   0.648  1.0227  1.7337  3.9757
 4123TIP3   OH233927   6.727   1.933   7.741  0.0131 -0.4475 -0.2786
 4123TIP3    H133928   6.686   2.020   7.737 -0.8530 -0.8448 -0.2998
 4123TIP3    H233929   6.812   1.949   7.781  0.0461  0.4748 -0.6853
 4124TIP3   OH233930   5.395   2.302   1.445  0.0560 -0.3458 -0.6003
 4124TIP3    H133931   5.433   2.214   1.444  0.7138 -0.1902 -4.3070
 4124TIP3    H233932   5.470   2.360   1.432 -0.6826  0.5358 -1.0473
 4125TIP3   OH233933   0.560   3.959   1.467  0.6897 -0.7759 -0.2517
 4125TIP3    H133934   0.633   3.943   1.527  0.6603  0.0605  0.0212
 4125TIP3    H233935   0.601   3.959   1.380  1.3356  1.2440 -0.0121
 4126TIP3   OH233936   3.335   0.168   0.599 -0.4987 -0.0407  0.1208
 4126TIP3    H133937   3.282   0.248   0.595 -0.3299  0.0441 -0.7469
 4126TIP3    H233938   3.378   0.171   0.685 -0.7620  0.6288  0.2333
 4127TIP3   OH233939   0.283   1.113   0.243 -0.5527  0.3099 -0.2336
 4127TIP3    H133940   0.311   1.197   0.208  0.6811  0.0153 -0.0150
 4127TIP3    H233941   0.280   1.055   0.167 -2.6131  0.8123 -0.5924
 4128TIP3   OH233942   2.473   0.271   8.264 -0.7476 -0.3758 -0.4550
 4128TIP3    H133943   2.469   0.186   8.222  1.1264  0.1062 -1.7464
 4128TIP3    H233944   2.476   0.334   8.192  1.8954  0.5213  0.2979
 4129TIP3   OH233945   2.848   4.560   8.306  0.2600  0.1133 -0.1666
 4129TIP3    H133946   2.873   4.554   8.399 -0.5034  0.4345  0.0671
 4129TIP3    H233947   2.797   4.481   8.290  3.3861 -1.8664 -1.3162
 4130TIP3   OH233948   2.229   4.780   7.801 -0.9290  0.7998  0.3892
 4130TIP3    H133949   2.283   4.746   7.872  1.3890 -0.2940 -1.7484
 4130TIP3    H233950   2.151   4.725   7.802 -0.3326 -0.0680  1.2543
 4131TIP3   OH233951   3.278   6.417   6.517  0.0379  0.1761  0.0083
 4131TIP3    H133952   3.363   6.399   6.477 -0.2542 -1.1134 -0.0909
 4131TIP3    H233953   3.297   6.482   6.585  1.0052  0.3240 -0.3838
 4132TIP3   OH233954   0.878   4.278   0.658  0.1369 -0.6798 -0.8614
 4132TIP3    H133955   0.948   4.284   0.723  0.3278  0.0176 -1.1314
 4132TIP3    H233956   0.797   4.286   0.709  0.2959  0.3614 -0.7578
 4133TIP3   OH233957   5.014   1.308   8.726 -0.6857 -0.2759 -0.0436
 4133TIP3    H133958   4.989   1.389   8.772 -0.5975 -0.6925  0.7522
 4133TIP3    H233959   4.930   1.267   8.705 -0.7110 -0.6533  0.7812
 4134TIP3   OH233960   3.017   3.444   0.546  0.4304 -0.1022  0.2271
 4134TIP3    H133961   3.090   3.422   0.489 -0.2424 -0.5156 -0.4971
 4134TIP3    H233962   2.968   3.362   0.555 -0.7875  0.4928 -0.5632
 4135TIP3   OH233963   0.916   6.029   0.967 -0.0520 -0.0356  0.4072
 4135TIP3    H133964   0.820   6.025   0.963  0.0103 -2.0115  0.1826
 4135TIP3    H233965   0.940   6.094   0.900 -1.2371  1.1445  1.0680
 4136TIP3   OH233966   1.859   1.157   6.957  0.2631  0.2322 -0.3826
 4136TIP3    H133967   1.837   1.236   7.006 -0.1365 -0.8107  1.2192
 4136TIP3    H233968   1.937   1.180   6.907  1.9667  0.8053  2.3494
 4137TIP3   OH233969   3.745   3.002   8.403 -0.6314  0.4569  0.4874
 4137TIP3    H133970   3.815   3.067   8.393  0.2879 -0.5748 -0.0635
 4137TIP3    H233971   3.675   3.048   8.449  0.6543  1.3516  1.6291
 4138TIP3   OH233972   1.377   3.255   0.515  0.3735 -0.2036  0.4255
 4138TIP3    H133973   1.444   3.256   0.446 -0.7840  1.8317 -0.7562
 4138TIP3    H233974   1.388   3.170   0.557  1.7941 -1.1233 -1.6188
 4139TIP3   OH233975   4.263   2.405   1.554  0.1294 -0.5957  0.2495
 4139TIP3    H133976   4.268   2.465   1.480  0.5964 -0.2839  0.5307
 4139TIP3    H233977   4.258   2.462   1.631  2.1737 -0.8858  0.6404
 4140TIP3   OH233978   2.511   4.297   1.766  0.2084  0.2388 -0.7756
 4140TIP3    H133979   2.569   4.270   1.695 -1.1161 -1.0551 -1.4081
 4140TIP3    H233980   2.455   4.221   1.782  0.6297  0.3960  1.8539
 4141TIP3   OH233981   5.445   3.344   6.923  0.3291 -0.3326 -0.6911
 4141TIP3    H133982   5.457   3.339   6.828  1.5540  3.5977 -0.8765
 4141TIP3    H233983   5.526   3.308   6.960  0.9402  0.4962 -1.2118
 4142TIP3   OH233984   4.776   6.695   7.094 -0.2951 -0.1582  0.1512
 4142TIP3    H133985   4.857   6.650   7.068  0.4402  0.9081  0.5068
 4142TIP3    H233986   4.719   6.689   7.018  0.2719 -0.5906 -0.2472
 4143TIP3   OH233987   4.861   4.650   8.854 -0.3096  0.3812 -0.3647
 4143TIP3    H133988   4.779   4.622   8.895 -0.3511  1.6299  0.4891
 4143TIP3    H233989   4.835   4.681   8.767 -0.4706 -0.8084 -0.7555
 4144TIP3   OH233990   2.429   1.131   0.720  0.4506 -0.8136  0.1698
 4144TIP3    H133991   2.378   1.192   0.667  1.3496  0.3542  0.5865
 4144TIP3    H233992   2.503   1.183   0.751  0.3237 -1.6355  1.9889
 4145TIP3   OH233993   2.271   6.728   8.201 -0.1852 -0.1668 -0.1628
 4145TIP3    H133994   2.350   6.723   8.148  0.0423  1.6199 -0.0375
 4145TIP3    H233995   2.200   6.735   8.138 -0.2837 -1.7184 -0.2733
 4146TIP3   OH233996   3.145   6.185   6.880  0.5203 -0.2188  0.2218
 4146TIP3    H133997   3.236   6.215   6.883  0.5346 -0.3143  1.0131
 4146TIP3    H233998   3.104   6.240   6.812  0.7564  1.0293  1.0451
 4147TIP3   OH233999   4.765   1.812   0.372  0.4868 -0.8566  0.3532
 4147TIP3    H134000   4.747   1.721   0.349 -1.3246 -0.2088 -0.9894
 4147TIP3    H234001   4.860   1.820   0.364  0.9052 -3.0057  2.1515
 4148TIP3   OH234002   0.754   6.739   7.011  0.3503 -0.9127 -0.1802
 4148TIP3    H134003   0.767   6.710   6.921  0.9893  0.3639 -0.5271
 4148TIP3    H234004   0.671   6.700   7.037  1.9505 -4.5514  0.0660
 4149TIP3   OH234005   6.637   4.196   7.694 -0.3736 -0.1176  0.1331
 4149TIP3    H134006   6.598   4.199   7.781  0.3512  1.8066  0.4584
 4149TIP3    H234007   6.716   4.250   7.701 -0.9242  1.1290 -1.9744
 4150TIP3   OH234008   4.285   0.618   1.413  0.1603  0.4883  0.3042
 4150TIP3    H134009   4.307   0.678   1.484 -2.3039 -0.6731  2.1997
 4150TIP3    H234010   4.327   0.535   1.437 -2.0778 -0.3953  1.4368
 4151TIP3   OH234011   0.523   0.168   7.584  0.3040  0.4022 -0.2250
 4151TIP3    H134012   0.490   0.100   7.642  1.7676  0.4687  0.7497
 4151TIP3    H234013   0.463   0.242   7.597  0.1792  0.1630  0.6555
 4152TIP3   OH234014   5.674   2.931   8.136  0.2242 -0.2055 -0.3276
 4152TIP3    H134015   5.672   2.885   8.052 -2.1601  1.8373 -1.5288
 4152TIP3    H234016   5.582   2.933   8.164  0.5771  1.6680  0.8784
 4153TIP3   OH234017   4.234   4.471   2.550 -0.5721  0.5425 -0.5835
 4153TIP3    H134018   4.289   4.415   2.604 -1.2555 -0.6101 -1.0338
 4153TIP3    H234019   4.223   4.551   2.601 -0.4303 -0.1405  0.5536
 4154TIP3   OH234020   0.451   6.371   8.251 -0.4209 -0.1972  0.2480
 4154TIP3    H134021   0.544   6.356   8.235 -0.2053 -0.0490  1.3000
 4154TIP3    H234022   0.407   6.320   8.184  0.3771 -2.0361  1.0752
 4155TIP3   OH234023   4.534   1.822   7.405 -0.1327  0.2396 -0.1268
 4155TIP3    H134024   4.560   1.811   7.314  0.7405  1.4033 -0.0428
 4155TIP3    H234025   4.467   1.756   7.419 -1.0474  0.7266 -1.9224
 4156TIP3   OH234026   5.442   0.833   7.302 -0.1914  0.5164  0.2098
 4156TIP3    H134027   5.390   0.770   7.353 -0.8924  1.0337  0.1537
 4156TIP3    H234028   5.406   0.827   7.214  0.0874  0.6293  0.0886
 4157TIP3   OH234029   4.985   4.676   2.510 -0.3107 -0.3788 -0.0854
 4157TIP3    H134030   4.924   4.748   2.528 -0.1302  0.1849 -1.5588
 4157TIP3    H234031   4.931   4.610   2.465  0.0109 -0.1442 -0.8348
 4158TIP3   OH234032   0.044   3.937   0.392 -0.1233 -0.9717 -0.9667
 4158TIP3    H134033  -0.026   3.965   0.451 -0.2548 -0.5179 -1.3385
 4158TIP3    H234034   0.011   3.954   0.304  1.3891  1.6308 -1.1273
 4159TIP3   OH234035   5.870   0.029   8.516  0.0201 -0.2141  0.1661
 4159TIP3    H134036   5.953   0.001   8.478 -0.3580 -0.1899 -0.7264
 4159TIP3    H234037   5.882   0.122   8.535  0.9315 -0.7018  2.1598
 4160TIP3   OH234038   2.941   2.348   2.322  0.0292 -0.7095 -0.2401
 4160TIP3    H134039   2.907   2.302   2.398 -0.2284 -1.2666 -0.6845
 4160TIP3    H234040   2.924   2.289   2.248 -1.3871  0.5620 -1.0129
 4161TIP3   OH234041   0.600   5.737   0.567 -0.6502  0.0802  0.2396
 4161TIP3    H134042   0.516   5.718   0.524  0.3841  0.3576 -2.0727
 4161TIP3    H234043   0.663   5.680   0.522  0.4217 -0.1681  1.9671
 4162TIP3   OH234044   2.635   3.734   8.404  0.5922 -0.1902 -0.1282
 4162TIP3    H134045   2.597   3.650   8.427  0.8955 -0.3574 -0.2262
 4162TIP3    H234046   2.565   3.780   8.356  0.0037  0.1152  0.9856
 4163TIP3   OH234047   6.041   0.932   8.393 -0.0561 -0.0662  0.1041
 4163TIP3    H134048   6.077   0.956   8.478 -0.7407  0.9851  0.1210
 4163TIP3    H234049   6.049   1.012   8.340 -1.2733 -0.1470 -0.2360
 4164TIP3   OH234050   1.664   1.812   8.667 -0.2698  0.0758 -0.2032
 4164TIP3    H134051   1.613   1.836   8.590 -0.0181  1.3387  0.0113
 4164TIP3    H234052   1.600   1.775   8.728 -0.4720 -0.9077 -0.9840
 4165TIP3   OH234053   0.838   3.878   8.059 -0.1493 -0.1212  0.0853
 4165TIP3    H134054   0.932   3.885   8.073  0.2806 -1.5780 -1.7650
 4165TIP3    H234055   0.809   3.968   8.047  0.9333  0.3697  0.9680
 4166TIP3   OH234056   1.937   5.826   7.830  0.1013 -0.2598  0.5004
 4166TIP3    H134057   1.883   5.901   7.805 -0.1731 -0.8491 -0.7567
 4166TIP3    H234058   1.884   5.779   7.894  0.0426  0.3059  0.8793
 4167TIP3   OH234059   5.358   2.419   0.671  0.7427 -0.1511 -0.8536
 4167TIP3    H134060   5.376   2.388   0.760 -0.7278  1.7670  0.1939
 4167TIP3    H234061   5.352   2.340   0.619 -1.1729 -1.5918  1.3376
 4168TIP3   OH234062   5.591   0.708   2.264 -0.9070  0.1641 -0.5793
 4168TIP3    H134063   5.623   0.701   2.354  2.8337  2.6420 -1.5006
 4168TIP3    H234064   5.651   0.653   2.213 -1.7288  0.3553 -1.8012
 4169TIP3   OH234065   2.165   2.917   0.047  0.3658 -0.0293  0.7100
 4169TIP3    H134066   2.222   2.992   0.064  0.4735  0.0259  0.1190
 4169TIP3    H234067   2.140   2.926  -0.045 -0.8355  0.1187  1.0347
 4170TIP3   OH234068   4.186   5.500   0.918  0.0335 -0.1935 -0.3817
 4170TIP3    H134069   4.163   5.408   0.903  0.4952 -0.0086 -2.5814
 4170TIP3    H234070   4.250   5.497   0.989 -0.8109 -1.4258  0.3860
 4171TIP3   OH234071   2.834   3.330   1.997  0.2478  0.4769 -0.4219
 4171TIP3    H134072   2.756   3.311   1.946 -1.3652  0.9336  1.7150
 4171TIP3    H234073   2.834   3.425   2.007  1.4353  0.5467 -0.8674
 4172TIP3   OH234074   3.269   4.970   7.665  0.7513  0.0745  0.0444
 4172TIP3    H134075   3.287   4.877   7.671  0.2818  0.0111  0.4675
 4172TIP3    H234076   3.207   4.988   7.735  0.3307  0.5792 -0.4435
 4173TIP3   OH234077   6.575   4.573   7.121  0.2526 -0.5160  0.4868
 4173TIP3    H134078   6.573   4.594   7.028  0.2146 -0.9691  0.3837
 4173TIP3    H234079   6.639   4.502   7.129 -0.4225 -1.1188  0.6669
 4174TIP3   OH234080   0.887   6.385   8.079 -0.1479  0.1610  0.6277
 4174TIP3    H134081   0.973   6.356   8.109 -0.1680 -0.9273 -0.2903
 4174TIP3    H234082   0.902   6.471   8.040  0.6015 -0.1820  0.1335
 4175TIP3   OH234083   0.133   5.572   0.259 -0.2632 -0.4262 -0.0159
 4175TIP3    H134084   0.108   5.657   0.224  3.5918  0.8754 -0.1376
 4175TIP3    H234085   0.184   5.531   0.189  2.5121 -0.3627  1.8020
 4176TIP3   OH234086   2.453   5.972   8.177  0.1787 -0.1418 -0.4228
 4176TIP3    H134087   2.383   6.035   8.161 -1.2087 -1.2189  1.0538
 4176TIP3    H234088   2.409   5.887   8.178  1.7725 -1.0176 -0.9775
 4177TIP3   OH234089   3.915   3.536   7.984 -0.4150 -0.4589 -0.2033
 4177TIP3    H134090   4.010   3.546   7.985 -0.3162 -1.3009  0.8108
 4177TIP3    H234091   3.882   3.621   7.955  0.6875 -0.6959 -2.3184
 4178TIP3   OH234092   4.698   6.027   1.125 -0.2963  0.1768 -0.2069
 4178TIP3    H134093   4.682   6.121   1.116 -1.3822 -0.0671 -0.8769
 4178TIP3    H234094   4.763   6.008   1.058 -0.4439  0.3554 -0.4034
 4179TIP3   OH234095   5.458   1.543   8.863 -0.1962 -0.0121  0.5631
 4179TIP3    H134096   5.498   1.628   8.847  0.7023 -0.0236  2.4908
 4179TIP3    H234097   5.499   1.485   8.799 -2.6445  1.3800 -2.5353
 4180TIP3   OH234098   6.424   5.211   7.784  0.0005  0.3120 -0.3756
 4180TIP3    H134099   6.413   5.298   7.821 -1.4878 -0.3106  0.7133
 4180TIP3    H234100   6.343   5.194   7.737  0.7296 -0.0591 -1.5492
 4181TIP3   OH234101   4.935   0.896   8.090  0.3469  0.2756 -0.3305
 4181TIP3    H134102   4.937   0.816   8.142  1.4368  0.6409  0.2098
 4181TIP3    H234103   5.026   0.917   8.074  0.1025  1.7154  0.0097
 4182TIP3   OH234104   6.127   0.823   7.332  0.1809  0.3110  0.3195
 4182TIP3    H134105   6.059   0.787   7.275  0.6417 -0.9747  0.5340
 4182TIP3    H234106   6.194   0.855   7.272  0.4552 -0.6194  0.1051
 4183TIP3   OH234107   0.836   6.202   1.727 -0.2488 -0.1476  0.1234
 4183TIP3    H134108   0.875   6.245   1.650 -1.4452 -1.8481 -1.5184
 4183TIP3    H234109   0.900   6.135   1.750 -0.4814 -0.4930 -0.2248
 4184TIP3   OH234110   1.102   5.214   1.316 -0.3434 -0.1182 -0.1847
 4184TIP3    H134111   1.123   5.300   1.352 -0.0032 -0.7554  1.2379
 4184TIP3    H234112   1.006   5.211   1.317 -0.4006  0.6904 -1.4212
 4185TIP3   OH234113   0.346   2.913   1.390  0.7816 -0.3037  0.0140
 4185TIP3    H134114   0.307   2.944   1.309  1.1114  1.1818  0.3936
 4185TIP3    H234115   0.440   2.927   1.378  0.7838  0.4737  0.8600
 4186TIP3   OH234116   2.093   5.123   7.154  0.0097 -0.3621 -0.0061
 4186TIP3    H134117   2.028   5.091   7.216 -0.3222 -3.1623 -1.6198
 4186TIP3    H234118   2.177   5.094   7.191  0.0192  0.0089  0.2653
 4187TIP3   OH234119   0.774   6.610   6.757 -0.2318  0.1577 -0.3612
 4187TIP3    H134120   0.753   6.521   6.729  0.8154  0.0923 -0.9739
 4187TIP3    H234121   0.869   6.617   6.749 -0.3817  1.6571 -1.3258
 4188TIP3   OH234122   4.308   3.175   8.534 -0.3777 -0.5975  0.4648
 4188TIP3    H134123   4.227   3.173   8.483  0.5920  1.6846 -1.4218
 4188TIP3    H234124   4.280   3.178   8.625 -2.6588  2.8099 -0.1472
 4189TIP3   OH234125   5.806   0.094   0.981  0.0231  0.0221  0.2272
 4189TIP3    H134126   5.824   0.000   0.980  2.1473  0.3752 -1.3469
 4189TIP3    H234127   5.867   0.130   1.045  1.1031  0.5910 -1.0687
 4190TIP3   OH234128   5.374   6.164   6.465 -0.4153 -0.0751  0.1011
 4190TIP3    H134129   5.304   6.114   6.508  0.0819  0.7541  1.9809
 4190TIP3    H234130   5.453   6.111   6.477 -0.4190 -0.2409 -0.5737
 4191TIP3   OH234131   2.207   3.984   2.297 -0.3687  0.6451  0.2631
 4191TIP3    H134132   2.177   4.068   2.331 -0.6589  0.2845  0.9242
 4191TIP3    H234133   2.255   3.945   2.370 -0.7700 -0.0269  0.1725
 4192TIP3   OH234134   3.493   1.256   7.207 -0.5182 -0.3554 -0.6610
 4192TIP3    H134135   3.501   1.351   7.199 -1.2292 -0.2076  0.1967
 4192TIP3    H234136   3.577   1.222   7.177 -0.1385  0.5626 -0.6665
 4193TIP3   OH234137   4.782   4.195   8.254 -0.0402  0.1033  0.2701
 4193TIP3    H134138   4.687   4.189   8.244  0.0188 -0.3921 -0.0312
 4193TIP3    H234139   4.802   4.288   8.239 -0.2878 -0.0788 -1.4143
 4194TIP3   OH234140   1.475   2.767   7.581 -0.7142 -0.1072 -0.6278
 4194TIP3    H134141   1.570   2.770   7.596 -0.6807  0.7862 -0.9722
 4194TIP3    H234142   1.460   2.678   7.548  0.1062 -0.0536 -1.1990
 4195TIP3   OH234143   3.692   5.509   0.526 -0.0813  0.0777  0.0507
 4195TIP3    H134144   3.686   5.543   0.437  0.8332 -0.1247 -0.0963
 4195TIP3    H234145   3.601   5.494   0.552 -0.6250  3.4260  0.4838
 4196TIP3   OH234146   1.091   6.076   1.813 -0.1283 -0.0543  0.0684
 4196TIP3    H134147   1.135   6.049   1.732  0.3493  0.1512  0.2514
 4196TIP3    H234148   1.054   5.995   1.848  0.4728 -0.3142  0.1202
 4197TIP3   OH234149   3.228   5.656   1.693  0.1271  0.5034 -0.6685
 4197TIP3    H134150   3.226   5.693   1.781  0.5734 -0.2151 -0.3507
 4197TIP3    H234151   3.173   5.578   1.699  2.4451 -1.1784 -0.2542
 4198TIP3   OH234152   3.316   2.639   2.903 -0.2103  0.4975 -0.1478
 4198TIP3    H134153   3.252   2.596   2.847 -0.1492  0.7023 -0.3721
 4198TIP3    H234154   3.386   2.665   2.845  1.7057 -2.6855  0.5121
 4199TIP3   OH234155   2.511   2.334   0.767 -0.6116  0.0706 -0.0493
 4199TIP3    H134156   2.582   2.398   0.775 -1.6225  1.4150 -1.2896
 4199TIP3    H234157   2.450   2.357   0.836 -1.6223  1.3543 -1.3291
 4200TIP3   OH234158   6.024   1.852   6.615 -0.3689  0.1758  0.4945
 4200TIP3    H134159   6.020   1.794   6.539  0.0773  0.7885 -0.0006
 4200TIP3    H234160   5.936   1.889   6.622  0.0772  1.5726 -0.8850
 4201TIP3   OH234161   1.422   3.355   8.615  0.6822 -0.0947  0.0557
 4201TIP3    H134162   1.459   3.295   8.550 -0.9843 -0.6451 -0.4188
 4201TIP3    H234163   1.361   3.302   8.666 -0.1402  0.9763  0.2288
 4202TIP3   OH234164   0.018   3.594   8.807 -0.1771  0.8251  0.4448
 4202TIP3    H134165   0.036   3.603   8.901  1.1811 -0.1406  0.2906
 4202TIP3    H234166  -0.072   3.628   8.798  0.4432  3.0565  1.7029
 4203TIP3   OH234167   2.202   6.007   8.443 -0.0666 -0.1011  0.4202
 4203TIP3    H134168   2.272   6.055   8.488 -1.9154  1.8843  1.3117
 4203TIP3    H234169   2.122   6.051   8.470 -1.8160 -3.0786  0.4228
 4204TIP3   OH234170   0.961   5.471   0.043  0.9654  0.3594 -0.5579
 4204TIP3    H134171   1.044   5.489   0.087  1.0628 -0.1333 -0.5239
 4204TIP3    H234172   0.987   5.424  -0.037  0.6022 -2.4763  0.8706
 4205TIP3   OH234173   3.289   3.569   7.172  0.5471  0.0632 -0.4956
 4205TIP3    H134174   3.207   3.595   7.131  0.7942  0.4306 -0.7685
 4205TIP3    H234175   3.267   3.553   7.264 -0.2817 -2.0072 -0.9929
 4206TIP3   OH234176   3.322   3.205   7.560 -0.0420 -0.5702 -0.5157
 4206TIP3    H134177   3.302   3.143   7.630  1.3038 -1.1335 -0.6020
 4206TIP3    H234178   3.358   3.151   7.489 -0.0275  0.1605 -1.0800
 4207TIP3   OH234179   0.393   2.323   1.400  0.5832 -0.4150  0.2740
 4207TIP3    H134180   0.383   2.254   1.466  0.5517  0.1214  0.8397
 4207TIP3    H234181   0.304   2.349   1.380  0.6241  0.7524  1.4592
 4208TIP3   OH234182   2.723   0.947   8.282 -0.0284  0.0066 -0.2613
 4208TIP3    H134183   2.639   0.907   8.260 -0.3343  0.0359  0.7756
 4208TIP3    H234184   2.755   0.896   8.357  0.9805 -0.1325 -0.7702
 4209TIP3   OH234185   6.290   2.293   7.928 -0.1328 -0.2118 -0.1343
 4209TIP3    H134186   6.227   2.364   7.918 -0.5571  0.1777  3.8195
 4209TIP3    H234187   6.243   2.214   7.901 -1.9204  0.2362  1.4982
 4210TIP3   OH234188   2.365   1.947   0.728 -0.3775  0.3677  0.3145
 4210TIP3    H134189   2.409   1.975   0.809 -2.1972 -0.5633  1.6986
 4210TIP3    H234190   2.433   1.955   0.660  0.8737  2.3509  1.6741
 4211TIP3   OH234191   4.684   2.413   1.007  0.0888  0.2529  0.2199
 4211TIP3    H134192   4.751   2.419   1.075 -0.9408 -1.1963  1.4104
 4211TIP3    H234193   4.628   2.341   1.034  0.1219 -0.9816 -2.6278
 4212TIP3   OH234194   6.128   3.612   0.169 -0.0584 -0.2643 -0.2110
 4212TIP3    H134195   6.195   3.677   0.148 -0.2006 -0.2352 -0.5739
 4212TIP3    H234196   6.045   3.658   0.156 -0.1703 -0.6627 -0.9537
 4213TIP3   OH234197   5.049   5.876   0.711  0.3214  0.8793 -0.6196
 4213TIP3    H134198   5.102   5.952   0.734  1.0570 -0.6455  3.5276
 4213TIP3    H234199   5.106   5.823   0.656  1.9266  0.8728  0.9605
 4214TIP3   OH234200   4.278   4.691   8.490 -0.5408  0.3678  0.3653
 4214TIP3    H134201   4.337   4.654   8.424 -1.0173 -1.8836  1.0923
 4214TIP3    H234202   4.322   4.769   8.522  1.3903 -0.4837 -0.1000
 4215TIP3   OH234203   0.985   1.221   0.756  0.7117  0.1381  0.1038
 4215TIP3    H134204   0.909   1.164   0.768  2.2487 -1.7324  1.6550
 4215TIP3    H234205   0.979   1.284   0.827  1.5469 -1.2118  1.4373
 4216TIP3   OH234206   4.187   2.141   2.442 -0.6788  0.2251  0.0117
 4216TIP3    H134207   4.219   2.059   2.404 -0.2667  0.3321  0.1265
 4216TIP3    H234208   4.262   2.201   2.436 -0.9601  0.5782 -0.0212
 4217TIP3   OH234209   3.857   5.407   1.461  0.9144  0.3870  0.4653
 4217TIP3    H134210   3.814   5.432   1.379  0.2872 -0.9214  0.3626
 4217TIP3    H234211   3.944   5.377   1.434 -0.3118 -3.0190 -0.2371
 4218TIP3   OH234212   5.197   6.278   7.189 -0.1320  0.0751 -0.7154
 4218TIP3    H134213   5.130   6.337   7.222 -1.3761 -0.4065 -2.2444
 4218TIP3    H234214   5.206   6.301   7.097  0.2252 -1.3196 -1.0514
 4219TIP3   OH234215   3.587   1.606   7.626  0.0134 -0.5754  0.1419
 4219TIP3    H134216   3.563   1.516   7.604  0.0282 -0.4315 -0.4861
 4219TIP3    H234217   3.536   1.659   7.565 -0.3973 -0.1320  0.8576
 4220TIP3   OH234218   3.393   1.232   0.403 -0.2072  0.0268 -0.6726
 4220TIP3    H134219   3.313   1.252   0.452  1.0142  2.2950  0.5661
 4220TIP3    H234220   3.363   1.183   0.326 -2.6087 -0.3091  0.3909
 4221TIP3   OH234221   2.279   0.368   7.373 -0.4567 -0.3583 -0.2333
 4221TIP3    H134222   2.285   0.423   7.295 -0.7660 -0.9494 -0.6767
 4221TIP3    H234223   2.194   0.391   7.412 -1.6727 -2.1486 -1.6803
 4222TIP3   OH234224   0.970   3.994   1.686 -0.5811 -0.0036  0.4928
 4222TIP3    H134225   1.019   4.023   1.763 -2.2439  3.0478  0.5541
 4222TIP3    H234226   1.015   3.914   1.658  2.0525  0.5390  2.6986
 4223TIP3   OH234227   5.362   2.587   0.432 -0.1179  0.1487 -0.1602
 4223TIP3    H134228   5.401   2.633   0.506 -1.5180  1.8070 -0.3639
 4223TIP3    H234229   5.357   2.496   0.459  1.8101  0.2695  0.7031
 4224TIP3   OH234230   2.197   3.987   8.720  0.4716  0.5447 -0.1465
 4224TIP3    H134231   2.148   4.069   8.732 -0.5654  0.3088 -2.2770
 4224TIP3    H234232   2.257   4.007   8.647 -0.2896 -0.7683 -1.1658
 4225TIP3   OH234233   6.330   1.185   2.793  0.1769  1.0837  0.4729
 4225TIP3    H134234   6.359   1.109   2.742  1.4367  0.6831  1.7218
 4225TIP3    H234235   6.398   1.251   2.780 -0.6062  1.7951 -0.1125
 4226TIP3   OH234236   4.647   2.290   0.531  0.5863 -0.0122 -0.0844
 4226TIP3    H134237   4.691   2.291   0.446 -1.1001 -1.4505 -1.0478
 4226TIP3    H234238   4.621   2.199   0.544 -2.4411  0.7715  0.1778
 4227TIP3   OH234239   3.893   6.088   1.392 -0.1292  0.2095 -0.2251
 4227TIP3    H134240   3.812   6.120   1.353  0.4899  0.2777 -1.5047
 4227TIP3    H234241   3.963   6.126   1.339  0.6734 -2.4513 -1.2514
 4228TIP3   OH234242   6.271   5.563   0.395  0.1209 -0.1784 -0.0643
 4228TIP3    H134243   6.190   5.514   0.405 -0.9295  1.2248 -1.2630
 4228TIP3    H234244   6.330   5.502   0.350 -0.7134 -0.7631 -0.3991
 4229TIP3   OH234245   3.360   6.046   0.780 -0.0554 -0.3751 -0.0719
 4229TIP3    H134246   3.280   6.099   0.778 -0.6520 -1.2444 -0.1117
 4229TIP3    H234247   3.424   6.097   0.732 -0.4683  0.5270  0.3157
 4230TIP3   OH234248   1.709   1.376   1.940  0.0271  0.2810 -0.7095
 4230TIP3    H134249   1.737   1.296   1.984  1.2946  1.7116  1.2515
 4230TIP3    H234250   1.647   1.416   2.000  1.4040  2.0257 -0.3642
 4231TIP3   OH234251   6.188   3.339   0.308  0.4982  0.3547  0.1927
 4231TIP3    H134252   6.159   3.418   0.263  0.9577  0.0179 -0.7161
 4231TIP3    H234253   6.256   3.369   0.368  1.4167  0.5177 -0.9047
 4232TIP3   OH234254   6.744   0.299   1.120  0.0641  0.2241 -0.1587
 4232TIP3    H134255   6.672   0.237   1.126  0.5977 -0.5493 -1.3248
 4232TIP3    H234256   6.703   0.381   1.094 -0.3516 -0.3802 -1.4984
 4233TIP3   OH234257   4.438   2.463   8.412 -0.1036 -0.2275  0.5746
 4233TIP3    H134258   4.491   2.384   8.409 -0.0866 -0.1948 -1.6600
 4233TIP3    H234259   4.463   2.506   8.494  1.5991 -1.3783  0.7082
 4234TIP3   OH234260   1.988   5.206   1.098  0.9349 -0.3378 -0.0780
 4234TIP3    H134261   1.967   5.160   1.017 -5.2977 -1.7430  1.7597
 4234TIP3    H234262   2.031   5.141   1.153  0.6188 -0.9738 -0.5807
 4235TIP3   OH234263   0.073   2.630   1.189 -0.4102  0.2198  0.2001
 4235TIP3    H134264   0.046   2.692   1.257 -1.1554 -0.4608  0.5350
 4235TIP3    H234265  -0.003   2.620   1.133 -0.2679 -0.3114  0.0899
 4236TIP3   OH234266   2.908   0.441   0.598  0.4918  0.3223 -0.1466
 4236TIP3    H134267   2.945   0.504   0.537  0.6618 -0.2032 -0.5907
 4236TIP3    H234268   2.838   0.489   0.642  0.4821  0.7589 -0.6301
 4237TIP3   OH234269   4.464   3.733   1.147  0.1556  0.5250 -0.4560
 4237TIP3    H134270   4.403   3.668   1.181 -1.3971  1.8534 -0.5884
 4237TIP3    H234271   4.515   3.762   1.223 -1.0415  1.1185  0.1398
 4238TIP3   OH234272   3.297   6.388   8.587 -0.2042 -1.0260  0.6090
 4238TIP3    H134273   3.293   6.328   8.662  0.2875  1.2905  2.6447
 4238TIP3    H234274   3.391   6.405   8.575 -0.2874 -1.3440 -0.5144
 4239TIP3   OH234275   6.454   4.183   1.352  0.1427 -0.0704  0.8120
 4239TIP3    H134276   6.448   4.158   1.260  2.4894  1.8611  0.0324
 4239TIP3    H234277   6.527   4.131   1.387  0.5760  0.6670  1.0211
 4240TIP3   OH234278   4.732   5.360   2.283 -0.2281  0.5392  0.3626
 4240TIP3    H134279   4.790   5.337   2.356 -2.4037 -1.1012  1.6705
 4240TIP3    H234280   4.715   5.454   2.295  0.1809  0.4943  1.4142
 4241TIP3   OH234281   6.311   4.240   8.535 -0.8252  0.6399  0.0204
 4241TIP3    H134282   6.251   4.249   8.461  0.8959 -0.3686 -1.6041
 4241TIP3    H234283   6.398   4.254   8.497  0.2954 -1.7306  1.4272
 4242TIP3   OH234284   3.202   5.342   0.700  0.5708 -0.7665 -0.0959
 4242TIP3    H134285   3.215   5.420   0.756  0.2998 -0.3794 -0.5674
 4242TIP3    H234286   3.166   5.377   0.619  0.3882 -1.4001 -0.2890
 4243TIP3   OH234287   0.460   2.582   8.705 -0.8871 -0.1009  0.1325
 4243TIP3    H134288   0.383   2.636   8.719 -1.4151 -1.0266  0.8891
 4243TIP3    H234289   0.518   2.637   8.653 -1.2945  1.2868  1.0815
 4244TIP3   OH234290   3.849   4.625   0.215  0.1994 -0.3316 -0.1686
 4244TIP3    H134291   3.774   4.625   0.275  0.9091 -3.3274  0.8562
 4244TIP3    H234292   3.896   4.706   0.236 -0.3091 -0.6155  2.3907
 4245TIP3   OH234293   2.767   5.156   7.131 -0.0131  0.1382  0.2424
 4245TIP3    H134294   2.708   5.172   7.205  0.8506 -0.8263  1.1726
 4245TIP3    H234295   2.754   5.063   7.109  1.4903 -0.2248  0.7878
 4246TIP3   OH234296   4.569   0.988   0.990  0.3129 -0.3228 -0.2614
 4246TIP3    H134297   4.664   0.984   1.006  0.3857  0.9905 -0.2300
 4246TIP3    H234298   4.548   1.081   0.996 -0.6696 -0.3895 -2.0925
 4247TIP3   OH234299   6.207   1.855   8.090  0.2761  0.2307 -0.1107
 4247TIP3    H134300   6.179   1.788   8.152 -0.2091  1.8311  1.4774
 4247TIP3    H234301   6.138   1.857   8.024 -0.9471  0.7917  1.1448
 4248TIP3   OH234302   2.970   4.723   6.820  0.0554  0.1019 -0.2344
 4248TIP3    H134303   2.889   4.675   6.837 -0.6247  1.4534  0.4779
 4248TIP3    H234304   3.009   4.679   6.745 -0.5591 -1.5143  0.3625
 4249TIP3   OH234305   2.679   6.724   7.164 -0.2236  0.0085 -0.7094
 4249TIP3    H134306   2.675   6.629   7.149 -1.5854 -0.2158  0.8705
 4249TIP3    H234307   2.638   6.762   7.086 -2.2821 -0.8653 -0.1243
 4250TIP3   OH234308   4.949   6.337   1.366 -0.0117 -0.3104 -0.4505
 4250TIP3    H134309   4.950   6.241   1.371  0.6032 -0.3059 -0.4379
 4250TIP3    H234310   4.881   6.364   1.428 -0.9781 -0.7844 -1.2662
 4251TIP3   OH234311   4.994   1.456   1.017  0.5246  0.5323 -0.2053
 4251TIP3    H134312   5.042   1.426   1.094 -0.5772  0.0968  0.3282
 4251TIP3    H234313   5.015   1.391   0.950 -0.3352 -0.3897  0.3999
 4252TIP3   OH234314   2.281   3.777   7.281 -0.7874 -1.3709  0.0242
 4252TIP3    H134315   2.367   3.741   7.260 -0.1774  0.4788 -0.8813
 4252TIP3    H234316   2.231   3.767   7.200 -0.7289 -0.6112 -0.1207
 4253TIP3   OH234317   0.053   6.037   1.258  0.4309 -0.2139 -0.3376
 4253TIP3    H134318   0.046   6.106   1.324  3.8744  1.2513 -1.2335
 4253TIP3    H234319   0.001   6.068   1.184 -1.3936 -0.6699  0.6879
 4254TIP3   OH234320   2.213   1.626   6.454  0.1465  0.2240  0.6668
 4254TIP3    H134321   2.201   1.540   6.496  0.2168 -0.0748  0.0823
 4254TIP3    H234322   2.135   1.676   6.480 -0.0280 -0.1076  0.7959
 4255TIP3   OH234323   4.606   1.428   1.662 -0.2177  0.1580  0.9494
 4255TIP3    H134324   4.582   1.349   1.711  1.0310  0.0535  1.4325
 4255TIP3    H234325   4.702   1.431   1.667 -0.2544  1.8275  1.1426
 4256TIP3   OH234326   3.680   3.993   0.256  0.1249  0.3411 -0.3467
 4256TIP3    H134327   3.658   4.038   0.174  0.5763 -1.5735 -1.5941
 4256TIP3    H234328   3.601   3.943   0.277 -0.3400  1.5510  0.9717
 4257TIP3   OH234329   5.910   0.004   8.961 -0.2070  0.0647 -0.3427
 4257TIP3    H134330   5.914  -0.074   8.905  0.7061  0.1181 -0.3553
 4257TIP3    H234331   5.822   0.000   9.000  0.5428 -2.1759  1.3583
 4258TIP3   OH234332   1.063   6.222   7.770 -0.2496 -0.2111 -0.2862
 4258TIP3    H134333   1.152   6.190   7.753  0.1069  0.2409  0.6179
 4258TIP3    H234334   1.074   6.316   7.782 -0.5505 -0.3772  1.5913
 4259TIP3   OH234335   1.833   6.578   1.343  0.0642  0.7423 -0.2094
 4259TIP3    H134336   1.859   6.593   1.434  0.0660  2.0379 -0.4129
 4259TIP3    H234337   1.739   6.595   1.342 -0.1055 -0.1233 -0.2885
 4260TIP3   OH234338   1.465   4.920   1.196 -0.2291  0.2792 -0.1720
 4260TIP3    H134339   1.407   4.994   1.210 -1.3776 -0.8100  1.1567
 4260TIP3    H234340   1.552   4.954   1.218 -0.8069  1.0985  0.9778
 4261TIP3   OH234341   6.227   6.524   8.092 -0.1750 -0.3203 -0.0175
 4261TIP3    H134342   6.291   6.595   8.102 -0.4678  0.0470 -0.6190
 4261TIP3    H234343   6.209   6.495   8.181  1.3316 -0.8981  0.1293
 4262TIP3   OH234344   5.732   1.091   8.711  0.1291  0.0086  0.0766
 4262TIP3    H134345   5.661   1.100   8.775  0.5786  2.5018  0.3504
 4262TIP3    H234346   5.705   1.148   8.638  0.8475 -0.7333 -0.7912
 4263TIP3   OH234347   1.667   3.808   0.061  0.1026  0.1486  0.4065
 4263TIP3    H134348   1.661   3.723   0.105  1.3606 -0.8124 -1.1805
 4263TIP3    H234349   1.698   3.868   0.128 -0.5387 -0.6942  1.4900
 4264TIP3   OH234350   6.026   6.606   7.920  0.4498 -0.1196 -0.6526
 4264TIP3    H134351   6.040   6.698   7.894 -2.3702  1.1239  1.7096
 4264TIP3    H234352   6.087   6.592   7.992  0.3386  0.1787 -0.4973
 4265TIP3   OH234353   2.321   1.408   7.622 -0.0992  0.0395  0.2742
 4265TIP3    H134354   2.285   1.322   7.644  0.9445 -0.3235  0.6621
 4265TIP3    H234355   2.272   1.436   7.545 -0.6103 -0.8047  0.2801
 4266TIP3   OH234356   2.685   4.707   8.143  0.9521 -0.2648 -0.5584
 4266TIP3    H134357   2.748   4.667   8.202  2.0805  1.1973 -0.7327
 4266TIP3    H234358   2.735   4.730   8.065  0.7557  2.8166  0.1093
 4267TIP3   OH234359   1.713   4.366   2.093 -0.4940  0.3705 -0.4354
 4267TIP3    H134360   1.654   4.356   2.168 -0.1374 -3.1211 -0.4534
 4267TIP3    H234361   1.674   4.435   2.040 -0.8032  2.9233  2.8444
 4268TIP3   OH234362   6.591   2.430   7.128  0.4308  0.1778  0.1141
 4268TIP3    H134363   6.555   2.384   7.052 -0.0030 -1.4320  1.2347
 4268TIP3    H234364   6.515   2.472   7.168  0.7564  1.5603 -0.6509
 4269TIP3   OH234365   0.405   3.135   0.383  0.5744  0.1753 -0.7191
 4269TIP3    H134366   0.343   3.072   0.346 -0.1142  0.5592 -0.2434
 4269TIP3    H234367   0.488   3.116   0.339  0.8396 -2.2444  0.7120
 4270TIP3   OH234368   2.438   0.174   1.611 -0.5118  0.1525  0.1045
 4270TIP3    H134369   2.410   0.247   1.666  0.9674  0.6626  0.2288
 4270TIP3    H234370   2.533   0.186   1.602 -0.2004 -1.8840  0.3218
 4271TIP3   OH234371   2.553   2.269   7.423  0.1587  0.0337 -0.7291
 4271TIP3    H134372   2.540   2.336   7.490  1.3405  2.0562 -2.4012
 4271TIP3    H234373   2.628   2.218   7.454  0.4104  0.6546 -0.3075
 4272TIP3   OH234374   2.522   4.416   0.359  0.0168 -0.3730  0.3017
 4272TIP3    H134375   2.510   4.476   0.285 -0.4018 -1.5037 -0.5850
 4272TIP3    H234376   2.445   4.360   0.357 -0.7443  0.4923  2.5342
 4273TIP3   OH234377   2.708   5.054   2.377 -0.0652  1.1007  0.1783
 4273TIP3    H134378   2.624   5.097   2.363 -0.1222  0.8921 -0.1409
 4273TIP3    H234379   2.686   4.964   2.400  0.0819  0.6016 -1.5005
 4274TIP3   OH234380   1.165   5.079   8.110  0.0376 -0.6292 -0.8216
 4274TIP3    H134381   1.258   5.081   8.135 -0.1136 -1.2717 -0.1757
 4274TIP3    H234382   1.139   5.172   8.110  0.3274 -0.5295  0.4034
 4275TIP3   OH234383   4.117   3.176   2.477 -1.0523  0.6825  0.2584
 4275TIP3    H134384   4.054   3.115   2.516 -2.7405  0.8354 -2.0132
 4275TIP3    H234385   4.165   3.123   2.413 -1.1458  1.2687 -0.3114
 4276TIP3   OH234386   5.159   0.526   0.941 -0.5180 -0.2220 -0.1237
 4276TIP3    H134387   5.095   0.501   1.008  0.8835  1.0499  1.8266
 4276TIP3    H234388   5.215   0.449   0.931 -1.1317 -0.6466 -0.3189
 4277TIP3   OH234389   2.096   3.519   2.575 -0.5873 -0.4183 -0.2316
 4277TIP3    H134390   2.073   3.428   2.558 -4.2956  0.2945  0.0029
 4277TIP3    H234391   2.043   3.569   2.513  1.3431  1.6288 -0.3485
 4278TIP3   OH234392   3.838   2.931   0.923  0.0818 -0.5265 -0.6981
 4278TIP3    H134393   3.769   2.868   0.945 -1.3663  1.4507  0.7823
 4278TIP3    H234394   3.838   2.992   0.997  2.6358  0.2257 -1.2429
 4279TIP3   OH234395   2.205   4.663   0.078  0.4500  0.5426  0.0926
 4279TIP3    H134396   2.268   4.720   0.123  1.4085  0.6677 -1.3172
 4279TIP3    H234397   2.182   4.712  -0.002  0.0779 -0.3590 -0.3645
 4280TIP3   OH234398   2.437   2.380   8.737 -0.5519 -0.1728 -0.1138
 4280TIP3    H134399   2.347   2.376   8.704  0.1775 -2.0643 -2.0491
 4280TIP3    H234400   2.427   2.400   8.831 -2.8227  2.5367 -0.7909
 4281TIP3   OH234401   3.748   5.513   1.247 -0.0041 -0.4817  0.8513
 4281TIP3    H134402   3.724   5.431   1.204  1.5738 -0.1845 -0.7295
 4281TIP3    H234403   3.728   5.581   1.182  0.1244  0.2425  1.5535
 4282TIP3   OH234404   5.571   0.856   2.004  0.0809  1.1324  0.0176
 4282TIP3    H134405   5.608   0.944   2.006  0.8637  0.7976  1.7676
 4282TIP3    H234406   5.577   0.825   2.094 -0.5647 -0.5666 -0.4830
 4283TIP3   OH234407   5.121   0.706   8.230 -0.0601  0.3920 -0.4862
 4283TIP3    H134408   5.065   0.651   8.284 -0.1975  1.0742  0.0795
 4283TIP3    H234409   5.196   0.727   8.286  0.1365  0.5332 -0.7976
 4284TIP3   OH234410   5.831   0.920   8.205  0.0915 -0.3189  0.0243
 4284TIP3    H134411   5.868   0.900   8.291  0.3031  0.1123  0.0383
 4284TIP3    H234412   5.745   0.958   8.224 -0.2020 -0.9678  0.0083
 4285TIP3   OH234413   3.040   2.817   8.114 -0.6530  0.4016  0.1358
 4285TIP3    H134414   3.009   2.903   8.143  0.4402  0.8341  0.0445
 4285TIP3    H234415   3.066   2.772   8.194 -2.6905 -0.4858  0.3758
 4286TIP3   OH234416   2.833   0.498   2.835 -0.3502 -0.0118 -0.3246
 4286TIP3    H134417   2.778   0.420   2.845 -1.4236  0.9215  1.9456
 4286TIP3    H234418   2.775   0.563   2.796 -1.3878  1.2747  2.9521
 4287TIP3   OH234419   6.005   4.703   1.048 -0.6710 -1.0151 -0.6336
 4287TIP3    H134420   6.023   4.794   1.024 -0.0147 -1.6029 -2.5688
 4287TIP3    H234421   6.014   4.702   1.144 -1.6700  1.1382 -0.4425
 4288TIP3   OH234422   1.541   5.938   7.495  0.4338  0.0945  0.0537
 4288TIP3    H134423   1.461   5.934   7.442  1.3188  0.9476 -1.4227
 4288TIP3    H234424   1.566   6.031   7.492  1.7360 -0.2394  0.0549
 4289TIP3   OH234425   0.346   0.309   8.276 -0.0875 -0.7779  0.1934
 4289TIP3    H134426   0.304   0.371   8.336 -0.7282 -0.5628 -0.4528
 4289TIP3    H234427   0.434   0.296   8.312 -0.6915 -1.2080  1.5526
 4290TIP3   OH234428   1.110   2.526   0.866  0.5377 -0.1396 -0.0499
 4290TIP3    H134429   1.107   2.431   0.867  4.2671 -0.4106 -0.2488
 4290TIP3    H234430   1.053   2.552   0.794 -0.9370 -2.1195  0.3223
 4291TIP3   OH234431   5.473   4.603   7.911  0.0644 -0.2521 -0.4880
 4291TIP3    H134432   5.535   4.625   7.980 -1.7136 -0.0273  1.1160
 4291TIP3    H234433   5.387   4.614   7.951 -1.0589 -0.0157 -2.7830
 4292TIP3   OH234434   3.214   5.579   7.371 -0.5996 -0.1682  0.1843
 4292TIP3    H134435   3.256   5.663   7.390 -1.4981  0.2474  0.3618
 4292TIP3    H234436   3.137   5.576   7.428  0.4594 -1.9957  1.6357
 4293TIP3   OH234437   4.693   2.667   1.212 -0.2417 -0.6144  0.2810
 4293TIP3    H134438   4.739   2.650   1.130  0.1306 -0.3433  0.4314
 4293TIP3    H234439   4.676   2.580   1.248  0.8023 -0.7090  0.5751
 4294TIP3   OH234440   4.150   6.236   7.613  0.7897 -0.1620  0.1214
 4294TIP3    H134441   4.195   6.181   7.677  1.9741 -0.0709 -0.5950
 4294TIP3    H234442   4.137   6.178   7.537  1.3136  0.3018 -0.3326
 4295TIP3   OH234443   5.987   5.726   8.185  0.4922  0.2976 -0.3151
 4295TIP3    H134444   6.028   5.697   8.103  0.5649 -0.8516  0.1085
 4295TIP3    H234445   6.051   5.704   8.252  0.1090  0.5400  0.1357
 4296TIP3   OH234446   2.553   3.355   1.632 -0.2378  0.0511  0.2184
 4296TIP3    H134447   2.595   3.297   1.695 -0.0855 -0.4574 -0.3438
 4296TIP3    H234448   2.526   3.298   1.560 -1.3629  0.4569  0.2928
 4297TIP3   OH234449   2.339   3.900   1.673 -0.2062  0.1784  0.0505
 4297TIP3    H134450   2.248   3.872   1.685 -0.2132  0.2266  0.1095
 4297TIP3    H234451   2.342   3.936   1.585 -0.5369  1.3503  0.5076
 4298TIP3   OH234452   1.122   4.835   7.087  0.4239  0.5829  0.4628
 4298TIP3    H134453   1.216   4.823   7.078  0.1121 -2.2616  0.3811
 4298TIP3    H234454   1.113   4.894   7.163  2.2242  0.6681  0.6516
 4299TIP3   OH234455   2.998   0.856   7.554  0.1568 -0.1630 -0.8559
 4299TIP3    H134456   2.906   0.847   7.580  0.6769 -1.3459  0.7918
 4299TIP3    H234457   2.998   0.923   7.486 -1.3703  3.6064  2.4847
 4300TIP3   OH234458   0.984   6.477   8.397  0.0363 -0.1223  0.3604
 4300TIP3    H134459   1.038   6.412   8.354  0.5811 -0.4115  1.4606
 4300TIP3    H234460   0.985   6.552   8.337  1.4794 -0.1945  0.2638
 4301TIP3   OH234461   0.230   5.216   7.320  0.1950  0.0695  0.2266
 4301TIP3    H134462   0.166   5.146   7.319  0.2811 -0.0036 -0.9228
 4301TIP3    H234463   0.314   5.174   7.301  0.1972  0.5140 -0.8223
 4302TIP3   OH234464   4.325   5.673   8.278  0.1535  0.2115 -0.2351
 4302TIP3    H134465   4.314   5.766   8.300  1.5763  0.5139 -0.7084
 4302TIP3    H234466   4.277   5.626   8.347 -0.0347  1.2733  0.3813
 4303TIP3   OH234467   4.023   3.459   7.416  0.2991 -0.3475 -0.4983
 4303TIP3    H134468   4.014   3.554   7.421  0.3572 -0.3923  2.2992
 4303TIP3    H234469   3.946   3.425   7.462  2.2770 -1.4260  2.3470
 4304TIP3   OH234470   2.678   4.758   8.482 -0.0776  0.0341  0.4160
 4304TIP3    H134471   2.696   4.821   8.413  0.4967 -0.9466 -0.3586
 4304TIP3    H234472   2.588   4.776   8.509 -0.4168  0.2210 -0.7990
 4305TIP3   OH234473   2.338   2.325   7.224  0.7666  0.8676  0.1198
 4305TIP3    H134474   2.271   2.393   7.236 -0.7002 -0.3515 -0.8682
 4305TIP3    H234475   2.392   2.331   7.303 -1.5001  0.8115  1.7743
 4306TIP3   OH234476   6.379   3.449   0.452 -0.8895 -0.5515 -0.7249
 4306TIP3    H134477   6.462   3.459   0.406  1.2729 -3.0540  2.1890
 4306TIP3    H234478   6.360   3.535   0.487  2.5580 -0.5107  1.5261
 4307TIP3   OH234479   3.073   1.165   0.599  0.2048  0.1712 -0.0712
 4307TIP3    H134480   3.107   1.133   0.682  0.2837  0.8571  0.1638
 4307TIP3    H234481   2.992   1.116   0.585  1.2728 -1.5122 -0.6591
 4308TIP3   OH234482   2.348   1.452   7.996  0.4593  0.0195  0.0242
 4308TIP3    H134483   2.311   1.525   7.947 -1.9337 -1.6651 -0.8863
 4308TIP3    H234484   2.345   1.378   7.935  2.8539 -0.8909  0.8786
 4309TIP3   OH234485   6.116   1.813   2.208  0.6629 -0.4187 -0.2501
 4309TIP3    H134486   6.059   1.793   2.283 -1.4005 -1.0734 -1.8781
 4309TIP3    H234487   6.098   1.905   2.189  1.8112 -0.0150  0.5128
 4310TIP3   OH234488   2.182   0.723   2.653  0.2157 -0.6549 -0.0561
 4310TIP3    H134489   2.100   0.746   2.695  0.0739  1.1755 -1.2487
 4310TIP3    H234490   2.161   0.646   2.599 -0.4136 -0.8985  0.5340
 4311TIP3   OH234491   4.845   0.636   8.266 -0.4597 -0.4474  0.0081
 4311TIP3    H134492   4.794   0.687   8.330 -0.4418 -1.1939  0.6248
 4311TIP3    H234493   4.780   0.584   8.220 -0.3205 -1.0533  0.4779
 4312TIP3   OH234494   5.179   2.887   0.865 -0.2967  0.0384 -0.1118
 4312TIP3    H134495   5.225   2.921   0.942 -0.0521 -1.5561  0.4855
 4312TIP3    H234496   5.246   2.837   0.817 -0.6323  0.4017 -0.9860
 4313TIP3   OH234497   5.021   0.217   1.485 -0.1136 -0.7236  0.0579
 4313TIP3    H134498   4.983   0.187   1.567 -1.7246 -0.7382 -0.6640
 4313TIP3    H234499   5.091   0.277   1.512 -0.5417 -0.8026  1.4276
 4314TIP3   OH234500   5.155   6.278   2.597 -0.4418 -0.3155 -0.1215
 4314TIP3    H134501   5.123   6.263   2.508 -0.0652 -1.2365 -0.1137
 4314TIP3    H234502   5.249   6.294   2.586 -0.5599  0.4943  0.0277
 4315TIP3   OH234503   2.825   4.659   1.728 -1.1883  0.2521 -0.0716
 4315TIP3    H134504   2.880   4.680   1.802 -2.4630  0.2008  0.9309
 4315TIP3    H234505   2.777   4.740   1.709 -0.6719  0.3524 -1.0392
 4316TIP3   OH234506   6.095   1.112   7.422  0.0168  0.4075 -0.0970
 4316TIP3    H134507   6.123   1.023   7.444  0.2392  0.5256  0.0984
 4316TIP3    H234508   6.073   1.108   7.329  0.5028  0.2678 -0.2079
 4317TIP3   OH234509   3.109   1.933   0.966  0.3649  0.2650 -0.1994
 4317TIP3    H134510   3.073   2.007   1.016 -0.8122  0.3807 -1.1436
 4317TIP3    H234511   3.201   1.928   0.991  0.4854  2.1083 -0.1647
 4318TIP3   OH234512   1.235   2.040   1.316  0.3852  0.0497  0.2587
 4318TIP3    H134513   1.275   1.961   1.351 -1.4847 -0.2469  1.9270
 4318TIP3    H234514   1.307   2.103   1.309  1.6144 -1.2955  0.4112
 4319TIP3   OH234515   4.149   2.457   8.408  0.1389  0.3566  0.1502
 4319TIP3    H134516   4.235   2.416   8.397 -0.0633  0.2930 -1.4857
 4319TIP3    H234517   4.128   2.446   8.500  1.1558 -1.1168  0.2337
 4320TIP3   OH234518   3.210   2.808   0.778 -0.2807 -0.4218 -0.4568
 4320TIP3    H134519   3.142   2.874   0.791  0.1254  0.0963 -0.9139
 4320TIP3    H234520   3.257   2.805   0.861 -0.1759  0.0069 -0.4999
 4321TIP3   OH234521   3.242   0.556   1.787 -0.9360  0.4725  0.5674
 4321TIP3    H134522   3.186   0.481   1.764  2.7207 -1.8403 -1.8955
 4321TIP3    H234523   3.208   0.628   1.733 -0.8819 -1.2251 -1.9410
 4322TIP3   OH234524   6.569   3.358   7.196 -0.1369 -0.7027 -0.2416
 4322TIP3    H134525   6.655   3.388   7.168 -1.0552  0.7106 -1.7506
 4322TIP3    H234526   6.569   3.264   7.179  0.3150 -0.3468 -2.5381
 4323TIP3   OH234527   0.763   0.235   1.191  0.7517 -0.4903 -0.1016
 4323TIP3    H134528   0.735   0.288   1.266  0.9817 -1.2651  0.5604
 4323TIP3    H234529   0.739   0.286   1.114  0.8261  0.4846  0.5097
 4324TIP3   OH234530   0.249   5.710   6.944 -0.0983  0.5741 -0.3723
 4324TIP3    H134531   0.190   5.647   6.985 -1.1328  1.1226 -0.9745
 4324TIP3    H234532   0.222   5.795   6.981  0.7042  0.7710 -0.2149
 4325TIP3   OH234533   3.041   1.448   0.595  0.0833 -0.0330  0.4040
 4325TIP3    H134534   3.063   1.355   0.600  0.5279  0.0425 -0.0439
 4325TIP3    H234535   3.119   1.493   0.626 -0.2046  0.1895  0.8141
 4326TIP3   OH234536   3.663   0.881   1.820  0.3180 -0.4387  0.1015
 4326TIP3    H134537   3.634   0.938   1.749 -1.4256 -1.5533 -0.1434
 4326TIP3    H234538   3.613   0.911   1.897  0.4282 -0.7468  0.2956
 4327TIP3   OH234539   4.151   3.323   7.704  0.2366  0.0002  0.8324
 4327TIP3    H134540   4.101   3.373   7.769 -1.5604  0.0117 -0.4730
 4327TIP3    H234541   4.206   3.388   7.661  0.1992  0.2899  1.2178
 4328TIP3   OH234542   1.576   4.482   1.452  0.1026  0.1897  0.0414
 4328TIP3    H134543   1.650   4.461   1.394  0.9536  0.6847  0.9346
 4328TIP3    H234544   1.605   4.557   1.503 -0.3233 -0.7358  1.6979
 4329TIP3   OH234545   4.164   3.614   2.600  0.1029  0.6772  0.2017
 4329TIP3    H134546   4.255   3.601   2.627  0.1872  2.0742  0.6724
 4329TIP3    H234547   4.160   3.580   2.511  0.5851 -1.2006  0.8447
 4330TIP3   OH234548   4.293   3.255   1.634  0.3286 -0.4423  0.2019
 4330TIP3    H134549   4.209   3.210   1.622 -0.0662  0.5487 -0.9148
 4330TIP3    H234550   4.355   3.203   1.583  0.0177 -0.1214 -0.5050
 4331TIP3   OH234551   2.767   0.194   7.544 -0.1678 -0.2751  0.1118
 4331TIP3    H134552   2.675   0.170   7.529 -0.2982  1.6401 -3.2407
 4331TIP3    H234553   2.814   0.111   7.535 -1.2458 -0.6836 -3.0609
 4332TIP3   OH234554   3.350   3.623   1.432  0.3721  0.2917  0.7500
 4332TIP3    H134555   3.352   3.544   1.487 -1.0518  0.1589  0.6382
 4332TIP3    H234556   3.313   3.691   1.488  0.8510  0.6873  0.5943
 4333TIP3   OH234557   2.810   1.423   2.182 -0.1122  0.3967  0.3058
 4333TIP3    H134558   2.863   1.345   2.197 -1.0628 -0.1003  1.2543
 4333TIP3    H234559   2.754   1.429   2.259  0.7622  2.7360  0.8238
 4334TIP3   OH234560   1.648   5.119   1.529  0.2299  0.6123  0.4526
 4334TIP3    H134561   1.733   5.079   1.511  0.0247  0.4424 -0.1413
 4334TIP3    H234562   1.662   5.212   1.512  0.3771  0.6314  0.6625
 4335TIP3   OH234563   2.369   5.670   0.907 -0.3367 -0.0904  0.1766
 4335TIP3    H134564   2.361   5.684   0.813 -0.8971 -1.0875  0.0651
 4335TIP3    H234565   2.401   5.580   0.916  0.7650  0.3503  0.9215
 4336TIP3   OH234566   1.230   3.831   8.433  0.2101  0.6839 -0.9148
 4336TIP3    H134567   1.285   3.775   8.378  0.2513  0.5691 -0.7568
 4336TIP3    H234568   1.198   3.773   8.502  1.3786  1.1484  0.0593
 4337TIP3   OH234569   5.816   3.301   1.171 -0.1586  0.7510 -0.0288
 4337TIP3    H134570   5.744   3.327   1.114 -1.1175 -0.7719  0.4224
 4337TIP3    H234571   5.890   3.357   1.144 -1.3064  1.8863 -0.9445
 4338TIP3   OH234572   3.155   5.694   1.105  0.3299 -0.1317  0.1402
 4338TIP3    H134573   3.077   5.742   1.078  0.9236 -0.3451 -2.1421
 4338TIP3    H234574   3.123   5.633   1.172 -0.8802  1.7298  1.3420
 4339TIP3   OH234575   1.263   3.606   7.490  0.4002  0.0796 -0.2032
 4339TIP3    H134576   1.187   3.640   7.537 -0.4473 -1.2806 -0.5210
 4339TIP3    H234577   1.336   3.617   7.552 -0.3374  0.0394  0.7018
 4340TIP3   OH234578   2.263   1.228   1.611 -0.0668 -0.3219  0.2524
 4340TIP3    H134579   2.297   1.222   1.522 -0.4179 -2.1809  0.1938
 4340TIP3    H234580   2.181   1.178   1.608  0.4165 -1.2801  1.8332
 4341TIP3   OH234581   6.005   4.259   7.365  0.0749 -0.1337 -0.5071
 4341TIP3    H134582   5.996   4.192   7.433  0.9843  0.0262 -0.2124
 4341TIP3    H234583   5.924   4.309   7.369  0.1029 -0.1442  0.4583
 4342TIP3   OH234584   3.048   2.854   7.850 -0.0181  0.1976  0.8743
 4342TIP3    H134585   2.965   2.818   7.819 -0.3877  0.3254  1.6914
 4342TIP3    H234586   3.043   2.847   7.946  0.6934  0.6907  0.9547
 4343TIP3   OH234587   5.035   4.022   1.833  0.2727  0.4424 -0.2491
 4343TIP3    H134588   5.036   3.933   1.867  0.1476  0.3488 -0.4865
 4343TIP3    H234589   5.008   4.076   1.907  0.4275  0.2930 -0.0832
 4344TIP3   OH234590   1.945   2.359   8.809 -0.3570 -0.1806  0.1497
 4344TIP3    H134591   1.891   2.394   8.738  0.6375 -1.1591 -1.1517
 4344TIP3    H234592   1.906   2.274   8.830  0.1499 -0.5122 -0.2116
 4345TIP3   OH234593   1.472   6.078   1.491  0.1001  0.0049  0.5363
 4345TIP3    H134594   1.454   6.145   1.557  0.2756  1.7011 -1.0616
 4345TIP3    H234595   1.398   6.084   1.431 -0.0991 -1.5739  0.5828
 4346TIP3   OH234596   4.610   2.024   0.548  0.2017 -0.2502  0.0508
 4346TIP3    H134597   4.667   1.975   0.488 -1.2839 -0.3453 -1.3592
 4346TIP3    H234598   4.526   1.978   0.543 -1.2688  2.3723 -1.3478
 4347TIP3   OH234599   3.964   6.395   0.441  0.6132 -0.0235 -0.4323
 4347TIP3    H134600   3.968   6.340   0.519 -0.5109  0.7931  0.2360
 4347TIP3    H234601   4.051   6.435   0.435 -0.1090  2.1811  2.1482
 4348TIP3   OH234602   4.489   0.487   0.630 -0.2531 -0.0496  0.1585
 4348TIP3    H134603   4.577   0.509   0.600  0.0060  0.9643  1.5728
 4348TIP3    H234604   4.431   0.517   0.560  0.4450  0.3386 -0.2635
 4349TIP3   OH234605   2.898   3.216   0.631 -0.3501  0.0593  0.4834
 4349TIP3    H134606   2.807   3.207   0.604 -0.1268  0.8188 -0.6367
 4349TIP3    H234607   2.943   3.145   0.586 -0.6017 -1.3696  2.3641
 4350TIP3   OH234608   2.937   0.676   0.433 -0.0003 -0.8784  0.6279
 4350TIP3    H134609   2.991   0.750   0.460  1.8396 -1.6618 -0.7571
 4350TIP3    H234610   2.960   0.661   0.342 -2.0515 -1.7312  0.1777
 4351TIP3   OH234611   1.365   4.515   6.926  0.4983 -0.3338 -0.4232
 4351TIP3    H134612   1.407   4.596   6.899 -0.8269  0.3312 -0.5701
 4351TIP3    H234613   1.437   4.453   6.937  1.7505  1.3161  1.4238
 4352TIP3   OH234614   0.083   4.936   1.715 -0.0364  0.5279 -0.1035
 4352TIP3    H134615  -0.004   4.900   1.700 -0.8393  1.6531  1.5813
 4352TIP3    H234616   0.143   4.863   1.697 -1.3285 -0.3831 -0.8755
 4353TIP3   OH234617   0.781   2.123   1.025 -0.0031 -0.6160 -0.1339
 4353TIP3    H134618   0.839   2.106   1.100  0.0698  0.3993  0.0550
 4353TIP3    H234619   0.736   2.204   1.048  1.2634  0.6487 -1.9268
 4354TIP3   OH234620   1.152   3.249   7.743 -0.3012 -0.3388 -0.2823
 4354TIP3    H134621   1.222   3.231   7.680 -0.8805  0.8482 -1.3010
 4354TIP3    H234622   1.126   3.339   7.726 -0.0597  0.2682  2.0971
 4355TIP3   OH234623   3.701   2.213   7.086  0.4259 -0.1989  0.1033
 4355TIP3    H134624   3.651   2.152   7.032  0.2092 -1.2421  1.4338
 4355TIP3    H234625   3.638   2.281   7.110  0.3602 -0.0746 -0.4063
 4356TIP3   OH234626   1.161   3.991   0.822  0.4116  0.2400 -0.3656
 4356TIP3    H134627   1.120   4.067   0.862  0.6287  0.4291 -0.4965
 4356TIP3    H234628   1.104   3.968   0.749 -0.6377 -0.8472  0.7513
 4357TIP3   OH234629   4.449   4.311   0.471  0.4785 -0.2121  0.4091
 4357TIP3    H134630   4.531   4.264   0.485  1.0441  0.3544 -0.9262
 4357TIP3    H234631   4.414   4.276   0.389 -0.2879  0.0323  0.6193
 4358TIP3   OH234632   2.385   1.502   1.606  0.0523 -0.4916 -0.3321
 4358TIP3    H134633   2.368   1.408   1.606  1.0680 -0.7384 -2.6736
 4358TIP3    H234634   2.383   1.528   1.514  2.9526  1.1262 -0.0796
 4359TIP3   OH234635   4.052   2.745   8.654  0.1845  0.5316 -0.0504
 4359TIP3    H134636   4.118   2.778   8.592  0.2229  0.1542 -0.2092
 4359TIP3    H234637   4.081   2.779   8.739 -1.2024  3.1849 -0.5138
 4360TIP3   OH234638   1.526   2.122   6.746 -0.1941  0.1786  0.0748
 4360TIP3    H134639   1.559   2.146   6.659 -2.2380  1.1479 -0.5085
 4360TIP3    H234640   1.531   2.026   6.748  0.1375  0.1615 -1.0095
 4361TIP3   OH234641   6.172   5.997   8.767  0.5560  0.0640  0.1823
 4361TIP3    H134642   6.216   6.068   8.814  2.2271 -0.4877 -0.4766
 4361TIP3    H234643   6.228   5.921   8.781 -0.8057 -0.9684  0.2349
 4362TIP3   OH234644   2.736   6.650   7.588  0.0786  0.1852 -0.6867
 4362TIP3    H134645   2.647   6.676   7.564 -0.9563 -2.8189 -0.5355
 4362TIP3    H234646   2.784   6.649   7.505  0.4641  3.1114 -0.6074
 4363TIP3   OH234647   1.058   0.163   6.774 -0.1184  0.2541 -0.1929
 4363TIP3    H134648   1.032   0.250   6.805  0.2384  1.1324 -2.1542
 4363TIP3    H234649   1.150   0.173   6.750 -0.2230 -0.4967 -0.9596
 4364TIP3   OH234650   4.122   3.676   0.912 -0.2606 -0.1250 -0.4311
 4364TIP3    H134651   4.038   3.631   0.921 -0.3018 -0.1180 -0.7810
 4364TIP3    H234652   4.187   3.606   0.904  0.1341 -0.2420  2.5594
 4365TIP3   OH234653   4.293   5.475   1.554 -0.0399 -0.1764  0.3469
 4365TIP3    H134654   4.371   5.517   1.518  0.8756 -3.2003 -1.5866
 4365TIP3    H234655   4.324   5.428   1.632 -0.7002  1.2176  1.5023
 4366TIP3   OH234656   4.067   4.535   1.405 -0.2535 -0.0812 -0.6786
 4366TIP3    H134657   4.140   4.598   1.405 -1.6344  1.6504  1.0502
 4366TIP3    H234658   4.001   4.576   1.349 -0.3697 -1.0677 -1.2800
 4367TIP3   OH234659   0.143   4.468   0.467  0.0630 -0.0810  0.2115
 4367TIP3    H134660   0.133   4.391   0.412  0.6707  1.2120 -1.8484
 4367TIP3    H234661   0.189   4.531   0.412 -0.1069  1.6446  1.9124
 4368TIP3   OH234662   0.066   1.510   2.313  0.0256 -0.5824  0.0073
 4368TIP3    H134663   0.017   1.436   2.349  1.6608 -0.6986  2.1127
 4368TIP3    H234664   0.156   1.479   2.305  0.0513 -0.0413 -2.8401
 4369TIP3   OH234665   6.160   4.116   0.162  0.6961 -0.0920 -0.0543
 4369TIP3    H134666   6.173   4.174   0.087  1.4757  1.9307  1.5418
 4369TIP3    H234667   6.244   4.117   0.208 -0.1230 -0.2685  1.5133
 4370TIP3   OH234668   6.575   1.832   7.207 -0.6281  0.0013 -0.5039
 4370TIP3    H134669   6.614   1.811   7.292  0.4099  0.5943 -0.8099
 4370TIP3    H234670   6.486   1.859   7.228 -0.5264 -0.2719  0.3517
 4371TIP3   OH234671   0.084   1.543   0.083 -0.0401  0.4001 -0.3419
 4371TIP3    H134672   0.016   1.596   0.124 -0.4298 -1.5477  1.7406
 4371TIP3    H234673   0.155   1.540   0.148  0.7356 -0.0748 -1.1896
 4372TIP3   OH234674   0.533   1.849   2.023 -0.4885 -1.3477 -0.2661
 4372TIP3    H134675   0.484   1.773   2.053  0.7311 -2.4158 -0.8981
 4372TIP3    H234676   0.574   1.884   2.102 -0.0813 -2.0862 -0.1392
 4373TIP3   OH234677   5.135   4.694   2.048 -0.1988  0.3356 -0.1942
 4373TIP3    H134678   5.042   4.688   2.067 -0.5023  1.6305 -1.1451
 4373TIP3    H234679   5.171   4.609   2.075 -2.2942 -1.7833 -3.3491
 4374TIP3   OH234680   2.497   5.228   8.173  0.4816 -0.6601 -0.2056
 4374TIP3    H134681   2.592   5.240   8.168  1.1108 -3.4348  2.2748
 4374TIP3    H234682   2.481   5.204   8.265 -2.4574 -1.4334 -0.8334
 4375TIP3   OH234683   5.074   1.463   0.043 -0.1708  0.4920 -0.2712
 4375TIP3    H134684   5.079   1.516  -0.037 -1.6875  0.5983 -0.3294
 4375TIP3    H234685   5.118   1.516   0.109  1.1842  0.3660 -1.0348
 4376TIP3   OH234686   2.603   1.423   7.584 -0.0401 -0.1571 -0.1295
 4376TIP3    H134687   2.631   1.374   7.507 -1.5878  0.6415 -1.2574
 4376TIP3    H234688   2.509   1.406   7.591 -0.0048  0.0988  1.3608
 4377TIP3   OH234689   4.848   4.631   0.192  0.2199 -0.3985 -0.0715
 4377TIP3    H134690   4.796   4.708   0.166  0.3647 -1.1873 -2.9991
 4377TIP3    H234691   4.790   4.557   0.176  1.6283 -1.1797 -1.8765
 4378TIP3   OH234692   5.943   0.615   1.601 -0.6489  0.5310 -0.0777
 4378TIP3    H134693   5.969   0.623   1.509  0.0784  1.9412  0.2150
 4378TIP3    H234694   5.889   0.536   1.604 -0.2005  0.1284 -1.6001
 4379TIP3   OH234695   5.052   3.936   0.774 -0.7516 -0.5077 -0.8165
 4379TIP3    H134696   4.999   4.014   0.759 -1.6060 -0.6520  1.2149
 4379TIP3    H234697   5.082   3.910   0.686  0.9942  3.0146 -1.4299
 4380TIP3   OH234698   1.068   1.604   8.622 -0.7095 -0.4045 -0.2263
 4380TIP3    H134699   1.010   1.672   8.657  0.1872  0.0868  0.3630
 4380TIP3    H234700   1.075   1.625   8.529  1.4565  1.8615  0.3274
 4381TIP3   OH234701   5.987   3.944   1.618 -0.2710  0.6907  0.6228
 4381TIP3    H134702   6.019   4.024   1.660  0.2321  0.2449  1.1040
 4381TIP3    H234703   5.892   3.944   1.635 -0.4034  1.5933 -0.0862
 4382TIP3   OH234704   5.163   3.460   7.563  0.2373  0.3202  0.2851
 4382TIP3    H134705   5.256   3.476   7.577 -0.0319  1.1818  1.2511
 4382TIP3    H234706   5.159   3.395   7.493  1.5979 -0.9465  1.3312
 4383TIP3   OH234707   4.211   5.086   7.245  0.0035 -0.0556  0.0014
 4383TIP3    H134708   4.199   5.092   7.150  0.7636  0.0203 -0.0889
 4383TIP3    H234709   4.162   5.007   7.270 -1.6411  0.8485 -0.1925
 4384TIP3   OH234710   0.457   4.307   0.811 -0.2753  0.1917 -0.1260
 4384TIP3    H134711   0.449   4.303   0.907  0.2476  0.8849 -0.0419
 4384TIP3    H234712   0.545   4.273   0.793  0.0437  1.0541 -0.2609
 4385TIP3   OH234713   5.747   4.655   2.302  0.2265 -0.2351 -0.4266
 4385TIP3    H134714   5.669   4.620   2.344  0.9001  0.1752  1.2302
 4385TIP3    H234715   5.766   4.736   2.349  2.4340 -1.0272  0.1633
 4386TIP3   OH234716   4.371   4.798   7.838 -0.1546  0.1290 -0.4993
 4386TIP3    H134717   4.332   4.812   7.752  0.3047  1.2908 -0.5318
 4386TIP3    H234718   4.409   4.710   7.833 -1.3444 -0.3796 -0.9924
 4387TIP3   OH234719   3.385   0.949   1.352 -0.2164 -0.5359 -0.1700
 4387TIP3    H134720   3.340   0.865   1.343 -1.7419  0.3564 -1.2903
 4387TIP3    H234721   3.465   0.939   1.301 -0.5133 -1.2192 -0.5143
 4388TIP3   OH234722   2.998   6.040   1.609  0.1529  0.1029 -0.2911
 4388TIP3    H134723   2.968   5.973   1.670  0.4855 -1.0343 -1.3292
 4388TIP3    H234724   2.967   6.122   1.646  3.6479  0.0099  3.5375
 4389TIP3   OH234725   6.271   4.847   6.641 -0.4397 -0.1709 -0.1274
 4389TIP3    H134726   6.363   4.855   6.617  0.2679 -1.6543  1.8586
 4389TIP3    H234727   6.245   4.760   6.609 -1.2466  0.3075 -0.8400
 4390TIP3   OH234728   2.688   3.145   2.403  0.1290 -0.0654 -0.0083
 4390TIP3    H134729   2.753   3.104   2.461 -1.9244 -2.5973  0.6923
 4390TIP3    H234730   2.721   3.128   2.315  0.8536 -0.5511  0.3409
 4391TIP3   OH234731   5.901   4.134   0.269 -0.4183  0.2093  0.5197
 4391TIP3    H134732   5.858   4.155   0.186  0.8867  0.1703 -0.2049
 4391TIP3    H234733   5.994   4.129   0.246 -0.0312  0.2697  2.0137
 4392TIP3   OH234734   0.291   0.727   1.871  0.4450 -0.1293 -0.2234
 4392TIP3    H134735   0.265   0.745   1.781 -0.6408  0.1043  0.1324
 4392TIP3    H234736   0.213   0.691   1.912  0.4132  1.3609  1.0875
 4393TIP3   OH234737   3.947   1.432   1.420 -0.4494  0.3164 -0.1273
 4393TIP3    H134738   3.893   1.506   1.393 -1.7750 -0.5730 -0.0090
 4393TIP3    H234739   4.022   1.472   1.465  0.0830  1.6663 -2.1056
 4394TIP3   OH234740   4.889   6.155   6.844 -0.3409 -0.2299  0.0040
 4394TIP3    H134741   4.952   6.086   6.868 -0.3650 -1.0136 -1.9772
 4394TIP3    H234742   4.924   6.234   6.885  0.3364 -1.1885  1.3602
 4395TIP3   OH234743   3.725   6.255   7.164  0.7175  0.2605 -0.6756
 4395TIP3    H134744   3.641   6.233   7.204  0.7327  1.7994  0.3022
 4395TIP3    H234745   3.743   6.183   7.104 -1.3921 -0.0066 -1.0676
 4396TIP3   OH234746   6.658   5.752   1.449  0.7510 -0.2278 -0.1981
 4396TIP3    H134747   6.635   5.735   1.541  0.1199 -0.5452 -0.4133
 4396TIP3    H234748   6.706   5.674   1.422 -1.4086 -1.3766 -0.9314
 4397TIP3   OH234749   4.192   6.114   8.362  0.5226 -0.5432 -0.2008
 4397TIP3    H134750   4.242   6.100   8.442 -1.2695  0.9520  1.2883
 4397TIP3    H234751   4.167   6.207   8.365 -0.1067 -0.5991 -2.1939
 4398TIP3   OH234752   6.138   1.469   0.521 -0.8276  0.7705 -0.6713
 4398TIP3    H134753   6.147   1.534   0.590  4.6489  0.9882 -1.1674
 4398TIP3    H234754   6.154   1.385   0.564 -2.0255  0.3357 -1.0163
 4399TIP3   OH234755   4.291   4.000   8.316 -0.4122 -0.1153  0.0023
 4399TIP3    H134756   4.198   3.998   8.297 -0.1964 -1.4311 -1.1537
 4399TIP3    H234757   4.333   4.000   8.230  0.6582  0.4718  0.5028
 4400TIP3   OH234758   3.118   0.345   0.758  0.6585  0.0557 -0.2647
 4400TIP3    H134759   3.032   0.341   0.716  0.3646  0.3906  0.2963
 4400TIP3    H234760   3.155   0.428   0.730  0.6349  0.0877 -0.2029
 4401TIP3   OH234761   5.323   2.635   7.454  0.7649  0.4131 -0.4049
 4401TIP3    H134762   5.310   2.545   7.424 -1.6831  0.8458 -0.8625
 4401TIP3    H234763   5.344   2.684   7.375  1.7972  0.3258 -0.2004
 4402TIP3   OH234764   5.377   4.507   1.973  0.0939  0.0417  0.3523
 4402TIP3    H134765   5.346   4.446   1.906  0.7737 -0.8932  0.8618
 4402TIP3    H234766   5.308   4.509   2.039 -0.4651  0.7689 -0.2449
 4403TIP3   OH234767   4.178   0.552   7.181  0.3778 -0.3166 -0.0306
 4403TIP3    H134768   4.261   0.585   7.146  1.4951 -0.9880  1.7792
 4403TIP3    H234769   4.118   0.626   7.178  1.2112  0.3450 -0.8638
 4404TIP3   OH234770   1.281   5.854   7.337  0.2379 -0.1187 -0.0207
 4404TIP3    H134771   1.251   5.768   7.365 -1.1612  1.0028  2.2883
 4404TIP3    H234772   1.206   5.912   7.354  1.1830  1.5932 -1.3454
 4405TIP3   OH234773   3.479   5.667   1.160  0.0435 -0.0464  0.4612
 4405TIP3    H134774   3.386   5.689   1.147  0.0133 -0.4831 -0.0727
 4405TIP3    H234775   3.478   5.588   1.214  0.1527  1.1198  2.2598
 4406TIP3   OH234776   2.927   5.360   7.393  0.1910  0.0228  0.3610
 4406TIP3    H134777   2.885   5.426   7.338 -0.2623 -0.0545  0.6122
 4406TIP3    H234778   2.912   5.277   7.347 -0.8378 -0.1384  0.9736
 4407TIP3   OH234779   2.044   4.727   1.265  0.3068 -0.4958 -0.3209
 4407TIP3    H134780   1.981   4.666   1.226  1.4457 -0.7731 -1.8231
 4407TIP3    H234781   2.067   4.686   1.348 -1.2129 -0.5593  0.1014
 4408TIP3   OH234782   0.670   0.677   8.094 -0.2319 -0.6845 -0.2008
 4408TIP3    H134783   0.615   0.665   8.017  2.0224 -1.5796 -1.8025
 4408TIP3    H234784   0.709   0.591   8.110  0.2031 -0.2496  1.2679
 4409TIP3   OH234785   3.379   1.107   6.417  0.2312  0.7543 -0.2673
 4409TIP3    H134786   3.308   1.104   6.481  0.1215  0.6439 -0.3935
 4409TIP3    H234787   3.407   1.016   6.408  1.4163  0.9707  0.9223
 4410TIP3   OH234788   0.106   3.386   7.696 -0.1294  0.0503 -0.7476
 4410TIP3    H134789   0.121   3.446   7.622  0.0033 -0.2850 -0.9965
 4410TIP3    H234790   0.181   3.401   7.754 -0.5376  0.7459 -0.3793
 4411TIP3   OH234791   2.065   5.069   0.841 -0.3810  0.1158 -0.2388
 4411TIP3    H134792   2.093   5.103   0.756 -0.8978  1.1143 -0.0324
 4411TIP3    H234793   2.045   4.977   0.825  0.6215  0.0042 -0.9315
 4412TIP3   OH234794   0.295   3.745   1.851 -0.2533  0.4837  0.1357
 4412TIP3    H134795   0.210   3.786   1.834 -0.2291  1.2345  1.6604
 4412TIP3    H234796   0.289   3.715   1.942  0.8083 -0.2318 -0.0185
 4413TIP3   OH234797   3.599   0.147   1.257 -0.2268 -0.1344  0.4054
 4413TIP3    H134798   3.636   0.060   1.239  0.0437 -0.2143  1.2900
 4413TIP3    H234799   3.673   0.198   1.289 -0.7203 -0.0933  1.5351
 4414TIP3   OH234800   1.549   0.608   8.168 -0.4126 -0.2020 -0.1122
 4414TIP3    H134801   1.559   0.621   8.262 -1.9238  0.0011  0.0520
 4414TIP3    H234802   1.489   0.678   8.140 -0.1475 -0.3813 -1.1913
 4415TIP3   OH234803   3.717   1.204   8.900  0.2718 -0.3108 -0.0186
 4415TIP3    H134804   3.686   1.269   8.838 -0.0740 -1.0838 -0.6650
 4415TIP3    H234805   3.811   1.197   8.883  0.5054  0.7240  0.7285
 4416TIP3   OH234806   5.310   3.171   6.301  0.0283  0.3677 -0.0586
 4416TIP3    H134807   5.279   3.131   6.382 -0.6608  0.4271 -0.2878
 4416TIP3    H234808   5.265   3.255   6.297  0.4796  0.6069 -0.2358
 4417TIP3   OH234809   0.360   6.054   7.439  0.0845 -0.2970  0.5837
 4417TIP3    H134810   0.270   6.023   7.432  0.2055 -0.6467  0.5482
 4417TIP3    H234811   0.374   6.108   7.360 -0.1141 -0.1875  0.6249
 4418TIP3   OH234812   6.742   1.763   2.627  0.0107  0.5717  0.1185
 4418TIP3    H134813   6.832   1.794   2.635 -0.6928  2.9075 -0.4295
 4418TIP3    H234814   6.738   1.688   2.687  1.6302  1.9651  2.0950
 4419TIP3   OH234815   5.333   5.924   7.649 -0.4284 -0.7303 -0.0543
 4419TIP3    H134816   5.309   5.979   7.723  1.2636 -0.1457  0.1000
 4419TIP3    H234817   5.314   5.977   7.572 -0.8924 -0.8073  0.0040
 4420TIP3   OH234818   0.709   2.087   1.768  0.7063 -0.5091 -0.2941
 4420TIP3    H134819   0.739   2.075   1.858  1.0220  1.1278 -0.1370
 4420TIP3    H234820   0.744   2.173   1.743  0.7600 -1.0089 -2.0360
 4421TIP3   OH234821   4.017   5.697   1.758 -0.6407  0.3565 -0.1560
 4421TIP3    H134822   4.073   5.700   1.681 -0.2461 -0.5362  0.0810
 4421TIP3    H234823   4.049   5.622   1.808  0.0015  1.7159  1.5527
 4422TIP3   OH234824   6.717   3.027   7.794 -0.2697 -0.7296 -0.8186
 4422TIP3    H134825   6.672   3.108   7.768 -0.5726 -1.1952 -1.8020
 4422TIP3    H234826   6.735   2.982   7.711 -0.2371 -1.7385 -0.2804
 4423TIP3   OH234827   3.472   2.369   1.440  0.3934 -0.4072  0.0526
 4423TIP3    H134828   3.475   2.438   1.374  0.2658 -1.9655 -1.6398
 4423TIP3    H234829   3.561   2.336   1.446  0.0887 -1.4111 -0.6297
 4424TIP3   OH234830   0.530   1.752   1.001 -0.1775 -0.0028  0.7138
 4424TIP3    H134831   0.589   1.695   0.953 -0.6915 -0.1849  0.2929
 4424TIP3    H234832   0.581   1.831   1.017  0.7061 -0.7543  1.7371
 4425TIP3   OH234833   1.974   4.998   7.357 -0.7176  0.4106  0.1028
 4425TIP3    H134834   1.896   4.950   7.331  0.9038 -2.0887 -0.5496
 4425TIP3    H234835   2.035   4.930   7.387  0.6276  2.4057  2.2491
 4426TIP3   OH234836   6.311   4.382   1.926  0.4767 -0.3840 -0.1638
 4426TIP3    H134837   6.380   4.445   1.946  0.0755  0.0677 -0.1711
 4426TIP3    H234838   6.244   4.434   1.881  0.0902 -0.7920 -0.0668
 4427TIP3   OH234839   2.612   2.906   0.642 -0.3472 -0.2811 -0.3954
 4427TIP3    H134840   2.625   2.822   0.599  1.0144 -0.1311 -0.3120
 4427TIP3    H234841   2.653   2.897   0.728 -1.1760  0.1121  0.0549
 4428TIP3   OH234842   1.214   0.096   0.714  0.3726 -0.1491  0.3619
 4428TIP3    H134843   1.225   0.014   0.762 -2.8907 -1.7545 -1.2501
 4428TIP3    H234844   1.127   0.127   0.741 -0.6320  0.0272 -2.6679
 4429TIP3   OH234845   2.215   4.834   7.304  0.3457  0.1813 -0.1229
 4429TIP3    H134846   2.310   4.832   7.292  0.3333  3.2622 -1.7589
 4429TIP3    H234847   2.179   4.835   7.215 -1.2200 -0.3463  0.4622
 4430TIP3   OH234848   5.537   2.066   1.809 -0.5025 -0.1661  0.9640
 4430TIP3    H134849   5.576   2.135   1.755 -0.2795  0.3025  1.7176
 4430TIP3    H234850   5.536   2.102   1.898  0.0095 -1.2930  1.4418
 4431TIP3   OH234851   1.649   4.739   7.718  0.2988  0.3174 -0.6511
 4431TIP3    H134852   1.692   4.659   7.749 -2.0732 -0.0686  1.9707
 4431TIP3    H234853   1.692   4.809   7.766 -1.2964  0.0038  1.3607
 4432TIP3   OH234854   5.183   4.861   7.964  0.5363  0.0872 -0.3893
 4432TIP3    H134855   5.276   4.874   7.980  0.7818 -2.0414  0.3304
 4432TIP3    H234856   5.145   4.854   8.051  0.0126 -0.7737 -0.6767
 4433TIP3   OH234857   5.072   4.861   1.034  0.4035  0.6144  0.6469
 4433TIP3    H134858   5.089   4.782   1.086  1.6521 -0.3187 -1.0622
 4433TIP3    H234859   5.009   4.833   0.968  2.1803  0.4665 -1.0936
 4434TIP3   OH234860   1.596   0.645   7.881 -0.4798 -0.0885 -0.0834
 4434TIP3    H134861   1.646   0.692   7.948 -0.2366 -1.3626  0.6711
 4434TIP3    H234862   1.506   0.678   7.891 -0.2108  0.6281  0.0303
 4435TIP3   OH234863   4.272   6.626   6.455 -0.8563  0.1961 -0.1658
 4435TIP3    H134864   4.185   6.624   6.494 -0.6463 -1.2581  0.2940
 4435TIP3    H234865   4.291   6.535   6.433  0.3685  0.5463 -0.6650
 4436TIP3   OH234866   2.771   1.107   7.833  0.0263 -0.7438 -1.0064
 4436TIP3    H134867   2.693   1.092   7.886 -0.2223 -1.6399 -1.5908
 4436TIP3    H234868   2.839   1.054   7.876  1.6844  3.3794  2.2089
 4437TIP3   OH234869   2.711   2.475   8.617  0.0123 -0.0403  0.1878
 4437TIP3    H134870   2.664   2.392   8.617 -1.3849  0.7127  0.1961
 4437TIP3    H234871   2.754   2.479   8.702  2.7114 -2.1007 -0.9063
 4438TIP3   OH234872   6.129   4.946   0.066  0.2445 -0.8696 -0.4182
 4438TIP3    H134873   6.063   4.980   0.005  1.4002  1.4282 -0.5212
 4438TIP3    H234874   6.156   5.023   0.116  2.0462 -1.9606  0.3747
 4439TIP3   OH234875   1.372   2.611   0.800  0.2382  0.4135 -0.6020
 4439TIP3    H134876   1.436   2.549   0.765 -0.4549 -1.0515  0.5877
 4439TIP3    H234877   1.288   2.568   0.785 -0.2766  1.1631  0.0931
 4440TIP3   OH234878   5.606   0.064   8.614  0.3272  0.5844 -0.0019
 4440TIP3    H134879   5.683   0.037   8.564  0.5162 -0.4447  0.8170
 4440TIP3    H234880   5.557  -0.016   8.629  0.4636  0.7873  1.7666
 4441TIP3   OH234881   2.346   2.714   1.850  0.0451 -0.0730 -0.5347
 4441TIP3    H134882   2.251   2.712   1.862  0.2236 -0.6002  1.0029
 4441TIP3    H234883   2.359   2.764   1.769 -1.4239  2.1637  0.5206
 4442TIP3   OH234884   6.241   0.722   1.518 -0.0969  0.6442  0.0463
 4442TIP3    H134885   6.251   0.634   1.555 -0.4027  1.1538  1.3567
 4442TIP3    H234886   6.331   0.754   1.509 -0.0515  1.7080  3.3216
 4443TIP3   OH234887   4.453   0.338   1.321  0.0872 -0.2088 -0.4621
 4443TIP3    H134888   4.515   0.293   1.378 -1.6654  0.0199  1.7816
 4443TIP3    H234889   4.500   0.414   1.288  1.3343 -0.6541  0.2297
 4444TIP3   OH234890   2.606   4.047   0.136 -0.6162 -0.2146  0.2557
 4444TIP3    H134891   2.571   4.033   0.224 -0.1569  1.1677  0.6831
 4444TIP3    H234892   2.682   3.989   0.131 -0.3059  0.1175  0.9793
 4445TIP3   OH234893   2.867   4.680   7.623 -0.7906 -0.0061  0.3480
 4445TIP3    H134894   2.779   4.712   7.642 -0.6632 -0.2321  1.3755
 4445TIP3    H234895   2.925   4.737   7.673 -0.4859 -1.0362  1.2112
 4446TIP3   OH234896   1.155   2.554   1.990 -0.3920 -0.2952  0.7647
 4446TIP3    H134897   1.233   2.570   1.938 -1.5068 -0.4465 -1.0769
 4446TIP3    H234898   1.131   2.639   2.026  0.6682 -0.2784  1.4672
 4447TIP3   OH234899   3.520   1.016   1.611 -0.2195  0.1917  0.3375
 4447TIP3    H134900   3.470   1.003   1.531 -0.5241 -0.0592  0.5660
 4447TIP3    H234901   3.469   1.079   1.662  0.3255  0.8880  0.0335
 4448TIP3   OH234902   4.276   5.675   0.316 -0.6958  0.3921 -0.1107
 4448TIP3    H134903   4.331   5.699   0.241  0.0854  0.1154  0.3670
 4448TIP3    H234904   4.242   5.589   0.294 -0.6550  0.4098 -0.2459
 4449TIP3   OH234905   0.080   3.383   0.993  0.0140  0.5295  0.0331
 4449TIP3    H134906   0.038   3.369   0.909 -0.1089  1.0952 -0.0038
 4449TIP3    H234907   0.093   3.295   1.028 -0.2878  0.3072 -0.3988
 4450TIP3   OH234908   6.288   1.427   8.607 -0.0727  0.2873  1.1197
 4450TIP3    H134909   6.380   1.428   8.580 -0.4618 -1.7137 -0.5555
 4450TIP3    H234910   6.249   1.500   8.560  0.1501 -0.5353 -0.4226
 4451TIP3   OH234911   5.454   5.415   0.164  0.9624  0.6927  0.0019
 4451TIP3    H134912   5.366   5.396   0.197  0.7630  1.5985  0.0314
 4451TIP3    H234913   5.507   5.342   0.194  0.4249  0.6380  0.8642
 4452TIP3   OH234914   0.367   3.179   8.295 -0.6306 -0.7426  1.0005
 4452TIP3    H134915   0.282   3.220   8.283 -0.6204 -0.4266  1.9175
 4452TIP3    H234916   0.388   3.140   8.210  0.0757  2.4713 -0.4355
 4453TIP3   OH234917   0.597   6.592   7.328 -0.0457  0.0407  0.0887
 4453TIP3    H134918   0.593   6.598   7.232 -0.9886 -0.5372  0.0820
 4453TIP3    H234919   0.624   6.680   7.356 -0.9962  0.5890 -0.6476
 4454TIP3   OH234920   6.073   4.128   1.373 -0.2730  0.3268  0.3390
 4454TIP3    H134921   5.980   4.149   1.386 -0.7199 -1.5743  0.4091
 4454TIP3    H234922   6.107   4.114   1.462 -0.4228 -0.9205  0.2162
 4455TIP3   OH234923   0.921   1.390   6.414  0.0179 -0.2505 -0.0311
 4455TIP3    H134924   0.976   1.335   6.469  0.6224 -0.9270 -1.2813
 4455TIP3    H234925   0.844   1.408   6.468  2.1788  2.2740  2.4831
 4456TIP3   OH234926   4.369   5.899   0.472 -0.5261 -0.4020  0.6269
 4456TIP3    H134927   4.362   5.814   0.428  0.0640 -0.0804 -0.1000
 4456TIP3    H234928   4.290   5.946   0.448 -0.4592 -0.4325  0.3508
 4457TIP3   OH234929   5.951   0.457   0.822 -0.5587 -0.3644  0.0814
 4457TIP3    H134930   6.030   0.468   0.875 -1.7643 -0.2036  1.9098
 4457TIP3    H234931   5.971   0.505   0.741  1.0307  0.0607  0.6807
 4458TIP3   OH234932   2.769   3.281   8.465 -0.6489  0.6380 -0.2759
 4458TIP3    H134933   2.794   3.285   8.557 -1.1284  3.5040 -0.1736
 4458TIP3    H234934   2.725   3.196   8.455  1.2426 -0.6403  1.5787
 4459TIP3   OH234935   2.829   6.191   2.059  0.6339  0.6403 -0.2874
 4459TIP3    H134936   2.913   6.178   2.014 -0.3552  2.3484 -2.8508
 4459TIP3    H234937   2.763   6.182   1.990 -1.2770 -0.0753  1.5460
 4460TIP3   OH234938   3.846   4.246   7.884  0.0102  0.5658 -0.6789
 4460TIP3    H134939   3.926   4.237   7.936  0.6600  1.5576 -1.4636
 4460TIP3    H234940   3.852   4.177   7.818  1.5154  2.1751 -2.3236
 4461TIP3   OH234941   6.514   0.364   8.220  0.0692  0.2753  0.4317
 4461TIP3    H134942   6.582   0.305   8.186  0.9800  1.9681 -0.8850
 4461TIP3    H234943   6.437   0.309   8.230  0.3627 -0.8287 -2.4266
 4462TIP3   OH234944   1.557   1.286   7.572 -0.4554 -0.2707 -0.1906
 4462TIP3    H134945   1.630   1.347   7.559 -1.3970  1.1014  0.7218
 4462TIP3    H234946   1.578   1.240   7.653 -0.0927 -0.6472 -0.4958
 4463TIP3   OH234947   6.717   5.786   7.212 -0.0147  0.3542  0.1185
 4463TIP3    H134948   6.730   5.878   7.191  0.0220  0.1731 -0.6762
 4463TIP3    H234949   6.625   5.770   7.195 -0.6837  0.8608  2.7458
 4464TIP3   OH234950   3.572   6.143   8.179 -0.3660  0.2076  0.5801
 4464TIP3    H134951   3.530   6.143   8.093  1.1413  0.9443 -0.2017
 4464TIP3    H234952   3.538   6.221   8.222 -1.0576 -0.1117  0.6329
 4465TIP3   OH234953   2.698   4.458   0.569 -0.3260  0.2920  0.5204
 4465TIP3    H134954   2.758   4.386   0.551  1.5724  1.7843  0.5330
 4465TIP3    H234955   2.620   4.438   0.517  1.1303 -0.5228 -1.4927
 4466TIP3   OH234956   2.760   2.824   8.867 -0.5045 -0.0379  0.4073
 4466TIP3    H134957   2.773   2.897   8.807  1.5270  1.1223  2.1085
 4466TIP3    H234958   2.848   2.790   8.883 -1.4167 -3.1282 -0.5498
 4467TIP3   OH234959   0.117   4.138   7.918  0.7183 -0.1665 -0.2413
 4467TIP3    H134960   0.183   4.075   7.946  0.8239 -0.1636 -0.4806
 4467TIP3    H234961   0.160   4.189   7.850  1.2443  1.3537  1.1601
 4468TIP3   OH234962   3.230   3.433   7.685  0.4038 -0.0106 -0.2900
 4468TIP3    H134963   3.275   3.509   7.650 -0.5878  0.0439 -1.5286
 4468TIP3    H234964   3.273   3.358   7.644 -1.0617  0.0694 -2.1290
 4469TIP3   OH234965   3.533   4.186   1.288  0.0463 -0.4787  0.4367
 4469TIP3    H134966   3.581   4.156   1.365 -0.9007  2.0149  2.1214
 4469TIP3    H234967   3.600   4.211   1.225  0.9766  0.8402  1.8863
 4470TIP3   OH234968   5.135   1.697   0.898 -0.2815  0.2401 -0.6687
 4470TIP3    H134969   5.098   1.670   0.814 -1.5892  0.4506 -0.1880
 4470TIP3    H234970   5.229   1.689   0.887 -0.4573 -0.1450 -2.0138
 4471TIP3   OH234971   2.539   0.020   8.106 -0.0495  0.3708  0.8861
 4471TIP3    H134972   2.572   0.045   8.020  0.3564 -0.2807  0.8470
 4471TIP3    H234973   2.607   0.047   8.167  0.4531 -0.7221  0.8309
 4472TIP3   OH234974   4.626   6.717   6.832 -0.5764  0.2208  0.8823
 4472TIP3    H134975   4.563   6.787   6.851 -0.0455  0.6828  0.9739
 4472TIP3    H234976   4.673   6.748   6.755  0.5707  0.5902  1.7012
 4473TIP3   OH234977   1.221   0.152   7.049 -0.2488 -0.3123 -0.4468
 4473TIP3    H134978   1.241   0.091   7.120 -0.9848  2.3253  2.2113
 4473TIP3    H234979   1.150   0.109   7.000 -1.3260 -1.2955  1.8084
 4474TIP3   OH234980   3.447   0.288   8.925  0.1117  0.2602  0.1910
 4474TIP3    H134981   3.352   0.293   8.932  0.0389  0.1410 -0.5852
 4474TIP3    H234982   3.478   0.288   9.015 -0.7546 -2.5231  0.5711
 4475TIP3   OH234983   2.904   5.276   0.210  0.3889 -0.4426 -0.2615
 4475TIP3    H134984   2.872   5.359   0.175 -1.2240 -0.6434  0.6021
 4475TIP3    H234985   2.852   5.209   0.164 -1.6283 -0.7166  2.1845
 4476TIP3   OH234986   3.836   3.480   8.261 -0.4079  0.0765  0.1033
 4476TIP3    H134987   3.900   3.495   8.330 -1.5088  1.2941  0.9021
 4476TIP3    H234988   3.879   3.510   8.181  0.7661 -1.0683  0.2582
 4477TIP3   OH234989   4.937   5.347   7.573 -0.4596  0.4759 -0.6486
 4477TIP3    H134990   4.952   5.254   7.558 -0.0156  1.0166 -5.1385
 4477TIP3    H234991   5.013   5.375   7.624  0.0507 -1.3937 -0.2920
 4478TIP3   OH234992   3.598   5.355   7.226 -0.2210 -0.0962  0.2865
 4478TIP3    H134993   3.589   5.306   7.144 -0.1704  0.7572 -0.2411
 4478TIP3    H234994   3.538   5.312   7.286 -0.6924 -0.3794 -0.3727
 4479TIP3   OH234995   4.316   5.070   0.283  0.1145  0.3308  0.3664
 4479TIP3    H134996   4.316   5.166   0.279  0.9791  0.3334  0.3363
 4479TIP3    H234997   4.257   5.050   0.356 -0.3212  0.8689  0.1730
 4480TIP3   OH234998   2.402   0.630   2.951 -0.1773  0.5580  0.2103
 4480TIP3    H134999   2.362   0.714   2.929 -2.1112 -0.5011 -0.5938
 4480TIP3    H235000   2.451   0.605   2.873 -0.5815  0.4318 -0.0122
 4481TIP3   OH235001   1.433   5.697   1.911  0.2896 -0.5772  0.1534
 4481TIP3    H135002   1.514   5.647   1.903  1.3159  1.2175 -1.3602
 4481TIP3    H235003   1.429   5.750   1.832 -0.7258  1.7733  1.6664
 4482TIP3   OH235004   5.559   6.140   0.449  0.0400  0.1043 -0.2322
 4482TIP3    H135005   5.638   6.125   0.398  0.1640 -0.3289  0.0868
 4482TIP3    H235006   5.589   6.190   0.525  0.3113 -1.5159  0.7676
 4483TIP3   OH235007   5.913   5.900   2.388 -0.7364 -0.6429 -0.5541
 4483TIP3    H135008   5.938   5.814   2.354  1.9711 -0.9866  1.8895
 4483TIP3    H235009   5.980   5.960   2.355  0.4193 -0.5211  1.7950
 4484TIP3   OH235010   3.487   0.521   2.320  0.0798 -0.2893 -0.1272
 4484TIP3    H135011   3.568   0.554   2.359  0.2433 -0.9254  0.0842
 4484TIP3    H235012   3.510   0.437   2.283 -1.0096 -1.7147  2.1771
 4485TIP3   OH235013   6.347   2.849   1.861  0.3464 -0.3634  0.4163
 4485TIP3    H135014   6.434   2.869   1.827  0.4000  0.3101  0.9233
 4485TIP3    H235015   6.345   2.890   1.947 -1.4630  2.2269 -0.7268
 4486TIP3   OH235016   5.735   6.453   1.815  0.2006 -0.1527  0.3280
 4486TIP3    H135017   5.697   6.460   1.902 -0.5624 -0.1533  0.0010
 4486TIP3    H235018   5.694   6.523   1.764 -0.0256 -0.7029 -0.2658
 4487TIP3   OH235019   2.696   1.949   7.116 -0.8088 -0.0897  0.5021
 4487TIP3    H135020   2.705   1.858   7.088  0.9550  0.1458  0.1962
 4487TIP3    H235021   2.779   1.969   7.160  0.2201  2.3119 -2.2370
 4488TIP3   OH235022   4.229   4.608   0.648 -0.3612  0.4765 -0.1612
 4488TIP3    H135023   4.178   4.533   0.616 -0.3362  0.9024 -1.2455
 4488TIP3    H235024   4.260   4.581   0.734 -1.0898 -0.4149 -0.1589
 4489TIP3   OH235025   5.412   5.757   1.599  0.3047 -0.2330 -0.3707
 4489TIP3    H135026   5.376   5.733   1.514  0.5619  1.4468 -1.0073
 4489TIP3    H235027   5.482   5.694   1.615  1.6265  0.6069 -2.4194
 4490TIP3   OH235028   1.039   0.256   0.856  0.1041  0.0523 -0.2297
 4490TIP3    H135029   1.051   0.321   0.925  0.2917  0.5055 -0.6841
 4490TIP3    H235030   0.983   0.190   0.895  1.2149 -0.3225  0.7608
 4491TIP3   OH235031   5.953   2.822   8.146  0.6314  0.4249 -0.3007
 4491TIP3    H135032   5.859   2.809   8.159  0.6705  0.8750  0.4904
 4491TIP3    H235033   5.983   2.743   8.102 -0.1450  0.3425 -0.6902
 4492TIP3   OH235034   2.051   6.444   0.705 -0.0709 -0.1777 -0.0861
 4492TIP3    H135035   2.084   6.454   0.616  1.7256 -0.6316  0.4884
 4492TIP3    H235036   2.086   6.360   0.735  0.2673  0.4666  1.4133
 4493TIP3   OH235037   2.010   5.215   7.977 -0.5047  0.0183  0.4217
 4493TIP3    H135038   2.049   5.284   7.923 -1.7688  0.4107 -0.0212
 4493TIP3    H235039   2.015   5.250   8.066 -0.0983  0.1729  0.3430
 4494TIP3   OH235040   4.194   5.627   2.014  0.1794  0.2532  0.5552
 4494TIP3    H135041   4.169   5.715   2.042  0.1557 -0.0793  1.6136
 4494TIP3    H235042   4.180   5.572   2.091  0.5076 -0.6220  0.0065
 4495TIP3   OH235043   5.816   5.408   8.746 -0.4606 -0.3282  0.1801
 4495TIP3    H135044   5.837   5.466   8.672  0.9960 -1.3378 -0.2449
 4495TIP3    H235045   5.797   5.323   8.705  0.9083 -1.0394  0.9683
 4496TIP3   OH235046   0.457   3.385   6.323  0.0782  0.2076  0.2232
 4496TIP3    H135047   0.461   3.473   6.362 -1.1388 -0.2452  1.4413
 4496TIP3    H235048   0.377   3.386   6.271  1.1890  0.4883 -1.5851
 4497TIP3   OH235049   0.419   1.410   6.814  0.0509  0.6492  0.4244
 4497TIP3    H135050   0.473   1.333   6.796  0.4526  1.4256 -2.0503
 4497TIP3    H235051   0.340   1.375   6.854 -0.0326 -1.1282 -1.2054
 4498TIP3   OH235052   2.035   3.907   0.861  0.2278 -0.0187 -0.4333
 4498TIP3    H135053   2.008   3.846   0.793 -0.7878 -0.1641  0.0881
 4498TIP3    H235054   1.986   3.987   0.843  0.9692  0.3951 -0.6573
 4499TIP3   OH235055   2.936   2.050   0.755  0.5234  0.0932  0.3513
 4499TIP3    H135056   2.851   2.006   0.760  0.7185 -0.5576 -1.4499
 4499TIP3    H235057   2.990   2.005   0.820 -0.9465  1.7150  2.8837
 4500TIP3   OH235058   3.658   3.385   1.393  0.1374  0.2901 -0.1423
 4500TIP3    H135059   3.618   3.407   1.477  0.3622 -1.7727  0.5556
 4500TIP3    H235060   3.744   3.427   1.396 -0.9960  2.8398 -0.7104
 4501TIP3   OH235061   4.504   2.600   7.302  0.7583 -0.3504 -0.4988
 4501TIP3    H135062   4.463   2.599   7.389 -1.0067 -1.2126 -1.2775
 4501TIP3    H235063   4.459   2.670   7.256  1.2893 -0.2677 -0.8927
 4502TIP3   OH235064   2.078   0.171   2.571 -0.2730  0.8525  0.0760
 4502TIP3    H135065   2.040   0.224   2.641  0.3621  1.5672 -0.1174
 4502TIP3    H235066   2.170   0.196   2.569 -0.4512  1.4625 -1.5856
 4503TIP3   OH235067   2.984   6.693   7.044 -0.1633 -0.1622  0.5530
 4503TIP3    H135068   2.958   6.720   7.131  0.3476  2.6476 -0.0784
 4503TIP3    H235069   2.927   6.742   6.985 -0.2518 -1.7172 -0.7267
 4504TIP3   OH235070   6.052   5.767   0.826 -0.0554 -0.3712  0.0813
 4504TIP3    H135071   5.966   5.735   0.853  0.7906 -1.5846  1.4773
 4504TIP3    H235072   6.034   5.821   0.749 -1.9984 -0.9896  0.0429
 4505TIP3   OH235073   5.467   3.329   1.148  0.6001 -0.1748  0.8852
 4505TIP3    H135074   5.550   3.351   1.106 -0.2680  1.6767  0.0453
 4505TIP3    H235075   5.436   3.252   1.100  1.0994  0.0487  0.1869
 4506TIP3   OH235076   3.035   5.878   6.554 -0.0428 -0.2788  0.5609
 4506TIP3    H135077   3.037   5.889   6.649  0.6090 -0.0340  0.5218
 4506TIP3    H235078   3.126   5.889   6.526 -0.6387  3.3349 -0.5089
 4507TIP3   OH235079   1.751   0.023   7.045  0.0194  0.5199 -0.6282
 4507TIP3    H135080   1.834   0.038   7.091  0.4215 -3.3185  0.1767
 4507TIP3    H235081   1.684   0.042   7.111  0.2608  1.9789 -0.7633
 4508TIP3   OH235082   4.925   1.795   2.128  0.5092  0.0956 -0.6370
 4508TIP3    H135083   4.910   1.742   2.207  1.0894  0.6191 -0.1584
 4508TIP3    H235084   5.018   1.784   2.109  0.2883 -0.3406 -1.4912
 4509TIP3   OH235085   6.466   1.802   0.730  0.1546  0.1657 -0.5206
 4509TIP3    H135086   6.470   1.711   0.759 -1.7268  0.2990  0.2680
 4509TIP3    H235087   6.437   1.796   0.638  0.6086 -0.0463 -0.6523
 4510TIP3   OH235088   1.078   4.023   0.335 -0.5367  0.2898 -0.1277
 4510TIP3    H135089   1.015   4.087   0.367  1.0564  0.7759  2.2515
 4510TIP3    H235090   1.142   4.015   0.405  1.0595 -1.5545 -1.6884
 4511TIP3   OH235091   2.657   4.508   1.876 -0.6208 -0.1348  0.4558
 4511TIP3    H135092   2.618   4.434   1.830 -0.1259  0.1572 -0.4434
 4511TIP3    H235093   2.713   4.550   1.812  0.9762 -0.3699  1.6310
 4512TIP3   OH235094   1.882   0.143   8.915 -0.5477 -0.3534  0.1022
 4512TIP3    H135095   1.923   0.213   8.966 -0.7003  0.0072 -0.2608
 4512TIP3    H235096   1.800   0.182   8.882 -0.5616 -0.6536 -0.2253
 4513TIP3   OH235097   3.720   4.433   2.243 -0.4427  0.2455 -0.0650
 4513TIP3    H135098   3.732   4.514   2.194 -1.8619  0.6253  0.1626
 4513TIP3    H235099   3.638   4.397   2.209 -0.1191 -0.8079  0.2383
 4514TIP3   OH235100   2.478   2.196   6.544  0.2065 -0.0150  0.0385
 4514TIP3    H135101   2.508   2.245   6.468  1.3622 -0.5146  0.1474
 4514TIP3    H235102   2.553   2.140   6.567  0.8976  1.9745  3.1125
 4515TIP3   OH235103   3.923   3.030   8.712 -0.5910  0.2703 -0.4947
 4515TIP3    H135104   3.990   3.076   8.762 -0.2790  0.4379 -1.0575
 4515TIP3    H235105   3.954   2.939   8.708 -0.3852  0.3492 -0.7627
 4516TIP3   OH235106   5.768   0.596   1.933 -0.1468 -0.1566  0.0450
 4516TIP3    H135107   5.801   0.508   1.949  0.3665 -0.1456 -0.9227
 4516TIP3    H235108   5.804   0.648   2.005 -0.2255 -0.6736  0.4651
 4517TIP3   OH235109   1.719   2.189   1.362 -0.2270  0.2309  0.3842
 4517TIP3    H135110   1.701   2.102   1.398 -0.6504  0.5883  1.0470
 4517TIP3    H235111   1.756   2.239   1.435  0.9701  0.3235 -0.2494
 4518TIP3   OH235112   2.765   4.190   7.632  0.4112 -0.3110 -0.2798
 4518TIP3    H135113   2.767   4.096   7.651 -1.8066 -0.5523 -0.9269
 4518TIP3    H235114   2.673   4.208   7.609  1.2735  1.4863 -2.7983
 4519TIP3   OH235115   5.289   6.137   0.213  0.3020  0.5853  0.0544
 4519TIP3    H135116   5.350   6.165   0.145 -1.9032  0.7103 -2.0109
 4519TIP3    H235117   5.251   6.055   0.180 -0.1568  0.1258  1.6071
 4520TIP3   OH235118   6.567   2.733   8.684 -0.4243  1.1603  0.2495
 4520TIP3    H135119   6.521   2.684   8.752  2.4484 -0.2318  1.3278
 4520TIP3    H235120   6.601   2.811   8.729  0.6314  0.7416  0.2087
 4521TIP3   OH235121   6.099   5.371   0.431 -0.4524 -0.1248 -0.5713
 4521TIP3    H135122   6.129   5.304   0.493  0.8920  0.5263 -0.5065
 4521TIP3    H235123   6.006   5.381   0.452 -0.1021 -0.1207  1.1848
 4522TIP3   OH235124   3.570   2.187   0.928  0.3552 -0.2030 -0.2879
 4522TIP3    H135125   3.514   2.223   0.997  1.3453  0.2486  0.3090
 4522TIP3    H235126   3.542   2.233   0.849 -1.8746 -1.8598 -0.5571
 4523TIP3   OH235127   3.515   0.155   0.837  0.0324  0.2142 -0.1274
 4523TIP3    H135128   3.444   0.169   0.899 -0.9111  1.5709 -1.4472
 4523TIP3    H235129   3.594   0.151   0.892 -0.8959  0.0779  1.2431
 4524TIP3   OH235130   1.347   4.523   7.874  0.4749  0.3758 -0.0763
 4524TIP3    H135131   1.422   4.550   7.928 -0.0359 -0.1436  0.9399
 4524TIP3    H235132   1.377   4.444   7.829  0.8634  0.7360 -0.4560
 4525TIP3   OH235133   1.350   4.380   1.407 -0.0900 -0.5659  0.3566
 4525TIP3    H135134   1.446   4.389   1.400  0.1426 -1.6034  1.7931
 4525TIP3    H235135   1.336   4.338   1.491 -1.8965  0.4344  0.6079
 4526TIP3   OH235136   0.144   1.176   1.494  0.5673  0.1386 -0.5954
 4526TIP3    H135137   0.115   1.260   1.530  0.6238 -0.1381  0.1213
 4526TIP3    H235138   0.160   1.193   1.402  1.4319  1.1370 -0.2747
 4527TIP3   OH235139   6.534   3.250   1.612 -0.2923  0.5368 -0.3781
 4527TIP3    H135140   6.587   3.320   1.650  1.7068 -0.4099 -1.2374
 4527TIP3    H235141   6.565   3.243   1.521 -0.0334 -1.7534 -0.1814
 4528TIP3   OH235142   0.807   0.140   2.568  0.2184 -0.0230  0.4063
 4528TIP3    H135143   0.825   0.053   2.603 -0.2109 -0.1482  0.3246
 4528TIP3    H235144   0.890   0.186   2.574  0.6123 -0.6381 -0.1379
 4529TIP3   OH235145   4.809   2.403   0.747  0.1831  0.1089 -0.4265
 4529TIP3    H135146   4.764   2.407   0.831 -0.2481 -2.5980 -0.4347
 4529TIP3    H235147   4.738   2.401   0.682  0.3832 -1.0685 -0.6288
 4530TIP3   OH235148   1.894   3.395   8.065 -0.0355 -0.5770 -0.2091
 4530TIP3    H135149   1.821   3.453   8.083  1.4250  1.5541 -0.8535
 4530TIP3    H235150   1.920   3.415   7.975  1.0549 -1.6217 -0.1543
 4531TIP3   OH235151   2.105   1.464   7.405  0.2206  0.4465 -0.0613
 4531TIP3    H135152   2.071   1.453   7.316  0.5583 -0.0994 -0.1256
 4531TIP3    H235153   2.101   1.559   7.420 -0.0836  0.5173 -0.5574
 4532TIP3   OH235154   3.331   0.945   8.895 -0.7328 -0.0815 -0.4217
 4532TIP3    H135155   3.337   1.001   8.972 -0.7731 -1.6526  0.7823
 4532TIP3    H235156   3.420   0.909   8.884 -1.1854 -1.4594  0.1805
 4533TIP3   OH235157   5.145   5.124   0.134 -0.2274 -0.3878  0.2160
 4533TIP3    H135158   5.051   5.131   0.148 -0.3726  1.9427 -1.3864
 4533TIP3    H235159   5.184   5.173   0.207 -0.1427 -2.3533  1.5492
 4534TIP3   OH235160   4.671   6.499   6.521 -0.0464 -0.3049 -0.0674
 4534TIP3    H135161   4.655   6.451   6.603  1.9072  0.2503  0.6935
 4534TIP3    H235162   4.751   6.461   6.486 -0.3649  0.0921 -1.2570
 4535TIP3   OH235163   4.252   4.862   2.023 -0.7748  0.6310  0.0677
 4535TIP3    H135164   4.320   4.798   2.002 -0.7630  0.8837 -0.6958
 4535TIP3    H235165   4.260   4.929   1.954 -2.7806 -0.0991 -0.9339
 4536TIP3   OH235166   5.261   5.061   1.492  0.0914 -0.7680  0.0341
 4536TIP3    H135167   5.221   5.056   1.405  1.0003  0.1686 -0.4527
 4536TIP3    H235168   5.346   5.017   1.481  0.3595 -0.3269  0.3563
 4537TIP3   OH235169   4.330   4.178   1.065 -1.0086  0.6922  0.0829
 4537TIP3    H135170   4.377   4.150   1.144  1.2197  1.9981 -0.6768
 4537TIP3    H235171   4.271   4.247   1.095 -1.1024  0.3161  0.7837
 4538TIP3   OH235172   1.122   0.382   2.829  0.2939 -0.0420  0.1472
 4538TIP3    H135173   1.052   0.394   2.892  0.6273  0.4443  0.4366
 4538TIP3    H235174   1.188   0.447   2.854  0.0378  0.8009 -1.2540
 4539TIP3   OH235175   5.811   0.656   0.014 -0.2055  0.0131  0.4524
 4539TIP3    H135176   5.793   0.704  -0.067  0.1048  0.8148  0.8565
 4539TIP3    H235177   5.872   0.587  -0.013  2.1949  1.9768  0.4606
 4540TIP3   OH235178   3.557   0.220   8.679  0.2015  0.5560  0.7509
 4540TIP3    H135179   3.497   0.258   8.743 -0.6923  0.6350 -0.1020
 4540TIP3    H235180   3.623   0.175   8.731 -1.1203 -0.3286  1.7154
 4541TIP3   OH235181   0.882   0.816   1.082 -0.8993 -0.7268 -0.2480
 4541TIP3    H135182   0.933   0.889   1.118 -1.8718  0.1647 -0.6307
 4541TIP3    H235183   0.904   0.741   1.137 -0.3294 -0.0096  0.5146
 4542TIP3   OH235184   6.278   6.460   1.349 -0.8089 -0.2695  0.1470
 4542TIP3    H135185   6.232   6.529   1.397 -0.3505 -0.4072  0.7914
 4542TIP3    H235186   6.239   6.379   1.380 -0.5381 -0.3576  0.2598
 4543TIP3   OH235187   0.299   5.161   0.017  0.1023  0.1163 -0.5544
 4543TIP3    H135188   0.356   5.085   0.006 -0.0935  0.0744 -1.3138
 4543TIP3    H235189   0.218   5.136  -0.027 -0.8985 -0.2257  1.3702
 4544TIP3   OH235190   4.864   5.082   8.665 -0.5854  0.2586  0.2447
 4544TIP3    H135191   4.785   5.028   8.668 -0.0852 -0.4376  1.4242
 4544TIP3    H235192   4.909   5.064   8.748  1.4848 -0.3777 -0.9458
 4545TIP3   OH235193   5.673   3.315   0.549  0.5277 -0.4319 -0.1282
 4545TIP3    H135194   5.744   3.310   0.612  0.4689 -0.5779 -0.0723
 4545TIP3    H235195   5.603   3.262   0.587 -0.1393  0.8524  0.4932
 4546TIP3   OH235196   3.095   4.816   7.109 -0.3650 -0.7833 -0.1056
 4546TIP3    H135197   3.118   4.885   7.045 -0.2054 -0.4802  0.2737
 4546TIP3    H235198   3.062   4.864   7.185 -1.5747 -1.1925 -0.3588
 4547TIP3   OH235199   2.435   2.154   0.235  0.0962  0.3119  0.0820
 4547TIP3    H135200   2.386   2.079   0.268 -0.1135  0.2350 -0.3954
 4547TIP3    H235201   2.485   2.119   0.161 -0.4216  0.7645 -0.4825
 4548TIP3   OH235202   2.706   4.903   1.732 -0.0872 -0.0707 -0.0146
 4548TIP3    H135203   2.643   4.965   1.770  0.5469 -0.5289  1.9124
 4548TIP3    H235204   2.746   4.951   1.660 -0.5138  1.3253  0.6305
 4549TIP3   OH235205   4.922   0.395   1.933 -0.4402 -0.6286 -0.2960
 4549TIP3    H135206   4.926   0.489   1.949 -2.3602 -0.6127  0.2991
 4549TIP3    H235207   4.970   0.357   2.007  0.3105 -0.1320 -0.5190
 4550TIP3   OH235208   0.975   0.691   1.524  0.7499  0.0816 -0.0751
 4550TIP3    H135209   1.030   0.677   1.601  0.9595 -0.8014 -0.3761
 4550TIP3    H235210   1.004   0.776   1.490  1.2696  0.0664  0.3087
 4551TIP3   OH235211   4.493   0.843   0.004 -0.4583 -0.2343  0.2269
 4551TIP3    H135212   4.556   0.911  -0.019 -0.0076 -0.4339  0.8426
 4551TIP3    H235213   4.504   0.831   0.099 -0.3530 -1.3254  0.0949
 4552TIP3   OH235214   3.904   4.359   6.401 -0.1140  0.2706  0.5329
 4552TIP3    H135215   3.956   4.405   6.335 -0.9181 -0.1657 -0.4377
 4552TIP3    H235216   3.834   4.421   6.423 -0.8783 -0.2430 -0.3676
 4553TIP3   OH235217   2.514   4.537   8.776  0.1679 -0.5512  0.4977
 4553TIP3    H135218   2.603   4.572   8.770 -0.4763  0.9677 -0.7692
 4553TIP3    H235219   2.457   4.612   8.762 -1.3134 -1.8960 -1.1884
 4554TIP3   OH235220   5.505   6.619   2.342  0.1525 -0.5938 -0.0112
 4554TIP3    H135221   5.472   6.530   2.329 -1.2522  0.0881 -1.2628
 4554TIP3    H235222   5.427   6.672   2.358  0.9767  0.4288  0.7694
 4555TIP3   OH235223   4.740   4.746   8.589 -0.5207  0.2384 -0.0538
 4555TIP3    H135224   4.670   4.684   8.608 -1.9143  1.2855 -1.4774
 4555TIP3    H235225   4.734   4.760   8.494  2.3271 -0.4269 -0.4135
 4556TIP3   OH235226   1.552   0.347   8.087 -0.0842 -0.7447  0.0915
 4556TIP3    H135227   1.588   0.426   8.127  1.3877 -0.1239 -2.2970
 4556TIP3    H235228   1.468   0.333   8.133 -0.0410  1.7407  1.0817
 4557TIP3   OH235229   1.240   1.916   1.046  0.6304  0.4541  0.4773
 4557TIP3    H135230   1.166   1.972   1.023  0.2321  0.6035  1.9883
 4557TIP3    H235231   1.291   1.968   1.108  1.5197  0.0018  0.1465
 4558TIP3   OH235232   6.669   1.577   7.929  0.4939  0.2310 -0.0596
 4558TIP3    H135233   6.597   1.522   7.962  1.1758 -1.1736 -0.8120
 4558TIP3    H235234   6.647   1.665   7.958 -0.2575 -0.5378  1.8970
 4559TIP3   OH235235   5.855   6.255   2.329 -0.0623  0.6588  0.4321
 4559TIP3    H135236   5.771   6.293   2.351 -1.0222 -0.5610 -0.9527
 4559TIP3    H235237   5.910   6.272   2.406 -1.3811  1.9508  1.1371
 4560TIP3   OH235238   2.608   3.042   1.523  0.3803  0.1449  0.0137
 4560TIP3    H135239   2.649   3.080   1.601  1.3704 -0.5155 -0.1695
 4560TIP3    H235240   2.516   3.031   1.547  0.4887  0.8030  0.7614
 4561TIP3   OH235241   2.229   4.907   0.404  0.4275  0.6316 -0.4542
 4561TIP3    H135242   2.191   4.826   0.438 -0.9881  1.3157 -0.3512
 4561TIP3    H235243   2.319   4.884   0.383  0.5767 -0.4959  1.2507
 4562TIP3   OH235244   0.213   1.697   7.887 -0.4773  0.3042  0.6330
 4562TIP3    H135245   0.192   1.636   7.958 -0.6015 -0.0717  0.2734
 4562TIP3    H235246   0.190   1.783   7.922  0.6801  0.2777  1.5437
 4563TIP3   OH235247   2.860   3.690   7.415  0.4797 -0.1064 -0.1106
 4563TIP3    H135248   2.839   3.783   7.408 -1.7996 -0.5552  0.0169
 4563TIP3    H235249   2.858   3.672   7.509 -0.6452 -0.5863 -0.2173
 4564TIP3   OH235250   2.247   2.956   7.024  0.5899  0.2104 -0.1410
 4564TIP3    H135251   2.260   2.998   7.109  0.9048  0.1519 -0.1569
 4564TIP3    H235252   2.208   2.871   7.045  0.1833  0.4052 -0.0930
 4565TIP3   OH235253   2.490   3.677   0.784  0.0947 -0.1525 -0.0588
 4565TIP3    H135254   2.417   3.628   0.820  0.3199 -0.5895 -0.1928
 4565TIP3    H235255   2.565   3.617   0.790  0.7630  0.7805  1.4098
 4566TIP3   OH235256   6.448   6.298   8.555  0.2026 -0.1574  0.5939
 4566TIP3    H135257   6.516   6.232   8.573  1.4284  0.3056 -1.9204
 4566TIP3    H235258   6.371   6.247   8.531  0.5911 -0.6949  0.4716
 4567TIP3   OH235259   0.847   6.222   0.039  0.0324  0.1001 -0.5544
 4567TIP3    H135260   0.806   6.165   0.104  0.5737 -0.2675 -0.5244
 4567TIP3    H235261   0.776   6.248  -0.020 -0.5797  0.8952  0.5009
 4568TIP3   OH235262   3.190   6.379   1.445  0.1749  0.0552  0.7429
 4568TIP3    H135263   3.094   6.378   1.444  0.0736 -0.6781  3.4373
 4568TIP3    H235264   3.214   6.296   1.488  2.0773 -0.2651 -0.8241
 4569TIP3   OH235265   0.065   2.630   1.916 -0.2217  0.0731  0.1992
 4569TIP3    H135266   0.086   2.713   1.872 -1.6037 -0.6155 -1.9183
 4569TIP3    H235267   0.063   2.653   2.009  3.5986  1.4250  0.0970
 4570TIP3   OH235268   1.368   3.583   1.667 -0.1094  0.1702 -0.0801
 4570TIP3    H135269   1.391   3.573   1.759 -2.6785 -0.1775  0.6282
 4570TIP3    H235270   1.357   3.677   1.655 -0.4104  0.1697  0.1706
 4571TIP3   OH235271   2.841   3.095   2.177 -0.2657 -0.6245 -0.7110
 4571TIP3    H135272   2.836   3.184   2.142  1.7076 -0.5356 -0.8757
 4571TIP3    H235273   2.935   3.077   2.183 -0.5929 -2.0009  1.1007
 4572TIP3   OH235274   5.555   3.846   0.151 -0.0745 -0.3862 -0.1139
 4572TIP3    H135275   5.563   3.937   0.177 -2.0467 -0.1488 -0.1613
 4572TIP3    H235276   5.616   3.837   0.077  0.3946  0.7855  0.1050
 4573TIP3   OH235277   0.390   0.251   1.504 -0.6909 -0.7024  0.0199
 4573TIP3    H135278   0.347   0.183   1.555 -1.7096  0.4070  0.7079
 4573TIP3    H235279   0.433   0.307   1.569  2.7518 -2.2879 -0.6814
 4574TIP3   OH235280   3.530   6.500   0.357 -0.3983 -0.8296 -0.2308
 4574TIP3    H135281   3.541   6.577   0.413 -0.4128 -2.7886  2.6853
 4574TIP3    H235282   3.441   6.469   0.375  0.1918 -2.4975  0.0240
 4575TIP3   OH235283   5.961   3.398   7.074 -0.2019  0.2522 -0.3006
 4575TIP3    H135284   5.891   3.420   7.136 -1.0851 -1.2668 -0.6912
 4575TIP3    H235285   6.019   3.340   7.123 -0.0113  0.3534 -0.4064
 4576TIP3   OH235286   2.421   0.658   2.072  0.6675 -0.2391 -0.5666
 4576TIP3    H135287   2.341   0.658   2.020  0.0453 -2.1296  0.3018
 4576TIP3    H235288   2.483   0.604   2.022 -0.1282 -2.5704  0.8246
 4577TIP3   OH235289   5.487   1.988   8.577 -0.0240  0.3794 -0.7549
 4577TIP3    H135290   5.493   2.033   8.661  0.4737  0.2241 -0.7042
 4577TIP3    H235291   5.435   2.047   8.522 -0.2575  0.5319 -0.3717
 4578TIP3   OH235292   2.712   6.557   1.721  0.2482  0.2419 -0.2040
 4578TIP3    H135293   2.797   6.596   1.742 -0.7227  1.1453  2.4826
 4578TIP3    H235294   2.663   6.628   1.680 -0.4927  1.0775  1.9498
 4579TIP3   OH235295   0.308   2.050   1.887 -0.2189  0.2437 -0.2736
 4579TIP3    H135296   0.380   2.012   1.937 -1.5733 -1.7905  0.2428
 4579TIP3    H235297   0.261   2.105   1.951  1.3273  2.3699 -0.8459
 4580TIP3   OH235298   4.352   6.353   1.828 -0.0497 -0.2939 -0.2566
 4580TIP3    H135299   4.424   6.290   1.816  0.5752  0.5036 -0.8090
 4580TIP3    H235300   4.377   6.401   1.907 -0.2659 -0.3837 -0.1330
 4581TIP3   OH235301   0.802   0.147   0.344 -0.0208  0.3768  0.2082
 4581TIP3    H135302   0.888   0.114   0.372 -0.3371 -0.3407  0.3529
 4581TIP3    H235303   0.752   0.154   0.425 -0.6870 -0.9683 -0.0572
 4582TIP3   OH235304   3.579   3.185   7.840  0.4221 -0.3148  0.0250
 4582TIP3    H135305   3.672   3.160   7.842  1.0407  1.7789  0.6924
 4582TIP3    H235306   3.554   3.192   7.932  0.3484  1.4684 -0.0889
 4583TIP3   OH235307   2.119   1.046   7.447  0.6793 -0.2029 -0.3124
 4583TIP3    H135308   2.063   1.000   7.384 -0.2984  1.0465 -0.3884
 4583TIP3    H235309   2.172   0.977   7.487 -1.3816 -1.5629  0.2501
 4584TIP3   OH235310   6.592   6.501   0.986 -0.2059 -0.3917 -0.6925
 4584TIP3    H135311   6.648   6.454   0.925  1.5685  1.8870 -0.9458
 4584TIP3    H235312   6.644   6.507   1.067 -0.1122  1.5268 -0.8394
 4585TIP3   OH235313   4.053   5.436   8.322 -0.7672 -0.3776  0.0189
 4585TIP3    H135314   4.010   5.350   8.330  0.0375 -0.8968 -1.0095
 4585TIP3    H235315   3.988   5.497   8.356 -1.2314 -1.4192  1.0972
 4586TIP3   OH235316   4.749   3.236   0.119 -0.5254 -0.4011  0.5965
 4586TIP3    H135317   4.655   3.249   0.130 -0.3937  0.5825  0.6075
 4586TIP3    H235318   4.789   3.314   0.156  0.2661 -0.4652 -0.0917
 4587TIP3   OH235319   4.731   4.075   7.633 -0.4996 -0.6565 -0.0023
 4587TIP3    H135320   4.795   4.066   7.563 -0.7029 -0.5248 -0.2058
 4587TIP3    H235321   4.778   4.049   7.712 -0.7680 -2.5826 -0.4143
 4588TIP3   OH235322   5.060   6.700   0.855  0.3024  0.9144  0.5635
 4588TIP3    H135323   5.002   6.775   0.842 -0.3442  0.1181 -1.5425
 4588TIP3    H235324   5.003   6.631   0.889  0.0496  0.2933 -1.0098
 4589TIP3   OH235325   5.973   4.910   0.705 -0.5765 -0.0726  0.1047
 4589TIP3    H135326   5.920   4.832   0.686 -0.9090  0.6090 -2.0947
 4589TIP3    H235327   6.054   4.895   0.655 -0.4970  0.8296 -0.0388
 4590TIP3   OH235328   0.361   1.136   6.717  0.2700  0.2933  0.3517
 4590TIP3    H135329   0.319   1.154   6.633 -0.9803  0.4615  0.9797
 4590TIP3    H235330   0.455   1.143   6.700  0.0970 -0.9718 -1.3022
 4591TIP3   OH235331   4.047   1.383   0.792  0.2596  0.3789  0.3146
 4591TIP3    H135332   4.054   1.478   0.796 -1.3604  0.4721  2.2245
 4591TIP3    H235333   4.028   1.356   0.881 -0.2968 -1.6625 -0.3627
 4592TIP3   OH235334   1.623   0.011   8.457  0.4753 -0.1621  0.5938
 4592TIP3    H135335   1.578   0.083   8.500  0.1254 -1.1114  1.8659
 4592TIP3    H235336   1.554  -0.053   8.438  0.5492  0.3697 -1.7514
 4593TIP3   OH235337   0.983   2.314   8.087  0.6443  0.1679 -0.0905
 4593TIP3    H135338   1.022   2.316   8.000  1.7925 -0.1105  0.3913
 4593TIP3    H235339   1.003   2.227   8.120 -0.5454 -0.0427  0.1361
 4594TIP3   OH235340   5.085   4.435   2.657 -0.0529  0.6240 -0.0460
 4594TIP3    H135341   5.058   4.518   2.617 -0.4294  1.4111  1.7525
 4594TIP3    H235342   5.179   4.431   2.643  0.1932  2.0400  1.0043
 4595TIP3   OH235343   3.916   2.324   7.547  0.3016 -0.3664  0.3861
 4595TIP3    H135344   3.863   2.267   7.602  1.3405 -0.4937  1.2810
 4595TIP3    H235345   3.867   2.407   7.544 -0.1204 -0.5960  0.8959
 4596TIP3   OH235346   2.709   6.427   2.113 -0.3116  0.3038  0.5416
 4596TIP3    H135347   2.736   6.340   2.083 -2.1763  0.2148 -1.0400
 4596TIP3    H235348   2.754   6.438   2.197  1.3146 -1.4577 -0.0263
 4597TIP3   OH235349   5.261   2.027   0.649 -0.3549 -0.7643  0.3733
 4597TIP3    H135350   5.350   2.001   0.626 -0.0084 -0.3655  1.2150
 4597TIP3    H235351   5.247   2.110   0.604  0.8273  0.7305  2.5875
 4598TIP3   OH235352   4.990   5.539   0.818 -0.5284  0.2935 -0.1049
 4598TIP3    H135353   4.936   5.596   0.874 -1.4248 -0.3306 -0.3005
 4598TIP3    H235354   4.990   5.455   0.864  2.0676  0.7863  0.9923
 4599TIP3   OH235355   1.772   6.020   1.179 -0.0069  0.5635  0.5375
 4599TIP3    H135356   1.766   5.979   1.265 -0.1007  1.2529  0.8645
 4599TIP3    H235357   1.711   6.094   1.183  0.0083  0.6206 -0.1118
 4600TIP3   OH235358   6.168   0.750   0.540  0.2974 -0.0155 -0.4895
 4600TIP3    H135359   6.112   0.745   0.462  0.9503  1.0310 -1.0484
 4600TIP3    H235360   6.206   0.662   0.547 -0.0700 -0.2374 -1.1173
 4601TIP3   OH235361   3.884   1.893   7.726 -0.5083  0.3786  0.1348
 4601TIP3    H135362   3.909   1.955   7.658  2.3539 -1.2870 -0.4808
 4601TIP3    H235363   3.913   1.933   7.808  0.4629  0.3135 -0.1643
 4602TIP3   OH235364   0.845   6.357   0.942  0.1123 -0.5788 -0.2235
 4602TIP3    H135365   0.760   6.391   0.914  0.4118 -0.5660 -1.1750
 4602TIP3    H235366   0.849   6.270   0.903  0.6891 -0.4262 -0.5149
 4603TIP3   OH235367   0.279   4.237   7.711  0.0908  0.0371  0.1851
 4603TIP3    H135368   0.364   4.206   7.679  0.2436 -0.1668  0.7782
 4603TIP3    H235369   0.258   4.311   7.653  0.1279 -0.6221 -0.6834
 4604TIP3   OH235370   2.418   2.608   7.840 -0.3163  0.3736  0.2152
 4604TIP3    H135371   2.489   2.596   7.903 -0.3862  2.3300  0.7294
 4604TIP3    H235372   2.428   2.698   7.810  0.3044 -0.7316 -3.3579
 4605TIP3   OH235373   4.088   0.243   7.721 -0.1268  0.9412  0.1175
 4605TIP3    H135374   4.148   0.271   7.652  1.2992 -1.2315  0.3913
 4605TIP3    H235375   4.048   0.325   7.753 -0.0448  2.0930 -2.4994
 4606TIP3   OH235376   0.909   5.308   7.868  0.0221 -0.0223  0.0875
 4606TIP3    H135377   0.905   5.402   7.851 -0.3320 -0.0892 -0.2042
 4606TIP3    H235378   0.830   5.272   7.827  0.8197 -0.6247 -0.9764
 4607TIP3   OH235379   2.694   4.587   1.306 -0.5066 -0.3545  0.0103
 4607TIP3    H135380   2.614   4.594   1.357 -0.5629 -2.3021  0.2555
 4607TIP3    H235381   2.669   4.534   1.230  0.5810 -1.1974  0.2200
 4608TIP3   OH235382   6.519   6.176   7.079 -0.5523 -0.5299  0.7808
 4608TIP3    H135383   6.609   6.143   7.077 -0.8591 -1.4190  1.2526
 4608TIP3    H235384   6.477   6.133   7.005 -0.5695 -0.0273  0.4927
 4609TIP3   OH235385   5.159   1.672   1.195 -0.1832 -0.1114 -0.0764
 4609TIP3    H135386   5.236   1.616   1.192  0.1345  0.2783  0.5054
 4609TIP3    H235387   5.124   1.671   1.106  2.2713  2.1408 -1.2077
 4610TIP3   OH235388   5.274   2.539   2.183 -0.6512  0.3911 -0.0143
 4610TIP3    H135389   5.318   2.476   2.241  1.8681  1.0017 -1.1040
 4610TIP3    H235390   5.187   2.503   2.169 -0.2229 -1.4230  1.5524
 4611TIP3   OH235391   0.962   2.085   1.222 -0.2584 -0.5481  0.7335
 4611TIP3    H135392   1.042   2.052   1.262  0.3393 -1.5874 -1.1874
 4611TIP3    H235393   0.991   2.127   1.141 -1.5636  0.0230  0.5225
 4612TIP3   OH235394   5.733   4.818   1.245 -0.1517  0.5844 -0.5162
 4612TIP3    H135395   5.822   4.847   1.263 -0.5789  2.6865 -1.5443
 4612TIP3    H235396   5.678   4.894   1.265 -1.8794 -0.9825  1.1656
 4613TIP3   OH235397   4.866   5.183   0.237  0.2416 -0.0492 -0.8439
 4613TIP3    H135398   4.787   5.152   0.280  0.2374 -0.9267 -1.4565
 4613TIP3    H235399   4.937   5.160   0.298  0.0147  1.1304 -0.0923
 4614TIP3   OH235400   1.647   4.449   7.609 -0.0245 -0.4535  0.5343
 4614TIP3    H135401   1.710   4.419   7.544 -0.4314  2.8854 -1.6772
 4614TIP3    H235402   1.699   4.490   7.677  0.3027  0.3286 -0.1726
 4615TIP3   OH235403   0.174   1.222   0.751  0.0202  0.2154  0.0496
 4615TIP3    H135404   0.229   1.218   0.672 -1.3251  0.4814 -0.9375
 4615TIP3    H235405   0.179   1.314   0.778  0.0680  0.2344 -0.0226
 4616TIP3   OH235406   3.828   2.178   0.736 -0.3212 -0.0468 -0.5971
 4616TIP3    H135407   3.886   2.117   0.690 -0.4998 -0.9398  0.3234
 4616TIP3    H235408   3.874   2.198   0.817 -0.5400  0.5810 -0.6259
 4617TIP3   OH235409   1.127   0.004   1.496 -0.0605  0.0344  0.5307
 4617TIP3    H135410   1.059  -0.049   1.539 -0.6800 -0.2749 -0.7822
 4617TIP3    H235411   1.078   0.070   1.446  0.6624  0.8149  0.8183
 4618TIP3   OH235412   3.669   3.120   8.868 -0.1240 -0.5917  0.3062
 4618TIP3    H135413   3.712   3.204   8.885  0.4216 -0.7064 -0.4890
 4618TIP3    H235414   3.732   3.071   8.815 -1.6898 -0.2888 -1.9889
 4619TIP3   OH235415   3.184   4.372   1.713  0.2606 -0.6782  0.1527
 4619TIP3    H135416   3.166   4.424   1.791  0.6856  0.3810 -0.4317
 4619TIP3    H235417   3.242   4.302   1.744  1.5336  0.5158  0.5585
 4620TIP3   OH235418   0.316   4.599   8.701  0.6005 -0.3502 -0.0882
 4620TIP3    H135419   0.310   4.662   8.773  0.5333 -2.6171  2.0362
 4620TIP3    H235420   0.402   4.558   8.711  0.6348 -0.6455 -1.3922
 4621TIP3   OH235421   5.397   5.278   7.987 -0.0639 -0.7658 -0.5193
 4621TIP3    H135422   5.350   5.202   7.953 -1.0146 -0.0318 -0.8799
 4621TIP3    H235423   5.379   5.348   7.925 -0.3131  0.1147  0.5064
 4622TIP3   OH235424   4.176   3.816   7.843  0.0061  0.1550 -0.1827
 4622TIP3    H135425   4.170   3.731   7.800 -1.9872  0.0343  0.2315
 4622TIP3    H235426   4.188   3.795   7.936  0.0966  0.3227 -0.1566
 4623TIP3   OH235427   3.597   6.345   0.050 -0.2672  0.4287 -0.2277
 4623TIP3    H135428   3.591   6.250   0.048 -0.8887  0.4763 -1.6114
 4623TIP3    H235429   3.646   6.364   0.131  2.1598 -1.1637 -1.1958
 4624TIP3   OH235430   6.476   1.115   1.264  0.1018 -0.1931  0.6379
 4624TIP3    H135431   6.464   1.120   1.169 -0.3010  0.3543  0.7145
 4624TIP3    H235432   6.568   1.092   1.275 -0.4342 -3.0601  0.0537
 4625TIP3   OH235433   1.279   2.218   8.521  0.6101 -0.1356  0.2397
 4625TIP3    H135434   1.256   2.164   8.446 -0.6803 -0.9427  1.1867
 4625TIP3    H235435   1.365   2.186   8.548  1.0290  0.0818 -0.7851
 4626TIP3   OH235436   6.113   4.620   8.549  0.5782 -0.1463 -0.2922
 4626TIP3    H135437   6.130   4.713   8.535  1.8539 -0.2605  0.3225
 4626TIP3    H235438   6.127   4.607   8.643  1.0395 -1.0617 -0.4762
 4627TIP3   OH235439   0.919   1.699   1.040  0.2456  0.6658 -0.0998
 4627TIP3    H135440   0.984   1.701   0.970  1.0950 -2.5342  0.4191
 4627TIP3    H235441   0.838   1.671   0.998  0.1214  1.1272 -0.1723
 4628TIP3   OH235442   6.746   0.192   7.829  0.1829  0.0272  0.1394
 4628TIP3    H135443   6.708   0.252   7.765  0.3506 -0.2138 -0.1908
 4628TIP3    H235444   6.838   0.185   7.803  0.1177 -0.5356  0.0409
 4629TIP3   OH235445   5.580   0.926   7.912  0.2254  0.7510  0.1533
 4629TIP3    H135446   5.509   0.959   7.967 -0.6435 -1.4825  0.4999
 4629TIP3    H235447   5.658   0.931   7.967 -0.3331  0.0439  1.0396
 4630TIP3   OH235448   6.511   0.758   0.670  0.1763  0.2924  0.0434
 4630TIP3    H135449   6.508   0.775   0.576  0.7908  1.6762  0.2558
 4630TIP3    H235450   6.526   0.663   0.676  2.5686  0.4912 -1.3149
 4631TIP3   OH235451   6.057   4.235   0.860  0.1451 -0.5377  0.2767
 4631TIP3    H135452   6.019   4.255   0.945  0.6718  0.7308  0.2371
 4631TIP3    H235453   6.116   4.161   0.877 -0.4405 -0.8979  0.8101
 4632TIP3   OH235454   0.274   5.607   2.117  0.6652 -0.5106 -0.4646
 4632TIP3    H135455   0.363   5.639   2.100 -0.4811  2.5117 -1.4523
 4632TIP3    H235456   0.242   5.580   2.031  0.4425 -1.0442 -0.2126
 4633TIP3   OH235457   5.704   6.613   7.660  0.2514 -0.0430  0.6067
 4633TIP3    H135458   5.617   6.590   7.691  0.0002  2.1011  1.6618
 4633TIP3    H235459   5.749   6.648   7.737  0.2004  3.8413 -0.9236
 4634TIP3   OH235460   0.919   5.894   8.580  0.6844 -0.0296  0.3469
 4634TIP3    H135461   0.913   5.800   8.595 -1.3565  0.0639  0.5061
 4634TIP3    H235462   0.944   5.931   8.664  0.5830 -0.3719  0.5268
 4635TIP3   OH235463   5.498   6.190   7.389  0.7422  0.2817 -0.0832
 4635TIP3    H135464   5.548   6.265   7.421  1.1183 -0.4247  1.0347
 4635TIP3    H235465   5.551   6.114   7.414  0.6678 -0.3523 -1.7208
 4636TIP3   OH235466   5.081   3.502   7.838 -0.1101  0.0935  0.0951
 4636TIP3    H135467   5.114   3.480   7.751  0.6249  1.3975  0.0119
 4636TIP3    H235468   4.987   3.482   7.834  0.2681 -1.7247 -0.3396
 4637TIP3   OH235469   3.742   4.790   8.699 -0.6222 -0.2086 -0.1228
 4637TIP3    H135470   3.806   4.791   8.628 -0.1761 -0.0816  0.2791
 4637TIP3    H235471   3.689   4.869   8.684 -1.8209 -1.2097 -1.4661
 4638TIP3   OH235472   5.756   6.128   0.234  0.2261  0.1277 -0.4029
 4638TIP3    H135473   5.794   6.185   0.167  1.1677  2.3535  1.8837
 4638TIP3    H235474   5.819   6.130   0.306 -0.9220 -1.8690  0.7429
 4639TIP3   OH235475   1.731   2.119   7.550  0.4731  0.0207  0.1199
 4639TIP3    H135476   1.775   2.166   7.479  1.0043 -0.7416 -0.0687
 4639TIP3    H235477   1.754   2.027   7.536 -1.6890 -0.5117 -0.3599
 4640TIP3   OH235478   4.380   4.938   8.557 -0.4894  0.2194 -0.0222
 4640TIP3    H135479   4.461   4.931   8.508 -0.5916  0.6190 -0.2552
 4640TIP3    H235480   4.324   4.994   8.503 -0.8882  0.0191  0.1756
 4641TIP3   OH235481   5.929   1.974   2.008 -0.3669 -0.8723 -0.3532
 4641TIP3    H135482   5.884   1.914   2.067  0.2677 -0.7286  0.2956
 4641TIP3    H235483   5.903   2.061   2.039  0.6226 -0.7820  0.2535
 4642TIP3   OH235484   1.435   5.438   1.000  0.5918  0.9738  0.3304
 4642TIP3    H135485   1.504   5.429   0.935  0.6137  1.5943  0.2577
 4642TIP3    H235486   1.354   5.426   0.951  0.6212  1.0748  0.2564
 4643TIP3   OH235487   5.346   4.059   7.404 -0.0553  0.2462 -0.1068
 4643TIP3    H135488   5.352   4.071   7.499  1.2667 -0.7368 -0.0349
 4643TIP3    H235489   5.344   3.964   7.392  0.2984  0.3556 -1.0829
 4644TIP3   OH235490   2.175   4.784   8.802  0.4352  0.1371  0.1643
 4644TIP3    H135491   2.262   4.823   8.807 -0.0576  1.1690  0.9613
 4644TIP3    H235492   2.150   4.792   8.710  1.3069 -0.4977 -0.1497
 4645TIP3   OH235493   5.925   0.276   8.176 -0.4769 -0.1066 -0.4142
 4645TIP3    H135494   5.990   0.341   8.150 -2.0156  0.6498 -2.7132
 4645TIP3    H235495   5.868   0.322   8.238  1.2968 -0.9149  1.9924
 4646TIP3   OH235496   1.266   4.750   0.594  0.4756 -0.7814 -0.2515
 4646TIP3    H135497   1.246   4.658   0.615 -1.0031 -0.1987  1.1385
 4646TIP3    H235498   1.190   4.779   0.543  1.1556 -0.4401 -1.0839
 4647TIP3   OH235499   4.512   5.893   8.820  0.0664 -0.4866 -0.1896
 4647TIP3    H135500   4.597   5.929   8.846  0.2444 -2.5236  2.4870
 4647TIP3    H235501   4.523   5.873   8.727  1.8704  0.9546 -0.3579
 4648TIP3   OH235502   2.267   1.782   8.710 -0.3223  0.0843  0.2034
 4648TIP3    H135503   2.212   1.818   8.640  0.2596  0.7736  0.0920
 4648TIP3    H235504   2.339   1.844   8.718  0.7598 -1.0953 -0.0436
 4649TIP3   OH235505   0.315   6.302   0.481 -0.4349  0.6459 -0.2602
 4649TIP3    H135506   0.230   6.261   0.493 -0.5205  0.4092 -1.5795
 4649TIP3    H235507   0.350   6.263   0.401  0.9652  0.6611  0.3066
 4650TIP3   OH235508   6.505   6.440   2.183  0.0796  0.3628  0.2665
 4650TIP3    H135509   6.549   6.401   2.107 -1.7647  0.0988 -0.7497
 4650TIP3    H235510   6.550   6.404   2.259  0.2825 -1.5000 -0.6867
 4651TIP3   OH235511   3.882   4.994   6.898  0.2119  0.0107  0.0498
 4651TIP3    H135512   3.895   4.934   6.971  1.2529  0.6640  0.4350
 4651TIP3    H235513   3.970   5.028   6.880 -0.1540  0.4547 -0.9986
 4652TIP3   OH235514   2.946   2.996   0.128 -1.3099 -0.0254 -0.2911
 4652TIP3    H135515   2.998   2.978   0.050  0.1515  0.8854  0.4170
 4652TIP3    H235516   2.933   2.910   0.168  0.7453 -0.2010  0.1307
 4653TIP3   OH235517   4.204   3.435   8.344  0.1853 -0.3042 -0.1688
 4653TIP3    H135518   4.285   3.478   8.372  0.4382 -0.0801 -1.2063
 4653TIP3    H235519   4.134   3.489   8.381  0.5041  0.5863 -0.8457
 4654TIP3   OH235520   4.790   1.357   2.777 -0.2296 -0.4545  0.6772
 4654TIP3    H135521   4.829   1.271   2.793 -2.4284 -1.2002  2.8788
 4654TIP3    H235522   4.697   1.338   2.765 -0.5855  1.5356  0.0172
 4655TIP3   OH235523   5.423   6.157   2.122 -0.2284  0.8051  0.1073
 4655TIP3    H135524   5.413   6.218   2.195 -1.2457  0.8761 -0.0794
 4655TIP3    H235525   5.357   6.089   2.139  1.5814 -0.8651  0.9045
 4656TIP3   OH235526   3.934   2.845   8.288 -0.0071 -0.1563  0.0794
 4656TIP3    H135527   3.906   2.814   8.201  0.3713 -0.7774  0.1687
 4656TIP3    H235528   3.857   2.889   8.324 -0.6861 -1.2786  0.0711
 4657TIP3   OH235529   6.689   2.408   1.874 -0.2598 -0.5312 -0.3857
 4657TIP3    H135530   6.698   2.371   1.962  0.1284 -0.5402 -0.4267
 4657TIP3    H235531   6.728   2.495   1.881  1.2171 -1.1252 -0.9326
 4658TIP3   OH235532   1.777   1.066   8.554  0.0227 -0.1186 -0.0127
 4658TIP3    H135533   1.861   1.037   8.589  0.2662  1.5564  0.8955
 4658TIP3    H235534   1.751   1.138   8.611 -1.8194 -0.3008 -0.5546
 4659TIP3   OH235535   1.192   2.464   8.927 -0.3109  0.1957 -0.0569
 4659TIP3    H135536   1.275   2.505   8.900 -1.4936  2.0768 -1.0415
 4659TIP3    H235537   1.129   2.494   8.862 -1.6701 -1.7214  0.3112
 4660TIP3   OH235538   2.984   2.828   1.300  0.3644  0.3391 -0.9879
 4660TIP3    H135539   2.944   2.899   1.350  1.5971  1.4227 -1.4991
 4660TIP3    H235540   2.920   2.757   1.305 -0.4017  1.0853  0.4728
 4661TIP3   OH235541   4.053   0.424   6.885 -0.6729 -0.0030 -0.3002
 4661TIP3    H135542   4.042   0.359   6.816 -1.4095  0.3564 -0.5277
 4661TIP3    H235543   4.107   0.379   6.951  0.7126 -0.0784 -1.4391
 4662TIP3   OH235544   1.358   6.711   1.646 -0.0481  0.3579  0.1124
 4662TIP3    H135545   1.290   6.749   1.591  0.8248  0.8938 -0.6383
 4662TIP3    H235546   1.314   6.643   1.697 -1.5150  1.8785  0.9579
 4663TIP3   OH235547   3.598   2.810   7.552 -0.8358  0.8771  0.1087
 4663TIP3    H135548   3.593   2.814   7.647 -0.4696 -0.4787  0.2031
 4663TIP3    H235549   3.519   2.763   7.525 -0.5733  0.6038 -0.1964
 4664TIP3   OH235550   5.200   6.569   1.047 -0.2375 -0.3587  0.5179
 4664TIP3    H135551   5.170   6.615   0.968  1.1873  0.8442  0.6437
 4664TIP3    H235552   5.160   6.482   1.040  0.7995 -0.7221 -2.1637
 4665TIP3   OH235553   0.397   2.625   1.144 -0.4046  0.0574 -0.1864
 4665TIP3    H135554   0.330   2.575   1.191  0.3774 -0.9957 -0.1744
 4665TIP3    H235555   0.349   2.700   1.108 -1.9657 -1.4872 -1.5370
 4666TIP3   OH235556   6.210   1.559   2.044 -0.4809 -0.1169  0.6251
 4666TIP3    H135557   6.170   1.520   2.122 -0.7371 -0.1483  0.4787
 4666TIP3    H235558   6.170   1.646   2.038 -1.1829 -0.4747 -0.0166
 4667TIP3   OH235559   3.897   3.285   0.090 -0.1199 -0.0928 -0.1343
 4667TIP3    H135560   3.899   3.345   0.165  1.4520  1.1032 -1.0505
 4667TIP3    H235561   3.809   3.295   0.053 -0.2633  0.7855  0.4173
 4668TIP3   OH235562   3.379   6.616   1.872 -0.3306 -0.3471 -0.4445
 4668TIP3    H135563   3.422   6.597   1.956 -0.3978 -0.3831 -0.4183
 4668TIP3    H235564   3.297   6.659   1.897 -0.8159 -1.2473 -0.4643
 4669TIP3   OH235565   6.634   3.127   6.798  0.0664  0.5599  0.1507
 4669TIP3    H135566   6.619   3.221   6.801 -0.3768  0.4798  0.6845
 4669TIP3    H235567   6.685   3.113   6.719 -1.2409  1.0515 -0.8146
 4670TIP3   OH235568   3.094   2.667   7.344 -0.4284 -0.1837  0.1965
 4670TIP3    H135569   3.102   2.754   7.306 -0.5319  0.0242  0.6404
 4670TIP3    H235570   3.061   2.683   7.433 -0.7791 -0.6911  0.1640
 4671TIP3   OH235571   1.856   4.825   8.537 -0.2558 -0.2467  0.7759
 4671TIP3    H135572   1.776   4.824   8.484  0.5358  0.1047 -0.4773
 4671TIP3    H235573   1.911   4.758   8.498  0.4205  0.1377  1.0511
 4672TIP3   OH235574   0.213   1.467   0.534 -0.1016 -0.3604  0.2033
 4672TIP3    H135575   0.133   1.418   0.514 -1.1105  1.0319  0.6513
 4672TIP3    H235576   0.227   1.523   0.458  0.1178 -0.1819  0.3723
 4673TIP3   OH235577   3.042   3.358   0.185  0.3890 -0.3316 -0.5047
 4673TIP3    H135578   2.959   3.406   0.195  0.2826 -0.6583  0.2162
 4673TIP3    H235579   3.107   3.414   0.229  0.5504 -0.0874 -1.0485
 4674TIP3   OH235580   0.850   4.155   7.838  0.2204 -1.2031  0.0694
 4674TIP3    H135581   0.938   4.143   7.873  0.3286 -0.3929  0.0893
 4674TIP3    H235582   0.828   4.246   7.858 -0.5901 -1.3681 -0.0071
 4675TIP3   OH235583   3.835   0.604   8.247 -0.0852 -0.1771 -0.2290
 4675TIP3    H135584   3.838   0.508   8.257 -0.4068 -0.0160  1.8918
 4675TIP3    H235585   3.803   0.617   8.158 -1.6822 -2.0848 -0.0216
 4676TIP3   OH235586   2.812   5.275   8.114 -0.1207 -0.1649  0.5224
 4676TIP3    H135587   2.858   5.244   8.037  0.4894  0.6181  0.5478
 4676TIP3    H235588   2.867   5.347   8.147 -0.5661 -0.2334  1.4567
 4677TIP3   OH235589   6.549   1.207   0.985  0.4115 -0.0943  0.1719
 4677TIP3    H135590   6.503   1.264   0.922 -0.5083 -2.4619 -1.4330
 4677TIP3    H235591   6.613   1.265   1.026 -2.2456  2.7861  0.6712
 4678TIP3   OH235592   4.919   1.084   7.525 -0.1083  0.0667  0.1507
 4678TIP3    H135593   4.855   1.113   7.460 -1.1935  2.1290  2.0414
 4678TIP3    H235594   5.002   1.120   7.494 -0.2442 -0.5586 -1.0254
 4679TIP3   OH235595   2.272   6.098   0.596  0.0012 -0.4112 -0.4541
 4679TIP3    H135596   2.183   6.083   0.628 -0.5548 -1.4995 -2.3399
 4679TIP3    H235597   2.265   6.089   0.501  2.0615 -0.1453 -0.6762
 4680TIP3   OH235598   6.742   0.531   2.666 -0.1513 -0.1250 -0.0072
 4680TIP3    H135599   6.819   0.588   2.667  0.1622 -0.5250 -0.7814
 4680TIP3    H235600   6.765   0.460   2.606 -1.2942 -0.0186 -0.5930
 4681TIP3   OH235601   3.418   1.915   7.905 -0.0329  1.1314  0.0271
 4681TIP3    H135602   3.499   1.865   7.911 -1.0078 -1.0409 -2.4571
 4681TIP3    H235603   3.349   1.848   7.902 -1.4677  2.5242 -3.2380
 4682TIP3   OH235604   4.370   3.230   6.709 -0.4366 -0.8554 -0.5086
 4682TIP3    H135605   4.326   3.268   6.633 -0.0132  1.3647  0.2783
 4682TIP3    H235606   4.387   3.139   6.684  0.1081 -0.0956 -3.2535
 4683TIP3   OH235607   6.184   4.615   0.858 -0.1057  0.2627  0.3794
 4683TIP3    H135608   6.168   4.645   0.947 -2.1424  0.8732 -0.1350
 4683TIP3    H235609   6.103   4.636   0.810  0.6073 -0.7854 -1.4157
 4684TIP3   OH235610   6.433   4.406   1.512  0.2649 -0.4463 -0.2631
 4684TIP3    H135611   6.395   4.493   1.500  0.1094 -0.2899  1.1582
 4684TIP3    H235612   6.393   4.352   1.444 -1.4279  0.0487  0.2970
 4685TIP3   OH235613   6.194   6.420   0.234 -0.0174  0.0210 -0.3413
 4685TIP3    H135614   6.179   6.329   0.260 -0.2335 -0.0495 -0.7043
 4685TIP3    H235615   6.286   6.435   0.253 -0.1772 -0.0091  0.5078
 4686TIP3   OH235616   0.297   1.264   6.465 -0.0962 -0.5549  0.3267
 4686TIP3    H135617   0.352   1.206   6.412  1.5375  0.9916  0.2395
 4686TIP3    H235618   0.340   1.349   6.460 -1.1062  0.1428  2.3824
 4687TIP3   OH235619   4.266   4.740   7.360  0.2761  0.3257  0.5037
 4687TIP3    H135620   4.249   4.651   7.329 -1.7275  0.5150  0.9206
 4687TIP3    H235621   4.211   4.795   7.306 -1.2920  0.9242  2.5624
 4688TIP3   OH235622   0.042   6.374   0.832 -0.1342  0.0979  0.2166
 4688TIP3    H135623   0.049   6.313   0.758 -0.7002  0.1516  0.1089
 4688TIP3    H235624   0.111   6.348   0.892 -0.8107 -1.1012  0.4972
 4689TIP3   OH235625   2.694   0.822   1.537 -0.5164  0.0927 -0.2166
 4689TIP3    H135626   2.729   0.816   1.448 -0.6598  1.5123 -0.3886
 4689TIP3    H235627   2.739   0.897   1.576  1.3689 -1.9211  1.7783
 4690TIP3   OH235628   2.060   6.451   7.337 -0.3249  0.3838  0.6269
 4690TIP3    H135629   2.017   6.405   7.266 -1.2141 -1.0782  2.0561
 4690TIP3    H235630   2.124   6.508   7.294 -1.4985  0.2688 -1.3624
 4691TIP3   OH235631   3.077   5.848   8.612  0.8742 -0.4019  0.1822
 4691TIP3    H135632   3.103   5.869   8.702  3.6855  0.7380 -0.7720
 4691TIP3    H235633   3.080   5.932   8.566 -3.4420 -0.3979 -0.4745
 4692TIP3   OH235634   4.432   6.303   0.466  0.0874 -0.4182 -0.0653
 4692TIP3    H135635   4.441   6.308   0.561  2.5241 -0.9096 -0.2182
 4692TIP3    H235636   4.390   6.218   0.451 -0.8066 -0.1095  0.5490
 4693TIP3   OH235637   5.933   6.723   1.765  0.3168 -0.1329 -0.0620
 4693TIP3    H135638   5.877   6.728   1.843 -2.1463 -0.6677 -1.6678
 4693TIP3    H235639   5.927   6.631   1.738 -0.5366  0.4306 -1.9560
 4694TIP3   OH235640   6.265   0.846   7.862 -0.3151 -0.3072 -0.5351
 4694TIP3    H135641   6.171   0.836   7.847 -0.4208 -0.9296  0.4468
 4694TIP3    H235642   6.296   0.897   7.788 -1.2397 -1.0520 -1.4617
 4695TIP3   OH235643   5.647   3.306   0.933  0.1727 -0.6378 -0.0436
 4695TIP3    H135644   5.606   3.378   0.885 -1.1345 -1.3041  0.0331
 4695TIP3    H235645   5.687   3.252   0.865  1.4230  0.2927 -0.0799
 4696TIP3   OH235646   0.541   5.105   6.629 -0.1994 -0.0037  0.4407
 4696TIP3    H135647   0.481   5.033   6.646 -0.1922 -0.0477  0.2807
 4696TIP3    H235648   0.493   5.164   6.571 -1.2128  1.4554  2.6167
 4697TIP3   OH235649   1.453   0.165   0.024  0.0762  0.4083  0.2979
 4697TIP3    H135650   1.526   0.208  -0.021 -1.1913  2.1110 -0.2583
 4697TIP3    H235651   1.379   0.176  -0.036 -0.9794  0.1100  1.5152
 4698TIP3   OH235652   4.643   1.809   1.245  0.3317 -0.4814 -0.3880
 4698TIP3    H135653   4.682   1.815   1.332 -1.6519  0.3560  0.5022
 4698TIP3    H235654   4.676   1.886   1.198 -1.3968  1.1299  0.8989
 4699TIP3   OH235655   5.168   0.431   2.077 -0.0456 -0.1029  0.1020
 4699TIP3    H135656   5.116   0.457   2.153 -1.4854  1.7573 -1.4209
 4699TIP3    H235657   5.259   0.433   2.109 -0.6735 -0.6624  2.0809
 4700TIP3   OH235658   6.470   6.647   0.181  0.0380 -0.4949 -0.0279
 4700TIP3    H135659   6.553   6.619   0.143 -0.2496 -1.7904  0.2552
 4700TIP3    H235660   6.496   6.696   0.260  0.5335 -1.5374  0.4810
 4701TIP3   OH235661   4.809   4.352   8.650 -0.1501  0.3089 -0.3010
 4701TIP3    H135662   4.753   4.275   8.642 -0.9210  1.0330 -2.8523
 4701TIP3    H235663   4.748   4.425   8.664  0.6230  0.4622  3.3455
 4702TIP3   OH235664   5.908   5.888   2.054 -0.1469  0.3357  0.3315
 4702TIP3    H135665   5.855   5.859   1.980 -0.0437  0.3979  0.2328
 4702TIP3    H235666   5.922   5.982   2.038 -1.9436  0.8635  1.5225
 4703TIP3   OH235667   2.173   0.675   1.955 -0.3359  0.7814  0.1019
 4703TIP3    H135668   2.128   0.717   2.028 -2.0528  3.7727 -2.4157
 4703TIP3    H235669   2.104   0.634   1.904  0.1799  2.1774 -1.8467
 4704TIP3   OH235670   4.569   4.337   1.687 -0.1006 -0.7128 -0.6459
 4704TIP3    H135671   4.614   4.333   1.603 -0.8444 -1.3709 -1.0179
 4704TIP3    H235672   4.625   4.287   1.747  2.6927  3.1645  0.3774
 4705TIP3   OH235673   6.681   0.972   7.195 -0.3474 -0.3002  0.2206
 4705TIP3    H135674   6.675   0.975   7.099 -2.4406  0.6050  0.3293
 4705TIP3    H235675   6.625   0.898   7.219 -1.0883  0.4204  0.7833
 4706TIP3   OH235676   3.803   5.668   1.620  0.7496 -0.3852 -0.5975
 4706TIP3    H135677   3.804   5.573   1.605  0.1772 -0.5245  0.2063
 4706TIP3    H235678   3.887   5.687   1.662  1.2952 -0.3666 -1.6466
 4707TIP3   OH235679   3.168   0.767   1.517 -0.2453  0.0286  0.0453
 4707TIP3    H135680   3.147   0.844   1.568  0.3624 -1.4885  2.7839
 4707TIP3    H235681   3.095   0.707   1.532  1.7085 -1.9643  2.5864
 4708TIP3   OH235682   0.032   3.804   1.495 -0.4269  0.1034  0.6471
 4708TIP3    H135683   0.001   3.722   1.456 -1.6732  0.3550  1.0763
 4708TIP3    H235684   0.119   3.817   1.457 -0.1642 -1.4689  0.6474
 4709TIP3   OH235685   6.252   4.282   7.033  0.1093 -0.0177 -0.5830
 4709TIP3    H135686   6.287   4.207   6.985  1.0511  1.4877 -2.3572
 4709TIP3    H235687   6.321   4.306   7.094  0.1891 -0.0262 -0.6697
 4710TIP3   OH235688   1.896   0.499   0.609  0.8414  0.2727 -0.8162
 4710TIP3    H135689   1.857   0.414   0.588 -0.2559  0.5672 -0.0860
 4710TIP3    H235690   1.971   0.506   0.551  1.3051 -1.4569 -0.4829
 4711TIP3   OH235691   1.952   3.774   8.273 -0.0837 -0.0349 -0.1918
 4711TIP3    H135692   1.935   3.685   8.303  0.7977 -0.2114 -0.1852
 4711TIP3    H235693   1.961   3.826   8.352 -3.2439  0.6577 -0.1312
 4712TIP3   OH235694   1.054   4.890   0.477  0.7833  0.0774  0.1195
 4712TIP3    H135695   0.985   4.850   0.530 -0.1513 -0.2622 -1.3083
 4712TIP3    H235696   1.032   4.867   0.387  2.1991  0.8436 -0.4545
 4713TIP3   OH235697   6.227   2.940   1.154  0.4585 -0.5626 -0.8103
 4713TIP3    H135698   6.167   2.929   1.080  1.3296  2.2839 -2.0937
 4713TIP3    H235699   6.205   3.026   1.190  2.4464 -0.3068 -0.0841
 4714TIP3   OH235700   5.868   6.208   1.495  0.8075 -0.1055 -0.4983
 4714TIP3    H135701   5.830   6.133   1.449  0.7165 -0.5786  0.3419
 4714TIP3    H235702   5.845   6.195   1.587  2.2577  0.0513 -0.0855
 4715TIP3   OH235703   2.453   3.803   1.414  0.5455 -0.5436  0.1510
 4715TIP3    H135704   2.513   3.729   1.418 -0.0893 -1.0260  1.6167
 4715TIP3    H235705   2.506   3.876   1.383  1.5863 -1.2407  0.2509
 4716TIP3   OH235706   4.023   5.164   6.724 -0.1803 -0.9862  0.4164
 4716TIP3    H135707   4.000   5.248   6.762 -0.9878 -1.2471  0.5289
 4716TIP3    H235708   3.939   5.124   6.700 -0.0205 -2.7796  2.5174
 4717TIP3   OH235709   2.968   2.747   1.733 -0.4413 -0.3240 -0.7440
 4717TIP3    H135710   2.982   2.714   1.822 -1.0656  1.3823  0.0387
 4717TIP3    H235711   3.053   2.738   1.691 -0.3500 -1.9585 -0.2774
 4718TIP3   OH235712   2.905   6.123   8.810 -0.3623  0.2995  0.1881
 4718TIP3    H135713   2.971   6.131   8.878 -0.8626 -0.2435  0.7504
 4718TIP3    H235714   2.946   6.070   8.742 -0.0331  0.4174  0.2940
 4719TIP3   OH235715   1.779   5.912   0.626  0.7017  0.1924  0.0358
 4719TIP3    H135716   1.792   5.944   0.536  0.5072 -0.1468 -0.1170
 4719TIP3    H235717   1.685   5.896   0.631  0.8310 -0.5787  0.0299
 4720TIP3   OH235718   3.423   0.983   0.575 -0.1273 -0.0660  0.4321
 4720TIP3    H135719   3.414   1.044   0.648 -0.3605 -1.3159  1.4878
 4720TIP3    H235720   3.472   1.031   0.508 -0.1269  1.1849  1.3160
 4721TIP3   OH235721   0.389   3.997   0.131 -0.2190  0.7919 -0.7180
 4721TIP3    H135722   0.308   4.018   0.085 -0.2753 -0.4600 -1.2373
 4721TIP3    H235723   0.449   3.969   0.062  1.2812  3.3505 -0.5730
 4722TIP3   OH235724   6.103   4.343   8.366  0.3023 -0.2084 -0.2836
 4722TIP3    H135725   6.095   4.417   8.427  1.4688 -0.9179  0.7788
 4722TIP3    H235726   6.015   4.306   8.362  0.6257 -1.6721  3.0256
 4723TIP3   OH235727   5.298   0.674   2.002  0.1149 -0.2312 -0.2982
 4723TIP3    H135728   5.303   0.658   2.096 -0.0335  0.3821 -0.1817
 4723TIP3    H235729   5.339   0.759   1.989  0.2733 -0.3780 -0.8120
 4724TIP3   OH235730   2.995   4.941   7.701 -1.2637 -0.0407 -0.3063
 4724TIP3    H135731   2.937   4.974   7.633 -2.3527  0.8291  0.9937
 4724TIP3    H235732   2.993   5.009   7.769 -0.6556 -1.1310  0.8351
 4725TIP3   OH235733   2.643   5.881   0.541  0.3203 -0.2053  0.2852
 4725TIP3    H135734   2.618   5.921   0.625 -2.4480 -0.6435 -0.2298
 4725TIP3    H235735   2.582   5.919   0.478  1.3642 -1.0219 -1.2691
 4726TIP3   OH235736   5.762   5.754   8.746  0.4445  0.2984  0.3191
 4726TIP3    H135737   5.679   5.800   8.732 -0.5211 -1.3744  0.2643
 4726TIP3    H235738   5.759   5.681   8.684  2.2378  0.5310 -0.0975
 4727TIP3   OH235739   4.607   4.213   7.916  0.0999  1.2990 -0.0541
 4727TIP3    H135740   4.559   4.218   7.834 -1.6771 -1.2822  0.7057
 4727TIP3    H235741   4.665   4.137   7.906 -0.1636  0.9324  1.0443
 4728TIP3   OH235742   1.405   4.795   7.109  0.2813 -0.7564 -0.6257
 4728TIP3    H135743   1.477   4.790   7.046  1.0008 -0.1763  0.1227
 4728TIP3    H235744   1.403   4.709   7.150  2.4284  0.0030  1.3113
 4729TIP3   OH235745   3.904   1.138   6.843 -0.9048  0.2177 -0.2087
 4729TIP3    H135746   3.835   1.142   6.777 -0.5084 -1.0207 -0.7279
 4729TIP3    H235747   3.899   1.050   6.879 -0.2210  0.4250  0.4454
 4730TIP3   OH235748   4.779   5.070   1.498 -0.1144  0.1597  0.3770
 4730TIP3    H135749   4.712   5.023   1.448  2.0071 -0.7852 -1.7831
 4730TIP3    H235750   4.825   5.002   1.546 -0.5294  0.7796  1.7094
 4731TIP3   OH235751   3.545   5.607   1.436 -0.0685  0.2014  0.0146
 4731TIP3    H135752   3.617   5.553   1.404  0.1007  0.5748 -0.2360
 4731TIP3    H235753   3.509   5.649   1.358  0.7421  1.6050  0.3706
 4732TIP3   OH235754   0.135   4.838   8.603 -0.5573 -0.2522  0.3464
 4732TIP3    H135755   0.214   4.793   8.633  0.4639  1.1538 -0.1692
 4732TIP3    H235756   0.144   4.844   8.508 -0.2844  1.6648  0.4509
 4733TIP3   OH235757   0.127   2.975   1.593 -0.0569  0.1941  0.2189
 4733TIP3    H135758   0.204   3.032   1.586 -1.9742  2.8063 -1.2858
 4733TIP3    H235759   0.108   2.971   1.686  0.7509  1.1687  0.4400
 4734TIP3   OH235760   5.708   0.724   8.467 -0.5835 -0.3833  0.2561
 4734TIP3    H135761   5.645   0.790   8.439 -2.3923 -1.5044  1.4584
 4734TIP3    H235762   5.661   0.641   8.460  0.6082 -1.2348  1.5994
 4735TIP3   OH235763   0.686   3.234   8.947 -0.0536 -0.4423  0.4134
 4735TIP3    H135764   0.713   3.306   9.003  0.1178  0.9528 -1.3723
 4735TIP3    H235765   0.718   3.258   8.860  0.4388 -2.9339 -0.1550
 4736TIP3   OH235766   1.174   1.353   8.660  0.0383 -0.3974 -0.1130
 4736TIP3    H135767   1.237   1.356   8.588  1.1998 -0.4493  0.8728
 4736TIP3    H235768   1.147   1.444   8.672  1.1769 -0.1266  0.5103
 4737TIP3   OH235769   5.678   5.064   2.214 -0.4259  0.0314  0.1410
 4737TIP3    H135770   5.763   5.027   2.237 -1.3577 -1.5492  1.2917
 4737TIP3    H235771   5.675   5.147   2.261  0.4451  0.0658  0.1556
 4738TIP3   OH235772   1.489   3.400   2.050 -0.7175  0.0412  0.0614
 4738TIP3    H135773   1.431   3.366   2.118 -0.4637  0.4748  0.4915
 4738TIP3    H235774   1.459   3.490   2.035  0.0369  0.3745  0.5053
 4739TIP3   OH235775   4.709   2.429   7.363 -0.4024  0.0425  0.2803
 4739TIP3    H135776   4.637   2.488   7.339 -1.1206 -1.7731 -2.5115
 4739TIP3    H235777   4.665   2.348   7.390  0.4956 -1.1574 -1.6360
 4740TIP3   OH235778   4.409   0.450   7.662 -0.4508  0.4838  0.5481
 4740TIP3    H135779   4.321   0.462   7.625 -0.7858 -1.0695  0.7587
 4740TIP3    H235780   4.421   0.355   7.663  1.1907  0.6708  0.6554
 4741TIP3   OH235781   5.253   1.046   8.224 -0.0000 -0.3423 -0.0233
 4741TIP3    H135782   5.198   0.994   8.282  1.0600 -0.9033  0.4940
 4741TIP3    H235783   5.342   1.018   8.242  0.3193 -1.6530 -2.9780
 4742TIP3   OH235784   1.899   2.231   7.339 -0.7177 -0.1218  0.3033
 4742TIP3    H135785   1.941   2.297   7.392 -0.1298  0.8260 -1.2769
 4742TIP3    H235786   1.862   2.279   7.265 -0.9830 -1.4483 -0.4673
 4743TIP3   OH235787   0.037   4.112   6.877 -0.2471  0.2032  0.0985
 4743TIP3    H135788   0.057   4.020   6.891 -0.5918  0.3834  2.0533
 4743TIP3    H235789  -0.054   4.121   6.904 -0.3185  1.0653 -0.3953
 4744TIP3   OH235790   3.159   3.914   0.014  0.3728 -0.1162  0.6485
 4744TIP3    H135791   3.252   3.911  -0.009  0.2369  1.2115 -0.1560
 4744TIP3    H235792   3.157   3.897   0.108  1.3533 -0.9427  0.5339
 4745TIP3   OH235793   5.575   2.949   1.058  0.4366  0.1963  0.1888
 4745TIP3    H135794   5.583   2.896   1.137  1.1662 -1.3115 -0.8375
 4745TIP3    H235795   5.486   2.985   1.062  0.2361 -0.3815  1.3695
 4746TIP3   OH235796   1.469   0.899   0.373 -0.0534  0.0836  0.1429
 4746TIP3    H135797   1.556   0.884   0.336 -0.5734 -1.8731 -0.4074
 4746TIP3    H235798   1.444   0.814   0.410 -1.9078  0.4842 -0.0943
 4747TIP3   OH235799   4.438   0.116   0.968  0.2236 -0.3124  0.2876
 4747TIP3    H135800   4.476   0.164   0.894 -0.9003 -1.8020 -1.3641
 4747TIP3    H235801   4.379   0.179   1.009 -0.5266  0.0647 -1.2554
 4748TIP3   OH235802   0.701   5.562   0.788  0.0415 -0.1040 -0.0117
 4748TIP3    H135803   0.766   5.619   0.829 -0.7265  0.5748  0.2899
 4748TIP3    H235804   0.675   5.610   0.708  1.3540 -1.2994 -1.2096
 4749TIP3   OH235805   3.145   2.477   8.580 -0.0339  0.4090  0.1335
 4749TIP3    H135806   3.098   2.406   8.622  0.5099  0.2952  0.5539
 4749TIP3    H235807   3.232   2.441   8.562 -0.1049  0.6051 -0.6648
 4750TIP3   OH235808   1.322   6.220   8.403  0.4239  0.1523  0.4153
 4750TIP3    H135809   1.331   6.314   8.419  1.1463  0.5605 -2.0049
 4750TIP3    H235810   1.371   6.204   8.322 -2.4333 -1.6893 -1.1236
 4751TIP3   OH235811   0.679   0.435   1.002  0.3135 -0.3257 -0.0769
 4751TIP3    H135812   0.643   0.514   0.963  0.7886  0.2878  0.6941
 4751TIP3    H235813   0.604   0.387   1.036  0.1142  0.3417  0.4332
 4752TIP3   OH235814   3.064   6.707   0.513 -0.6433 -0.2926 -0.9520
 4752TIP3    H135815   3.016   6.738   0.436 -1.9749 -0.7918 -0.3438
 4752TIP3    H235816   3.004   6.722   0.587  1.2168  1.7896  0.2933
 4753TIP3   OH235817   5.681   1.687   8.786 -0.9784  0.2048 -0.1174
 4753TIP3    H135818   5.715   1.734   8.709  0.7980  0.8247  0.9757
 4753TIP3    H235819   5.743   1.615   8.798 -1.3156  0.0387  0.6504
 4754TIP3   OH235820   2.723   5.079   7.838  0.1309  0.1765  0.3888
 4754TIP3    H135821   2.627   5.082   7.835  0.1276 -0.5609 -1.1988
 4754TIP3    H235822   2.751   5.157   7.791  0.3363  0.5587  1.1197
 4755TIP3   OH235823   6.062   2.144   1.804 -0.6671 -0.1941  0.4652
 4755TIP3    H135824   5.991   2.105   1.855 -1.6253 -2.1455 -2.1100
 4755TIP3    H235825   6.073   2.084   1.730  0.1500  2.7493 -1.9858
 4756TIP3   OH235826   0.499   2.775   0.500 -0.9408  0.0309 -0.2117
 4756TIP3    H135827   0.491   2.824   0.418  0.4058 -1.0467 -1.0385
 4756TIP3    H235828   0.520   2.686   0.472  3.1440  0.3281  1.2759
 4757TIP3   OH235829   1.126   3.385   6.718  0.2328  0.2185 -0.0986
 4757TIP3    H135830   1.129   3.345   6.631 -0.2214 -1.7223  0.7279
 4757TIP3    H235831   1.055   3.450   6.712  1.4190  1.4520 -1.6557
 4758TIP3   OH235832   0.845   1.871   7.412  0.3569 -0.2950 -0.6888
 4758TIP3    H135833   0.807   1.957   7.395 -0.5376 -0.3341  0.9242
 4758TIP3    H235834   0.770   1.811   7.407  0.0751 -0.3751  2.5131
 4759TIP3   OH235835   1.460   0.989   0.645  0.0802 -0.3916 -0.4381
 4759TIP3    H135836   1.437   0.958   0.557  1.0620 -1.7385 -0.2625
 4759TIP3    H235837   1.389   1.048   0.669 -0.3734 -0.2372 -2.0022
 4760TIP3   OH235838   6.122   5.312   1.303 -0.0006  0.8261  0.2796
 4760TIP3    H135839   6.120   5.403   1.274 -2.3147  1.3212  1.7247
 4760TIP3    H235840   6.148   5.263   1.225 -0.1027  2.5907 -0.9275
 4761TIP3   OH235841   0.721   0.064   7.420 -0.0930 -0.1779 -0.0934
 4761TIP3    H135842   0.736   0.122   7.346 -0.5841 -0.6327 -0.5616
 4761TIP3    H235843   0.667   0.115   7.481  0.9314  0.4577  0.3048
 4762TIP3   OH235844   3.732   3.853   6.371  0.1226  0.4570 -0.0079
 4762TIP3    H135845   3.744   3.948   6.362 -0.1019  0.3133 -2.5182
 4762TIP3    H235846   3.718   3.839   6.464  0.1245  2.8924  0.4141
 4763TIP3   OH235847   1.204   3.223   8.406  0.1296  0.2791  0.1506
 4763TIP3    H135848   1.287   3.199   8.448 -0.2411 -1.2497  0.0848
 4763TIP3    H235849   1.184   3.309   8.441  0.6642 -0.2466  1.8613
 4764TIP3   OH235850   4.375   4.375   8.767 -0.6608  0.1535  0.3858
 4764TIP3    H135851   4.343   4.291   8.798 -1.0923 -0.3772 -1.3867
 4764TIP3    H235852   4.310   4.403   8.702  0.3495  1.0251 -0.2883
 4765TIP3   OH235853   5.008   0.319   1.086 -0.0491 -0.1601 -0.4299
 4765TIP3    H135854   5.012   0.243   1.144 -2.1793  1.4472  2.0041
 4765TIP3    H235855   4.917   0.347   1.089 -0.0656  0.6041 -3.9149
 4766TIP3   OH235856   6.621   2.843   0.407 -0.0045 -0.1159 -0.1744
 4766TIP3    H135857   6.555   2.798   0.354  0.3973  0.8194 -1.5368
 4766TIP3    H235858   6.699   2.788   0.399 -0.4096 -0.8509  0.8489
 4767TIP3   OH235859   6.077   0.226   0.399 -0.7633  0.4064 -0.5301
 4767TIP3    H135860   6.042   0.156   0.454  2.0171  0.0783  0.9861
 4767TIP3    H235861   6.058   0.197   0.310 -0.5882 -1.8128  0.0884
 4768TIP3   OH235862   4.554   5.529   8.189  0.2571  0.5190 -0.4353
 4768TIP3    H135863   4.506   5.457   8.231  2.0397 -1.5575 -1.7039
 4768TIP3    H235864   4.505   5.607   8.212 -1.0279 -0.9129  2.2092
 4769TIP3   OH235865   2.881   1.679   6.665  0.2505 -0.2648 -0.2109
 4769TIP3    H135866   2.812   1.720   6.614 -0.1450 -0.1697  0.3928
 4769TIP3    H235867   2.915   1.610   6.609 -2.8448 -2.8292  0.7959
 4770TIP3   OH235868   3.410   4.229   7.649 -0.4216 -0.6318  0.4835
 4770TIP3    H135869   3.350   4.262   7.715 -0.2330  0.6587  0.0376
 4770TIP3    H235870   3.491   4.211   7.697  0.0403  1.2333  0.4968
 4771TIP3   OH235871   6.472   2.486   7.476  0.3763  0.1320 -0.4155
 4771TIP3    H135872   6.524   2.566   7.463 -0.8630  1.5171  2.3840
 4771TIP3    H235873   6.537   2.417   7.491  1.4420  0.7061 -2.0726
 4772TIP3   OH235874   2.787   4.426   7.790 -1.4521 -0.2480  0.0811
 4772TIP3    H135875   2.762   4.351   7.736 -2.1006  0.5563 -0.7682
 4772TIP3    H235876   2.814   4.388   7.874 -0.6371 -1.5153 -0.7203
 4773TIP3   OH235877   0.319   5.758   1.547  0.1270 -0.4188 -0.3566
 4773TIP3    H135878   0.251   5.806   1.596  1.1671 -0.4801  1.2076
 4773TIP3    H235879   0.310   5.791   1.457 -0.6792  1.0431  0.2085
 4774TIP3   OH235880   0.765   6.582   0.516  0.0146  0.2314 -0.3022
 4774TIP3    H135881   0.689   6.599   0.461 -0.2206 -1.1562 -0.4586
 4774TIP3    H235882   0.823   6.529   0.461  0.1593 -0.4477  0.4771
 4775TIP3   OH235883   1.438   6.532   6.788 -0.1924  0.4760  0.7381
 4775TIP3    H135884   1.508   6.595   6.806 -0.1674  0.7976 -0.3847
 4775TIP3    H235885   1.484   6.454   6.756 -0.3427  0.7251 -0.1038
 4776TIP3   OH235886   5.521   5.082   7.764  0.5005  0.0906 -0.2913
 4776TIP3    H135887   5.443   5.135   7.747  0.9461  0.7971 -0.1551
 4776TIP3    H235888   5.551   5.056   7.677 -2.1084 -3.5409 -0.3064
 4777TIP3   OH235889   4.914   4.794   0.817  0.3195  0.3823 -0.1234
 4777TIP3    H135890   4.934   4.721   0.758  2.2798  0.2435  0.6434
 4777TIP3    H235891   4.917   4.871   0.761  0.1163  0.0567 -0.5874
 4778TIP3   OH235892   3.211   1.658   0.687 -0.7128 -0.1791 -0.1148
 4778TIP3    H135893   3.137   1.695   0.735 -0.2798  1.0824 -0.3843
 4778TIP3    H235894   3.197   1.687   0.597  1.4142  2.3144  0.2370
 4779TIP3   OH235895   1.075   1.485   7.386 -0.0676  0.1791 -0.4701
 4779TIP3    H135896   1.003   1.481   7.449  1.1003  2.3553  1.1638
 4779TIP3    H235897   1.153   1.467   7.438  0.9181  1.8783 -1.2590
 4780TIP3   OH235898   2.712   1.048   1.817 -0.3366 -0.3814  0.0672
 4780TIP3    H135899   2.785   1.110   1.820  0.8468 -1.7367  0.6093
 4780TIP3    H235900   2.682   1.051   1.727  1.8475 -1.3563 -0.7739
 4781TIP3   OH235901   1.969   2.582   1.043  0.7915  0.0350 -0.6620
 4781TIP3    H135902   1.958   2.490   1.017 -0.6884 -0.3787  1.1986
 4781TIP3    H235903   1.991   2.578   1.137  1.5853  1.5716 -0.7498
 4782TIP3   OH235904   6.390   5.606   8.627 -0.0943 -0.3557  0.2930
 4782TIP3    H135905   6.320   5.602   8.561  0.2241 -3.9082  0.0048
 4782TIP3    H235906   6.462   5.652   8.583 -1.4159  1.3941 -0.1623
 4783TIP3   OH235907   0.439   6.077   0.318  0.2763 -0.0395 -0.4047
 4783TIP3    H135908   0.415   5.994   0.358  0.8960  0.5108  1.1744
 4783TIP3    H235909   0.534   6.074   0.311  0.1354 -0.7147 -3.2837
 4784TIP3   OH235910   6.561   0.416   0.912 -0.0781  0.3231 -0.2579
 4784TIP3    H135911   6.491   0.352   0.916 -0.2476  0.4178 -1.4738
 4784TIP3    H235912   6.607   0.397   0.831  1.4315  0.1490  0.5968
 4785TIP3   OH235913   1.029   3.393   8.593 -0.1785 -0.1470 -0.6630
 4785TIP3    H135914   1.078   3.394   8.675  0.8285 -2.1453 -1.1766
 4785TIP3    H235915   1.073   3.457   8.537 -1.1203  1.5255  0.4367
 4786TIP3   OH235916   5.680   0.393   0.698  0.0959  0.2704  0.3943
 4786TIP3    H135917   5.753   0.425   0.750 -0.5346  1.4289  0.5977
 4786TIP3    H235918   5.713   0.314   0.657  1.3513  0.5918  0.7413
 4787TIP3   OH235919   0.076   5.810   8.383 -0.4657 -0.3621 -0.5799
 4787TIP3    H135920   0.144   5.861   8.338  0.0293 -1.9592 -1.7519
 4787TIP3    H235921   0.121   5.772   8.458 -0.3096 -0.6148 -0.7970
 4788TIP3   OH235922   1.143   0.574   0.651 -0.3075 -0.7458  0.2348
 4788TIP3    H135923   1.139   0.654   0.599 -0.8032 -1.3140 -0.6380
 4788TIP3    H235924   1.127   0.602   0.741 -0.7377  0.0981 -0.0952
 4789TIP3   OH235925   0.461   0.144   6.981 -0.4983 -0.0637  0.6154
 4789TIP3    H135926   0.450   0.135   7.076  1.1178 -0.8228  0.7608
 4789TIP3    H235927   0.459   0.055   6.947  0.0083  0.1162  0.0825
 4790TIP3   OH235928   3.361   0.031   1.374  0.3383 -0.2402  0.3881
 4790TIP3    H135929   3.415   0.108   1.355 -0.7062  0.4083 -0.0204
 4790TIP3    H235930   3.391   0.001   1.460  1.5402 -0.0762  0.0530
 4791TIP3   OH235931   1.337   2.107   7.040  0.2689 -0.6667  0.2402
 4791TIP3    H135932   1.264   2.128   7.099 -0.4239  0.0673 -0.8311
 4791TIP3    H235933   1.324   2.166   6.966  0.9301 -1.8019 -0.7951
 4792TIP3   OH235934   1.986   5.598   8.373  0.3009 -0.5332  0.4004
 4792TIP3    H135935   2.061   5.631   8.422  0.8601 -0.4813 -0.4774
 4792TIP3    H235936   2.018   5.587   8.283 -1.2150  1.3675 -0.4680
 4793TIP3   OH235937   6.580   2.701   8.409  0.4576  0.0461  0.1044
 4793TIP3    H135938   6.558   2.702   8.502  1.2996 -0.3305  0.3152
 4793TIP3    H235939   6.676   2.706   8.407  0.5241 -1.1040 -0.6978
 4794TIP3   OH235940   4.210   1.753   8.372  0.2428 -0.1642  0.0084
 4794TIP3    H135941   4.277   1.758   8.304  1.2022  0.9113  0.9971
 4794TIP3    H235942   4.180   1.843   8.383 -0.3820 -0.4285  0.5437
 4795TIP3   OH235943   5.581   5.925   8.139  0.0863  0.2179  0.0290
 4795TIP3    H135944   5.580   5.871   8.218  0.1227  3.1002  2.1470
 4795TIP3    H235945   5.490   5.951   8.126 -0.1168 -1.0562 -1.6313
 4796TIP3   OH235946   4.362   2.856   2.178  0.2062  0.2302  0.4292
 4796TIP3    H135947   4.337   2.804   2.102 -0.9180 -0.2832  1.1146
 4796TIP3    H235948   4.403   2.793   2.238  0.3913  0.4758  0.5609
 4797TIP3   OH235949   6.416   6.096   1.376  0.0132 -0.2358 -0.1483
 4797TIP3    H135950   6.476   6.021   1.374  0.4912  0.1481 -0.6587
 4797TIP3    H235951   6.392   6.105   1.468 -1.0758 -1.8060 -0.2381
 4798TIP3   OH235952   4.999   2.489   1.011  0.3535  0.3166  0.3006
 4798TIP3    H135953   4.946   2.552   0.961  2.7696  2.4261  0.2138
 4798TIP3    H235954   5.001   2.523   1.100 -1.2191 -1.6639  1.1799
 4799TIP3   OH235955   6.691   1.828   8.075 -0.3968  0.2725  0.4648
 4799TIP3    H135956   6.720   1.871   8.156 -0.8065  0.4535  0.5187
 4799TIP3    H235957   6.732   1.879   8.005 -0.2039  0.2385  0.5512
 4800TIP3   OH235958   2.100   0.303   2.059 -0.2659  0.1486  1.0077
 4800TIP3    H135959   2.094   0.208   2.060 -3.8070  0.2496  1.3118
 4800TIP3    H235960   2.130   0.325   1.971 -0.7055 -1.2100  0.4994
 4801TIP3   OH235961   1.184   0.417   1.285  0.2824 -0.0016  0.5031
 4801TIP3    H135962   1.224   0.503   1.274  0.7090 -0.1078  1.1500
 4801TIP3    H235963   1.114   0.414   1.220  0.2439  0.8438  0.5010
 4802TIP3   OH235964   6.629   0.559   2.133  0.3493  0.1823 -0.0300
 4802TIP3    H135965   6.576   0.479   2.128  0.2935  0.2260 -0.1252
 4802TIP3    H235966   6.565   0.630   2.133  0.4497  0.4260 -3.4490
 4803TIP3   OH235967   3.279   1.724   6.670  0.4347  0.2091  0.1189
 4803TIP3    H135968   3.339   1.726   6.744 -1.9345  0.3995  2.1922
 4803TIP3    H235969   3.269   1.631   6.649  0.2136  0.0580  0.8620
 4804TIP3   OH235970   6.374   1.343   0.017 -0.4659  0.1228 -0.3736
 4804TIP3    H135971   6.321   1.288   0.075 -2.5342  1.8848 -0.4526
 4804TIP3    H235972   6.419   1.403   0.076  1.1899 -1.0558 -0.3473
 4805TIP3   OH235973   3.817   5.221   7.948 -0.6817  0.2332  0.2021
 4805TIP3    H135974   3.855   5.259   8.027 -0.1390 -1.0291  0.5801
 4805TIP3    H235975   3.837   5.284   7.879  0.8657  0.2979  0.6671
 4806TIP3   OH235976   1.056   2.824   0.057 -0.1690 -0.0473  0.2996
 4806TIP3    H135977   1.029   2.748   0.107 -1.3502  0.1874  0.0625
 4806TIP3    H235978   1.070   2.893   0.122  1.1813 -0.5180  0.5391
 4807TIP3   OH235979   1.165   6.042   1.556  0.4008  0.3544 -0.4152
 4807TIP3    H135980   1.125   6.126   1.534 -0.9607 -0.4808 -1.3413
 4807TIP3    H235981   1.181   6.000   1.472  2.3502  0.2256 -0.0147
 4808TIP3   OH235982   4.561   0.866   7.843 -0.7167 -0.0820  0.7742
 4808TIP3    H135983   4.485   0.850   7.900  0.3410 -4.1950  1.3595
 4808TIP3    H235984   4.578   0.781   7.802  2.4723  1.1420 -0.7499
 4809TIP3   OH235985   4.530   3.925   2.084  0.1876 -0.4022 -0.3591
 4809TIP3    H135986   4.457   3.968   2.039 -0.8378 -0.9817  0.7079
 4809TIP3    H235987   4.605   3.982   2.066 -0.2536 -0.4182 -2.4492
 4810TIP3   OH235988   4.328   6.162   8.822  0.6122 -0.1064  0.0754
 4810TIP3    H135989   4.406   6.209   8.851  1.1101 -1.0604  0.3249
 4810TIP3    H235990   4.284   6.135   8.902  0.9094 -0.9979 -0.0545
 4811TIP3   OH235991   3.244   4.935   0.343 -0.4145 -0.7126  0.3914
 4811TIP3    H135992   3.274   4.855   0.299 -0.0255 -0.0017 -0.6784
 4811TIP3    H235993   3.227   4.997   0.272  1.4644  0.9126  1.2552
 4812TIP3   OH235994   3.909   5.309   0.415 -0.5412 -0.2205 -0.8452
 4812TIP3    H135995   3.916   5.345   0.326  2.1063  0.4022 -0.4793
 4812TIP3    H235996   3.847   5.367   0.459 -0.8282  0.3138 -1.9099
 4813TIP3   OH235997   3.499   1.894   8.346  0.5303  0.1167  0.3896
 4813TIP3    H135998   3.408   1.884   8.320  0.3612  0.7432  0.7347
 4813TIP3    H235999   3.512   1.988   8.354  1.5625  0.1129 -0.8870
 4814TIP3   OH236000   5.967   4.243   1.664  0.0389  0.4345  0.3616
 4814TIP3    H136001   5.873   4.229   1.662 -0.0246  0.8315  0.5743
 4814TIP3    H236002   5.978   4.334   1.690  0.4939  0.2713  0.7593
 4815TIP3   OH236003   4.528   2.655   1.464 -0.3836  0.1216 -0.0894
 4815TIP3    H136004   4.557   2.620   1.548 -0.5792 -1.5508 -0.6854
 4815TIP3    H236005   4.568   2.742   1.460 -1.1517  0.6640  2.1456
 4816TIP3   OH236006   3.316   6.292   0.602  0.4826 -0.2633 -0.3524
 4816TIP3    H136007   3.336   6.277   0.509  0.4417 -0.1193 -0.3856
 4816TIP3    H236008   3.222   6.282   0.609  0.5064 -0.4393 -0.2943
 4817TIP3   OH236009   3.042   2.206   1.804 -0.2939 -0.4081 -0.1882
 4817TIP3    H136010   3.070   2.117   1.782 -0.3186 -0.4670  0.0184
 4817TIP3    H236011   3.025   2.247   1.719 -0.7563 -0.7529 -0.2689
 4818TIP3   OH236012   5.117   4.858   8.759 -0.0250  0.3086 -0.6080
 4818TIP3    H136013   5.086   4.772   8.730  0.2149 -0.9328  2.3835
 4818TIP3    H236014   5.207   4.863   8.727  0.1774 -0.8945 -0.3082
 4819TIP3   OH236015   2.348   5.564   7.312  0.0847 -0.3357 -0.6750
 4819TIP3    H136016   2.301   5.566   7.229 -2.4165  1.9680  0.6295
 4819TIP3    H236017   2.323   5.480   7.352 -2.4494  0.4521 -0.3980
 4820TIP3   OH236018   4.129   3.288   2.131 -0.0501  0.4175 -0.1504
 4820TIP3    H136019   4.035   3.294   2.118 -0.4837  2.2744  2.9949
 4820TIP3    H236020   4.142   3.206   2.179  0.0670 -0.1471 -1.1120
 4821TIP3   OH236021   5.446   6.655   1.293 -0.5883  0.2446 -0.2687
 4821TIP3    H136022   5.446   6.561   1.308 -2.1123 -0.0168 -1.5655
 4821TIP3    H236023   5.453   6.693   1.381  2.7024 -0.9693  0.1341
 4822TIP3   OH236024   6.163   2.618   8.297  0.1425 -0.3226  0.3755
 4822TIP3    H136025   6.242   2.572   8.325  0.5322  0.0533 -0.0979
 4822TIP3    H236026   6.095   2.550   8.297  0.6293 -0.8261  0.0325
 4823TIP3   OH236027   3.307   2.980   0.075  0.9341  0.1924  0.0792
 4823TIP3    H136028   3.243   2.923   0.033  1.1175 -2.1992  2.7923
 4823TIP3    H236029   3.381   2.981   0.014  0.6454 -1.9138 -0.3739
 4824TIP3   OH236030   0.529   6.013   8.336  0.0784 -0.0029  0.7140
 4824TIP3    H136031   0.462   6.044   8.396  0.2320  1.4651  0.1654
 4824TIP3    H236032   0.590   6.086   8.327  0.7171 -0.6229 -0.2773
 4825TIP3   OH236033   0.793   1.593   7.200  0.1305 -0.1880  0.5080
 4825TIP3    H136034   0.766   1.543   7.277  0.1025  0.5558  0.9897
 4825TIP3    H236035   0.711   1.609   7.152  0.4379 -3.1281 -1.2513
 4826TIP3   OH236036   4.201   2.775   7.765 -0.4068 -0.3390  0.1028
 4826TIP3    H136037   4.224   2.863   7.797  2.7581 -0.7698 -0.6917
 4826TIP3    H236038   4.214   2.718   7.841  1.8979 -0.6318 -0.4283
 4827TIP3   OH236039   4.300   4.148   8.569  0.0439  0.5095  0.1816
 4827TIP3    H136040   4.290   4.242   8.550 -0.3188  0.7372  1.4356
 4827TIP3    H236041   4.270   4.105   8.489 -4.8024  1.3468  1.2070
 4828TIP3   OH236042   2.123   2.645   8.700 -0.7942  0.5467  0.4600
 4828TIP3    H136043   2.047   2.624   8.755 -0.4130 -1.4342  0.3005
 4828TIP3    H236044   2.152   2.561   8.666 -0.3897  1.5960 -2.0034
 4829TIP3   OH236045   3.768   6.432   0.240 -0.0062 -0.5523  0.1417
 4829TIP3    H136046   3.692   6.471   0.283  0.1757  1.1145 -0.9845
 4829TIP3    H236047   3.833   6.424   0.310 -0.3521  0.3775  0.5859
 4830TIP3   OH236048   5.067   2.683   1.218 -0.7036  0.0316 -0.3337
 4830TIP3    H136049   5.148   2.733   1.232  0.9929 -1.6163 -3.2174
 4830TIP3    H236050   5.018   2.734   1.154 -1.8010  0.7984  1.0705
 4831TIP3   OH236051   2.675   3.549   1.852  0.1237 -0.7761  0.1244
 4831TIP3    H136052   2.637   3.616   1.795 -0.6884 -0.5919  0.8478
 4831TIP3    H236053   2.663   3.583   1.941  1.1295 -1.1720  0.4237
 4832TIP3   OH236054   4.661   0.956   8.792 -0.0404  0.2626  0.4877
 4832TIP3    H136055   4.756   0.959   8.779 -0.2639 -0.4505 -1.8397
 4832TIP3    H236056   4.637   0.867   8.764 -1.1730 -0.3888  3.2146
 4833TIP3   OH236057   6.244   3.309   8.709 -0.2480 -0.3193  0.5944
 4833TIP3    H136058   6.213   3.224   8.739 -1.1871 -0.3973 -0.5237
 4833TIP3    H236059   6.167   3.366   8.714 -0.3545 -0.2429 -1.2255
 4834TIP3   OH236060   1.317   6.461   0.307  1.1955  0.4383 -0.1349
 4834TIP3    H136061   1.365   6.496   0.232  1.4198  1.5251  0.4934
 4834TIP3    H236062   1.258   6.532   0.332  0.7029 -0.1402  0.3539
 4835TIP3   OH236063   5.057   0.685   8.792 -0.4589  0.0579 -0.5037
 4835TIP3    H136064   4.965   0.689   8.819  0.0997  0.7755  1.3979
 4835TIP3    H236065   5.070   0.594   8.765 -1.5605 -0.2038 -0.2010
 4836TIP3   OH236066   4.717   5.571   0.635  1.0445  0.4028 -1.1093
 4836TIP3    H136067   4.704   5.661   0.666  1.6685 -0.2285  1.2455
 4836TIP3    H236068   4.753   5.525   0.711  0.4340 -1.9288 -2.1417
 4837TIP3   OH236069   3.361   4.009   1.483 -0.3210 -0.9302 -0.5995
 4837TIP3    H136070   3.447   3.983   1.516 -0.0468  0.4442 -0.1639
 4837TIP3    H236071   3.318   4.050   1.559 -1.3508 -1.5364 -0.8282
 4838TIP3   OH236072   1.885   6.317   1.286 -0.3214  0.4265 -0.2836
 4838TIP3    H136073   1.854   6.275   1.367 -3.2112 -0.9028 -1.9252
 4838TIP3    H236074   1.880   6.411   1.304 -1.4592  0.1617  0.9218
 4839TIP3   OH236075   0.627   4.467   7.648 -0.2984  0.1767  0.5755
 4839TIP3    H136076   0.647   4.537   7.586  1.1670 -1.1999 -0.6143
 4839TIP3    H236077   0.551   4.423   7.610 -0.0045 -0.0690  0.2671
 4840TIP3   OH236078   5.842   3.768   1.900 -0.1323  0.3368 -0.0576
 4840TIP3    H136079   5.753   3.797   1.924  0.4877  0.6772  2.0688
 4840TIP3    H236080   5.898   3.839   1.929  0.8156  0.5675 -2.2783
 4841TIP3   OH236081   2.444   0.598   1.771  0.4402 -0.1866 -0.1081
 4841TIP3    H136082   2.425   0.603   1.677  0.1318 -0.0408 -0.0405
 4841TIP3    H236083   2.428   0.687   1.803  0.5683 -0.2306  0.0773
 4842TIP3   OH236084   5.459   3.293   6.649 -0.0914 -0.3036 -0.1241
 4842TIP3    H136085   5.516   3.342   6.589  0.6999 -2.2282 -1.0132
 4842TIP3    H236086   5.377   3.283   6.601 -0.3945  0.4676  0.2202
 4843TIP3   OH236087   2.305   3.473   2.379 -0.2599  0.2499  0.3484
 4843TIP3    H136088   2.260   3.472   2.464 -0.4696 -0.8099  0.2395
 4843TIP3    H236089   2.236   3.486   2.315 -0.1959  0.3173  0.2931
 4844TIP3   OH236090   5.551   4.116   0.224 -0.6851 -0.7233  0.2186
 4844TIP3    H136091   5.507   4.200   0.239  0.8857  0.1237  0.2678
 4844TIP3    H236092   5.641   4.130   0.254 -0.8037 -2.9808  1.8839
 4845TIP3   OH236093   5.453   2.512   0.143 -0.5762  0.4830 -0.1051
 4845TIP3    H136094   5.414   2.554   0.220  1.2380  0.5555  0.8107
 4845TIP3    H236095   5.508   2.443   0.178 -0.4268 -0.0796 -1.4002
 4846TIP3   OH236096   2.889   0.420   7.682  0.5670  0.0823  0.2712
 4846TIP3    H136097   2.980   0.408   7.655  0.2043 -1.8496 -0.2512
 4846TIP3    H236098   2.844   0.342   7.649 -1.2342  0.8826  0.7305
 4847TIP3   OH236099   6.292   6.400   7.860 -0.5309  0.1900  0.1842
 4847TIP3    H136100   6.387   6.394   7.853 -0.6147 -0.2358 -0.8428
 4847TIP3    H236101   6.276   6.433   7.948  0.5781  0.6239  0.2385
 4848TIP3   OH236102   1.705   2.717   1.088 -0.9288  0.1587  0.2166
 4848TIP3    H136103   1.770   2.716   1.018 -1.5936  0.6758 -0.4318
 4848TIP3    H236104   1.716   2.634   1.133  0.9931  0.7384  0.8903
 4849TIP3   OH236105   2.448   3.649   8.097  0.9045  0.5377  0.3032
 4849TIP3    H136106   2.493   3.568   8.120  0.7974  0.1417 -0.8063
 4849TIP3    H236107   2.355   3.626   8.098  0.9447  0.0379 -2.0422
 4850TIP3   OH236108   4.238   0.183   8.348 -0.4062  0.3821  0.5641
 4850TIP3    H136109   4.206   0.187   8.258 -0.8969 -1.4925  0.6223
 4850TIP3    H236110   4.161   0.198   8.402 -0.8092 -1.7387  0.6707
 4851TIP3   OH236111   6.147   6.046   0.155  0.2736  0.0367 -0.1624
 4851TIP3    H136112   6.149   6.112   0.086 -1.7837  1.4906  1.0565
 4851TIP3    H236113   6.177   5.966   0.112  1.6920  1.4677 -2.0049
 4852TIP3   OH236114   5.630   1.919   2.342  0.0263 -0.0711 -0.3174
 4852TIP3    H136115   5.643   1.854   2.411  2.8504  1.3334  0.6469
 4852TIP3    H236116   5.687   1.891   2.271 -0.5525  0.1098 -0.8699
 4853TIP3   OH236117   5.353   3.573   1.616  0.9260 -0.6184 -0.3381
 4853TIP3    H136118   5.299   3.497   1.636  1.3453 -0.4359  1.7306
 4853TIP3    H236119   5.373   3.611   1.701 -1.8423  3.6490 -1.2772
 4854TIP3   OH236120   2.981   0.539   7.906 -0.5156 -0.3094  0.0251
 4854TIP3    H136121   2.952   0.484   7.833 -0.7733  1.6377 -1.4290
 4854TIP3    H236122   2.978   0.481   7.983  0.5513 -2.6824 -1.5893
 4855TIP3   OH236123   6.421   6.560   7.202 -0.0798  0.0048 -1.0080
 4855TIP3    H136124   6.368   6.640   7.207 -0.2853 -0.1914  1.3500
 4855TIP3    H236125   6.502   6.587   7.159  0.9735  2.2466  2.0597
 4856TIP3   OH236126   0.950   0.810   0.676 -0.0130  0.2788 -0.2030
 4856TIP3    H136127   0.894   0.733   0.684 -0.9436  0.7875 -1.4751
 4856TIP3    H236128   0.996   0.798   0.593 -0.5986  1.3329 -0.7080
 4857TIP3   OH236129   2.607   4.579   6.939  0.2935  0.1375  0.0628
 4857TIP3    H136130   2.692   4.535   6.942  1.2484  1.8745 -0.3662
 4857TIP3    H236131   2.609   4.631   6.859 -1.1006  0.3801  0.1547
 4858TIP3   OH236132   3.634   6.448   6.644  0.0238  0.0573 -0.8048
 4858TIP3    H136133   3.711   6.399   6.614 -0.5217 -0.0263 -2.1259
 4858TIP3    H236134   3.658   6.540   6.630  0.2912  0.0844 -0.1909
 4859TIP3   OH236135   1.672   4.841   8.314  0.1750  0.2777 -0.0265
 4859TIP3    H136136   1.605   4.909   8.321 -1.1357 -0.9675 -0.0848
 4859TIP3    H236137   1.710   4.852   8.227 -2.2975 -1.0378 -1.3701
 4860TIP3   OH236138   3.147   1.546   1.472 -0.1058  0.0471  0.1927
 4860TIP3    H136139   3.076   1.511   1.417 -0.3028  0.2519  0.3168
 4860TIP3    H236140   3.193   1.468   1.503  1.1271 -0.0487 -1.7137
 4861TIP3   OH236141   0.825   5.678   7.276 -0.0260  0.0861 -0.3709
 4861TIP3    H136142   0.917   5.697   7.296 -0.2879 -0.1686  1.1849
 4861TIP3    H236143   0.823   5.668   7.180  1.8040 -1.2027 -0.3268
 4862TIP3   OH236144   2.480   3.233   8.362  0.1715 -0.8641 -0.2628
 4862TIP3    H136145   2.546   3.187   8.310 -0.4882 -0.3421 -1.6141
 4862TIP3    H236146   2.434   3.289   8.299  0.5047  1.1766  1.2111
 4863TIP3   OH236147   1.354   4.143   8.147 -0.0893  0.0377 -0.1553
 4863TIP3    H136148   1.425   4.082   8.168 -1.7053 -1.6760  0.6272
 4863TIP3    H236149   1.398   4.219   8.110  2.0467 -1.5093 -0.9873
 4864TIP3   OH236150   4.118   4.468   8.905 -0.1268 -0.2330 -0.0698
 4864TIP3    H136151   4.133   4.496   8.996  2.0626  0.1889 -0.5161
 4864TIP3    H236152   4.093   4.549   8.859  0.2965 -0.1538 -0.1589
 4865TIP3   OH236153   4.817   1.717   7.088  0.0236 -0.3315  0.1995
 4865TIP3    H136154   4.840   1.805   7.060  1.0757 -0.5610  0.2841
 4865TIP3    H236155   4.722   1.719   7.101 -0.2604  0.2280 -1.7300
 4866TIP3   OH236156   3.147   6.642   8.825 -0.2265 -0.1282 -0.2085
 4866TIP3    H136157   3.240   6.652   8.803  0.0167 -1.2292  0.2709
 4866TIP3    H236158   3.144   6.653   8.920 -0.4426 -1.0735 -0.1003
 4867TIP3   OH236159   2.585   4.699   7.722 -0.0649 -0.3015  0.1341
 4867TIP3    H136160   2.544   4.675   7.805 -1.1278  0.5764 -0.1108
 4867TIP3    H236161   2.545   4.640   7.658  0.4700 -0.7185  0.1793
 4868TIP3   OH236162   1.762   4.101   8.132  0.4542 -0.3397  0.2957
 4868TIP3    H136163   1.721   4.020   8.161  2.1866 -1.6978 -0.7901
 4868TIP3    H236164   1.854   4.091   8.155  1.0061  0.5995 -1.3235
 4869TIP3   OH236165   1.345   1.201   1.401  0.5840  0.3456  0.2967
 4869TIP3    H136166   1.259   1.242   1.392  1.0632  1.3284  0.0912
 4869TIP3    H236167   1.334   1.114   1.364 -0.3030  0.4878  0.2020
 4870TIP3   OH236168   4.665   5.592   8.508 -0.0119  0.3415  0.5334
 4870TIP3    H136169   4.743   5.576   8.562 -0.1881  2.7643  1.6450
 4870TIP3    H236170   4.700   5.605   8.419  0.4440 -1.9828  0.3127
 4871TIP3   OH236171   1.097   5.349   2.394 -0.4985 -0.4126  0.0858
 4871TIP3    H136172   1.166   5.330   2.330 -0.4833  0.2435 -0.0964
 4871TIP3    H236173   1.065   5.436   2.369 -1.9864 -1.0687 -0.3674
 4872TIP3   OH236174   6.358   3.647   2.088  0.4052  0.0993  0.0262
 4872TIP3    H136175   6.331   3.562   2.121  1.7678 -0.3897 -0.0521
 4872TIP3    H236176   6.453   3.641   2.080  0.3956  1.1513 -1.3245
 4873TIP3   OH236177   2.599   5.202   7.382 -0.0676  0.1210  0.0530
 4873TIP3    H136178   2.593   5.268   7.451 -2.0772  0.6941 -0.5849
 4873TIP3    H236179   2.518   5.212   7.332 -0.3683 -2.7253 -0.2091
 4874TIP3   OH236180   0.863   0.534   1.312 -0.1735  0.6981 -0.3272
 4874TIP3    H136181   0.791   0.491   1.359  0.6087 -0.4660 -0.1481
 4874TIP3    H236182   0.904   0.591   1.376  0.3161 -0.1894  0.1701
 4875TIP3   OH236183   2.367   4.773   8.233 -0.7684  0.1997  0.1014
 4875TIP3    H136184   2.442   4.829   8.249 -2.5122  2.2944  1.6475
 4875TIP3    H236185   2.341   4.791   8.143 -0.0944  0.2903 -0.0773
 4876TIP3   OH236186   3.091   1.276   2.522  0.2548 -1.0041  0.8635
 4876TIP3    H136187   3.064   1.190   2.490  0.1481 -0.3389 -0.9777
 4876TIP3    H236188   3.013   1.331   2.513  1.4290  0.3886 -2.4416
 4877TIP3   OH236189   4.806   4.961   7.001 -0.4756  0.1140 -0.0833
 4877TIP3    H136190   4.835   5.011   7.078  0.2660 -0.1948 -0.1461
 4877TIP3    H236191   4.767   5.026   6.943  1.6317  0.8961 -0.7432
 4878TIP3   OH236192   4.255   3.356   2.640  0.1052  0.1141 -0.5145
 4878TIP3    H136193   4.212   3.301   2.574  0.3447 -2.8559  1.5938
 4878TIP3    H236194   4.189   3.422   2.663 -2.3037 -2.4334  0.4492
 4879TIP3   OH236195   0.287   5.910   1.312  0.1618  0.2768 -0.1708
 4879TIP3    H136196   0.352   5.972   1.280  1.2001 -0.4889  0.3964
 4879TIP3    H236197   0.203   5.953   1.298  0.7683  1.1483 -1.2241
 4880TIP3   OH236198   5.239   5.183   2.360  0.3167  0.0218  0.0681
 4880TIP3    H136199   5.314   5.242   2.350  1.6328 -1.5883  0.0725
 4880TIP3    H236200   5.277   5.099   2.384 -1.5617 -0.6598  0.8763
 4881TIP3   OH236201   4.641   5.088   0.345  0.0434 -0.4152  0.3975
 4881TIP3    H136202   4.614   5.007   0.390 -2.1634 -0.1805 -0.3702
 4881TIP3    H236203   4.618   5.158   0.407  0.4673 -0.2869  0.4108
 4882TIP3   OH236204   3.351   0.310   8.267 -0.0414  0.1833 -1.2763
 4882TIP3    H136205   3.291   0.384   8.264  0.4394  0.5361 -2.4535
 4882TIP3    H236206   3.436   0.347   8.292 -0.0043 -0.1145 -0.9409
 4883TIP3   OH236207   5.951   5.917   8.605  0.8146 -0.4670 -0.3005
 4883TIP3    H136208   6.036   5.907   8.649  1.6183 -0.5962 -1.8131
 4883TIP3    H236209   5.889   5.874   8.664  1.7862 -0.4094  0.8200
 4884TIP3   OH236210   4.746   3.986   8.788  0.4314 -0.3570  0.4199
 4884TIP3    H136211   4.762   3.902   8.745 -1.5768 -0.0648 -1.0063
 4884TIP3    H236212   4.690   4.034   8.727  0.5440  1.5588  1.7439
 4885TIP3   OH236213   2.935   0.583   1.426 -0.3728 -0.7319  0.0513
 4885TIP3    H136214   2.891   0.656   1.381  1.2349 -0.5375 -1.3221
 4885TIP3    H236215   2.871   0.553   1.490 -1.4076  1.3539  0.1083
 4886TIP3   OH236216   2.709   6.077   7.006 -0.0919 -0.3658  0.3236
 4886TIP3    H136217   2.673   5.997   7.042  0.3743 -1.3140 -1.2344
 4886TIP3    H236218   2.654   6.098   6.930 -0.4421  1.0185  0.9173
 4887TIP3   OH236219   4.759   6.556   8.422 -0.2438 -0.2432  0.4586
 4887TIP3    H136220   4.732   6.472   8.460  0.7027 -1.2066 -0.8859
 4887TIP3    H236221   4.699   6.569   8.348  0.1573 -0.1616  0.1479
 4888TIP3   OH236222   4.118   5.462   0.251 -0.2362 -0.4028 -0.0770
 4888TIP3    H136223   4.042   5.447   0.195 -0.5938 -1.1055  0.5816
 4888TIP3    H236224   4.083   5.458   0.340  0.7354 -1.8477  0.2756
 4889TIP3   OH236225   5.382   4.118   0.594  0.3802  0.2430 -0.0276
 4889TIP3    H136226   5.335   4.116   0.510  1.3318  0.8328 -0.5988
 4889TIP3    H236227   5.339   4.187   0.644 -1.5334 -1.4539  0.8345
 4890TIP3   OH236228   2.421   5.378   1.063 -0.3748 -0.0578 -0.1556
 4890TIP3    H136229   2.508   5.337   1.067  0.3410  1.4036 -0.2610
 4890TIP3    H236230   2.403   5.405   1.153 -1.9801 -2.7425  0.4606
 4891TIP3   OH236231   4.830   4.432   2.051  0.3756 -0.3635 -0.0099
 4891TIP3    H136232   4.748   4.387   2.030 -0.1080  0.4725  0.0197
 4891TIP3    H236233   4.808   4.486   2.128  1.0611 -0.4315  0.2370
 4892TIP3   OH236234   1.526   2.390   8.247  0.2838  0.4916  0.2974
 4892TIP3    H136235   1.481   2.459   8.296 -1.7198  0.3379 -1.2156
 4892TIP3    H236236   1.459   2.321   8.237  0.8750  0.1709 -1.8855
 4893TIP3   OH236237   4.694   3.419   7.645  0.1486 -0.1868  0.5240
 4893TIP3    H136238   4.759   3.488   7.630 -1.4825  0.9850 -1.6367
 4893TIP3    H236239   4.736   3.340   7.612  1.1408  0.2066  0.7998
 4894TIP3   OH236240   4.418   0.016   1.789 -0.0954  0.2063 -0.2612
 4894TIP3    H136241   4.362  -0.047   1.743 -1.3725  0.5183  0.8001
 4894TIP3    H236242   4.399   0.100   1.747  0.7379  0.1003 -0.8956
 4895TIP3   OH236243   6.408   2.493   1.299 -0.2690 -0.3435  0.5361
 4895TIP3    H136244   6.353   2.569   1.316 -1.6505 -0.9939 -0.7460
 4895TIP3    H236245   6.451   2.474   1.382 -1.7629  0.3761  1.4994
 4896TIP3   OH236246   2.735   3.356   0.431 -0.1085 -0.0581 -0.3116
 4896TIP3    H136247   2.691   3.378   0.513  0.8218  2.2147 -0.3238
 4896TIP3    H236248   2.708   3.266   0.411 -3.1881  0.5422  0.6198
 4897TIP3   OH236249   1.502   0.417   0.232 -0.5988  0.2025 -0.1807
 4897TIP3    H136250   1.411   0.389   0.222 -0.2516 -1.1008  0.1308
 4897TIP3    H236251   1.553   0.352   0.184  0.2888 -0.1378  1.1518
 4898TIP3   OH236252   5.716   2.636   1.094  0.2471  0.1541 -0.1253
 4898TIP3    H136253   5.754   2.554   1.126  1.2969  0.4074 -0.6561
 4898TIP3    H236254   5.656   2.663   1.163 -1.6715 -2.0677 -0.7959
 4899TIP3   OH236255   0.630   1.682   8.381  0.0660 -0.1307 -0.3131
 4899TIP3    H136256   0.557   1.701   8.439 -1.2408 -0.7670 -1.6946
 4899TIP3    H236257   0.592   1.678   8.293  1.8802  0.2494 -1.1833
 4900TIP3   OH236258   0.385   5.118   1.781  0.2734 -0.0644 -0.1484
 4900TIP3    H136259   0.429   5.088   1.861 -0.7393 -0.9234  0.1024
 4900TIP3    H236260   0.292   5.122   1.804 -0.2081 -1.5247 -1.6142
 4901TIP3   OH236261   6.463   1.649   1.835 -0.5910  0.2176 -0.8820
 4901TIP3    H136262   6.490   1.734   1.868  1.2149 -0.4188 -0.5834
 4901TIP3    H236263   6.379   1.665   1.792  0.6347  2.5853 -2.6760
 4902TIP3   OH236264   4.638   4.633   7.448  0.0059  0.8205 -0.8311
 4902TIP3    H136265   4.701   4.700   7.472  2.6082 -1.3076 -1.2458
 4902TIP3    H236266   4.673   4.595   7.368 -1.7469 -0.5735 -0.9906
 4903TIP3   OH236267   0.870   4.859   8.863  0.0616 -0.2209  0.1998
 4903TIP3    H136268   0.827   4.935   8.902 -1.1218 -0.6524 -0.2112
 4903TIP3    H236269   0.799   4.811   8.820  0.9036 -1.1763 -0.1614
 4904TIP3   OH236270   6.605   4.933   0.872 -0.2595 -0.4539 -0.1184
 4904TIP3    H136271   6.595   4.839   0.881 -0.6865 -0.3881  0.1035
 4904TIP3    H236272   6.700   4.948   0.876 -0.2658 -0.7145  1.4378
 4905TIP3   OH236273   4.282   3.455   0.913 -0.1468  0.3738  0.6146
 4905TIP3    H136274   4.289   3.403   0.994  0.6275  0.8645  0.8728
 4905TIP3    H236275   4.221   3.405   0.859 -0.1947 -0.2916  1.2534
 4906TIP3   OH236276   3.981   1.330   0.177  0.2469  0.2948 -0.7365
 4906TIP3    H136277   4.028   1.408   0.147  2.4052 -0.7227 -0.2091
 4906TIP3    H236278   3.995   1.329   0.272 -0.4015 -0.3640 -0.6385
 4907TIP3   OH236279   3.042   5.503   1.884 -0.5416 -0.3022 -0.5673
 4907TIP3    H136280   3.091   5.435   1.930  1.0911  0.4974 -1.0445
 4907TIP3    H236281   3.074   5.585   1.921 -0.7521  0.2759 -1.6219
 4908TIP3   OH236282   3.455   2.748   2.700 -0.2756 -0.2133 -0.0595
 4908TIP3    H136283   3.465   2.806   2.625 -1.1013  0.6774  0.4904
 4908TIP3    H236284   3.535   2.758   2.750 -0.9692  1.5682  0.7608
 4909TIP3   OH236285   3.112   4.665   8.762  0.0396  0.1622 -0.4462
 4909TIP3    H136286   3.174   4.731   8.732  1.4300 -0.7016  0.3837
 4909TIP3    H236287   3.148   4.634   8.845 -2.4780  0.8885  1.0339
 4910TIP3   OH236288   6.251   4.239   0.482  0.3761 -0.4253  0.1533
 4910TIP3    H136289   6.247   4.271   0.572 -2.3956 -0.8286  0.2488
 4910TIP3    H236290   6.221   4.313   0.429  1.2281 -0.4528 -0.3957
 4911TIP3   OH236291   4.459   0.591   7.415  0.2304  0.3102  0.0048
 4911TIP3    H136292   4.425   0.501   7.418 -0.7090  0.5856 -1.4669
 4911TIP3    H236293   4.551   0.581   7.392  0.1111 -0.2772 -0.2513
 4912TIP3   OH236294   5.434   3.517   7.590  0.1575 -0.0481  0.3426
 4912TIP3    H136295   5.488   3.473   7.657 -1.6365  0.0899  1.9588
 4912TIP3    H236296   5.498   3.554   7.529  1.8236 -2.1332  0.6931
 4913TIP3   OH236297   4.506   3.871   7.599  0.1515  0.6831  0.3000
 4913TIP3    H136298   4.531   3.843   7.511  0.7046  0.0358  0.6534
 4913TIP3    H236299   4.582   3.919   7.631  0.3855 -0.0194  0.8240
 4914TIP3   OH236300   4.364   3.849   0.146 -0.4198  0.4222  0.2921
 4914TIP3    H136301   4.309   3.907   0.094  1.3533  0.8178 -1.2265
 4914TIP3    H236302   4.450   3.855   0.106  0.6446 -0.5433  2.3048
 4915TIP3   OH236303   3.381   0.825   6.398  0.4467 -0.1125 -0.4921
 4915TIP3    H136304   3.446   0.778   6.451  1.0442  0.7094 -0.4747
 4915TIP3    H236305   3.321   0.757   6.368  0.0952 -0.6148  1.2261
 4916TIP3   OH236306   0.163   0.718   8.912 -0.3187 -0.4213 -0.1941
 4916TIP3    H136307   0.069   0.702   8.903 -0.5452  1.1401 -0.9711
 4916TIP3    H236308   0.204   0.635   8.888 -1.4867 -1.0385 -0.1115
 4917TIP3   OH236309   1.422   3.217   6.597 -0.3507 -0.2177  0.4638
 4917TIP3    H136310   1.456   3.303   6.622  1.3939  0.0892 -2.5141
 4917TIP3    H236311   1.354   3.236   6.533 -0.3679 -1.0444  0.2302
 4918TIP3   OH236312   2.041   5.407   1.438  0.1045 -0.1481 -0.9087
 4918TIP3    H136313   2.103   5.346   1.480  0.3857  0.1483 -0.8884
 4918TIP3    H236314   2.084   5.433   1.357 -1.4957 -2.6470 -2.6904
 4919TIP3   OH236315   5.562   3.965   1.749 -0.2808 -0.3571 -0.2265
 4919TIP3    H136316   5.470   3.945   1.732 -0.6618 -0.3474  1.6100
 4919TIP3    H236317   5.589   3.898   1.812  0.7330  0.1346 -0.1255
 4920TIP3   OH236318   1.351   5.198   1.179  0.0899 -0.0087 -0.5001
 4920TIP3    H136319   1.269   5.189   1.227 -0.0192 -0.5786 -0.7908
 4920TIP3    H236320   1.343   5.282   1.134 -0.1242  0.1703 -0.1315
 4921TIP3   OH236321   2.159   3.878   7.512 -0.7088 -0.0177  0.3778
 4921TIP3    H136322   2.170   3.972   7.501 -2.4291 -0.0051 -1.9573
 4921TIP3    H236323   2.195   3.839   7.433  0.2918 -1.4047  1.4471
 4922TIP3   OH236324   0.832   0.978   0.873 -0.8024  0.1530 -0.2236
 4922TIP3    H136325   0.834   0.912   0.942  0.6653 -0.3228 -0.6929
 4922TIP3    H236326   0.890   0.944   0.805 -0.8332  1.4407 -0.9250
 4923TIP3   OH236327   3.936   3.723   7.394  0.2613 -0.1412 -0.0159
 4923TIP3    H136328   3.841   3.710   7.394 -0.2656  2.8398 -1.9144
 4923TIP3    H236329   3.949   3.808   7.353  3.7762 -0.1955  0.6604
 4924TIP3   OH236330   6.314   5.831   0.684 -0.1213 -0.0980 -1.1317
 4924TIP3    H136331   6.264   5.890   0.741  1.0671 -0.5446  0.4393
 4924TIP3    H236332   6.264   5.749   0.686 -0.8237  0.2879 -1.8973
 4925TIP3   OH236333   1.618   2.432   0.763  0.6122  0.2225  0.0944
 4925TIP3    H136334   1.666   2.365   0.715  0.9463  0.3289  0.2727
 4925TIP3    H236335   1.586   2.388   0.842  0.3021  0.1170 -0.0930
 4926TIP3   OH236336   1.494   5.411   0.117 -0.4134 -0.1589 -0.2743
 4926TIP3    H136337   1.524   5.369   0.036 -0.6035 -0.0653 -0.3938
 4926TIP3    H236338   1.573   5.452   0.153 -0.9444  2.8948 -2.2585
 4927TIP3   OH236339   0.052   5.335   0.060 -0.2924  0.2405  0.5857
 4927TIP3    H136340   0.045   5.269  -0.009  1.4373  0.2217  0.3800
 4927TIP3    H236341   0.002   5.409   0.028  1.5287  0.7248 -1.3439
 4928TIP3   OH236342   0.960   1.446   7.646  0.2590 -0.0134 -0.7763
 4928TIP3    H136343   0.956   1.412   7.735 -1.3272  0.4244 -0.6635
 4928TIP3    H236344   0.892   1.513   7.642  0.8024  0.5006 -2.1099
 4929TIP3   OH236345   0.901   0.452   7.325 -0.2425 -0.3042 -0.2632
 4929TIP3    H136346   0.836   0.388   7.298 -0.2301 -0.8362  0.9114
 4929TIP3    H236347   0.885   0.528   7.269 -1.7839 -0.4818 -0.0930
 4930TIP3   OH236348   6.585   0.907   8.419  0.3575 -0.0246 -0.0179
 4930TIP3    H136349   6.558   0.997   8.440 -0.8565 -0.3472 -0.1519
 4930TIP3    H236350   6.526   0.852   8.469  0.7454 -0.7642 -0.3646
 4931TIP3   OH236351   0.880   3.024   7.393 -0.2057  0.1999 -0.9017
 4931TIP3    H136352   0.879   3.118   7.372 -3.3229  0.8781  1.6334
 4931TIP3    H236353   0.858   2.982   7.310 -0.5379  1.8516 -1.7087
 4932TIP3   OH236354   0.007   5.508   0.758 -0.2020  0.3834  0.5456
 4932TIP3    H136355   0.008   5.604   0.747 -0.7738  0.2411 -0.9925
 4932TIP3    H236356   0.034   5.474   0.673  1.8711 -0.8467  1.5960
 4933TIP3   OH236357   2.827   0.137   0.028 -0.6076 -0.0083 -0.2664
 4933TIP3    H136358   2.832   0.214   0.083 -2.1644 -1.0445  1.4454
 4933TIP3    H236359   2.897   0.080   0.060 -1.3018 -0.4737  0.4563
 4934TIP3   OH236360   5.530   2.068   1.465 -0.0504 -0.2368  0.0925
 4934TIP3    H136361   5.611   2.022   1.442 -2.0421 -2.9371 -2.1615
 4934TIP3    H236362   5.496   2.020   1.541  0.8720  1.5831  1.7533
 4935TIP3   OH236363   6.464   2.810   0.170 -0.3983  0.5181 -0.0236
 4935TIP3    H136364   6.392   2.867   0.144 -0.7618 -0.4376 -1.1987
 4935TIP3    H236365   6.482   2.757   0.093 -0.4632 -1.3685  1.1966
 4936TIP3   OH236366   1.124   5.122   0.052 -0.5871  0.4176 -0.1262
 4936TIP3    H136367   1.178   5.198   0.030  0.4933  0.0680  1.1774
 4936TIP3    H236368   1.151   5.054  -0.010 -1.2041  0.9384 -0.9758
 4937TIP3   OH236369   4.990   0.617   7.762  0.0376 -0.6387 -0.2003
 4937TIP3    H136370   4.922   0.679   7.789  1.2784  0.2102  1.1764
 4937TIP3    H236371   4.999   0.631   7.668  1.9519  3.2061  0.3587
 4938TIP3   OH236372   1.990   4.771   6.880  0.1773  0.2396 -0.9034
 4938TIP3    H136373   2.008   4.865   6.876  1.3238  0.1913  1.3217
 4938TIP3    H236374   2.072   4.730   6.853 -0.0869 -0.1246 -1.1636
 4939TIP3   OH236375   2.114   3.142   7.528  0.0468 -0.2732  0.3228
 4939TIP3    H136376   2.140   3.228   7.560  2.1978 -1.0631  0.8557
 4939TIP3    H236377   2.164   3.130   7.447 -0.8539 -0.7156 -0.1900
 4940TIP3   OH236378   3.666   5.840   0.589 -0.1799 -1.0744 -0.3494
 4940TIP3    H136379   3.614   5.779   0.641 -0.8261  0.8518  1.4239
 4940TIP3    H236380   3.601   5.898   0.548  0.4334  0.8573  1.2345
 4941TIP3   OH236381   6.253   0.752   8.293 -1.0288 -0.2479  0.4013
 4941TIP3    H136382   6.169   0.795   8.312 -1.1854 -0.9031  1.1928
 4941TIP3    H236383   6.283   0.719   8.377  0.1556  0.1917  0.1618
 4942TIP3   OH236384   0.402   5.332   8.820 -0.3977 -0.3481 -0.1954
 4942TIP3    H136385   0.484   5.293   8.790  0.1299 -0.9680  1.9398
 4942TIP3    H236386   0.359   5.263   8.870 -0.5454  1.0374  1.6841
 4943TIP3   OH236387   4.622   4.350   6.998 -0.7294 -0.4196  0.0406
 4943TIP3    H136388   4.609   4.270   6.946 -0.7121  0.5936 -1.5720
 4943TIP3    H236389   4.572   4.334   7.078 -3.9082 -0.5752 -1.8044
 4944TIP3   OH236390   0.092   5.086   2.097 -0.2125 -0.1966  0.2881
 4944TIP3    H136391   0.173   5.134   2.113  0.3725 -1.3013  0.7659
 4944TIP3    H236392   0.071   5.103   2.005  0.0450  0.8419  0.4118
 4945TIP3   OH236393   3.111   3.621   6.745 -0.1101  0.1605  0.7878
 4945TIP3    H136394   3.031   3.671   6.762  0.2897  0.6169  1.4044
 4945TIP3    H236395   3.177   3.688   6.725  0.2694 -0.1652  0.9350
 4946TIP3   OH236396   0.926   3.111   8.596  0.0815 -0.2430  0.4043
 4946TIP3    H136397   0.949   3.203   8.592 -0.9436  0.0339  0.5413
 4946TIP3    H236398   0.980   3.075   8.666  0.5884  0.2195  0.2521
 4947TIP3   OH236399   2.225   5.198   1.496 -0.1999 -0.2493 -0.2785
 4947TIP3    H136400   2.192   5.151   1.419 -0.5217 -0.4650 -0.0093
 4947TIP3    H236401   2.261   5.130   1.552 -1.6770 -0.3271  0.6256
 4948TIP3   OH236402   0.028   2.882   0.978 -0.2390 -0.4412 -0.1635
 4948TIP3    H136403  -0.053   2.906   0.933  0.1341  1.2636  0.0179
 4948TIP3    H236404   0.002   2.874   1.070 -0.0196  1.3042  0.0897
 4949TIP3   OH236405   6.358   2.797   7.396 -0.0007  0.6744  0.1166
 4949TIP3    H136406   6.396   2.780   7.482  0.0584  0.5375  0.0638
 4949TIP3    H236407   6.424   2.764   7.334  0.1297  1.1212  0.0150
 4950TIP3   OH236408   2.142   3.314   8.217  0.0691  0.0196 -0.5289
 4950TIP3    H136409   2.068   3.371   8.194 -0.1231 -0.8376 -2.1964
 4950TIP3    H236410   2.191   3.363   8.282 -1.0588  1.3261 -0.6248
 4951TIP3   OH236411   0.803   3.968   6.404 -0.0809  0.0784  0.2816
 4951TIP3    H136412   0.764   4.023   6.336  0.7070 -1.7748 -1.7811
 4951TIP3    H236413   0.748   3.982   6.480 -0.3867  3.0524 -0.3599
 4952TIP3   OH236414   1.210   5.407   7.369 -0.4733 -0.0443  0.0992
 4952TIP3    H136415   1.131   5.361   7.341  0.6501 -0.8894 -1.9208
 4952TIP3    H236416   1.244   5.354   7.441 -1.3636 -0.0310  0.5505
 4953TIP3   OH236417   0.731   3.304   0.924 -0.5551 -0.0271 -0.1614
 4953TIP3    H136418   0.637   3.322   0.928 -0.8474 -1.4690 -0.1628
 4953TIP3    H236419   0.738   3.217   0.884  0.7212 -0.3881  0.7796
 4954TIP3   OH236420   4.591   1.127   0.664  0.3830 -0.5494 -0.1508
 4954TIP3    H136421   4.618   1.119   0.572 -0.1553 -1.6696 -0.2258
 4954TIP3    H236422   4.496   1.136   0.660  0.4634  0.5714  0.2515
 4955TIP3   OH236423   1.284   1.542   0.342  0.1102 -0.0158 -0.2842
 4955TIP3    H136424   1.267   1.462   0.292  1.1952 -0.0206 -0.6671
 4955TIP3    H236425   1.358   1.583   0.297  0.8485  0.1951  1.0721
 4956TIP3   OH236426   2.421   1.218   1.849  0.7548 -0.2676 -0.8077
 4956TIP3    H136427   2.356   1.224   1.779 -1.1398  3.4315  0.9943
 4956TIP3    H236428   2.503   1.247   1.810  0.0051  0.5905 -1.7670
 4957TIP3   OH236429   1.455   0.081   0.579 -0.3085  0.2392 -0.0785
 4957TIP3    H136430   1.485  -0.009   0.586 -0.2838  0.3342  1.2671
 4957TIP3    H236431   1.365   0.079   0.613  0.4624  1.0835  2.2613
 4958TIP3   OH236432   1.051   3.725   1.607  0.1727 -0.2643  0.2303
 4958TIP3    H136433   1.065   3.718   1.702 -2.2504 -0.4664  0.6453
 4958TIP3    H236434   1.045   3.634   1.577 -0.5267 -0.1984  0.1552
 4959TIP3   OH236435   0.440   3.117   0.652  0.1179  0.1556 -0.1136
 4959TIP3    H136436   0.434   3.100   0.558  0.0340 -0.6948  0.0383
 4959TIP3    H236437   0.364   3.074   0.689  0.9312 -0.8050  0.5057
 4960TIP3   OH236438   4.100   5.655   8.638  0.1534 -0.1979 -0.0759
 4960TIP3    H136439   4.071   5.736   8.594  1.4002 -0.2902 -1.1164
 4960TIP3    H236440   4.045   5.650   8.716 -0.7009  1.0813 -0.5532
 4961TIP3   OH236441   4.112   1.022   7.660  0.2857 -0.4468  0.3511
 4961TIP3    H136442   4.032   0.988   7.701  0.6123 -0.1959  1.2135
 4961TIP3    H236443   4.126   1.107   7.702  2.4629 -1.6236  2.1579
 4962TIP3   OH236444   2.448   5.331   7.908 -0.2726  0.0788  0.0390
 4962TIP3    H136445   2.536   5.356   7.879 -0.0490  1.8975  2.0823
 4962TIP3    H236446   2.461   5.289   7.993 -1.3381 -0.2333  0.0653
 4963TIP3   OH236447   2.862   5.341   0.632 -0.3226  0.3650 -0.2606
 4963TIP3    H136448   2.925   5.374   0.568 -0.6317  1.3669 -0.0654
 4963TIP3    H236449   2.836   5.255   0.598  1.6407 -0.4027 -0.0079
 4964TIP3   OH236450   6.282   4.070   1.562 -0.2853  0.4675 -0.5455
 4964TIP3    H136451   6.324   4.111   1.637 -2.2527  1.3637  0.1426
 4964TIP3    H236452   6.314   4.120   1.487  0.0104  1.0209 -0.0615
 4965TIP3   OH236453   4.890   5.999   0.449  0.6347  0.1873 -0.1371
 4965TIP3    H136454   4.938   5.923   0.481 -1.2435 -0.8090  0.4811
 4965TIP3    H236455   4.799   5.981   0.473  0.0243  2.2459 -0.7446
 4966TIP3   OH236456   5.231   0.267   0.148 -0.6234  0.4807 -0.3177
 4966TIP3    H136457   5.168   0.326   0.106 -1.7661 -0.0520  0.5947
 4966TIP3    H236458   5.310   0.277   0.096 -1.9813 -0.2177 -2.6799
 4967TIP3   OH236459   1.425   6.091   6.804  0.7164  1.0709 -0.1275
 4967TIP3    H136460   1.398   6.027   6.738  1.7517  0.4894 -0.0022
 4967TIP3    H236461   1.473   6.041   6.869  1.2178  1.9083  0.1693
 4968TIP3   OH236462   1.324   0.349   8.579 -0.4847  0.1623 -1.1414
 4968TIP3    H136463   1.331   0.443   8.562  2.4003  0.9466  2.8379
 4968TIP3    H236464   1.279   0.344   8.663  2.2534 -1.6477  0.3618
 4969TIP3   OH236465   6.549   1.873   1.228 -0.3304  0.1173 -0.8961
 4969TIP3    H136466   6.636   1.911   1.234 -1.0488  1.8419 -0.9079
 4969TIP3    H236467   6.528   1.846   1.317 -0.1411  0.5438 -0.7195
 4970TIP3   OH236468   2.498   4.187   1.173  0.3296  0.1830 -0.1438
 4970TIP3    H136469   2.424   4.129   1.158 -0.2167  0.2357  1.9898
 4970TIP3    H236470   2.461   4.259   1.225  1.9021  0.0759  1.2003
 4971TIP3   OH236471   6.485   4.282   8.329 -0.1445 -0.5113 -0.4689
 4971TIP3    H136472   6.525   4.207   8.286  2.9700  1.5347 -1.4749
 4971TIP3    H236473   6.480   4.349   8.260 -1.0383  0.8203  0.8333
 4972TIP3   OH236474   2.560   5.909   8.427 -0.3715  0.2972 -0.3424
 4972TIP3    H136475   2.589   5.990   8.469 -0.1351  0.5611 -1.0100
 4972TIP3    H236476   2.533   5.935   8.339 -0.7175 -0.2783 -0.4168
 4973TIP3   OH236477   4.253   4.722   8.087  0.3585  0.0150  0.2077
 4973TIP3    H136478   4.232   4.781   8.160  0.2503 -0.0851  0.2577
 4973TIP3    H236479   4.289   4.780   8.020  0.5639  0.0925  0.3830
 4974TIP3   OH236480   3.061   4.623   0.976  0.1575  0.3930  0.1067
 4974TIP3    H136481   3.086   4.600   0.886  1.0785  2.2829 -0.1617
 4974TIP3    H236482   3.027   4.541   1.012 -0.5542 -0.3401 -2.0551
 4975TIP3   OH236483   2.176   5.414   7.129 -1.0620  0.3282 -0.2329
 4975TIP3    H136484   2.154   5.330   7.171 -1.8961  0.2543 -0.8049
 4975TIP3    H236485   2.250   5.393   7.072 -0.1180  0.3628  0.9202
 4976TIP3   OH236486   6.678   6.461   1.661 -0.0918 -0.5592  0.3630
 4976TIP3    H136487   6.771   6.469   1.637 -0.2412 -0.7171 -0.2997
 4976TIP3    H236488   6.631   6.481   1.580 -0.7069  1.4506  1.1733
 4977TIP3   OH236489   5.967   1.183   8.813  0.2437 -0.0038 -0.1401
 4977TIP3    H136490   5.947   1.233   8.892  1.4984 -0.3547  0.4394
 4977TIP3    H236491   5.886   1.182   8.763 -0.4352  0.6531  0.9127
 4978TIP3   OH236492   5.266   1.796   8.632 -0.6443  0.4936 -0.2500
 4978TIP3    H136493   5.349   1.839   8.611  1.3648 -2.2802  1.3061
 4978TIP3    H236494   5.239   1.754   8.551  1.9808 -2.2405  0.0909
 4979TIP3   OH236495   6.334   6.679   7.809 -0.0125 -0.1862  0.4198
 4979TIP3    H136496   6.316   6.587   7.832  0.8942  0.2171  3.0581
 4979TIP3    H236497   6.248   6.721   7.813 -0.0884 -0.4376  1.8047
 4980TIP3   OH236498   1.247   4.463   8.701 -0.3048  0.3134  0.4971
 4980TIP3    H136499   1.260   4.517   8.623 -1.8531 -1.7395 -1.3261
 4980TIP3    H236500   1.323   4.481   8.756  1.1789  1.4106 -1.7580
 4981TIP3   OH236501   2.506   1.948   0.485 -0.5732  0.9940 -0.0728
 4981TIP3    H136502   2.462   1.872   0.448 -1.3923  1.3932  0.0506
 4981TIP3    H236503   2.583   1.912   0.529  0.8200  0.5658 -2.6676
 4982TIP3   OH236504   1.874   0.800   8.908  0.6299 -0.4637 -0.1732
 4982TIP3    H136505   1.789   0.838   8.888  1.4316  2.0464  0.7377
 4982TIP3    H236506   1.932   0.831   8.838  0.8704 -2.0122 -0.7046
 4983TIP3   OH236507   2.375   2.769   8.702 -0.3541 -0.4405  0.1193
 4983TIP3    H136508   2.286   2.734   8.708 -0.3206 -0.7994 -1.1607
 4983TIP3    H236509   2.367   2.844   8.642 -0.1229  0.7268  1.4964
 4984TIP3   OH236510   5.791   3.115   6.324 -0.0602 -0.4133  0.2629
 4984TIP3    H136511   5.718   3.054   6.336 -0.0497 -0.2374  1.4234
 4984TIP3    H236512   5.749   3.197   6.297 -0.1604 -0.6811 -0.4026
 4985TIP3   OH236513   2.802   1.067   7.200  0.8125  0.2687 -0.1083
 4985TIP3    H136514   2.852   1.086   7.121  1.4399  1.9447  0.6338
 4985TIP3    H236515   2.869   1.044   7.265  0.4151  0.1047  0.2476
 4986TIP3   OH236516   3.437   2.341   2.268  0.0961  0.1198 -0.4931
 4986TIP3    H136517   3.407   2.251   2.280 -1.0104  0.7668  2.3892
 4986TIP3    H236518   3.374   2.379   2.207 -1.4882 -0.1708  0.9135
 4987TIP3   OH236519   0.426   6.685   7.783 -0.2524 -0.9809  0.3214
 4987TIP3    H136520   0.352   6.669   7.841  0.6914 -1.1185  1.5221
 4987TIP3    H236521   0.503   6.680   7.839  0.5332  1.6777 -0.3609
 4988TIP3   OH236522   0.571   4.463   8.609  0.0686  0.1260  0.4893
 4988TIP3    H136523   0.650   4.448   8.662  0.3508 -0.1685 -0.0030
 4988TIP3    H236524   0.604   4.509   8.531  0.0982 -1.8175 -0.7090
 4989TIP3   OH236525   5.754   0.137   0.706 -0.3861 -0.6131 -0.0601
 4989TIP3    H136526   5.798   0.140   0.791  1.2826  0.4979 -0.9110
 4989TIP3    H236527   5.664   0.110   0.727 -0.0643 -0.2613  2.0483
 4990TIP3   OH236528   4.032   4.886   7.294  0.1383 -0.0644  0.2946
 4990TIP3    H136529   3.953   4.877   7.348  1.1150 -1.8696  1.4991
 4990TIP3    H236530   4.013   4.833   7.216  0.4373 -1.1743  0.9536
 4991TIP3   OH236531   2.990   5.754   0.091  0.2130 -0.0601 -0.2071
 4991TIP3    H136532   3.073   5.791   0.121 -0.7404  0.4548  1.9719
 4991TIP3    H236533   3.015   5.698   0.018  2.4884  0.1086  0.3477
 4992TIP3   OH236534   5.648   2.759   0.317 -0.2579  0.0020  0.0214
 4992TIP3    H136535   5.704   2.698   0.365 -0.7633 -2.1711 -1.9648
 4992TIP3    H236536   5.701   2.787   0.243 -1.0108 -0.3048 -0.6449
 4993TIP3   OH236537   0.914   1.324   0.391  0.2513 -0.1233 -0.0503
 4993TIP3    H136538   0.908   1.229   0.402  0.6304  0.0623  2.3458
 4993TIP3    H236539   0.823   1.355   0.395  0.1727 -0.3363 -0.2145
 4994TIP3   OH236540   1.719   2.594   7.353  0.0218  0.1885  0.1626
 4994TIP3    H136541   1.682   2.647   7.424  1.1081  0.5429  0.4810
 4994TIP3    H236542   1.643   2.559   7.308 -0.7150 -0.6982  1.9811
 4995TIP3   OH236543   2.957   5.688   1.521  0.0148 -0.4289  0.1940
 4995TIP3    H136544   2.918   5.754   1.578 -0.1679 -0.4621  0.1099
 4995TIP3    H236545   3.002   5.628   1.580 -0.8433 -0.9159  0.3850
 4996TIP3   OH236546   4.659   5.989   7.338  0.0524 -0.4499 -0.5100
 4996TIP3    H136547   4.731   5.936   7.373 -0.1760 -0.2737  0.2335
 4996TIP3    H236548   4.685   6.007   7.248  1.2938  0.1869 -0.0570
 4997TIP3   OH236549   4.048   3.245   8.404 -0.8758  0.3779 -0.0500
 4997TIP3    H136550   3.986   3.300   8.452 -0.5888  0.3826  0.3147
 4997TIP3    H236551   4.112   3.307   8.368 -1.4818  0.4538 -1.0460
 4998TIP3   OH236552   2.815   2.077   8.771 -0.4052  0.3172  0.2086
 4998TIP3    H136553   2.741   2.076   8.711 -0.4629  0.7500  0.2668
 4998TIP3    H236554   2.791   2.016   8.840 -1.4405  1.6296  1.0713
 4999TIP3   OH236555   3.280   4.819   1.014 -0.3251  0.4331  0.3816
 4999TIP3    H136556   3.202   4.771   0.989 -0.3801  0.3411  0.7231
 4999TIP3    H236557   3.308   4.864   0.934 -1.0910  0.9785  0.4105
 5000TIP3   OH236558   4.940   0.571   7.501  0.6868  0.1948  0.0968
 5000TIP3    H136559   4.899   0.610   7.425 -0.5836 -2.0311 -0.4572
 5000TIP3    H236560   4.977   0.489   7.469  0.1834 -0.7666  1.8065
 5001TIP3   OH236561   0.777   5.306   1.244  0.2540 -0.1682  0.2663
 5001TIP3    H136562   0.806   5.371   1.181 -2.7191  1.9487  0.8361
 5001TIP3    H236563   0.787   5.348   1.329 -2.7959  0.1588  0.5773
 5002TIP3   OH236564   3.678   3.928   7.285  0.2298 -0.2127  0.1564
 5002TIP3    H136565   3.590   3.937   7.247 -0.1429 -2.3016  0.3736
 5002TIP3    H236566   3.678   3.840   7.322  1.6300  0.6324  2.3041
 5003TIP3   OH236567   6.626   0.916   0.021 -0.0379  0.1772 -0.0029
 5003TIP3    H136568   6.534   0.921   0.048 -0.2541  0.6452 -0.8012
 5003TIP3    H236569   6.628   0.957  -0.065  1.6186  4.1767  1.6861
 5004TIP3   OH236570   3.883   3.055   7.877 -0.0383  0.2834  0.0887
 5004TIP3    H136571   3.942   3.085   7.808  0.4206  0.0224  0.3626
 5004TIP3    H236572   3.901   3.113   7.951  2.3783 -1.8988  1.3503
 5005TIP3   OH236573   2.176   2.354   8.669 -0.0953 -0.0970 -0.0055
 5005TIP3    H136574   2.146   2.324   8.584 -0.1587 -0.1363  0.0296
 5005TIP3    H236575   2.100   2.343   8.726  0.9721 -3.6064  0.9645
 5006TIP3   OH236576   2.782   5.072   1.343  0.0835  0.1214  0.2337
 5006TIP3    H136577   2.697   5.083   1.384 -1.3426 -0.5257 -2.3129
 5006TIP3    H236578   2.765   5.016   1.267  2.7305  0.1854 -0.5121
 5007TIP3   OH236579   6.097   5.903   7.130 -1.4058 -0.1057  0.1986
 5007TIP3    H136580   6.010   5.900   7.090 -1.9434 -0.4327  1.3570
 5007TIP3    H236581   6.098   5.830   7.192 -0.5236  0.2600  0.6367
 5008TIP3   OH236582   4.684   4.326   1.463  0.3634  0.2323  0.2157
 5008TIP3    H136583   4.757   4.264   1.462 -1.0632 -1.5431 -1.0170
 5008TIP3    H236584   4.644   4.317   1.376 -1.2573  1.2131  0.8082
 5009TIP3   OH236585   3.926   2.355   1.722 -0.0634 -0.4411  0.3682
 5009TIP3    H136586   3.944   2.434   1.673  1.9637 -1.3568 -0.4740
 5009TIP3    H236587   3.961   2.372   1.809  0.1650 -0.3378  0.2553
 5010TIP3   OH236588   3.020   4.110   1.585 -0.1030 -0.0797 -0.4022
 5010TIP3    H136589   3.062   4.046   1.642  0.7396 -0.5771 -1.5522
 5010TIP3    H236590   3.068   4.191   1.601  1.1526 -0.5788 -1.4973
 5011TIP3   OH236591   3.072   4.090   8.746  0.5888  0.3861  0.7635
 5011TIP3    H136592   3.097   4.018   8.805  2.1365 -0.9770 -1.4135
 5011TIP3    H236593   3.143   4.153   8.754  0.1531  0.8307  1.2647
 5012TIP3   OH236594   0.262   5.978   1.012 -0.4466 -0.0461 -0.5507
 5012TIP3    H136595   0.195   6.027   0.964 -1.0223  0.6416  0.9088
 5012TIP3    H236596   0.214   5.909   1.057  0.1483 -0.9580 -1.2798
 5013TIP3   OH236597   0.666   6.581   2.595 -0.1778 -0.0737  0.3347
 5013TIP3    H136598   0.634   6.642   2.528  1.5386 -1.3100 -1.7417
 5013TIP3    H236599   0.619   6.499   2.577  0.9952 -0.6900 -0.0286
 5014TIP3   OH236600   2.708   5.555   1.676  0.3544 -0.1447 -0.3128
 5014TIP3    H136601   2.761   5.536   1.598 -0.1296 -1.5490 -0.3216
 5014TIP3    H236602   2.685   5.469   1.711 -1.5511  0.4403 -0.0446
 5015TIP3   OH236603   0.466   1.695   8.141  0.5051 -0.6306 -0.3127
 5015TIP3    H136604   0.541   1.670   8.087  1.2967 -1.6693  1.2096
 5015TIP3    H236605   0.468   1.791   8.142  1.1940 -0.6267 -1.0976
 5016TIP3   OH236606   2.025   2.901   7.998 -0.4136  0.1947 -0.1272
 5016TIP3    H136607   1.958   2.838   8.026 -0.6643  1.1944  1.6267
 5016TIP3    H236608   2.082   2.850   7.941 -0.4603 -1.7228  1.4232
 5017TIP3   OH236609   6.649   5.291   0.867 -0.1739 -0.3859  1.0944
 5017TIP3    H136610   6.692   5.373   0.842 -0.6539 -0.1476  1.0401
 5017TIP3    H236611   6.720   5.236   0.900  0.4154 -0.5324 -0.3339
 5018TIP3   OH236612   5.447   2.740   8.371  0.0360 -0.4645  0.4431
 5018TIP3    H136613   5.386   2.811   8.394  1.3348  0.9160 -0.2164
 5018TIP3    H236614   5.431   2.724   8.278  0.4643 -0.3108  0.3414
 5019TIP3   OH236615   3.816   6.589   7.090  0.5053 -0.1453 -0.1066
 5019TIP3    H136616   3.802   6.505   7.048 -1.6007  0.0670  0.0448
 5019TIP3    H236617   3.756   6.589   7.165  0.6573  1.3557  0.0596
 5020TIP3   OH236618   1.657   5.349   7.867 -0.4069  0.1023  0.4584
 5020TIP3    H136619   1.686   5.270   7.912  0.0198 -0.6920 -1.1596
 5020TIP3    H236620   1.700   5.346   7.782  0.0746  2.3758  0.5451
 5021TIP3   OH236621   6.556   6.311   0.673 -0.5492 -0.7333 -0.2460
 5021TIP3    H136622   6.610   6.253   0.619 -0.9401 -2.4634  1.1311
 5021TIP3    H236623   6.603   6.317   0.756 -1.4476 -0.5636  0.2614
 5022TIP3   OH236624   2.262   2.698   6.924 -0.0519 -0.5393  0.1051
 5022TIP3    H136625   2.322   2.740   6.986 -0.7030 -1.4542  1.4191
 5022TIP3    H236626   2.309   2.619   6.896  0.2067 -0.1697 -0.5096
 5023TIP3   OH236627   1.430   6.304   1.636 -0.0491 -0.2304  0.2732
 5023TIP3    H136628   1.456   6.376   1.579  0.3147 -1.9722 -1.8670
 5023TIP3    H236629   1.474   6.322   1.719  1.1999  1.2501 -0.6582
 5024TIP3   OH236630   0.379   0.396   7.605 -0.0470 -0.3473  0.3545
 5024TIP3    H136631   0.286   0.407   7.624  0.3467  1.2004  1.5291
 5024TIP3    H236632   0.411   0.484   7.588  1.2671 -0.8297  0.1818
 5025TIP3   OH236633   1.314   3.083   1.719  0.6771  0.0466 -0.2228
 5025TIP3    H136634   1.269   3.027   1.782  0.0342 -0.1340 -0.8284
 5025TIP3    H236635   1.406   3.079   1.745  0.6006 -1.0577 -0.0690
 5026TIP3   OH236636   3.208   5.275   1.295 -0.8736 -0.2588 -0.4299
 5026TIP3    H136637   3.113   5.285   1.304 -1.0089 -1.5553 -0.1980
 5026TIP3    H236638   3.219   5.190   1.254  0.2032 -0.1326 -0.4255
 5027TIP3   OH236639   4.196   6.577   8.137 -0.0385 -0.4899 -0.4331
 5027TIP3    H136640   4.118   6.627   8.113  0.4396 -0.1406 -1.2999
 5027TIP3    H236641   4.170   6.485   8.124 -0.7930 -0.4756  0.7978
 5028TIP3   OH236642   0.576   3.796   8.776 -0.1729  0.1922  0.0026
 5028TIP3    H136643   0.497   3.742   8.775  0.7106 -1.3240 -3.7235
 5028TIP3    H236644   0.648   3.732   8.773  1.0487  1.5438 -0.8044
 5029TIP3   OH236645   4.123   5.729   7.260 -0.4391 -0.9255  0.0444
 5029TIP3    H136646   4.092   5.766   7.178  0.1536 -1.0161 -0.2256
 5029TIP3    H236647   4.174   5.652   7.235  1.7416  0.3516  0.2851
 5030TIP3   OH236648   6.680   0.509   0.469  0.0831  0.2748 -0.0509
 5030TIP3    H136649   6.618   0.504   0.396  0.5378 -2.2193 -0.3754
 5030TIP3    H236650   6.754   0.559   0.433  0.0313 -0.3649 -1.1109
 5031TIP3   OH236651   6.040   2.222   0.555  0.0466 -0.4828  0.3606
 5031TIP3    H136652   6.132   2.195   0.547  0.3260  0.6476 -0.5555
 5031TIP3    H236653   6.043   2.317   0.548 -1.3140 -0.5052 -0.9578
 5032TIP3   OH236654   5.573   2.488   1.379 -0.1967 -0.3352 -0.4092
 5032TIP3    H136655   5.664   2.468   1.358 -0.2434  0.4800 -1.4292
 5032TIP3    H236656   5.539   2.532   1.302 -1.7537 -1.4921 -0.4328
 5033TIP3   OH236657   3.381   4.134   0.300 -0.7970 -0.1001 -0.3366
 5033TIP3    H136658   3.321   4.178   0.239 -0.4344  1.0509  0.1125
 5033TIP3    H236659   3.435   4.079   0.244 -1.2933 -0.0155 -0.9162
 5034TIP3   OH236660   2.540   6.514   8.011  0.1129  0.0148 -0.1309
 5034TIP3    H136661   2.536   6.609   8.025  3.1829  0.4688 -1.5220
 5034TIP3    H236662   2.570   6.479   8.095  0.4172  0.4567 -0.0510
 5035TIP3   OH236663   0.695   3.801   8.354  0.3892  0.3122  1.1739
 5035TIP3    H136664   0.754   3.822   8.427 -0.4418  0.8275  1.7067
 5035TIP3    H236665   0.674   3.885   8.315  2.1421 -0.0615 -0.7495
 5036TIP3   OH236666   2.349   3.133   2.263 -0.0067 -0.1069 -0.4797
 5036TIP3    H136667   2.322   3.047   2.231  1.3186 -0.2938 -1.2089
 5036TIP3    H236668   2.273   3.189   2.250 -0.9855 -1.2174  0.2706
 5037TIP3   OH236669   4.650   6.564   0.499  0.2041 -0.5890  0.1191
 5037TIP3    H136670   4.695   6.479   0.504  1.6492  0.2162  3.2955
 5037TIP3    H236671   4.720   6.628   0.505 -1.0659  0.7619  1.2412
 5038TIP3   OH236672   1.944   1.596   0.311  0.6787 -0.0031 -0.4429
 5038TIP3    H136673   1.873   1.549   0.355 -1.8695  2.6890 -1.2669
 5038TIP3    H236674   1.997   1.632   0.382 -0.8967  0.8249  0.3703
 5039TIP3   OH236675   0.852   0.374   8.215 -0.0317  0.5414 -0.3938
 5039TIP3    H136676   0.812   0.399   8.298 -0.1550  1.3110 -0.6777
 5039TIP3    H236677   0.786   0.320   8.171  0.5496 -0.9973  0.5756
 5040TIP3   OH236678   0.711   2.057   0.133  0.4467  0.0523 -0.0965
 5040TIP3    H136679   0.618   2.080   0.127  0.5751  0.3583 -1.2045
 5040TIP3    H236680   0.713   1.962   0.124  0.3156  0.1542 -1.3649
 5041TIP3   OH236681   3.272   2.799   0.509  0.4459 -0.1332  0.7168
 5041TIP3    H136682   3.361   2.826   0.530  0.2098 -0.1584  1.8259
 5041TIP3    H236683   3.230   2.786   0.594 -1.0321  1.1830  0.2295
 5042TIP3   OH236684   3.710   4.941   0.347 -1.0366  0.4272 -0.8385
 5042TIP3    H136685   3.770   4.979   0.411 -2.3328 -0.4045  0.9366
 5042TIP3    H236686   3.660   4.876   0.396 -2.0576 -0.2848 -2.7211
 5043TIP3   OH236687   1.928   0.279   0.985  0.1283 -0.7815 -0.4194
 5043TIP3    H136688   1.987   0.258   0.913 -0.5731 -0.2771 -1.1545
 5043TIP3    H236689   1.980   0.265   1.064  0.6613 -2.1290 -0.9884
 5044TIP3   OH236690   5.810   1.313   1.214 -0.1752 -0.2075  0.1826
 5044TIP3    H136691   5.834   1.237   1.161 -0.5815  0.3487 -0.8419
 5044TIP3    H236692   5.864   1.307   1.292  0.0543 -1.3495 -0.0545
 5045TIP3   OH236693   0.204   2.688   0.886 -0.4658  0.2325 -0.2747
 5045TIP3    H136694   0.277   2.749   0.890 -0.0415 -0.3469  1.5325
 5045TIP3    H236695   0.131   2.735   0.927 -0.1990 -0.3588  0.9149
 5046TIP3   OH236696   4.944   1.072   2.138  0.2497 -0.0277 -0.1348
 5046TIP3    H136697   4.963   1.022   2.058  1.4285  0.0172  0.0942
 5046TIP3    H236698   4.967   1.162   2.115  1.1592 -0.1076  0.4229
 5047TIP3   OH236699   5.135   1.787   7.690 -0.2654 -0.4375 -0.3260
 5047TIP3    H136700   5.132   1.852   7.619  1.5217  0.1571  0.0971
 5047TIP3    H236701   5.149   1.839   7.769 -0.3173 -1.2416  0.2201
 5048TIP3   OH236702   5.863   0.375   1.325 -0.0648 -0.7655 -0.3353
 5048TIP3    H136703   5.840   0.440   1.258 -0.4506 -0.0296  0.4919
 5048TIP3    H236704   5.908   0.306   1.276 -0.8789 -0.5422 -1.4444
 5049TIP3   OH236705   2.795   0.083   6.634  0.2234 -0.2745  0.0475
 5049TIP3    H136706   2.768   0.170   6.604 -0.1048 -0.2440  0.4278
 5049TIP3    H236707   2.862   0.056   6.570 -0.2724 -0.0996 -0.5617
 5050TIP3   OH236708   2.220   3.888   0.340 -0.0763 -0.3816  0.1128
 5050TIP3    H136709   2.299   3.899   0.288  0.8656 -0.6222  1.4390
 5050TIP3    H236710   2.223   3.960   0.403 -0.6433 -0.6800  0.4899
 5051TIP3   OH236711   3.997   4.392   0.215  0.1747  0.5640 -0.3095
 5051TIP3    H136712   3.950   4.475   0.202 -0.6472 -0.1136 -2.0261
 5051TIP3    H236713   4.015   4.389   0.309 -0.6642  2.2194 -0.0587
 5052TIP3   OH236714   1.696   1.181   8.265  0.0304 -0.2147  0.4087
 5052TIP3    H136715   1.740   1.145   8.342 -0.4308  0.1003  0.8301
 5052TIP3    H236716   1.605   1.154   8.275 -0.0978  0.1227  0.1532
 5053TIP3   OH236717   0.962   0.004   1.793  0.0347  0.0394 -0.5199
 5053TIP3    H136718   1.025   0.047   1.850  0.8606  1.5274 -2.4406
 5053TIP3    H236719   0.899   0.073   1.771 -0.1566 -0.4466 -1.5377
 5054TIP3   OH236720   2.906   1.786   1.298 -0.2033 -0.1079  0.3111
 5054TIP3    H136721   2.912   1.715   1.362  1.5537 -1.0064 -0.7502
 5054TIP3    H236722   2.993   1.827   1.300 -1.0855  1.8176  0.6512
 5055TIP3   OH236723   4.912   0.730   0.170  0.3402 -0.0087  0.2646
 5055TIP3    H136724   4.983   0.681   0.209  0.5149  0.2432  0.2646
 5055TIP3    H236725   4.869   0.668   0.111 -0.8729 -0.8714  1.9741
 5056TIP3   OH236726   6.376   2.746   2.625  0.0803 -0.5898  0.5447
 5056TIP3    H136727   6.433   2.802   2.679 -1.0781  1.7607 -0.5006
 5056TIP3    H236728   6.424   2.736   2.543 -0.0448 -0.4312  0.4500
 5057TIP3   OH236729   1.752   5.637   0.843 -0.2690  0.0120  0.0745
 5057TIP3    H136730   1.678   5.684   0.804 -1.3592 -1.6728 -0.0207
 5057TIP3    H236731   1.744   5.652   0.937 -1.9178 -1.6527  0.2606
 5058TIP3   OH236732   2.776   1.536   1.152  0.2329 -0.0199 -0.4090
 5058TIP3    H136733   2.803   1.573   1.236  0.3715 -0.3912 -0.2876
 5058TIP3    H236734   2.792   1.606   1.088  1.1587 -0.1006 -0.2888
 5059TIP3   OH236735   2.737   2.513   0.821 -0.1671  0.5301 -0.1842
 5059TIP3    H136736   2.764   2.564   0.745  0.1448  1.2122  0.3771
 5059TIP3    H236737   2.816   2.465   0.847 -0.6698 -0.9629 -1.2369
 5060TIP3   OH236738   0.622   3.109   0.234  0.4341 -0.2262 -0.3393
 5060TIP3    H136739   0.639   3.114   0.140  1.5953  0.9625 -0.0922
 5060TIP3    H236740   0.691   3.053   0.268 -0.7918 -1.8127 -0.3457
 5061TIP3   OH236741   3.059   0.997   2.399  0.4971 -0.1229  0.3829
 5061TIP3    H136742   3.108   0.942   2.338 -1.1945 -0.0360 -1.1244
 5061TIP3    H236743   2.989   0.940   2.432 -0.7276  0.8111 -0.5097
 5062TIP3   OH236744   3.952   1.691   1.141 -0.3312  0.2769  0.2377
 5062TIP3    H136745   4.009   1.629   1.096  0.0802  0.0934  0.9928
 5062TIP3    H236746   4.007   1.769   1.153 -0.0114 -0.1328  1.5469
 5063TIP3   OH236747   3.675   3.537   6.384  0.3345 -0.0427 -0.4599
 5063TIP3    H136748   3.602   3.513   6.327 -0.5203 -0.5905  0.7981
 5063TIP3    H236749   3.678   3.632   6.382 -1.7393  0.1030  0.9937
 5064TIP3   OH236750   0.452   2.351   0.957  0.5596  0.5776 -0.2217
 5064TIP3    H136751   0.463   2.267   0.914  0.0474  0.4989 -0.2034
 5064TIP3    H236752   0.509   2.411   0.909  1.4946  0.0593  0.2330
 5065TIP3   OH236753   4.070   3.629   7.668  0.2201  0.3219 -0.6288
 5065TIP3    H136754   4.046   3.651   7.578  0.0549  1.9554 -0.2074
 5065TIP3    H236755   3.990   3.642   7.719  0.7176  1.0050  0.0035
 5066TIP3   OH236756   2.777   1.750   8.275  0.4953  0.0469  0.3776
 5066TIP3    H136757   2.737   1.807   8.341 -0.3519 -0.1444  0.0304
 5066TIP3    H236758   2.821   1.809   8.215 -0.1707  0.3185  0.1595
 5067TIP3   OH236759   1.243   3.198   1.461  0.5016 -0.2230 -0.1263
 5067TIP3    H136760   1.252   3.142   1.538  1.1955 -1.5858 -1.1686
 5067TIP3    H236761   1.220   3.139   1.390  0.5590  0.9162 -1.1298
 5068TIP3   OH236762   2.359   0.023   2.428  0.0587 -0.8525  0.0326
 5068TIP3    H136763   2.371   0.068   2.344  2.2317 -1.4124  0.0017
 5068TIP3    H236764   2.422  -0.049   2.427 -0.2826 -1.2369  1.9076
 5069TIP3   OH236765   1.906   3.884   0.569  0.3720  0.4641 -0.0272
 5069TIP3    H136766   1.922   3.967   0.525  1.4199  0.7170  0.8092
 5069TIP3    H236767   1.987   3.834   0.556 -0.2516 -0.4453 -0.5375
 5070TIP3   OH236768   3.227   2.723   0.234 -0.0239  0.1246 -0.0711
 5070TIP3    H136769   3.242   2.802   0.181  1.0901 -0.7998 -1.2026
 5070TIP3    H236770   3.250   2.749   0.323 -2.8275  2.0029  0.2351
 5071TIP3   OH236771   2.313   5.262   8.748  0.7097  0.6547  0.1446
 5071TIP3    H136772   2.408   5.272   8.757  0.7252  1.3130 -0.6773
 5071TIP3    H236773   2.281   5.349   8.725 -0.2421  0.7009  1.4881
 5072TIP3   OH236774   4.623   4.969   1.759  0.4294  0.1917 -0.0096
 5072TIP3    H136775   4.562   5.043   1.754  0.9625  0.5771 -1.0278
 5072TIP3    H236776   4.637   4.956   1.853 -2.2519 -0.7934  0.3521
 5073TIP3   OH236777   3.105   3.833   1.233 -0.1947  0.4407  0.4354
 5073TIP3    H136778   3.091   3.776   1.309  0.1711 -0.3763 -0.0903
 5073TIP3    H236779   3.198   3.855   1.237 -0.2638  0.7277  0.4514
 5074TIP3   OH236780   5.676   2.332   0.207 -0.0887  0.5909 -0.0525
 5074TIP3    H136781   5.701   2.257   0.261  1.7738  0.0926 -1.5232
 5074TIP3    H236782   5.741   2.399   0.228 -0.6032  1.1492 -0.1820
 5075TIP3   OH236783   5.454   0.255   1.575  0.1331  1.0050  0.2229
 5075TIP3    H136784   5.369   0.297   1.588 -2.0691 -2.4812 -1.4435
 5075TIP3    H236785   5.468   0.258   1.481  0.6660 -0.4314  0.2318
 5076TIP3   OH236786   0.556   5.640   7.500  0.1854 -0.3566  0.2743
 5076TIP3    H136787   0.461   5.639   7.500  0.1180  0.2775 -1.6186
 5076TIP3    H236788   0.579   5.664   7.410  2.1150  0.3574  0.9022
 5077TIP3   OH236789   5.448   1.258   2.254  0.0455  0.0624 -0.0653
 5077TIP3    H136790   5.384   1.326   2.233  0.1537  0.4051  0.6810
 5077TIP3    H236791   5.395   1.186   2.289  0.0058  0.0596 -0.1297
 5078TIP3   OH236792   0.376   0.021   1.627  0.4665 -0.3241 -0.0585
 5078TIP3    H136793   0.321  -0.036   1.573 -0.7399  0.7473 -0.0103
 5078TIP3    H236794   0.361  -0.009   1.716 -0.3827  0.2193 -0.0073
 5079TIP3   OH236795   4.671   6.256   7.415  0.0411  0.2335 -0.5188
 5079TIP3    H136796   4.650   6.170   7.378  1.9675 -0.8532  0.7355
 5079TIP3    H236797   4.697   6.309   7.339  0.1628 -0.7227 -1.1529
 5080TIP3   OH236798   6.527   2.178   7.264 -0.2084 -0.1690  0.4500
 5080TIP3    H136799   6.555   2.263   7.230 -2.6377 -0.1080 -1.7248
 5080TIP3    H236800   6.466   2.200   7.335  1.2585 -0.2203  1.7842
 5081TIP3   OH236801   4.085   0.525   2.560  0.5239  0.5803 -0.5401
 5081TIP3    H136802   4.010   0.467   2.545  0.6280  0.3668 -0.2291
 5081TIP3    H236803   4.048   0.601   2.605  0.8096 -0.4186  1.4755
 5082TIP3   OH236804   2.935   5.961   1.349 -0.3596  0.0370  0.4111
 5082TIP3    H136805   2.970   5.997   1.431  0.4056 -1.7807  0.9297
 5082TIP3    H236806   2.972   5.873   1.344 -1.3396 -0.3145 -1.3129
 5083TIP3   OH236807   4.032   5.456   7.602 -0.1973 -0.3423  0.1722
 5083TIP3    H136808   3.968   5.527   7.608 -0.6950 -0.8657  1.9215
 5083TIP3    H236809   4.011   5.411   7.520  0.2825  1.6322 -1.0743
 5084TIP3   OH236810   5.968   0.676   8.186 -0.4462  0.1700  0.4038
 5084TIP3    H136811   5.968   0.657   8.092  2.1850  1.3012  0.0813
 5084TIP3    H236812   5.916   0.756   8.195  1.9622  1.9571 -0.6523
 5085TIP3   OH236813   1.377   3.491   7.718 -0.2507 -0.1638  0.0341
 5085TIP3    H136814   1.374   3.435   7.641  0.9057 -0.4668  0.1809
 5085TIP3    H236815   1.466   3.478   7.753 -0.7716 -0.1090  1.4629
 5086TIP3   OH236816   2.296   3.745   8.424 -0.9632  0.3843 -0.2352
 5086TIP3    H136817   2.330   3.801   8.493 -2.1296  0.8129  0.0302
 5086TIP3    H236818   2.316   3.792   8.343 -1.4572  0.9473 -0.0450
 5087TIP3   OH236819   2.205   3.131   0.718 -0.1060  0.1684  0.1863
 5087TIP3    H136820   2.280   3.127   0.660  0.5021 -1.7162  1.0086
 5087TIP3    H236821   2.235   3.088   0.799 -0.6923  3.2202  2.1961
 5088TIP3   OH236822   2.921   3.014   6.612 -0.0933  0.0285  0.3432
 5088TIP3    H136823   2.861   2.943   6.590 -0.2187  0.3633 -0.4415
 5088TIP3    H236824   2.998   2.999   6.557 -1.0301  1.7383 -1.6261
 5089TIP3   OH236825   4.702   5.640   8.863 -0.7452  0.5930  0.1848
 5089TIP3    H136826   4.616   5.656   8.901 -0.3406  1.7948  0.6320
 5089TIP3    H236827   4.709   5.545   8.858 -2.0803  0.4799  0.1732
 5090TIP3   OH236828   3.810   0.573   1.544  0.0774  0.6532 -0.3487
 5090TIP3    H136829   3.767   0.634   1.484 -1.6148 -0.6656 -0.5688
 5090TIP3    H236830   3.778   0.598   1.631 -0.5648  0.1678 -0.4325
 5091TIP3   OH236831   1.737   0.305   1.907  0.1319  0.5442 -0.0985
 5091TIP3    H136832   1.776   0.301   1.820 -1.1990 -0.1118 -0.6951
 5091TIP3    H236833   1.757   0.221   1.947 -1.0661 -0.0048 -0.6069
 5092TIP3   OH236834   6.103   3.849   0.416 -0.0134 -0.7069 -0.3037
 5092TIP3    H136835   6.054   3.924   0.450  1.4611  0.2868 -0.2607
 5092TIP3    H236836   6.047   3.812   0.348 -0.6239  0.6726 -0.5801
 5093TIP3   OH236837   0.001   4.379   7.067 -0.0651  0.3619 -0.2782
 5093TIP3    H136838   0.095   4.388   7.050  0.4154 -0.4947  1.7440
 5093TIP3    H236839  -0.025   4.301   7.018  0.6521 -0.3691  0.4821
 5094TIP3   OH236840   2.164   3.818   8.105  0.6354 -0.4032 -0.5636
 5094TIP3    H136841   2.096   3.803   8.171  0.2329  3.7650  0.2093
 5094TIP3    H236842   2.156   3.743   8.045 -2.5378 -1.6577  1.1967
 5095TIP3   OH236843   6.001   0.185   1.187 -0.4995  0.1134 -0.3144
 5095TIP3    H136844   5.991   0.091   1.202 -0.4633  0.1815  0.1849
 5095TIP3    H236845   6.095   0.197   1.177  0.2159  0.6905  4.4874
 5096TIP3   OH236846   1.146   4.897   7.688  0.5247 -0.3440  0.2314
 5096TIP3    H136847   1.170   4.953   7.762  0.3452  0.1450 -0.0758
 5096TIP3    H236848   1.077   4.840   7.723  0.7321 -0.4025  0.5531
 5097TIP3   OH236849   2.097   1.276   1.005 -0.2854 -0.0601  0.1374
 5097TIP3    H136850   2.060   1.224   0.934 -0.9256 -0.0156  0.4355
 5097TIP3    H236851   2.036   1.348   1.017 -0.1954 -0.0769  0.7493
 5098TIP3   OH236852   6.744   5.683   2.367  0.0728 -0.4425 -0.0164
 5098TIP3    H136853   6.651   5.661   2.373 -0.2531  0.2602 -1.7605
 5098TIP3    H236854   6.744   5.776   2.342  1.2966  0.1277  1.9042
 5099TIP3   OH236855   1.880   5.295   8.925  0.1996 -0.5464  0.1199
 5099TIP3    H136856   1.933   5.362   8.880  0.4339 -1.2185 -0.6313
 5099TIP3    H236857   1.832   5.344   8.992  0.1597  0.4256 -0.5897
 5100TIP3   OH236858   0.914   5.079   6.908  0.2083  0.8459 -0.0018
 5100TIP3    H136859   0.874   5.153   6.863 -1.4072  0.2089  0.3189
 5100TIP3    H236860   0.890   5.091   7.000  2.4640  1.4991  0.5508
 5101TIP3   OH236861   5.375   5.678   1.861 -0.1101 -0.0680  0.6405
 5101TIP3    H136862   5.377   5.767   1.898  1.0036 -0.0342  0.5189
 5101TIP3    H236863   5.353   5.690   1.769 -2.6871 -0.1362  1.1635
 5102TIP3   OH236864   5.004   0.813   2.281  0.0961 -0.5439 -0.4000
 5102TIP3    H136865   5.062   0.828   2.355  2.7912 -0.4434 -2.3904
 5102TIP3    H236866   5.006   0.895   2.232  0.8042 -1.5673 -2.1428
 5103TIP3   OH236867   4.831   2.733   0.968  0.3159  0.0705 -0.0492
 5103TIP3    H136868   4.863   2.718   0.879  2.2777 -0.6331  0.7326
 5103TIP3    H236869   4.870   2.816   0.994  1.9663 -1.0009  1.0691
 5104TIP3   OH236870   2.414   3.049   0.533  0.6527  0.5334  0.8446
 5104TIP3    H136871   2.432   3.008   0.448  1.1348 -0.0564  1.2213
 5104TIP3    H236872   2.493   3.033   0.584  0.2359  0.5944  1.5189
 5105TIP3   OH236873   3.180   0.376   2.209  0.2097  0.1348 -0.0631
 5105TIP3    H136874   3.254   0.411   2.259  1.0745 -0.1389 -1.1005
 5105TIP3    H236875   3.211   0.290   2.179  0.4587  1.0349 -2.5927
 5106TIP3   OH236876   0.344   2.373   7.568 -0.4975  0.6832 -0.4665
 5106TIP3    H136877   0.333   2.332   7.483  0.1997 -0.8111  0.1244
 5106TIP3    H236878   0.260   2.361   7.612 -1.1194  2.1502 -1.1968
 5107TIP3   OH236879   3.229   4.004   8.362  0.6148 -0.1312  0.5941
 5107TIP3    H136880   3.233   4.092   8.401  0.9030 -0.3057  0.9614
 5107TIP3    H236881   3.170   3.956   8.420 -1.1465  0.3612 -0.6932
 5108TIP3   OH236882   0.168   6.488   6.429  0.0166 -0.3224 -0.0607
 5108TIP3    H136883   0.209   6.409   6.465  0.5522 -0.3758 -0.7616
 5108TIP3    H236884   0.231   6.558   6.447 -0.2145 -0.1481  0.0796
 5109TIP3   OH236885   5.436   4.493   6.846 -0.8546  0.0700 -0.0801
 5109TIP3    H136886   5.451   4.401   6.823 -1.3104  0.1117 -0.5612
 5109TIP3    H236887   5.397   4.531   6.767 -0.3736  0.7531  0.0115
 5110TIP3   OH236888   4.997   4.426   2.330 -0.1981  0.4350 -0.1534
 5110TIP3    H136889   4.999   4.332   2.349  1.7071  0.6163  0.6920
 5110TIP3    H236890   4.904   4.449   2.338 -0.4258 -0.8927  2.0911
 5111TIP3   OH236891   4.747   1.515   0.301  0.2270  0.2940  0.1931
 5111TIP3    H136892   4.766   1.487   0.390 -1.4056 -0.7427  0.2476
 5111TIP3    H236893   4.777   1.443   0.246 -0.9588 -0.1557  0.1015
 5112TIP3   OH236894   6.624   3.210   8.015 -0.4786 -0.0317  0.0441
 5112TIP3    H136895   6.547   3.156   8.037 -2.0280  2.2312  0.5223
 5112TIP3    H236896   6.653   3.176   7.930 -0.8010 -2.1577  0.7128
 5113TIP3   OH236897   3.326   4.679   7.582  0.2437 -0.5705 -0.1138
 5113TIP3    H136898   3.247   4.634   7.612 -0.0898 -0.0778 -0.2371
 5113TIP3    H236899   3.315   4.686   7.487 -0.5293  1.2739  0.0752
 5114TIP3   OH236900   6.723   6.702   8.481 -0.4165 -0.0833 -0.2335
 5114TIP3    H136901   6.796   6.648   8.513 -1.2812  0.0226  2.0702
 5114TIP3    H236902   6.669   6.641   8.431  0.5689 -0.4550 -0.8807
 5115TIP3   OH236903   3.357   1.455   1.904 -0.3919  0.1965 -0.3021
 5115TIP3    H136904   3.338   1.545   1.929 -1.7379 -0.3912  0.9207
 5115TIP3    H236905   3.451   1.454   1.887 -0.5050  2.0122 -1.2279
 5116TIP3   OH236906   2.800   6.251   8.397  0.1403 -0.6242 -0.7027
 5116TIP3    H136907   2.885   6.218   8.369  0.6218  0.2541 -0.2969
 5116TIP3    H236908   2.818   6.303   8.475 -0.7482 -0.3000 -0.6977
 5117TIP3   OH236909   3.133   6.688   0.117  0.5346  0.1332 -0.8640
 5117TIP3    H136910   3.173   6.626   0.178  0.3792 -0.4816 -1.3833
 5117TIP3    H236911   3.079   6.744   0.173  0.4553 -0.3733 -0.4231
 5118TIP3   OH236912   2.496   3.029   7.619  0.4593 -0.2862 -0.4145
 5118TIP3    H136913   2.469   3.116   7.648 -3.3322 -0.8467 -1.6707
 5118TIP3    H236914   2.510   3.038   7.525  1.5568 -0.7612 -0.3091
 5119TIP3   OH236915   2.923   6.339   1.612 -0.0098 -0.5016  0.1366
 5119TIP3    H136916   2.905   6.414   1.555  2.6316 -0.5046 -0.8464
 5119TIP3    H236917   2.836   6.301   1.630 -1.3832  2.4626  0.3081
 5120TIP3   OH236918   0.728   3.678   1.765  0.0335 -0.5897 -0.0024
 5120TIP3    H136919   0.778   3.602   1.735  1.5364  0.7318 -1.0174
 5120TIP3    H236920   0.755   3.690   1.856 -1.0554 -1.8986  0.5154
 5121TIP3   OH236921   2.682   3.015   1.027  0.1359  1.0113  0.2567
 5121TIP3    H136922   2.718   2.933   0.993 -1.5503  0.9063 -1.4221
 5121TIP3    H236923   2.694   3.008   1.122  0.7615 -0.8033  0.0972
 5122TIP3   OH236924   4.065   4.187   7.634  0.0010  0.2349  0.1894
 5122TIP3    H136925   4.138   4.133   7.664  0.7781  0.3295 -1.4138
 5122TIP3    H236926   4.094   4.277   7.648  0.8447  0.3153 -1.7322
 5123TIP3   OH236927   4.947   2.694   6.794  0.5697  0.0939  0.7302
 5123TIP3    H136928   4.938   2.704   6.699  0.4090 -0.0750  0.7281
 5123TIP3    H236929   4.968   2.601   6.806 -2.4312 -0.6429  1.0710
 5124TIP3   OH236930   2.719   6.129   1.335 -0.1088  0.0243  0.0117
 5124TIP3    H136931   2.663   6.106   1.261  0.7207 -0.5381 -0.4523
 5124TIP3    H236932   2.775   6.053   1.347  1.0918  0.8769 -0.0444
 5125TIP3   OH236933   1.447   2.230   1.258  0.3764 -0.6428 -0.8645
 5125TIP3    H136934   1.533   2.223   1.216  1.3065  1.5685  0.4958
 5125TIP3    H236935   1.466   2.240   1.351 -1.3222  0.5055 -0.5955
 5126TIP3   OH236936   4.993   3.505   0.464  0.4955 -0.0726  0.4203
 5126TIP3    H136937   5.066   3.509   0.526 -1.5984  1.5969  3.0211
 5126TIP3    H236938   4.942   3.429   0.493  0.8363 -0.8863 -1.0125
 5127TIP3   OH236939   4.021   2.565   0.537  0.0400 -0.1098  0.1622
 5127TIP3    H136940   3.995   2.526   0.620  1.5529  1.1476  1.3070
 5127TIP3    H236941   4.005   2.659   0.549  0.2453  0.0866 -0.9876
 5128TIP3   OH236942   1.508   2.849   7.269  0.4405  0.5020  0.3968
 5128TIP3    H136943   1.449   2.905   7.319  1.1623  0.4922  1.2843
 5128TIP3    H236944   1.592   2.857   7.314  1.1184  0.4919 -0.8135
 5129TIP3   OH236945   2.557   3.410   7.331  0.5995 -0.6283  0.0783
 5129TIP3    H136946   2.608   3.396   7.411 -1.8010 -1.3715  1.5647
 5129TIP3    H236947   2.496   3.337   7.328 -1.3204  0.9272 -0.8568
 5130TIP3   OH236948   2.787   1.826   1.633 -0.3556 -0.3778  0.2772
 5130TIP3    H136949   2.768   1.732   1.629 -0.7319 -0.3960  1.7222
 5130TIP3    H236950   2.701   1.867   1.639 -0.1892  0.0615 -0.2762
 5131TIP3   OH236951   6.511   1.156   8.495  0.7063  0.0910  0.4601
 5131TIP3    H136952   6.547   1.244   8.494 -1.4534  1.0368  0.2404
 5131TIP3    H236953   6.456   1.153   8.574 -1.5982  0.0281 -1.0379
 5132TIP3   OH236954   1.168   6.470   8.628  0.1194 -0.0060 -0.3462
 5132TIP3    H136955   1.243   6.489   8.572  0.2970 -1.2752 -0.5633
 5132TIP3    H236956   1.094   6.466   8.569  0.2099 -0.7587 -0.4084
 5133TIP3   OH236957   2.557   3.535   1.400  0.0593  0.2503  0.3536
 5133TIP3    H136958   2.645   3.561   1.374 -0.1509 -0.4568 -1.1431
 5133TIP3    H236959   2.563   3.525   1.495  1.2470  1.4635  0.4390
 5134TIP3   OH236960   4.236   3.777   7.471  0.2494  0.2859  0.7844
 5134TIP3    H136961   4.291   3.842   7.515 -0.1472  2.0467 -1.1812
 5134TIP3    H236962   4.159   3.825   7.442  0.3851 -0.7825 -1.6159
 5135TIP3   OH236963   0.372   5.583   1.852  0.9339 -0.0865 -0.3820
 5135TIP3    H136964   0.368   5.677   1.867 -1.6268 -0.2248  0.3308
 5135TIP3    H236965   0.334   5.571   1.765 -1.0304 -0.5670  0.4830
 5136TIP3   OH236966   3.304   0.550   2.589 -0.8123 -0.0283 -0.7662
 5136TIP3    H136967   3.210   0.553   2.605 -1.0057  1.1967 -1.9241
 5136TIP3    H236968   3.315   0.483   2.521 -0.7424 -0.7376 -0.0637
 5137TIP3   OH236969   1.761   2.835   1.384 -0.2682 -0.1250 -0.0046
 5137TIP3    H136970   1.752   2.769   1.453  0.1605 -1.2060 -0.9461
 5137TIP3    H236971   1.742   2.788   1.303 -1.6319  1.3234 -0.5821
 5138TIP3   OH236972   5.621   0.021   8.253  0.0672 -0.1043  0.7418
 5138TIP3    H136973   5.577  -0.061   8.234  0.8425 -0.2776 -0.4529
 5138TIP3    H236974   5.714   0.001   8.244  0.2488  1.0787 -0.4535
 5139TIP3   OH236975   4.462   4.543   7.761  0.2835 -0.6444  0.0008
 5139TIP3    H136976   4.478   4.473   7.697 -1.7490 -2.8616  1.7265
 5139TIP3    H236977   4.532   4.532   7.826 -0.8170 -2.1581  1.0212
 5140TIP3   OH236978   6.118   2.156   8.747 -0.1948  0.6968  0.1612
 5140TIP3    H136979   6.138   2.248   8.730 -1.1371  0.8625 -0.1421
 5140TIP3    H236980   6.113   2.149   8.842  1.3045  0.6299  0.2485
 5141TIP3   OH236981   1.093   6.733   7.820 -0.1873  0.9824  0.0958
 5141TIP3    H136982   1.134   6.734   7.733 -0.1861 -1.9529 -0.0443
 5141TIP3    H236983   1.032   6.807   7.819 -0.6080  0.6974 -2.6408
 5142TIP3   OH236984   4.484   0.039   2.066  0.3627  0.7826  0.5590
 5142TIP3    H136985   4.547   0.103   2.101  1.5455 -0.5117  0.9156
 5142TIP3    H236986   4.475   0.062   1.974 -1.4379  3.1647  1.2276
 5143TIP3   OH236987   3.524   1.636   1.490 -0.3306  0.3652 -0.7837
 5143TIP3    H136988   3.467   1.641   1.414 -2.7050  1.6864  0.9611
 5143TIP3    H236989   3.509   1.718   1.537 -1.1305 -1.5032  2.5254
 5144TIP3   OH236990   5.683   5.583   6.808  0.7315  0.3877  0.1392
 5144TIP3    H136991   5.639   5.498   6.802 -1.1383  1.1679  1.7888
 5144TIP3    H236992   5.771   5.562   6.842 -0.5148 -0.7560  2.9615
 5145TIP3   OH236993   0.094   2.420   7.701 -0.0119  0.0287 -0.2230
 5145TIP3    H136994   0.050   2.410   7.616  2.9348  0.5194 -1.9261
 5145TIP3    H236995   0.065   2.506   7.732 -0.6543  0.1231 -1.0302
 5146TIP3   OH236996   2.661   5.578   0.324 -0.2852 -0.0015 -0.2284
 5146TIP3    H136997   2.591   5.607   0.383  0.3625  2.4719 -0.5505
 5146TIP3    H236998   2.628   5.599   0.237  0.3726  0.0856 -0.4612
 5147TIP3   OH236999   0.484   5.300   1.268  0.2084 -0.0047  0.8801
 5147TIP3    H137000   0.458   5.326   1.179 -1.9440  0.7846  1.6681
 5147TIP3    H237001   0.579   5.314   1.270 -0.0448  2.6479 -0.4774
 5148TIP3   OH237002   2.784   0.182   1.832  0.1623  0.0575 -0.1519
 5148TIP3    H137003   2.877   0.171   1.849  0.1490  1.6754  1.1627
 5148TIP3    H237004   2.778   0.184   1.736  1.6586  1.1716 -0.2666
 5149TIP3   OH237005   5.862   4.467   0.162  0.9697 -0.0815  0.7606
 5149TIP3    H137006   5.814   4.395   0.121 -0.1674  1.0329  0.0808
 5149TIP3    H237007   5.953   4.452   0.136  0.3782  0.2370 -1.7302
 5150TIP3   OH237008   2.729   3.529   0.904  0.3952  0.3990  0.1725
 5150TIP3    H137009   2.705   3.438   0.887  1.5653  0.2521 -0.8491
 5150TIP3    H237010   2.810   3.524   0.955  1.6655  0.8086 -1.6978
 5151TIP3   OH237011   2.933   3.590   7.651 -0.1643 -0.2668 -0.1732
 5151TIP3    H137012   2.925   3.506   7.696  1.1194  0.1669  0.9547
 5151TIP3    H237013   3.000   3.637   7.700 -0.8716  1.4422 -0.7635
 5152TIP3   OH237014   4.634   6.237   8.899 -0.4295  0.4372 -0.3048
 5152TIP3    H137015   4.690   6.160   8.894 -0.5608  0.2730  0.5384
 5152TIP3    H237016   4.634   6.261   8.992 -2.7925 -0.3744 -0.0267
 5153TIP3   OH237017   5.800   3.587   1.705  0.4562 -0.2724  0.1021
 5153TIP3    H137018   5.822   3.655   1.769  1.8487 -0.0728 -0.5674
 5153TIP3    H237019   5.799   3.632   1.621  0.5008 -0.8988 -0.2399
 5154TIP3   OH237020   6.180   6.421   8.339  0.8753  0.0366  0.6936
 5154TIP3    H137021   6.090   6.431   8.368  0.6970  0.7692 -0.0833
 5154TIP3    H237022   6.210   6.340   8.381 -0.3318 -0.5477  0.4787
 5155TIP3   OH237023   6.387   5.056   6.396  0.1529 -0.3482 -0.6223
 5155TIP3    H137024   6.343   5.071   6.312 -2.0181  0.3652  0.5726
 5155TIP3    H237025   6.321   5.074   6.462  1.6347 -1.4305  1.2805
 5156TIP3   OH237026   4.710   2.916   1.390 -0.1646  0.0967  0.9686
 5156TIP3    H137027   4.726   2.900   1.483  1.7202 -1.7267  0.4125
 5156TIP3    H237028   4.702   2.829   1.352 -2.4240  0.8102 -0.4066
 5157TIP3   OH237029   4.490   1.852   8.927 -0.4259 -0.2533 -0.1222
 5157TIP3    H137030   4.580   1.862   8.960 -0.5148  2.3548 -0.4186
 5157TIP3    H237031   4.500   1.842   8.833 -0.4450  0.3729 -0.1932
 5158TIP3   OH237032   2.165   3.791   2.533 -0.1807  0.5626  0.1225
 5158TIP3    H137033   2.170   3.708   2.581 -2.3278  0.6232  0.5984
 5158TIP3    H237034   2.086   3.782   2.479 -0.4306  2.2462  0.1450
 5159TIP3   OH237035   2.811   5.673   8.823  0.1114  0.0695 -0.3324
 5159TIP3    H137036   2.906   5.667   8.838  0.3064  0.4383 -1.3713
 5159TIP3    H237037   2.780   5.732   8.892  0.6657  0.1146 -0.1144
 5160TIP3   OH237038   1.587   0.112   2.397  0.7309 -0.3585  0.1061
 5160TIP3    H137039   1.638   0.159   2.462 -0.0804  1.0534 -0.2441
 5160TIP3    H237040   1.590   0.020   2.425  1.9212 -0.0440  1.0778
 5161TIP3   OH237041   2.768   3.353   7.508 -0.0344 -0.0394 -0.1909
 5161TIP3    H137042   2.845   3.297   7.515  0.3466  0.3124 -1.2580
 5161TIP3    H237043   2.793   3.434   7.553  0.7836  0.6086 -1.7109
 5162TIP3   OH237044   0.204   4.411   1.304 -0.2397 -0.5114  0.1183
 5162TIP3    H137045   0.179   4.472   1.235  4.9212  0.9038 -0.8824
 5162TIP3    H237046   0.165   4.447   1.384 -0.2457  2.0915 -0.9771
 5163TIP3   OH237047   1.382   4.240   0.123  0.0149 -0.0664 -0.5001
 5163TIP3    H137048   1.289   4.235   0.141  0.0666  0.7853  0.0540
 5163TIP3    H237049   1.420   4.278   0.202  0.7650  0.0867 -0.9209
 5164TIP3   OH237050   1.985   2.174   8.061 -0.1587  0.2190 -0.2014
 5164TIP3    H137051   2.068   2.127   8.072 -0.5977 -0.4401  0.4269
 5164TIP3    H237052   2.010   2.264   8.043  0.6881  0.1139  0.4057
 5165TIP3   OH237053   3.564   3.532   0.319  0.4706  0.4163  0.0113
 5165TIP3    H137054   3.522   3.450   0.292  0.2413 -0.0095  1.5401
 5165TIP3    H237055   3.654   3.524   0.286  0.5556 -0.6349  0.4296
 5166TIP3   OH237056   0.400   6.084   1.642 -0.2415  0.2236  0.0486
 5166TIP3    H137057   0.408   6.164   1.591 -1.4103  1.3276  1.5104
 5166TIP3    H237058   0.341   6.028   1.591 -1.8199  1.5157  0.3812
 5167TIP3   OH237059   1.886   5.026   1.471 -0.1542  0.9591  0.2963
 5167TIP3    H137060   1.974   4.988   1.479  0.3842  1.9178 -0.7603
 5167TIP3    H237061   1.841   4.970   1.408 -0.3289  0.4172  0.9024
 5168TIP3   OH237062   0.484   1.833   8.550  0.1478 -0.4901  0.1760
 5168TIP3    H137063   0.474   1.910   8.494 -3.1114 -0.3890  0.7285
 5168TIP3    H237064   0.527   1.866   8.629  2.0844 -0.0518 -0.9879
 5169TIP3   OH237065   1.773   0.300   0.180 -0.6206  0.0872 -0.1396
 5169TIP3    H137066   1.760   0.208   0.204  0.8776  0.0670  0.6944
 5169TIP3    H237067   1.820   0.338   0.254 -1.3267  1.5751 -0.4144
 5170TIP3   OH237068   1.476   2.321   1.511 -0.1710 -0.0495  0.1818
 5170TIP3    H137069   1.472   2.417   1.517  1.2936  0.0618 -0.3076
 5170TIP3    H237070   1.519   2.294   1.592 -0.2073 -0.2716  0.1274
 5171TIP3   OH237071   2.269   0.481   8.012 -0.0656 -0.5580  0.8199
 5171TIP3    H137072   2.206   0.533   7.963  1.2469  0.6168  0.3237
 5171TIP3    H237073   2.234   0.392   8.010 -0.5791 -0.3506 -1.3476
 5172TIP3   OH237074   1.110   3.376   1.138 -0.6312 -0.5070  0.4697
 5172TIP3    H137075   1.113   3.290   1.096 -0.4813 -0.7216  0.9114
 5172TIP3    H237076   1.192   3.381   1.186 -1.2649 -0.7152  1.6076
 5173TIP3   OH237077   2.177   2.443   0.518  0.1299 -0.4930 -0.5082
 5173TIP3    H137078   2.219   2.365   0.482  1.9874 -0.0557  0.6215
 5173TIP3    H237079   2.125   2.411   0.592 -0.4483 -0.8473 -1.0561
 5174TIP3   OH237080   0.681   5.259   8.937 -0.0621 -0.2088 -0.1940
 5174TIP3    H137081   0.754   5.199   8.929 -1.8319 -2.3146 -2.3465
 5174TIP3    H237082   0.720   5.346   8.930  2.1693 -1.2571 -1.9674
 5175TIP3   OH237083   1.647   0.737   7.631  0.0067  0.5621 -0.5114
 5175TIP3    H137084   1.682   0.659   7.588 -0.2395  0.5734 -0.7345
 5175TIP3    H237085   1.651   0.717   7.724 -2.3128 -0.7108 -0.6259
 5176TIP3   OH237086   6.330   2.916   7.033 -0.7266 -0.7102 -0.1354
 5176TIP3    H137087   6.355   2.868   6.954  0.4238  0.5341 -0.5627
 5176TIP3    H237088   6.318   3.006   7.004  0.8070 -0.0092  1.2636
 5177TIP3   OH237089   0.566   0.988   0.792 -0.5693  0.2316  0.3058
 5177TIP3    H137090   0.612   1.053   0.740 -0.3506  0.6734  1.0326
 5177TIP3    H237091   0.627   0.967   0.863 -1.3317  0.5457  1.0675
 5178TIP3   OH237092   5.402   5.365   1.478  0.4510 -0.1950 -0.0247
 5178TIP3    H137093   5.440   5.375   1.391  1.5452 -3.6680 -0.0847
 5178TIP3    H237094   5.472   5.391   1.538  0.1852  0.8257 -0.1398
 5179TIP3   OH237095   6.032   1.003   0.807  0.3332  0.0816 -0.4241
 5179TIP3    H137096   6.091   0.942   0.850  1.6286  0.4697 -1.5824
 5179TIP3    H237097   5.983   0.950   0.745 -0.8152 -0.2956  0.7503
 5180TIP3   OH237098   4.911   1.454   7.746  0.5681 -0.0272  0.2946
 5180TIP3    H137099   4.991   1.412   7.779 -1.3138 -2.8236  1.6720
 5180TIP3    H237100   4.910   1.433   7.652  0.5697 -1.6198  0.6215
 5181TIP3   OH237101   2.117   3.683   1.994  0.6042  0.1595  0.0378
 5181TIP3    H137102   2.099   3.710   1.904 -0.9695  0.0452  0.2936
 5181TIP3    H237103   2.055   3.734   2.047 -0.5935 -1.9400  0.7790
 5182TIP3   OH237104   2.099   6.144   8.834  0.4270 -0.3970 -0.6744
 5182TIP3    H137105   2.036   6.177   8.897 -0.6146 -1.7542 -0.9595
 5182TIP3    H237106   2.058   6.065   8.798  1.1360  0.1366 -2.7976
 5183TIP3   OH237107   5.318   6.193   1.204  0.1238 -0.3831 -0.0824
 5183TIP3    H137108   5.303   6.162   1.293  0.0529 -0.5480 -0.1495
 5183TIP3    H237109   5.230   6.206   1.168  0.1246  1.9258  0.6206
 5184TIP3   OH237110   2.281   1.629   7.801 -0.1178  0.5591 -0.6469
 5184TIP3    H137111   2.292   1.558   7.738  1.3004  1.0853 -1.0429
 5184TIP3    H237112   2.202   1.675   7.772  0.3824  0.6573 -1.9371
 5185TIP3   OH237113   5.149   2.423   7.983 -0.6173  0.3380 -0.2208
 5185TIP3    H137114   5.099   2.423   7.901  1.0594  2.8554 -1.3845
 5185TIP3    H237115   5.213   2.494   7.972  4.3414 -3.4790  0.4968
 5186TIP3   OH237116   5.001   4.566   0.702 -0.1113  0.6074 -0.2907
 5186TIP3    H137117   4.947   4.544   0.625 -0.2589 -2.5218  0.5462
 5186TIP3    H237118   5.090   4.568   0.668 -0.4171  2.5050 -1.0835
 5187TIP3   OH237119   5.958   3.879   0.986 -0.2453  0.2523 -0.1842
 5187TIP3    H137120   6.002   3.843   1.064  0.7044 -0.2234 -0.9175
 5187TIP3    H237121   5.865   3.874   1.006 -0.0393 -0.6204  0.5970
 5188TIP3   OH237122   4.559   4.146   0.057  0.4912 -0.1688 -0.3879
 5188TIP3    H137123   4.570   4.123  -0.035 -0.5124  1.3105 -0.9336
 5188TIP3    H237124   4.583   4.239   0.061  1.2322 -0.3943  1.0065
 5189TIP3   OH237125   6.253   0.519   7.926 -0.2758 -0.8106 -0.2874
 5189TIP3    H137126   6.220   0.473   7.849  2.1942 -1.4940 -1.0403
 5189TIP3    H237127   6.283   0.603   7.892 -1.0376 -0.2657  0.3444
 5190TIP3   OH237128   0.302   6.490   0.687 -0.6928  0.7151 -0.0431
 5190TIP3    H137129   0.234   6.537   0.637 -0.5037  0.3089 -0.6927
 5190TIP3    H237130   0.326   6.416   0.631  0.6948  1.1661 -0.0948
 5191TIP3   OH237131   0.883   2.869   1.343 -0.5660  0.2553 -0.5857
 5191TIP3    H137132   0.922   2.882   1.430 -2.6013  1.7746  0.2130
 5191TIP3    H237133   0.864   2.776   1.339  1.3023 -0.1822 -0.2279
 5192TIP3   OH237134   0.272   1.295   7.937 -0.5886  0.1265  0.0746
 5192TIP3    H137135   0.237   1.358   7.873  1.9584  1.7189  0.1251
 5192TIP3    H237136   0.275   1.212   7.890  0.7666  1.1538 -1.7547
 5193TIP3   OH237137   4.640   1.586   8.276  0.2760 -0.2630  0.7509
 5193TIP3    H137138   4.732   1.598   8.254  0.6750  0.5872  2.6327
 5193TIP3    H237139   4.630   1.629   8.361 -2.5009  2.1747 -0.6256
 5194TIP3   OH237140   2.751   0.756   1.826  0.5163  0.3206 -0.0141
 5194TIP3    H137141   2.694   0.743   1.751  0.2287  0.4775  0.1742
 5194TIP3    H237142   2.760   0.852   1.833  0.2870  0.3170  0.3414
 5195TIP3   OH237143   3.620   5.098   8.523 -0.3227  0.1877 -0.1899
 5195TIP3    H137144   3.711   5.102   8.553  0.1471  2.6270 -1.7041
 5195TIP3    H237145   3.626   5.070   8.432 -1.2006 -0.6269 -0.0089
 5196TIP3   OH237146   5.327   4.432   7.703 -0.5265 -0.0301 -0.1556
 5196TIP3    H137147   5.251   4.483   7.733  0.0809  0.3742  0.7520
 5196TIP3    H237148   5.402   4.479   7.739  0.1041 -1.0060 -0.1862
 5197TIP3   OH237149   2.121   5.416   1.887 -0.2412  0.4056 -0.0256
 5197TIP3    H137150   2.183   5.351   1.921 -2.3435 -1.4920  0.3729
 5197TIP3    H237151   2.110   5.479   1.959 -0.5288 -0.5541  0.7865
 5198TIP3   OH237152   3.520   0.724   0.538 -0.0150 -0.1118 -0.0080
 5198TIP3    H137153   3.569   0.729   0.455 -0.6617 -0.7728 -0.4433
 5198TIP3    H237154   3.458   0.796   0.533 -1.6119 -1.4848 -1.1600
 5199TIP3   OH237155   2.624   1.378   8.380 -0.2056  0.1280 -0.1636
 5199TIP3    H137156   2.570   1.415   8.309 -0.5130  0.6624  0.3393
 5199TIP3    H237157   2.561   1.360   8.450  0.1052 -0.3673 -0.0037
 5200TIP3   OH237158   1.424   5.681   2.201 -0.2992 -0.0351  0.1775
 5200TIP3    H137159   1.415   5.699   2.108  2.3172  0.7021  0.0038
 5200TIP3    H237160   1.452   5.590   2.207  0.0878  0.0883  0.2222
 5201TIP3   OH237161   1.258   2.349   7.377  0.7145 -0.6205 -0.0393
 5201TIP3    H137162   1.204   2.316   7.305  1.5849 -2.6751  0.2040
 5201TIP3    H237163   1.298   2.271   7.416  0.1649  0.3885  2.7942
 5202TIP3   OH237164   3.284   3.558   0.788  0.2501 -0.3262 -0.1075
 5202TIP3    H137165   3.347   3.600   0.729 -0.9215  0.6076 -0.7547
 5202TIP3    H237166   3.272   3.622   0.858 -0.0690 -0.4350 -0.0615
 5203TIP3   OH237167   2.384   1.850   7.923  0.1945  0.4316 -0.2140
 5203TIP3    H137168   2.464   1.812   7.959 -1.1278 -0.9157  1.4859
 5203TIP3    H237169   2.362   1.794   7.849  0.6602  0.6312 -0.5075
 5204TIP3   OH237170   1.720   0.773   1.414  0.2186 -0.1530  0.3572
 5204TIP3    H137171   1.774   0.764   1.493 -0.6429  0.9145  1.0962
 5204TIP3    H237172   1.638   0.729   1.436 -0.2940  0.7626  0.3497
 5205TIP3   OH237173   1.891   3.313   1.024 -0.6358  0.2001 -0.7037
 5205TIP3    H137174   1.898   3.236   1.080 -0.5335  1.1558  0.6410
 5205TIP3    H237175   1.967   3.307   0.965  0.9785  0.6505  1.2050
 5206TIP3   OH237176   2.823   5.128   8.418  1.2701  0.1748  0.1345
 5206TIP3    H137177   2.758   5.199   8.416  0.2288 -0.4212  4.1812
 5206TIP3    H237178   2.793   5.067   8.351  0.3873  2.0614 -1.2919
 5207TIP3   OH237179   3.033   2.249   8.666  0.4251 -0.6975 -0.0693
 5207TIP3    H137180   2.961   2.208   8.715 -0.6134  1.1954  0.0709
 5207TIP3    H237181   3.049   2.188   8.594 -1.9100 -0.8278 -0.5729
 5208TIP3   OH237182   4.185   5.222   8.087 -0.0676  0.3473  0.0746
 5208TIP3    H137183   4.246   5.265   8.147 -0.4388 -0.1124  0.8129
 5208TIP3    H237184   4.130   5.293   8.054  0.6160  0.7086 -0.2990
 5209TIP3   OH237185   3.326   5.829   7.422 -0.1824  0.2621 -0.4320
 5209TIP3    H137186   3.378   5.861   7.349 -0.8241  1.4523 -0.3976
 5209TIP3    H237187   3.244   5.879   7.417  0.1369  1.1047  1.6466
 5210TIP3   OH237188   4.626   2.241   8.377 -0.0783  0.3810  0.5332
 5210TIP3    H137189   4.721   2.235   8.384  0.0304  0.3435 -0.8374
 5210TIP3    H237190   4.597   2.152   8.358 -0.4285  0.3493  1.1557
 5211TIP3   OH237191   1.145   2.784   7.262  0.2201 -0.5898 -0.4036
 5211TIP3    H137192   1.131   2.770   7.356  1.0749  0.6705 -0.0626
 5211TIP3    H237193   1.229   2.742   7.244  2.0942  2.5303  0.3265
 5212TIP3   OH237194   1.606   5.403   0.422 -0.2201 -0.4067 -0.0394
 5212TIP3    H137195   1.569   5.481   0.464  0.3198  0.5601 -1.3115
 5212TIP3    H237196   1.540   5.335   0.437 -0.6570  0.2494  1.1811
 5213TIP3   OH237197   1.788   5.562   2.217  0.2832 -0.1618  0.5073
 5213TIP3    H137198   1.796   5.642   2.165 -1.7985 -2.6285 -4.2497
 5213TIP3    H237199   1.708   5.575   2.268  1.3441  1.6393  1.8403
 5214TIP3   OH237200   3.558   2.267   0.626 -0.1361 -0.2577  0.6422
 5214TIP3    H137201   3.589   2.331   0.562 -0.1532 -0.9854 -0.1079
 5214TIP3    H237202   3.636   2.247   0.678 -0.4327  1.3866  1.8061
 5215TIP3   OH237203   4.728   0.861   2.176  0.4662 -0.2575 -0.0864
 5215TIP3    H137204   4.820   0.859   2.203  0.7084  0.5614 -0.7800
 5215TIP3    H237205   4.681   0.813   2.244  1.4920 -1.3016 -0.0741
 5216TIP3   OH237206   0.922   0.414   7.820 -0.3541  0.0101 -0.3739
 5216TIP3    H137207   0.949   0.342   7.877 -1.9532  0.0675  0.5327
 5216TIP3    H237208   0.826   0.406   7.815 -0.6211  2.2459  0.0066
 5217TIP3   OH237209   4.865   3.388   1.906  0.1182  0.4685  0.1542
 5217TIP3    H137210   4.896   3.316   1.852  0.9689  1.7831 -1.1911
 5217TIP3    H237211   4.770   3.383   1.901  0.1828  0.4124 -1.2843
 5218TIP3   OH237212   6.696   5.246   7.516  0.3167 -0.3193 -0.4077
 5218TIP3    H137213   6.749   5.324   7.495 -1.4467  0.6563 -1.4474
 5218TIP3    H237214   6.747   5.173   7.480  1.0850  0.5553 -1.1734
 5219TIP3   OH237215   5.395   1.142   7.667  0.3358 -0.1051  0.2262
 5219TIP3    H137216   5.380   1.111   7.756 -3.0608  1.0043  0.1568
 5219TIP3    H237217   5.447   1.073   7.626  0.9089 -1.2353  2.6659
 5220TIP3   OH237218   4.746   6.524   1.455 -0.0420  0.1743 -0.0578
 5220TIP3    H137219   4.667   6.558   1.495 -0.3917 -0.8122  0.1188
 5220TIP3    H237220   4.817   6.558   1.509 -0.5630 -2.5010  2.5836
 5221TIP3   OH237221   4.311   1.169   7.420 -0.4711 -0.3652  0.3343
 5221TIP3    H137222   4.365   1.200   7.347 -1.4315  0.6435  0.0222
 5221TIP3    H237223   4.332   1.228   7.492 -1.1385  0.0387  0.2099
 5222TIP3   OH237224   2.160   2.275   1.379  0.3489  0.3768 -0.1401
 5222TIP3    H137225   2.215   2.311   1.309 -1.0950  1.5812 -0.7023
 5222TIP3    H237226   2.080   2.248   1.334 -0.0525 -0.1397  0.8644
 5223TIP3   OH237227   4.879   4.605   1.850 -0.2188  0.2054 -0.1545
 5223TIP3    H137228   4.871   4.580   1.942 -1.9425  0.0670 -0.3050
 5223TIP3    H237229   4.938   4.539   1.812 -1.4612 -1.2355  0.3271
 5224TIP3   OH237230   1.719   2.477   1.273 -0.0077 -0.3062  0.2673
 5224TIP3    H137231   1.753   2.473   1.362  0.1961 -0.3953  0.1861
 5224TIP3    H237232   1.674   2.394   1.261 -1.4504  0.3675  0.8496
 5225TIP3   OH237233   2.435   0.874   1.804  0.0927  0.3325 -0.3717
 5225TIP3    H137234   2.421   0.908   1.716  0.2303  2.9371  0.5093
 5225TIP3    H237235   2.460   0.951   1.855 -2.1865 -0.6275  2.4542
 5226TIP3   OH237236   4.392   1.377   2.322  0.3035  0.2950  0.2917
 5226TIP3    H137237   4.467   1.417   2.367  1.2302 -1.2940  0.2745
 5226TIP3    H237238   4.377   1.295   2.370 -2.1078  1.0254  0.9225
 5227TIP3   OH237239   1.548   4.797   6.846 -0.2248 -0.2540 -0.2086
 5227TIP3    H137240   1.623   4.739   6.832  1.5022  1.2056  2.2224
 5227TIP3    H237241   1.537   4.842   6.763  1.1386 -1.0159 -0.8352
 5228TIP3   OH237242   2.163   3.359   8.830 -0.9983 -0.0720  0.9711
 5228TIP3    H137243   2.091   3.298   8.815 -1.2398  0.3169  0.5502
 5228TIP3    H237244   2.124   3.446   8.824 -0.3752  0.1589  0.0503
 5229TIP3   OH237245   6.278   5.110   8.453 -0.0088 -0.4626 -0.1066
 5229TIP3    H137246   6.322   5.195   8.444 -1.7670  0.4033 -1.0763
 5229TIP3    H237247   6.342   5.046   8.421  1.8242  0.2930  1.7965
 5230TIP3   OH237248   6.543   6.002   0.948 -0.3165 -0.2386 -0.3613
 5230TIP3    H137249   6.537   5.969   1.037 -0.4580  0.1816 -0.2146
 5230TIP3    H237250   6.520   6.094   0.954  1.8305  0.3565 -0.4780
 5231TIP3   OH237251   4.880   4.037   1.269  0.5684  0.0862  0.5282
 5231TIP3    H137252   4.957   3.980   1.277  0.1015 -0.7491 -0.6345
 5231TIP3    H237253   4.901   4.097   1.197 -0.4801 -1.2590 -0.9875
 5232TIP3   OH237254   5.734   1.810   7.268  0.3134 -0.1937 -0.1922
 5232TIP3    H137255   5.777   1.733   7.305  2.1199  0.5535 -0.6315
 5232TIP3    H237256   5.794   1.841   7.200 -0.3745  1.5647 -0.0554
 5233TIP3   OH237257   4.188   3.800   0.373 -0.1274 -0.1248 -0.4020
 5233TIP3    H137258   4.200   3.894   0.387  2.2019 -0.4953  0.6547
 5233TIP3    H237259   4.211   3.787   0.281 -2.6297  0.5739 -1.1957
 5234TIP3   OH237260   2.220   4.496   8.152 -0.1527  0.2378 -0.1140
 5234TIP3    H137261   2.296   4.550   8.173 -0.4750  0.5687  0.2032
 5234TIP3    H237262   2.205   4.444   8.230  0.1353 -0.3017 -0.4051
 5235TIP3   OH237263   6.572   1.912   0.368  0.1865 -0.2623  0.0670
 5235TIP3    H137264   6.636   1.921   0.438  0.0016 -0.2656  0.2355
 5235TIP3    H237265   6.495   1.875   0.410  0.3244 -0.9567 -0.2756
 5236TIP3   OH237266   0.675   2.972   8.014  0.4438 -0.0919  0.2496
 5236TIP3    H137267   0.766   3.002   8.020  0.5733  0.4132 -2.6858
 5236TIP3    H237268   0.681   2.876   8.014  0.9211 -0.0647  0.4669
 5237TIP3   OH237269   5.595   0.277   1.084 -0.4199 -0.6273  0.2143
 5237TIP3    H137270   5.647   0.210   1.040  0.8585  0.3656  0.1598
 5237TIP3    H237271   5.650   0.355   1.083 -1.3913  0.1128  1.3250
 5238TIP3   OH237272   1.066   5.880   7.700 -0.1021  0.5231 -0.4044
 5238TIP3    H137273   1.014   5.891   7.620  0.7490  1.5418 -0.8506
 5238TIP3    H237274   1.009   5.910   7.770 -0.7607 -0.1143 -0.6508
 5239TIP3   OH237275   1.039   3.755   7.600 -0.1721  0.0913 -0.3060
 5239TIP3    H137276   1.017   3.816   7.530 -1.2703  1.1150  0.8815
 5239TIP3    H237277   0.979   3.777   7.671 -0.3827 -2.1776  0.2926
 5240TIP3   OH237278   5.400   6.221   1.818 -0.0343  0.2749 -0.2761
 5240TIP3    H137279   5.471   6.219   1.883  0.0928  1.8989 -0.3093
 5240TIP3    H237280   5.324   6.252   1.867 -0.5232 -0.6587 -0.4279
 5241TIP3   OH237281   4.786   5.744   7.229 -0.5720  0.0921 -0.2475
 5241TIP3    H137282   4.823   5.700   7.305 -1.3151  0.4943  0.3582
 5241TIP3    H237283   4.862   5.764   7.174 -0.2267 -1.9844 -0.5850
 5242TIP3   OH237284   3.407   3.643   7.672 -0.4034  0.3817  0.3546
 5242TIP3    H137285   3.426   3.735   7.690 -1.0589  0.5030  0.4719
 5242TIP3    H237286   3.456   3.595   7.739  0.3105  0.6132  0.0111
 5243TIP3   OH237287   4.434   2.695   0.362  0.2781  0.3380 -0.4157
 5243TIP3    H137288   4.394   2.688   0.448  2.1023 -0.3595  0.4116
 5243TIP3    H237289   4.489   2.617   0.354  0.4412  0.5847 -2.0557
 5244TIP3   OH237290   6.477   1.847   7.890  0.6022  0.1369 -0.1063
 5244TIP3    H137291   6.498   1.862   7.982  0.2181  0.9744 -0.1469
 5244TIP3    H237292   6.556   1.871   7.842  0.3519  1.0566 -0.0872
 5245TIP3   OH237293   6.636   0.957   2.159 -0.0050  0.6763  0.5379
 5245TIP3    H137294   6.578   0.893   2.200 -0.6634  0.0821 -1.2246
 5245TIP3    H237295   6.673   1.006   2.232 -4.3875  2.5839  1.7733
 5246TIP3   OH237296   1.603   1.785   8.078  0.3061  0.0363 -0.7019
 5246TIP3    H137297   1.559   1.823   8.003 -3.5673 -2.9734 -0.3009
 5246TIP3    H237298   1.625   1.696   8.051  2.0623  0.0009  0.6531
 5247TIP3   OH237299   6.364   5.960   7.672  0.6206  0.1987 -0.3140
 5247TIP3    H137300   6.299   6.015   7.629 -0.1908 -0.6054 -0.1463
 5247TIP3    H237301   6.363   5.989   7.764  1.4002  1.0133 -0.5431
 5248TIP3   OH237302   3.566   3.214   0.332  0.6942 -0.2136  0.2753
 5248TIP3    H137303   3.609   3.155   0.271  0.7930  1.1492 -1.0439
 5248TIP3    H237304   3.500   3.259   0.278  0.2595  0.4717  1.3572
 5249TIP3   OH237305   3.759   1.214   8.173  0.0153 -1.4832  0.2418
 5249TIP3    H137306   3.753   1.219   8.078  0.8675 -0.3035  0.2249
 5249TIP3    H237307   3.823   1.282   8.197 -1.4728 -0.5221  1.7858
 5250TIP3   OH237308   3.859   4.332   1.388  0.0544 -0.1930 -0.7099
 5250TIP3    H137309   3.915   4.409   1.390  1.5501 -1.1286 -2.4016
 5250TIP3    H237310   3.816   4.336   1.302 -0.6455 -0.7144 -0.3969
 5251TIP3   OH237311   0.683   6.016   8.725  0.0595 -0.1643  0.2622
 5251TIP3    H137312   0.712   6.029   8.815  1.0472 -1.5963  0.1998
 5251TIP3    H237313   0.763   6.020   8.673  0.2737 -3.7590  0.0219
 5252TIP3   OH237314   2.165   6.517   2.043  0.3780  0.0714  0.0674
 5252TIP3    H137315   2.255   6.524   2.076  0.2963  0.4033  0.2263
 5252TIP3    H237316   2.169   6.447   1.978  0.7830  0.1823 -0.0314
 5253TIP3   OH237317   4.925   5.594   7.401  0.0385  0.0962 -0.1528
 5253TIP3    H137318   4.968   5.514   7.432 -0.0384  0.4415  0.8892
 5253TIP3    H237319   4.994   5.660   7.399 -0.2521  0.4435  0.7278
 5254TIP3   OH237320   0.576   2.275   7.609  0.1272 -0.1061 -0.0598
 5254TIP3    H137321   0.491   2.316   7.595  0.2473  0.0621 -0.2964
 5254TIP3    H237322   0.616   2.325   7.680  0.8105  1.0166 -1.2049
 5255TIP3   OH237323   5.968   5.255   7.280 -0.2877 -0.6297 -0.4000
 5255TIP3    H137324   6.048   5.304   7.299 -1.4086  2.1085 -2.1267
 5255TIP3    H237325   5.982   5.216   7.194  0.2308 -2.6702  0.5574
 5256TIP3   OH237326   0.074   6.058   0.817 -0.2922  0.3205  0.2264
 5256TIP3    H137327   0.073   6.056   0.722  0.9197 -2.1109  0.2089
 5256TIP3    H237328  -0.015   6.033   0.843 -1.4315  3.4899 -0.1500
 5257TIP3   OH237329   1.112   3.597   0.959 -0.2002 -0.6261 -0.0569
 5257TIP3    H137330   1.165   3.663   1.005 -0.4350 -0.7134  0.3425
 5257TIP3    H237331   1.104   3.526   1.021 -1.2644 -0.3810  0.0978
 5258TIP3   OH237332   5.578   3.652   0.346  0.0777  0.2866  0.7256
 5258TIP3    H137333   5.640   3.588   0.311  0.5225  0.6618  0.8182
 5258TIP3    H237334   5.562   3.712   0.273 -0.7327 -0.2127  0.4799
 5259TIP3   OH237335   2.074   2.927   8.759  0.2892  0.0817 -0.1498
 5259TIP3    H137336   2.125   2.924   8.678 -0.2731  1.1246 -0.5643
 5259TIP3    H237337   2.016   2.851   8.754  0.0310  0.3184 -0.8954
 5260TIP3   OH237338   3.674   3.787   8.387  0.3672  0.6659 -0.5100
 5260TIP3    H137339   3.649   3.822   8.301  0.8922  0.2038 -0.8614
 5260TIP3    H237340   3.770   3.781   8.383  0.3745  0.3969  0.0134
 5261TIP3   OH237341   0.431   6.174   0.910  0.0419 -0.0178  0.1596
 5261TIP3    H137342   0.407   6.174   0.818 -0.3329 -0.9255  0.2463
 5261TIP3    H237343   0.374   6.108   0.950 -0.5602  1.1195  1.2521
 5262TIP3   OH237344   0.071   4.729   1.034  0.1087 -0.0183 -0.3662
 5262TIP3    H137345   0.126   4.673   0.979 -0.5214  0.0164 -1.0451
 5262TIP3    H237346  -0.008   4.678   1.049  0.1060  0.1369  0.1801
 5263TIP3   OH237347   5.793   3.475   2.156 -0.0980 -0.0581 -0.2262
 5263TIP3    H137348   5.701   3.486   2.180 -0.0724 -0.5682  0.1191
 5263TIP3    H237349   5.809   3.381   2.166  0.2799 -0.0747 -0.9357
 5264TIP3   OH237350   5.732   0.870   1.364  0.0704  0.2678  0.7070
 5264TIP3    H137351   5.673   0.900   1.434  1.5460  1.3908  1.5312
 5264TIP3    H237352   5.747   0.948   1.310  0.3107 -0.1635  0.1458
 5265TIP3   OH237353   0.211   1.027   0.950  0.2411  0.2503 -0.7906
 5265TIP3    H137354   0.236   1.077   0.872  0.9151 -1.0868 -1.4539
 5265TIP3    H237355   0.142   0.968   0.920 -0.8396  1.0061  0.0838
 5266TIP3   OH237356   6.652   5.214   7.199  0.1339 -0.0727 -0.0238
 5266TIP3    H137357   6.744   5.189   7.186 -0.3360 -1.7044 -0.4665
 5266TIP3    H237358   6.656   5.299   7.242  1.8899 -1.2854  2.4365
 5267TIP3   OH237359   5.470   1.161   1.777  0.6173  0.2293  0.0364
 5267TIP3    H137360   5.541   1.120   1.728 -0.4801 -1.1493 -0.4560
 5267TIP3    H237361   5.515   1.211   1.846  2.1124  0.9012 -1.3587
 5268TIP3   OH237362   0.159   1.833   1.740  0.3968  0.0751  0.0794
 5268TIP3    H137363   0.078   1.871   1.706 -1.8011 -2.9555  1.5007
 5268TIP3    H237364   0.194   1.899   1.799 -0.9061  1.5348 -0.7010
 5269TIP3   OH237365   5.192   5.153   0.921 -0.1941  0.5333  0.3794
 5269TIP3    H137366   5.195   5.191   0.833 -0.4854 -0.2280  0.0360
 5269TIP3    H237367   5.103   5.120   0.930 -0.6574  1.9694  1.5577
 5270TIP3   OH237368   5.733   0.728   7.703 -0.0887  0.4226 -0.1511
 5270TIP3    H137369   5.649   0.703   7.663  0.8603 -1.7109 -0.9749
 5270TIP3    H237370   5.781   0.773   7.634 -0.3330  1.1924  0.1667
 5271TIP3   OH237371   4.844   6.319   0.194  0.1157  0.1746 -0.5932
 5271TIP3    H137372   4.829   6.399   0.143 -0.5826  1.1383  1.0286
 5271TIP3    H237373   4.854   6.350   0.284  0.1915 -1.5536  0.0301
 5272TIP3   OH237374   2.509   4.753   0.962 -0.2584  0.3648  0.0677
 5272TIP3    H137375   2.563   4.675   0.953  0.0804  0.6099 -0.0703
 5272TIP3    H237376   2.426   4.722   0.997  0.4591  0.1677  1.6765
 5273TIP3   OH237377   2.320   5.412   0.261 -0.4871  0.3736  0.0889
 5273TIP3    H137378   2.385   5.394   0.193 -2.2858 -0.6803 -1.4545
 5273TIP3    H237379   2.285   5.326   0.285 -0.4434  0.8006  1.8307
 5274TIP3   OH237380   4.214   5.932   0.768 -0.0367  0.0151  0.2284
 5274TIP3    H137381   4.199   5.941   0.862 -0.5713  0.7291  0.0782
 5274TIP3    H237382   4.157   5.859   0.742  0.1954 -0.2569  0.4752
 5275TIP3   OH237383   6.625   6.394   0.374  0.7248 -0.7380  0.1689
 5275TIP3    H137384   6.687   6.338   0.420 -1.1159 -0.8838  2.6812
 5275TIP3    H237385   6.542   6.347   0.380  0.0829 -0.0033 -2.0505
 5276TIP3   OH237386   1.438   1.962   7.919  0.0780 -0.2180 -0.2140
 5276TIP3    H137387   1.415   1.941   7.828 -0.9827 -0.1248  0.0166
 5276TIP3    H237388   1.468   2.053   7.915 -0.6966  0.0401 -0.3645
 5277TIP3   OH237389   0.578   4.501   1.090 -0.3692 -0.1030 -0.9310
 5277TIP3    H137390   0.530   4.419   1.078  0.7532 -1.5231  2.9491
 5277TIP3    H237391   0.527   4.550   1.155  0.7320  0.7305 -0.6585
 5278TIP3   OH237392   6.208   3.961   8.137  0.0986 -0.1736 -0.2032
 5278TIP3    H137393   6.144   4.010   8.086 -0.8337  1.7078  2.4901
 5278TIP3    H237394   6.220   4.014   8.216  3.0971 -1.7501  0.5415
 5279TIP3   OH237395   4.708   0.115   0.217 -0.1836 -0.6303  0.0660
 5279TIP3    H137396   4.757   0.099   0.137  0.1866  1.7490 -0.2564
 5279TIP3    H237397   4.617   0.096   0.195 -0.3528  1.6255 -1.5209
 5280TIP3   OH237398   1.196   0.301   1.802  0.7821 -0.7002 -0.6013
 5280TIP3    H137399   1.254   0.356   1.854 -0.0564  0.0819 -0.4821
 5280TIP3    H237400   1.176   0.227   1.860 -1.1355  0.7608  0.7200
 5281TIP3   OH237401   1.961   3.106   7.850  0.2645 -0.2316 -0.3359
 5281TIP3    H137402   1.875   3.067   7.838 -1.5349  2.5541  2.0661
 5281TIP3    H237403   2.005   3.049   7.914  0.1421 -1.5103 -1.3558
 5282TIP3   OH237404   1.488   5.177   0.511  0.4489  0.2322  0.1130
 5282TIP3    H137405   1.519   5.134   0.591  0.5928  1.7051  0.8835
 5282TIP3    H237406   1.425   5.243   0.543  0.7604  1.0681 -0.9520
 5283TIP3   OH237407   6.357   5.985   0.430  0.5280 -0.0202  0.0770
 5283TIP3    H137408   6.414   5.975   0.506  0.7783 -1.4338 -0.2770
 5283TIP3    H237409   6.276   5.942   0.454 -0.0064  0.9820  0.1441
 5284TIP3   OH237410   5.017   1.768   6.831 -0.2670  0.2882 -0.4276
 5284TIP3    H137411   4.933   1.796   6.795 -1.3422 -1.1661  0.8239
 5284TIP3    H237412   4.994   1.712   6.905  1.7873 -1.1848 -0.8159
 5285TIP3   OH237413   5.246   4.268   1.468 -0.5736 -0.2789  0.5276
 5285TIP3    H137414   5.162   4.233   1.496 -0.5996  0.4758  1.4308
 5285TIP3    H237415   5.267   4.220   1.388 -2.9061  1.0152 -0.9616
 5286TIP3   OH237416   6.301   0.515   0.547 -0.0314  0.4335 -0.1999
 5286TIP3    H137417   6.303   0.434   0.598 -2.8328 -0.1411 -0.8342
 5286TIP3    H237418   6.356   0.497   0.471 -0.0656 -0.6346  0.0155
 5287TIP3   OH237419   1.690   4.280   7.947 -0.1735  0.4267 -0.8254
 5287TIP3    H137420   1.704   4.224   7.872  0.2868  0.8547 -1.0680
 5287TIP3    H237421   1.725   4.231   8.022 -0.7756 -0.0624 -0.8649
 5288TIP3   OH237422   2.152   5.013   1.287 -0.0093 -0.5934  0.6790
 5288TIP3    H137423   2.228   5.004   1.229 -1.1450 -0.4483 -0.8888
 5288TIP3    H237424   2.116   4.925   1.293 -2.0758 -0.0471 -1.9896
 5289TIP3   OH237425   1.196   5.035   8.761 -0.4426  0.3835 -0.6348
 5289TIP3    H137426   1.264   5.102   8.764 -0.7011  0.6450 -0.6669
 5289TIP3    H237427   1.171   5.029   8.669 -1.3925  1.2233 -0.4519
 5290TIP3   OH237428   6.696   3.207   0.017  0.0068 -0.0648  0.0002
 5290TIP3    H137429   6.770   3.259  -0.013 -0.5011  0.0362 -1.1069
 5290TIP3    H237430   6.623   3.268   0.020 -0.2882 -0.4138 -0.0079
 5291TIP3   OH237431   3.516   6.473   1.418 -0.1959 -0.2998  0.0640
 5291TIP3    H137432   3.457   6.403   1.445 -0.1872 -0.7222 -0.9507
 5291TIP3    H237433   3.516   6.535   1.491 -0.0084 -1.4696  1.0696
 5292TIP3   OH237434   4.733   2.596   7.623 -0.2257 -0.1634 -0.7979
 5292TIP3    H137435   4.672   2.631   7.688 -1.4833 -1.3393 -1.2837
 5292TIP3    H237436   4.679   2.538   7.569  1.5787 -2.2851 -0.4612
 5293TIP3   OH237437   0.302   2.545   8.134  0.2883 -0.7614 -0.0686
 5293TIP3    H137438   0.269   2.633   8.116  0.1634 -0.8457 -0.2533
 5293TIP3    H237439   0.324   2.510   8.048  0.8609 -0.7068  0.0523
 5294TIP3   OH237440   0.902   4.748   7.491 -0.3274 -0.3473  0.4450
 5294TIP3    H137441   0.995   4.725   7.482 -0.3020  0.0103 -0.2225
 5294TIP3    H237442   0.856   4.686   7.434 -0.4109  0.0948  0.0250
 5295TIP3   OH237443   6.600   3.306   8.372  0.6122 -0.0483  0.3120
 5295TIP3    H137444   6.582   3.291   8.465 -0.7623 -2.8980 -0.2967
 5295TIP3    H237445   6.563   3.229   8.328  0.8396  1.4109 -2.6531
 5296TIP3   OH237446   3.492   4.696   7.930 -0.1873 -0.0584 -0.4905
 5296TIP3    H137447   3.432   4.631   7.893  0.1565  0.3261 -1.7578
 5296TIP3    H237448   3.543   4.727   7.856  0.4361  0.8426  0.2905
 5297TIP3   OH237449   3.893   1.774   2.234 -0.1563  0.2188  0.1428
 5297TIP3    H137450   3.854   1.689   2.213 -0.8453  0.9767 -1.8449
 5297TIP3    H237451   3.931   1.804   2.152 -0.2133  1.9947  0.7296
 5298TIP3   OH237452   6.109   0.571   1.866  0.0613 -0.4152  0.2798
 5298TIP3    H137453   6.110   0.491   1.917  0.5786 -0.7335 -0.2128
 5298TIP3    H237454   6.196   0.576   1.827 -0.8986 -1.2186 -2.1416
 5299TIP3   OH237455   1.248   3.143   8.149 -0.2611  0.2520 -0.1436
 5299TIP3    H137456   1.153   3.138   8.140 -0.0924 -0.9224 -1.6970
 5299TIP3    H237457   1.263   3.157   8.242 -1.9688  1.0782  0.0348
 5300TIP3   OH237458   2.195   2.025   8.327 -0.3644  0.2402 -0.2961
 5300TIP3    H137459   2.159   2.113   8.333  1.4188  0.9805 -0.0187
 5300TIP3    H237460   2.148   1.975   8.394 -1.5191  0.9078 -0.5836
 5301TIP3   OH237461   4.127   0.505   7.551  0.2471  0.5029 -0.1734
 5301TIP3    H137462   4.057   0.549   7.598  0.5977 -0.0981  0.9559
 5301TIP3    H237463   4.093   0.492   7.463 -0.9993  0.3763  0.3106
 5302TIP3   OH237464   0.485   6.186   8.578 -0.0286  0.6273  0.5800
 5302TIP3    H137465   0.545   6.128   8.626  0.1963 -0.1620 -0.6043
 5302TIP3    H237466   0.543   6.251   8.538 -0.2401  1.4379  1.5396
 5303TIP3   OH237467   3.271   1.734   1.641  0.0099 -0.4045 -0.5224
 5303TIP3    H137468   3.306   1.685   1.716 -1.7865  1.2117  1.4684
 5303TIP3    H237469   3.237   1.666   1.583  1.5957 -1.7136 -0.0044
 5304TIP3   OH237470   1.036   2.889   7.022  0.1325  0.2265 -0.1494
 5304TIP3    H137471   1.070   2.851   6.941 -0.6366 -0.8665  0.0189
 5304TIP3    H237472   1.092   2.854   7.091 -0.1612 -0.0874 -0.0642
 5305TIP3   OH237473   4.631   3.018   8.008  0.0057  0.0549  0.6183
 5305TIP3    H137474   4.689   2.942   8.004 -2.5449 -1.9889 -0.3669
 5305TIP3    H237475   4.618   3.033   8.102 -0.8749 -1.9520  0.8662
 5306TIP3   OH237476   6.092   4.854   1.536 -0.7562  0.2035 -0.5929
 5306TIP3    H137477   6.095   4.861   1.632  0.1414  1.6386 -0.6958
 5306TIP3    H237478   6.183   4.862   1.508 -1.1638  1.6796 -1.6455
 5307TIP3   OH237479   4.222   3.904   0.784  0.5742 -0.5236 -0.1712
 5307TIP3    H137480   4.268   3.976   0.826 -3.1015  0.1469  3.2876
 5307TIP3    H237481   4.198   3.846   0.855 -1.0558 -2.4772 -2.1729
 5308TIP3   OH237482   5.278   5.085   8.528 -0.6391  0.8102  0.0994
 5308TIP3    H137483   5.234   5.084   8.613  2.6213  0.1921  1.9530
 5308TIP3    H237484   5.279   5.177   8.502  0.9203  1.5180  2.3402
 5309TIP3   OH237485   3.539   0.867   8.722 -0.1497  0.1360 -0.4917
 5309TIP3    H137486   3.536   0.951   8.677 -2.5196  0.1865 -0.3749
 5309TIP3    H237487   3.519   0.802   8.654  0.0618 -0.1755 -0.2621
 5310TIP3   OH237488   3.829   2.686   7.409 -0.4473  0.1575  0.2000
 5310TIP3    H137489   3.884   2.672   7.485  0.6026  0.5497 -0.4585
 5310TIP3    H237490   3.756   2.739   7.441  0.2504  0.7510  0.8365
 5311TIP3   OH237491   1.193   5.675   0.965  0.5238  0.0275 -0.4273
 5311TIP3    H137492   1.124   5.640   1.022 -0.2582  0.8409 -0.8402
 5311TIP3    H237493   1.264   5.700   1.025 -0.9518  2.4876  0.4655
 5312TIP3   OH237494   2.006   0.414   7.547 -0.4376 -0.0172 -0.3636
 5312TIP3    H137495   2.014   0.326   7.582  0.4387 -0.2543 -1.1267
 5312TIP3    H237496   1.913   0.436   7.559 -0.9715 -1.5576 -1.3526
 5313TIP3   OH237497   5.508   3.824   2.619  0.3535 -0.0740  0.3533
 5313TIP3    H137498   5.539   3.769   2.547 -0.0933  0.1954 -0.0501
 5313TIP3    H237499   5.528   3.913   2.592 -0.8467  0.1207  0.0262
 5314TIP3   OH237500   1.739   5.126   7.996  0.0898 -0.2247  0.0878
 5314TIP3    H137501   1.832   5.134   8.017 -0.1569  2.1117  0.5768
 5314TIP3    H237502   1.718   5.035   8.017  2.0028 -0.5089  1.0468
 5315TIP3   OH237503   3.389   2.245   1.129 -0.0411 -0.8043  0.2746
 5315TIP3    H137504   3.321   2.200   1.180  0.2794 -1.8054 -0.1695
 5315TIP3    H237505   3.465   2.248   1.187 -0.5264  0.5847  0.8853
 5316TIP3   OH237506   2.508   0.751   8.861  0.1365  0.0441  0.3184
 5316TIP3    H137507   2.474   0.786   8.943 -0.4877 -0.2787  0.2005
 5316TIP3    H237508   2.527   0.659   8.879  2.2081  0.4982  0.7586
 5317TIP3   OH237509   1.146   5.490   6.488 -0.3259 -0.3852  0.2816
 5317TIP3    H137510   1.196   5.410   6.469 -0.8087 -0.8753  1.0313
 5317TIP3    H237511   1.061   5.458   6.519 -0.8930  0.4342 -0.3939
 5318TIP3   OH237512   0.443   5.345   7.926  0.0107 -0.3144 -0.9715
 5318TIP3    H137513   0.376   5.329   7.859  0.9547  0.3032 -2.0867
 5318TIP3    H237514   0.472   5.435   7.911 -0.8883  0.4291  1.3255
 5319TIP3   OH237515   3.643   2.847   1.158  0.1656 -0.2741  0.1125
 5319TIP3    H137516   3.737   2.836   1.171  0.2215  0.8693  0.8468
 5319TIP3    H237517   3.607   2.851   1.247 -0.3664  0.7917 -0.1377
 5320TIP3   OH237518   1.737   3.168   0.658 -0.0111 -0.0397  0.3895
 5320TIP3    H137519   1.726   3.144   0.750  0.9894  0.6674  0.7086
 5320TIP3    H237520   1.708   3.259   0.653  3.3120  1.2028  0.8412
 5321TIP3   OH237521   2.982   0.493   2.066  0.1394  0.5806  0.0549
 5321TIP3    H137522   2.970   0.546   2.145  0.9096 -0.8980  1.2325
 5321TIP3    H237523   3.057   0.437   2.087 -0.2069 -0.4725 -1.3798
 5322TIP3   OH237524   6.666   2.418   0.894 -0.0462  0.1862 -0.4876
 5322TIP3    H137525   6.639   2.500   0.936 -1.6919  0.4042 -1.8323
 5322TIP3    H237526   6.755   2.403   0.925 -0.6440  1.0762  1.8617
 5323TIP3   OH237527   4.143   6.597   1.273 -0.6125 -0.3119  0.0672
 5323TIP3    H137528   4.150   6.534   1.344 -0.2800 -0.7192 -0.3191
 5323TIP3    H237529   4.193   6.558   1.201  0.2956  0.7744  0.0905
 5324TIP3   OH237530   4.385   1.382   7.575 -0.4881 -0.1334  0.1042
 5324TIP3    H137531   4.367   1.465   7.531 -1.8348 -0.5242 -0.1062
 5324TIP3    H237532   4.478   1.366   7.557 -0.8113  0.0640 -2.0161
 5325TIP3   OH237533   6.096   1.726   7.479 -0.0514 -0.2930  0.1102
 5325TIP3    H137534   6.146   1.670   7.538 -2.3928 -1.1692  1.3920
 5325TIP3    H237535   6.004   1.709   7.501 -0.9355  2.5472 -0.8844
 5326TIP3   OH237536   0.752   0.603   0.692 -0.4519  0.4386 -0.1995
 5326TIP3    H137537   0.696   0.635   0.763  1.7385 -0.3999  2.0322
 5326TIP3    H237538   0.772   0.513   0.716  0.6213  0.2259 -1.7507
 5327TIP3   OH237539   6.555   0.614   7.825 -0.3872 -0.8005  0.4697
 5327TIP3    H137540   6.583   0.575   7.908  1.2517  0.3977  0.5165
 5327TIP3    H237541   6.556   0.708   7.841 -3.2497 -0.6217  0.0372
 5328TIP3   OH237542   6.464   3.674   0.010 -0.0609 -0.2739 -0.1612
 5328TIP3    H137543   6.432   3.764   0.006 -3.0313 -1.2380 -0.8673
 5328TIP3    H237544   6.501   3.666   0.098  1.3088  1.8861 -0.4639
 5329TIP3   OH237545   3.066   2.416   8.266 -0.1879  0.8184  0.7601
 5329TIP3    H137546   3.130   2.482   8.294  0.0848  1.0384 -0.3113
 5329TIP3    H237547   2.981   2.456   8.284 -0.1097  2.6864 -2.2801
 5330TIP3   OH237548   6.207   1.960   8.547  0.7011 -0.0114 -0.4007
 5330TIP3    H137549   6.231   2.027   8.483  0.1598  1.4014  0.8367
 5330TIP3    H237550   6.176   2.008   8.623 -1.4717 -1.6657 -0.1226
 5331TIP3   OH237551   3.171   0.013   0.795  0.1061 -0.1392 -0.0336
 5331TIP3    H137552   3.226  -0.018   0.723  2.1567 -0.1774  1.4644
 5331TIP3    H237553   3.155   0.105   0.775  0.6613 -0.1507 -0.5429
 5332TIP3   OH237554   4.021   6.298   1.185 -0.1042 -0.3918 -0.2509
 5332TIP3    H137555   4.112   6.316   1.161 -0.2180  0.7162  0.0954
 5332TIP3    H237556   4.014   6.327   1.276 -0.4287 -1.8682  0.2365
 5333TIP3   OH237557   3.609   4.146   0.505  0.1824  0.4777  0.3345
 5333TIP3    H137558   3.638   4.103   0.424  0.5219 -1.3493  1.3613
 5333TIP3    H237559   3.514   4.154   0.495  0.1378 -0.3022 -0.0161
 5334TIP3   OH237560   6.651   2.403   8.483 -0.4477 -0.1952 -0.0087
 5334TIP3    H137561   6.636   2.426   8.391  0.0341 -0.4016 -0.1413
 5334TIP3    H237562   6.746   2.389   8.489 -0.4767 -0.1735  0.5217
 5335TIP3   OH237563   3.071   4.400   1.958  1.1251 -0.5783  0.2786
 5335TIP3    H137564   3.023   4.481   1.977 -2.0063 -1.5525 -2.4232
 5335TIP3    H237565   3.080   4.357   2.043 -0.7280  0.8117  1.2594
 5336TIP3   OH237566   4.826   0.857   0.422 -0.4543  0.6213 -0.3606
 5336TIP3    H137567   4.842   0.806   0.342 -0.5399  0.3443 -0.2008
 5336TIP3    H237568   4.894   0.829   0.483 -0.9945  0.0934  0.0102
 5337TIP3   OH237569   3.940   6.215   1.866 -0.0856 -0.3486  0.0801
 5337TIP3    H137570   4.031   6.200   1.891 -0.0169 -0.1785 -0.0677
 5337TIP3    H237571   3.919   6.143   1.806  0.1465 -0.0352 -0.3810
 5338TIP3   OH237572   6.284   3.605   7.715 -0.3523 -0.2604 -0.4611
 5338TIP3    H137573   6.355   3.668   7.701  0.9273 -1.4466  0.5344
 5338TIP3    H237574   6.210   3.643   7.666  0.4556  1.8404 -0.1799
 5339TIP3   OH237575   0.248   5.745   7.965  0.0689 -0.4808  0.6465
 5339TIP3    H137576   0.171   5.786   8.003 -0.8146 -1.0529 -0.4743
 5339TIP3    H237577   0.214   5.692   7.893  1.4903 -0.8799  0.2383
 5340TIP3   OH237578   3.770   1.890   7.194 -0.5910  0.1235 -0.1629
 5340TIP3    H137579   3.695   1.898   7.136  0.5472 -0.9483 -1.8701
 5340TIP3    H237580   3.846   1.898   7.136  0.6900  2.5691  1.6743
 5341TIP3   OH237581   1.961   2.950   6.939  0.0478 -0.1046 -0.1390
 5341TIP3    H137582   1.897   3.012   6.902 -0.5250 -0.1498  0.7519
 5341TIP3    H237583   1.922   2.922   7.022 -0.7166 -3.1887 -1.3743
 5342TIP3   OH237584   3.879   4.178   6.932 -1.1241  0.0434 -0.2985
 5342TIP3    H137585   3.807   4.116   6.921 -2.4013  1.1769  1.0943
 5342TIP3    H237586   3.895   4.212   6.844 -1.2853 -1.2794 -0.8654
 5343TIP3   OH237587   6.005   4.141   8.038  0.0534 -0.8044  0.6032
 5343TIP3    H137588   6.076   4.198   8.007  1.0556 -1.2571  1.9214
 5343TIP3    H237589   5.932   4.158   7.978  0.6639  1.0524  0.3100
 5344TIP3   OH237590   4.353   4.296   6.596  0.5629  0.3943  0.1426
 5344TIP3    H137591   4.370   4.276   6.688  0.4766 -1.8860 -0.2886
 5344TIP3    H237592   4.260   4.277   6.583  1.1632 -2.0505 -1.0123
 5345TIP3   OH237593   6.686   3.877   0.775  0.0089 -0.3424  0.1165
 5345TIP3    H137594   6.712   3.812   0.840  0.7354 -0.0320  0.1480
 5345TIP3    H237595   6.768   3.917   0.746 -0.4864  1.3505  0.9223
 5346TIP3   OH237596   6.155   3.687   8.106 -0.1685 -0.2991  0.1724
 5346TIP3    H137597   6.151   3.644   8.192 -1.1494 -0.3962  0.0826
 5346TIP3    H237598   6.148   3.780   8.125  0.4737 -0.2574  0.2506
 5347TIP3   OH237599   5.506   5.808   0.419 -0.0655  0.2236  0.0321
 5347TIP3    H137600   5.524   5.902   0.421 -0.1787  0.2722 -0.6691
 5347TIP3    H237601   5.485   5.785   0.509 -0.2609  0.9203  0.1709
 5348TIP3   OH237602   1.794   0.146   2.208  0.4848 -0.2713 -0.2711
 5348TIP3    H137603   1.706   0.166   2.241 -0.1031  1.5103 -2.5976
 5348TIP3    H237604   1.852   0.198   2.263 -0.0402 -0.3766  0.4014
 5349TIP3   OH237605   4.077   2.445   7.966 -0.1995  0.3784  0.1334
 5349TIP3    H137606   4.038   2.471   8.050  0.6997  0.4324  0.5418
 5349TIP3    H237607   4.020   2.485   7.900 -1.4595 -0.4342  0.6840
 5350TIP3   OH237608   1.898   6.484   0.255  0.3187 -0.3525 -0.3895
 5350TIP3    H137609   1.907   6.405   0.202  1.9567 -0.5587  0.1574
 5350TIP3    H237610   1.805   6.487   0.277  0.1347 -1.8303 -0.8614
 5351TIP3   OH237611   6.564   5.974   0.609  0.1584  0.3346 -0.6157
 5351TIP3    H137612   6.603   5.887   0.598 -0.4070  0.2701 -2.3319
 5351TIP3    H237613   6.633   6.035   0.583  0.1324  0.3503 -0.6479
 5352TIP3   OH237614   4.731   1.364   6.814  0.1083  0.1006  0.5779
 5352TIP3    H137615   4.643   1.401   6.811  0.1282  0.1413  0.4693
 5352TIP3    H237616   4.776   1.404   6.739  0.3967  0.5286  0.9763
 5353TIP3   OH237617   3.368   3.158   1.418  0.3250 -0.2820  0.2060
 5353TIP3    H137618   3.369   3.239   1.470  0.5745  0.7726 -1.3576
 5353TIP3    H237619   3.380   3.188   1.328  2.0036 -2.2015 -0.2700
 5354TIP3   OH237620   1.548   2.815   0.751  0.0335  0.1200  0.4552
 5354TIP3    H137621   1.473   2.755   0.752  0.1175 -0.0849 -1.6076
 5354TIP3    H237622   1.606   2.779   0.684 -0.9981  3.6501 -2.6781
 5355TIP3   OH237623   0.267   3.658   7.717  0.2192  0.4721 -0.4567
 5355TIP3    H137624   0.257   3.747   7.682 -0.9344  1.4725  2.1455
 5355TIP3    H237625   0.353   3.630   7.686  1.0014  2.8570 -0.6858
 5356TIP3   OH237626   0.852   0.014   0.739 -0.5318 -0.4024 -0.9982
 5356TIP3    H137627   0.818  -0.029   0.660 -1.3926  0.0486 -0.8845
 5356TIP3    H237628   0.779   0.009   0.802  0.2807 -1.1370 -0.0699
 5357TIP3   OH237629   0.134   1.076   7.511  0.1624  0.3247 -0.4503
 5357TIP3    H137630   0.166   0.994   7.548  0.7986  0.2174 -1.1965
 5357TIP3    H237631   0.112   1.130   7.587  0.7262 -0.1567  0.0693
 5358TIP3   OH237632   0.376   0.184   0.366  0.0584  0.3534 -0.3270
 5358TIP3    H137633   0.416   0.184   0.279 -0.1903  0.7234 -0.4434
 5358TIP3    H237634   0.388   0.094   0.398  1.3524  0.5549 -0.1831
 5359TIP3   OH237635   3.087   6.552   6.830 -0.2856  0.1864  0.1172
 5359TIP3    H137636   3.013   6.566   6.770  0.1824 -0.9753 -0.7777
 5359TIP3    H237637   3.050   6.567   6.917 -2.1186 -2.1155 -0.1386
 5360TIP3   OH237638   3.505   5.948   0.375 -0.1860  0.5600 -0.1609
 5360TIP3    H137639   3.482   5.988   0.292  0.0103  1.5094  0.2389
 5360TIP3    H237640   3.420   5.924   0.414 -0.2582 -0.3825 -0.8524
 5361TIP3   OH237641   1.301   1.891   6.720 -0.0420  0.4151 -0.0476
 5361TIP3    H137642   1.314   1.985   6.709  0.4413  0.3728  0.1353
 5361TIP3    H237643   1.229   1.870   6.661 -0.6188  1.0196  0.4184
 5362TIP3   OH237644   0.730   1.437   8.341  0.3366 -0.4630  0.5126
 5362TIP3    H137645   0.698   1.368   8.398  0.9845  0.1346  1.6476
 5362TIP3    H237646   0.684   1.516   8.370  0.7497 -0.1337  0.2975
 5363TIP3   OH237647   6.692   2.106   8.411  0.1802 -0.5298  0.3976
 5363TIP3    H137648   6.612   2.064   8.444 -0.1659  0.5951  1.0443
 5363TIP3    H237649   6.693   2.191   8.453  1.1489 -0.0932 -0.4686
 5364TIP3   OH237650   2.177   5.415   0.699 -0.3727  0.0373  0.3034
 5364TIP3    H137651   2.239   5.486   0.712  0.0582 -0.6147  2.0899
 5364TIP3    H237652   2.097   5.458   0.671  0.4465  1.0226 -0.6318
 5365TIP3   OH237653   1.463   2.062   0.209 -0.1144  0.4147 -0.3210
 5365TIP3    H137654   1.525   2.027   0.144  0.0491 -0.8328  0.4900
 5365TIP3    H237655   1.514   2.129   0.255 -0.0080  0.8078 -0.9823
 5366TIP3   OH237656   3.662   4.547   8.752 -0.5768  0.5725  0.5126
 5366TIP3    H137657   3.713   4.626   8.733  2.7626 -1.7152 -0.7993
 5366TIP3    H237658   3.612   4.531   8.672 -0.3822  0.7315  0.3574
 5367TIP3   OH237659   2.213   2.573   7.308 -0.1739  0.6839 -0.3935
 5367TIP3    H137660   2.128   2.560   7.267 -0.4894 -1.4832  0.7570
 5367TIP3    H237661   2.194   2.576   7.402  1.0402 -0.8294 -0.0440
 5368TIP3   OH237662   0.527   2.595   0.842  0.1885  0.1101  0.3558
 5368TIP3    H137663   0.576   2.635   0.914 -1.1409  0.4373  1.1273
 5368TIP3    H237664   0.494   2.669   0.792 -1.9047  0.0437  1.5301
 5369TIP3   OH237665   3.179   0.986   7.731 -0.2649 -0.2915 -0.1385
 5369TIP3    H137666   3.255   0.941   7.696 -1.0371  0.0783 -2.4426
 5369TIP3    H237667   3.104   0.947   7.685 -1.0685  2.3644 -1.3143
 5370TIP3   OH237668   2.759   3.527   8.058 -0.5087 -0.4941  0.0302
 5370TIP3    H137669   2.741   3.472   7.981  2.3381 -0.3967 -0.8269
 5370TIP3    H237670   2.770   3.615   8.022 -2.7554  0.2932  1.1017
 5371TIP3   OH237671   6.461   4.680   0.972  0.2042  0.0448  0.6263
 5371TIP3    H137672   6.401   4.737   1.020  2.1943  2.7009  0.1977
 5371TIP3    H237673   6.407   4.641   0.903 -1.0646  2.4725  0.1468
 5372TIP3   OH237674   3.228   0.446   7.181 -0.7727 -0.4859 -0.0053
 5372TIP3    H137675   3.207   0.474   7.092  0.0848  1.8246  0.4598
 5372TIP3    H237676   3.316   0.481   7.197 -1.2316 -0.1704  2.0313
 5373TIP3   OH237677   4.113   6.633   2.457 -0.3236 -0.6989  0.0051
 5373TIP3    H137678   4.152   6.549   2.482 -0.4939 -1.3974 -1.9494
 5373TIP3    H237679   4.160   6.659   2.379  0.8186  1.8828  1.4299
 5374TIP3   OH237680   0.813   2.763   8.243  0.1792 -0.7010 -0.0876
 5374TIP3    H137681   0.768   2.717   8.172  0.9788 -1.6107 -0.0415
 5374TIP3    H237682   0.878   2.818   8.198 -2.4245  2.4832 -0.3121
 5375TIP3   OH237683   2.908   5.562   7.980  0.7341 -0.8746 -0.0185
 5375TIP3    H137684   2.971   5.491   7.975  0.3376 -1.1822 -0.7966
 5375TIP3    H237685   2.942   5.629   7.919  0.0174 -1.2904 -0.8971
 5376TIP3   OH237686   5.673   1.215   8.489 -0.2895  0.5425  0.0907
 5376TIP3    H137687   5.745   1.248   8.436 -0.5021 -1.7112 -1.7577
 5376TIP3    H237688   5.636   1.143   8.438 -1.3336 -0.9577  2.7220
 5377TIP3   OH237689   2.524   6.069   1.141  0.3986 -0.4352  0.4196
 5377TIP3    H137690   2.561   5.987   1.109  2.6221  0.9153 -0.7503
 5377TIP3    H237691   2.442   6.079   1.093  1.3059 -0.8081 -1.2813
 5378TIP3   OH237692   4.769   3.638   2.083 -0.2848  0.0995  0.2686
 5378TIP3    H137693   4.782   3.597   2.168 -1.0152 -0.1652  0.2692
 5378TIP3    H237694   4.751   3.564   2.024 -0.1531  0.3096 -0.0361
 5379TIP3   OH237695   3.965   3.937   0.617 -0.8579 -0.1094  0.4065
 5379TIP3    H137696   3.927   3.989   0.688  1.5416  2.2687  0.1325
 5379TIP3    H237697   4.027   3.878   0.661  0.6993  1.4281  0.4118
 5380TIP3   OH237698   2.722   2.038   1.049  0.5247 -0.2238 -0.2338
 5380TIP3    H137699   2.639   2.067   1.012  0.0295  0.5236  1.3693
 5380TIP3    H237700   2.703   2.023   1.142  2.1277 -0.2878  0.1124
 5381TIP3   OH237701   6.153   2.553   7.844  0.6541  0.0591 -0.3025
 5381TIP3    H137702   6.225   2.584   7.899 -0.8271  0.5677  1.4744
 5381TIP3    H237703   6.115   2.632   7.807  0.8489 -0.1900 -1.0629
 5382TIP3   OH237704   5.634   1.791   0.109 -0.6580 -0.5015 -0.0650
 5382TIP3    H137705   5.704   1.792   0.174 -2.0087 -1.1442  1.4799
 5382TIP3    H237706   5.679   1.788   0.024  1.1512 -0.0436  0.8400
 5383TIP3   OH237707   3.840   5.808   2.278 -0.3920 -0.6916 -0.0459
 5383TIP3    H137708   3.798   5.784   2.196 -0.4938 -0.8081  0.0403
 5383TIP3    H237709   3.769   5.809   2.343 -0.2170 -1.1683  0.1563
 5384TIP3   OH237710   5.273   1.497   2.247 -0.3498  0.2976 -0.2702
 5384TIP3    H137711   5.279   1.496   2.343 -1.1625  1.2706 -0.1838
 5384TIP3    H237712   5.256   1.589   2.225  0.5518  0.2138 -1.4085
 5385TIP3   OH237713   3.822   3.146   7.495 -0.2462 -0.3984 -0.1546
 5385TIP3    H137714   3.796   3.238   7.488  0.8578 -0.1507 -1.3661
 5385TIP3    H237715   3.760   3.099   7.440  0.1312 -0.1723 -0.7787
 5386TIP3   OH237716   0.871   3.162   1.556  0.2960  0.0494  0.6659
 5386TIP3    H137717   0.849   3.166   1.463  1.4345 -0.5302  0.3494
 5386TIP3    H237718   0.891   3.070   1.571  0.5252  0.2175  1.3888
 5387TIP3   OH237719   1.447   1.818   0.340 -0.6011  0.0655 -0.4858
 5387TIP3    H137720   1.458   1.907   0.305  0.1559  0.4425  0.6392
 5387TIP3    H237721   1.464   1.760   0.266  2.5494  0.7894 -0.4778
 5388TIP3   OH237722   1.690   1.637   0.870 -0.1331  0.1776  0.4519
 5388TIP3    H137723   1.622   1.584   0.829 -1.3813 -0.0713  2.6729
 5388TIP3    H237724   1.767   1.582   0.871 -0.9478 -0.9955  1.1996
 5389TIP3   OH237725   0.154   4.520   7.297  0.3004  0.1050 -0.6134
 5389TIP3    H137726   0.194   4.469   7.227 -1.1675 -1.7952 -0.1422
 5389TIP3    H237727   0.108   4.591   7.252 -0.5889 -1.0688 -1.6047
 5390TIP3   OH237728   5.829   1.991   7.858  0.1356  0.1832  0.0669
 5390TIP3    H137729   5.771   2.067   7.853  0.2618  0.4351  1.7387
 5390TIP3    H237730   5.779   1.925   7.905  0.2438 -0.5902 -0.8580
 5391TIP3   OH237731   0.506   0.060   1.306  0.0553 -0.0639  0.0423
 5391TIP3    H137732   0.525   0.124   1.376  1.7115 -0.4657  0.0022
 5391TIP3    H237733   0.411   0.063   1.296 -0.2110  0.1596  2.1724
 5392TIP3   OH237734   0.165   3.635   2.285 -0.2998 -0.7069 -0.2048
 5392TIP3    H137735   0.228   3.669   2.222  0.5896 -0.0948  0.9867
 5392TIP3    H237736   0.117   3.711   2.315 -1.1064 -1.0723 -0.5448
 5393TIP3   OH237737   5.606   6.121   6.659 -0.1382 -0.2161  0.5425
 5393TIP3    H137738   5.630   6.029   6.663  0.0861 -0.1666  0.3557
 5393TIP3    H237739   5.674   6.166   6.708 -2.0242 -0.4640  3.6016
 5394TIP3   OH237740   0.617   4.687   0.886  0.2093  0.0433 -0.0430
 5394TIP3    H137741   0.594   4.644   0.969 -1.9563 -0.0913 -0.6384
 5394TIP3    H237742   0.650   4.773   0.912  2.3203 -1.0140  1.0526
 5395TIP3   OH237743   1.232   6.468   7.806  0.1978 -0.3543 -0.0562
 5395TIP3    H137744   1.306   6.499   7.754 -0.9885  2.2915 -0.3851
 5395TIP3    H237745   1.173   6.544   7.811 -0.5649 -0.9827  3.7286
 5396TIP3   OH237746   0.797   2.557   1.543  0.5196  0.1492  0.1395
 5396TIP3    H137747   0.806   2.512   1.459 -0.6092 -0.8831  0.5403
 5396TIP3    H237748   0.703   2.564   1.556  0.6855  1.4026  0.7570
 5397TIP3   OH237749   6.653   4.626   8.914  0.0540  0.1791  0.6068
 5397TIP3    H137750   6.649   4.569   8.992  1.9230  1.2141  1.5306
 5397TIP3    H237751   6.598   4.701   8.936 -0.1096  0.0695  0.5718
 5398TIP3   OH237752   5.153   3.255   8.922  0.5629 -0.5623 -0.2278
 5398TIP3    H137753   5.162   3.242   9.016  0.0832 -1.4268 -0.2916
 5398TIP3    H237754   5.191   3.341   8.906  0.5457 -0.3600  0.7688
 5399TIP3   OH237755   2.519   1.892   1.792 -0.1499 -0.2365  0.2565
 5399TIP3    H137756   2.519   1.914   1.885 -0.3253 -0.0190  0.2053
 5399TIP3    H237757   2.522   1.796   1.790  4.1243 -0.3095  0.4826
 5400TIP3   OH237758   1.458   6.625   8.742 -0.3684 -0.6643 -0.0035
 5400TIP3    H137759   1.547   6.614   8.777 -0.5838 -1.0089  0.4441
 5400TIP3    H237760   1.465   6.594   8.651  0.7064  2.2703 -1.0399
 5401TIP3   OH237761   5.291   4.558   0.622 -0.2011  0.3870  0.4406
 5401TIP3    H137762   5.306   4.546   0.529 -0.6520 -0.8229  0.5098
 5401TIP3    H237763   5.327   4.645   0.641  1.2280  0.0370 -0.5538
 5402TIP3   OH237764   1.963   1.926   8.746  0.1720 -0.2355 -0.0216
 5402TIP3    H137765   2.023   1.870   8.697  0.8096  0.2178  0.2237
 5402TIP3    H237766   1.876   1.888   8.732  0.5155 -0.8778 -0.4107
 5403TIP3   OH237767   4.183   5.127   8.453  0.0696  0.2320 -0.0446
 5403TIP3    H137768   4.126   5.086   8.388 -1.0435  2.0673 -0.3064
 5403TIP3    H237769   4.228   5.197   8.406  0.2659  0.7314  0.8522
 5404TIP3   OH237770   1.557   3.858   8.780  0.2066 -0.6296 -0.2039
 5404TIP3    H137771   1.468   3.892   8.789  0.3911  0.1493 -1.2262
 5404TIP3    H237772   1.581   3.831   8.869 -1.0645 -0.9004  0.0683
 5405TIP3   OH237773   2.288   0.320   1.865  0.0227  0.6336 -0.2943
 5405TIP3    H137774   2.369   0.282   1.900 -0.4133  0.0015  0.0618
 5405TIP3    H237775   2.305   0.414   1.862  0.5859  0.5593  0.2727
 5406TIP3   OH237776   2.083   2.706   8.442 -0.0215 -0.2330  0.2301
 5406TIP3    H137777   2.170   2.711   8.402  0.5151 -1.7100  1.1188
 5406TIP3    H237778   2.101   2.700   8.536 -1.0159 -1.7297  0.3552
 5407TIP3   OH237779   4.790   2.392   1.309 -0.1692  0.1218  0.1412
 5407TIP3    H137780   4.840   2.432   1.380  0.1745 -0.6652  0.3471
 5407TIP3    H237781   4.707   2.367   1.349 -0.1349  0.0481  0.1658
 5408TIP3   OH237782   2.907   3.874   7.782 -0.4401  0.3231 -0.4772
 5408TIP3    H137783   2.856   3.857   7.861  1.5051  0.5274  0.8639
 5408TIP3    H237784   2.840   3.889   7.714 -2.1543 -0.0353  1.0460
 5409TIP3   OH237785   1.508   4.945   7.919 -0.4037  0.7572 -0.3233
 5409TIP3    H137786   1.499   4.853   7.893  0.1748  0.9734 -1.3401
 5409TIP3    H237787   1.512   4.993   7.836  0.3380  1.5940  0.1801
 5410TIP3   OH237788   1.763   2.452   8.343  0.5369 -0.0548  0.2223
 5410TIP3    H137789   1.764   2.543   8.315 -1.2022  0.5452  1.9712
 5410TIP3    H237790   1.692   2.412   8.293  0.9502 -0.3556 -0.1429
 5411TIP3   OH237791   2.475   1.838   7.513  0.4589  0.2482  0.3715
 5411TIP3    H137792   2.542   1.838   7.582  0.4602 -1.1924  0.3905
 5411TIP3    H237793   2.516   1.794   7.439 -0.0110  0.5780 -0.0894
 5412TIP3   OH237794   4.600   0.274   0.821 -0.2595 -0.0135 -0.8492
 5412TIP3    H137795   4.514   0.305   0.793 -1.4789 -0.8437  1.7390
 5412TIP3    H237796   4.634   0.228   0.744 -1.3178  1.7950 -2.5070
 5413TIP3   OH237797   1.350   2.733   7.958 -0.0539  0.5082  0.2430
 5413TIP3    H137798   1.334   2.817   7.915  1.3735  0.1961 -1.0114
 5413TIP3    H237799   1.298   2.736   8.038  0.0940  2.6601  0.3116
 5414TIP3   OH237800   0.844   6.119   7.580  0.1094  0.0170 -0.0263
 5414TIP3    H137801   0.749   6.121   7.577  0.0232 -0.4301  1.5360
 5414TIP3    H237802   0.867   6.165   7.661  1.1730 -0.5409  0.0116
 5415TIP3   OH237803   4.754   1.754   1.785  0.1447  0.1923  0.2939
 5415TIP3    H137804   4.836   1.731   1.741 -0.1927 -0.3710 -0.0479
 5415TIP3    H237805   4.773   1.837   1.829  1.3159 -0.6179  1.3630
 5416TIP3   OH237806   3.224   4.682   2.012 -0.1994 -0.0578 -0.2839
 5416TIP3    H137807   3.296   4.619   2.009  0.0650  0.0936  1.6385
 5416TIP3    H237808   3.262   4.761   2.050 -1.1319  0.4135 -0.2897
 5417TIP3   OH237809   5.402   0.688   7.816 -1.1011  0.1960  0.0787
 5417TIP3    H137810   5.316   0.699   7.857 -0.8673  0.9451  0.3855
 5417TIP3    H237811   5.453   0.764   7.846  0.3849 -1.3459  1.7115
 5418TIP3   OH237812   0.081   2.046   8.861 -0.0093  0.2443 -0.1189
 5418TIP3    H137813   0.032   2.047   8.943  1.9734 -2.0448  1.2292
 5418TIP3    H237814   0.117   2.135   8.853 -2.2608  1.2302  0.1231
 5419TIP3   OH237815   5.247   2.654   7.873  0.2791 -0.0607  0.6041
 5419TIP3    H137816   5.294   2.607   7.804 -2.4793 -1.0451 -0.7446
 5419TIP3    H237817   5.231   2.741   7.835 -1.7639 -0.7939 -0.3556
 5420TIP3   OH237818   1.102   4.165   7.135  0.2196 -0.3198 -0.0255
 5420TIP3    H137819   1.158   4.148   7.059 -0.7459 -0.4740 -0.7248
 5420TIP3    H237820   1.073   4.079   7.163 -0.9401 -0.1648 -0.6747
 5421TIP3   OH237821   5.265   5.238   1.177 -0.2459 -0.1574  0.1823
 5421TIP3    H137822   5.250   5.219   1.084  2.2876 -0.4125 -0.2654
 5421TIP3    H237823   5.260   5.333   1.183 -2.8933 -0.2347  0.3578
 5422TIP3   OH237824   1.333   5.555   1.643  0.8841  0.5299  0.3270
 5422TIP3    H137825   1.371   5.471   1.668  1.9884  0.5881 -1.0410
 5422TIP3    H237826   1.408   5.607   1.612  0.3041  2.2061  1.5748
 5423TIP3   OH237827   6.584   3.753   0.257 -0.1259  0.3510  0.7089
 5423TIP3    H137828   6.613   3.753   0.348 -0.7546  0.0951  0.9175
 5423TIP3    H237829   6.495   3.788   0.260  0.4065  1.8223 -0.0129
 5424TIP3   OH237830   0.824   5.128   8.700  0.4244  0.3199 -0.6008
 5424TIP3    H137831   0.908   5.114   8.744  0.8389  3.1833 -0.3465
 5424TIP3    H237832   0.839   5.100   8.610  0.6641 -2.1027  0.1181
 5425TIP3   OH237833   4.866   0.511   1.653  0.0615 -0.5389 -0.2844
 5425TIP3    H137834   4.933   0.532   1.718 -1.0386 -1.8573  1.3502
 5425TIP3    H237835   4.902   0.545   1.571  2.1222 -0.0237  0.7492
 5426TIP3   OH237836   5.003   1.207   8.291 -0.4903  0.0321 -0.3544
 5426TIP3    H137837   5.084   1.207   8.343 -0.1932 -0.9436 -0.7873
 5426TIP3    H237838   5.014   1.133   8.230 -1.3946  0.3453 -0.9127
 5427TIP3   OH237839   2.294   2.461   1.220 -0.2974  0.8029 -0.1547
 5427TIP3    H137840   2.322   2.455   1.312 -0.7018 -0.8209 -0.1047
 5427TIP3    H237841   2.310   2.552   1.196  1.3877  0.8715  1.0188
 5428TIP3   OH237842   2.258   0.051   0.510 -0.2382 -0.1000 -0.3207
 5428TIP3    H137843   2.320   0.003   0.455  0.2513 -0.6570  0.7042
 5428TIP3    H237844   2.308   0.078   0.586 -1.5594 -1.8957  1.2845
 5429TIP3   OH237845   0.982   4.388   1.071  0.1603 -0.2267  0.5785
 5429TIP3    H137846   1.016   4.375   1.160 -0.7274  0.5961  1.0574
 5429TIP3    H237847   0.958   4.481   1.067  0.3462 -0.2087 -0.5872
 5430TIP3   OH237848   3.061   5.571   8.869  0.0238  0.3670 -0.0812
 5430TIP3    H137849   2.998   5.512   8.827 -0.9935  1.0997  0.3784
 5430TIP3    H237850   3.129   5.513   8.905 -0.8365 -0.5049  0.1629
 5431TIP3   OH237851   2.258   0.031   1.138  0.3941 -0.2628 -0.3748
 5431TIP3    H137852   2.297   0.013   1.224 -0.0976  2.3790  0.5217
 5431TIP3    H237853   2.189  -0.034   1.128 -0.7515  0.4224  2.1357
 5432TIP3   OH237854   3.600   4.255   0.950 -0.0895 -0.0949 -0.1431
 5432TIP3    H137855   3.633   4.258   0.860 -0.0022 -0.8123 -0.1403
 5432TIP3    H237856   3.550   4.174   0.954 -0.8362  0.3754  0.2085
 5433TIP3   OH237857   2.936   4.212   0.844  0.9608 -0.2247  0.8969
 5433TIP3    H137858   2.855   4.208   0.793  2.5391  1.9197 -2.0974
 5433TIP3    H237859   2.964   4.121   0.853 -0.1945 -0.7806 -0.7186
 5434TIP3   OH237860   3.323   6.414   8.946  0.4571 -0.1707  0.1550
 5434TIP3    H137861   3.368   6.353   9.004  2.0563 -1.8214 -2.5825
 5434TIP3    H237862   3.381   6.490   8.941  0.5696 -0.2452  0.3336
 5435TIP3   OH237863   6.569   5.534   7.750  0.5572  0.5737  0.5767
 5435TIP3    H137864   6.528   5.508   7.832  0.5001  0.3180  0.4690
 5435TIP3    H237865   6.529   5.618   7.729  0.2364  0.4234  0.5778
 5436TIP3   OH237866   3.312   4.614   1.540  0.4906 -0.1328  0.2286
 5436TIP3    H137867   3.359   4.532   1.554  0.4470 -0.0636  0.8131
 5436TIP3    H237868   3.232   4.589   1.495  1.5419 -0.1410 -1.7514
 5437TIP3   OH237869   4.885   6.537   7.813  0.0898  0.3683 -0.2114
 5437TIP3    H137870   4.865   6.627   7.840  0.2032  0.9757 -1.9850
 5437TIP3    H237871   4.825   6.521   7.740 -0.8562 -1.5093  0.9280
 5438TIP3   OH237872   3.982   0.504   7.814 -0.1299 -0.2948 -0.6807
 5438TIP3    H137873   4.049   0.543   7.870  0.4027 -2.0711  0.0114
 5438TIP3    H237874   3.939   0.578   7.772  1.5092  0.9529 -0.2647
 5439TIP3   OH237875   6.439   2.644   8.887  0.1505  0.1928  0.2098
 5439TIP3    H137876   6.468   2.555   8.908 -0.5243 -0.0589  0.0999
 5439TIP3    H237877   6.343   2.639   8.890  0.0173  0.3533 -2.0641
 5440TIP3   OH237878   0.591   0.733   1.318  0.2161  0.2101 -0.0031
 5440TIP3    H137879   0.523   0.709   1.381  1.1466 -0.3788  0.8091
 5440TIP3    H237880   0.602   0.655   1.264  0.2451  0.2971 -0.1209
 5441TIP3   OH237881   3.988   3.283   0.423 -0.4053 -0.2039 -0.0539
 5441TIP3    H137882   4.039   3.364   0.418  0.9712 -1.0622 -0.6851
 5441TIP3    H237883   3.934   3.293   0.501  2.0360  0.0446  1.7170
 5442TIP3   OH237884   5.039   4.074   1.556 -0.1141  0.4307 -0.1616
 5442TIP3    H137885   4.970   4.017   1.523  1.3449 -2.2960  1.1963
 5442TIP3    H237886   5.035   4.064   1.651  2.9584 -0.9521 -0.0832
 5443TIP3   OH237887   4.689   5.338   8.871 -0.7394 -0.3535 -0.6967
 5443TIP3    H137888   4.618   5.297   8.921 -0.3400  0.4406  0.5584
 5443TIP3    H237889   4.767   5.325   8.925 -0.1701 -0.0803 -1.4423
 5444TIP3   OH237890   2.289   0.848   7.540  0.0101 -0.6317 -0.6698
 5444TIP3    H137891   2.331   0.769   7.505  0.6783 -0.3543 -0.5063
 5444TIP3    H237892   2.301   0.841   7.635  2.2191  0.8105 -0.7604
 5445TIP3   OH237893   2.363   1.076   0.314 -0.2789  0.4646 -0.2687
 5445TIP3    H137894   2.363   1.019   0.392  0.1389  0.8897  0.0488
 5445TIP3    H237895   2.416   1.151   0.340 -2.8188  2.2311  0.2190
 5446TIP3   OH237896   1.582   3.569   8.815  0.1290  0.2792  0.5321
 5446TIP3    H137897   1.559   3.507   8.746  2.2609 -0.6596  0.5973
 5446TIP3    H237898   1.602   3.650   8.768 -0.0083  0.1174  0.1925
 5447TIP3   OH237899   0.794   0.330   0.707 -0.3385 -0.8837  0.7787
 5447TIP3    H137900   0.873   0.285   0.738  0.7889  0.1740 -0.4154
 5447TIP3    H237901   0.745   0.263   0.659  1.1431 -0.9879 -0.6890
 5448TIP3   OH237902   6.435   4.621   7.333  0.1010 -0.4683  0.6087
 5448TIP3    H137903   6.488   4.592   7.259  0.1652 -2.0825  1.2476
 5448TIP3    H237904   6.486   4.597   7.410 -0.5990 -0.0982  1.1968
 5449TIP3   OH237905   2.744   0.284   8.401  0.4044  0.1145  0.0239
 5449TIP3    H137906   2.700   0.198   8.402  0.6754 -0.0316  1.0654
 5449TIP3    H237907   2.672   0.347   8.392  0.0132 -0.1519  1.0894
 5450TIP3   OH237908   4.649   5.883   0.500  0.7811  0.2355  0.0954
 5450TIP3    H137909   4.707   5.881   0.576  1.2437  1.2343 -0.2169
 5450TIP3    H237910   4.562   5.896   0.537  1.1948  2.4883  0.4043
 5451TIP3   OH237911   5.514   3.938   8.128 -0.5634 -0.2481  0.9602
 5451TIP3    H137912   5.454   3.864   8.119 -0.1850 -0.6592  1.7871
 5451TIP3    H237913   5.544   3.934   8.219  1.8287 -0.9075  0.2187
 5452TIP3   OH237914   2.234   2.442   1.897  0.2071  0.7037 -0.0251
 5452TIP3    H137915   2.297   2.372   1.912  0.4223  1.3631  2.7281
 5452TIP3    H237916   2.233   2.492   1.979 -1.8343  2.3872 -0.9612
 5453TIP3   OH237917   0.608   1.786   0.091  0.1431  0.5904  0.5739
 5453TIP3    H137918   0.578   1.818   0.006 -2.4435 -0.3830  1.0321
 5453TIP3    H237919   0.694   1.748   0.073 -0.8998 -0.7972 -1.9023
 5454TIP3   OH237920   3.556   0.838   6.694 -0.0977 -0.0100  0.6776
 5454TIP3    H137921   3.494   0.900   6.733 -0.6116  1.5559 -2.2999
 5454TIP3    H237922   3.633   0.891   6.673  1.5285 -1.5115  2.4726
 5455TIP3   OH237923   4.350   0.562   8.204 -0.1392 -0.1455 -0.0030
 5455TIP3    H137924   4.341   0.554   8.109 -0.3958 -1.8814  0.1458
 5455TIP3    H237925   4.260   0.575   8.235 -0.2217 -0.9921  0.1167
 5456TIP3   OH237926   6.079   1.943   1.597 -0.3802 -0.1042 -0.1917
 5456TIP3    H137927   5.983   1.950   1.601 -0.4257 -0.1463 -1.0224
 5456TIP3    H237928   6.097   1.921   1.505  0.4750  0.6345 -0.2073
 5457TIP3   OH237929   3.714   1.952   1.335  0.5287  0.0101  0.0174
 5457TIP3    H137930   3.654   1.889   1.295 -0.0960 -0.0877  1.0451
 5457TIP3    H237931   3.759   1.993   1.262 -0.0939 -0.6193 -0.7383
 5458TIP3   OH237932   0.005   0.680   7.525  0.0344  0.1402  0.4877
 5458TIP3    H137933  -0.083   0.644   7.519 -1.2587  3.1705 -0.7156
 5458TIP3    H237934   0.029   0.703   7.435  1.6214  0.3136  0.9195
 5459TIP3   OH237935   5.768   4.704   7.377 -0.7948  0.1879 -0.0632
 5459TIP3    H137936   5.836   4.647   7.341 -0.4684 -0.6858  1.7961
 5459TIP3    H237937   5.753   4.769   7.309  0.6410 -0.6341 -1.2404
 5460TIP3   OH237938   1.328   2.154   2.657  0.3479  0.1926  0.0497
 5460TIP3    H137939   1.329   2.183   2.565  3.0269 -0.4860 -0.2277
 5460TIP3    H237940   1.420   2.139   2.678 -0.2557 -0.3018  2.6864
 5461TIP3   OH237941   3.834   1.688   0.091 -0.3214 -0.0322  0.4947
 5461TIP3    H137942   3.821   1.638   0.172 -1.3078  0.8145  0.8832
 5461TIP3    H237943   3.770   1.651   0.030 -0.4534  0.1674  0.5101
 5462TIP3   OH237944   6.110   6.113   1.855 -0.2418 -0.2267 -0.5444
 5462TIP3    H137945   6.068   6.050   1.797  0.0882 -2.6157  1.6857
 5462TIP3    H237946   6.041   6.142   1.915  0.0292  0.1900 -0.4225
 5463TIP3   OH237947   4.016   5.952   8.561  0.4410  0.4691  0.5720
 5463TIP3    H137948   4.069   6.025   8.593 -0.1829  0.6941  1.1222
 5463TIP3    H237949   3.927   5.973   8.588 -0.1036  0.5830 -1.2133
 5464TIP3   OH237950   2.294   6.321   8.739 -0.1682  0.0904  0.3312
 5464TIP3    H137951   2.279   6.296   8.648  0.9601  1.4736 -0.2749
 5464TIP3    H237952   2.229   6.271   8.788 -1.5217  0.0892 -1.3313
 5465TIP3   OH237953   3.030   4.286   2.197  0.5434  0.1484  0.0626
 5465TIP3    H137954   2.940   4.313   2.215  0.7854  1.5061 -0.6101
 5465TIP3    H237955   3.079   4.315   2.274  0.5859  0.4088 -0.0627
 5466TIP3   OH237956   5.355   0.983   8.629  0.0081  0.3770  0.2742
 5466TIP3    H137957   5.394   1.006   8.545 -0.6347  1.2107  0.1940
 5466TIP3    H237958   5.295   1.055   8.648 -0.2238 -0.0530  1.2072
 5467TIP3   OH237959   4.640   0.373   7.195  0.3671  0.4328  0.2753
 5467TIP3    H137960   4.582   0.297   7.209 -0.4518  0.6651 -1.5759
 5467TIP3    H237961   4.694   0.348   7.120  0.0093  1.6893 -0.4307
 5468TIP3   OH237962   2.385   1.732   1.380 -0.6845  0.2613  0.3452
 5468TIP3    H137963   2.431   1.808   1.345  1.7120 -0.8995  0.7860
 5468TIP3    H237964   2.353   1.761   1.466  0.7086  0.6418  0.7606
 5469TIP3   OH237965   4.616   2.973   2.222 -0.0282 -0.2683  0.1514
 5469TIP3    H137966   4.635   2.879   2.221  0.8554 -0.1060 -1.1829
 5469TIP3    H237967   4.521   2.979   2.210 -0.1188 -0.9846  0.4816
 5470TIP3   OH237968   5.101   3.231   8.316  0.7281  0.1757  0.2863
 5470TIP3    H137969   5.036   3.199   8.254  2.1284  0.1962 -1.2364
 5470TIP3    H237970   5.063   3.211   8.402 -0.3065 -1.7899 -0.5560
 5471TIP3   OH237971   6.105   1.270   0.757  0.0896  0.3684  0.1801
 5471TIP3    H137972   6.156   1.292   0.835  0.9477 -1.1687  0.0796
 5471TIP3    H237973   6.103   1.175   0.754 -2.0961  0.3588 -0.3094
 5472TIP3   OH237974   3.194   5.579   0.841  0.3733 -0.1712  0.3495
 5472TIP3    H137975   3.194   5.588   0.936  0.9474 -1.7844  0.5312
 5472TIP3    H237976   3.146   5.656   0.809 -2.3113 -1.0091  2.0956
 5473TIP3   OH237977   5.804   5.567   8.963  0.2131 -0.2691 -0.0506
 5473TIP3    H137978   5.761   5.650   8.942  1.1648  0.2237 -0.0821
 5473TIP3    H237979   5.798   5.516   8.883  0.6548  0.2212 -0.4017
 5474TIP3   OH237980   5.906   0.251   7.611  0.1415  0.6317  0.6597
 5474TIP3    H137981   5.842   0.266   7.680 -4.3978 -1.5580 -2.5734
 5474TIP3    H237982   5.897   0.326   7.553 -1.1210 -0.5512 -0.7767
 5475TIP3   OH237983   1.034   5.055   7.232 -0.0930 -0.3889  0.0403
 5475TIP3    H137984   1.012   5.120   7.299  0.0323 -1.6877  1.3977
 5475TIP3    H237985   1.114   5.088   7.192  0.8087 -0.4074  1.7413
 5476TIP3   OH237986   1.563   4.169   8.892  0.3107  0.3018  0.1887
 5476TIP3    H137987   1.500   4.101   8.869 -0.6947  1.0762  0.5748
 5476TIP3    H237988   1.518   4.224   8.956  1.6937  0.3947  1.1245
 5477TIP3   OH237989   3.124   6.542   7.282 -0.5641  0.1378  0.1484
 5477TIP3    H137990   3.080   6.540   7.198  1.0998  0.5797 -0.7811
 5477TIP3    H237991   3.069   6.596   7.338 -2.6919 -1.6976 -0.0163
 5478TIP3   OH237992   6.558   4.723   8.187 -0.1569  0.3814  0.0326
 5478TIP3    H137993   6.486   4.686   8.239 -0.7270  1.3324 -0.0444
 5478TIP3    H237994   6.570   4.811   8.223  1.9011 -0.2149  0.9334
 5479TIP3   OH237995   3.791   4.087   2.399 -0.1305 -0.3454  0.5366
 5479TIP3    H137996   3.847   4.164   2.405  0.8508 -0.5702 -3.3340
 5479TIP3    H237997   3.706   4.122   2.372  0.0453 -0.4965 -0.2392
 5480TIP3   OH237998   6.508   3.477   1.304  0.4004  0.0134 -0.9340
 5480TIP3    H137999   6.537   3.426   1.229 -0.0156 -1.2412 -0.2770
 5480TIP3    H238000   6.425   3.437   1.329 -0.6175  1.8739 -1.1930
 5481TIP3   OH238001   0.868   4.129   1.146  0.0195 -0.3277  0.4874
 5481TIP3    H138002   0.919   4.198   1.102  1.1861 -0.2966  1.8367
 5481TIP3    H238003   0.828   4.172   1.221 -0.0464 -0.9115  0.7931
 5482TIP3   OH238004   5.133   4.048   1.119 -0.2739 -0.1209 -0.1584
 5482TIP3    H138005   5.087   4.131   1.105 -0.5684 -0.3923 -0.8751
 5482TIP3    H238006   5.188   4.038   1.041  0.2506 -0.2849  0.2299
 5483TIP3   OH238007   3.354   4.959   2.124  0.1288  0.1722 -0.6850
 5483TIP3    H138008   3.380   5.044   2.160  1.5182 -0.6554  0.3832
 5483TIP3    H238009   3.433   4.906   2.128 -1.0120 -1.5824 -0.0819
 5484TIP3   OH238010   2.270   0.889   2.419  0.2229 -0.1689  0.6057
 5484TIP3    H138011   2.286   0.833   2.343 -2.8689 -0.8367  0.3216
 5484TIP3    H238012   2.279   0.831   2.494  0.6122 -0.1565  0.5699
 5485TIP3   OH238013   3.240   0.994   1.803 -0.7104  0.0422  0.2390
 5485TIP3    H138014   3.145   0.983   1.805 -0.6698 -0.7364 -1.1308
 5485TIP3    H238015   3.274   0.904   1.800  0.0960  0.3057  0.9598
 5486TIP3   OH238016   6.626   4.537   7.553 -0.1061  0.0671 -0.0352
 5486TIP3    H138017   6.659   4.505   7.637  1.4217 -0.8366 -0.9324
 5486TIP3    H238018   6.653   4.471   7.490 -1.3397  0.6614 -1.2377
 5487TIP3   OH238019   5.706   1.708   8.319 -0.0422  0.3779 -0.0533
 5487TIP3    H138020   5.697   1.731   8.412 -0.3083 -1.8745  0.5412
 5487TIP3    H238021   5.734   1.616   8.320  0.3389  0.4307 -2.2120
 5488TIP3   OH238022   2.761   6.630   8.448 -0.2541 -0.7107 -0.5367
 5488TIP3    H138023   2.674   6.595   8.429 -1.0024 -0.2505  1.7198
 5488TIP3    H238024   2.803   6.562   8.500 -0.0893 -0.0555  0.2015
 5489TIP3   OH238025   5.948   5.543   6.867  0.3177 -0.0799 -0.1952
 5489TIP3    H138026   6.027   5.578   6.908 -0.3184  0.3298  0.7071
 5489TIP3    H238027   5.980   5.485   6.798  1.3994  0.2036  0.0598
 5490TIP3   OH238028   5.816   5.469   2.128  0.0067 -0.2367  0.4803
 5490TIP3    H138029   5.752   5.453   2.197  0.6217 -0.1172  1.0873
 5490TIP3    H238030   5.864   5.547   2.157  0.0852 -0.0172 -0.2197
 5491TIP3   OH238031   4.121   5.633   2.743 -0.2546 -0.3157 -0.0061
 5491TIP3    H138032   4.195   5.617   2.685  0.3684 -3.4652  1.4089
 5491TIP3    H238033   4.127   5.725   2.767  1.7335  0.0830 -1.8418
 5492TIP3   OH238034   5.063   5.820   1.184  0.3422  0.6019 -0.3242
 5492TIP3    H138035   5.085   5.911   1.201  2.9770 -0.2291  1.3145
 5492TIP3    H238036   4.999   5.797   1.251 -0.3091  1.2086 -0.7262
 5493TIP3   OH238037   1.977   2.858   6.610  0.0370 -0.2422  0.1733
 5493TIP3    H138038   1.978   2.954   6.601  0.5143 -0.2120  0.5425
 5493TIP3    H238039   1.886   2.838   6.631  0.3996  0.3704  2.5595
 5494TIP3   OH238040   2.041   2.453   8.138  0.2756  0.1341 -0.3198
 5494TIP3    H138041   2.006   2.539   8.114  1.3661  0.6811 -0.0580
 5494TIP3    H238042   2.132   2.456   8.107  0.7639 -0.3561  0.9743
 5495TIP3   OH238043   1.879   1.765   0.074  0.0999 -0.2667 -0.3670
 5495TIP3    H138044   1.853   1.714  -0.002  2.8773 -1.3190 -0.7304
 5495TIP3    H238045   1.879   1.702   0.146  0.4116 -0.0183 -0.1439
 5496TIP3   OH238046   3.179   5.871   6.815  0.1303 -0.2593  0.4545
 5496TIP3    H138047   3.216   5.784   6.828  3.9205  0.9139 -1.1291
 5496TIP3    H238048   3.240   5.914   6.756 -3.2567  2.4937 -1.4028
 5497TIP3   OH238049   6.343   5.932   6.983  0.4833 -0.0792 -0.4773
 5497TIP3    H138050   6.367   5.843   6.956 -0.4123 -0.5425  0.1591
 5497TIP3    H238051   6.252   5.923   7.013  1.2396  0.4509  2.2307
 5498TIP3   OH238052   4.980   5.364   1.838  0.1529 -0.1950  0.2698
 5498TIP3    H138053   4.904   5.335   1.788  0.3462  1.2667 -0.9308
 5498TIP3    H238054   4.989   5.299   1.908  0.5308 -3.0233 -2.1857
 5499TIP3   OH238055   2.414   5.152   0.610  0.2798  0.1240 -0.5346
 5499TIP3    H138056   2.483   5.206   0.571  0.9290 -0.0733  0.3201
 5499TIP3    H238057   2.419   5.171   0.704 -2.3425  1.8632 -0.6604
 5500TIP3   OH238058   1.972   2.910   0.244 -0.4223 -0.2712 -0.4737
 5500TIP3    H138059   1.996   2.820   0.264  2.6622  0.2441 -1.3408
 5500TIP3    H238060   2.035   2.938   0.177 -1.7470  2.2998 -0.7963
 5501TIP3   OH238061   4.842   6.237   0.941  0.1468 -0.3963 -0.5289
 5501TIP3    H138062   4.778   6.232   0.870 -0.8310  0.3465  0.2647
 5501TIP3    H238063   4.877   6.148   0.949  0.0726 -0.5465 -1.7497
 5502TIP3   OH238064   3.877   5.008   2.330  0.7228 -0.6587 -0.1073
 5502TIP3    H138065   3.863   4.931   2.275 -1.9638 -1.0970  1.0079
 5502TIP3    H238066   3.854   4.979   2.419 -1.2539  1.5770  0.2214
 5503TIP3   OH238067   6.330   5.723   7.973  0.8794  0.2406 -0.3665
 5503TIP3    H138068   6.256   5.750   7.919  0.6643  1.4524  0.5082
 5503TIP3    H238069   6.320   5.628   7.980 -0.6278  0.3834 -0.2048
 5504TIP3   OH238070   5.244   4.454   8.085  0.7708 -0.4030  0.7387
 5504TIP3    H138071   5.160   4.474   8.126  0.2168 -0.0523 -0.5229
 5504TIP3    H238072   5.301   4.430   8.158 -0.6236 -1.3997  1.5641
 5505TIP3   OH238073   4.162   0.766   1.237  0.2304 -0.0342 -0.2803
 5505TIP3    H138074   4.226   0.790   1.170  1.3218 -0.5769  0.5429
 5505TIP3    H238075   4.208   0.704   1.294 -0.1644  1.4526  1.7985
 5506TIP3   OH238076   6.079   1.333   2.502  0.1604  0.2789  0.4213
 5506TIP3    H138077   5.986   1.354   2.514 -0.0266 -0.6004  0.5862
 5506TIP3    H238078   6.111   1.314   2.591 -0.1987 -2.1130  0.1151
 5507TIP3   OH238079   1.489   6.225   7.605 -0.5213 -0.2066 -0.1601
 5507TIP3    H138080   1.411   6.232   7.549 -1.1518 -2.8780  0.2269
 5507TIP3    H238081   1.459   6.174   7.680  1.1588  0.3659  0.9453
 5508TIP3   OH238082   0.076   4.219   0.356 -0.4044  0.4678 -0.0187
 5508TIP3    H138083   0.087   4.134   0.313 -1.4144 -1.2622  2.8040
 5508TIP3    H238084  -0.008   4.251   0.324  1.3224  2.0760 -3.4562
 5509TIP3   OH238085   2.430   4.205   7.019  0.4133 -0.1420  0.3224
 5509TIP3    H138086   2.341   4.240   7.016  0.8940  1.1378  0.4671
 5509TIP3    H238087   2.423   4.120   6.975 -0.3816  1.0645 -2.0813
 5510TIP3   OH238088   4.793   4.250   0.710  0.2243 -0.3183 -0.2669
 5510TIP3    H138089   4.752   4.163   0.708  0.1678 -0.3576  1.2327
 5510TIP3    H238090   4.726   4.309   0.677  0.2354 -0.8167 -1.2332
 5511TIP3   OH238091   6.421   4.598   0.358 -0.0816 -0.4963  0.3302
 5511TIP3    H138092   6.355   4.577   0.424 -0.5197 -0.0783  0.0282
 5511TIP3    H238093   6.386   4.675   0.313  0.7270 -0.1192  0.3345
 5512TIP3   OH238094   6.347   3.477   7.062 -0.6342  0.6225 -0.0274
 5512TIP3    H138095   6.429   3.437   7.091 -0.9918  0.7736  1.2172
 5512TIP3    H238096   6.284   3.457   7.131 -1.7477  0.2547 -1.0999
 5513TIP3   OH238097   3.581   3.768   1.386  0.2058 -0.8900  0.1868
 5513TIP3    H138098   3.529   3.688   1.398  1.7304 -1.8867  0.3937
 5513TIP3    H238099   3.662   3.751   1.433  1.0221  0.3452 -0.7194
 5514TIP3   OH238100   5.212   0.822   0.002  0.1108 -0.0256  0.2495
 5514TIP3    H138101   5.140   0.782  -0.047  0.0835 -1.0740  1.1204
 5514TIP3    H238102   5.244   0.891  -0.056  0.3838 -1.5141 -1.4874
 5515TIP3   OH238103   3.883   2.041   8.610 -0.5309  0.0555 -0.4896
 5515TIP3    H138104   3.858   2.104   8.542 -1.1688 -1.0165 -1.2760
 5515TIP3    H238105   3.813   1.976   8.610 -0.2877 -0.2391  0.8657
 5516TIP3   OH238106   1.323   2.199   8.208  0.4373  0.1803  0.1085
 5516TIP3    H138107   1.384   2.132   8.240  1.9736  0.8830 -1.1773
 5516TIP3    H238108   1.260   2.151   8.155 -0.6528 -0.6622  2.0875
 5517TIP3   OH238109   6.070   0.885   7.630  0.4275  0.7362  0.1129
 5517TIP3    H138110   6.138   0.952   7.626  0.5824  0.5522 -2.6929
 5517TIP3    H238111   6.102   0.815   7.572 -0.3014 -1.2459  1.9790
 5518TIP3   OH238112   5.455   1.395   0.902  0.1138 -0.1033  0.1421
 5518TIP3    H138113   5.550   1.400   0.907  0.0687 -0.0796  1.2879
 5518TIP3    H238114   5.438   1.325   0.839  0.8804  0.1521 -0.3596
 5519TIP3   OH238115   5.415   5.026   0.063  0.4304  0.2188  0.0643
 5519TIP3    H138116   5.322   5.035   0.086 -0.2921 -1.9527 -1.6660
 5519TIP3    H238117   5.450   4.966   0.129 -0.3179 -1.7524 -1.2593
 5520TIP3   OH238118   3.449   1.200   1.795 -0.1087 -0.3139 -0.2229
 5520TIP3    H138119   3.389   1.146   1.845 -1.6454  1.1935 -0.3537
 5520TIP3    H238120   3.404   1.284   1.786  1.9915  0.8492 -0.4090
 5521TIP3   OH238121   4.201   2.299   7.531  0.4701  0.1735 -0.1979
 5521TIP3    H138122   4.235   2.237   7.595  0.8630  1.1847  0.5970
 5521TIP3    H238123   4.107   2.281   7.526  0.6074 -0.5811 -0.1005
 5522TIP3   OH238124   3.695   0.966   0.103 -0.4372 -0.3556  0.8797
 5522TIP3    H138125   3.683   0.889   0.049  0.8638  0.0327  0.0001
 5522TIP3    H238126   3.723   1.035   0.042  1.1502  0.0754  2.0191
 5523TIP3   OH238127   4.645   6.190   0.735 -0.4144 -0.4489 -0.0459
 5523TIP3    H138128   4.570   6.250   0.740 -0.5857 -0.6890  0.3761
 5523TIP3    H238129   4.605   6.103   0.738 -0.2063 -0.5985 -1.2259
 5524TIP3   OH238130   0.661   4.541   0.044  0.2007 -0.2071 -0.1294
 5524TIP3    H138131   0.648   4.448   0.023  0.6836 -0.3973  0.4018
 5524TIP3    H238132   0.575   4.570   0.075 -0.2068 -0.2248 -1.2000
 5525TIP3   OH238133   5.437   0.649   6.748  0.1603 -0.4229 -0.1751
 5525TIP3    H138134   5.459   0.570   6.798 -0.0950  0.4741  1.4011
 5525TIP3    H238135   5.345   0.665   6.766  0.5811  1.0982  0.8038
 5526TIP3   OH238136   5.720   1.300   2.296  0.0303  0.0713 -0.0368
 5526TIP3    H138137   5.636   1.263   2.269  1.1920 -1.3312 -1.9396
 5526TIP3    H238138   5.722   1.387   2.254  0.5264 -0.8824 -2.0999
 5527TIP3   OH238139   5.381   2.811   7.669  0.1092 -0.4159 -0.3262
 5527TIP3    H138140   5.303   2.859   7.699  0.7779  1.1602 -1.0128
 5527TIP3    H238141   5.346   2.746   7.607 -0.8223 -0.9082  0.6708
 5528TIP3   OH238142   6.619   6.632   7.027  0.3160  0.1186 -0.0222
 5528TIP3    H138143   6.614   6.711   6.973  0.5598 -0.3919 -0.8135
 5528TIP3    H238144   6.639   6.562   6.964 -0.1765 -0.6131  0.6265
 5529TIP3   OH238145   3.300   4.677   0.265 -0.1293  0.0144  0.0741
 5529TIP3    H138146   3.331   4.587   0.274  0.5137  0.3388  1.1944
 5529TIP3    H238147   3.268   4.681   0.175 -0.2214 -1.3464  0.0171
 5530TIP3   OH238148   0.314   3.528   7.117 -0.2790 -1.2037  0.3506
 5530TIP3    H138149   0.291   3.584   7.043  0.6862 -1.6361 -0.2935
 5530TIP3    H238150   0.379   3.578   7.165  0.4481 -1.6755 -0.1223
 5531TIP3   OH238151   1.245   0.248   7.633 -0.1825  0.4527 -0.3150
 5531TIP3    H138152   1.188   0.188   7.585  0.5426  0.5507 -1.3280
 5531TIP3    H238153   1.223   0.335   7.600  0.0502  0.5615 -0.1860
 5532TIP3   OH238154   5.476   2.051   7.262  0.3937  0.5823 -0.2306
 5532TIP3    H138155   5.389   2.080   7.233 -0.7125 -2.8136 -0.7503
 5532TIP3    H238156   5.489   2.096   7.346 -1.9937  0.9648  0.0144
 5533TIP3   OH238157   0.390   0.588   7.061  0.1461  0.4758  0.2125
 5533TIP3    H138158   0.330   0.653   7.024  0.4921  0.0718 -1.0834
 5533TIP3    H238159   0.389   0.515   6.999  0.4521 -0.3879  1.1903
 5534TIP3   OH238160   4.675   3.773   8.320 -0.1748 -0.3573 -0.2682
 5534TIP3    H138161   4.734   3.848   8.325 -0.2919 -0.1530 -1.5037
 5534TIP3    H238162   4.729   3.698   8.341  0.3161 -0.0727 -0.4907
 5535TIP3   OH238163   4.261   6.014   2.218  0.3749 -0.1778  0.3633
 5535TIP3    H138164   4.317   6.002   2.141  1.7739 -1.8322  1.5635
 5535TIP3    H238165   4.304   6.083   2.268 -0.2800  0.5683 -0.0747
 5536TIP3   OH238166   1.800   1.842   7.871 -0.1702  0.4809  0.5675
 5536TIP3    H138167   1.867   1.900   7.908  0.6534  0.5569 -0.9615
 5536TIP3    H238168   1.727   1.900   7.851 -0.1844  0.6236  1.0277
 5537TIP3   OH238169   0.695   0.032   8.681 -0.1536 -0.1703 -0.3492
 5537TIP3    H138170   0.661  -0.042   8.731 -0.7140  0.2548 -0.0848
 5537TIP3    H238171   0.786   0.010   8.665 -0.7119 -1.6784 -1.6986
 5538TIP3   OH238172   0.432   4.982   7.876 -0.4779  0.6026 -0.8817
 5538TIP3    H138173   0.413   4.888   7.878 -1.0024  0.6894 -1.5247
 5538TIP3    H238174   0.395   5.016   7.957  2.7345 -0.2736  1.1156
 5539TIP3   OH238175   4.748   3.982   0.257  0.1110  0.2686 -0.0677
 5539TIP3    H138176   4.796   3.915   0.209 -1.1666 -0.7191 -0.0203
 5539TIP3    H238177   4.656   3.966   0.235 -0.3577  0.9038  1.3065
 5540TIP3   OH238178   3.552   2.443   0.260  0.2953  0.3711 -0.0236
 5540TIP3    H138179   3.504   2.488   0.190 -0.5212  0.3364  0.5081
 5540TIP3    H238180   3.546   2.350   0.239  0.3406  0.3814 -0.0832
 5541TIP3   OH238181   4.131   4.120   7.007 -0.0428  0.3889  0.1781
 5541TIP3    H138182   4.038   4.134   6.987  0.0797 -0.0884 -0.7770
 5541TIP3    H238183   4.139   4.143   7.100 -1.2552 -0.1775  0.4490
 5542TIP3   OH238184   1.979   3.436   1.384  0.2698  0.5326  0.0510
 5542TIP3    H138185   1.936   3.391   1.456  1.3173 -0.7659 -0.0970
 5542TIP3    H238186   1.919   3.507   1.360 -0.1775  0.8667  2.0476
 5543TIP3   OH238187   3.173   0.112   1.179  0.0176  0.0688  0.1118
 5543TIP3    H138188   3.101   0.052   1.201  1.0879 -0.7714  1.5518
 5543TIP3    H238189   3.228   0.112   1.257  1.2761  1.1459 -0.7353
 5544TIP3   OH238190   3.992   4.398   8.436  0.7074 -0.6705 -0.3260
 5544TIP3    H138191   3.994   4.467   8.369 -0.8707  0.5709  0.8345
 5544TIP3    H238192   3.949   4.324   8.392  0.4301 -0.1584 -0.9411
 5545TIP3   OH238193   5.886   2.505   0.280 -0.3893  0.5915 -0.5297
 5545TIP3    H138194   5.949   2.462   0.222 -1.0418 -1.5117  0.2292
 5545TIP3    H238195   5.929   2.506   0.366 -1.1388 -0.3869 -0.1200
 5546TIP3   OH238196   0.634   6.229   1.444 -0.2296 -0.0183 -0.3184
 5546TIP3    H138197   0.575   6.280   1.499 -0.8380  0.1553 -1.1196
 5546TIP3    H238198   0.719   6.273   1.452 -0.1984 -0.2349  0.7878
 5547TIP3   OH238199   1.011   0.215   7.988 -0.9427 -0.4119  0.4282
 5547TIP3    H138200   1.104   0.193   7.980 -0.5724  1.5889 -2.1636
 5547TIP3    H238201   0.998   0.228   8.082  1.3592 -0.9123  0.8748
 5548TIP3   OH238202   5.171   0.719   7.953  0.3026 -0.1908 -0.2114
 5548TIP3    H138203   5.106   0.688   7.890 -0.4689 -0.1990  0.5619
 5548TIP3    H238204   5.136   0.692   8.038  2.2251 -1.8024  0.1180
 5549TIP3   OH238205   3.585   4.292   8.848 -0.0146  0.3295  0.2706
 5549TIP3    H138206   3.629   4.370   8.814  3.2958 -1.7031 -0.6059
 5549TIP3    H238207   3.494   4.300   8.817  0.0801  3.8838  0.5074
 5550TIP3   OH238208   5.258   5.672   8.123  0.3064  0.2286  0.1199
 5550TIP3    H138209   5.285   5.698   8.035  0.9179  1.3036  0.5947
 5550TIP3    H238210   5.311   5.594   8.142 -0.5018 -0.5682 -0.7924
 5551TIP3   OH238211   4.019   0.914   8.393 -0.2836 -0.2840 -0.4120
 5551TIP3    H138212   4.113   0.932   8.392  0.3292 -3.0509 -0.1311
 5551TIP3    H238213   3.979   1.001   8.386  2.2375  1.1728  1.2186
 5552TIP3   OH238214   5.431   1.955   0.208 -0.5661  0.2563 -0.4591
 5552TIP3    H138215   5.413   1.876   0.258 -2.0425  0.4509 -0.6343
 5552TIP3    H238216   5.507   1.933   0.154  0.6429 -0.1806  1.3258
 5553TIP3   OH238217   6.194   2.909   0.085 -0.5001  0.0090 -0.4083
 5553TIP3    H138218   6.233   2.935   0.001  0.2459 -1.1143 -0.4342
 5553TIP3    H238219   6.128   2.976   0.102  0.4259  1.1600 -1.1059
 5554TIP3   OH238220   0.964   0.709   8.129 -0.1908 -0.4254 -0.0722
 5554TIP3    H138221   1.009   0.790   8.156  1.2491 -0.2176 -2.8191
 5554TIP3    H238222   0.871   0.733   8.129  0.2330  1.4096 -1.2725
 5555TIP3   OH238223   0.194   5.398   7.743  0.0729 -0.2989  0.0704
 5555TIP3    H138224   0.132   5.336   7.781 -1.2797 -0.6526 -2.4890
 5555TIP3    H238225   0.150   5.482   7.748  0.4823 -0.1091  0.5282
 5556TIP3   OH238226   4.165   2.111   8.674 -0.5081 -0.4365  0.4750
 5556TIP3    H138227   4.143   2.203   8.667  0.7967 -0.2535 -3.0507
 5556TIP3    H238228   4.081   2.066   8.675 -1.2480  0.6384 -2.9396
 5557TIP3   OH238229   5.400   2.698   0.886  1.0614 -0.1101  0.0010
 5557TIP3    H138230   5.423   2.609   0.914  1.6543  0.4845  1.4899
 5557TIP3    H238231   5.432   2.755   0.956  0.3309  1.2595 -0.7256
 5558TIP3   OH238232   0.218   3.799   0.804 -0.0002  0.2271 -0.0584
 5558TIP3    H138233   0.239   3.706   0.815 -0.9317  0.1708  1.6248
 5558TIP3    H238234   0.295   3.846   0.836 -0.2590  0.0197  0.8953
 5559TIP3   OH238235   4.501   3.260   1.278 -0.6558 -0.3272  0.5020
 5559TIP3    H138236   4.417   3.293   1.248  1.0594  1.8274 -2.4321
 5559TIP3    H238237   4.551   3.243   1.198  2.3693  0.4415  2.0563
 5560TIP3   OH238238   5.693   6.286   0.663  0.0251  0.2722 -0.0160
 5560TIP3    H138239   5.723   6.263   0.751  0.7684 -0.0172 -0.3355
 5560TIP3    H238240   5.726   6.375   0.650 -1.6079  1.0123  0.6646
 5561TIP3   OH238241   6.204   3.800   7.530  0.6900 -0.2001 -0.1381
 5561TIP3    H138242   6.201   3.886   7.488  0.1338 -0.9754 -1.7311
 5561TIP3    H238243   6.153   3.811   7.610 -0.5293  0.6096 -0.9918
 5562TIP3   OH238244   2.964   3.743   1.724  0.2307  0.0429 -0.3292
 5562TIP3    H138245   2.946   3.672   1.786 -2.4111  1.0351  0.1664
 5562TIP3    H238246   3.011   3.808   1.776  2.8587 -1.3366 -0.8411
 5563TIP3   OH238247   6.448   0.455   0.347 -0.0086  0.0049  0.1296
 5563TIP3    H138248   6.478   0.371   0.313  0.3353  0.3649 -0.4898
 5563TIP3    H238249   6.471   0.518   0.278  0.1930  0.6792  0.7971
 5564TIP3   OH238250   1.243   0.548   1.562  0.6509 -0.6490 -0.0428
 5564TIP3    H138251   1.166   0.534   1.507  1.4649 -1.7796 -0.9517
 5564TIP3    H238252   1.208   0.558   1.650 -0.5067 -1.8718 -0.3265
 5565TIP3   OH238253   0.305   2.283   7.288 -0.1496 -0.0634 -0.8768
 5565TIP3    H138254   0.232   2.236   7.246  0.5943 -1.5111 -0.6240
 5565TIP3    H238255   0.378   2.273   7.227  0.7745 -1.6505  0.4101
 5566TIP3   OH238256   1.846   4.322   0.879  0.2724 -0.4231  0.6639
 5566TIP3    H138257   1.810   4.408   0.856  1.2297 -0.0212  0.5797
 5566TIP3    H238258   1.941   4.333   0.868  0.2970 -2.1588 -1.6480
 5567TIP3   OH238259   1.263   1.651   8.391 -0.3400  0.2810  0.5152
 5567TIP3    H138260   1.238   1.603   8.312  0.0344  0.8582  0.0385
 5567TIP3    H238261   1.292   1.583   8.452  0.1567 -0.1062 -0.1415
 5568TIP3   OH238262   1.399   0.182   2.176 -0.3381  0.3878  0.4063
 5568TIP3    H138263   1.441   0.146   2.099 -1.4740  1.2326 -0.6578
 5568TIP3    H238264   1.445   0.142   2.250 -0.3536 -1.7895 -0.6838
 5569TIP3   OH238265   5.189   4.783   7.344 -0.4698  0.4927  0.1652
 5569TIP3    H138266   5.142   4.866   7.358 -0.7312  0.4569 -0.4737
 5569TIP3    H238267   5.223   4.761   7.431 -0.4119  1.2576  0.3485
 5570TIP3   OH238268   2.237   3.230   0.354 -0.2567 -0.3610  0.1451
 5570TIP3    H138269   2.281   3.146   0.342  0.9519  0.2636  0.0395
 5570TIP3    H238270   2.282   3.289   0.293 -0.7312  0.4937  0.6054
 5571TIP3   OH238271   3.162   5.201   7.520  0.7412  1.4247  0.2655
 5571TIP3    H138272   3.191   5.120   7.562 -0.5307 -0.0663 -1.5379
 5571TIP3    H238273   3.177   5.269   7.585  2.5062 -0.1430  1.5994
 5572TIP3   OH238274   4.041   5.646   1.244 -0.2676 -0.1312  0.4722
 5572TIP3    H138275   4.061   5.555   1.266  2.5573  0.3020  0.1268
 5572TIP3    H238276   3.946   5.651   1.249 -0.6182 -3.3178 -0.3305
 5573TIP3   OH238277   3.307   2.026   7.176  0.0760 -0.2071  0.1960
 5573TIP3    H138278   3.293   2.091   7.107  1.8294  0.0450  0.0286
 5573TIP3    H238279   3.331   1.946   7.128  0.9661 -0.1203  0.4773
 5574TIP3   OH238280   3.683   6.523   1.789  0.1626 -0.1864 -0.1341
 5574TIP3    H138281   3.663   6.616   1.804  1.5365  0.4408 -1.8454
 5574TIP3    H238282   3.705   6.489   1.875 -0.0229  1.1726  0.4789
 5575TIP3   OH238283   3.928   5.975   8.870  0.2935  1.2118 -0.2002
 5575TIP3    H138284   3.940   6.022   8.787 -0.0599 -0.3403 -1.1588
 5575TIP3    H238285   3.846   6.010   8.906 -1.8597 -0.9777 -2.5961
 5576TIP3   OH238286   1.957   2.172   1.207 -0.3626 -0.3032 -0.4191
 5576TIP3    H138287   1.931   2.104   1.145 -2.0530  1.0110 -1.2560
 5576TIP3    H238288   1.887   2.173   1.273  1.1706 -1.3641  1.3365
 5577TIP3   OH238289   4.608   0.540   0.302  0.5068  0.4550 -0.2716
 5577TIP3    H138290   4.519   0.509   0.321  0.5859  0.3862 -0.0053
 5577TIP3    H238291   4.626   0.603   0.371  2.1661 -2.4193  2.1969
 5578TIP3   OH238292   4.807   3.997   8.427 -0.0365 -0.1553  0.7085
 5578TIP3    H138293   4.804   4.059   8.354  0.0868  0.7895  1.4881
 5578TIP3    H238294   4.900   3.984   8.443 -0.0609 -0.7887  0.3477
 5579TIP3   OH238295   2.182   0.984   1.880  0.3364  0.3696 -0.7162
 5579TIP3    H138296   2.172   1.010   1.972  1.2140 -0.0939 -0.4807
 5579TIP3    H238297   2.250   0.918   1.881 -1.0792 -1.1756 -1.4469
 5580TIP3   OH238298   5.078   2.354   0.793 -0.1198 -0.0418 -0.2422
 5580TIP3    H138299   5.115   2.403   0.867 -0.2999 -1.5255  0.8817
 5580TIP3    H238300   4.996   2.399   0.773 -0.6686 -0.3042  1.2845
 5581TIP3   OH238301   2.018   0.212   0.449 -0.4763 -0.2889 -0.3817
 5581TIP3    H138302   1.936   0.171   0.421 -0.8780 -0.1490  0.5524
 5581TIP3    H238303   2.083   0.141   0.445 -0.4371 -0.2085 -1.9109
 5582TIP3   OH238304   5.780   5.177   7.879  0.2139  0.4393  0.4870
 5582TIP3    H138305   5.787   5.263   7.921  0.3726  1.8245 -2.1559
 5582TIP3    H238306   5.686   5.167   7.860  0.4204  0.9999 -0.9693
 5583TIP3   OH238307   3.766   5.480   1.932 -0.4548  0.1580  0.4643
 5583TIP3    H138308   3.823   5.432   1.872 -2.0451  1.6558 -2.4967
 5583TIP3    H238309   3.691   5.421   1.945 -0.5673  0.2135  0.1016
 5584TIP3   OH238310   4.416   4.574   8.274 -0.8756  0.3402 -0.0799
 5584TIP3    H138311   4.332   4.607   8.242 -1.2603  1.8703  2.2396
 5584TIP3    H238312   4.400   4.482   8.294 -1.4202  0.1153 -1.4340
 5585TIP3   OH238313   5.720   6.472   1.157 -0.0462  0.1677 -0.2649
 5585TIP3    H138314   5.750   6.496   1.245 -0.1067 -0.9709  0.0827
 5585TIP3    H238315   5.627   6.452   1.168 -0.4271  1.4576 -0.8992
 5586TIP3   OH238316   5.197   2.740   6.506 -0.2879  0.1507 -0.2075
 5586TIP3    H138317   5.155   2.825   6.518 -0.3571 -0.0095  0.7336
 5586TIP3    H238318   5.251   2.728   6.584 -0.5671 -0.8364 -0.1485
 5587TIP3   OH238319   1.210   3.349   0.813 -0.3245  0.4418 -0.2856
 5587TIP3    H138320   1.168   3.429   0.845 -1.8160 -0.1017 -0.7929
 5587TIP3    H238321   1.171   3.279   0.866  2.1381  0.1240  1.3075
 5588TIP3   OH238322   6.208   5.484   7.969  0.4681 -0.2914 -0.6553
 5588TIP3    H138323   6.162   5.450   8.046 -0.4871  0.7348 -0.7305
 5588TIP3    H238324   6.147   5.468   7.897  0.5494  0.3816 -0.8846
 5589TIP3   OH238325   1.537   5.699   7.640  0.2257 -0.1167  0.3258
 5589TIP3    H138326   1.515   5.778   7.591 -1.3525 -0.6348  0.1262
 5589TIP3    H238327   1.627   5.679   7.616  0.2671  0.9875 -0.4895
 5590TIP3   OH238328   4.450   0.034   7.701 -0.3755  0.1463  0.0939
 5590TIP3    H138329   4.438   0.128   7.715  0.3853  0.4260 -1.0121
 5590TIP3    H238330   4.446   0.023   7.606  0.0765 -0.8612  0.1830
 5591TIP3   OH238331   0.555   2.789   6.950  0.3656  0.8521  1.0228
 5591TIP3    H138332   0.601   2.724   7.003 -1.7185  0.0284  1.9268
 5591TIP3    H238333   0.516   2.849   7.014 -1.0643  0.6295  0.3976
 5592TIP3   OH238334   5.128   0.940   8.421  0.0521  0.2489  0.2572
 5592TIP3    H138335   5.050   0.906   8.466  0.6740 -2.3830 -0.5016
 5592TIP3    H238336   5.192   0.869   8.426  1.8086  1.6836 -0.6790
 5593TIP3   OH238337   4.215   1.619   0.980  0.0373  0.7294 -0.1926
 5593TIP3    H138338   4.202   1.534   1.023 -2.2484  0.3650 -1.4275
 5593TIP3    H238339   4.251   1.675   1.048  0.2907 -0.8753  1.0451
 5594TIP3   OH238340   1.131   3.526   8.019  0.5044  0.3370 -0.5740
 5594TIP3    H138341   1.077   3.446   8.022  0.6164  0.2492 -0.8942
 5594TIP3    H238342   1.133   3.550   7.926  3.2824 -1.2186 -1.0244
 5595TIP3   OH238343   6.287   4.706   7.588 -0.2144 -0.1237 -0.4714
 5595TIP3    H138344   6.258   4.616   7.603 -0.5216  0.1342  0.5795
 5595TIP3    H238345   6.314   4.707   7.496  0.7225 -1.5332 -0.2470
 5596TIP3   OH238346   2.069   1.006   6.817 -0.4569  0.0200  0.1543
 5596TIP3    H138347   2.102   1.095   6.825  1.3092 -0.5930 -0.0071
 5596TIP3    H238348   2.006   1.010   6.745 -1.5181  1.4144  1.1103
 5597TIP3   OH238349   1.000   5.985   7.381  0.3646  0.4071 -0.2434
 5597TIP3    H138350   0.991   6.031   7.298 -2.3306 -0.6166 -0.6514
 5597TIP3    H238351   0.937   6.028   7.439  0.3580 -0.4982  0.4469
 5598TIP3   OH238352   0.153   4.142   7.242  0.1212 -0.1649 -0.2240
 5598TIP3    H138353   0.183   4.220   7.194  0.8863  0.0126  0.5232
 5598TIP3    H238354   0.091   4.100   7.183  2.3430 -0.9370 -2.1448
 5599TIP3   OH238355   6.108   1.138   1.654 -0.8213 -0.3666  0.0855
 5599TIP3    H138356   6.175   1.110   1.592 -0.8874 -0.4897  0.0702
 5599TIP3    H238357   6.158   1.176   1.726 -0.7703  2.3487 -1.2369
 5600TIP3   OH238358   3.689   5.571   7.657  0.2958  0.2107  0.2920
 5600TIP3    H138359   3.659   5.550   7.569  0.2652 -0.2070  0.4001
 5600TIP3    H238360   3.723   5.661   7.650 -1.4333  0.9150  0.2770
 5601TIP3   OH238361   0.057   3.990   1.146  0.1887  0.2624 -0.2790
 5601TIP3    H138362   0.014   4.023   1.225 -2.7428 -3.8633  0.2262
 5601TIP3    H238363   0.008   4.029   1.073 -0.5586  0.1307  0.1475
 5602TIP3   OH238364   0.834   1.393   6.948 -0.2982 -0.2556 -0.0202
 5602TIP3    H138365   0.913   1.404   7.002 -1.6152 -0.2149  2.0165
 5602TIP3    H238366   0.803   1.483   6.934 -1.0661 -0.3685  0.9108
 5603TIP3   OH238367   3.816   3.579   7.133 -0.3466  0.4757  0.0646
 5603TIP3    H138368   3.900   3.624   7.120 -0.5689  0.9690  0.3210
 5603TIP3    H238369   3.832   3.490   7.103 -0.5621  1.2979 -2.7774
 5604TIP3   OH238370   3.101   5.201   8.467 -0.2268  0.0349  0.7419
 5604TIP3    H138371   3.008   5.206   8.446 -0.0697  0.0645  0.0453
 5604TIP3    H238372   3.146   5.201   8.383  0.4596  1.0003  1.0813
 5605TIP3   OH238373   1.870   3.338   0.250  0.3563 -1.0298  0.8146
 5605TIP3    H138374   1.805   3.406   0.270  1.3186  0.2249 -0.1628
 5605TIP3    H238375   1.943   3.386   0.211  0.9972 -2.6633 -0.0639
 5606TIP3   OH238376   2.235   2.049   1.109 -0.0485  0.1811 -0.6903
 5606TIP3    H138377   2.296   2.088   1.172 -0.5786  0.9201 -0.6326
 5606TIP3    H238378   2.148   2.072   1.141 -0.5393 -2.8759  0.5847
 5607TIP3   OH238379   0.276   4.121   8.349  0.3570 -0.5420 -0.5797
 5607TIP3    H138380   0.340   4.123   8.277  0.6012  0.3982 -0.3567
 5607TIP3    H238381   0.320   4.075   8.420  0.7742  0.0304 -0.4558
 5608TIP3   OH238382   2.273   1.902   2.330 -0.5717  0.0974 -0.0488
 5608TIP3    H138383   2.287   1.896   2.236  2.8290  0.2594  0.3358
 5608TIP3    H238384   2.227   1.985   2.342 -1.5305 -0.1741 -1.5462
 5609TIP3   OH238385   2.641   4.188   1.564  0.3143 -0.2555  0.1318
 5609TIP3    H138386   2.697   4.227   1.497 -0.5057 -0.9441 -0.9873
 5609TIP3    H238387   2.682   4.103   1.583  0.8758  0.1830  0.9669
 5610TIP3   OH238388   0.265   1.853   0.131 -0.3316  0.1235 -0.5170
 5610TIP3    H138389   0.324   1.892   0.067 -0.7913 -2.0381 -2.3702
 5610TIP3    H238390   0.178   1.860   0.092 -1.0453  1.1639  1.1347
 5611TIP3   OH238391   6.112   2.824   7.754  0.6454 -0.0846 -0.2949
 5611TIP3    H138392   6.185   2.878   7.722  0.6554  0.8869  1.2532
 5611TIP3    H238393   6.055   2.814   7.678  0.6115  2.2207 -0.6651
 5612TIP3   OH238394   6.218   2.853   8.014 -0.0708  0.5111  1.0879
 5612TIP3    H138395   6.164   2.847   7.935  1.2987 -0.5656  0.1894
 5612TIP3    H238396   6.270   2.932   8.001 -0.0278  0.4734  1.0299
 5613TIP3   OH238397   5.710   1.735   2.564 -0.7758  0.0071  0.5036
 5613TIP3    H138398   5.632   1.682   2.580 -0.5066 -0.6773 -0.3665
 5613TIP3    H238399   5.784   1.676   2.580 -0.4582  0.3386  0.2866
 5614TIP3   OH238400   6.642   4.884   7.173  0.0460 -0.4680  0.2981
 5614TIP3    H138401   6.581   4.814   7.197  0.5702 -0.4154  1.8718
 5614TIP3    H238402   6.585   4.953   7.137 -0.9279 -0.2282  2.1601
 5615TIP3   OH238403   5.524   5.868   8.893 -0.1978  0.0095  0.6307
 5615TIP3    H138404   5.454   5.890   8.831  0.5898  0.4509 -0.1289
 5615TIP3    H238405   5.479   5.854   8.976 -1.2268 -0.0940  0.0781
 5616TIP3   OH238406   2.020   0.491   1.815  0.4986 -0.6323  0.0462
 5616TIP3    H138407   2.065   0.509   1.732 -1.5832 -0.5921 -1.1368
 5616TIP3    H238408   1.961   0.418   1.795  1.6337 -2.2114  2.1497
 5617TIP3   OH238409   2.626   5.447   0.745  0.4062 -0.1236  0.0473
 5617TIP3    H138410   2.580   5.394   0.680  0.9815 -2.8844  1.7276
 5617TIP3    H238411   2.718   5.440   0.721  0.5813 -0.7810  0.8932
 5618TIP3   OH238412   6.412   0.702   1.944  0.0257  0.2130 -0.3325
 5618TIP3    H138413   6.417   0.647   1.866  1.0250  0.5116 -0.4948
 5618TIP3    H238414   6.414   0.792   1.911 -2.6995  0.4201 -0.1443
 5619TIP3   OH238415   1.953   0.022   1.110 -0.0963 -0.4128 -0.8140
 5619TIP3    H138416   1.901  -0.040   1.161  1.2021 -0.0492  1.0547
 5619TIP3    H238417   1.975  -0.025   1.029 -3.1260 -0.6249 -1.6299
 5620TIP3   OH238418   4.828   0.884   1.259  0.3993 -0.4501  0.5313
 5620TIP3    H138419   4.734   0.870   1.271  0.8324 -2.7160  2.0451
 5620TIP3    H238420   4.835   0.971   1.220 -2.2811  0.0088  0.8763
 5621TIP3   OH238421   3.897   0.447   0.800  0.3327 -0.4021  0.0716
 5621TIP3    H138422   3.892   0.435   0.705  1.9181  4.2133 -0.8749
 5621TIP3    H238423   3.806   0.444   0.829 -0.3928  0.1115 -1.9877
 5622TIP3   OH238424   3.639   2.598   8.140  0.3905 -0.1861  0.1618
 5622TIP3    H138425   3.605   2.510   8.154 -2.1442  0.6061 -0.4347
 5622TIP3    H238426   3.621   2.617   8.048  1.7366  0.6581  0.0289
 5623TIP3   OH238427   2.121   4.259   2.298  0.0631  0.6999 -0.5470
 5623TIP3    H138428   2.140   4.323   2.230  1.3178  0.8624 -0.0661
 5623TIP3    H238429   2.079   4.310   2.368  1.1478  1.0338 -0.1240
 5624TIP3   OH238430   4.511   1.291   2.741  0.1746 -0.0378  0.1483
 5624TIP3    H138431   4.428   1.327   2.774  1.0443  1.3121  0.9481
 5624TIP3    H238432   4.493   1.197   2.729 -1.7841  0.4011 -0.7551
 5625TIP3   OH238433   1.552   6.004   0.003 -0.0864  0.8397 -0.0082
 5625TIP3    H138434   1.521   6.058  -0.070 -0.9393 -0.4385 -0.6306
 5625TIP3    H238435   1.503   6.036   0.079 -1.5040  0.1987 -0.6046
 5626TIP3   OH238436   4.853   2.988   2.414  0.3538  0.5172  1.0037
 5626TIP3    H138437   4.899   3.071   2.429 -1.0044  1.4375  0.3686
 5626TIP3    H238438   4.765   3.015   2.387 -0.5759 -1.1588  2.1727
 5627TIP3   OH238439   6.318   4.695   2.159  0.1087 -0.3984 -1.0180
 5627TIP3    H138440   6.322   4.678   2.253 -0.6692  1.1090 -0.6792
 5627TIP3    H238441   6.373   4.627   2.120  0.6553 -0.8974  0.5391
 5628TIP3   OH238442   2.410   4.799   0.702 -0.9578 -0.2604 -0.1443
 5628TIP3    H138443   2.441   4.879   0.659 -0.8072  0.2829  0.9666
 5628TIP3    H238444   2.473   4.782   0.771 -0.7551 -1.5948 -0.6204
 5629TIP3   OH238445   1.970   2.879   0.737  0.1716 -0.3130  0.5005
 5629TIP3    H138446   1.887   2.831   0.738 -0.4445  0.7263  0.9622
 5629TIP3    H238447   2.036   2.813   0.761 -0.6212 -0.9640  0.9497
 5630TIP3   OH238448   0.988   3.075   8.310 -0.2125 -0.1654  0.1928
 5630TIP3    H138449   0.937   3.067   8.391  0.5823  0.0504  0.7228
 5630TIP3    H238450   1.065   3.126   8.335  0.5314 -0.9406 -0.4640
 5631TIP3   OH238451   4.243   6.080   7.870 -0.0950  0.2037 -0.4058
 5631TIP3    H138452   4.299   6.030   7.810  0.0818  0.3720 -0.3830
 5631TIP3    H238453   4.181   6.015   7.904 -0.8738  0.3241 -1.5617
 5632TIP3   OH238454   6.067   5.445   1.019  0.0043  0.0449 -0.4421
 5632TIP3    H138455   6.127   5.516   0.996  0.1164 -0.1829 -0.8402
 5632TIP3    H238456   6.122   5.368   1.026  0.3859  0.4656  2.7768
 5633TIP3   OH238457   3.499   4.432   8.586  0.0311  0.1131 -0.0723
 5633TIP3    H138458   3.435   4.417   8.656  0.5635 -0.7684  0.2440
 5633TIP3    H238459   3.563   4.362   8.597  2.9227  2.7346  1.7114
 5634TIP3   OH238460   4.466   2.989   1.790 -0.0799 -0.2560  0.5551
 5634TIP3    H138461   4.432   3.071   1.825  1.6331 -0.2664  2.5060
 5634TIP3    H238462   4.415   2.921   1.834 -0.3644 -0.2402  0.2468
 5635TIP3   OH238463   0.428   3.461   8.475  0.3509  0.2680 -0.0506
 5635TIP3    H138464   0.362   3.526   8.450  0.3811  0.4918  0.4372
 5635TIP3    H238465   0.436   3.403   8.399 -0.6001  0.0804 -0.0131
 5636TIP3   OH238466   4.897   6.604   1.661 -0.1048 -0.1406  0.3563
 5636TIP3    H138467   4.837   6.653   1.718  0.3733  0.1254  0.6414
 5636TIP3    H238468   4.971   6.664   1.650 -1.1455  0.7760 -2.3907
 5637TIP3   OH238469   1.377   5.263   7.571  0.0987 -0.4868 -0.0203
 5637TIP3    H138470   1.462   5.307   7.561 -0.7048  0.9713 -0.8109
 5637TIP3    H238471   1.399   5.177   7.606  1.8812 -0.0399  0.0870
 5638TIP3   OH238472   1.308   4.178   1.582  0.0623  0.2775 -0.1488
 5638TIP3    H138473   1.238   4.139   1.531 -0.6572  0.7259  0.4704
 5638TIP3    H238474   1.293   4.147   1.671 -0.7439  2.1826  0.4324
 5639TIP3   OH238475   2.795   4.190   8.780 -0.6962  0.2930 -0.0185
 5639TIP3    H138476   2.834   4.278   8.784 -0.0636  0.1365 -1.8018
 5639TIP3    H238477   2.866   4.134   8.748 -1.5962 -0.5302 -0.6183
 5640TIP3   OH238478   4.584   5.320   0.479  0.1630 -0.8129  0.0886
 5640TIP3    H138479   4.584   5.396   0.537 -0.5183 -1.0982  0.4715
 5640TIP3    H238480   4.504   5.330   0.427  0.9455 -0.3709 -1.0664
 5641TIP3   OH238481   1.554   2.258   8.009 -0.2753 -0.2112  0.0270
 5641TIP3    H138482   1.477   2.264   7.953 -0.1085 -0.3339 -0.2217
 5641TIP3    H238483   1.542   2.326   8.075 -0.5457 -0.1614 -0.0738
 5642TIP3   OH238484   5.900   1.509   0.757 -0.0760 -0.4161  0.9016
 5642TIP3    H138485   5.940   1.444   0.699 -0.0760 -0.4707  0.9630
 5642TIP3    H238486   5.817   1.531   0.715  0.3216  0.2027  0.4172
 5643TIP3   OH238487   2.605   0.069   8.526  0.0552 -0.4210  0.2350
 5643TIP3    H138488   2.693   0.031   8.525  0.0524 -0.4336  0.4174
 5643TIP3    H238489   2.595   0.105   8.614 -0.4902 -1.2826  0.5436
 5644TIP3   OH238490   5.123   2.637   1.622  0.3283 -0.0933  0.1036
 5644TIP3    H138491   5.108   2.731   1.629  3.2608  0.4871 -0.0171
 5644TIP3    H238492   5.059   2.598   1.680 -1.5119  1.8979 -0.4555
 5645TIP3   OH238493   5.623   3.744   7.419  0.2991  0.2308 -0.0646
 5645TIP3    H138494   5.715   3.764   7.436  0.6682 -0.5418 -1.0437
 5645TIP3    H238495   5.576   3.781   7.494  1.2440  1.9210 -0.2577
 5646TIP3   OH238496   6.574   5.792   7.658 -0.3439  0.1966 -0.4713
 5646TIP3    H138497   6.498   5.850   7.668  0.2997  0.7963  1.2764
 5646TIP3    H238498   6.609   5.813   7.571 -2.1127 -0.0647 -1.2943
 5647TIP3   OH238499   1.771   4.056   0.843  0.0712 -0.1134  0.4950
 5647TIP3    H138500   1.692   4.027   0.890 -0.4946 -0.9680 -0.8926
 5647TIP3    H238501   1.776   4.150   0.860 -1.9873  0.2102 -0.3600
 5648TIP3   OH238502   6.364   1.909   1.744  0.3446 -0.0917 -0.4364
 5648TIP3    H138503   6.274   1.881   1.762  0.3396 -1.0645 -1.8109
 5648TIP3    H238504   6.369   1.997   1.781 -1.5115  0.4150 -1.2397
 5649TIP3   OH238505   4.714   6.192   7.678 -0.6194  0.6713 -0.9966
 5649TIP3    H138506   4.774   6.265   7.692 -0.5923  0.5584 -0.5152
 5649TIP3    H238507   4.677   6.209   7.592 -0.6714  1.2980 -0.8597
 5650TIP3   OH238508   4.591   0.749   0.473  0.2088 -0.4920 -0.6986
 5650TIP3    H138509   4.584   0.741   0.568  0.9562 -1.6808 -0.7320
 5650TIP3    H238510   4.670   0.800   0.459 -0.1530  0.0815 -0.6801
 5651TIP3   OH238511   1.705   5.577   1.889 -0.1074  0.0606  0.1163
 5651TIP3    H138512   1.776   5.565   1.825 -0.8350  1.5510 -1.0448
 5651TIP3    H238513   1.731   5.654   1.940 -0.0982 -0.4107  0.8357
 5652TIP3   OH238514   2.983   0.176   7.205 -0.3697  0.7964 -0.2475
 5652TIP3    H138515   2.929   0.241   7.249  0.1965 -0.2964  2.2472
 5652TIP3    H238516   2.999   0.212   7.118 -1.2551  3.2866  0.5484
 5653TIP3   OH238517   3.861   4.198   8.860  0.2123  0.0982 -0.0564
 5653TIP3    H138518   3.916   4.275   8.874  0.4853  0.0272 -0.7467
 5653TIP3    H238519   3.773   4.228   8.883  0.3438  0.5690 -0.1536
 5654TIP3   OH238520   3.769   0.081   8.890  0.1073  0.3884  0.2338
 5654TIP3    H138521   3.832   0.018   8.925 -0.2507 -0.1853 -0.1519
 5654TIP3    H238522   3.709   0.098   8.963 -0.9769 -1.2386 -0.2353
 5655TIP3   OH238523   1.283   5.108   6.542 -0.3693 -0.4048 -0.0218
 5655TIP3    H138524   1.310   5.160   6.467  1.3313 -0.4668  0.5173
 5655TIP3    H238525   1.201   5.148   6.571  0.5826  1.6147  0.0169
 5656TIP3   OH238526   2.212   4.312   7.411  0.1303 -0.1187  0.1354
 5656TIP3    H138527   2.253   4.234   7.373  2.7848  0.4907  1.5057
 5656TIP3    H238528   2.248   4.385   7.361 -0.3158  0.3733  0.5248
 5657TIP3   OH238529   4.457   1.457   6.817  0.6252 -0.1849  0.7030
 5657TIP3    H138530   4.399   1.478   6.890  0.1638  2.1677 -0.2289
 5657TIP3    H238531   4.404   1.405   6.757  0.5754 -0.9556  1.4146
 5658TIP3   OH238532   4.128   0.947   0.863 -0.5119 -0.1323 -0.2732
 5658TIP3    H138533   4.193   0.959   0.931  0.9992 -0.2404 -1.6403
 5658TIP3    H238534   4.176   0.908   0.790 -2.5730 -2.3578 -0.5555
 5659TIP3   OH238535   4.047   1.515   7.850  0.5423  0.4667 -0.1796
 5659TIP3    H138536   4.076   1.590   7.903 -0.5399  0.8817 -0.1437
 5659TIP3    H238537   3.990   1.554   7.783 -0.4224 -0.3628  0.1298
 5660TIP3   OH238538   3.144   5.244   7.257  0.0071  0.4055  0.5061
 5660TIP3    H138539   3.073   5.303   7.233 -0.9977 -0.7705  0.5306
 5660TIP3    H238540   3.137   5.233   7.351 -1.2083 -1.4492  0.2507
 5661TIP3   OH238541   3.526   0.174   7.439  0.5719  0.1253  0.1526
 5661TIP3    H138542   3.499   0.117   7.511  0.5237 -0.8800 -0.6389
 5661TIP3    H238543   3.618   0.192   7.456  0.7168 -0.5962  0.1519
 5662TIP3   OH238544   2.382   6.540   2.621 -0.0740  0.9700 -0.1903
 5662TIP3    H138545   2.314   6.602   2.595  0.4040  1.0109 -1.4371
 5662TIP3    H238546   2.461   6.572   2.577  0.1477 -0.6157 -1.0037
 5663TIP3   OH238547   0.993   5.474   0.542  0.4037 -0.3042  0.6126
 5663TIP3    H138548   0.942   5.399   0.574  0.6363 -0.4156  0.7222
 5663TIP3    H238549   1.064   5.483   0.605  1.4346 -1.1306 -0.3967
 5664TIP3   OH238550   0.477   1.760   0.712 -0.2298  0.5603 -0.1805
 5664TIP3    H138551   0.548   1.805   0.757 -0.5008  1.6729 -0.8292
 5664TIP3    H238552   0.479   1.671   0.748  0.1342  1.1506  1.3339
 5665TIP3   OH238553   1.624   6.504   0.221  0.2135  0.1360  0.2363
 5665TIP3    H138554   1.544   6.477   0.177  0.5080  1.7873 -1.4429
 5665TIP3    H238555   1.610   6.596   0.243  0.2919 -0.4689  3.2374
 5666TIP3   OH238556   0.955   5.834   0.076  0.0388 -0.0015 -0.3962
 5666TIP3    H138557   0.899   5.838   0.154  0.2784 -1.0559 -0.1633
 5666TIP3    H238558   0.971   5.741   0.062  1.9353  0.2680 -0.3116
 5667TIP3   OH238559   3.867   0.122   6.719  0.2129  0.6885 -0.0654
 5667TIP3    H138560   3.903   0.040   6.751  0.9204  0.9322 -0.2254
 5667TIP3    H238561   3.941   0.169   6.681 -0.4276  0.8094 -1.2275
 5668TIP3   OH238562   4.406   1.781   0.206  0.8635  0.5479 -0.2433
 5668TIP3    H138563   4.432   1.810   0.119 -0.6281  0.7195 -0.6459
 5668TIP3    H238564   4.408   1.860   0.260  0.7875  0.6269 -0.3587
 5669TIP3   OH238565   4.887   5.831   6.987 -0.1788  0.3293 -0.1542
 5669TIP3    H138566   4.950   5.876   6.932 -0.3341 -1.9341 -2.3537
 5669TIP3    H238567   4.807   5.883   6.979 -0.3194 -0.1671 -2.4790
 5670TIP3   OH238568   4.060   6.119   0.520  0.0667  0.5239 -0.0456
 5670TIP3    H138569   3.994   6.075   0.575 -1.2109  1.0397 -1.1108
 5670TIP3    H238570   4.137   6.126   0.576 -0.2628 -1.4870  0.7371
 5671TIP3   OH238571   4.838   2.002   1.160 -0.7378  0.2959 -0.1723
 5671TIP3    H138572   4.895   1.981   1.086 -0.5300  1.5011 -0.3635
 5671TIP3    H238573   4.897   2.018   1.233 -0.9331 -0.6123  0.2005
 5672TIP3   OH238574   0.428   4.749   0.687  0.0007 -0.0787  0.0055
 5672TIP3    H138575   0.384   4.669   0.658  0.0266 -1.1399  2.6326
 5672TIP3    H238576   0.484   4.721   0.758 -2.5005  2.6612  3.3970
 5673TIP3   OH238577   1.779   4.785   0.569 -0.4837 -0.6425  0.0450
 5673TIP3    H138578   1.788   4.714   0.506 -2.0471 -0.2611 -0.6531
 5673TIP3    H238579   1.686   4.787   0.591 -0.8466  2.1945 -1.2136
 5674TIP3   OH238580   1.731   2.771   8.661  0.1577 -0.0619  0.8604
 5674TIP3    H138581   1.776   2.714   8.724  2.0408  1.1542  0.6774
 5674TIP3    H238582   1.703   2.846   8.713  1.3909  0.7731  0.3516
 5675TIP3   OH238583   0.735   6.341   7.018  0.1903  0.0049 -0.3133
 5675TIP3    H138584   0.820   6.384   7.010  0.8786 -0.9279  1.3860
 5675TIP3    H238585   0.674   6.398   6.971  1.7285  0.7361 -1.4841
 5676TIP3   OH238586   4.871   3.766   0.474  0.1377  0.8744 -0.0760
 5676TIP3    H138587   4.933   3.700   0.505  1.0486  1.5436 -0.4258
 5676TIP3    H238588   4.826   3.724   0.400  0.5162  0.5551 -0.1262
 5677TIP3   OH238589   5.006   2.480   7.769 -0.0873 -0.4183  0.2252
 5677TIP3    H138590   5.048   2.565   7.773  0.6351 -0.7617  0.1032
 5677TIP3    H238591   4.938   2.490   7.702  0.7690 -0.2596 -0.6501
 5678TIP3   OH238592   5.583   1.873   6.838 -0.5395  0.1432  0.2748
 5678TIP3    H138593   5.536   1.800   6.799 -1.9745  0.1140  1.9182
 5678TIP3    H238594   5.672   1.842   6.850 -0.4672 -0.3859 -1.4187
 5679TIP3   OH238595   4.368   4.871   1.612  0.2058 -0.2042 -0.1674
 5679TIP3    H138596   4.308   4.925   1.663  0.3116 -1.4810  1.3981
 5679TIP3    H238597   4.455   4.901   1.638  0.2637 -1.0119  0.6166
 5680TIP3   OH238598   0.129   1.298   2.099  0.4022  0.3738  0.1106
 5680TIP3    H138599   0.125   1.226   2.163 -0.4815  2.8287  3.0599
 5680TIP3    H238600   0.221   1.325   2.100  0.3059  0.7023  0.7545
 5681TIP3   OH238601   3.250   4.226   1.326 -0.1740  0.3535 -0.2226
 5681TIP3    H138602   3.231   4.170   1.402  1.2725  1.4103  0.9762
 5681TIP3    H238603   3.338   4.201   1.299 -0.0892  1.0295 -0.5940
 5682TIP3   OH238604   5.714   4.397   0.605 -0.1669  0.4300 -0.6112
 5682TIP3    H138605   5.702   4.470   0.545 -1.2480  0.3458 -0.5101
 5682TIP3    H238606   5.667   4.423   0.684 -0.7396 -0.4601 -0.6480
 5683TIP3   OH238607   2.757   6.340   6.686  0.4256  0.1007  0.0792
 5683TIP3    H138608   2.833   6.326   6.630  0.0621  0.6304 -0.5667
 5683TIP3    H238609   2.757   6.434   6.705 -0.9898  0.4434 -1.3419
 5684TIP3   OH238610   5.395   0.659   8.122  0.1084 -0.4426  0.5635
 5684TIP3    H138611   5.444   0.740   8.135  1.1863 -0.8228 -0.8460
 5684TIP3    H238612   5.312   0.686   8.084 -0.1743  0.0915  1.5274
 5685TIP3   OH238613   6.334   1.782   0.483  0.1614  0.3276 -0.0048
 5685TIP3    H138614   6.257   1.770   0.540 -1.5153  0.7927 -2.0575
 5685TIP3    H238615   6.300   1.769   0.395  2.1175  2.1969 -1.0979
 5686TIP3   OH238616   1.594   3.579   6.906 -0.2547  0.2492 -0.0537
 5686TIP3    H138617   1.671   3.627   6.936 -0.7557  0.9322  0.1678
 5686TIP3    H238618   1.573   3.519   6.978 -1.0343  1.3869  0.6964
 5687TIP3   OH238619   6.186   2.705   8.584  0.2944 -0.4190 -0.1461
 5687TIP3    H138620   6.110   2.696   8.640 -0.4272  0.2482 -0.9833
 5687TIP3    H238621   6.154   2.754   8.508  1.3674 -0.8191 -0.8818
 5688TIP3   OH238622   0.557   5.077   0.642  0.1728  0.3703 -0.2777
 5688TIP3    H138623   0.586   4.986   0.632 -1.1363  0.1238 -2.6339
 5688TIP3    H238624   0.628   5.128   0.604 -0.6530  0.0111 -2.4780
 5689TIP3   OH238625   0.886   2.269   0.162 -0.1014 -0.3048 -0.3822
 5689TIP3    H138626   0.852   2.325   0.092  0.2447  0.4026  0.0072
 5689TIP3    H238627   0.836   2.188   0.153 -1.9248  0.6791  0.1555
 5690TIP3   OH238628   6.666   4.093   0.574 -0.0110  0.1501  0.1074
 5690TIP3    H138629   6.589   4.128   0.529  0.4710 -0.5344 -1.3259
 5690TIP3    H238630   6.662   4.131   0.662 -1.4295  0.9161 -0.2533
 5691TIP3   OH238631   5.541   3.067   7.908  0.2477 -0.0548  0.0154
 5691TIP3    H138632   5.568   2.980   7.877  0.9491  0.3383 -0.4921
 5691TIP3    H238633   5.496   3.049   7.990  2.1441 -0.7592  0.9782
 5692TIP3   OH238634   0.876   5.750   0.880 -0.2233 -0.1274  0.0359
 5692TIP3    H138635   0.915   5.748   0.792 -0.9564  0.9751 -0.3373
 5692TIP3    H238636   0.882   5.842   0.906 -1.9093 -0.0591  0.2572
 5693TIP3   OH238637   4.548   1.476   8.811 -0.5900 -0.0816 -0.6064
 5693TIP3    H138638   4.500   1.490   8.893  0.2203 -2.0917  0.2676
 5693TIP3    H238639   4.532   1.384   8.789  0.5867 -0.0274 -1.7963
 5694TIP3   OH238640   5.658   0.167   7.760 -0.1786  0.1240 -0.2895
 5694TIP3    H138641   5.693   0.234   7.819 -0.5734 -0.7080  0.9325
 5694TIP3    H238642   5.604   0.112   7.817 -1.2361 -0.2404 -1.5905
 5695TIP3   OH238643   1.455   3.231   8.970 -0.2424 -0.0921  0.1363
 5695TIP3    H138644   1.449   3.136   8.969 -2.0718 -0.0060  0.8433
 5695TIP3    H238645   1.408   3.259   8.891  2.3435  0.2019 -1.4250
 5696TIP3   OH238646   5.419   0.965   0.825  0.2321  0.3349  0.5245
 5696TIP3    H138647   5.467   0.932   0.901 -0.4107  0.0924  0.8327
 5696TIP3    H238648   5.380   0.887   0.785 -0.5622  0.6066  0.7444
 5697TIP3   OH238649   4.840   0.957   1.555  0.1811 -0.9002  0.2722
 5697TIP3    H138650   4.802   1.030   1.605 -0.2711 -1.1420  0.2834
 5697TIP3    H238651   4.818   0.976   1.464 -1.2069 -1.7660  0.4101
 5698TIP3   OH238652   2.301   3.185   1.572  0.3503  0.0035 -0.2769
 5698TIP3    H138653   2.238   3.191   1.644  1.0834 -1.0990  0.4976
 5698TIP3    H238654   2.325   3.092   1.569  0.5477  0.0723 -1.7780
 5699TIP3   OH238655   0.981   6.473   6.951 -0.3923  0.1094 -0.2758
 5699TIP3    H138656   0.989   6.505   6.861 -1.7826  1.5571  0.0778
 5699TIP3    H238657   0.973   6.552   7.004 -1.6641 -0.7674  0.9026
 5700TIP3   OH238658   1.018   1.838   8.152  0.0073 -0.4200 -0.0273
 5700TIP3    H138659   1.111   1.829   8.131 -0.4407 -1.1876 -1.8641
 5700TIP3    H238660   0.976   1.861   8.069 -1.3577  0.7066  0.9262
 5701TIP3   OH238661   2.005   1.497   7.135  0.2696  0.1549 -0.0720
 5701TIP3    H138662   1.968   1.453   7.058 -0.6691  1.4294 -0.3648
 5701TIP3    H238663   1.969   1.585   7.133  0.5762  0.3539  1.6025
 5702TIP3   OH238664   1.820   3.408   8.870  0.1449  0.5942  0.7472
 5702TIP3    H138665   1.837   3.322   8.830  4.3365  1.1846  0.8141
 5702TIP3    H238666   1.752   3.391   8.935 -1.1518 -2.0473 -1.1148
 5703TIP3   OH238667   1.428   2.673   1.062 -0.2465 -0.0569 -0.0438
 5703TIP3    H138668   1.383   2.667   0.978 -0.2583 -2.2478  0.0662
 5703TIP3    H238669   1.521   2.671   1.040 -0.1959  1.1936 -0.0650
 5704TIP3   OH238670   2.190   6.525   1.234 -0.4718  0.1213 -0.2678
 5704TIP3    H138671   2.214   6.540   1.325  0.2036  0.7304 -0.5318
 5704TIP3    H238672   2.152   6.437   1.232 -0.2288 -0.0037  0.5466
 5705TIP3   OH238673   4.894   0.864   8.598 -0.0900  0.0367  0.1425
 5705TIP3    H138674   4.924   0.802   8.665 -2.5535  0.5546  1.8489
 5705TIP3    H238675   4.833   0.814   8.544 -1.9119  0.7939  1.3884
 5706TIP3   OH238676   3.622   2.301   8.821 -0.0172  0.2423  0.5873
 5706TIP3    H138677   3.605   2.276   8.912 -0.8503  0.5652  0.5328
 5706TIP3    H238678   3.548   2.265   8.772  0.6704 -0.3420 -0.0458
 5707TIP3   OH238679   0.149   6.458   7.936 -0.4989 -0.2786 -0.0943
 5707TIP3    H138680   0.114   6.504   8.012  0.6333  0.5697 -0.0627
 5707TIP3    H238681   0.192   6.380   7.973  1.5826  1.0192  0.3780
 5708TIP3   OH238682   1.869   2.191   2.450  0.1749 -0.2591 -0.6271
 5708TIP3    H138683   1.817   2.160   2.524  0.2501  0.4593 -0.2592
 5708TIP3    H238684   1.823   2.269   2.419  0.4919 -0.1910 -0.9310
 5709TIP3   OH238685   2.767   0.739   1.280 -0.3073 -0.1266  1.2212
 5709TIP3    H138686   2.676   0.724   1.255  0.4502 -0.6154 -1.5785
 5709TIP3    H238687   2.807   0.780   1.203  1.5779  1.2719  2.8272
 5710TIP3   OH238688   4.293   5.778   1.160 -0.1091 -0.0579 -0.2571
 5710TIP3    H138689   4.214   5.742   1.201 -0.7323  1.6879  0.1788
 5710TIP3    H238690   4.263   5.859   1.118  1.4034  0.4822 -0.3538
 5711TIP3   OH238691   5.278   3.779   8.060  0.2393  0.0622  0.6304
 5711TIP3    H138692   5.184   3.779   8.042 -0.0396 -1.5971  1.8582
 5711TIP3    H238693   5.298   3.688   8.080  2.3313  0.2046 -0.6090
 5712TIP3   OH238694   0.753   1.725   0.419 -0.1594 -0.3879  0.6711
 5712TIP3    H138695   0.749   1.820   0.427  1.2064 -0.1689 -0.8608
 5712TIP3    H238696   0.846   1.704   0.417 -0.4347 -1.7695  0.9228
 5713TIP3   OH238697   2.998   0.193   8.504  0.5421 -0.0208 -0.3382
 5713TIP3    H138698   2.942   0.119   8.526 -0.4263  0.7211 -0.2159
 5713TIP3    H238699   2.937   0.260   8.471  1.3051  0.9564  0.1917
 5714TIP3   OH238700   3.630   0.490   0.878 -0.1189 -0.1840  0.3565
 5714TIP3    H138701   3.592   0.450   0.956  0.2276 -1.4007 -0.0771
 5714TIP3    H238702   3.556   0.505   0.819 -0.1652 -0.8566  0.2393
 5715TIP3   OH238703   1.809   1.505   1.445  0.1845 -0.4316 -0.5440
 5715TIP3    H138704   1.860   1.442   1.495 -0.7831 -0.7832  0.0245
 5715TIP3    H238705   1.774   1.566   1.510 -3.0999 -2.2777 -0.3344
 5716TIP3   OH238706   5.829   3.226   1.439  0.5451 -0.0986 -0.1214
 5716TIP3    H138707   5.783   3.308   1.458 -0.2974 -0.7911  1.0009
 5716TIP3    H238708   5.821   3.215   1.344 -3.1154 -0.9753  0.1325
 5717TIP3   OH238709   3.281   5.621   0.095 -0.2251 -0.1236  0.0886
 5717TIP3    H138710   3.313   5.588   0.011  1.0216 -0.3921  0.6535
 5717TIP3    H238711   3.316   5.561   0.160 -0.7676  0.3649  0.8520
 5718TIP3   OH238712   3.345   0.704   8.519 -0.8483  0.5286  0.0126
 5718TIP3    H138713   3.352   0.798   8.535  0.7568  0.2136  1.4161
 5718TIP3    H238714   3.309   0.668   8.599  0.0940 -0.2167  0.1249
 5719TIP3   OH238715   1.452   1.652   0.123 -0.2092 -0.7128  0.4458
 5719TIP3    H138716   1.504   1.579   0.088 -1.1129 -0.7589 -0.8795
 5719TIP3    H238717   1.454   1.718   0.054  0.9610  0.7564  1.7972
 5720TIP3   OH238718   3.928   4.820   8.446 -0.0180 -0.0737 -0.3814
 5720TIP3    H138719   4.010   4.778   8.418 -0.1824 -1.0704  0.5517
 5720TIP3    H238720   3.862   4.786   8.386  0.3129  1.2076 -1.5340
 5721TIP3   OH238721   0.521   6.359   2.541 -0.0371 -0.2841 -0.0256
 5721TIP3    H138722   0.435   6.320   2.552 -0.2276 -0.0633 -0.6506
 5721TIP3    H238723   0.546   6.337   2.451  0.5001 -0.2407  0.1106
 5722TIP3   OH238724   4.813   3.753   7.257 -0.2845 -0.0880 -0.1703
 5722TIP3    H138725   4.879   3.706   7.308  0.0019  1.4740  0.9936
 5722TIP3    H238726   4.814   3.710   7.172  1.3045 -0.9455  0.2243
 5723TIP3   OH238727   6.300   2.025   0.773 -0.2664 -0.0067  0.3637
 5723TIP3    H138728   6.379   1.972   0.766  0.6373  1.4220 -0.5830
 5723TIP3    H238729   6.321   2.092   0.837 -1.2302 -0.4525  1.1809
 5724TIP3   OH238730   0.047   5.019   0.370 -0.7018 -0.3776 -0.8522
 5724TIP3    H138731   0.045   4.924   0.362  2.5687 -0.5604 -0.9343
 5724TIP3    H238732   0.083   5.035   0.458  0.0049  0.6981 -1.3114
 5725TIP3   OH238733   6.527   3.070   8.628  0.0518  0.5769  0.2601
 5725TIP3    H138734   6.611   3.038   8.594  0.1250  0.8297  0.1955
 5725TIP3    H238735   6.548   3.156   8.665 -0.2090  0.7130  0.0951
 5726TIP3   OH238736   6.312   6.730   8.355 -0.0227  0.1578 -0.4197
 5726TIP3    H138737   6.321   6.808   8.299 -0.2026  0.7370  0.3509
 5726TIP3    H238738   6.230   6.744   8.403  0.1331 -0.3336 -0.0044
 5727TIP3   OH238739   5.835   1.231   1.709  0.6129 -0.3470 -0.9104
 5727TIP3    H138740   5.813   1.284   1.786 -3.1836 -1.7801 -0.7830
 5727TIP3    H238741   5.915   1.185   1.734 -0.1442 -0.3035  1.9774
 5728TIP3   OH238742   0.322   5.160   0.307  0.1694 -0.0434  0.2412
 5728TIP3    H138743   0.304   5.150   0.213 -0.9040  1.8717  0.2047
 5728TIP3    H238744   0.348   5.251   0.317  0.6024 -0.3123  1.7754
 5729TIP3   OH238745   5.238   0.261   0.687  0.4367 -0.4446  0.1072
 5729TIP3    H138746   5.275   0.278   0.774  1.3119 -1.5134 -0.0379
 5729TIP3    H238747   5.314   0.246   0.631 -0.0606  1.2320 -1.0998
 5730TIP3   OH238748   1.762   1.050   0.959 -0.1049  0.1156 -0.4841
 5730TIP3    H138749   1.764   1.005   0.875  0.7399 -2.6489  0.9082
 5730TIP3    H238750   1.840   1.107   0.959  2.4838 -3.1415 -0.0187
 5731TIP3   OH238751   0.407   2.989   8.073  0.9185 -0.0616 -0.2375
 5731TIP3    H138752   0.496   3.000   8.039  0.2515  0.5139 -1.9150
 5731TIP3    H238753   0.352   3.039   8.013 -0.4686  0.2939  1.2398
 5732TIP3   OH238754   4.552   6.287   8.406  0.0622 -0.1021  0.3350
 5732TIP3    H138755   4.494   6.325   8.340  1.1145  1.2149  0.1257
 5732TIP3    H238756   4.495   6.230   8.458 -1.3206  0.8231 -0.1170
 5733TIP3   OH238757   6.267   6.469   2.464  0.1306 -0.6177 -0.0252
 5733TIP3    H138758   6.323   6.544   2.444  0.3205 -1.0652 -1.2184
 5733TIP3    H238759   6.269   6.415   2.385 -3.1256  0.0212 -0.6459
 5734TIP3   OH238760   5.305   0.413   0.416 -0.1632 -0.4537  0.3187
 5734TIP3    H138761   5.356   0.491   0.438 -1.5964  1.0299 -1.3723
 5734TIP3    H238762   5.370   0.350   0.385  0.9932  0.0991  1.5060
 5735TIP3   OH238763   5.130   2.066   6.523 -0.0602 -0.1140 -0.1315
 5735TIP3    H138764   5.067   2.100   6.586 -1.3601 -0.7706 -1.0530
 5735TIP3    H238765   5.128   2.128   6.450 -1.0421 -1.1123 -0.9814
 5736TIP3   OH238766   2.470   5.121   8.470 -0.0789 -0.2930  0.5508
 5736TIP3    H138767   2.547   5.096   8.521 -0.8581 -0.9495  1.4679
 5736TIP3    H238768   2.400   5.067   8.507 -0.7457 -0.5366 -1.0124
 5737TIP3   OH238769   3.770   2.147   8.234 -0.0804 -0.3184  0.0208
 5737TIP3    H138770   3.835   2.177   8.297  2.5196 -0.4571 -2.4075
 5737TIP3    H238771   3.728   2.227   8.203  0.0124 -0.0909  0.4677
 5738TIP3   OH238772   3.765   3.748   1.117  0.5480  0.6700 -0.3706
 5738TIP3    H138773   3.823   3.753   1.041  1.1691  0.3136  0.0654
 5738TIP3    H238774   3.799   3.814   1.177  0.4747  0.4863 -0.1274
 5739TIP3   OH238775   2.895   6.694   0.318  0.4689  0.0801 -0.1209
 5739TIP3    H138776   2.811   6.682   0.362  0.9374  0.6058  0.9550
 5739TIP3    H238777   2.902   6.619   0.260 -1.2451  0.5858 -1.0672
 5740TIP3   OH238778   1.547   4.497   8.092 -0.2153 -0.1030 -0.4578
 5740TIP3    H138779   1.616   4.433   8.108 -0.3865 -0.0767  0.4411
 5740TIP3    H238780   1.516   4.521   8.179 -0.1505  1.2197 -0.7777
 5741TIP3   OH238781   1.265   6.318   0.893  0.5141  0.4606 -0.1761
 5741TIP3    H138782   1.276   6.323   0.988  0.0282 -1.3034 -0.0000
 5741TIP3    H238783   1.351   6.290   0.861  0.2384 -0.5339 -0.0785
 5742TIP3   OH238784   0.085   6.045   7.361 -0.3698 -0.0251 -0.0462
 5742TIP3    H138785   0.002   6.070   7.402 -1.1747 -0.7583 -1.1637
 5742TIP3    H238786   0.063   6.032   7.269  1.4323  1.8916 -0.8259
 5743TIP3   OH238787   4.609   1.732   8.682  0.3834  0.4267 -0.0722
 5743TIP3    H138788   4.619   1.642   8.714  2.2126  0.1788 -1.2049
 5743TIP3    H238789   4.518   1.738   8.654  0.4035 -1.2901 -0.5977
 5744TIP3   OH238790   4.180   0.366   1.924  0.2170 -0.5977 -0.3763
 5744TIP3    H138791   4.182   0.322   2.009  2.0144  1.9091  1.0028
 5744TIP3    H238792   4.091   0.401   1.917  0.3555  0.1033  1.0334
 5745TIP3   OH238793   2.675   6.414   8.213 -0.0471 -0.0321 -0.3278
 5745TIP3    H138794   2.697   6.333   8.259 -0.6158 -1.7790 -2.8648
 5745TIP3    H238795   2.759   6.448   8.183  0.0951 -0.5945 -0.5914
 5746TIP3   OH238796   3.061   3.633   8.011  0.2874 -0.7189  0.1298
 5746TIP3    H138797   3.137   3.685   8.037  0.2773  0.0575 -1.3045
 5746TIP3    H238798   3.005   3.632   8.089  0.9639  0.1764  0.6466
 5747TIP3   OH238799   1.145   5.450   1.468  0.0647  0.2902  0.2209
 5747TIP3    H138800   1.112   5.536   1.441  0.0520  0.1679 -0.1604
 5747TIP3    H238801   1.213   5.470   1.533  0.2545  0.6042 -0.0658
 5748TIP3   OH238802   1.795   5.700   7.024 -0.7429  0.4609  0.1759
 5748TIP3    H138803   1.756   5.751   7.095 -1.6569  1.6430 -1.1327
 5748TIP3    H238804   1.854   5.761   6.980 -0.2001 -0.2529 -0.1062
 5749TIP3   OH238805   3.428   5.312   1.646 -0.6572  0.0969 -0.5510
 5749TIP3    H138806   3.443   5.323   1.552  0.5071  2.1467 -0.1929
 5749TIP3    H238807   3.515   5.307   1.684 -1.0960  0.2228  0.5176
 5750TIP3   OH238808   4.861   3.339   7.119  0.2844  0.5828  0.2554
 5750TIP3    H138809   4.839   3.414   7.062  0.3726 -1.3382 -2.5219
 5750TIP3    H238810   4.782   3.326   7.172  0.5643  3.0790  1.4665
 5751TIP3   OH238811   0.627   0.428   7.842  0.4062 -0.2823 -0.4609
 5751TIP3    H138812   0.614   0.389   7.928  3.6980 -1.1231 -0.1950
 5751TIP3    H238813   0.557   0.392   7.788  0.0139 -2.1094  1.1634
 5752TIP3   OH238814   4.914   2.255   8.449 -0.0095 -0.0804  0.3138
 5752TIP3    H138815   4.932   2.283   8.360  2.1432  1.5809  1.1912
 5752TIP3    H238816   4.921   2.334   8.502  0.5159 -1.3014  2.1826
 5753TIP3   OH238817   3.915   5.410   6.909 -0.1097  0.3768  0.3594
 5753TIP3    H138818   3.909   5.500   6.940 -0.9387  0.4340  0.0313
 5753TIP3    H238819   3.858   5.360   6.968  1.8647 -0.2918  1.8166
 5754TIP3   OH238820   5.106   3.723   7.585 -0.1866  0.1347 -0.0048
 5754TIP3    H138821   5.191   3.764   7.570 -1.0566  1.1088 -2.9588
 5754TIP3    H238822   5.116   3.633   7.553 -0.0909  0.0331  0.3064
 5755TIP3   OH238823   2.895   4.080   1.353  0.1786  0.3186 -0.1042
 5755TIP3    H138824   2.973   4.094   1.407  0.1476 -1.3998  0.4757
 5755TIP3    H238825   2.869   4.167   1.324  2.9020  0.8750 -1.1697
 5756TIP3   OH238826   3.567   3.372   1.850  0.2971  0.2303  0.3908
 5756TIP3    H138827   3.584   3.280   1.829  0.7519  0.2337  0.7150
 5756TIP3    H238828   3.562   3.374   1.946  2.7252  0.9103  0.5671
 5757TIP3   OH238829   0.392   6.175   1.243 -0.8383  0.0625 -0.8798
 5757TIP3    H138830   0.346   6.255   1.271 -1.2295 -1.3380  2.9953
 5757TIP3    H238831   0.478   6.181   1.282 -0.0794 -0.5101 -2.3699
 5758TIP3   OH238832   3.710   3.809   6.649 -0.3117 -0.0555  0.8183
 5758TIP3    H138833   3.725   3.818   6.743 -0.2029 -0.8644  0.8896
 5758TIP3    H238834   3.707   3.714   6.635  0.3607  0.0410 -0.0930
 5759TIP3   OH238835   2.973   4.124   8.482  0.3964 -0.1736 -0.2806
 5759TIP3    H138836   2.989   4.096   8.572  1.2627 -0.0183 -0.3858
 5759TIP3    H238837   3.054   4.164   8.453 -0.0841  0.3725 -0.9214
 5760TIP3   OH238838   2.828   2.805   8.452  0.1781  0.1221  0.1865
 5760TIP3    H138839   2.809   2.714   8.428  0.7458  0.4699 -1.7293
 5760TIP3    H238840   2.899   2.798   8.516  1.0657 -0.7728 -0.8477
 5761TIP3   OH238841   4.228   3.157   8.144 -0.2462  0.0377 -0.1766
 5761TIP3    H138842   4.178   3.200   8.075 -0.4217 -0.0934 -0.1325
 5761TIP3    H238843   4.162   3.110   8.195 -0.2584  0.9766  0.7128
 5762TIP3   OH238844   4.194   6.224   1.618 -0.0866 -0.5056  0.6267
 5762TIP3    H138845   4.264   6.260   1.673  0.3655  1.5431 -1.1370
 5762TIP3    H238846   4.154   6.155   1.671  2.3261 -0.7693  2.2481
 5763TIP3   OH238847   3.776   0.028   7.867  0.8403 -0.4343  0.3112
 5763TIP3    H138848   3.787  -0.014   7.782  0.7992  1.6742 -0.8169
 5763TIP3    H238849   3.724   0.107   7.848 -0.1152 -0.4790  2.4799
 5764TIP3   OH238850   3.278   4.511   7.904  0.4010  0.4306  0.6592
 5764TIP3    H138851   3.190   4.550   7.901  0.4696  0.5766 -1.9599
 5764TIP3    H238852   3.266   4.421   7.873  1.2695  0.7927 -0.8527
 5765TIP3   OH238853   3.728   5.012   7.241 -0.2295  0.1501  0.1363
 5765TIP3    H138854   3.667   5.040   7.310  0.5331 -0.2159  0.9810
 5765TIP3    H238855   3.738   4.918   7.255 -0.5407 -0.0530 -0.8818
 5766TIP3   OH238856   5.188   6.494   1.312  0.2824 -0.3486 -0.0742
 5766TIP3    H138857   5.109   6.444   1.334 -0.9040  0.4947 -2.0746
 5766TIP3    H238858   5.166   6.538   1.230  2.5936  0.5370 -0.2975
 5767TIP3   OH238859   1.602   2.676   7.021  0.0889  0.4198 -0.2556
 5767TIP3    H138860   1.515   2.636   7.019 -0.5122  1.6848 -2.4659
 5767TIP3    H238861   1.658   2.615   6.973  0.5817 -0.5680  1.4640
 5768TIP3   OH238862   5.820   0.800   8.745  0.0457 -0.4654 -0.1400
 5768TIP3    H138863   5.825   0.895   8.733 -0.4097 -0.3397  0.5994
 5768TIP3    H238864   5.833   0.764   8.657 -0.4425  0.3038 -0.5391
 5769TIP3   OH238865   2.890   6.312   0.302  0.0974  0.1960  0.3454
 5769TIP3    H138866   2.920   6.223   0.283  0.5347  0.0605  1.5879
 5769TIP3    H238867   2.853   6.306   0.390 -2.2050  0.7073 -0.5203
 5770TIP3   OH238868   5.227   3.835   7.102  0.2323  0.2617  0.2405
 5770TIP3    H138869   5.171   3.837   7.179 -0.3975  0.0202 -0.2045
 5770TIP3    H238870   5.197   3.759   7.052  1.7545 -0.5960  0.5795
 5771TIP3   OH238871   6.064   0.791   8.890 -0.3701 -0.2662 -0.7510
 5771TIP3    H138872   6.133   0.729   8.914  0.7215  0.9838 -0.5167
 5771TIP3    H238873   6.000   0.739   8.842  0.5572 -1.5429 -0.6479
 5772TIP3   OH238874   2.842   4.884   2.211  0.2115 -0.0788  0.1755
 5772TIP3    H138875   2.801   4.944   2.273 -1.9452  0.1995 -1.3986
 5772TIP3    H238876   2.919   4.850   2.257 -1.2260  0.1604  2.9278
 5773TIP3   OH238877   6.530   5.664   2.078  0.6799 -0.0675  0.0259
 5773TIP3    H138878   6.593   5.736   2.069  0.7660 -0.2844 -1.2844
 5773TIP3    H238879   6.557   5.618   2.158  1.7695  0.2381 -0.1476
 5774TIP3   OH238880   4.898   5.462   1.296  0.2021  0.6727 -0.5622
 5774TIP3    H138881   4.805   5.482   1.310  0.0456 -0.6960  0.5244
 5774TIP3    H238882   4.944   5.520   1.357 -0.0324  0.3054 -0.0313
 5775TIP3   OH238883   4.101   0.631   8.315  0.5075  0.1586 -0.0919
 5775TIP3    H138884   4.013   0.599   8.296  0.9670 -0.8595 -0.6481
 5775TIP3    H238885   4.091   0.725   8.328 -0.5523  0.1654 -0.8469
 5776TIP3   OH238886   0.043   3.880   2.138 -0.4332 -0.9621  0.4812
 5776TIP3    H138887   0.031   3.861   2.231 -1.5619 -0.5209  0.4489
 5776TIP3    H238888  -0.046   3.883   2.103 -0.0877  0.0120 -0.3732
 5777TIP3   OH238889   3.630   4.615   1.350  0.2453 -0.2338  0.1776
 5777TIP3    H138890   3.570   4.629   1.277  0.7973  0.4147 -0.1518
 5777TIP3    H238891   3.586   4.548   1.403 -0.5767 -0.0761 -0.2757
 5778TIP3   OH238892   1.138   4.557   2.047 -0.3935 -0.8025 -0.5765
 5778TIP3    H138893   1.175   4.622   1.987  1.0380 -1.8425 -0.8518
 5778TIP3    H238894   1.104   4.610   2.120 -0.2461  0.3287 -1.2919
 5779TIP3   OH238895   5.814   3.854   8.926  0.1302  0.1626  0.4000
 5779TIP3    H138896   5.898   3.870   8.882  0.3949 -2.2226 -0.0822
 5779TIP3    H238897   5.749   3.886   8.864  0.5968 -0.9975 -0.7356
 5780TIP3   OH238898   2.889   1.434   7.242 -0.4145  0.2287 -0.7833
 5780TIP3    H138899   2.868   1.528   7.247  0.5577  0.5526 -2.1992
 5780TIP3    H238900   2.818   1.396   7.190 -1.8934 -0.2379  1.4309
 5781TIP3   OH238901   1.463   0.725   7.115  0.4482 -0.4503 -0.5508
 5781TIP3    H138902   1.488   0.783   7.043  0.0654 -0.6387 -0.8413
 5781TIP3    H238903   1.375   0.694   7.092 -0.2064  0.4724  0.6272
 5782TIP3   OH238904   4.565   0.008   1.491  0.6169 -0.4021 -0.1387
 5782TIP3    H138905   4.469  -0.002   1.492  0.5597  0.0305  1.4314
 5782TIP3    H238906   4.587   0.011   1.398 -0.6463 -2.5634 -0.5858
 5783TIP3   OH238907   0.596   1.200   0.094  0.2346  0.1164 -0.1785
 5783TIP3    H138908   0.679   1.230   0.057  0.6820  0.5063  1.0913
 5783TIP3    H238909   0.547   1.280   0.112 -0.1383 -0.0847 -0.2834
 5784TIP3   OH238910   5.285   1.892   1.336  0.3347  0.4036 -0.8157
 5784TIP3    H138911   5.269   1.834   1.262 -0.4342  1.5183 -1.5740
 5784TIP3    H238912   5.345   1.959   1.301  0.0632  0.8635 -0.4160
 5785TIP3   OH238913   5.416   2.478   7.738  0.1375  0.6025  0.0461
 5785TIP3    H138914   5.376   2.398   7.774 -3.2606  1.4900 -1.3330
 5785TIP3    H238915   5.439   2.455   7.648  1.5102  0.5226  0.4004
 5786TIP3   OH238916   4.498   4.016   0.502 -0.1165 -0.3108  0.0430
 5786TIP3    H138917   4.424   4.040   0.447  1.5191 -0.9472 -2.6526
 5786TIP3    H238918   4.460   3.995   0.587 -2.8149  0.7141 -0.8153
 5787TIP3   OH238919   3.061   1.758   7.501  0.1807  0.0507  0.1514
 5787TIP3    H138920   3.036   1.813   7.426 -1.5733 -0.9424 -0.0577
 5787TIP3    H238921   2.987   1.698   7.511  0.6514 -0.2311  2.3175
 5788TIP3   OH238922   5.377   3.103   0.958 -0.0185  0.4325 -0.4318
 5788TIP3    H138923   5.433   3.117   0.883  0.1549  1.6677 -0.0819
 5788TIP3    H238924   5.298   3.154   0.940  0.5716  1.8369  0.8069
 5789TIP3   OH238925   0.377   6.259   2.960  0.3560 -0.1623 -0.4742
 5789TIP3    H138926   0.444   6.328   2.963 -0.9823  1.1886  0.1304
 5789TIP3    H238927   0.379   6.227   2.870  0.4157  1.2931 -1.0154
 5790TIP3   OH238928   0.328   1.625   8.680  0.1023  0.4751  0.7856
 5790TIP3    H138929   0.388   1.698   8.666  0.1055  0.4488  0.6621
 5790TIP3    H238930   0.331   1.575   8.599  0.6761 -0.0884  1.1490
 5791TIP3   OH238931   4.090   6.354   8.352  0.0667 -0.0690 -0.8310
 5791TIP3    H138932   4.069   6.388   8.439 -2.2299 -0.7034 -1.0624
 5791TIP3    H238933   4.123   6.430   8.304  0.3395  0.5255  0.2623
 5792TIP3   OH238934   3.328   5.198   8.918  0.3444 -0.0081 -0.0778
 5792TIP3    H138935   3.421   5.175   8.925  0.3850  0.4477  1.1710
 5792TIP3    H238936   3.325   5.263   8.848  0.9345 -0.2375 -0.3168
 5793TIP3   OH238937   5.542   6.356   1.376  0.0703  0.7483  0.3191
 5793TIP3    H138938   5.476   6.325   1.438  0.1871 -0.6858 -0.2487
 5793TIP3    H238939   5.502   6.347   1.290 -0.0320  2.5893  0.1358
 5794TIP3   OH238940   2.523   3.433   8.759  0.1596  0.5067  0.0391
 5794TIP3    H138941   2.607   3.394   8.781  0.1443  0.9373  0.8672
 5794TIP3    H238942   2.465   3.411   8.832  0.3119  2.5695  0.8672
 5795TIP3   OH238943   2.262   1.342   2.108  0.0406  0.0166 -0.7218
 5795TIP3    H138944   2.288   1.320   2.018  2.8196 -2.6353  0.5178
 5795TIP3    H238945   2.310   1.422   2.127  2.2088 -1.1981 -0.6705
 5796TIP3   OH238946   3.064   2.616   8.813 -0.3099  0.2170  0.2094
 5796TIP3    H138947   3.009   2.544   8.844  0.6971 -0.2607  0.9414
 5796TIP3    H238948   3.056   2.613   8.718 -0.6763 -0.5535  0.2588
 5797TIP3   OH238949   6.625   2.156   1.816  0.0462  0.1168 -0.0357
 5797TIP3    H138950   6.653   2.247   1.815 -0.8839  0.4490  1.1458
 5797TIP3    H238951   6.536   2.159   1.853 -0.8725 -1.0469 -1.9908
 5798TIP3   OH238952   0.267   2.592   6.284  0.4109  0.0719  0.2075
 5798TIP3    H138953   0.254   2.675   6.238 -1.0685  0.4755  1.2771
 5798TIP3    H238954   0.218   2.528   6.232  0.4729  0.1066  0.1043
 5799TIP3   OH238955   0.893   3.312   0.382 -0.3550  0.3322  0.0118
 5799TIP3    H138956   0.960   3.321   0.449 -0.4369  0.1339  0.1216
 5799TIP3    H238957   0.810   3.323   0.429 -0.4522 -0.8114  0.1261
 5800TIP3   OH238958   1.506   5.939   7.016  0.1154 -0.1983  0.2230
 5800TIP3    H138959   1.588   5.983   7.040 -0.1534  0.5424 -0.1865
 5800TIP3    H238960   1.485   5.885   7.092  0.4140  0.4490  0.7763
 5801TIP3   OH238961   4.153   4.278   1.539  0.1109  0.6381  0.4921
 5801TIP3    H138962   4.228   4.270   1.598  0.3761  0.0854  0.0893
 5801TIP3    H238963   4.113   4.361   1.562  1.1451  1.1814  0.3768
 5802TIP3   OH238964   0.509   4.986   8.924  0.5768 -0.2344  0.1581
 5802TIP3    H138965   0.563   5.064   8.908 -0.2172  0.3805  0.4586
 5802TIP3    H238966   0.542   4.951   9.007  0.9329 -0.2284  0.0244
 5803TIP3   OH238967   1.537   0.820   2.886 -0.2502  0.0643  0.3075
 5803TIP3    H138968   1.579   0.765   2.819  1.7562 -0.9991  2.2889
 5803TIP3    H238969   1.594   0.896   2.894 -0.0883 -0.1392  1.2350
 5804TIP3   OH238970   6.587   4.903   1.216 -0.2931 -0.1398 -0.1311
 5804TIP3    H138971   6.664   4.872   1.264  1.0596  2.5858 -0.3135
 5804TIP3    H238972   6.616   4.912   1.126 -0.2561  2.3310  0.0479
 5805TIP3   OH238973   3.676   0.377   0.501 -0.7130  0.2289  0.1614
 5805TIP3    H138974   3.585   0.405   0.498 -0.7658  0.1898  0.9948
 5805TIP3    H238975   3.726   0.459   0.503 -0.6481  0.2611 -1.6560
 5806TIP3   OH238976   0.459   5.295   8.386  0.0396  0.4053  0.6072
 5806TIP3    H138977   0.545   5.337   8.383 -0.2266  0.9995  1.3728
 5806TIP3    H238978   0.458   5.239   8.308  1.6175 -0.5779  1.2351
 5807TIP3   OH238979   3.517   6.653   7.216  0.2808  0.0522 -0.4754
 5807TIP3    H138980   3.472   6.596   7.153 -1.6010  0.3147  0.5359
 5807TIP3    H238981   3.580   6.595   7.260 -0.2312 -0.7748 -0.8044
 5808TIP3   OH238982   2.425   4.806   8.539  0.1613  0.0139  0.0536
 5808TIP3    H138983   2.381   4.723   8.524  0.3590 -0.8446  3.3643
 5808TIP3    H238984   2.362   4.859   8.587  1.7317 -0.3205  2.6988
 5809TIP3   OH238985   5.369   4.161   7.672  0.5454  0.3375 -0.0499
 5809TIP3    H138986   5.353   4.254   7.690  1.1079  0.6433 -1.0265
 5809TIP3    H238987   5.326   4.115   7.743  1.6865  1.4145  1.4218
 5810TIP3   OH238988   3.077   1.880   6.927 -0.4391  0.0683  0.1622
 5810TIP3    H138989   3.165   1.842   6.923 -0.6559 -0.3614 -1.3853
 5810TIP3    H238990   3.059   1.907   6.836 -1.7156  0.5869  0.5507
 5811TIP3   OH238991   4.981   4.484   7.735 -0.2782 -0.1602  0.0226
 5811TIP3    H138992   5.033   4.414   7.694 -0.1330 -0.9366  1.4615
 5811TIP3    H238993   5.046   4.545   7.769 -0.3827  0.2206 -0.4581
 5812TIP3   OH238994   3.417   3.037   0.512 -0.4180 -0.0384 -0.1563
 5812TIP3    H138995   3.427   3.131   0.502  1.0525 -0.2655 -1.0076
 5812TIP3    H238996   3.398   3.005   0.424 -2.1595 -0.4407  0.3099
 5813TIP3   OH238997   3.704   0.861   2.540  0.2290 -0.3376  0.3048
 5813TIP3    H138998   3.740   0.947   2.521 -0.5081 -0.4226 -1.7355
 5813TIP3    H238999   3.617   0.878   2.575  0.8570 -0.2283  1.8703
 5814TIP3   OH239000   6.203   5.213   1.064 -0.5013 -0.1057 -0.0521
 5814TIP3    H139001   6.271   5.199   0.998 -0.3814  0.4424 -0.0511
 5814TIP3    H239002   6.141   5.141   1.050 -0.3152 -0.1773 -0.5545
 5815TIP3   OH239003   3.683   0.558   8.009 -0.1940  0.2856 -0.2357
 5815TIP3    H139004   3.709   0.468   8.029 -3.5019  0.0229  4.9617
 5815TIP3    H239005   3.587   0.553   8.001 -0.2524  3.0465 -2.8088
 5816TIP3   OH239006   3.827   3.821   0.428  0.3538  0.7561 -0.0943
 5816TIP3    H139007   3.746   3.868   0.407 -0.5269 -0.6214  0.0351
 5816TIP3    H239008   3.885   3.887   0.464 -1.5470  1.4096  1.9974
 5817TIP3   OH239009   6.109   2.421   0.147 -0.6337 -0.1646 -0.0337
 5817TIP3    H139010   6.198   2.401   0.119 -1.0866 -0.4864 -1.3075
 5817TIP3    H239011   6.062   2.339   0.137 -1.3871  0.3285 -0.6966
 5818TIP3   OH239012   4.332   2.094   1.339 -0.2176 -0.2945  0.3811
 5818TIP3    H139013   4.413   2.084   1.387  0.6048  0.4972 -0.7817
 5818TIP3    H239014   4.263   2.087   1.405  0.8096 -0.4386  1.4591
 5819TIP3   OH239015   3.786   0.720   0.923  0.4568  0.3313 -0.2265
 5819TIP3    H139016   3.771   0.701   1.016 -0.7665  0.7858 -0.3131
 5819TIP3    H239017   3.757   0.641   0.878  2.6546 -0.5741 -0.1537
 5820TIP3   OH239018   0.510   6.276   6.721 -0.6225  0.2277 -0.2823
 5820TIP3    H139019   0.482   6.338   6.788  0.9104 -0.2226  0.8265
 5820TIP3    H239020   0.604   6.293   6.710 -0.5674 -0.6464 -1.3093
 5821TIP3   OH239021   4.774   1.145   7.772  0.3964  0.1652 -0.7292
 5821TIP3    H139022   4.829   1.108   7.703 -0.4546 -0.1274 -1.2703
 5821TIP3    H239023   4.760   1.236   7.744  0.9981  0.3766 -0.3429
 5822TIP3   OH239024   2.948   0.528   1.780 -0.4303 -0.5334 -0.3677
 5822TIP3    H139025   2.933   0.516   1.873 -0.6960  1.9923 -0.0363
 5822TIP3    H239026   2.880   0.474   1.738 -0.5517 -1.3811  0.8848
 5823TIP3   OH239027   4.023   6.584   1.920 -0.8526 -0.2578  0.4396
 5823TIP3    H139028   4.077   6.521   1.969 -0.2623 -1.0703 -1.1800
 5823TIP3    H239029   4.039   6.562   1.828 -2.6954  0.5686 -0.1136
 5824TIP3   OH239030   3.006   1.472   7.864  0.4371 -0.2354 -0.4910
 5824TIP3    H139031   3.002   1.414   7.940  1.2567  0.2727 -0.0433
 5824TIP3    H239032   3.046   1.418   7.795  0.7771 -0.3384 -0.2153
 5825TIP3   OH239033   1.581   3.263   0.340  0.0308 -0.7574 -0.7516
 5825TIP3    H139034   1.649   3.200   0.360  1.2848  0.8217  0.2018
 5825TIP3    H239035   1.603   3.297   0.253  0.7076  0.0023 -0.3011
 5826TIP3   OH239036   5.664   4.980   8.135 -0.4903 -0.0009  0.1886
 5826TIP3    H139037   5.717   4.907   8.167  0.1733 -0.3772 -1.6417
 5826TIP3    H239038   5.711   5.058   8.164 -0.8247 -0.2749  1.5493
 5827TIP3   OH239039   1.617   3.226   8.123 -0.1715 -0.1839 -0.3539
 5827TIP3    H139040   1.676   3.276   8.179  2.3087 -0.7620 -2.2760
 5827TIP3    H239041   1.533   3.273   8.128  1.4550  2.9936 -0.5062
 5828TIP3   OH239042   3.037   1.842   8.833 -0.8424 -0.5901 -0.3094
 5828TIP3    H139043   2.993   1.921   8.862  1.3672  0.5020  0.3308
 5828TIP3    H239044   3.035   1.846   8.738 -1.4412 -0.1694 -0.2797
 5829TIP3   OH239045   2.711   0.214   1.565  0.3691  0.2704  0.4556
 5829TIP3    H139046   2.685   0.301   1.535  0.2044  0.1569  0.2684
 5829TIP3    H239047   2.780   0.187   1.505  1.1272  0.6882  1.1214
 5830TIP3   OH239048   1.487   0.287   2.820 -0.1511 -0.1477 -0.0030
 5830TIP3    H139049   1.396   0.314   2.821  0.4803  2.2068  0.8539
 5830TIP3    H239050   1.518   0.301   2.909  0.3026 -4.0888  0.6627
 5831TIP3   OH239051   6.390   1.292   7.811 -0.1172  0.4182  0.6193
 5831TIP3    H139052   6.366   1.233   7.884 -1.1506  1.0479  0.8002
 5831TIP3    H239053   6.372   1.380   7.844  0.3185  0.7758 -0.0700
 5832TIP3   OH239054   6.266   3.130   0.763 -0.1652 -0.2510  0.3596
 5832TIP3    H139055   6.231   3.215   0.788 -0.4797 -0.4206  0.5024
 5832TIP3    H239056   6.280   3.137   0.669 -1.3522 -0.4501  0.1592
 5833TIP3   OH239057   5.392   3.563   1.280  0.0390  0.4915  0.0361
 5833TIP3    H139058   5.303   3.559   1.315  0.1120  0.1000  0.1798
 5833TIP3    H239059   5.408   3.476   1.244  0.7212  0.2342  0.9029
 5834TIP3   OH239060   6.319   3.832   0.230  0.6146 -0.3041 -0.0907
 5834TIP3    H139061   6.362   3.916   0.214  0.7617 -0.3206  0.1954
 5834TIP3    H239062   6.249   3.853   0.292  1.2936 -0.5509  0.7823
 5835TIP3   OH239063   0.696   4.303   1.282 -0.1894 -0.4785 -0.0294
 5835TIP3    H139064   0.737   4.256   1.354  2.0350 -0.0754 -0.9617
 5835TIP3    H239065   0.688   4.393   1.313 -0.3511 -0.5476  0.1333
 5836TIP3   OH239066   2.234   4.666   6.759 -0.1762  0.4710 -0.1466
 5836TIP3    H139067   2.193   4.634   6.678  1.8561 -1.2022 -0.5930
 5836TIP3    H239068   2.311   4.713   6.730  1.6240 -1.7103  0.7658
 5837TIP3   OH239069   3.023   1.350   0.133  0.3900 -0.1315  0.2424
 5837TIP3    H139070   3.099   1.370   0.079  0.0100 -1.0040 -0.6578
 5837TIP3    H239071   2.974   1.432   0.137  1.1731  0.3324  0.5129
 5838TIP3   OH239072   5.419   1.836   6.568  0.0459 -0.0375  0.6544
 5838TIP3    H139073   5.327   1.834   6.543  0.2220 -0.8392  0.0197
 5838TIP3    H239074   5.445   1.744   6.573  1.2456  0.1504 -0.8865
 5839TIP3   OH239075   5.804   5.571   1.542 -0.3714  0.5515  0.1320
 5839TIP3    H139076   5.844   5.545   1.625 -1.8722  0.6570  0.9277
 5839TIP3    H239077   5.843   5.513   1.477  2.1118  1.5852  0.5874
 5840TIP3   OH239078   1.825   3.886   7.418 -0.6753 -0.1188 -0.1924
 5840TIP3    H139079   1.853   3.969   7.457  0.5257 -0.3088 -0.6179
 5840TIP3    H239080   1.871   3.882   7.334  0.8619 -2.1342  0.6657
 5841TIP3   OH239081   1.979   4.061   8.261  0.0510 -0.1983  0.0407
 5841TIP3    H139082   1.962   4.071   8.355 -0.1612  2.3069 -0.1886
 5841TIP3    H239083   2.057   4.113   8.245 -0.4041  0.1222 -1.2880
 5842TIP3   OH239084   6.007   6.343   2.565 -0.4482 -0.0460 -0.4304
 5842TIP3    H139085   6.102   6.355   2.562 -0.3271 -0.4573  1.1846
 5842TIP3    H239086   5.981   6.377   2.651 -1.6619 -0.6287 -0.5462
 5843TIP3   OH239087   5.686   3.072   6.830  0.1370  0.0104 -0.2920
 5843TIP3    H139088   5.756   3.117   6.878  0.3347 -1.8183  1.2773
 5843TIP3    H239089   5.732   3.023   6.762  0.1143  0.6805 -0.7969
 5844TIP3   OH239090   4.082   1.730   7.993 -0.2265  0.4619 -0.1099
 5844TIP3    H139091   4.126   1.792   7.934 -0.9612  0.1364 -1.0258
 5844TIP3    H239092   4.019   1.784   8.041  1.2779  0.9788  1.3892
 5845TIP3   OH239093   2.464   3.910   8.220  0.1085 -0.2491 -0.2819
 5845TIP3    H139094   2.464   3.851   8.145  0.6564  0.6954 -1.0572
 5845TIP3    H239095   2.413   3.986   8.190  0.0322 -0.0156  0.4259
 5846TIP3   OH239096   3.156   5.655   8.400 -0.1505 -0.2992 -0.1944
 5846TIP3    H139097   3.120   5.719   8.338  1.5672  1.3242  0.3846
 5846TIP3    H239098   3.138   5.692   8.486 -0.4545 -1.3768  0.2253
 5847TIP3   OH239099   1.972   2.187   0.242 -0.0157  0.4164 -0.4145
 5847TIP3    H139100   2.042   2.252   0.230 -1.5809  1.9460 -1.7402
 5847TIP3    H239101   2.000   2.112   0.190  0.6005  1.0558 -1.0286
 5848TIP3   OH239102   5.635   0.987   2.337 -0.0160  0.2372  0.3965
 5848TIP3    H139103   5.621   0.907   2.288 -0.4973 -0.5120  1.7132
 5848TIP3    H239104   5.548   1.011   2.371  0.2139  1.0103  0.4693
 5849TIP3   OH239105   1.098   5.127   7.855 -0.1401 -0.2447  0.4996
 5849TIP3    H139106   1.126   5.108   7.945 -1.5924 -1.3601  0.7544
 5849TIP3    H239107   1.024   5.187   7.866 -0.6805 -0.8299  0.0910
 5850TIP3   OH239108   5.808   3.388   7.738  0.3040 -0.0035  0.2825
 5850TIP3    H139109   5.781   3.458   7.798  0.0213  0.0053  0.1500
 5850TIP3    H239110   5.903   3.391   7.738  0.3346 -0.5569  1.3912
 5851TIP3   OH239111   6.454   3.853   7.248  0.8093  0.4903  0.1375
 5851TIP3    H139112   6.498   3.797   7.313 -0.4702  1.2547  1.7398
 5851TIP3    H239113   6.362   3.851   7.274  0.2789  0.9698 -1.5937
 5852TIP3   OH239114   4.937   2.892   7.180 -0.2875 -0.2836 -0.3537
 5852TIP3    H139115   4.954   2.986   7.186 -0.4455 -0.1857 -1.3222
 5852TIP3    H239116   4.891   2.871   7.261 -0.6625  0.5664 -0.3391
 5853TIP3   OH239117   0.271   5.075   8.648 -0.1895  0.3495 -0.3053
 5853TIP3    H139118   0.239   4.985   8.653 -0.1888  0.2998 -1.1267
 5853TIP3    H239119   0.364   5.068   8.667 -0.0428  0.0724 -1.0840
 5854TIP3   OH239120   5.531   5.343   8.222 -0.2023 -0.4859  0.2664
 5854TIP3    H139121   5.477   5.413   8.259 -0.7524 -0.3381 -0.7997
 5854TIP3    H239122   5.489   5.320   8.140  0.8174 -1.0456 -0.1250
 5855TIP3   OH239123   5.705   6.018   7.528  0.2940  0.2338  0.5077
 5855TIP3    H139124   5.677   6.082   7.594  0.2424  0.8567 -0.0937
 5855TIP3    H239125   5.798   6.037   7.514  0.0953  0.7089 -0.2327
 5856TIP3   OH239126   6.160   1.841   1.941 -0.0712  0.5424 -0.3761
 5856TIP3    H139127   6.201   1.838   2.027  0.6482  1.0404 -0.6867
 5856TIP3    H239128   6.081   1.892   1.953 -0.0616  0.4627  0.0245
 5857TIP3   OH239129   1.423   3.022   0.630  0.2605 -0.2755  0.0795
 5857TIP3    H139130   1.505   2.987   0.667 -0.5198 -1.9082  0.3512
 5857TIP3    H239131   1.389   2.951   0.576 -1.1527  0.2587  0.2376
 5858TIP3   OH239132   5.757   4.101   0.846  0.0167 -0.2814  0.3861
 5858TIP3    H139133   5.762   4.137   0.758 -1.2649  0.3871  0.5501
 5858TIP3    H239134   5.847   4.083   0.871  0.4647  0.3554 -0.7250
 5859TIP3   OH239135   5.278   4.340   8.635 -0.2636 -0.2112  0.1603
 5859TIP3    H139136   5.202   4.365   8.688 -0.0379 -0.7964  0.7821
 5859TIP3    H239137   5.346   4.402   8.660 -0.0829 -0.6391  0.7542
 5860TIP3   OH239138   6.497   5.013   0.615  0.1693  0.5959  0.4836
 5860TIP3    H139139   6.486   4.983   0.705 -0.3430  1.0630  0.5827
 5860TIP3    H239140   6.589   5.041   0.611  0.2371  0.4344  0.8145
 5861TIP3   OH239141   3.178   5.580   0.462  0.0031 -0.4623 -0.6396
 5861TIP3    H139142   3.190   5.487   0.443  2.5407  0.1172 -2.3813
 5861TIP3    H239143   3.097   5.603   0.418 -0.2607 -1.6813 -0.8283
 5862TIP3   OH239144   2.418   4.689   1.499 -0.1174 -0.6354 -0.1180
 5862TIP3    H139145   2.405   4.627   1.571 -1.3726  1.0589  1.2169
 5862TIP3    H239146   2.386   4.772   1.534  2.8481  1.1600 -1.2444
 5863TIP3   OH239147   1.061   0.497   2.053 -0.0557 -0.5891 -0.2588
 5863TIP3    H139148   1.155   0.493   2.067 -0.0901 -1.1414 -0.1322
 5863TIP3    H239149   1.038   0.588   2.067  0.3327 -0.6130  0.5835
 5864TIP3   OH239150   2.123   3.699   0.560 -0.2631  0.5897 -0.4979
 5864TIP3    H139151   2.191   3.759   0.592  1.0873 -0.8560 -0.5495
 5864TIP3    H239152   2.164   3.652   0.488 -1.6620  0.3427 -1.1680
 5865TIP3   OH239153   6.446   2.750   7.675  0.1580  0.2452 -0.0023
 5865TIP3    H139154   6.422   2.838   7.703  0.3135  0.3699 -0.2525
 5865TIP3    H239155   6.399   2.692   7.735  0.8075  0.5097  0.7770
 5866TIP3   OH239156   4.096   4.498   2.189 -0.2022  0.2935 -0.0801
 5866TIP3    H139157   4.069   4.570   2.131 -2.6747  0.4380  1.0988
 5866TIP3    H239158   4.065   4.419   2.145 -0.6028  0.2635  0.2507
 5867TIP3   OH239159   5.147   3.248   0.876  0.5901 -0.0024  0.8703
 5867TIP3    H139160   5.072   3.188   0.879  0.6875 -0.1201  0.9749
 5867TIP3    H239161   5.109   3.331   0.848  0.8789 -0.7781 -2.2282
 5868TIP3   OH239162   5.031   1.812   0.072 -0.3892  0.2641  0.0024
 5868TIP3    H139163   5.089   1.758   0.017  1.2512  0.4172  1.5136
 5868TIP3    H239164   5.015   1.759   0.150  0.9004  1.7328  1.3300
 5869TIP3   OH239165   5.242   4.114   7.102  0.7593 -0.5544  0.2121
 5869TIP3    H139166   5.270   4.034   7.148  1.9734 -0.2225  0.0866
 5869TIP3    H239167   5.202   4.082   7.021  2.4681 -1.0293 -0.4925
 5870TIP3   OH239168   0.653   3.212   8.295 -0.0182 -0.3122  0.8768
 5870TIP3    H139169   0.568   3.247   8.267 -0.0130 -0.3849  0.7700
 5870TIP3    H239170   0.643   3.117   8.290 -0.4520 -0.3743  2.3920
 5871TIP3   OH239171   4.070   2.760   1.321  0.3848  0.3726 -0.1329
 5871TIP3    H139172   4.144   2.701   1.331 -1.0391 -1.8364 -1.7186
 5871TIP3    H239173   4.021   2.753   1.403  1.4731  1.2776  0.6252
 5872TIP3   OH239174   1.697   1.135   2.038  0.2802 -0.1030  0.2339
 5872TIP3    H139175   1.710   1.046   2.004  0.0933  0.5876 -1.7533
 5872TIP3    H239176   1.750   1.137   2.118 -1.4235 -2.6657  1.5810
 5873TIP3   OH239177   1.649   0.282   2.609 -0.1372  0.5706  0.6546
 5873TIP3    H139178   1.694   0.364   2.631  0.9488 -0.0240  0.7522
 5873TIP3    H239179   1.581   0.273   2.676 -0.1376  1.3027  0.7550
 5874TIP3   OH239180   2.080   2.503   1.669  0.0498  0.3050 -0.2511
 5874TIP3    H139181   2.132   2.528   1.593  2.2280 -0.1974  0.9882
 5874TIP3    H239182   2.144   2.497   1.741 -1.6010 -1.0909  1.1943
 5875TIP3   OH239183   4.795   1.491   7.356  0.1549  0.6094  0.1766
 5875TIP3    H139184   4.751   1.560   7.405  1.4760  0.2952  1.8759
 5875TIP3    H239185   4.884   1.488   7.391  0.4450 -1.2701 -0.5636
 5876TIP3   OH239186   4.992   1.969   8.520 -0.1827  0.3386  0.5662
 5876TIP3    H139187   4.975   2.047   8.467  0.2326  0.0416 -0.0262
 5876TIP3    H239188   5.066   1.927   8.476  0.4791  0.3305  1.6665
 5877TIP3   OH239189   1.979   2.181   1.573  0.4286 -0.6499 -0.4038
 5877TIP3    H139190   2.065   2.206   1.539  1.2758  0.6894  2.4758
 5877TIP3    H239191   1.996   2.108   1.632 -0.0145  0.9844  1.8628
 5878TIP3   OH239192   1.819   6.571   8.419  0.2947  0.1427  0.5354
 5878TIP3    H139193   1.769   6.499   8.458 -0.9692 -0.7333 -2.4228
 5878TIP3    H239194   1.757   6.644   8.418  0.2466  0.0944 -0.0077
 5879TIP3   OH239195   1.747   6.329   8.805 -0.2216  0.3401 -0.1716
 5879TIP3    H139196   1.796   6.411   8.812  2.9603 -1.0275 -3.0316
 5879TIP3    H239197   1.721   6.325   8.713 -1.5363 -1.2402  0.2287
 5880TIP3   OH239198   1.785   2.194   0.010 -0.4894  0.2453 -0.3779
 5880TIP3    H139199   1.871   2.199   0.052  0.4304 -1.8523 -1.8134
 5880TIP3    H239200   1.733   2.140   0.069 -0.9198  1.6636  0.5811
 5881TIP3   OH239201   2.284   2.675   1.480 -0.2005  0.4094  0.6553
 5881TIP3    H139202   2.343   2.739   1.441 -2.2560  0.9019 -1.9526
 5881TIP3    H239203   2.341   2.603   1.506  1.5947  0.8297 -1.7515
 5882TIP3   OH239204   6.735   0.540   0.151 -0.9617 -0.1765 -0.2396
 5882TIP3    H139205   6.773   0.621   0.185 -0.0478 -0.4540 -0.5959
 5882TIP3    H239206   6.643   0.562   0.136 -0.3418  1.4438 -2.2449
 5883TIP3   OH239207   2.925   6.405   7.104  0.9627  0.2699  0.8872
 5883TIP3    H139208   2.929   6.310   7.099  1.0821  0.2905  0.4870
 5883TIP3    H239209   2.837   6.427   7.073  0.6493  0.2489  1.7544
 5884TIP3   OH239210   5.434   3.402   8.585 -0.3591 -0.3407  0.2714
 5884TIP3    H139211   5.467   3.490   8.601 -1.7443  0.4976 -1.1992
 5884TIP3    H239212   5.418   3.399   8.491 -0.4320 -2.1508  0.3016
 5885TIP3   OH239213   4.184   4.563   1.683  0.4258 -0.7450  0.2536
 5885TIP3    H139214   4.233   4.542   1.604  1.1498  0.8520  0.2293
 5885TIP3    H239215   4.241   4.536   1.755 -0.1782 -2.0795  0.2562
 5886TIP3   OH239216   0.058   6.473   1.186 -0.3526 -0.5298 -0.1577
 5886TIP3    H139217   0.106   6.485   1.268  1.1712  0.9073 -1.2084
 5886TIP3    H239218   0.103   6.400   1.142  0.1487  0.0536 -0.6241
 5887TIP3   OH239219   2.173   2.913   2.181 -0.5072 -0.2379 -0.4977
 5887TIP3    H139220   2.175   2.986   2.119 -0.1961  0.5154  0.3926
 5887TIP3    H239221   2.088   2.872   2.165 -2.0875  2.1528  1.0346
 5888TIP3   OH239222   5.731   3.408   7.235 -0.1416 -0.3959 -0.5219
 5888TIP3    H139223   5.743   3.313   7.225 -0.2180 -0.5080  0.3874
 5888TIP3    H239224   5.722   3.421   7.329 -1.3343  0.3770 -0.7325
 5889TIP3   OH239225   6.140   3.790   6.780 -0.3793 -0.7601 -0.9853
 5889TIP3    H139226   6.191   3.787   6.861 -0.2791 -1.2749 -1.0639
 5889TIP3    H239227   6.191   3.845   6.721 -0.9512  0.4588 -0.3631
 5890TIP3   OH239228   0.962   2.278   0.873 -0.2218  0.3240 -0.0408
 5890TIP3    H139229   0.867   2.279   0.859 -0.3192 -0.8389  0.3651
 5890TIP3    H239230   0.972   2.296   0.967 -0.0724  0.0721 -0.0079
 5891TIP3   OH239231   6.630   4.794   8.686  0.1917  1.0702 -0.1090
 5891TIP3    H139232   6.660   4.735   8.754 -0.4807  1.8418  0.8944
 5891TIP3    H239233   6.709   4.817   8.637  0.5589 -0.0982 -0.0903
 5892TIP3   OH239234   3.588   6.338   1.095  0.2339 -0.3216 -0.2702
 5892TIP3    H139235   3.634   6.352   1.012  2.6687 -0.9274  0.8876
 5892TIP3    H239236   3.592   6.423   1.139 -0.9944 -0.0202 -0.6911
 5893TIP3   OH239237   2.508   6.218   0.631 -0.3277  0.2622  0.6096
 5893TIP3    H139238   2.519   6.295   0.575  0.1918 -0.5179 -0.3998
 5893TIP3    H239239   2.414   6.198   0.625 -0.2433  0.0580 -0.1874
 5894TIP3   OH239240   3.920   1.717   0.734  0.3176  0.0834  0.3896
 5894TIP3    H139241   3.968   1.751   0.658  0.3343  0.3230  0.5058
 5894TIP3    H239242   3.982   1.725   0.806  2.0069 -4.2069 -0.2768
 5895TIP3   OH239243   4.430   3.891   7.052  0.1940 -0.3223 -0.0064
 5895TIP3    H139244   4.362   3.839   7.096 -0.1281 -0.3034 -0.4798
 5895TIP3    H239245   4.499   3.827   7.033 -0.1955 -0.5910 -0.5768
 5896TIP3   OH239246   3.176   3.927   0.278  0.4136  0.6479 -0.3727
 5896TIP3    H139247   3.254   3.977   0.302  0.3095  0.6540 -0.0301
 5896TIP3    H239248   3.103   3.985   0.300  0.3174  0.6834 -0.7925
 5897TIP3   OH239249   4.787   5.254   0.627  0.0056  0.7378  0.0522
 5897TIP3    H139250   4.735   5.272   0.706  0.4156 -1.3055  0.8610
 5897TIP3    H239251   4.723   5.257   0.555 -1.6934 -3.1274  1.1615
 5898TIP3   OH239252   5.103   3.248   1.762  0.2978  0.1079 -0.3866
 5898TIP3    H139253   5.067   3.168   1.723 -0.8792  0.2548  0.3466
 5898TIP3    H239254   5.144   3.294   1.688  1.2399 -1.2759 -0.7702
 5899TIP3   OH239255   1.222   4.759   8.139  0.2846  0.5382 -0.6475
 5899TIP3    H139256   1.159   4.813   8.092  1.1251  3.5215  1.3975
 5899TIP3    H239257   1.296   4.817   8.156  1.6764 -1.5338  0.9233
 5900TIP3   OH239258   2.160   5.436   1.094  0.6432 -0.1819  0.1953
 5900TIP3    H139259   2.241   5.388   1.078 -0.3097 -1.0810 -2.5480
 5900TIP3    H239260   2.095   5.369   1.112 -0.1494  0.2214 -1.0162
 5901TIP3   OH239261   1.361   3.649   0.028 -0.2816  0.1588  0.3099
 5901TIP3    H139262   1.399   3.682   0.109 -0.2368 -1.0308  0.7939
 5901TIP3    H239263   1.436   3.634  -0.029 -0.0609 -1.3477  0.9502
 5902TIP3   OH239264   2.437   6.649   1.695  0.2079  0.1619 -0.1900
 5902TIP3    H139265   2.449   6.665   1.788 -0.4165  2.6403 -0.4534
 5902TIP3    H239266   2.427   6.737   1.657  1.5942 -0.7043 -2.7668
 5903TIP3   OH239267   1.315   6.216   1.253  0.2075 -0.4139 -0.6222
 5903TIP3    H139268   1.251   6.192   1.186  0.3914  0.2198 -1.0286
 5903TIP3    H239269   1.284   6.300   1.287  1.1627  0.2116 -1.2617
 5904TIP3   OH239270   2.013   3.556   6.892 -0.3474  0.3526  0.7318
 5904TIP3    H139271   2.017   3.461   6.881  2.2527  0.1852  2.3916
 5904TIP3    H239272   2.103   3.586   6.875 -1.3784  2.7595 -1.2053
 5905TIP3   OH239273   0.735   2.432   0.765 -0.3512 -0.2993  0.2460
 5905TIP3    H139274   0.652   2.478   0.773 -0.7721 -1.2038  1.3483
 5905TIP3    H239275   0.794   2.497   0.726 -1.1598  0.8689  0.8899
 5906TIP3   OH239276   3.740   6.687   6.585 -0.6903  0.3687 -0.3146
 5906TIP3    H139277   3.777   6.706   6.499  1.1138 -0.2775  0.2635
 5906TIP3    H239278   3.754   6.768   6.636 -1.9032  0.8080 -0.6496
 5907TIP3   OH239279   2.154   2.978   1.757  0.2552 -0.4009  0.2468
 5907TIP3    H139280   2.139   3.035   1.833 -0.6958  1.0374 -0.9613
 5907TIP3    H239281   2.101   2.901   1.774 -0.3131  0.1082  0.8553
 5908TIP3   OH239282   5.456   3.519   7.893 -0.3465  0.2398 -0.3152
 5908TIP3    H139283   5.491   3.517   7.982 -1.0898  0.0864 -0.0164
 5908TIP3    H239284   5.364   3.493   7.903  0.0319 -1.6949 -1.3421
 5909TIP3   OH239285   4.739   0.318   7.616  0.2041 -0.5164 -0.3174
 5909TIP3    H139286   4.681   0.332   7.691  0.3420 -0.3603 -0.2365
 5909TIP3    H239287   4.698   0.366   7.545 -0.8657 -2.1090 -0.8283
 5910TIP3   OH239288   0.492   5.622   7.867 -0.9584  0.0328  0.3276
 5910TIP3    H139289   0.412   5.662   7.902 -0.6846  1.2476 -0.3791
 5910TIP3    H239290   0.507   5.666   7.784  1.2870  0.9604  1.1394
 5911TIP3   OH239291   0.378   2.377   7.911  0.1460  0.7230  0.2975
 5911TIP3    H139292   0.398   2.436   7.839  0.6881 -0.9480 -0.9779
 5911TIP3    H239293   0.303   2.325   7.880 -0.0697  0.4521  1.2175
 5912TIP3   OH239294   0.157   4.227   0.825  0.0814  0.5481  0.2904
 5912TIP3    H139295   0.250   4.223   0.848  0.1872 -0.8599 -0.3085
 5912TIP3    H239296   0.152   4.186   0.739 -1.5366 -2.8066  1.7971
 5913TIP3   OH239297   0.270   1.029   2.198 -0.2295  0.0776  0.0777
 5913TIP3    H139298   0.326   1.104   2.218 -1.1553  0.4791  1.2370
 5913TIP3    H239299   0.311   0.956   2.244  0.7487 -0.1985 -1.1612
 5914TIP3   OH239300   2.210   6.236   0.850 -0.1260  0.3178 -0.2716
 5914TIP3    H139301   2.274   6.272   0.789  0.4764  0.4907  0.4521
 5914TIP3    H239302   2.251   6.243   0.936  0.0170 -2.0459 -0.0650
 5915TIP3   OH239303   4.438   3.213   0.097  0.3091 -0.2762  0.0999
 5915TIP3    H139304   4.481   3.154   0.159 -0.2827  0.8861  1.6858
 5915TIP3    H239305   4.346   3.215   0.126  0.3643  1.5989  0.2908
 5916TIP3   OH239306   3.572   5.367   8.640 -0.5572 -0.3549  0.4035
 5916TIP3    H139307   3.544   5.281   8.609  0.8104  0.1013 -2.4147
 5916TIP3    H239308   3.515   5.429   8.595 -1.2164  0.2928  2.0441
 5917TIP3   OH239309   2.413   2.422   1.474  0.4224 -0.0979 -0.6489
 5917TIP3    H139310   2.431   2.328   1.464 -0.3487 -0.2984 -0.2771
 5917TIP3    H239311   2.497   2.464   1.458  0.7923 -0.8563 -0.7840
 5918TIP3   OH239312   5.212   1.347   7.632  0.1390  0.1382  0.1499
 5918TIP3    H139313   5.253   1.261   7.618 -3.3846 -1.5980 -0.6987
 5918TIP3    H239314   5.186   1.347   7.724 -0.0863  0.1750  0.0871
 5919TIP3   OH239315   4.080   5.787   0.958  0.1376 -0.5817  0.7991
 5919TIP3    H139316   3.995   5.804   0.996 -1.3401 -1.3560 -1.8878
 5919TIP3    H239317   4.099   5.696   0.980 -1.0009 -1.2238 -0.6502
 5920TIP3   OH239318   3.564   3.902   7.734  0.3196 -0.3697 -0.1475
 5920TIP3    H139319   3.496   3.929   7.796  0.4986 -1.1281  0.4060
 5920TIP3    H239320   3.646   3.912   7.783  0.5992  0.4541 -0.7780
 5921TIP3   OH239321   3.080   5.432   7.687  0.6293 -0.0902 -0.3830
 5921TIP3    H139322   3.031   5.440   7.605  1.7170  1.5534 -0.9039
 5921TIP3    H239323   3.090   5.522   7.718 -0.3967 -0.7146  1.9698
 5922TIP3   OH239324   0.102   5.860   0.477  0.5284 -0.6828  0.6519
 5922TIP3    H139325   0.076   5.941   0.521  3.4604  0.5905  0.2611
 5922TIP3    H239326   0.030   5.841   0.417  0.0642  2.0428  0.2372
 5923TIP3   OH239327   5.012   0.399   2.300  0.7510 -0.4612  0.1003
 5923TIP3    H139328   4.924   0.361   2.307 -0.0192  1.0958 -0.5980
 5923TIP3    H239329   5.070   0.331   2.333 -0.8383 -0.9821  2.0567
 5924TIP3   OH239330   0.690   5.971   0.665 -0.2619  0.6786  0.0092
 5924TIP3    H139331   0.651   5.973   0.753  0.1569 -1.9968  0.3522
 5924TIP3    H239332   0.663   5.886   0.629  3.4663 -0.5053 -0.4819
 5925TIP3   OH239333   2.408   4.059   1.871 -0.2989 -0.2659 -0.2778
 5925TIP3    H139334   2.362   4.020   1.797 -3.1464  1.8019  0.2452
 5925TIP3    H239335   2.374   4.014   1.948  0.0502 -0.0328  0.0193
 5926TIP3   OH239336   1.158   3.074   7.194  0.0798  0.0310 -0.3331
 5926TIP3    H139337   1.238   3.049   7.149 -0.1399  0.7342 -1.1356
 5926TIP3    H239338   1.141   3.002   7.255  1.8057  0.2629  0.5030
 5927TIP3   OH239339   3.401   0.011   8.530 -0.0348  0.1191 -0.4932
 5927TIP3    H139340   3.474   0.072   8.524  0.6092 -0.5493  0.2598
 5927TIP3    H239341   3.328   0.064   8.561  0.8532  0.2645  1.4572
 5928TIP3   OH239342   6.675   3.549   1.573 -0.0696  0.7843  0.6019
 5928TIP3    H139343   6.770   3.556   1.570  0.3197 -2.6707 -0.0891
 5928TIP3    H239344   6.647   3.559   1.481  0.0081 -0.8428  0.3608
 5929TIP3   OH239345   3.761   1.819   1.875 -0.4365 -0.2284 -0.0671
 5929TIP3    H139346   3.792   1.794   1.788 -0.3391 -1.7967  0.3885
 5929TIP3    H239347   3.841   1.840   1.923 -0.5642  2.1663 -0.7314
 5930TIP3   OH239348   1.053   1.157   0.178 -0.3205  0.5011  0.1629
 5930TIP3    H139349   0.998   1.197   0.111 -0.1092  0.8842  0.2096
 5930TIP3    H239350   1.114   1.227   0.204 -0.8634  0.5948  1.2604
 5931TIP3   OH239351   4.782   2.499   1.604  0.3321 -0.0181 -0.7465
 5931TIP3    H139352   4.759   2.432   1.668 -0.3058  0.0414 -0.9038
 5931TIP3    H239353   4.817   2.571   1.657  0.7687 -0.3669 -0.5558
 5932TIP3   OH239354   0.376   5.569   0.815  0.1047  0.1195 -0.2945
 5932TIP3    H139355   0.341   5.649   0.855 -1.2259 -0.7734  0.3993
 5932TIP3    H239356   0.365   5.582   0.721 -2.9683 -0.4358 -0.1039
 5933TIP3   OH239357   2.268   5.179   1.992  0.0812 -0.1708  0.1604
 5933TIP3    H139358   2.351   5.223   2.011 -0.3544  0.3832  0.8755
 5933TIP3    H239359   2.272   5.098   2.043 -0.0638  0.1540  0.7041
 5934TIP3   OH239360   4.118   6.361   0.745  0.7863  0.1489  0.4628
 5934TIP3    H139361   4.070   6.434   0.708  0.6660 -0.0938  0.1375
 5934TIP3    H239362   4.070   6.340   0.826  0.8892  0.4977  0.6157
 5935TIP3   OH239363   5.769   5.275   2.408 -0.2063 -0.1636 -0.3985
 5935TIP3    H139364   5.746   5.259   2.500  0.5028 -0.6153 -0.2827
 5935TIP3    H239365   5.702   5.335   2.376 -0.1273  0.4855  0.5918
 5936TIP3   OH239366   5.770   6.747   2.003  0.0574 -0.1466 -0.3658
 5936TIP3    H139367   5.683   6.780   2.025  0.2729  0.2178 -0.0354
 5936TIP3    H239368   5.823   6.763   2.082  0.4127 -0.4049 -0.5444
 5937TIP3   OH239369   5.259   2.245   0.481  0.6574  0.0629 -0.5999
 5937TIP3    H139370   5.285   2.225   0.391  0.0818  0.4756 -0.8695
 5937TIP3    H239371   5.196   2.317   0.472 -1.5059 -1.6527 -0.0917
 5938TIP3   OH239372   4.784   3.990   2.033 -0.3435  0.0886 -0.0871
 5938TIP3    H139373   4.800   3.896   2.036 -0.9476 -0.0200 -0.1684
 5938TIP3    H239374   4.841   4.027   2.101  2.3676  0.0321 -2.1681
 5939TIP3   OH239375   5.029   2.839   1.780  0.5027 -0.2220  0.5865
 5939TIP3    H139376   5.086   2.842   1.857  1.1450 -0.7504  0.1447
 5939TIP3    H239377   4.961   2.777   1.804 -0.1398  0.7319  1.2774
 5940TIP3   OH239378   2.280   1.955   1.565  0.4279  0.0805 -0.0037
 5940TIP3    H139379   2.218   2.006   1.616 -1.5100 -1.2647 -0.8594
 5940TIP3    H239380   2.331   2.020   1.517 -1.8093  1.2956 -0.9255
 5941TIP3   OH239381   0.741   1.078   0.591 -0.5189  0.1920 -0.1049
 5941TIP3    H139382   0.692   1.020   0.533  1.5550 -2.2222  0.3579
 5941TIP3    H239383   0.832   1.048   0.583  0.0571  0.5954  3.3457
 5942TIP3   OH239384   5.123   0.442   8.690  0.1509  0.6101 -0.0834
 5942TIP3    H139385   5.146   0.387   8.615  1.1637  0.3911  0.3655
 5942TIP3    H239386   5.049   0.396   8.731 -0.3023  0.6484 -0.8477
 5943TIP3   OH239387   6.061   2.197   1.299 -0.1973  0.2065 -0.3829
 5943TIP3    H139388   6.120   2.126   1.272 -0.7314 -0.2964 -0.2442
 5943TIP3    H239389   6.071   2.263   1.231  1.5907  0.7660  0.3432
 5944TIP3   OH239390   3.585   2.260   7.422  0.3192 -0.0815 -0.3349
 5944TIP3    H139391   3.638   2.252   7.501  1.4917  3.1683 -0.6302
 5944TIP3    H239392   3.628   2.204   7.358  0.0126 -1.8736  0.9461
 5945TIP3   OH239393   1.371   2.438   7.014 -0.1869 -0.1440 -0.3074
 5945TIP3    H139394   1.336   2.521   7.044  1.5452  1.0674 -1.4776
 5945TIP3    H239395   1.426   2.408   7.087  0.4176  0.5310 -0.4743
 5946TIP3   OH239396   6.407   0.952   7.369 -0.4625 -0.2552 -0.2845
 5946TIP3    H139397   6.451   0.870   7.345 -1.1463 -1.1011  1.1911
 5946TIP3    H239398   6.349   0.971   7.295 -2.9280 -3.0695  0.7067
 5947TIP3   OH239399   6.008   3.235   2.425 -0.2506  0.4553  0.2783
 5947TIP3    H139400   6.098   3.268   2.424  0.3651 -1.1421 -0.9248
 5947TIP3    H239401   6.007   3.170   2.495  0.4301 -1.6788 -1.5679
 5948TIP3   OH239402   2.951   2.384   1.316 -0.2858 -0.3535  0.3383
 5948TIP3    H139403   2.994   2.401   1.232 -0.5664 -0.0077  0.2662
 5948TIP3    H239404   3.023   2.384   1.380 -0.1724  0.1779  0.2139
 5949TIP3   OH239405   3.535   4.555   8.229  0.2811  0.6162 -0.9686
 5949TIP3    H139406   3.531   4.594   8.142 -0.7970  0.0096 -1.2024
 5949TIP3    H239407   3.482   4.613   8.284 -0.4975  0.0465 -1.1041
 5950TIP3   OH239408   4.952   5.896   8.537 -0.1135  0.2276  0.1337
 5950TIP3    H139409   4.953   5.911   8.632  1.0736 -0.8502  0.3127
 5950TIP3    H239410   4.900   5.969   8.502  0.9773  1.6986  1.4218
 5951TIP3   OH239411   1.129   4.166   7.981  0.0301  0.0475 -0.0521
 5951TIP3    H139412   1.154   4.166   8.073  0.5303  0.4947 -0.1863
 5951TIP3    H239413   1.210   4.152   7.933 -0.0379  0.9402 -0.4623
 5952TIP3   OH239414   2.288   0.856   1.071 -0.7192 -0.8453  0.6142
 5952TIP3    H139415   2.197   0.832   1.054 -1.2539  1.0392  0.6626
 5952TIP3    H239416   2.331   0.847   0.986 -1.9433  2.2750 -0.4824
 5953TIP3   OH239417   4.581   2.144   0.002  0.0460 -0.3908  0.4077
 5953TIP3    H139418   4.526   2.104  -0.065 -0.0731  2.0420 -1.0548
 5953TIP3    H239419   4.660   2.090   0.003 -1.0337 -2.0584  0.2938
 5954TIP3   OH239420   5.820   5.332   0.141  0.6303 -0.5937 -0.0175
 5954TIP3    H139421   5.777   5.414   0.115 -1.3255 -1.0449  1.5283
 5954TIP3    H239422   5.857   5.351   0.227  0.5104 -1.2194  0.1765
 5955TIP3   OH239423   0.562   6.146   7.586 -0.4532 -0.2265 -0.4017
 5955TIP3    H139424   0.529   6.234   7.571 -0.2209  0.2797  1.6958
 5955TIP3    H239425   0.495   6.089   7.548 -0.5457  0.8243 -1.8900
 5956TIP3   OH239426   0.098   1.100   8.567 -0.3039  0.6266  0.6157
 5956TIP3    H139427   0.141   1.017   8.587 -2.9008 -0.9182  0.1498
 5956TIP3    H239428   0.072   1.093   8.475 -0.3451  2.0862  0.4868
 5957TIP3   OH239429   0.749   1.445   6.646 -0.5139  0.3435  0.0429
 5957TIP3    H139430   0.841   1.460   6.667 -0.6408 -0.0642  0.9549
 5957TIP3    H239431   0.701   1.507   6.701 -0.8396 -0.4018  0.6094
 5958TIP3   OH239432   3.756   3.093   6.813  0.1487 -0.1158 -0.1324
 5958TIP3    H139433   3.696   3.039   6.762 -0.3806 -0.4888  0.8476
 5958TIP3    H239434   3.796   3.031   6.875  1.7562  0.0682 -0.9313
 5959TIP3   OH239435   0.902   6.215   8.682  0.0836  0.4541 -0.1040
 5959TIP3    H139436   0.971   6.174   8.630 -0.0644 -0.8264  0.6757
 5959TIP3    H239437   0.949   6.263   8.751  0.2208 -0.4908  0.4810
 5960TIP3   OH239438   1.405   4.992   7.632  0.4942 -0.4344 -0.0906
 5960TIP3    H139439   1.333   4.933   7.657  1.6283 -1.6041  0.6131
 5960TIP3    H239440   1.414   4.981   7.538 -1.4186  1.1455 -0.5025
 5961TIP3   OH239441   0.056   6.655   0.752  0.5535 -0.6000 -0.0967
 5961TIP3    H139442   0.066   6.566   0.786  1.1809 -0.1607  0.8980
 5961TIP3    H239443   0.073   6.712   0.827 -0.5902  0.3615 -0.5395
 5962TIP3   OH239444   2.106   2.448   0.151  0.7217 -0.1393  0.3971
 5962TIP3    H139445   2.029   2.483   0.106 -0.3493 -1.9595  0.7513
 5962TIP3    H239446   2.154   2.526   0.179  0.3986  1.0585 -2.0961
 5963TIP3   OH239447   3.649   1.462   1.877 -0.3235 -0.4707  0.3732
 5963TIP3    H139448   3.676   1.496   1.791  2.7315 -0.5896  1.1775
 5963TIP3    H239449   3.695   1.379   1.885 -1.9380 -1.2996  1.4772
 5964TIP3   OH239450   4.750   5.831   0.736 -0.4161  0.3677  0.1311
 5964TIP3    H139451   4.841   5.801   0.740 -0.2028  0.7057 -1.3918
 5964TIP3    H239452   4.731   5.864   0.824  0.7518 -0.1922  0.6145
 5965TIP3   OH239453   1.796   5.495   8.069  0.4819 -0.4804 -0.4443
 5965TIP3    H139454   1.720   5.547   8.093  1.0370 -1.0235  2.8621
 5965TIP3    H239455   1.761   5.425   8.013 -1.1917  0.1005 -0.1622
 5966TIP3   OH239456   2.064   2.665   0.397  0.2730  0.2729  0.2332
 5966TIP3    H139457   2.144   2.707   0.365 -0.0072  1.2862  0.8258
 5966TIP3    H239458   2.095   2.589   0.446  0.7833 -0.3050 -0.9608
 5967TIP3   OH239459   0.089   2.651   0.288 -0.4603 -0.0088  0.2300
 5967TIP3    H139460   0.057   2.565   0.315  0.5718 -0.0250  1.5119
 5967TIP3    H239461   0.064   2.658   0.196 -3.3644 -0.3363  0.9037
 5968TIP3   OH239462   6.055   3.028   2.212  0.4921 -0.3133 -0.2034
 5968TIP3    H139463   6.141   3.053   2.244  1.2354 -1.0358 -1.5432
 5968TIP3    H239464   6.028   2.955   2.269  1.4659 -1.0948 -0.7144
 5969TIP3   OH239465   1.481   4.301   6.766 -0.0332 -0.1171  0.1784
 5969TIP3    H139466   1.567   4.260   6.773 -0.4196 -0.9264  0.2830
 5969TIP3    H239467   1.478   4.336   6.677  0.4513  0.0368  0.2189
 5970TIP3   OH239468   6.627   1.719   0.148  0.4355  0.0681 -0.0478
 5970TIP3    H139469   6.600   1.779   0.079 -2.8559 -2.0665 -0.8702
 5970TIP3    H239470   6.615   1.768   0.229 -1.7870  0.7315 -0.7047
 5971TIP3   OH239471   5.520   5.149   0.828 -0.5375  0.1191 -0.1399
 5971TIP3    H139472   5.500   5.228   0.878 -0.4637 -0.5529  0.9842
 5971TIP3    H239473   5.480   5.078   0.878  0.9410 -0.7554 -0.1534
 5972TIP3   OH239474   0.291   2.471   0.660  0.7850  0.6527 -0.2695
 5972TIP3    H139475   0.210   2.421   0.655  1.1245  0.1985 -1.4826
 5972TIP3    H239476   0.284   2.519   0.743 -0.5583  0.3634 -0.1883
 5973TIP3   OH239477   4.165   3.179   0.107  0.7671 -0.9669  0.3262
 5973TIP3    H139478   4.075   3.210   0.120  1.2817  0.4541  0.7018
 5973TIP3    H239479   4.189   3.211   0.020  1.0373 -1.0299  0.3769
 5974TIP3   OH239480   6.281   6.453   1.810  0.0863  0.3792  0.4666
 5974TIP3    H139481   6.200   6.466   1.760 -0.5180  0.3130  1.4150
 5974TIP3    H239482   6.259   6.480   1.899  1.2307  0.7502  0.6499
 5975TIP3   OH239483   2.761   2.936   7.623  0.1139  0.3354 -0.0620
 5975TIP3    H139484   2.800   2.924   7.537  0.3263 -1.3558  0.2462
 5975TIP3    H239485   2.667   2.942   7.607  0.1657  0.2189 -0.4129
 5976TIP3   OH239486   4.509   1.029   7.631  0.1035  0.5634 -0.3602
 5976TIP3    H139487   4.571   1.100   7.646 -0.0691  0.5108  0.6218
 5976TIP3    H239488   4.527   0.966   7.700 -0.6103  0.2484 -0.4517
 5977TIP3   OH239489   3.398   4.428   0.331  0.3395  0.2617 -0.4700
 5977TIP3    H139490   3.365   4.415   0.420  2.7150  1.9074  0.7451
 5977TIP3    H239491   3.392   4.341   0.290  1.7411 -1.2422  2.2377
 5978TIP3   OH239492   2.998   3.703   1.462 -0.1747  0.6103  0.7448
 5978TIP3    H139493   3.035   3.616   1.470  1.2194  1.2054  1.0011
 5978TIP3    H239494   3.023   3.748   1.543 -3.0011  0.5239  1.7794
 5979TIP3   OH239495   5.865   4.193   8.326 -0.0346 -0.0556 -0.1784
 5979TIP3    H139496   5.785   4.214   8.278 -0.3507 -1.3819 -0.2443
 5979TIP3    H239497   5.913   4.133   8.268  0.6875  0.1810  0.1597
 5980TIP3   OH239498   3.376   0.843   7.590  0.3066 -0.3752 -0.1554
 5980TIP3    H139499   3.339   0.772   7.538  0.8175 -0.2507 -0.7155
 5980TIP3    H239500   3.412   0.801   7.668  0.7321 -0.7516 -0.5529
 5981TIP3   OH239501   6.689   0.461   1.850 -0.2989 -0.3468  0.1499
 5981TIP3    H139502   6.723   0.468   1.939 -0.4035 -1.8970  0.3479
 5981TIP3    H239503   6.671   0.551   1.824  0.4170  0.1951  1.4224
 5982TIP3   OH239504   5.680   0.127   6.567 -0.2798 -0.0284  0.4582
 5982TIP3    H139505   5.651   0.039   6.589  3.3608 -1.7064 -0.7018
 5982TIP3    H239506   5.663   0.178   6.646 -2.4841 -1.7344  1.1703
 5983TIP3   OH239507   3.670   6.282   8.631 -0.5471  0.2326 -0.1884
 5983TIP3    H139508   3.717   6.275   8.548 -2.0984  0.6063 -1.1304
 5983TIP3    H239509   3.624   6.366   8.625 -0.1599  0.5958  1.3557
 5984TIP3   OH239510   2.642   0.938   6.529 -0.0197 -0.3297  0.2663
 5984TIP3    H139511   2.561   0.888   6.531 -0.6922  0.6787 -0.5316
 5984TIP3    H239512   2.616   1.025   6.498  1.7061 -0.6478 -2.3606
 5985TIP3   OH239513   5.852   2.497   8.796  0.3179  0.1899 -0.1165
 5985TIP3    H139514   5.946   2.479   8.801  0.5128  0.5861 -1.8033
 5985TIP3    H239515   5.844   2.560   8.725 -1.1819  0.5902  0.3864
 5986TIP3   OH239516   5.583   3.233   7.707  0.3976  0.4854 -0.2821
 5986TIP3    H139517   5.568   3.192   7.792  2.7804 -2.1793 -0.9975
 5986TIP3    H239518   5.651   3.299   7.723  0.9836 -0.1486 -0.1352
 5987TIP3   OH239519   1.339   3.820   0.538  0.3081 -0.3379 -0.3460
 5987TIP3    H139520   1.297   3.904   0.521 -1.6122 -0.9955  0.8764
 5987TIP3    H239521   1.420   3.842   0.585 -0.1894  0.8146 -0.0194
 5988TIP3   OH239522   2.835   3.182   7.768  0.0834 -0.4755  0.4449
 5988TIP3    H139523   2.815   3.092   7.741 -2.0272  0.7306 -2.5228
 5988TIP3    H239524   2.906   3.209   7.710  1.4199 -0.4705  2.0140
 5989TIP3   OH239525   5.085   6.345   8.576 -0.1643 -0.0807 -0.5641
 5989TIP3    H139526   4.994   6.356   8.602 -0.3912 -1.8015 -0.5324
 5989TIP3    H239527   5.082   6.327   8.482  0.3190  1.6748 -0.9601
 5990TIP3   OH239528   3.641   6.377   7.550  0.2288 -0.0874 -0.2767
 5990TIP3    H139529   3.675   6.358   7.637  0.9667 -2.2557 -0.9787
 5990TIP3    H239530   3.546   6.375   7.561  0.3041 -1.3388  0.3160
 5991TIP3   OH239531   6.455   1.936   8.308  0.6132 -0.4011  0.0152
 5991TIP3    H139532   6.409   1.903   8.385 -1.0496  0.6469 -0.4458
 5991TIP3    H239533   6.409   2.018   8.287  1.6462 -0.1667 -1.5009
 5992TIP3   OH239534   1.954   3.079   0.929 -0.0796  0.3058  0.0931
 5992TIP3    H139535   1.999   3.002   0.895 -0.3369  0.1862  0.0238
 5992TIP3    H239536   1.953   3.067   1.024  0.7848  0.7177  0.1700
 5993TIP3   OH239537   0.666   5.303   0.906  0.4871  0.0003  0.6501
 5993TIP3    H139538   0.682   5.394   0.879  1.8322 -0.7098 -1.1343
 5993TIP3    H239539   0.572   5.300   0.922  0.2403  1.4646 -0.2603
 5994TIP3   OH239540   0.430   1.197   8.309  0.7084 -1.2115  0.1545
 5994TIP3    H139541   0.416   1.106   8.283  1.3077 -1.2490 -0.0538
 5994TIP3    H239542   0.497   1.193   8.377 -0.0593 -1.0145  0.9277
 5995TIP3   OH239543   4.071   6.046   0.239  0.0984  0.1729 -0.4619
 5995TIP3    H139544   4.032   6.122   0.196 -2.4740  0.1725  1.6117
 5995TIP3    H239545   4.067   6.067   0.332 -1.5359 -2.8013  0.2457
 5996TIP3   OH239546   6.615   3.493   8.038 -0.5936  0.2207  0.2228
 5996TIP3    H139547   6.699   3.532   8.015 -0.9285  1.0709  0.4019
 5996TIP3    H239548   6.631   3.399   8.039 -0.0465  0.2596 -1.4325
 5997TIP3   OH239549   2.562   1.794   6.810  0.3928  0.8264  0.0386
 5997TIP3    H139550   2.588   1.797   6.718  1.0209 -0.0086  0.1779
 5997TIP3    H239551   2.643   1.775   6.858 -0.1742 -0.2195  0.6202
 5998TIP3   OH239552   0.191   3.229   0.546  0.3955  0.0067 -0.1255
 5998TIP3    H139553   0.281   3.219   0.514  0.7993 -0.9030  1.2264
 5998TIP3    H239554   0.174   3.323   0.539  2.0398  0.4451  1.0858
 5999TIP3   OH239555   5.990   3.651   8.587  0.5034  0.2689  0.3791
 5999TIP3    H139556   6.064   3.675   8.643  3.0052  0.1491 -2.5447
 5999TIP3    H239557   5.971   3.560   8.608  1.1468  0.3314  1.2692
 6000TIP3   OH239558   4.994   5.138   7.229  0.0679  0.0323  0.2900
 6000TIP3    H139559   4.989   5.166   7.320  0.7370  1.5381 -0.1140
 6000TIP3    H239560   5.084   5.107   7.218 -0.5419 -2.0576  0.6226
 6001TIP3   OH239561   4.958   1.883   8.209  0.3962  0.0473  0.1901
 6001TIP3    H139562   4.985   1.807   8.158  0.4903 -0.0526  0.3896
 6001TIP3    H239563   5.036   1.939   8.211  0.1939  0.3530 -0.3297
 6002TIP3   OH239564   2.780   1.671   6.947 -0.7082  0.3160 -0.3343
 6002TIP3    H139565   2.748   1.581   6.944  0.8124 -0.2823  0.4540
 6002TIP3    H239566   2.820   1.685   6.861  1.0426 -0.5648  0.2980
 6003TIP3   OH239567   5.074   0.362   2.797 -0.2293  0.2852 -0.1995
 6003TIP3    H139568   5.119   0.283   2.826 -1.3023 -0.6883 -1.0714
 6003TIP3    H239569   5.042   0.340   2.709 -1.9424  1.0929  0.1761
 6004TIP3   OH239570   2.847   1.568   7.532  0.2498  0.1119 -0.2354
 6004TIP3    H139571   2.901   1.491   7.551 -0.0124  0.2838  1.3461
 6004TIP3    H239572   2.760   1.545   7.564 -0.7276 -0.2209 -2.8847
 6005TIP3   OH239573   4.292   5.190   1.293 -0.0303 -0.2047  0.6783
 6005TIP3    H139574   4.322   5.105   1.260  2.8801  0.9211  0.1040
 6005TIP3    H239575   4.341   5.201   1.375 -0.4342  0.8859  0.7829
 6006TIP3   OH239576   6.338   3.976   0.600  0.1282 -0.8570 -0.0546
 6006TIP3    H139577   6.330   4.071   0.590 -0.5784 -1.0227 -1.2212
 6006TIP3    H239578   6.248   3.946   0.615  0.2510 -1.4041 -0.3875
 6007TIP3   OH239579   1.353   6.644   7.153  0.0851 -0.4235  0.0724
 6007TIP3    H139580   1.317   6.580   7.091 -0.7304  0.7185 -0.6709
 6007TIP3    H239581   1.316   6.619   7.238  0.5842 -1.5276 -0.0175
 6008TIP3   OH239582   6.614   2.176   7.726 -0.2809  0.2524 -0.4698
 6008TIP3    H139583   6.530   2.170   7.681 -1.0744 -1.7209  1.0842
 6008TIP3    H239584   6.591   2.191   7.818  1.0635  0.0336 -0.0676
 6009TIP3   OH239585   5.277   2.111   0.981 -0.3823 -0.3541 -0.2730
 6009TIP3    H139586   5.271   2.143   1.072  1.5600  2.1942 -0.9291
 6009TIP3    H239587   5.334   2.174   0.937 -1.4478 -1.3666 -3.3757
 6010TIP3   OH239588   3.325   1.271   7.675  0.2309  0.1830 -0.1547
 6010TIP3    H139589   3.274   1.195   7.701 -0.1875 -0.4229 -2.5402
 6010TIP3    H239590   3.381   1.289   7.751 -1.2939 -1.0359  1.3450
 6011TIP3   OH239591   4.780   3.356   7.936  0.3136  0.2485 -0.2502
 6011TIP3    H139592   4.770   3.274   7.983  1.2331  0.1238 -0.2509
 6011TIP3    H239593   4.793   3.331   7.844 -3.2325  0.5372 -0.9707
 6012TIP3   OH239594   0.631   4.004   7.866 -0.0586 -0.6249 -0.1746
 6012TIP3    H139595   0.707   4.061   7.875 -0.8495  0.3172  0.7171
 6012TIP3    H239596   0.606   4.013   7.774 -0.5195  0.9648  0.0743
 6013TIP3   OH239597   3.850   2.628   1.176 -0.2487 -0.2665 -0.2697
 6013TIP3    H139598   3.823   2.569   1.247 -0.6358  0.1660 -0.0465
 6013TIP3    H239599   3.921   2.680   1.214 -1.6007  1.1814  0.4317
 6014TIP3   OH239600   0.726   3.661   7.446 -0.5924  0.4847  0.2087
 6014TIP3    H139601   0.736   3.601   7.520 -1.9609  0.4764  0.4018
 6014TIP3    H239602   0.752   3.609   7.370  0.8336  0.4940  0.6490
 6015TIP3   OH239603   4.035   5.394   7.880  0.5711 -0.1479 -0.0599
 6015TIP3    H139604   4.073   5.472   7.920  1.0623 -0.4665  0.1136
 6015TIP3    H239605   4.057   5.401   7.787 -1.8868  1.3645 -0.6194
 6016TIP3   OH239606   0.580   0.268   8.070 -0.0904 -0.2726  0.1333
 6016TIP3    H139607   0.490   0.272   8.102 -0.0492 -0.9543  0.3535
 6016TIP3    H239608   0.606   0.177   8.083 -0.4860 -0.9632 -2.9721
 6017TIP3   OH239609   3.235   1.639   8.846 -0.0889 -0.1107 -0.4445
 6017TIP3    H139610   3.172   1.710   8.835 -0.8775 -0.5824  0.7947
 6017TIP3    H239611   3.311   1.680   8.888 -0.7670 -0.0753  0.7994
 6018TIP3   OH239612   1.478   5.914   8.161  0.1311  0.2921 -0.0029
 6018TIP3    H139613   1.468   6.009   8.155 -0.5595  0.1595 -1.1553
 6018TIP3    H239614   1.556   5.895   8.109 -0.0173  0.1801 -0.1846
 6019TIP3   OH239615   4.365   1.194   1.430 -0.4842 -0.7766 -0.2452
 6019TIP3    H139616   4.302   1.199   1.358  0.0160  0.6037 -0.6147
 6019TIP3    H239617   4.333   1.257   1.494  1.1179  0.8324 -0.9544
 6020TIP3   OH239618   2.547   1.005   7.476 -0.3271  0.0233 -0.2103
 6020TIP3    H139619   2.623   0.950   7.497 -0.8754 -0.0039  1.9413
 6020TIP3    H239620   2.472   0.955   7.509 -1.2015  0.4854 -1.4331
 6021TIP3   OH239621   2.386   5.396   1.330  0.8004 -0.3558 -0.3996
 6021TIP3    H139622   2.407   5.458   1.399  2.9788 -1.6128  0.1737
 6021TIP3    H239623   2.412   5.311   1.365 -1.2379 -1.5375 -1.4939
 6022TIP3   OH239624   6.199   4.131   1.132  0.7592 -0.2352 -0.0208
 6022TIP3    H139625   6.280   4.081   1.143 -0.3895 -1.6803  2.6897
 6022TIP3    H239626   6.154   4.123   1.216 -1.9425  1.0307 -1.2378
 6023TIP3   OH239627   4.209   1.657   0.351  0.5244  0.4527  0.3441
 6023TIP3    H139628   4.256   1.586   0.396 -0.8204 -1.1640 -0.6807
 6023TIP3    H239629   4.278   1.717   0.322  1.6054  0.2303  2.2893
 6024TIP3   OH239630   4.262   2.638   0.916  0.1873 -0.1152 -0.0057
 6024TIP3    H139631   4.204   2.715   0.910 -0.6466 -0.8431 -1.8662
 6024TIP3    H239632   4.272   2.608   0.826  0.3945 -2.2810  0.6798
 6025TIP3   OH239633   2.925   3.526   8.626 -0.0953  0.9768  0.4661
 6025TIP3    H139634   2.898   3.499   8.714 -1.5378 -0.7538 -0.4127
 6025TIP3    H239635   2.890   3.614   8.616 -0.2747  1.0340  1.4801
 6026TIP3   OH239636   4.165   3.515   2.314  0.0672  0.8467  0.0072
 6026TIP3    H139637   4.071   3.497   2.317  0.3768 -0.9068  0.1653
 6026TIP3    H239638   4.197   3.466   2.238  1.3811 -1.5983  1.9719
 6027TIP3   OH239639   3.576   0.466   8.369 -0.1333  0.1296 -0.1834
 6027TIP3    H139640   3.643   0.513   8.319 -1.0422 -0.1000 -1.6878
 6027TIP3    H239641   3.580   0.504   8.456  2.8399 -0.7667  0.2099
 6028TIP3   OH239642   6.554   4.967   1.682 -0.9086  0.1707  0.1672
 6028TIP3    H139643   6.550   5.012   1.597 -2.5080  0.8994  0.5834
 6028TIP3    H239644   6.517   5.030   1.744 -0.4533 -0.6376  1.2884
 6029TIP3   OH239645   4.614   0.484   8.171  0.3255  0.2048  0.6211
 6029TIP3    H139646   4.543   0.549   8.165 -1.0268 -1.3475 -1.3483
 6029TIP3    H239647   4.574   0.410   8.218  1.0530 -0.1746  0.6499
 6030TIP3   OH239648   4.000   0.090   1.045 -0.2177 -0.1036  0.1522
 6030TIP3    H139649   4.055   0.095   0.967  0.5028  1.0692  0.7005
 6030TIP3    H239650   4.050   0.035   1.105 -0.8522 -1.1495 -0.2576
 6031TIP3   OH239651   5.703   6.261   7.702 -0.3256  0.4981  0.0349
 6031TIP3    H139652   5.640   6.233   7.769 -0.7367  0.5108 -0.3423
 6031TIP3    H239653   5.665   6.341   7.666 -1.1166 -0.5389 -1.5660
 6032TIP3   OH239654   1.119   3.400   0.547  0.0744  0.3533  0.2521
 6032TIP3    H139655   1.194   3.379   0.603  1.7819 -0.5488 -2.1851
 6032TIP3    H239656   1.152   3.389   0.458 -2.7673  0.7292 -0.9570
 6033TIP3   OH239657   3.833   4.198   7.206 -0.1523 -0.0136 -0.0548
 6033TIP3    H139658   3.753   4.148   7.222 -1.0040  1.4880  0.6408
 6033TIP3    H239659   3.841   4.202   7.111 -2.3389  1.9068 -0.2303
 6034TIP3   OH239660   0.824   1.340   8.710  1.0327  0.5124 -0.4114
 6034TIP3    H139661   0.756   1.386   8.661  1.5606  0.7121 -0.9821
 6034TIP3    H239662   0.779   1.270   8.756  0.5545  0.1313 -1.4328
 6035TIP3   OH239663   0.857   3.373   8.114 -0.0740  0.5335 -0.5697
 6035TIP3    H139664   0.862   3.458   8.158 -0.1680  0.8240 -1.1065
 6035TIP3    H239665   0.843   3.310   8.185 -0.8495  1.0577 -0.2404
 6036TIP3   OH239666   4.431   5.809   2.361 -0.5874 -0.2843  0.6696
 6036TIP3    H139667   4.434   5.882   2.300  1.8917 -1.6241 -0.9944
 6036TIP3    H239668   4.353   5.760   2.336 -0.4528  0.0368 -0.4350
 6037TIP3   OH239669   0.775   4.118   0.162  0.3326  0.2063  0.0977
 6037TIP3    H139670   0.739   4.190   0.111  1.6263  0.4911 -0.4486
 6037TIP3    H239671   0.787   4.154   0.250 -2.1660 -0.3667  0.7558
 6038TIP3   OH239672   4.928   4.271   1.114  0.4772 -0.2036 -0.0331
 6038TIP3    H139673   4.981   4.350   1.122  0.9391 -0.3857 -1.1113
 6038TIP3    H239674   4.847   4.301   1.073 -0.7106  0.2423  2.4748
 6039TIP3   OH239675   2.102   3.499   2.193 -0.0639 -0.5123  0.6084
 6039TIP3    H139676   2.113   3.409   2.161 -0.8927 -0.6236  0.6294
 6039TIP3    H239677   2.118   3.554   2.117 -0.1062 -0.6999  0.4635
 6040TIP3   OH239678   6.265   1.945   0.222 -0.1407  0.5983  0.5195
 6040TIP3    H139679   6.173   1.938   0.197 -0.0300  0.2310  0.2108
 6040TIP3    H239680   6.314   1.923   0.143  0.2120  0.0055  0.8884
 6041TIP3   OH239681   1.389   1.666   8.772 -0.3356  0.3198 -0.4919
 6041TIP3    H139682   1.346   1.750   8.757  0.9895  1.2180  0.5024
 6041TIP3    H239683   1.419   1.638   8.685  0.3339  1.5237 -0.6709
 6042TIP3   OH239684   5.633   2.261   1.137 -0.0547 -0.1429 -0.0041
 6042TIP3    H139685   5.676   2.202   1.075 -0.9040  0.0726 -0.8235
 6042TIP3    H239686   5.696   2.271   1.208  1.7498  1.0402 -1.6584
 6043TIP3   OH239687   1.022   1.403   0.956  0.0209 -0.0727 -0.0687
 6043TIP3    H139688   1.107   1.371   0.987 -0.4984 -0.7680  0.6742
 6043TIP3    H239689   1.036   1.495   0.937  0.5762  0.1814  1.4585
 6044TIP3   OH239690   1.995   3.351   0.764  0.0666  0.2137  0.0246
 6044TIP3    H139691   2.074   3.400   0.787  0.0937  0.1210  0.1319
 6044TIP3    H239692   1.942   3.413   0.715 -0.3360  0.6733  1.0079
 6045TIP3   OH239693   5.466   4.934   7.192 -0.2454 -0.1816  0.4694
 6045TIP3    H139694   5.557   4.910   7.174 -0.6379  0.5697 -3.0930
 6045TIP3    H239695   5.439   4.872   7.260  2.4445 -1.4190  0.5625
 6046TIP3   OH239696   3.369   0.981   2.178 -0.1547  0.1986 -0.1634
 6046TIP3    H139697   3.380   0.888   2.156  1.5628  0.6828 -1.6338
 6046TIP3    H239698   3.439   1.000   2.240  0.2226  0.7474 -0.7428
 6047TIP3   OH239699   3.924   5.388   8.688  0.5071 -0.2366 -0.4614
 6047TIP3    H139700   3.888   5.437   8.615 -1.4164  0.5628  0.9484
 6047TIP3    H239701   3.972   5.453   8.740  1.5876 -0.7355 -0.7859
 6048TIP3   OH239702   4.515   2.317   1.446  0.4817 -0.3997  0.8794
 6048TIP3    H139703   4.527   2.246   1.509 -1.9349  0.7866  2.8488
 6048TIP3    H239704   4.450   2.374   1.487  1.4897  2.3763 -1.1163
 6049TIP3   OH239705   0.474   6.489   8.623 -0.3303  0.6224  0.0167
 6049TIP3    H139706   0.519   6.487   8.707 -2.2663 -0.6837  1.1261
 6049TIP3    H239707   0.543   6.482   8.558  1.1679  0.7057  1.5330
 6050TIP3   OH239708   1.597   6.720   7.870 -0.9076  0.0392  0.1673
 6050TIP3    H139709   1.586   6.638   7.823 -2.2974 -0.4481  1.2702
 6050TIP3    H239710   1.529   6.719   7.937  0.9745  0.6506  2.2347
 6051TIP3   OH239711   0.073   4.304   8.127  0.2460  0.5066  0.0514
 6051TIP3    H139712  -0.008   4.349   8.104 -0.1890  0.0229  0.5970
 6051TIP3    H239713   0.096   4.254   8.048 -0.0957  0.4990 -0.0438
 6052TIP3   OH239714   5.214   1.817   7.391 -0.3581  0.0749  0.4433
 6052TIP3    H139715   5.158   1.745   7.364  1.0813 -0.6795 -0.6830
 6052TIP3    H239716   5.162   1.896   7.375 -0.8466 -0.5553 -1.2547
 6053TIP3   OH239717   6.472   5.113   0.069  0.1658  0.0342 -0.0125
 6053TIP3    H139718   6.387   5.140   0.102  0.7846  1.5855  0.3908
 6053TIP3    H239719   6.498   5.183   0.010  0.3912 -1.2814 -1.5661
 6054TIP3   OH239720   0.112   5.075   2.409 -0.2181 -0.2223  0.0595
 6054TIP3    H139721   0.197   5.050   2.372 -0.4324  1.0298 -1.4034
 6054TIP3    H239722   0.057   5.092   2.332 -1.5648 -0.2676  0.9855
 6055TIP3   OH239723   6.677   0.023   1.255  0.7092  0.6542 -0.0547
 6055TIP3    H139724   6.666   0.037   1.350 -0.1827  2.5463 -0.3802
 6055TIP3    H239725   6.597  -0.022   1.228  0.4227  1.1502 -0.0623
 6056TIP3   OH239726   6.643   2.683   7.350  0.3569 -0.1900 -0.1967
 6056TIP3    H139727   6.635   2.713   7.259  0.0329  0.2457 -0.0303
 6056TIP3    H239728   6.733   2.649   7.356  0.3457 -0.3229 -0.7057
 6057TIP3   OH239729   3.411   5.760   0.721 -0.4414  0.1357 -0.3998
 6057TIP3    H139730   3.320   5.740   0.741 -0.1985 -0.6106  0.0017
 6057TIP3    H239731   3.429   5.842   0.766 -0.5055 -0.4550  0.7476
 6058TIP3   OH239732   2.021   3.576   0.251  0.2429  0.0787  0.6972
 6058TIP3    H139733   2.112   3.571   0.280  0.3184 -1.9938  0.2089
 6058TIP3    H239734   1.985   3.649   0.302  1.5533 -0.5517  2.6744
 6059TIP3   OH239735   1.492   1.803   7.433 -0.1974  0.7821 -0.3135
 6059TIP3    H139736   1.491   1.743   7.359  0.8369  0.1297  0.1737
 6059TIP3    H239737   1.583   1.833   7.438  0.1537 -0.4237  1.6447
 6060TIP3   OH239738   5.439   2.324   0.952 -0.7397 -0.7285 -0.5035
 6060TIP3    H139739   5.521   2.313   1.000 -0.8957 -0.2722 -0.1170
 6060TIP3    H239740   5.372   2.331   1.020 -1.1902 -1.7493 -0.8306
 6061TIP3   OH239741   6.120   4.484   6.871  0.1812 -0.4116 -0.4507
 6061TIP3    H139742   6.193   4.451   6.924  2.1017  0.6233 -2.2891
 6061TIP3    H239743   6.147   4.573   6.847 -1.3915 -0.2418 -1.7453
 6062TIP3   OH239744   4.733   4.204   2.264 -0.1474  0.6414 -0.0627
 6062TIP3    H139745   4.804   4.148   2.234  0.0243  0.5338  0.5312
 6062TIP3    H239746   4.748   4.213   2.358 -0.6403  1.0190 -0.0173
 6063TIP3   OH239747   1.298   0.286   6.812  0.2325  0.9585  0.7361
 6063TIP3    H139748   1.259   0.246   6.889 -1.2657 -1.5917 -1.1744
 6063TIP3    H239749   1.391   0.265   6.818 -0.1341 -0.6745  1.0586
 6064TIP3   OH239750   5.554   1.096   6.215 -0.1584 -0.1220 -0.0972
 6064TIP3    H139751   5.556   1.181   6.170 -0.4516  1.0300  1.8967
 6064TIP3    H239752   5.487   1.045   6.169  0.2403  0.6010 -1.5284
 6065TIP3   OH239753   4.449   0.919   1.461 -0.0673  0.0325  0.0188
 6065TIP3    H139754   4.491   0.918   1.547 -0.6848 -0.0153  0.3241
 6065TIP3    H239755   4.407   1.005   1.456  2.1142  1.1279 -1.3069
 6066TIP3   OH239756   0.567   0.129   8.449  0.1509  0.3540  0.7073
 6066TIP3    H139757   0.599   0.091   8.531 -1.6571 -0.7691  0.9501
 6066TIP3    H239758   0.524   0.057   8.404 -2.5447  1.8135  0.7136
 6067TIP3   OH239759   4.262   1.668   8.909 -0.2440  0.0980  0.3787
 6067TIP3    H139760   4.353   1.644   8.927 -0.0661 -0.1446 -0.7476
 6067TIP3    H239761   4.214   1.638   8.986  0.3903 -1.3327  0.2560
 6068TIP3   OH239762   2.117   5.160   0.586  0.3604  0.0322  0.5353
 6068TIP3    H139763   2.130   5.249   0.619 -0.2364 -0.0742  1.0960
 6068TIP3    H239764   2.205   5.128   0.567  0.5105  1.2308 -1.0312
 6069TIP3   OH239765   5.965   1.257   2.750  0.2073  0.1369  0.1484
 6069TIP3    H139766   5.887   1.239   2.697  0.0067  0.7555  0.2159
 6069TIP3    H239767   5.938   1.238   2.840  0.8804 -1.9827 -0.0374
 6070TIP3   OH239768   1.130   1.738   1.265  0.4852 -0.2174  0.1178
 6070TIP3    H139769   1.180   1.761   1.186  0.9930 -0.4411  0.3719
 6070TIP3    H239770   1.038   1.747   1.238  0.6428 -0.9437 -0.7011
 6071TIP3   OH239771   0.409   2.066   8.425  0.0457  0.2281  0.1739
 6071TIP3    H139772   0.481   2.129   8.424  1.3131 -1.1632  0.2381
 6071TIP3    H239773   0.397   2.041   8.334 -0.7664  0.8715  0.0900
 6072TIP3   OH239774   4.260   4.424   8.534  0.1471 -0.3522 -0.2875
 6072TIP3    H139775   4.272   4.519   8.535 -0.3746 -0.2780 -0.8897
 6072TIP3    H239776   4.173   4.411   8.495 -0.2947 -1.0236  0.8748
 6073TIP3   OH239777   5.239   3.418   2.452  0.2805 -0.0252 -0.0429
 6073TIP3    H139778   5.222   3.455   2.365  1.6132  2.3528  0.5958
 6073TIP3    H239779   5.201   3.481   2.513  1.0625 -0.6394  1.1299
 6074TIP3   OH239780   0.458   2.664   0.224  0.1781  0.3014 -0.2506
 6074TIP3    H139781   0.474   2.572   0.204  0.4324  0.2252  0.2700
 6074TIP3    H239782   0.526   2.711   0.175  0.1681  0.1949 -0.3657
 6075TIP3   OH239783   1.087   3.800   8.905  0.4232 -0.0205  0.3738
 6075TIP3    H139784   1.162   3.765   8.954 -0.1966 -1.7411  0.1331
 6075TIP3    H239785   1.016   3.804   8.970  0.2855  0.1021  0.2162
 6076TIP3   OH239786   5.839   4.236   8.964  0.0029  0.5990  0.7729
 6076TIP3    H139787   5.874   4.312   8.917 -0.8139  0.5875  0.1255
 6076TIP3    H239788   5.861   4.161   8.909 -1.9384  0.6884 -0.2263
 6077TIP3   OH239789   4.237   2.772   0.617  0.2142 -0.3297  0.1210
 6077TIP3    H139790   4.302   2.834   0.649 -0.7822  1.2801 -0.8325
 6077TIP3    H239791   4.163   2.826   0.589 -2.2075 -2.1297  2.4916
 6078TIP3   OH239792   3.025   3.233   7.561  0.0749 -0.0542 -0.3349
 6078TIP3    H139793   3.114   3.261   7.581  0.6194 -1.4151 -0.7237
 6078TIP3    H239794   3.033   3.184   7.479 -1.2465  0.9054 -1.0636
 6079TIP3   OH239795   4.605   6.682   0.835  0.2759 -0.9880  0.1584
 6079TIP3    H139796   4.633   6.726   0.754 -0.6241  0.0960  0.4097
 6079TIP3    H239797   4.565   6.752   0.887  1.7849 -1.4355  2.0198
 6080TIP3   OH239798   3.186   0.377   8.919 -0.0233  0.1253 -0.8730
 6080TIP3    H139799   3.172   0.461   8.876  0.0197  2.1938  2.7232
 6080TIP3    H239800   3.132   0.381   8.998  1.7698 -2.2023  0.6271
 6081TIP3   OH239801   2.658   4.893   1.147  0.8538  0.8186  0.1728
 6081TIP3    H139802   2.594   4.859   1.084  0.6354  0.0467  0.8006
 6081TIP3    H239803   2.742   4.859   1.116  0.7142  0.2189  0.4328
 6082TIP3   OH239804   4.730   5.555   1.757 -0.1556  0.8977  0.5987
 6082TIP3    H139805   4.791   5.581   1.688  2.6536 -0.0852  2.5322
 6082TIP3    H239806   4.727   5.460   1.752 -1.8482  0.9265  0.3737
 6083TIP3   OH239807   1.415   0.947   6.608  0.0780  0.1859  0.4058
 6083TIP3    H139808   1.485   0.978   6.551 -0.7301 -0.1520 -0.8140
 6083TIP3    H239809   1.411   0.853   6.592 -0.5679  0.1811  0.5792
 6084TIP3   OH239810   5.542   6.514   8.012  0.3157 -0.4755  0.1961
 6084TIP3    H139811   5.590   6.433   8.027  0.2275 -0.4963  0.3671
 6084TIP3    H239812   5.451   6.486   8.000  0.4774 -0.5373 -1.1008
 6085TIP3   OH239813   0.236   3.378   7.438  0.3444 -0.0466 -0.2901
 6085TIP3    H139814   0.219   3.439   7.366  0.9552  0.5118  0.0269
 6085TIP3    H239815   0.226   3.291   7.399  1.3081  0.2372 -1.2167
 6086TIP3   OH239816   4.708   5.276   8.597 -0.2323  0.1534 -0.0557
 6086TIP3    H139817   4.699   5.321   8.681 -0.9551 -0.1584  0.0446
 6086TIP3    H239818   4.777   5.212   8.612 -0.1600  0.2917  0.2157
 6087TIP3   OH239819   1.978   1.613   1.254 -0.4953 -0.6009  0.2666
 6087TIP3    H139820   1.963   1.602   1.160  1.3506 -0.6024 -0.0573
 6087TIP3    H239821   1.919   1.550   1.295 -2.1971  0.2188 -0.8080
 6088TIP3   OH239822   1.950   3.650   2.399 -0.1230 -0.1151  0.2848
 6088TIP3    H139823   1.918   3.729   2.357 -1.6367 -0.8451 -0.0166
 6088TIP3    H239824   1.984   3.596   2.327  2.8341  1.0150  0.6763
 6089TIP3   OH239825   1.072   0.052   0.105  0.3315  0.1266  0.6302
 6089TIP3    H139826   1.052   0.143   0.083  2.3777  0.2464 -1.0992
 6089TIP3    H239827   0.995   0.003   0.076 -0.0224  1.1282 -0.1790
 6090TIP3   OH239828   3.014   2.866   7.001  0.3500 -0.0556 -0.2596
 6090TIP3    H139829   3.070   2.840   6.927 -0.7851  0.4745 -1.3511
 6090TIP3    H239830   2.934   2.897   6.960 -0.5083 -0.1973  1.2436
 6091TIP3   OH239831   3.955   1.423   2.268 -0.5131  0.3328 -0.1582
 6091TIP3    H139832   3.880   1.417   2.208 -1.2360 -1.4601  0.8477
 6091TIP3    H239833   3.973   1.517   2.275 -2.6384  0.8129 -0.4720
 6092TIP3   OH239834   4.834   1.684   2.386  0.5602  0.1004  0.4808
 6092TIP3    H139835   4.766   1.689   2.454 -0.7918  2.1199 -0.9073
 6092TIP3    H239836   4.910   1.728   2.424  0.5993 -0.7727  1.4712
 6093TIP3   OH239837   3.882   5.211   8.965 -0.5892  0.2232 -0.1151
 6093TIP3    H139838   3.970   5.215   8.926 -1.1859  0.2327 -1.5242
 6093TIP3    H239839   3.880   5.128   9.013 -0.3326 -0.5728 -1.4337
 6094TIP3   OH239840   0.872   3.573   7.208 -0.3350  0.5158  0.0860
 6094TIP3    H139841   0.954   3.593   7.162  0.8109 -3.1603  0.1748
 6094TIP3    H239842   0.820   3.524   7.144 -0.3903 -1.2760  1.4275
 6095TIP3   OH239843   0.719   5.780   8.421  0.7024  0.4360  0.2684
 6095TIP3    H139844   0.667   5.857   8.400 -0.6257 -0.5620 -0.2890
 6095TIP3    H239845   0.799   5.814   8.462  0.8538  2.1636 -1.3464
 6096TIP3   OH239846   1.413   5.202   8.765  0.2328 -0.2299 -0.5138
 6096TIP3    H139847   1.488   5.244   8.724 -0.2877  1.6003  0.2712
 6096TIP3    H239848   1.450   5.149   8.836  0.8481 -0.1731 -0.7889
 6097TIP3   OH239849   6.229   5.186   0.573 -0.0705  0.2915 -0.5156
 6097TIP3    H139850   6.257   5.103   0.612 -1.2078  0.3961  0.5806
 6097TIP3    H239851   6.281   5.252   0.620 -0.9370  0.3645  0.3698
 6098TIP3   OH239852   0.166   2.329   8.493  0.1717  0.0462 -0.5313
 6098TIP3    H139853   0.219   2.252   8.472 -0.5927 -0.3678 -0.9884
 6098TIP3    H239854   0.221   2.404   8.469  1.2094 -0.3245  0.6000
 6099TIP3   OH239855   1.671   6.358   8.528  0.3885  0.0195  0.1529
 6099TIP3    H139856   1.587   6.399   8.509  0.4443  0.1916  0.2706
 6099TIP3    H239857   1.665   6.271   8.489  0.2631  0.1338 -0.0841
 6100TIP3   OH239858   4.895   3.394   0.865 -0.3094  0.5991  0.1276
 6100TIP3    H139859   4.864   3.485   0.865 -0.1211  0.6631  0.5464
 6100TIP3    H239860   4.846   3.352   0.935  0.0938  0.5420  0.3760
 6101TIP3   OH239861   4.080   4.095   7.947  0.0221  0.3788 -0.7671
 6101TIP3    H139862   4.154   4.154   7.960 -0.2926  0.3869  1.2426
 6101TIP3    H239863   4.114   4.026   7.890  1.0946  1.2088 -1.1668
 6102TIP3   OH239864   0.696   0.301   8.806 -0.3232 -0.2023  0.3921
 6102TIP3    H139865   0.687   0.214   8.767 -2.6286 -0.2763  0.9205
 6102TIP3    H239866   0.707   0.283   8.900  1.4875  0.0682  0.2707
 6103TIP3   OH239867   1.831   3.585   6.648  0.6209  0.0954 -0.0697
 6103TIP3    H139868   1.841   3.496   6.613  2.2404  0.8238 -1.6551
 6103TIP3    H239869   1.879   3.585   6.730 -0.3842 -0.7835  0.5344
 6104TIP3   OH239870   5.523   0.687   1.619  0.2058 -0.2054 -0.3753
 6104TIP3    H139871   5.492   0.641   1.697  0.1261  0.8076  0.2099
 6104TIP3    H239872   5.473   0.649   1.547  0.0785 -0.9571  0.0961
 6105TIP3   OH239873   4.678   6.569   0.074 -0.8051 -0.5893  0.4245
 6105TIP3    H139874   4.621   6.646   0.079  1.5231  1.1889  0.9840
 6105TIP3    H239875   4.624   6.497   0.107 -2.3374  1.2277  2.0880
 6106TIP3   OH239876   4.353   5.681   0.763 -0.1754  0.2142  0.5247
 6106TIP3    H139877   4.326   5.774   0.766  0.5347  0.4493 -0.1128
 6106TIP3    H239878   4.274   5.633   0.788 -0.6532  0.9817  0.5346
 6107TIP3   OH239879   5.783   5.662   7.338 -0.0730 -0.0352 -0.6475
 6107TIP3    H139880   5.728   5.652   7.261  0.5757  0.5458 -1.2070
 6107TIP3    H239881   5.860   5.710   7.306  0.2700  0.0901  0.3294
 6108TIP3   OH239882   5.546   4.810   8.868 -0.5483  0.1498 -0.0492
 6108TIP3    H139883   5.614   4.769   8.921 -1.4013  0.0509  1.0260
 6108TIP3    H239884   5.483   4.844   8.933 -0.6317  1.8242 -0.9370
 6109TIP3   OH239885   4.073   1.874   1.776 -0.3771  0.8941 -0.2785
 6109TIP3    H139886   4.003   1.841   1.720 -0.5230 -1.1226  0.9912
 6109TIP3    H239887   4.152   1.832   1.744  0.4684  3.5564 -2.0357
 6110TIP3   OH239888   6.115   3.119   0.444 -0.5962 -0.0466 -0.4080
 6110TIP3    H139889   6.154   3.180   0.381 -1.2134  1.1000  0.2963
 6110TIP3    H239890   6.162   3.037   0.430  0.5340  0.6943 -1.0948
 6111TIP3   OH239891   1.183   0.791   7.190  0.1391  0.0879  0.3197
 6111TIP3    H139892   1.178   0.703   7.229  3.3798 -0.7678 -0.9226
 6111TIP3    H239893   1.253   0.835   7.239 -1.7344  2.2467  1.2363
 6112TIP3   OH239894   5.273   2.178   0.202  0.5598  0.7609 -0.5378
 6112TIP3    H139895   5.328   2.100   0.192  0.7159  1.0257 -2.0406
 6112TIP3    H239896   5.185   2.149   0.179  0.2418  0.6088  0.7632
 6113TIP3   OH239897   0.386   4.446   1.619 -0.3080 -0.3533  0.3157
 6113TIP3    H139898   0.410   4.475   1.707  1.4315 -1.4206  0.2480
 6113TIP3    H239899   0.436   4.365   1.606  0.4383  0.4101 -2.0995
 6114TIP3   OH239900   3.277   5.942   1.611 -0.3618 -0.0441  0.4402
 6114TIP3    H139901   3.187   5.975   1.620  0.1534  1.0309  2.2844
 6114TIP3    H239902   3.322   6.010   1.561 -0.0834  0.5145  1.4163
 6115TIP3   OH239903   6.447   4.635   8.555 -0.3307  0.1620 -0.3350
 6115TIP3    H139904   6.494   4.712   8.587 -0.1071  0.4553 -1.3396
 6115TIP3    H239905   6.515   4.571   8.538 -0.4671 -0.0644 -0.0330
 6116TIP3   OH239906   4.941   5.959   6.503 -0.0717  0.6092  0.2455
 6116TIP3    H139907   4.908   6.038   6.546  0.4997  0.7569  0.4252
 6116TIP3    H239908   5.036   5.963   6.516 -0.1508 -0.9802  1.7649
 6117TIP3   OH239909   3.508   3.755   1.813 -0.3297  0.1672 -0.4648
 6117TIP3    H139910   3.431   3.728   1.763  0.6486 -1.4193 -1.2067
 6117TIP3    H239911   3.509   3.698   1.889 -0.7673  1.3048  0.4267
 6118TIP3   OH239912   0.860   1.790   8.958  0.2182 -0.0215  0.3111
 6118TIP3    H139913   0.855   1.762   8.867 -0.8836 -0.6866  0.5458
 6118TIP3    H239914   0.907   1.873   8.956 -0.6371  0.4575 -0.9713
 6119TIP3   OH239915   4.028   0.685   0.736  0.0520  0.3841 -1.0110
 6119TIP3    H139916   4.009   0.769   0.778 -0.6050 -0.0750 -0.3729
 6119TIP3    H239917   3.961   0.625   0.769  0.1602 -0.2596 -1.9020
 6120TIP3   OH239918   6.699   5.234   1.167  0.6313  0.4313 -0.6623
 6120TIP3    H139919   6.757   5.291   1.117  1.3769  1.3970  1.2074
 6120TIP3    H239920   6.758   5.187   1.227 -0.2658 -0.2854 -0.3163
 6121TIP3   OH239921   3.505   4.077   8.155  0.1212  0.8835 -0.4902
 6121TIP3    H139922   3.496   4.122   8.239  0.0910 -0.7963  0.4325
 6121TIP3    H239923   3.440   4.118   8.099 -0.6283  1.2805  0.6411
 6122TIP3   OH239924   1.930   4.840   8.946  0.1191 -0.7397 -0.2581
 6122TIP3    H139925   1.914   4.900   9.019 -2.0408 -0.0837 -1.1892
 6122TIP3    H239926   2.005   4.879   8.900  1.3536 -1.0276  1.3864
 6123TIP3   OH239927   1.220   4.680   8.512 -0.0982 -0.1911  0.2615
 6123TIP3    H139928   1.169   4.760   8.517 -0.5260 -0.3081 -1.5333
 6123TIP3    H239929   1.305   4.703   8.550 -0.1097  1.2191 -0.4977
 6124TIP3   OH239930   4.526   3.741   8.548 -0.2549 -0.5177  0.0146
 6124TIP3    H139931   4.581   3.738   8.470 -0.0146  0.9407  0.0847
 6124TIP3    H239932   4.585   3.771   8.617 -0.8400 -0.1693  0.3701
 6125TIP3   OH239933   3.498   6.472   2.062 -0.1220 -0.0981  0.9187
 6125TIP3    H139934   3.479   6.434   2.148 -0.3213 -0.8481  0.5415
 6125TIP3    H239935   3.593   6.463   2.052 -0.2796 -1.3960  0.4177
 6126TIP3   OH239936   6.265   6.107   1.134 -0.4844 -0.2156 -0.3387
 6126TIP3    H139937   6.312   6.111   1.217 -0.4491 -0.4628 -0.3448
 6126TIP3    H239938   6.237   6.016   1.127  0.7974 -0.5593 -1.2984
 6127TIP3   OH239939   6.277   3.166   6.978 -0.2639 -0.2878  0.2477
 6127TIP3    H139940   6.256   3.212   6.897  0.4119  1.4149  0.9787
 6127TIP3    H239941   6.213   3.199   7.041  0.9133  0.5394  1.0529
 6128TIP3   OH239942   0.669   4.770   1.176  0.2134 -0.0595  0.3869
 6128TIP3    H139943   0.594   4.719   1.208  0.5321 -1.8526 -1.5034
 6128TIP3    H239944   0.635   4.858   1.163 -1.7090 -0.9217 -0.7946
 6129TIP3   OH239945   4.667   2.687   6.603 -0.2864  0.1960 -0.3669
 6129TIP3    H139946   4.638   2.775   6.630 -2.0699 -0.1166 -1.1022
 6129TIP3    H239947   4.654   2.687   6.508  0.7698 -0.4994 -0.5148
 6130TIP3   OH239948   5.813   0.877   7.478 -0.5703  0.9842  0.2942
 6130TIP3    H139949   5.807   0.932   7.401 -0.0057  0.0768 -0.4126
 6130TIP3    H239950   5.897   0.900   7.517 -1.0028  1.6835  0.8493
 6131TIP3   OH239951   0.827   2.863   7.195 -0.1193  0.2733 -0.1816
 6131TIP3    H139952   0.792   2.775   7.179  1.4195 -0.8741  2.1112
 6131TIP3    H239953   0.889   2.878   7.125 -0.2549 -0.5551 -0.4840
 6132TIP3   OH239954   2.039   1.753   7.717  0.1114  0.3719  0.3008
 6132TIP3    H139955   1.981   1.708   7.779 -2.7684 -0.1067 -2.4189
 6132TIP3    H239956   2.032   1.845   7.741  0.0934  0.0880  1.4495
 6133TIP3   OH239957   1.358   0.939   1.328 -0.4694  0.5602  0.6022
 6133TIP3    H139958   1.435   0.980   1.288 -0.6562 -0.0432 -0.4281
 6133TIP3    H239959   1.389   0.853   1.357 -1.0420 -0.2859 -1.1218
 6134TIP3   OH239960   1.758   0.877   1.942  0.0750  0.2742  0.5598
 6134TIP3    H139961   1.782   0.797   1.989  1.5490  0.8737  0.8795
 6134TIP3    H239962   1.739   0.847   1.853  1.7404 -0.3191  0.3629
 6135TIP3   OH239963   1.411   2.455   8.526  0.0904  0.3238  0.1959
 6135TIP3    H139964   1.338   2.393   8.519 -0.1991  0.5559  1.0348
 6135TIP3    H239965   1.442   2.445   8.616  0.1876  1.2303  0.2656
 6136TIP3   OH239966   5.351   3.454   7.169  0.7629  0.2404  0.0918
 6136TIP3    H139967   5.363   3.394   7.095  1.6106  0.0558  0.3621
 6136TIP3    H239968   5.420   3.519   7.158 -0.3591  1.3876 -0.3858
 6137TIP3   OH239969   5.403   2.571   1.165 -0.3420 -0.3723 -0.6597
 6137TIP3    H139970   5.375   2.547   1.254  0.3236  0.3417 -0.2368
 6137TIP3    H239971   5.349   2.647   1.143  2.6336  2.5244  1.0993
 6138TIP3   OH239972   2.298   4.025   1.127 -0.5053 -0.1480  0.3390
 6138TIP3    H139973   2.310   3.935   1.097 -1.1366 -0.0902 -0.1246
 6138TIP3    H239974   2.210   4.025   1.167 -0.8113  0.4218 -0.3128
 6139TIP3   OH239975   3.181   1.822   1.328 -0.2658 -0.1768  0.2080
 6139TIP3    H139976   3.242   1.761   1.286  1.9924  1.3612  1.0406
 6139TIP3    H239977   3.174   1.790   1.418 -1.4401 -0.8391 -0.0962
 6140TIP3   OH239978   3.571   1.625   8.286  0.2544  0.4944 -0.5187
 6140TIP3    H139979   3.522   1.707   8.279  0.0199  0.2184 -2.8618
 6140TIP3    H239980   3.650   1.649   8.335 -0.9949  1.4846  1.1359
 6141TIP3   OH239981   3.594   1.413   0.452 -0.3200  0.0248  0.2440
 6141TIP3    H139982   3.551   1.371   0.378 -0.5568 -0.2309  0.5222
 6141TIP3    H239983   3.525   1.462   0.496 -0.3022 -0.2751  0.6143
 6142TIP3   OH239984   2.848   3.913   8.286  0.2317 -0.3025  0.2261
 6142TIP3    H139985   2.784   3.860   8.334  0.0316  0.3776  0.7133
 6142TIP3    H239986   2.889   3.968   8.353  0.3077  0.2975 -0.3089
 6143TIP3   OH239987   1.687   0.811   8.400  0.1125 -0.0599 -0.1064
 6143TIP3    H139988   1.728   0.886   8.443 -0.8061  0.3161  0.1362
 6143TIP3    H239989   1.759   0.768   8.354  0.9592 -0.0097  1.1279
 6144TIP3   OH239990   3.360   3.917   7.930  0.6241 -0.3070 -0.0739
 6144TIP3    H139991   3.280   3.911   7.878  0.6691  0.4862 -0.2527
 6144TIP3    H239992   3.337   3.880   8.015 -0.2115  0.7902  0.1903
 6145TIP3   OH239993   4.177   1.315   2.173 -0.2347 -0.6828 -0.0147
 6145TIP3    H139994   4.107   1.357   2.223 -0.4989 -1.4059  0.2418
 6145TIP3    H239995   4.256   1.330   2.225 -0.4583 -1.1701  0.4758
 6146TIP3   OH239996   1.716   6.206   0.553 -0.6050 -0.6223 -0.0234
 6146TIP3    H139997   1.729   6.142   0.623 -0.2310 -1.7293 -1.0550
 6146TIP3    H239998   1.700   6.288   0.598  1.5705 -0.8924  1.3842
 6147TIP3   OH239999   2.663   1.452   0.048 -0.1018 -0.4723 -0.3633
 6147TIP3    H140000   2.607   1.392  -0.002  0.8737 -0.7424 -1.1771
 6147TIP3    H240001   2.714   1.499  -0.019  0.2080  0.2051  0.3232
 6148TIP3   OH240002   3.811   2.534   7.862  0.0507 -0.6690 -0.0135
 6148TIP3    H140003   3.718   2.515   7.847 -0.2236  0.6811 -0.2105
 6148TIP3    H240004   3.810   2.614   7.915  1.1115 -0.6384 -0.0236
 6149TIP3   OH240005   4.070   4.388   0.482  0.6610  0.3258 -0.2619
 6149TIP3    H140006   4.109   4.319   0.534  1.2623  0.0891 -1.0120
 6149TIP3    H240007   4.000   4.423   0.537 -0.6145 -1.8211 -0.3914
 6150TIP3   OH240008   6.432   2.846   0.947  0.0801  0.3451  0.4144
 6150TIP3    H140009   6.400   2.918   1.001 -0.7911  1.5956 -1.6759
 6150TIP3    H240010   6.411   2.871   0.857  2.4874 -1.1204 -0.6615
 6151TIP3   OH240011   1.730   4.174   0.531 -0.5769  0.9035 -0.2714
 6151TIP3    H140012   1.820   4.161   0.502 -0.7288 -0.6106 -0.1685
 6151TIP3    H240013   1.723   4.120   0.610 -1.2215  2.0106  0.4424
 6152TIP3   OH240014   5.535   5.626   8.009 -0.2190 -0.2402  0.0507
 6152TIP3    H140015   5.544   5.695   7.943 -0.7892 -0.6204 -0.4257
 6152TIP3    H240016   5.588   5.657   8.083  0.1563  0.3427 -0.4539
 6153TIP3   OH240017   1.606   1.176   6.563  0.2901  0.6311 -0.4056
 6153TIP3    H140018   1.591   1.250   6.622 -0.9877  0.2741 -0.2447
 6153TIP3    H240019   1.653   1.112   6.616 -0.5466  0.4529  0.1396
 6154TIP3   OH240020   6.733   4.006   0.132  0.3791 -0.7278 -0.4235
 6154TIP3    H140021   6.639   3.993   0.140 -0.0181  1.6507 -0.4990
 6154TIP3    H240022   6.750   4.002   0.038  0.0277  0.5754 -0.5576
 6155TIP3   OH240023   1.598   0.470   7.106  0.2822 -0.5441  0.3745
 6155TIP3    H140024   1.589   0.564   7.119  0.8604 -0.6096  1.3741
 6155TIP3    H240025   1.611   0.460   7.011  0.5349  0.4103  0.2960
 6156TIP3   OH240026   5.206   1.122   0.474  0.3152  1.2319 -0.1185
 6156TIP3    H140027   5.117   1.096   0.497 -0.0058  0.5670 -1.9158
 6156TIP3    H240028   5.229   1.065   0.401  3.0752 -0.1465  1.6626
 6157TIP3   OH240029   5.259   1.323   8.371  0.1293 -0.2209  0.3576
 6157TIP3    H140030   5.262   1.395   8.308  0.9588 -0.4041  0.1750
 6157TIP3    H240031   5.282   1.246   8.320  0.6181 -0.4007  0.8423
 6158TIP3   OH240032   5.591   1.775   1.814  0.0967 -0.2917 -0.0003
 6158TIP3    H140033   5.544   1.856   1.793  0.5515 -0.0367 -0.0382
 6158TIP3    H240034   5.522   1.714   1.839 -0.4284 -0.4641 -1.7533
 6159TIP3   OH240035   4.765   6.224   1.594 -0.1818  0.1835 -0.2747
 6159TIP3    H140036   4.805   6.140   1.574  0.0925  0.5631 -1.3927
 6159TIP3    H240037   4.687   6.228   1.538 -0.2544  0.6194 -0.1508
 6160TIP3   OH240038   2.043   6.563   7.777  0.1552 -0.2898  0.2316
 6160TIP3    H140039   2.009   6.644   7.739  0.3687 -0.3196 -0.0272
 6160TIP3    H240040   1.970   6.501   7.772  0.6068 -0.7339 -1.4721
 6161TIP3   OH240041   0.381   0.929   8.335  0.0565 -0.6430 -0.2944
 6161TIP3    H140042   0.337   0.845   8.325 -0.5125 -0.3677 -0.1391
 6161TIP3    H240043   0.352   0.961   8.421 -0.5831  0.2068 -0.8165
 6162TIP3   OH240044   1.275   4.220   2.432 -0.5920 -0.5352 -0.0672
 6162TIP3    H140045   1.236   4.132   2.431 -0.2039 -0.7488 -2.4536
 6162TIP3    H240046   1.236   4.264   2.356 -0.3643  1.1934  0.7765
 6163TIP3   OH240047   5.637   3.789   2.199  0.1298 -0.2136  0.2321
 6163TIP3    H140048   5.681   3.743   2.270  0.7053  0.9684  0.6604
 6163TIP3    H240049   5.671   3.878   2.202  0.3330 -0.1761 -1.6632
 6164TIP3   OH240050   3.203   4.260   8.483  0.3723 -0.8438 -0.0892
 6164TIP3    H140051   3.195   4.286   8.575 -2.6313  0.0630 -0.5209
 6164TIP3    H240052   3.182   4.339   8.433 -1.0644 -2.0488 -1.5110
 6165TIP3   OH240053   5.240   0.985   2.110 -0.0083  0.0575  0.5096
 6165TIP3    H140054   5.286   1.008   2.191 -1.6871  1.1644  1.2132
 6165TIP3    H240055   5.231   1.069   2.064  1.0707 -0.5793 -0.9494
 6166TIP3   OH240056   1.883   1.890   1.611  0.1773  0.1757 -0.0189
 6166TIP3    H140057   1.945   1.906   1.682  0.4262  2.5331 -0.6840
 6166TIP3    H240058   1.927   1.828   1.553  1.0906  0.3289  0.4989
 6167TIP3   OH240059   6.348   4.894   1.455 -0.4732 -0.0477 -0.6590
 6167TIP3    H140060   6.361   4.827   1.389  2.4165 -0.7623  0.4639
 6167TIP3    H240061   6.423   4.952   1.445  1.0290 -1.0994  2.8853
 6168TIP3   OH240062   0.436   2.093   0.063  0.6568 -0.2164  0.4748
 6168TIP3    H140063   0.384   2.162   0.104  0.9415  0.2734  0.0192
 6168TIP3    H240064   0.465   2.130  -0.020 -1.2543 -1.7497 -0.9720
 6169TIP3   OH240065   2.029   5.730   0.418  0.0948  0.6144  0.7836
 6169TIP3    H140066   2.028   5.823   0.396 -0.7019  0.6830  1.1091
 6169TIP3    H240067   2.067   5.688   0.340  0.2107  1.1777  0.5316
 6170TIP3   OH240068   4.349   4.166   0.250  0.1477 -0.1298 -0.3493
 6170TIP3    H140069   4.261   4.129   0.251  0.7394 -1.6038  0.8956
 6170TIP3    H240070   4.389   4.131   0.170 -1.2736  2.9688 -2.6334
 6171TIP3   OH240071   1.083   1.406   7.113 -0.1609  0.6500 -0.0494
 6171TIP3    H140072   1.157   1.347   7.095  0.5055  2.1327 -2.7485
 6171TIP3    H240073   1.060   1.388   7.204  1.0503 -2.5628 -0.2265
 6172TIP3   OH240074   5.097   3.656   0.834 -0.2202 -0.1504  0.0005
 6172TIP3    H140075   5.016   3.707   0.824 -0.3127 -0.3631 -0.3549
 6172TIP3    H240076   5.164   3.722   0.856 -0.8595 -0.2088  2.3247
 6173TIP3   OH240077   6.076   3.862   0.062 -0.2438 -0.0416 -0.1226
 6173TIP3    H140078   6.117   3.949   0.065  1.4786 -0.8520  0.6101
 6173TIP3    H240079   6.012   3.864   0.134 -0.1660  0.5867 -0.0636
 6174TIP3   OH240080   5.958   4.393   7.714 -0.0294 -0.6589  0.5927
 6174TIP3    H140081   5.975   4.299   7.709 -0.7576 -0.7497 -0.5320
 6174TIP3    H240082   5.874   4.400   7.759 -0.5718 -0.6312 -0.3959
 6175TIP3   OH240083   4.009   3.254   0.876  0.3941 -0.1174 -0.1812
 6175TIP3    H140084   3.984   3.318   0.943  2.0033  0.7391 -0.3524
 6175TIP3    H240085   3.942   3.261   0.809 -0.5029 -0.0229  0.7048
 6176TIP3   OH240086   5.220   5.706   8.849  0.5456  0.1157 -0.8750
 6176TIP3    H140087   5.132   5.681   8.878  0.3801  2.5307  1.0662
 6176TIP3    H240088   5.270   5.625   8.851 -0.3740 -0.5580  3.1497
 6177TIP3   OH240089   2.324   6.191   1.336 -0.4324 -0.4767 -0.1124
 6177TIP3    H140090   2.408   6.146   1.331 -0.5534 -0.7077 -0.0707
 6177TIP3    H240091   2.285   6.160   1.418  0.3933  1.2884  1.0006
 6178TIP3   OH240092   3.675   0.852   7.401 -0.6038  0.4467  0.1765
 6178TIP3    H140093   3.595   0.800   7.396  0.2321 -0.7875 -1.1706
 6178TIP3    H240094   3.729   0.820   7.328  0.6223  2.0840  0.3113
 6179TIP3   OH240095   0.426   1.391   0.121  0.4274 -0.0534  0.2340
 6179TIP3    H140096   0.371   1.400   0.043  0.5042  0.5796  0.2411
 6179TIP3    H240097   0.393   1.457   0.182  0.4170 -0.4933  0.7114
 6180TIP3   OH240098   5.002   3.227   7.741  0.2240  0.1780  0.3334
 6180TIP3    H140099   4.935   3.242   7.674  0.5121 -0.7804 -0.1929
 6180TIP3    H240100   5.084   3.226   7.692  0.3090 -2.2059  0.3995
 6181TIP3   OH240101   1.465   4.624   8.320 -0.4448 -0.3510  0.2735
 6181TIP3    H140102   1.529   4.695   8.321 -2.0238  1.2457 -1.6519
 6181TIP3    H240103   1.467   4.588   8.408  2.0450  0.5675  0.6621
 6182TIP3   OH240104   1.878   0.422   1.367  0.2481 -0.2211 -0.1317
 6182TIP3    H140105   1.892   0.328   1.361  0.8017 -0.1023 -0.9101
 6182TIP3    H240106   1.783   0.433   1.357  0.0904 -0.7426  0.7521
 6183TIP3   OH240107   2.435   4.127   7.593 -0.3817  0.5207  0.1440
 6183TIP3    H140108   2.479   4.210   7.607  2.6457 -0.7458 -0.9796
 6183TIP3    H240109   2.372   4.145   7.523  1.0099  1.6730 -0.8844
 6184TIP3   OH240110   1.429   4.257   7.890 -0.4271  0.4374 -0.2036
 6184TIP3    H140111   1.502   4.299   7.935 -0.5998 -1.6565  2.2060
 6184TIP3    H240112   1.468   4.181   7.847 -0.7104  1.0501 -1.6216
 6185TIP3   OH240113   0.413   6.736   8.077 -0.0503 -0.6588 -0.6957
 6185TIP3    H140114   0.422   6.690   8.160  2.6417  0.1113 -0.4680
 6185TIP3    H240115   0.329   6.781   8.084 -0.6464 -1.9170  0.9012
 6186TIP3   OH240116   4.841   6.085   7.140  0.4917  0.3474 -0.3429
 6186TIP3    H140117   4.842   6.108   7.047 -1.2559 -0.3405 -0.5830
 6186TIP3    H240118   4.822   6.167   7.185  1.3935  0.6928 -0.5835
 6187TIP3   OH240119   3.328   6.609   6.695 -0.1115  0.2459 -0.2543
 6187TIP3    H140120   3.376   6.685   6.727 -1.6902  2.0063 -1.7819
 6187TIP3    H240121   3.258   6.596   6.760 -0.4910  0.8364 -0.5275
 6188TIP3   OH240122   1.920   4.817   0.841 -0.2120 -0.2035 -0.2412
 6188TIP3    H140123   1.866   4.878   0.891 -0.6886  0.4992 -1.5619
 6188TIP3    H240124   1.866   4.795   0.765  0.7739 -0.6635 -0.8221
 6189TIP3   OH240125   6.181   3.720   7.251  0.4901  0.4927  0.1198
 6189TIP3    H140126   6.197   3.737   7.344  0.7559 -0.1207  0.1930
 6189TIP3    H240127   6.178   3.625   7.245 -0.3796  0.5423 -0.3683
 6190TIP3   OH240128   3.985   4.752   1.732 -0.1015  0.1953  0.3083
 6190TIP3    H140129   4.006   4.774   1.823 -0.8397  0.2739  0.4652
 6190TIP3    H240130   4.069   4.731   1.693  0.3312  0.9584  0.7948
 6191TIP3   OH240131   3.101   4.131   1.093  0.3432  0.0366 -0.4226
 6191TIP3    H140132   3.158   4.139   1.169 -0.0052 -0.3551 -0.1137
 6191TIP3    H240133   3.047   4.054   1.112 -0.8386  0.8595 -0.3348
 6192TIP3   OH240134   2.993   4.104   7.938 -0.3793 -0.0696 -0.7260
 6192TIP3    H140135   3.067   4.084   7.995  0.5564  0.7760 -1.6250
 6192TIP3    H240136   2.968   4.019   7.902  0.0235 -0.3854 -0.2796
 6193TIP3   OH240137   5.994   0.908   2.326  0.2126  0.6599 -0.0526
 6193TIP3    H140138   6.026   0.877   2.410 -1.1836  0.2101  0.3441
 6193TIP3    H240139   5.971   0.828   2.278  0.1865  0.9441 -0.5248
 6194TIP3   OH240140   1.426   3.991   0.914 -0.0025 -0.4890 -0.1324
 6194TIP3    H140141   1.430   3.961   1.005 -0.0845 -2.3694 -0.6957
 6194TIP3    H240142   1.339   3.963   0.884 -0.3950  1.0577 -0.5112
 6195TIP3   OH240143   5.404   1.859   1.049  0.5965  0.0908 -0.0572
 6195TIP3    H140144   5.362   1.937   1.011  1.0838  0.6313  0.4792
 6195TIP3    H240145   5.419   1.801   0.975 -0.6851  0.0731 -0.3224
 6196TIP3   OH240146   0.783   4.583   0.685  0.2297  0.2292  0.0391
 6196TIP3    H140147   0.832   4.548   0.759 -0.4709 -1.2101 -0.1531
 6196TIP3    H240148   0.711   4.632   0.724  0.4992  0.4251  0.2973
 6197TIP3   OH240149   1.010   0.348   0.070  0.9096  0.3087  0.3194
 6197TIP3    H140150   1.032   0.435   0.100  1.7137 -0.4104  1.9078
 6197TIP3    H240151   0.917   0.337   0.091  0.6323  1.0105 -0.5086
 6198TIP3   OH240152   2.029   2.881   7.340  0.0309 -0.3289 -0.0260
 6198TIP3    H140153   2.115   2.921   7.329 -1.0393  2.8085  1.5060
 6198TIP3    H240154   2.013   2.834   7.259  1.7844  1.9042 -1.8013
 6199TIP3   OH240155   0.609   5.964   7.260  0.3297 -0.1770 -0.2511
 6199TIP3    H140156   0.545   5.971   7.330  0.2691 -0.1560 -0.3083
 6199TIP3    H240157   0.625   5.871   7.250  0.8012 -0.1517  0.2104
 6200TIP3   OH240158   5.019   6.525   1.982  0.3031  0.2852 -0.0949
 6200TIP3    H140159   5.077   6.519   2.058  0.4704  0.9462 -0.1602
 6200TIP3    H240160   5.079   6.524   1.907  0.1610 -0.0154 -0.2043
 6201TIP3   OH240161   5.303   4.074   0.911 -0.2230  0.1162  0.4739
 6201TIP3    H140162   5.279   4.152   0.860 -0.3816  0.2532  0.7511
 6201TIP3    H240163   5.264   4.001   0.864  1.5886 -0.0366 -0.8933
 6202TIP3   OH240164   5.094   0.855   7.344 -0.2572  0.5246 -0.1451
 6202TIP3    H140165   5.122   0.855   7.435 -2.8564 -0.3275  0.7513
 6202TIP3    H240166   5.095   0.948   7.319  3.2329  0.5617 -0.2934
 6203TIP3   OH240167   2.162   4.113   6.466 -0.2013 -0.1827 -0.3341
 6203TIP3    H140168   2.092   4.165   6.506 -0.0622 -0.4374  0.2452
 6203TIP3    H240169   2.136   4.022   6.481  0.4666 -0.2778  0.2700
 6204TIP3   OH240170   6.277   0.231   1.126 -0.1656 -0.4747  0.0174
 6204TIP3    H140171   6.344   0.188   1.180  0.0241 -0.9915 -0.6225
 6204TIP3    H240172   6.304   0.214   1.036  0.1846  1.3778 -0.2842
 6205TIP3   OH240173   3.871   1.611   7.672 -0.0915  0.4703  0.1915
 6205TIP3    H140174   3.856   1.700   7.704  2.8363  2.4082 -3.0723
 6205TIP3    H240175   3.797   1.594   7.614  0.3680  1.7616 -0.8369
 6206TIP3   OH240176   2.084   0.453   8.573  0.2098  0.2787  0.2146
 6206TIP3    H140177   2.136   0.415   8.644  0.2104 -1.1768 -0.5237
 6206TIP3    H240178   2.132   0.430   8.493 -0.5357  0.6399 -0.3518
 6207TIP3   OH240179   5.383   6.270   0.645 -0.2356  0.0266 -0.2452
 6207TIP3    H140180   5.431   6.240   0.722  0.2204  0.9155 -0.1690
 6207TIP3    H240181   5.392   6.365   0.647  0.2279  0.0336 -1.6774
 6208TIP3   OH240182   6.689   5.507   1.724 -0.6725 -0.4544 -0.2012
 6208TIP3    H140183   6.752   5.571   1.757  0.2901 -1.4423 -0.0431
 6208TIP3    H240184   6.620   5.505   1.791 -0.9728  0.7550 -0.4515
 6209TIP3   OH240185   0.613   1.774   7.064  0.0838 -0.7458 -0.6466
 6209TIP3    H140186   0.530   1.783   7.017 -0.5819  1.6999  0.8020
 6209TIP3    H240187   0.656   1.859   7.054 -0.3430  0.1428  3.3916
 6210TIP3   OH240188   1.651   2.995   8.318  0.0122  0.5756 -0.3227
 6210TIP3    H140189   1.571   2.975   8.268  1.1654  1.2901 -2.6194
 6210TIP3    H240190   1.697   2.911   8.324 -0.1261  0.4829 -0.5228
 6211TIP3   OH240191   0.422   1.987   8.167 -0.4413  0.1532  0.1395
 6211TIP3    H140192   0.333   2.007   8.138 -0.0066  0.0130 -1.3551
 6211TIP3    H240193   0.478   2.014   8.094  0.9046  1.6565  1.6479
 6212TIP3   OH240194   1.674   1.824   2.227 -0.2031 -0.8270 -0.3125
 6212TIP3    H140195   1.724   1.774   2.292 -1.1301 -0.3443  0.8100
 6212TIP3    H240196   1.590   1.841   2.270 -0.7301 -0.2307 -1.5380
 6213TIP3   OH240197   3.983   1.373   8.173  0.0257  0.2462  0.2508
 6213TIP3    H140198   4.035   1.314   8.228  0.4655 -2.5473 -2.8291
 6213TIP3    H240199   4.047   1.436   8.140  0.8133 -0.9953 -0.7077
 6214TIP3   OH240200   4.351   0.814   1.069  0.0579 -0.6111 -0.4010
 6214TIP3    H140201   4.380   0.730   1.034  1.1253 -0.6381  0.4889
 6214TIP3    H240202   4.419   0.876   1.043  0.7117 -0.5671  1.2797
 6215TIP3   OH240203   4.151   2.011   0.933  0.9291 -0.1922  0.2121
 6215TIP3    H140204   4.211   2.077   0.967 -2.6320  2.6074  1.7362
 6215TIP3    H240205   4.118   1.966   1.011 -0.7042  0.0916 -0.2650
 6216TIP3   OH240206   3.671   2.769   7.901  0.1424  0.0336  0.2224
 6216TIP3    H140207   3.757   2.807   7.920 -0.1858  0.2440  1.3455
 6216TIP3    H240208   3.614   2.845   7.888 -0.0760 -0.0927  0.4394
 6217TIP3   OH240209   4.782   6.134   8.450  0.0434 -0.6834  0.2973
 6217TIP3    H140210   4.807   6.106   8.362 -0.3785  2.6346 -1.0294
 6217TIP3    H240211   4.692   6.167   8.440  0.2654  0.4797  1.7507
 6218TIP3   OH240212   1.838   4.324   8.334  0.3729 -0.3289  0.2342
 6218TIP3    H140213   1.886   4.299   8.413  0.8357  1.2347  0.4745
 6218TIP3    H240214   1.817   4.240   8.292  2.6300 -1.1292  0.5304
 6219TIP3   OH240215   3.212   1.707   7.899 -0.5269  0.2066 -0.1709
 6219TIP3    H140216   3.146   1.678   7.962  1.0074  1.2484  2.0511
 6219TIP3    H240217   3.255   1.627   7.870 -0.6274 -0.2502  0.8951
 6220TIP3   OH240218   1.459   3.893   7.564  0.1384  0.2213  0.1708
 6220TIP3    H140219   1.497   3.968   7.520 -1.7740  0.4821 -1.1413
 6220TIP3    H240220   1.412   3.930   7.639  0.2654  0.1969  0.2623
 6221TIP3   OH240221   3.675   1.103   6.691  0.2189 -0.3015  0.5850
 6221TIP3    H140222   3.588   1.090   6.728  0.2141  1.8197  1.4229
 6221TIP3    H240223   3.669   1.185   6.643  1.5771 -0.5159 -0.0087
 6222TIP3   OH240224   2.229   4.967   2.168 -0.5048 -0.1873  0.4316
 6222TIP3    H140225   2.209   4.880   2.202 -0.0944 -0.3358  0.3065
 6222TIP3    H240226   2.154   5.021   2.193 -0.3589 -0.3687  1.2816
 6223TIP3   OH240227   0.493   3.359   1.297 -0.1382  0.1542  0.3556
 6223TIP3    H140228   0.566   3.301   1.319 -0.1870 -0.0060  0.1047
 6223TIP3    H240229   0.444   3.368   1.378 -0.2975 -0.3987  0.3222
 6224TIP3   OH240230   4.586   4.438   0.664 -0.1075 -0.3288  0.1417
 6224TIP3    H140231   4.532   4.491   0.722 -0.1267  1.8765 -1.7378
 6224TIP3    H240232   4.524   4.400   0.602  0.1403 -0.8819  0.2241
 6225TIP3   OH240233   3.058   2.402   1.070  0.6945  0.3519 -0.4545
 6225TIP3    H140234   3.009   2.402   0.988 -0.0364  1.9637 -0.0600
 6225TIP3    H240235   3.143   2.440   1.047  0.0119  2.0958 -0.2559
 6226TIP3   OH240236   1.245   3.236   8.791  0.4136  0.4722 -0.2369
 6226TIP3    H140237   1.192   3.296   8.844 -0.6113 -0.4920 -0.1444
 6226TIP3    H240238   1.196   3.154   8.791  1.3193 -0.0899 -1.1589
 6227TIP3   OH240239   3.060   4.472   7.597 -0.4438 -0.6432 -1.0079
 6227TIP3    H140240   3.044   4.479   7.503 -1.4162 -0.7673 -0.8592
 6227TIP3    H240241   2.978   4.499   7.638  0.0046 -0.4920 -0.1904
 6228TIP3   OH240242   5.194   1.692   8.393  0.1328 -0.2407  0.1139
 6228TIP3    H140243   5.108   1.660   8.368 -1.0772  2.5963  0.3451
 6228TIP3    H240244   5.253   1.654   8.327 -1.0805 -2.7925  0.3469
 6229TIP3   OH240245   3.679   2.918   7.079  0.2520 -0.3800 -0.7268
 6229TIP3    H140246   3.762   2.870   7.075 -0.2064 -1.3708  0.8672
 6229TIP3    H240247   3.674   2.952   7.168 -1.8258 -1.8403 -0.1980
 6230TIP3   OH240248   5.047   4.333   8.802  0.3419  0.2330  0.3862
 6230TIP3    H140249   5.014   4.331   8.892 -0.2236  0.9266  0.2007
 6230TIP3    H240250   4.969   4.333   8.747  0.6726  0.4141 -0.0902
 6231TIP3   OH240251   3.930   3.473   2.658  0.4697 -0.0679  0.0821
 6231TIP3    H140252   3.883   3.522   2.725  1.0451 -1.6597  1.7150
 6231TIP3    H240253   3.989   3.537   2.618 -1.7259  1.5333 -0.7924
 6232TIP3   OH240254   4.185   0.760   1.707  0.5147  0.3133 -0.7620
 6232TIP3    H140255   4.239   0.833   1.738 -1.7944  2.0142 -0.5365
 6232TIP3    H240256   4.233   0.681   1.735  1.7552  1.7283  1.3448
 6233TIP3   OH240257   2.655   3.074   0.097  0.0552 -0.9284  0.3212
 6233TIP3    H140258   2.617   3.041   0.016 -0.6536 -0.7056  0.5546
 6233TIP3    H240259   2.742   3.033   0.102 -0.4571 -2.0650  0.1633
 6234TIP3   OH240260   1.875   4.684   1.869  0.5797 -0.6329  0.3283
 6234TIP3    H140261   1.801   4.688   1.931  1.3308 -1.7779  1.3308
 6234TIP3    H240262   1.952   4.675   1.925  1.4170 -0.3313 -0.7500
 6235TIP3   OH240263   6.523   2.152   8.704  0.3574  0.5359  0.3164
 6235TIP3    H140264   6.459   2.138   8.635  1.3026  3.2599 -1.2880
 6235TIP3    H240265   6.560   2.065   8.722 -2.7029 -0.8761  0.3440
 6236TIP3   OH240266   0.114   6.631   8.844  0.3585  0.0330 -0.9934
 6236TIP3    H140267   0.138   6.636   8.751  0.8675 -0.2545 -0.8862
 6236TIP3    H240268   0.019   6.626   8.844  0.3707 -0.3463 -1.5270
 6237TIP3   OH240269   0.528   2.252   8.818  0.0409 -0.5248 -0.8414
 6237TIP3    H140270   0.591   2.323   8.831 -0.0696 -0.7281  0.9284
 6237TIP3    H240271   0.443   2.296   8.813 -0.0408 -0.5246  0.3765
 6238TIP3   OH240272   2.028   0.788   7.006  0.0725  0.4940  0.5938
 6238TIP3    H140273   2.029   0.840   6.926  0.3246 -0.2937  0.0721
 6238TIP3    H240274   2.118   0.758   7.017 -0.2344 -0.5528  0.3877
 6239TIP3   OH240275   3.426   5.250   7.393  0.0662 -0.3765 -0.4000
 6239TIP3    H140276   3.330   5.251   7.392  0.0267 -2.1109 -1.6757
 6239TIP3    H240277   3.448   5.220   7.481 -0.6432 -2.0356 -0.7509
 6240TIP3   OH240278   6.653   2.367   2.177 -0.1873  0.3786 -0.1648
 6240TIP3    H140279   6.646   2.450   2.224 -1.4428  1.7444 -2.5690
 6240TIP3    H240280   6.577   2.316   2.205 -0.6908  1.0015 -0.3913
 6241TIP3   OH240281   5.342   3.784   7.411  0.1674  0.0328 -0.4651
 6241TIP3    H140282   5.411   3.718   7.407  0.4316  0.2095  0.8557
 6241TIP3    H240283   5.270   3.746   7.360  0.6670 -0.8361 -0.5462
 6242TIP3   OH240284   1.504   5.829   0.754 -0.6550  0.3201 -0.4142
 6242TIP3    H140285   1.415   5.865   0.756 -0.5979  0.4300  0.1963
 6242TIP3    H240286   1.540   5.848   0.841  0.3385  1.2096 -1.0037
 6243TIP3   OH240287   1.522   6.588   2.327  0.0351 -0.1745  0.6864
 6243TIP3    H140288   1.519   6.571   2.232 -1.6845 -0.1723  0.7087
 6243TIP3    H240289   1.440   6.634   2.345 -1.6511 -3.6035  2.7849
 6244TIP3   OH240290   5.566   3.610   7.168 -0.2583  0.5092 -0.4734
 6244TIP3    H140291   5.635   3.545   7.184 -0.5958  0.3011  0.1995
 6244TIP3    H240292   5.566   3.663   7.247 -1.0987  0.2925 -0.3253
 6245TIP3   OH240293   2.247   2.052   7.275  0.0674 -0.2265 -0.1344
 6245TIP3    H140294   2.311   1.988   7.245 -0.0735 -0.8987  0.9461
 6245TIP3    H240295   2.284   2.137   7.251  2.2404 -0.4746  2.0175
 6246TIP3   OH240296   5.210   3.505   8.086  0.2994  0.2927 -0.1545
 6246TIP3    H140297   5.147   3.489   8.016 -0.6802 -0.0752  0.7910
 6246TIP3    H240298   5.157   3.510   8.166  1.3942  0.6816  0.5694
 6247TIP3   OH240299   1.807   4.823   8.041 -0.2977 -0.2746 -0.2128
 6247TIP3    H140300   1.896   4.792   8.057 -0.0945 -0.4408 -1.5379
 6247TIP3    H240301   1.760   4.745   8.011 -0.5487  0.0766 -0.7532
 6248TIP3   OH240302   6.514   6.700   7.593  0.5194 -0.4060  0.1721
 6248TIP3    H140303   6.479   6.773   7.541 -1.6936 -1.3834  0.1731
 6248TIP3    H240304   6.473   6.710   7.679  2.4258 -0.0687  1.0872
 6249TIP3   OH240305   4.703   4.873   0.126  0.1428 -0.1047 -0.7544
 6249TIP3    H140306   4.684   4.929   0.201 -0.1543 -1.8238  0.4858
 6249TIP3    H240307   4.670   4.923   0.051  2.3625  2.6493 -0.1045
 6250TIP3   OH240308   4.940   2.935   0.378  0.0698  0.0590  0.0617
 6250TIP3    H140309   5.010   2.871   0.377 -0.8490 -1.0861  2.1473
 6250TIP3    H240310   4.940   2.970   0.467 -0.5324  1.7325 -0.5530
 6251TIP3   OH240311   5.558   1.315   1.993  0.2420  0.2987  0.0380
 6251TIP3    H140312   5.626   1.383   1.998  2.0144 -1.4402  0.5912
 6251TIP3    H240313   5.513   1.321   2.077  1.0450  0.1469  0.4890
 6252TIP3   OH240314   5.027   2.103   0.086  0.8824  0.0489  0.0609
 6252TIP3    H140315   4.947   2.117   0.136  1.9001  0.8817  1.5433
 6252TIP3    H240316   5.033   2.009   0.075 -1.2434  0.0388 -1.7537
 6253TIP3   OH240317   4.298   3.408   0.610 -0.1087  0.0730 -0.3981
 6253TIP3    H140318   4.280   3.501   0.622  1.8373  0.4853 -0.4241
 6253TIP3    H240319   4.296   3.395   0.515 -0.2305  0.1155 -0.4016
 6254TIP3   OH240320   4.002   6.455   7.789  0.7223  0.0060  0.1270
 6254TIP3    H140321   3.995   6.389   7.720 -0.3671  0.7736 -0.5273
 6254TIP3    H240322   4.096   6.475   7.793  1.0221 -1.2597  0.0622
 6255TIP3   OH240323   0.713   5.651   0.119  0.2051 -0.0928 -0.0435
 6255TIP3    H140324   0.737   5.657   0.027  1.1181  1.0978  0.2534
 6255TIP3    H240325   0.720   5.558   0.140  0.6973 -0.2770 -0.9841
 6256TIP3   OH240326   5.830   1.015   6.918 -0.0214 -0.6889 -0.1691
 6256TIP3    H140327   5.792   0.931   6.940 -0.2908 -0.1707  1.4567
 6256TIP3    H240328   5.908   1.022   6.974  0.7205 -0.3897 -1.2000
 6257TIP3   OH240329   5.439   5.961   0.758 -0.9510 -0.3172  0.0228
 6257TIP3    H140330   5.446   6.053   0.786 -2.2973 -0.8308  2.3504
 6257TIP3    H240331   5.528   5.927   0.766 -0.6983  0.4269  0.5323
 6258TIP3   OH240332   1.147   0.075   1.979 -0.0562  0.0791  0.1099
 6258TIP3    H140333   1.225   0.030   2.012  0.5123 -0.7957 -2.1853
 6258TIP3    H240334   1.138   0.152   2.035  0.8922 -1.1642  2.0847
 6259TIP3   OH240335   0.682   6.611   1.210  0.1355 -0.6246  0.1965
 6259TIP3    H140336   0.668   6.693   1.257 -0.9761 -0.6019 -0.1406
 6259TIP3    H240337   0.617   6.551   1.247  0.0450 -0.9548 -0.4806
 6260TIP3   OH240338   4.722   2.186   0.221 -0.8012  0.2849 -0.1651
 6260TIP3    H140339   4.720   2.280   0.203  1.2326  0.3846 -0.0888
 6260TIP3    H240340   4.663   2.147   0.155  1.0846  1.2970 -2.6207
 6261TIP3   OH240341   6.097   0.102   7.817 -0.1781 -0.0458  0.3714
 6261TIP3    H140342   6.101   0.092   7.722 -1.6393 -3.5678  0.5288
 6261TIP3    H240343   6.036   0.175   7.831  1.5919  1.8443 -1.3183
 6262TIP3   OH240344   2.048   4.767   8.306  0.1251 -0.3772 -0.2729
 6262TIP3    H140345   2.004   4.694   8.262 -1.8354  0.4026  0.2931
 6262TIP3    H240346   2.053   4.836   8.239  1.0444 -0.6558 -0.5044
 6263TIP3   OH240347   5.509   5.909   1.996  0.4647 -0.4350  0.3678
 6263TIP3    H140348   5.463   5.993   1.995  0.2651 -0.4733  2.0738
 6263TIP3    H240349   5.583   5.924   2.054  0.6113 -1.3439  0.4193
 6264TIP3   OH240350   6.100   1.305   7.993 -0.1880  0.3806 -0.2475
 6264TIP3    H140351   6.050   1.308   7.911 -0.5635 -1.2151 -0.1049
 6264TIP3    H240352   6.173   1.247   7.974  0.5355  1.1503  0.1356
 6265TIP3   OH240353   4.150   0.025   8.655 -0.1701  0.0420  0.1093
 6265TIP3    H140354   4.176   0.010   8.746  0.1972 -0.5077 -0.0787
 6265TIP3    H240355   4.233   0.041   8.609 -0.2283 -0.8622 -0.3366
 6266TIP3   OH240356   2.778   6.064   7.808  0.1677 -0.0575 -0.3413
 6266TIP3    H140357   2.860   6.110   7.788 -0.6832  1.1822 -1.0726
 6266TIP3    H240358   2.718   6.090   7.738 -1.1561 -0.1818  0.7054
 6267TIP3   OH240359   5.856   1.008   2.891 -0.1153  0.1424 -0.2314
 6267TIP3    H140360   5.855   0.959   2.808  1.1436  1.2297 -0.9246
 6267TIP3    H240361   5.946   1.001   2.921 -0.4428  0.2108  0.7883
 6268TIP3   OH240362   5.440   2.486   8.836  0.1342 -0.2335 -0.4034
 6268TIP3    H140363   5.444   2.496   8.932  2.1926  1.1798 -0.5651
 6268TIP3    H240364   5.455   2.575   8.803 -1.1976 -0.5812 -2.0726
 6269TIP3   OH240365   2.432   3.926   8.564  0.0160 -0.1152 -0.1616
 6269TIP3    H140366   2.437   3.998   8.501  2.5204  0.9257  1.1017
 6269TIP3    H240367   2.523   3.906   8.586 -0.6385 -2.9501  0.4014
 6270TIP3   OH240368   5.840   2.458   1.763  0.0740  0.0751  0.2495
 6270TIP3    H140369   5.935   2.454   1.750 -0.1250  0.0743 -1.4946
 6270TIP3    H240370   5.829   2.472   1.857  1.7295 -2.5844  0.9575
 6271TIP3   OH240371   3.535   5.922   1.153 -0.5193 -0.0031  0.0266
 6271TIP3    H140372   3.532   5.827   1.156 -1.3962 -0.2579 -3.5006
 6271TIP3    H240373   3.456   5.951   1.198  0.2804 -0.7998  2.0483
 6272TIP3   OH240374   2.099   6.167   1.187 -0.1888 -0.1612 -0.0948
 6272TIP3    H140375   2.034   6.208   1.244  0.8795 -0.5093  1.4170
 6272TIP3    H240376   2.176   6.155   1.242  1.4442  0.8876 -1.9980
 6273TIP3   OH240377   0.833   4.522   8.050 -0.3079  0.4470 -0.4489
 6273TIP3    H140378   0.860   4.455   8.113 -1.9178 -0.1840 -0.3989
 6273TIP3    H240379   0.859   4.487   7.965  2.9130  1.7912 -0.2048
 6274TIP3   OH240380   5.020   3.879   8.593 -0.5583  0.1098 -0.0789
 6274TIP3    H140381   5.056   3.823   8.662  1.1408  0.4347 -0.6444
 6274TIP3    H240382   5.069   3.961   8.601  0.1903 -0.0903 -2.0904
 6275TIP3   OH240383   1.237   2.838   8.686  0.3532  1.5226  0.0979
 6275TIP3    H140384   1.201   2.749   8.678 -0.4132  1.7849  0.5853
 6275TIP3    H240385   1.308   2.840   8.621 -0.1074  0.7946 -0.4538
 6276TIP3   OH240386   3.784   3.587   2.367 -0.2186 -0.4852  0.3742
 6276TIP3    H140387   3.822   3.500   2.355 -0.6863 -0.9356  1.8850
 6276TIP3    H240388   3.837   3.626   2.437  1.3178  1.2973 -1.6558
 6277TIP3   OH240389   3.541   5.678   1.786 -0.0899 -0.0773  0.1496
 6277TIP3    H140390   3.626   5.641   1.761 -0.7533 -0.1208 -2.2330
 6277TIP3    H240391   3.516   5.629   1.865  1.9893 -0.1876  0.7860
 6278TIP3   OH240392   5.594   1.160   7.099 -0.2674 -0.3717 -0.7712
 6278TIP3    H140393   5.643   1.239   7.076 -2.4589  1.3620  0.1209
 6278TIP3    H240394   5.528   1.151   7.031 -0.2318 -1.2782 -0.7011
 6279TIP3   OH240395   1.209   3.463   1.438 -0.2328  0.2833 -0.0852
 6279TIP3    H140396   1.222   3.368   1.435  0.2683  0.3698 -1.3017
 6279TIP3    H240397   1.267   3.493   1.508 -0.8806 -0.3678  0.7499
 6280TIP3   OH240398   4.826   3.662   7.618 -0.3240 -0.1510  0.4557
 6280TIP3    H140399   4.767   3.712   7.674  0.3043  0.9367  0.1797
 6280TIP3    H240400   4.911   3.705   7.629  0.0780 -0.7182 -0.3410
 6281TIP3   OH240401   3.720   1.180   7.068 -0.2872  0.2325  0.4595
 6281TIP3    H140402   3.749   1.213   6.983 -1.3299 -0.9393 -0.3718
 6281TIP3    H240403   3.790   1.121   7.096 -1.4869 -2.1990 -1.3085
 6282TIP3   OH240404   1.167   1.781   1.524 -0.6429  0.3285  0.4636
 6282TIP3    H140405   1.081   1.763   1.561 -0.2436 -0.8817  0.8530
 6282TIP3    H240406   1.156   1.767   1.430 -1.3952  2.3820  0.1793
 6283TIP3   OH240407   3.970   1.035   1.841  0.1290  0.5940  0.2193
 6283TIP3    H140408   4.050   0.986   1.859 -0.8985 -1.1776  0.2905
 6283TIP3    H240409   3.917   0.974   1.789 -1.8804  0.9833  1.6878
 6284TIP3   OH240410   1.338   0.396   0.744  0.1859  0.6142  0.1289
 6284TIP3    H140411   1.308   0.305   0.756  0.2380  0.2022 -2.3441
 6284TIP3    H240412   1.262   0.442   0.709  0.9438  0.8174 -1.3084
 6285TIP3   OH240413   4.645   0.079   1.183 -0.1654 -0.6474  0.4462
 6285TIP3    H140414   4.596   0.123   1.113  0.9745 -0.9846 -0.5865
 6285TIP3    H240415   4.692   0.150   1.227 -0.9812 -0.4185  0.9754
 6286TIP3   OH240416   3.043   0.197   0.250 -0.2253  0.6165 -0.0937
 6286TIP3    H140417   3.038   0.292   0.236  0.0653  0.5466 -0.7423
 6286TIP3    H240418   2.964   0.176   0.299  1.0821  1.6185  2.6744
 6287TIP3   OH240419   3.792   2.652   0.688 -0.4551 -0.3776  0.4390
 6287TIP3    H140420   3.779   2.744   0.711 -2.8534 -0.7548  0.7872
 6287TIP3    H240421   3.819   2.610   0.770  0.7096 -0.0142  0.2651
 6288TIP3   OH240422   3.721   1.500   1.614 -0.0859  0.4449 -0.3345
 6288TIP3    H140423   3.729   1.410   1.583  0.4324  0.1389  0.6532
 6288TIP3    H240424   3.665   1.543   1.549 -0.4705 -0.6246 -0.7268
 6289TIP3   OH240425   5.040   5.914   7.626  0.1667  0.0465 -0.4156
 6289TIP3    H140426   5.069   5.993   7.581  0.2929  0.0677 -0.2980
 6289TIP3    H240427   5.081   5.842   7.578 -0.3002  0.0251 -0.7917
 6290TIP3   OH240428   2.533   2.171   1.484 -0.2914  0.6425 -0.3806
 6290TIP3    H140429   2.598   2.102   1.470  0.2903  1.1559 -0.2418
 6290TIP3    H240430   2.534   2.186   1.579  0.9452  2.1160 -0.5765
 6291TIP3   OH240431   1.461   0.994   2.056 -0.1063 -0.1313  0.5217
 6291TIP3    H140432   1.369   1.014   2.070  0.0903  0.7176  0.6617
 6291TIP3    H240433   1.506   1.078   2.062  0.6488 -0.4903  0.1749
 6292TIP3   OH240434   1.114   2.986   7.524  0.3065 -0.3981  0.6858
 6292TIP3    H140435   1.033   2.956   7.483  0.0751 -0.9696  1.5256
 6292TIP3    H240436   1.121   3.078   7.500  0.4812 -0.8279 -1.0902
 6293TIP3   OH240437   5.004   5.541   1.616 -0.8978  0.0682 -0.2071
 6293TIP3    H140438   5.029   5.529   1.708 -2.3199  0.2674  0.2194
 6293TIP3    H240439   5.039   5.463   1.572 -2.4834 -1.3795  0.9935
 6294TIP3   OH240440   3.810   3.254   1.142  0.1371 -0.0212 -0.1197
 6294TIP3    H140441   3.893   3.282   1.180  1.1984 -1.9676 -0.8601
 6294TIP3    H240442   3.782   3.182   1.199 -0.9137  0.4361 -0.0455
 6295TIP3   OH240443   1.943   0.153   1.354  0.0433 -0.5633  0.0552
 6295TIP3    H140444   1.948   0.114   1.267  0.1890  0.6883 -0.5168
 6295TIP3    H240445   2.026   0.130   1.395  1.7192  1.9622 -1.5525
 6296TIP3   OH240446   2.826   3.951   0.562 -0.3485 -1.1119 -0.0933
 6296TIP3    H140447   2.762   3.882   0.547 -2.7021  1.1326 -1.0501
 6296TIP3    H240448   2.799   3.992   0.645  0.9256 -1.2050  0.3979
 6297TIP3   OH240449   5.345   2.243   7.853  0.1740  0.2447 -0.1946
 6297TIP3    H140450   5.285   2.282   7.916 -0.7765 -0.1966 -0.8114
 6297TIP3    H240451   5.332   2.149   7.861 -0.3538  0.1879 -1.4012
 6298TIP3   OH240452   0.022   6.264   1.416  0.6294 -0.2311  0.1449
 6298TIP3    H140453  -0.049   6.321   1.444 -0.4650 -0.9477 -1.0519
 6298TIP3    H240454   0.102   6.313   1.436 -0.2478  2.4759 -2.2295
 6299TIP3   OH240455   4.944   1.113   0.416  0.5346 -0.3563  0.0159
 6299TIP3    H140456   4.996   1.145   0.343  0.9734 -1.8834 -0.3787
 6299TIP3    H240457   4.869   1.173   0.420 -0.0815 -0.8460 -2.4138
 6300TIP3   OH240458   0.854   4.698   8.550 -0.0048  0.0583  0.3411
 6300TIP3    H140459   0.844   4.707   8.644 -0.3891  0.1165  0.2973
 6300TIP3    H240460   0.798   4.767   8.513 -0.8436 -0.7446  0.0499
 6301TIP3   OH240461   2.262   6.136   2.118 -0.0666 -0.1117 -0.0419
 6301TIP3    H140462   2.209   6.175   2.049  0.8353 -0.0329 -0.7082
 6301TIP3    H240463   2.243   6.043   2.114 -0.6244 -0.0047  0.1392
 6302TIP3   OH240464   2.994   4.024   7.097 -0.6741  0.0639 -0.3738
 6302TIP3    H140465   2.924   3.961   7.080 -1.2388  0.2028  1.2180
 6302TIP3    H240466   2.951   4.109   7.098 -0.5053  0.1561  0.5888
 6303TIP3   OH240467   1.857   2.445   0.310  0.2150 -0.3706 -0.4926
 6303TIP3    H140468   1.918   2.512   0.342  1.4036 -2.0857  1.0782
 6303TIP3    H240469   1.895   2.363   0.339 -1.8588 -1.6717 -1.2296
 6304TIP3   OH240470   0.039   4.314   1.915  0.4965 -0.3035  0.2748
 6304TIP3    H140471  -0.003   4.359   1.989 -0.9731  0.9106 -1.2240
 6304TIP3    H240472   0.132   4.328   1.929  0.1672  1.4498  0.9709
 6305TIP3   OH240473   4.806   2.937   8.587  0.3247  0.5310  0.4610
 6305TIP3    H140474   4.828   3.018   8.540 -0.2238  0.7979  0.6572
 6305TIP3    H240475   4.794   2.965   8.678  0.6272  0.1429  0.6188
 6306TIP3   OH240476   6.323   5.745   7.477 -0.1197 -0.1365 -0.0288
 6306TIP3    H140477   6.323   5.797   7.557  1.8653  0.3297 -0.2911
 6306TIP3    H240478   6.392   5.783   7.423 -1.6395 -0.2016 -2.1537
 6307TIP3   OH240479   1.753   3.681   1.597 -0.1307 -0.2583  0.1332
 6307TIP3    H140480   1.657   3.686   1.601 -0.1638 -1.2966  0.9335
 6307TIP3    H240481   1.781   3.677   1.688  0.7659  1.1208 -0.0528
 6308TIP3   OH240482   0.440   4.962   7.605  0.0772 -0.2366  0.1363
 6308TIP3    H140483   0.507   4.895   7.611 -0.4424 -0.7186  0.6607
 6308TIP3    H240484   0.432   4.996   7.694  0.7381  0.9330 -0.2271
 6309TIP3   OH240485   5.524   6.385   7.149 -0.8354 -0.0666 -0.0337
 6309TIP3    H140486   5.607   6.369   7.105 -1.3913 -0.8079 -0.8674
 6309TIP3    H240487   5.543   6.376   7.242  0.4855  2.0101 -0.0439
 6310TIP3   OH240488   3.257   6.516   0.959 -0.7063  0.4548  0.6344
 6310TIP3    H140489   3.275   6.609   0.944  0.8994  0.0618 -0.1103
 6310TIP3    H240490   3.267   6.504   1.054 -0.7606  1.0142  0.7106
 6311TIP3   OH240491   6.488   1.094   0.301  0.5510  0.5581  0.2058
 6311TIP3    H140492   6.441   1.166   0.344  0.9457 -0.1271  1.8458
 6311TIP3    H240493   6.576   1.128   0.287 -0.0326  1.4176 -1.7848
 6312TIP3   OH240494   4.998   1.526   0.457  0.3741 -0.1826  0.3206
 6312TIP3    H140495   5.009   1.509   0.364  0.6246  2.4492 -0.1991
 6312TIP3    H240496   5.080   1.497   0.497  0.5830 -0.5828 -0.3926
 6313TIP3   OH240497   6.409   2.181   0.204 -0.3129 -0.1560 -0.4400
 6313TIP3    H140498   6.375   2.231   0.278  2.1207 -0.3516  0.9035
 6313TIP3    H240499   6.355   2.102   0.202 -0.5807 -0.0345  0.9712
 6314TIP3   OH240500   4.986   3.084   0.596 -0.1659  0.4668  0.1669
 6314TIP3    H140501   4.985   3.081   0.692 -1.3359 -0.5559  0.1607
 6314TIP3    H240502   4.919   3.149   0.574 -0.6141 -0.0220  0.0558
 6315TIP3   OH240503   1.059   3.779   1.917  0.5350  0.3513  0.3106
 6315TIP3    H140504   0.990   3.760   1.979 -0.4201 -0.4981 -0.9575
 6315TIP3    H240505   1.140   3.765   1.965 -0.0882 -3.5852  0.5298
 6316TIP3   OH240506   4.370   5.455   0.632  0.0511 -0.3539  0.4088
 6316TIP3    H140507   4.384   5.549   0.637  0.8105 -0.4176 -0.3218
 6316TIP3    H240508   4.402   5.422   0.716  0.8402 -0.0736  0.2254
 6317TIP3   OH240509   6.043   2.054   7.398 -0.1591  0.5816  0.3106
 6317TIP3    H140510   5.976   2.003   7.442  1.5634  0.0349  2.5066
 6317TIP3    H240511   6.076   2.113   7.466  3.0213 -0.6863  0.0473
 6318TIP3   OH240512   0.793   3.414   1.166  0.7925  0.3520  0.7823
 6318TIP3    H140513   0.836   3.400   1.082  0.9743 -0.8602  1.0526
 6318TIP3    H240514   0.776   3.326   1.199 -1.7389  0.7432  0.7792
 6319TIP3   OH240515   2.567   0.156   0.674  0.7024 -0.0807  0.2729
 6319TIP3    H140516   2.493   0.118   0.723 -0.7005 -0.6176 -2.0898
 6319TIP3    H240517   2.604   0.081   0.627  2.1025  0.3825  0.6194
 6320TIP3   OH240518   2.610   1.091   8.072  0.8376 -0.0251 -0.0361
 6320TIP3    H140519   2.533   1.138   8.103  0.1407 -0.7360 -0.6184
 6320TIP3    H240520   2.655   1.062   8.151  0.6763  0.6553  0.3111
 6321TIP3   OH240521   5.870   1.622   1.307 -0.1993  0.6603 -0.7728
 6321TIP3    H140522   5.853   1.529   1.297  0.9490  0.3397  0.0047
 6321TIP3    H240523   5.801   1.665   1.256  0.3567 -0.6309 -2.7451
 6322TIP3   OH240524   3.612   1.912   2.493 -0.5069  0.2269  0.5432
 6322TIP3    H140525   3.531   1.878   2.454 -1.7594  0.4773  2.7570
 6322TIP3    H240526   3.583   1.960   2.571  1.4731  3.4303 -0.4739
 6323TIP3   OH240527   5.943   2.908   1.328  0.2487 -0.0780  0.5285
 6323TIP3    H140528   6.025   2.957   1.323 -0.3859  1.0270  0.5506
 6323TIP3    H240529   5.899   2.928   1.245 -0.4020  0.0842  0.9113
 6324TIP3   OH240530   3.082   4.172   7.645 -0.0882  0.9707  0.0469
 6324TIP3    H140531   3.085   4.219   7.562  0.0208  2.0647  0.6516
 6324TIP3    H240532   2.993   4.185   7.677 -0.0611  0.7469  0.2178
 6325TIP3   OH240533   3.532   2.534   7.861 -0.7403  0.9923 -0.1641
 6325TIP3    H140534   3.444   2.531   7.822 -1.0295  1.2683  0.4532
 6325TIP3    H240535   3.561   2.625   7.847 -0.6043  0.9368 -0.2485
 6326TIP3   OH240536   6.000   0.871   7.886  1.2133  0.3170  0.1464
 6326TIP3    H140537   5.931   0.911   7.939  1.7816  0.2116  0.9727
 6326TIP3    H240538   5.979   0.898   7.796  0.0759  0.2494  0.3752
 6327TIP3   OH240539   4.259   2.219   1.120 -0.1527  0.0377  0.3337
 6327TIP3    H140540   4.293   2.308   1.122 -0.5390  0.2120 -0.3779
 6327TIP3    H240541   4.303   2.174   1.192  0.9246  0.4879 -0.0257
 6328TIP3   OH240542   6.318   1.051   7.620  0.0731  0.0264 -0.2065
 6328TIP3    H140543   6.377   1.009   7.557  0.5561 -2.0808  1.5152
 6328TIP3    H240544   6.368   1.126   7.652  0.9145 -0.4139 -0.4286
 6329TIP3   OH240545   5.369   4.023   1.337 -0.4915 -0.1456 -0.4625
 6329TIP3    H140546   5.366   3.941   1.385 -0.7097 -0.1341 -0.4569
 6329TIP3    H240547   5.293   4.021   1.280  0.3984 -0.6904 -1.6788
 6330TIP3   OH240548   0.107   0.418   8.001  0.2439 -0.0419 -0.6558
 6330TIP3    H140549   0.111   0.404   7.906 -1.2592  0.3881 -0.8055
 6330TIP3    H240550   0.020   0.455   8.016  0.4955 -0.0259  0.8907
 6331TIP3   OH240551   2.410   0.338   1.347  0.2415 -0.0486  0.0827
 6331TIP3    H140552   2.498   0.342   1.308 -0.2458 -0.5423 -1.1253
 6331TIP3    H240553   2.367   0.267   1.300 -1.5843  1.7086 -1.0650
 6332TIP3   OH240554   5.258   1.240   8.630 -0.4174 -0.2159 -0.1659
 6332TIP3    H140555   5.185   1.273   8.682  0.4806 -0.2772  1.2065
 6332TIP3    H240556   5.245   1.277   8.543 -0.3399  2.4490  0.8746
 6333TIP3   OH240557   1.157   5.615   6.145 -0.2853 -0.1312 -0.0206
 6333TIP3    H140558   1.105   5.546   6.186 -1.0445 -0.9282 -2.1632
 6333TIP3    H240559   1.112   5.696   6.170 -1.6743 -0.7017 -0.5418
 6334TIP3   OH240560   0.456   4.850   8.544 -0.2385  0.1618 -0.0067
 6334TIP3    H140561   0.512   4.782   8.508 -0.1430 -0.0474  0.5323
 6334TIP3    H240562   0.516   4.915   8.580 -0.3442 -0.1441  0.7212
 6335TIP3   OH240563   3.699   6.068   0.911 -0.0367 -0.1483 -0.6390
 6335TIP3    H140564   3.651   6.011   0.971  0.8397 -1.6786 -1.3183
 6335TIP3    H240565   3.641   6.076   0.835 -0.8026  1.1308  0.0577
 6336TIP3   OH240566   1.857   4.120   7.550  0.5966  0.8325  0.8621
 6336TIP3    H140567   1.939   4.143   7.594 -0.1604  4.2649  0.7092
 6336TIP3    H240568   1.840   4.192   7.490 -1.2300 -1.0762 -1.1052
 6337TIP3   OH240569   3.442   0.727   8.254 -0.7998 -0.0926  1.1786
 6337TIP3    H140570   3.394   0.716   8.336 -2.9018  2.9873  0.5172
 6337TIP3    H240571   3.529   0.755   8.281 -0.5340 -1.8654  2.3366
 6338TIP3   OH240572   3.944   2.209   0.984  0.5734  0.2224 -0.2322
 6338TIP3    H140573   3.958   2.237   1.074 -0.0006  0.5217 -0.2305
 6338TIP3    H240574   4.024   2.163   0.960  0.8585  0.4238  0.3227
 6339TIP3   OH240575   3.338   1.721   1.929 -0.6607 -0.4762  0.0203
 6339TIP3    H140576   3.379   1.786   1.872 -0.7568  0.3269  0.8264
 6339TIP3    H240577   3.302   1.773   2.002  0.6942 -1.5817  1.5503
 6340TIP3   OH240578   0.846   2.322   1.297  0.0430  0.1977 -0.2213
 6340TIP3    H140579   0.897   2.243   1.278 -0.7545 -0.6332  0.9531
 6340TIP3    H240580   0.761   2.305   1.257 -0.4458  0.0285  0.8794
 6341TIP3   OH240581   5.493   5.648   0.648  0.0824  0.4673  0.1817
 6341TIP3    H140582   5.534   5.572   0.689  2.2448  3.0110  3.1649
 6341TIP3    H240583   5.407   5.654   0.690 -0.3881 -0.6044 -0.5647
 6342TIP3   OH240584   6.198   0.795   6.793  0.9300  0.5597 -0.5764
 6342TIP3    H140585   6.125   0.748   6.832  2.0846 -1.3901 -0.6302
 6342TIP3    H240586   6.165   0.883   6.777 -0.3103  0.7662  2.5697
 6343TIP3   OH240587   4.315   5.053   1.837  0.1335  0.3871  0.3755
 6343TIP3    H140588   4.246   5.116   1.816 -0.3784  1.2404  4.0053
 6343TIP3    H240589   4.393   5.107   1.848  1.1345 -0.4014 -2.1331
 6344TIP3   OH240590   1.882   2.682   8.108 -0.0388 -0.3536 -0.2082
 6344TIP3    H140591   1.888   2.682   8.203 -0.9151  1.9918 -0.1028
 6344TIP3    H240592   1.788   2.689   8.089  0.2165  0.8580 -1.1833
 6345TIP3   OH240593   2.693   5.890   8.945  0.1866 -0.0347  0.0630
 6345TIP3    H140594   2.765   5.936   8.988 -1.1416  1.6196  0.6236
 6345TIP3    H240595   2.675   5.942   8.866 -1.8550  0.9396  1.1029
 6346TIP3   OH240596   2.208   2.250   7.764  0.0218 -0.8540 -0.2289
 6346TIP3    H140597   2.241   2.215   7.681 -0.0065  0.4757 -0.8155
 6346TIP3    H240598   2.140   2.187   7.791  0.9949 -2.0482 -0.4737
 6347TIP3   OH240599   1.476   1.071   7.118 -0.5627 -0.5199  0.6927
 6347TIP3    H140600   1.479   0.983   7.080 -1.1267  0.2568 -1.2228
 6347TIP3    H240601   1.399   1.112   7.079 -1.2114  0.3499  2.7311
 6348TIP3   OH240602   1.167   4.382   8.423  0.0196  0.0212 -0.0852
 6348TIP3    H140603   1.201   4.295   8.402 -1.5702 -1.1615  1.8813
 6348TIP3    H240604   1.148   4.379   8.517 -0.9799  2.1808 -0.1400
 6349TIP3   OH240605   6.374   1.036   0.724  0.6571 -0.4468 -0.2620
 6349TIP3    H140606   6.467   1.014   0.723  0.6522 -0.5211  0.4122
 6349TIP3    H240607   6.333   0.962   0.768  0.4961  0.3666  0.9994
 6350TIP3   OH240608   3.044   1.404   0.956  0.1911  0.2666 -0.0180
 6350TIP3    H140609   3.023   1.492   0.927 -3.6505  0.5575  2.8884
 6350TIP3    H240610   3.135   1.409   0.986 -0.1573  3.5087  0.8378
 6351TIP3   OH240611   5.505   3.573   2.476 -0.3911 -0.4380 -0.1784
 6351TIP3    H140612   5.483   3.520   2.552 -2.7627 -0.8337 -1.0396
 6351TIP3    H240613   5.550   3.513   2.417  0.3447 -0.4584  0.3959
 6352TIP3   OH240614   0.839   1.484   0.667 -0.4266 -0.5251  0.2875
 6352TIP3    H140615   0.774   1.426   0.627  1.3534 -2.4446 -0.0064
 6352TIP3    H240616   0.876   1.533   0.593  0.1303 -1.1989  0.1166
 6353TIP3   OH240617   1.886   0.249   7.793 -0.7725  0.9334 -0.7242
 6353TIP3    H140618   1.965   0.270   7.842 -0.9275 -2.7607  1.4971
 6353TIP3    H240619   1.819   0.308   7.829  0.3291  2.2094 -0.6828
 6354TIP3   OH240620   3.457   2.138   8.641 -0.6078  0.2184  0.1133
 6354TIP3    H140621   3.470   2.083   8.719  0.7900  0.7048  0.2598
 6354TIP3    H240622   3.384   2.097   8.595 -1.4595 -0.0962  1.6627
 6355TIP3   OH240623   5.229   5.405   8.485 -0.4152  0.3891 -0.0404
 6355TIP3    H140624   5.232   5.499   8.470 -0.2061  0.4162  0.1656
 6355TIP3    H240625   5.308   5.386   8.536  0.0339 -0.0340 -0.8725
 6356TIP3   OH240626   0.170   2.569   7.353  0.3545  0.1002 -0.2539
 6356TIP3    H140627   0.223   2.494   7.326  0.5821 -0.5932  1.9819
 6356TIP3    H240628   0.233   2.630   7.391 -0.1235  0.4442 -0.0138
 6357TIP3   OH240629   5.225   3.188   8.640 -0.2068  1.0525 -0.2835
 6357TIP3    H140630   5.193   3.196   8.730  0.7285 -0.4195  0.2141
 6357TIP3    H240631   5.292   3.256   8.633 -0.2600  1.1539  0.1408
 6358TIP3   OH240632   5.649   4.812   8.476  0.2387 -0.3564  0.1877
 6358TIP3    H140633   5.673   4.720   8.486  0.6050 -0.2191  0.5946
 6358TIP3    H240634   5.732   4.859   8.468  0.1020  0.0423  0.9474
 6359TIP3   OH240635   4.677   4.582   7.926 -0.3644  0.2951  0.8383
 6359TIP3    H140636   4.723   4.665   7.941  0.2275  0.2250 -0.4782
 6359TIP3    H240637   4.714   4.522   7.990  0.8615  0.4378  0.2746
 6360TIP3   OH240638   1.008   1.714   7.817  0.7068  0.0947 -0.0222
 6360TIP3    H140639   1.013   1.790   7.758  0.0846 -0.6351 -1.0570
 6360TIP3    H240640   1.077   1.729   7.881  0.9575  1.2629 -0.5316
 6361TIP3   OH240641   4.121   5.721   2.315  0.9110 -0.0030  0.2896
 6361TIP3    H140642   4.065   5.698   2.389  0.6873 -1.1526 -0.2078
 6361TIP3    H240643   4.159   5.637   2.288  2.2283  0.6319  0.0968
 6362TIP3   OH240644   4.457   5.207   7.587  0.2479  0.0413 -0.5191
 6362TIP3    H140645   4.444   5.212   7.682  1.7510 -0.7643 -0.2461
 6362TIP3    H240646   4.419   5.122   7.563  1.5716 -0.6372 -0.3046
 6363TIP3   OH240647   5.959   6.409   8.491  0.3204 -0.1751 -0.4702
 6363TIP3    H140648   5.875   6.448   8.469 -0.7262 -2.7759 -1.5094
 6363TIP3    H240649   5.937   6.330   8.540  2.1838 -0.5818 -0.2097
 6364TIP3   OH240650   4.625   5.372   7.329 -0.0359  0.3659 -0.2234
 6364TIP3    H140651   4.667   5.308   7.271 -0.5083  0.8004 -1.0628
 6364TIP3    H240652   4.671   5.454   7.312 -0.0264  0.4435  0.1852
 6365TIP3   OH240653   0.639   5.148   0.252 -0.3925  0.7603  0.1121
 6365TIP3    H140654   0.614   5.080   0.315  0.5657 -0.3127 -0.6123
 6365TIP3    H240655   0.567   5.211   0.254  0.1314  1.4194  3.1432
 6366TIP3   OH240656   5.198   2.638   0.674 -0.2591  0.2841 -0.0758
 6366TIP3    H140657   5.217   2.550   0.641 -0.5386 -0.0646  0.6668
 6366TIP3    H240658   5.273   2.659   0.730 -1.3290 -0.4992  1.7039
 6367TIP3   OH240659   4.315   0.569   1.789  0.0084  0.4064  0.7782
 6367TIP3    H140660   4.279   0.490   1.829 -1.1349 -0.3203 -1.5131
 6367TIP3    H240661   4.409   0.555   1.789 -0.1246 -0.5571  1.2038
 6368TIP3   OH240662   0.859   1.840   1.534  0.3698 -0.7439  0.4513
 6368TIP3    H140663   0.851   1.842   1.439  0.6167  0.0006  0.4380
 6368TIP3    H240664   0.785   1.892   1.566  2.2172  2.1285  0.4966
 6369TIP3   OH240665   0.062   3.870   2.409  0.2953 -0.0370 -0.5562
 6369TIP3    H140666   0.149   3.867   2.448 -0.7549 -1.5610  1.8515
 6369TIP3    H240667   0.011   3.926   2.467 -1.1023 -1.6888 -0.1104
 6370TIP3   OH240668   4.795   6.217   2.426 -0.2936 -0.2152 -0.6430
 6370TIP3    H140669   4.706   6.213   2.460 -0.4100 -0.8523 -1.0067
 6370TIP3    H240670   4.788   6.186   2.336  0.2617 -0.0534 -0.7484
 6371TIP3   OH240671   2.330   1.430   1.038  0.3374  0.2096 -0.3844
 6371TIP3    H140672   2.266   1.393   0.976 -1.0036  2.0841 -0.2088
 6371TIP3    H240673   2.295   1.409   1.124  1.4127 -1.0837 -0.2328
 6372TIP3   OH240674   6.227   2.395   6.640  0.0903  0.0954 -0.0501
 6372TIP3    H140675   6.180   2.313   6.659 -1.3708  0.8684 -0.1855
 6372TIP3    H240676   6.209   2.411   6.547 -0.6101  1.1658  0.2610
 6373TIP3   OH240677   1.867   0.569   2.028  0.4386 -0.0994 -0.6586
 6373TIP3    H140678   1.785   0.547   1.983  0.5197 -0.5227 -0.5975
 6373TIP3    H240679   1.935   0.525   1.977  0.6894  0.6669 -1.0105
 6374TIP3   OH240680   4.014   1.382   3.009  0.7054  0.4987 -0.1073
 6374TIP3    H140681   4.074   1.362   2.938  1.2133  0.0575  0.4420
 6374TIP3    H240682   3.934   1.412   2.965  0.7042 -0.6046 -0.8861
 6375TIP3   OH240683   5.194   5.129   6.573 -0.1814 -0.0468  0.2432
 6375TIP3    H140684   5.140   5.117   6.651 -1.2902  0.5716 -0.3955
 6375TIP3    H240685   5.130   5.142   6.502  0.7811  1.8884 -0.3436
 6376TIP3   OH240686   4.311   0.986   0.612 -0.2623 -0.2794 -0.2359
 6376TIP3    H140687   4.364   0.918   0.652  0.5776 -0.1103 -1.0242
 6376TIP3    H240688   4.330   1.065   0.663 -0.0472 -0.3031 -0.2786
 6377TIP3   OH240689   4.426   0.891   0.291  0.2400 -0.4920 -0.6321
 6377TIP3    H140690   4.409   0.968   0.345 -1.2175 -0.1489 -1.5455
 6377TIP3    H240691   4.485   0.837   0.344 -0.0275  0.4870  0.6984
 6378TIP3   OH240692   3.007   3.946   0.871 -0.2294  0.3463  0.0846
 6378TIP3    H140693   2.943   3.921   0.939 -0.3539  1.2120  0.2992
 6378TIP3    H240694   3.076   3.880   0.878 -0.1289  0.5544  1.2175
 6379TIP3   OH240695   4.433   4.649   1.117 -0.4992 -0.6086 -0.5973
 6379TIP3    H140696   4.395   4.717   1.061  0.5423  0.2176 -0.3332
 6379TIP3    H240697   4.364   4.627   1.178 -1.3689 -0.9040 -1.6510
 6380TIP3   OH240698   3.409   3.985   8.827  0.0195  0.2888 -0.2320
 6380TIP3    H140699   3.363   4.058   8.785 -2.3452  0.0434  1.6733
 6380TIP3    H240700   3.428   3.924   8.756  0.5230  1.9513 -1.6014
 6381TIP3   OH240701   3.877   0.104   7.078 -0.0280  0.1334 -0.0521
 6381TIP3    H140702   3.871   0.009   7.067 -0.8729  0.1237  0.3894
 6381TIP3    H240703   3.966   0.126   7.049  1.0720 -1.1279  2.0690
 6382TIP3   OH240704   0.609   1.790   2.328 -0.7854 -1.1646 -0.4235
 6382TIP3    H140705   0.684   1.731   2.330  0.6532  0.5986 -0.0416
 6382TIP3    H240706   0.547   1.753   2.391 -0.7990 -3.2827 -1.5879
 6383TIP3   OH240707   0.493   1.424   1.276  0.0153 -0.3814  0.1435
 6383TIP3    H140708   0.495   1.481   1.199 -0.0367  2.0621  1.8364
 6383TIP3    H240709   0.403   1.430   1.308  0.6114  0.6675  1.7582
 6384TIP3   OH240710   6.154   3.547   6.519 -0.3254  0.2057  0.2723
 6384TIP3    H140711   6.245   3.530   6.496  0.5524  2.6670  1.5438
 6384TIP3    H240712   6.115   3.583   6.439  0.3378  0.8032  0.2045
 6385TIP3   OH240713   6.664   1.570   8.825 -0.1101 -0.5831  0.1715
 6385TIP3    H140714   6.712   1.636   8.775  0.3331 -0.7199  0.4109
 6385TIP3    H240715   6.713   1.562   8.907 -0.8963 -0.2808  0.6791
 6386TIP3   OH240716   4.987   5.367   1.027 -0.3094 -0.0505 -0.0544
 6386TIP3    H140717   4.978   5.374   1.122 -0.9540 -1.6743  0.0368
 6386TIP3    H240718   4.963   5.277   1.007  0.8804 -0.0695 -1.6520
 6387TIP3   OH240719   2.960   2.324   0.800  0.4948  0.9653  0.0462
 6387TIP3    H140720   2.964   2.229   0.812 -3.0072  0.4601 -1.5490
 6387TIP3    H240721   2.999   2.339   0.714  3.4505  1.4438  1.3482
 6388TIP3   OH240722   0.964   3.028   8.049  0.2766  0.4711 -0.0961
 6388TIP3    H140723   0.954   3.037   8.144  1.0739 -0.4323  0.0921
 6388TIP3    H240724   1.012   2.946   8.038  0.3931  0.6837 -1.2718
 6389TIP3   OH240725   5.735   4.836   6.851 -0.1182  0.0887 -0.1772
 6389TIP3    H140726   5.713   4.927   6.833 -0.5456 -0.0516 -0.3753
 6389TIP3    H240727   5.830   4.837   6.867 -0.4028  0.8352  1.6635
 6390TIP3   OH240728   2.374   0.495   7.735 -0.5955 -0.4709  0.1299
 6390TIP3    H140729   2.373   0.403   7.711 -1.3140 -0.1921 -0.9678
 6390TIP3    H240730   2.467   0.518   7.740 -0.4106 -1.3212  0.7264
 6391TIP3   OH240731   4.976   1.322   1.998 -0.1665 -0.3870  0.3837
 6391TIP3    H140732   4.938   1.374   2.069 -0.6156 -1.2401  0.7895
 6391TIP3    H240733   5.027   1.384   1.947 -1.8397  0.7295  0.0178
 6392TIP3   OH240734   3.662   6.596   1.217  0.0847 -0.0731  0.5015
 6392TIP3    H140735   3.725   6.596   1.289  1.5629 -2.5290 -0.6214
 6392TIP3    H240736   3.580   6.565   1.256  0.3871  0.3011  1.4479
 6393TIP3   OH240737   5.736   2.380   7.025 -0.2447 -0.2306 -0.1609
 6393TIP3    H140738   5.752   2.437   7.100 -0.4339 -0.8585  0.3659
 6393TIP3    H240739   5.752   2.291   7.058  0.5448 -0.4580 -1.1061
 6394TIP3   OH240740   2.050   2.037   7.467 -0.1393  0.7891  0.0284
 6394TIP3    H140741   2.017   2.087   7.393 -1.6902 -0.5053 -0.2102
 6394TIP3    H240742   2.143   2.023   7.446 -0.8457 -0.8593 -2.5055
 6395TIP3   OH240743   1.277   5.136   7.106  0.3987  0.3154  0.2900
 6395TIP3    H140744   1.322   5.125   7.022  0.3588 -1.5781  0.4720
 6395TIP3    H240745   1.326   5.079   7.167 -2.2318 -1.9612  0.4677
 6396TIP3   OH240746   0.042   2.864   6.881 -0.0869  0.2135  0.4229
 6396TIP3    H140747   0.008   2.844   6.968 -0.3078  3.0600  1.0670
 6396TIP3    H240748  -0.024   2.921   6.841  1.2077  1.0822 -0.5781
 6397TIP3   OH240749   1.977   5.089   2.276  0.9028  0.1745  0.5298
 6397TIP3    H140750   1.910   5.044   2.328  0.8304 -1.8228 -1.1680
 6397TIP3    H240751   1.935   5.170   2.249  1.1471  1.6148  3.9592
 6398TIP3   OH240752   3.073   0.681   0.204 -0.1815 -0.0424  0.2067
 6398TIP3    H140753   3.139   0.715   0.265 -0.0504  1.7244 -0.8428
 6398TIP3    H240754   3.097   0.718   0.119 -0.5252 -2.2096 -0.9042
 6399TIP3   OH240755   3.470   3.795   0.316 -0.4493 -0.3872 -0.3459
 6399TIP3    H140756   3.405   3.797   0.386 -0.1931  0.1632 -0.1154
 6399TIP3    H240757   3.503   3.705   0.316 -0.0722 -0.2582  0.5960
 6400TIP3   OH240758   4.419   1.503   8.516  0.7538 -0.2767 -0.5878
 6400TIP3    H140759   4.470   1.455   8.581  3.0115  1.1234 -1.1984
 6400TIP3    H240760   4.394   1.585   8.560 -1.5008 -1.1237 -0.1398
 6401TIP3   OH240761   4.404   2.316   2.514 -0.5588  0.0346 -0.2309
 6401TIP3    H140762   4.420   2.326   2.608 -0.4552  0.5408 -0.2978
 6401TIP3    H240763   4.484   2.347   2.473 -0.4412 -0.5846 -0.4786
 6402TIP3   OH240764   4.567   4.196   7.392 -0.2775  0.2967 -0.0485
 6402TIP3    H140765   4.645   4.204   7.447  0.9908  1.4408 -1.8978
 6402TIP3    H240766   4.524   4.281   7.400  0.2734  0.7181 -1.2544
 6403TIP3   OH240767   2.346   2.168   8.510 -0.1549  0.1821  0.0389
 6403TIP3    H140768   2.342   2.258   8.478  3.1678  0.5571  0.2817
 6403TIP3    H240769   2.276   2.122   8.464 -0.0284  2.2374 -2.3903
 6404TIP3   OH240770   4.880   2.978   0.124 -0.1015  0.4446  0.0659
 6404TIP3    H140771   4.813   3.046   0.114  0.5928  0.9875 -1.1227
 6404TIP3    H240772   4.885   2.964   0.219 -2.2230  0.0200  0.1534
 6405TIP3   OH240773   0.571   0.398   1.680 -0.1299 -0.4449  0.0323
 6405TIP3    H140774   0.486   0.438   1.699 -0.3436 -1.6342  1.7921
 6405TIP3    H240775   0.630   0.472   1.669 -0.8288  0.3993  1.6135
 6406TIP3   OH240776   3.378   4.963   0.804 -0.0325  0.0702 -0.2263
 6406TIP3    H140777   3.466   4.933   0.827 -0.0580  1.3340  1.7333
 6406TIP3    H240778   3.388   5.000   0.716  1.3430 -0.0333 -0.1341
 6407TIP3   OH240779   6.590   6.514   1.408 -0.0425 -0.2959 -0.0655
 6407TIP3    H140780   6.673   6.547   1.374  0.9553 -0.8516  1.6922
 6407TIP3    H240781   6.543   6.482   1.330  0.8628  1.0692 -1.2279
 6408TIP3   OH240782   3.448   0.973   0.252  0.2160  0.1110  0.3965
 6408TIP3    H140783   3.519   0.979   0.188  0.4833  0.4834  0.7236
 6408TIP3    H240784   3.379   1.028   0.216  0.0010 -0.4175 -0.0266
 6409TIP3   OH240785   1.506   2.223   7.651 -0.4449 -0.3004 -0.2226
 6409TIP3    H140786   1.552   2.163   7.593  0.4719 -1.0657  1.2480
 6409TIP3    H240787   1.566   2.297   7.662  0.6838 -1.4341  1.9355
 6410TIP3   OH240788   6.493   2.289   0.475  0.0440 -0.0206  0.9197
 6410TIP3    H140789   6.520   2.210   0.428 -1.2253  1.0565 -1.7869
 6410TIP3    H240790   6.539   2.360   0.431 -0.7256  0.9887  1.7130
 6411TIP3   OH240791   4.736   2.575   8.272 -0.6011  0.2276  0.2190
 6411TIP3    H140792   4.669   2.510   8.255  0.3248 -0.4531 -0.9155
 6411TIP3    H240793   4.705   2.621   8.351 -1.4268 -1.3468  0.8535
 6412TIP3   OH240794   6.629   4.108   1.845 -0.3006  0.3336 -0.1657
 6412TIP3    H140795   6.673   4.191   1.859  0.5997 -0.1012 -0.3582
 6412TIP3    H240796   6.552   4.130   1.792 -1.2032  1.3202  1.4596
 6413TIP3   OH240797   4.875   5.447   0.166 -0.6397  0.4254  0.2127
 6413TIP3    H140798   4.848   5.472   0.254 -0.9455  0.9169 -0.0213
 6413TIP3    H240799   4.887   5.352   0.171 -1.1916  0.3767  0.6352
 6414TIP3   OH240800   2.989   3.150   8.676  0.0292  0.0524  0.6794
 6414TIP3    H140801   3.043   3.144   8.598 -2.2808 -1.8764 -0.9113
 6414TIP3    H240802   3.047   3.185   8.744  2.3054  1.1182 -1.6849
 6415TIP3   OH240803   4.957   5.774   6.311 -0.6076  0.2457  0.2467
 6415TIP3    H140804   4.903   5.819   6.376 -0.2464 -0.2737  0.9082
 6415TIP3    H240805   5.036   5.828   6.306 -1.0504  0.8494 -0.5166
 6416TIP3   OH240806   1.553   3.397   7.115 -0.5211 -0.5534  0.2176
 6416TIP3    H140807   1.569   3.367   7.205 -2.3240  2.7730  1.8786
 6416TIP3    H240808   1.476   3.347   7.087 -1.3094 -0.1010  1.4627
 6417TIP3   OH240809   1.246   6.417   2.250 -0.0638  0.5314 -0.0417
 6417TIP3    H140810   1.307   6.369   2.306  0.0420  0.3330 -0.3246
 6417TIP3    H240811   1.241   6.504   2.289 -0.6794  0.1351  0.7954
 6418TIP3   OH240812   0.517   0.777   8.689 -0.2544 -0.1377 -0.1052
 6418TIP3    H140813   0.599   0.805   8.730  0.0428 -0.8976 -0.1641
 6418TIP3    H240814   0.522   0.681   8.688 -0.8862 -0.1726 -0.6378
 6419TIP3   OH240815   2.360   4.998   1.673 -0.0444 -0.0169  0.5544
 6419TIP3    H140816   2.335   4.918   1.719  1.7690 -1.0261 -0.1434
 6419TIP3    H240817   2.426   5.039   1.729  1.6332 -0.8751 -0.7232
 6420TIP3   OH240818   0.954   0.418   1.079  0.1143  0.9256  0.1316
 6420TIP3    H140819   0.921   0.468   1.155 -0.9912 -0.8731  0.9077
 6420TIP3    H240820   0.876   0.398   1.028  0.0953 -2.0204  1.1262
 6421TIP3   OH240821   0.479   2.218   0.631 -0.4518 -0.6458  0.2279
 6421TIP3    H140822   0.456   2.149   0.693 -0.2825 -0.2922  0.6903
 6421TIP3    H240823   0.403   2.277   0.632 -0.1960 -0.3163  0.5643
 6422TIP3   OH240824   3.858   6.128   6.933  0.2890  0.3901 -0.7672
 6422TIP3    H140825   3.798   6.054   6.929  0.9753 -0.2419  0.2489
 6422TIP3    H240826   3.945   6.088   6.934  0.6802  1.2243 -0.5054
 6423TIP3   OH240827   2.715   0.070   7.882  0.7727 -0.0887  0.2467
 6423TIP3    H140828   2.809   0.055   7.895  0.8350 -0.5728 -0.7000
 6423TIP3    H240829   2.696   0.031   7.797  0.0805  1.6459 -0.4205
 6424TIP3   OH240830   5.495   0.625   0.409  0.1238  0.4150 -0.2763
 6424TIP3    H140831   5.455   0.621   0.322  0.9705  1.2044 -0.7247
 6424TIP3    H240832   5.589   0.634   0.392  0.5515 -1.6125  0.7381
 6425TIP3   OH240833   0.125   5.943   1.607 -0.4047 -0.0789  0.0706
 6425TIP3    H140834   0.094   5.996   1.680 -0.1133 -0.1904  0.2776
 6425TIP3    H240835   0.057   5.952   1.540 -0.8175 -0.2063  0.4624
 6426TIP3   OH240836   3.304   3.899   0.724 -0.1625 -0.1058 -0.4740
 6426TIP3    H140837   3.283   3.947   0.804  0.7836  1.0044 -0.8601
 6426TIP3    H240838   3.252   3.942   0.656 -0.5035 -0.6532 -0.5632
 6427TIP3   OH240839   2.012   6.677   2.303  0.2813 -0.1477  0.2774
 6427TIP3    H140840   1.924   6.675   2.266  0.0092  0.1268  0.8788
 6427TIP3    H240841   2.066   6.627   2.242 -0.5031 -1.2380  0.4556
 6428TIP3   OH240842   6.187   4.889   7.782  0.1274  0.3686 -0.4075
 6428TIP3    H140843   6.223   4.895   7.871  0.1787  1.7140 -0.4923
 6428TIP3    H240844   6.227   4.810   7.746 -0.9733 -0.9990  1.2163
 6429TIP3   OH240845   5.532   1.401   7.427  0.5482 -0.0487 -0.0099
 6429TIP3    H140846   5.626   1.386   7.428  0.5438 -0.0714  0.0601
 6429TIP3    H240847   5.494   1.315   7.407  0.6047  0.2545 -1.5023
 6430TIP3   OH240848   4.139   4.945   8.230  0.3609  0.3920  0.6442
 6430TIP3    H140849   4.044   4.958   8.224  0.4455  0.3520 -1.4081
 6430TIP3    H240850   4.176   5.020   8.184  1.1943 -1.0023 -1.0976
 6431TIP3   OH240851   3.469   6.687   1.631 -0.1663  0.8127 -0.1358
 6431TIP3    H140852   3.561   6.714   1.636  0.3851 -1.0939  1.2988
 6431TIP3    H240853   3.448   6.658   1.719 -0.6857 -3.0439 -1.3341
 6432TIP3   OH240854   4.532   0.235   8.335  0.1212 -0.5061 -0.1513
 6432TIP3    H140855   4.446   0.194   8.332 -0.7292  1.1563  0.3188
 6432TIP3    H240856   4.541   0.265   8.426  0.6863  0.3642 -0.4827
 6433TIP3   OH240857   0.199   3.342   8.958  0.1068 -0.1656  0.6314
 6433TIP3    H140858   0.270   3.328   8.895  0.8239 -1.2819  1.6533
 6433TIP3    H240859   0.230   3.413   9.015 -1.1638  1.9158 -1.0919
 6434TIP3   OH240860   3.547   4.097   0.039  0.0991  0.6337 -0.1111
 6434TIP3    H140861   3.488   4.037  -0.007 -2.2343  2.2931  0.5381
 6434TIP3    H240862   3.577   4.158  -0.028  0.0242  0.5900 -0.1846
 6435TIP3   OH240863   6.658   1.159   7.389  0.2282 -0.0830 -0.0484
 6435TIP3    H140864   6.647   1.089   7.325 -1.4942 -1.0883  1.2632
 6435TIP3    H240865   6.740   1.137   7.434 -0.8778 -2.0087  1.1573
 6436TIP3   OH240866   6.459   0.149   7.413 -0.3208  0.0112 -0.0532
 6436TIP3    H140867   6.474   0.108   7.327 -0.1434  1.8649 -0.9474
 6436TIP3    H240868   6.545   0.182   7.438  0.1348 -2.4291  1.9454
 6437TIP3   OH240869   3.117   5.550   1.343 -0.1177 -0.4655  0.3608
 6437TIP3    H140870   3.175   5.474   1.342  1.7111  0.8335  1.7125
 6437TIP3    H240871   3.073   5.545   1.427 -0.1569 -0.1483  0.3594
 6438TIP3   OH240872   3.495   4.415   1.508 -0.0262 -0.3528  0.0406
 6438TIP3    H140873   3.495   4.354   1.582 -3.8163 -1.3496 -0.5841
 6438TIP3    H240874   3.506   4.359   1.431 -1.3644 -0.0235 -0.4149
 6439TIP3   OH240875   4.368   4.715   0.172  0.0905  0.8345  0.2654
 6439TIP3    H140876   4.352   4.650   0.241  1.6256  1.0317  0.8651
 6439TIP3    H240877   4.390   4.663   0.095  1.2684  0.6147  0.7312
 6440TIP3   OH240878   2.022   0.059   7.657  0.0603  0.2681 -0.2563
 6440TIP3    H140879   2.003   0.086   7.567  1.2949 -0.5330 -0.7823
 6440TIP3    H240880   1.955   0.103   7.709 -0.9266  0.4387 -1.5978
 6441TIP3   OH240881   4.401   0.245   0.595  0.3129 -0.5085  0.1718
 6441TIP3    H140882   4.426   0.336   0.611  0.0909 -0.6658  1.5639
 6441TIP3    H240883   4.345   0.249   0.517 -2.8250  1.1572  2.2585
 6442TIP3   OH240884   3.933   1.747   8.291  0.4141 -0.5021  0.0586
 6442TIP3    H140885   4.020   1.728   8.326  0.3276  1.2175  1.3376
 6442TIP3    H240886   3.874   1.697   8.348  0.3424  1.5409  1.9035
 6443TIP3   OH240887   1.102   3.908   8.138  0.1447  0.1669 -1.1146
 6443TIP3    H140888   1.121   3.838   8.200 -0.1614 -0.0832 -1.3014
 6443TIP3    H240889   1.176   3.969   8.146  0.8412 -0.6029 -1.5583
 6444TIP3   OH240890   3.536   2.143   0.391 -0.2301  0.5489 -0.0990
 6444TIP3    H140891   3.601   2.073   0.403 -1.0330 -0.1551  0.2775
 6444TIP3    H240892   3.529   2.184   0.477  1.6406  2.3906 -0.7611
 6445TIP3   OH240893   5.303   2.690   1.412 -0.6330  0.5564 -0.2390
 6445TIP3    H140894   5.219   2.685   1.457 -1.3743 -0.5401 -1.6485
 6445TIP3    H240895   5.358   2.743   1.469 -2.9407  3.2171 -0.2890
 6446TIP3   OH240896   2.797   6.497   0.123 -0.1401 -0.2968 -0.3386
 6446TIP3    H140897   2.806   6.429   0.190 -1.3661 -0.1698 -0.0193
 6446TIP3    H240898   2.869   6.481   0.063 -1.0921 -2.6795 -0.9624
 6447TIP3   OH240899   1.388   0.953   8.229  0.3075  0.0777  0.1219
 6447TIP3    H140900   1.331   0.894   8.279  0.0007  0.6842  0.5008
 6447TIP3    H240901   1.436   1.002   8.296 -0.9292  1.7106 -0.1093
 6448TIP3   OH240902   6.584   1.865   1.946  0.6949 -0.1783 -0.1859
 6448TIP3    H140903   6.585   1.890   2.039  0.8681  1.7394 -0.6675
 6448TIP3    H240904   6.614   1.943   1.900 -1.4491 -0.3443 -2.0447
 6449TIP3   OH240905   0.485   3.453   6.862 -0.9217  0.2138 -0.0164
 6449TIP3    H140906   0.506   3.446   6.769 -0.1812 -1.4313  0.2429
 6449TIP3    H240907   0.429   3.530   6.868  0.3571  1.3348 -1.5800
 6450TIP3   OH240908   2.791   2.773   8.049  0.0173 -0.3708  0.9535
 6450TIP3    H140909   2.751   2.860   8.046 -0.7973 -0.6919  1.7418
 6450TIP3    H240910   2.881   2.789   8.076  0.5341  0.3893 -1.0442
 6451TIP3   OH240911   1.779   6.074   7.326  0.9288  0.4640  0.1001
 6451TIP3    H140912   1.862   6.037   7.355  1.2590  0.2168 -1.1038
 6451TIP3    H240913   1.776   6.055   7.232  0.6836  2.6477 -0.3910
 6452TIP3   OH240914   5.226   2.371   8.696 -0.1272 -0.4697  0.7180
 6452TIP3    H140915   5.257   2.381   8.606  0.1700 -1.4061  0.7052
 6452TIP3    H240916   5.290   2.419   8.749 -1.2013  1.5089  0.3232
 6453TIP3   OH240917   2.553   6.041   2.282  0.1055 -0.2942  0.4236
 6453TIP3    H140918   2.618   6.016   2.347  0.0593  1.1144  1.0553
 6453TIP3    H240919   2.577   5.991   2.204  0.7687 -1.2514  1.2130
 6454TIP3   OH240920   3.118   1.103   1.183  0.5800 -0.0392 -0.0947
 6454TIP3    H140921   3.129   1.077   1.275 -2.4751  0.4698  0.5036
 6454TIP3    H240922   3.062   1.035   1.146 -1.5227  1.7825 -0.4378
 6455TIP3   OH240923   5.785   3.328   8.637 -0.2529 -0.0807 -0.4828
 6455TIP3    H140924   5.693   3.303   8.629 -0.6315  1.3261 -0.6982
 6455TIP3    H240925   5.808   3.304   8.727 -1.8242  2.5644  0.7413
 6456TIP3   OH240926   5.452   1.664   0.275 -0.5835 -0.1226 -0.0514
 6456TIP3    H140927   5.507   1.711   0.212 -0.6116  1.0168  0.7612
 6456TIP3    H240928   5.511   1.600   0.314  0.3223  1.3863  1.1375
 6457TIP3   OH240929   5.389   6.161   1.548 -0.2063  0.1542 -0.9657
 6457TIP3    H140930   5.342   6.083   1.577  1.4518 -1.0490 -1.3605
 6457TIP3    H240931   5.415   6.205   1.629 -1.0724  0.2560 -0.7364
 6458TIP3   OH240932   4.666   5.621   2.351  0.2307  0.2576  0.1302
 6458TIP3    H140933   4.691   5.705   2.388  2.0839 -0.1237 -0.1428
 6458TIP3    H240934   4.670   5.634   2.256 -0.3173  0.0885  0.0807
 6459TIP3   OH240935   3.093   2.835   8.591 -0.6848 -0.0825 -0.0967
 6459TIP3    H140936   3.128   2.912   8.546  0.5575  0.6813  2.0122
 6459TIP3    H240937   3.171   2.785   8.616 -1.2107 -0.0351  1.8329
 6460TIP3   OH240938   4.413   5.445   7.937 -0.3217 -0.5663  0.6477
 6460TIP3    H140939   4.411   5.494   7.855 -0.4395  0.2472  1.1214
 6460TIP3    H240940   4.500   5.460   7.973 -0.3402 -0.7434  0.7712
 6461TIP3   OH240941   5.918   2.572   2.311 -0.1703 -0.0746  0.3242
 6461TIP3    H140942   5.843   2.542   2.258 -0.4830 -0.0977  0.7702
 6461TIP3    H240943   5.911   2.522   2.392 -0.2123  0.5989  0.7449
 6462TIP3   OH240944   5.480   4.095   8.918  0.1416  0.0263 -0.4923
 6462TIP3    H140945   5.522   4.058   8.995  2.4445  1.3495 -1.0035
 6462TIP3    H240946   5.410   4.150   8.953 -1.2433 -2.1976  0.4005
 6463TIP3   OH240947   6.036   6.381   7.769  0.1272  0.1200 -0.0244
 6463TIP3    H140948   6.129   6.383   7.793  0.2546  0.5177 -0.5417
 6463TIP3    H240949   6.001   6.464   7.800 -0.0290  0.0290  0.0460
 6464TIP3   OH240950   0.391   5.436   1.052  0.1795 -0.2721 -0.3883
 6464TIP3    H140951   0.400   5.476   0.965 -1.3845 -0.9500 -0.8949
 6464TIP3    H240952   0.398   5.510   1.113  0.5614  0.3132 -1.1318
 6465TIP3   OH240953   0.776   3.427   7.011  0.6824 -0.1779  0.1770
 6465TIP3    H140954   0.795   3.334   7.020 -0.3907 -0.7323 -2.2866
 6465TIP3    H240955   0.776   3.442   6.916 -3.1459  1.3653  0.2117
 6466TIP3   OH240956   0.232   4.496   7.560  0.5506 -0.0141 -0.5059
 6466TIP3    H140957   0.249   4.589   7.575  0.0758 -0.2079  1.4450
 6466TIP3    H240958   0.182   4.494   7.478  0.2499  1.4901 -0.3908
 6467TIP3   OH240959   5.452   1.125   7.349  0.0314  0.1250  0.3369
 6467TIP3    H140960   5.489   1.042   7.380 -0.7908 -0.4016 -0.0800
 6467TIP3    H240961   5.494   1.140   7.265 -0.1103 -0.0662  0.2323
 6468TIP3   OH240962   4.617   0.308   1.941 -0.3833  0.1033 -0.1473
 6468TIP3    H140963   4.581   0.389   1.976  0.3776 -0.0354  0.9989
 6468TIP3    H240964   4.643   0.257   2.018  1.8197 -0.0012 -0.8717
 6469TIP3   OH240965   5.723   2.866   7.867  0.0724 -0.1287  0.2434
 6469TIP3    H140966   5.746   2.838   7.778  2.5577  0.2832  0.6965
 6469TIP3    H240967   5.793   2.926   7.892 -1.5219  1.1470  1.8572
 6470TIP3   OH240968   0.041   5.409   2.141 -0.7452 -0.2632 -0.3236
 6470TIP3    H140969   0.117   5.359   2.110 -0.1364  1.1602 -1.2400
 6470TIP3    H240970  -0.030   5.383   2.081 -0.2932  0.3604 -1.1451
 6471TIP3   OH240971   4.354   5.215   8.735  0.0073  0.0931  0.0017
 6471TIP3    H140972   4.405   5.260   8.667 -0.2853 -0.1825 -0.4097
 6471TIP3    H240973   4.288   5.166   8.686 -1.2413  1.1626  0.5701
 6472TIP3   OH240974   1.698   1.775   1.109  0.0786 -0.1082  0.4486
 6472TIP3    H140975   1.655   1.735   1.185 -0.4669  0.2293  0.3254
 6472TIP3    H240976   1.699   1.707   1.043  1.3256 -0.6843  1.0281
 6473TIP3   OH240977   5.465   6.576   8.533  0.3876 -0.0040 -0.4861
 6473TIP3    H140978   5.410   6.594   8.457  1.5272  0.4959 -1.2222
 6473TIP3    H240979   5.544   6.536   8.496  0.0979 -1.7011  0.6343
 6474TIP3   OH240980   4.292   1.223   0.062  0.1000  0.1426 -0.5244
 6474TIP3    H140981   4.381   1.190   0.066  0.2989  0.7150 -0.1937
 6474TIP3    H240982   4.257   1.206   0.150 -0.1868 -0.2620 -0.7116
 6475TIP3   OH240983   0.606   2.891   7.375 -0.3433 -0.1513  0.0691
 6475TIP3    H140984   0.656   2.921   7.451 -0.1146  1.2446 -0.5969
 6475TIP3    H240985   0.670   2.887   7.304 -1.0814  1.4962 -0.7579
 6476TIP3   OH240986   3.172   1.994   1.702  0.2034  0.4129 -0.1076
 6476TIP3    H140987   3.184   1.901   1.721  2.1908  0.6086 -0.1851
 6476TIP3    H240988   3.256   2.021   1.663 -0.3531  2.2293 -0.1208
 6477TIP3   OH240989   2.547   3.654   7.488 -0.3165  0.2150 -0.1540
 6477TIP3    H140990   2.464   3.659   7.441  0.1427  1.6438 -0.9027
 6477TIP3    H240991   2.606   3.608   7.427 -0.5606 -0.8747  0.4110
 6478TIP3   OH240992   4.147   1.583   1.572  0.1781  0.6590 -0.2634
 6478TIP3    H140993   4.179   1.668   1.600 -0.0864  0.5725  0.3209
 6478TIP3    H240994   4.216   1.522   1.598 -0.5978  0.4163  1.3887
 6479TIP3   OH240995   5.646   5.395   0.705  0.0014 -0.7470  0.5907
 6479TIP3    H140996   5.584   5.323   0.713 -1.0993  0.0056 -0.6818
 6479TIP3    H240997   5.730   5.358   0.731 -0.4413 -2.6367 -0.4853
 6480TIP3   OH240998   5.277   5.982   0.512 -0.1162  0.1613  0.1297
 6480TIP3    H140999   5.250   5.890   0.504 -1.2763  0.5879 -1.2001
 6480TIP3    H241000   5.330   5.984   0.592 -1.1927 -1.4130  0.9506
 6481TIP3   OH241001   3.751   4.084   7.495  0.2346  0.1683  0.1902
 6481TIP3    H141002   3.687   4.148   7.463 -1.0788 -0.6004  1.1298
 6481TIP3    H241003   3.757   4.019   7.425 -0.1830  0.1478  0.1691
 6482TIP3   OH241004   1.407   2.958   8.961 -0.0463  0.0127 -0.0501
 6482TIP3    H141005   1.408   2.906   8.881 -0.7302  0.0765 -0.1045
 6482TIP3    H241006   1.488   2.934   9.006  0.6246  0.4208 -1.0343
 6483TIP3   OH241007   2.238   6.138   7.670  0.0791 -0.3255  0.4665
 6483TIP3    H141008   2.145   6.115   7.675 -0.7130  1.7882 -2.1806
 6483TIP3    H241009   2.258   6.177   7.755 -1.6950 -0.0800  0.8053
 6484TIP3   OH241010   4.584   4.281   2.014 -0.5555 -0.0825  0.2412
 6484TIP3    H141011   4.488   4.273   2.012 -0.7076  1.4889 -0.0757
 6484TIP3    H241012   4.607   4.266   2.105 -0.9768 -1.5352  0.1343
 6485TIP3   OH241013   0.611   6.405   0.135 -0.3385  0.0514  0.0283
 6485TIP3    H141014   0.680   6.338   0.142 -0.0551  0.4657  1.4804
 6485TIP3    H241015   0.536   6.358   0.098  0.1750 -0.8216  0.0651
 6486TIP3   OH241016   1.268   6.673   8.192 -0.0394  0.2485 -0.4499
 6486TIP3    H141017   1.288   6.625   8.272  1.6565 -0.4329 -1.2434
 6486TIP3    H241018   1.351   6.680   8.146 -0.7535  1.6448 -1.6307
 6487TIP3   OH241019   5.299   5.619   1.430 -0.1850  0.5845  0.2543
 6487TIP3    H141020   5.241   5.604   1.355 -2.6639  0.4344  2.0859
 6487TIP3    H241021   5.330   5.531   1.453  1.0550  0.6910 -0.8826
 6488TIP3   OH241022   4.898   6.646   1.202  0.5398 -0.0909 -0.7391
 6488TIP3    H141023   4.891   6.604   1.116 -1.8297 -0.8939 -0.2347
 6488TIP3    H241024   4.832   6.603   1.255  1.2190  1.1283  1.2073
 6489TIP3   OH241025   5.072   6.212   2.346  0.2535  0.1770 -0.9016
 6489TIP3    H141026   4.979   6.209   2.368  0.2221  0.8506 -0.9231
 6489TIP3    H241027   5.085   6.137   2.288  0.4247 -1.8694  1.6462
 6490TIP3   OH241028   3.282   6.373   8.246 -0.2750  0.0909 -0.7371
 6490TIP3    H141029   3.375   6.378   8.224 -0.3930  0.0038 -1.2507
 6490TIP3    H241030   3.253   6.465   8.247  0.0564  0.2082  0.4966
 6491TIP3   OH241031   2.242   5.641   1.258 -0.1326  0.3663  0.1418
 6491TIP3    H141032   2.336   5.627   1.245  0.1462 -0.8455  2.8501
 6491TIP3    H241033   2.200   5.587   1.190  1.1088 -0.5362  0.0532
 6492TIP3   OH241034   6.735   5.052   8.005 -0.4687  0.2190  0.1440
 6492TIP3    H141035   6.811   5.068   8.059 -0.9045 -0.2732  0.9265
 6492TIP3    H241036   6.744   5.112   7.931  0.8686 -0.1098  0.0236
 6493TIP3   OH241037   0.288   0.406   2.048 -0.5570 -0.0658  0.4932
 6493TIP3    H141038   0.235   0.376   2.122  0.5287 -0.5513  1.0870
 6493TIP3    H241039   0.357   0.341   2.040 -1.9020 -1.3408 -2.4062
 6494TIP3   OH241040   1.603   0.414   2.106 -0.2390  0.2878 -0.3234
 6494TIP3    H141041   1.664   0.445   2.173 -2.4530 -0.1394  2.0319
 6494TIP3    H241042   1.658   0.362   2.047  1.5647 -0.9567  2.2405
 6495TIP3   OH241043   6.026   4.969   1.060 -0.1301 -0.8850 -0.1925
 6495TIP3    H141044   5.999   4.959   1.152  1.2409 -0.4998  0.2804
 6495TIP3    H241045   5.945   4.988   1.013 -0.8646 -1.1106  0.9344
 6496TIP3   OH241046   1.280   1.310   1.055  0.2983  0.1295 -0.0864
 6496TIP3    H141047   1.347   1.242   1.054 -1.1509 -1.3684  0.8081
 6496TIP3    H241048   1.269   1.331   1.148  0.4127  1.2943 -0.3231
 6497TIP3   OH241049   4.466   6.352   8.138 -0.0182  0.0552 -0.8562
 6497TIP3    H141050   4.372   6.357   8.124 -0.2792  0.1388  0.7549
 6497TIP3    H241051   4.499   6.439   8.116 -0.1311 -0.2858 -2.4896
 6498TIP3   OH241052   3.764   5.724   0.034  0.0688  0.1457  0.5361
 6498TIP3    H141053   3.857   5.738   0.017 -0.1136  2.1361  1.0193
 6498TIP3    H241054   3.721   5.804   0.005 -1.4733 -0.5985  0.6440
 6499TIP3   OH241055   2.270   4.767   7.024  0.1898  0.3214  0.4510
 6499TIP3    H141056   2.322   4.830   6.974  0.7085 -0.1952  0.3242
 6499TIP3    H241057   2.251   4.697   6.962 -1.2455  0.8002  0.3094
 6500TIP3   OH241058   0.716   2.299   8.072  0.0823  0.0804  0.6636
 6500TIP3    H141059   0.678   2.304   8.159 -1.3683  0.9634  0.0268
 6500TIP3    H241060   0.791   2.359   8.075 -1.4247  2.0747  0.6630
 6501TIP3   OH241061   2.980   4.847   2.517 -0.3644  0.2974  0.0571
 6501TIP3    H141062   3.042   4.889   2.457  1.2601 -2.0392 -0.0410
 6501TIP3    H241063   3.011   4.872   2.604 -0.1589  0.2835 -0.0119
 6502TIP3   OH241064   3.676   0.796   8.354  0.0893 -0.4184  0.2868
 6502TIP3    H141065   3.705   0.845   8.432  1.2677 -1.9719  0.8614
 6502TIP3    H241066   3.739   0.724   8.346  0.3967  0.0571 -2.5085
 6503TIP3   OH241067   2.206   3.621   1.228 -0.0315  0.4711  0.1386
 6503TIP3    H141068   2.119   3.653   1.205 -0.7205 -1.0402  0.5295
 6503TIP3    H241069   2.191   3.560   1.300  1.1324 -1.0520 -0.8416
 6504TIP3   OH241070   1.600   5.452   7.080  0.0443  0.1654 -0.1902
 6504TIP3    H141071   1.634   5.539   7.102  2.1272 -0.4559 -0.7051
 6504TIP3    H241072   1.621   5.441   6.987 -0.2060 -0.8681 -0.1330
 6505TIP3   OH241073   3.489   5.426   0.873  0.4435 -0.2422 -0.4326
 6505TIP3    H141074   3.431   5.488   0.830  0.0181  1.0933  1.8824
 6505TIP3    H241075   3.454   5.418   0.962  1.5065 -2.5066 -0.1478
 6506TIP3   OH241076   4.069   3.664   1.241  0.3634  0.1041 -0.0774
 6506TIP3    H141077   4.113   3.701   1.164  3.4761 -0.5251  1.2760
 6506TIP3    H241078   4.057   3.738   1.300  1.7302 -0.0585  0.4458
 6507TIP3   OH241079   6.690   0.193   8.603 -0.0148 -0.0729 -0.6251
 6507TIP3    H141080   6.659   0.242   8.527 -0.0333  1.1804  0.1693
 6507TIP3    H241081   6.708   0.105   8.569 -2.4108 -0.2651 -1.5686
 6508TIP3   OH241082   5.571   2.806   1.312  0.0866  0.0008  0.1336
 6508TIP3    H141083   5.528   2.746   1.373  0.8741 -0.8857 -0.1579
 6508TIP3    H241084   5.609   2.874   1.368 -2.7186  1.5412  0.3232
 6509TIP3   OH241085   4.695   4.028   7.128  0.4820  0.1597  0.8038
 6509TIP3    H141086   4.751   3.951   7.121  1.3549  0.5540  2.7133
 6509TIP3    H241087   4.663   4.043   7.039  2.0482 -1.0828 -0.0157
 6510TIP3   OH241088   1.604   5.765   7.235  0.7068  0.3430 -0.3066
 6510TIP3    H141089   1.627   5.818   7.311 -0.5683  0.3463  0.1019
 6510TIP3    H241090   1.539   5.702   7.268  0.5323 -0.0045 -1.2757
 6511TIP3   OH241091   0.621   2.934   6.424  0.9862 -0.1587  0.1316
 6511TIP3    H141092   0.608   3.028   6.435 -0.2018 -0.1490 -0.9994
 6511TIP3    H241093   0.635   2.901   6.512 -0.5760  0.8261  0.7904
 6512TIP3   OH241094   3.934   5.641   7.059 -0.5397 -0.4553 -0.8963
 6512TIP3    H141095   3.854   5.680   7.094 -0.0609 -0.0942 -0.1938
 6512TIP3    H241096   3.989   5.716   7.037 -0.0759 -0.7189 -0.6297
 6513TIP3   OH241097   3.351   1.573   1.252  0.7743 -0.2512  0.7392
 6513TIP3    H141098   3.299   1.531   1.321 -1.1986 -0.4337 -0.7572
 6513TIP3    H241099   3.358   1.507   1.183  1.8821  0.2403  0.3676
 6514TIP3   OH241100   1.898   4.622   1.609  0.1543 -0.2174 -0.0866
 6514TIP3    H141101   1.820   4.663   1.573  0.9410  0.0818 -1.4948
 6514TIP3    H241102   1.889   4.633   1.704 -0.8380  1.0248 -0.3009
 6515TIP3   OH241103   4.213   5.176   6.991 -0.9335  0.4100 -0.5248
 6515TIP3    H141104   4.297   5.222   6.990 -1.7888  2.0798  0.1666
 6515TIP3    H241105   4.202   5.143   6.902  0.8116 -0.5731 -0.4136
 6516TIP3   OH241106   0.148   1.431   1.238  0.6416 -0.2809 -0.5339
 6516TIP3    H141107   0.203   1.492   1.188  2.4129 -1.1415  0.2917
 6516TIP3    H241108   0.145   1.468   1.326 -0.2233 -0.1970 -0.5849
 6517TIP3   OH241109   2.066   4.232   8.723  0.6466 -0.0361  0.0936
 6517TIP3    H141110   2.100   4.315   8.758  0.8944 -0.1918  0.2248
 6517TIP3    H241111   1.993   4.210   8.780  1.4492 -0.6196  0.9254
 6518TIP3   OH241112   1.031   6.581   0.856  0.1107  0.2199  1.1861
 6518TIP3    H141113   0.982   6.520   0.911 -1.2529  0.0364 -0.1779
 6518TIP3    H241114   0.968   6.649   0.834  0.9423  0.8634  0.7136
 6519TIP3   OH241115   1.451   4.504   6.548  0.6227  0.0939  0.3886
 6519TIP3    H141116   1.408   4.577   6.592 -0.7889 -0.3594 -0.1777
 6519TIP3    H241117   1.509   4.545   6.484  0.9797  0.7189  1.0988
 6520TIP3   OH241118   5.036   2.032   7.316  0.1741 -0.0361  0.3124
 6520TIP3    H141119   5.081   2.084   7.249  0.5311 -0.1998  0.4227
 6520TIP3    H241120   4.945   2.032   7.288  0.4405 -0.8048 -0.6525
 6521TIP3   OH241121   2.585   3.472   8.489  0.1434  0.4509 -0.8701
 6521TIP3    H141122   2.545   3.461   8.575 -1.0580  3.1416 -0.9755
 6521TIP3    H241123   2.607   3.383   8.461 -0.4637 -0.6071  1.6931
 6522TIP3   OH241124   1.272   2.703   0.182  0.1540 -0.2558 -0.0650
 6522TIP3    H141125   1.202   2.682   0.242 -0.0211 -0.6074 -0.3883
 6522TIP3    H241126   1.228   2.735   0.103  0.1810 -3.1651 -1.3730
 6523TIP3   OH241127   2.689   6.401   7.778 -0.3329 -0.1280 -0.2661
 6523TIP3    H141128   2.675   6.490   7.810 -0.2156  0.2273 -1.1694
 6523TIP3    H241129   2.603   6.359   7.784 -0.3286 -0.0399  0.4133
 6524TIP3   OH241130   3.822   5.547   8.498  0.5267  0.2818 -0.4809
 6524TIP3    H141131   3.784   5.616   8.553  0.1874 -1.3977  1.5119
 6524TIP3    H241132   3.749   5.520   8.442 -0.0516 -0.0941  0.4304
 6525TIP3   OH241133   2.645   0.796   0.982 -0.4045  0.1839  0.3196
 6525TIP3    H141134   2.740   0.796   0.996 -0.4912 -0.3325  0.9655
 6525TIP3    H241135   2.613   0.871   1.033 -0.6347 -1.2607  2.4504
 6526TIP3   OH241136   5.599   3.789   0.581 -0.1354  0.0841 -0.4165
 6526TIP3    H141137   5.646   3.868   0.554  2.4802 -1.7054 -1.5957
 6526TIP3    H241138   5.569   3.750   0.498 -1.5259 -0.1216  0.1586
 6527TIP3   OH241139   4.055   3.360   6.519  0.0467 -0.8928  0.0979
 6527TIP3    H141140   4.037   3.408   6.438 -2.4227  0.4045  1.2950
 6527TIP3    H241141   4.150   3.345   6.518  0.4027  1.0337 -1.9552
 6528TIP3   OH241142   2.518   5.182   0.863 -0.5219 -0.3249  0.0863
 6528TIP3    H141143   2.587   5.116   0.865 -0.7072 -0.5139  0.2156
 6528TIP3    H241144   2.557   5.259   0.905 -0.4936 -0.5295  0.4408
 6529TIP3   OH241145   3.923   6.470   8.070 -0.5557  0.1725  0.3190
 6529TIP3    H141146   3.847   6.526   8.081  0.5310  1.5907  1.0153
 6529TIP3    H241147   3.929   6.455   7.976 -0.2640  2.1648 -0.0164
 6530TIP3   OH241148   4.668   0.168   8.104 -0.0738 -0.4946 -0.2087
 6530TIP3    H141149   4.607   0.187   8.175 -1.2735  1.9810 -1.7789
 6530TIP3    H241150   4.739   0.231   8.116 -1.0515  1.0239 -2.0036
 6531TIP3   OH241151   0.866   2.585   1.250 -0.2816  0.3862 -0.3457
 6531TIP3    H141152   0.870   2.491   1.263 -0.4600  0.4243 -0.0267
 6531TIP3    H241153   0.954   2.609   1.220 -0.2205  0.1294 -0.3689
 6532TIP3   OH241154   2.178   3.833   1.440  0.0149  0.4354  0.0011
 6532TIP3    H141155   2.154   3.798   1.525 -0.2768 -0.8611 -0.5975
 6532TIP3    H241156   2.262   3.792   1.420  0.8484  1.9057  0.3177
 6533TIP3   OH241157   5.057   4.563   0.346 -0.3223 -0.0964 -0.0382
 6533TIP3    H141158   4.989   4.590   0.285  0.1472 -0.6327 -0.8176
 6533TIP3    H241159   5.024   4.483   0.385 -1.5534  1.2966  2.0066
 6534TIP3   OH241160   5.694   5.868   6.714 -0.3539  0.1631  0.2121
 6534TIP3    H141161   5.686   5.776   6.740  1.4478 -0.0370  0.1539
 6534TIP3    H241162   5.788   5.882   6.703 -0.6235  1.9359 -0.0990
 6535TIP3   OH241163   2.256   5.500   8.601 -0.1916  0.0635  0.5246
 6535TIP3    H141164   2.292   5.586   8.581 -1.4853  0.3102 -0.9296
 6535TIP3    H241165   2.295   5.442   8.536 -0.6156 -0.1012  0.4095
 6536TIP3   OH241166   1.638   2.003   1.563 -0.4291 -0.2808  0.2831
 6536TIP3    H141167   1.727   1.969   1.567  0.2851  1.1877 -1.4671
 6536TIP3    H241168   1.633   2.067   1.634 -0.6227 -1.4301  1.3375
 6537TIP3   OH241169   6.536   5.442   8.013  0.1303 -0.3603  0.0980
 6537TIP3    H141170   6.515   5.532   8.039 -1.4036 -1.1153  1.6509
 6537TIP3    H241171   6.631   5.436   8.027  0.0424  0.6116  1.3264
 6538TIP3   OH241172   5.399   2.353   7.291 -0.3374  0.0112 -0.0063
 6538TIP3    H141173   5.342   2.357   7.367 -0.1476  0.3543  0.1231
 6538TIP3    H241174   5.349   2.395   7.221 -0.7366 -0.8085 -0.2253
 6539TIP3   OH241175   2.093   5.955   0.074 -0.1830  0.0429  0.3086
 6539TIP3    H141176   2.109   6.004  -0.007  0.6354  0.2725  0.5994
 6539TIP3    H241177   2.033   5.885   0.048  1.6467 -1.1366 -0.9794
 6540TIP3   OH241178   0.228   0.363   1.006  0.5303  0.6167  0.9574
 6540TIP3    H141179   0.247   0.451   0.972 -1.3916  0.7286  0.0308
 6540TIP3    H241180   0.149   0.374   1.058 -0.0450 -0.6328  0.3946
 6541TIP3   OH241181   6.100   2.418   1.750 -0.2563  0.1539  0.6870
 6541TIP3    H141182   6.067   2.328   1.750 -0.0979  0.0576 -1.0404
 6541TIP3    H241183   6.147   2.426   1.667 -1.6332  2.3083  0.0497
 6542TIP3   OH241184   4.319   4.515   0.888  0.2588  0.2558  0.0068
 6542TIP3    H141185   4.383   4.550   0.950 -1.1319  2.3762  0.3495
 6542TIP3    H241186   4.234   4.535   0.928 -0.6606  0.7052 -2.0758
 6543TIP3   OH241187   4.915   0.326   8.219 -0.2504  0.0236 -0.2781
 6543TIP3    H141188   4.928   0.409   8.265  0.1413  0.3772 -1.0174
 6543TIP3    H241189   4.955   0.261   8.276  0.0558  0.4289 -0.0251
 6544TIP3   OH241190   4.742   4.364   7.545 -0.2317  0.2060  0.9041
 6544TIP3    H141191   4.818   4.392   7.595  0.4109  0.2350 -0.0699
 6544TIP3    H241192   4.717   4.440   7.493  0.5581 -0.5090 -0.5725
 6545TIP3   OH241193   1.053   4.851   6.823 -1.0037  0.0209 -0.4446
 6545TIP3    H141194   1.098   4.847   6.907  1.7551  1.3091 -1.7451
 6545TIP3    H241195   0.994   4.926   6.831  0.7335  1.4175 -0.2841
 6546TIP3   OH241196   0.288   0.452   8.851 -0.5194 -0.2462 -0.5019
 6546TIP3    H141197   0.213   0.407   8.813 -1.9130  0.2442  1.5421
 6546TIP3    H241198   0.302   0.410   8.936  0.2111  1.0061  0.0340
 6547TIP3   OH241199   6.280   5.952   2.181 -0.2764  0.0462  0.3025
 6547TIP3    H141200   6.315   6.005   2.109 -0.5871  1.7110  1.3439
 6547TIP3    H241201   6.227   6.012   2.232 -1.0372 -1.4001  1.2774
 6548TIP3   OH241202   0.039   6.185   8.439  0.0899 -0.6501  0.3396
 6548TIP3    H141203  -0.007   6.192   8.355  0.6854 -1.8552 -0.1138
 6548TIP3    H241204  -0.024   6.142   8.497 -0.2431 -0.0146  0.4613
 6549TIP3   OH241205   6.430   6.717   8.068 -0.5558  0.3644 -0.2783
 6549TIP3    H141206   6.436   6.721   7.972 -0.1369 -0.8321 -0.3196
 6549TIP3    H241207   6.507   6.763   8.099  0.1412 -0.5623 -0.5640
 6550TIP3   OH241208   3.548   6.583   8.907  0.2023 -0.1342 -0.1296
 6550TIP3    H141209   3.566   6.505   8.960 -0.6771 -0.0340  0.3382
 6550TIP3    H241210   3.552   6.656   8.970  1.0588  0.2130 -0.5688
 6551TIP3   OH241211   0.105   5.353   8.066 -0.3296 -0.1876  0.5554
 6551TIP3    H141212   0.173   5.419   8.048  1.1254 -1.2056  2.1111
 6551TIP3    H241213   0.151   5.270   8.065 -2.3345 -1.4607 -2.6039
 6552TIP3   OH241214   3.173   5.168   0.159 -0.4666 -0.0791  0.3500
 6552TIP3    H141215   3.218   5.182   0.076 -0.6645 -0.8618  0.1001
 6552TIP3    H241216   3.083   5.194   0.143 -0.2927  0.6855  0.6034
 6553TIP3   OH241217   5.680   0.083   1.396 -0.2358 -0.1455 -0.1695
 6553TIP3    H141218   5.732   0.162   1.406 -1.5820  0.6565  0.9237
 6553TIP3    H241219   5.595   0.114   1.364 -0.6260 -1.2116 -0.2172
 6554TIP3   OH241220   0.736   1.969   8.050  0.0789 -0.4300 -0.4525
 6554TIP3    H141221   0.660   2.005   8.004 -1.2549 -0.4703  1.5948
 6554TIP3    H241222   0.746   1.880   8.016 -1.3611 -0.7268 -0.1457
 6555TIP3   OH241223   2.275   1.109   3.183  0.3449 -0.9222 -0.0724
 6555TIP3    H141224   2.303   1.082   3.270 -0.3100  0.6418  0.6596
 6555TIP3    H241225   2.319   1.192   3.168  1.4682 -1.7607 -1.8107
 6556TIP3   OH241226   2.546   3.391   2.166  0.0063 -0.2966  0.6457
 6556TIP3    H141227   2.567   3.473   2.121  1.7750 -1.4417 -0.7538
 6556TIP3    H241228   2.477   3.352   2.113 -1.4991  0.6176  1.8173
 6557TIP3   OH241229   5.186   4.648   7.793 -0.6071 -0.2713  0.0281
 6557TIP3    H141230   5.176   4.712   7.723  0.7964  1.2749  1.1598
 6557TIP3    H241231   5.190   4.700   7.873  1.4381 -1.6737  0.9331
 6558TIP3   OH241232   5.286   2.561   7.113 -0.1613  0.2218  0.4301
 6558TIP3    H141233   5.196   2.589   7.099  0.0987  0.2644 -1.3654
 6558TIP3    H241234   5.332   2.639   7.143 -0.6857  0.2200  1.2606
 6559TIP3   OH241235   0.610   1.228   7.023  0.1336  0.1211 -0.8921
 6559TIP3    H141236   0.673   1.273   6.967 -0.3739 -0.0732 -1.6401
 6559TIP3    H241237   0.524   1.251   6.986 -0.2623  0.7110  0.3464
 6560TIP3   OH241238   1.001   5.374   8.733 -0.4153 -0.0699 -0.3148
 6560TIP3    H141239   0.985   5.307   8.667  0.7280 -0.8068  0.1415
 6560TIP3    H241240   1.093   5.398   8.722 -0.0495 -0.6032  1.3663
 6561TIP3   OH241241   0.635   6.631   1.829  0.1780 -0.1440  0.8515
 6561TIP3    H141242   0.668   6.543   1.849 -0.4570 -0.6557 -0.2690
 6561TIP3    H241243   0.669   6.650   1.742 -2.1951 -0.5824 -0.2513
 6562TIP3   OH241244   1.607   0.401   1.329  0.0542  0.2644 -0.0451
 6562TIP3    H141245   1.552   0.375   1.403  1.6866 -1.0416  0.7667
 6562TIP3    H241246   1.563   0.364   1.252 -0.6130 -0.0733  0.4902
 6563TIP3   OH241247   4.829   4.077   7.356 -0.1666  0.2609 -0.2811
 6563TIP3    H141248   4.776   4.019   7.301 -0.1418  0.5333 -0.5941
 6563TIP3    H241249   4.779   4.159   7.360  0.2334  0.5232 -0.5862
 6564TIP3   OH241250   3.416   0.031   8.190 -0.1247  0.0257  0.1592
 6564TIP3    H141251   3.353  -0.032   8.226  0.2184 -0.4452 -0.0559
 6564TIP3    H241252   3.403   0.110   8.243 -0.4071 -0.2943  0.5776
 6565TIP3   OH241253   5.201   5.936   1.598  0.0534  0.0870  0.3535
 6565TIP3    H141254   5.274   5.879   1.625  1.7578  1.3265 -1.3581
 6565TIP3    H241255   5.156   5.886   1.529  0.9851  0.3623 -0.4909
 6566TIP3   OH241256   0.967   1.611   1.711 -0.3410 -0.0701 -0.2056
 6566TIP3    H141257   0.932   1.684   1.659  2.4357  0.7379 -1.1220
 6566TIP3    H241258   1.037   1.650   1.762  0.6369 -1.9491 -0.0419
 6567TIP3   OH241259   5.626   5.571   0.323 -0.4681 -0.0650  0.1904
 6567TIP3    H141260   5.552   5.546   0.267 -0.1339  1.5720 -1.0634
 6567TIP3    H241261   5.615   5.665   0.337  1.6701  0.3465 -0.5233
 6568TIP3   OH241262   5.794   3.155   1.721  0.2082  0.0628  0.3561
 6568TIP3    H141263   5.833   3.190   1.642 -2.1901 -0.3685 -1.1104
 6568TIP3    H241264   5.780   3.231   1.777 -3.5845  1.5092 -2.1724
 6569TIP3   OH241265   1.989   0.749   8.626 -0.0850 -0.0408 -0.3154
 6569TIP3    H141266   2.032   0.702   8.697 -0.1557  0.6825  0.2169
 6569TIP3    H241267   1.939   0.681   8.579  0.2551 -0.5832  0.0927
 6570TIP3   OH241268   3.871   5.743   7.938  0.3686 -0.3552 -0.0300
 6570TIP3    H141269   3.944   5.747   8.001  0.5352  0.1782 -0.2501
 6570TIP3    H241270   3.913   5.728   7.853  0.0785 -2.0814  0.0962
 6571TIP3   OH241271   6.055   1.453   2.245  0.5149 -0.8572  0.5774
 6571TIP3    H141272   5.973   1.491   2.277  1.2604  0.1302  1.3656
 6571TIP3    H241273   6.086   1.400   2.318  0.1725 -1.9063 -0.0253
 6572TIP3   OH241274   4.321   1.607   7.753 -0.4233 -0.3271  0.1102
 6572TIP3    H141275   4.366   1.684   7.788  0.6569  0.1001 -2.0424
 6572TIP3    H241276   4.388   1.538   7.754 -1.1138 -1.0101  1.1532
 6573TIP3   OH241277   6.487   1.621   1.125  0.2308 -0.0776 -0.3463
 6573TIP3    H141278   6.526   1.700   1.162  1.4215  0.0170 -1.6979
 6573TIP3    H241279   6.439   1.582   1.197 -0.4295  1.8951  0.3392
 6574TIP3   OH241280   1.859   4.861   7.102  0.5621 -0.6426 -0.3588
 6574TIP3    H141281   1.914   4.834   7.028 -0.0069 -0.4685 -0.8554
 6574TIP3    H241282   1.782   4.900   7.061  0.2427 -0.5372  0.3326
 6575TIP3   OH241283   1.026   1.486   6.670  0.5600  0.0397 -0.0997
 6575TIP3    H141284   1.091   1.490   6.600  0.8008 -1.5220  0.0021
 6575TIP3    H241285   1.013   1.393   6.686  0.5865  0.3424  2.0197
 6576TIP3   OH241286   1.787   5.386   1.152 -0.2742  0.0076  0.9256
 6576TIP3    H141287   1.863   5.335   1.123  0.9714  1.9675  0.5512
 6576TIP3    H241288   1.823   5.469   1.182 -2.3603  1.9114 -1.2784
 6577TIP3   OH241289   3.117   4.073   0.634  0.0361  0.1850 -0.4222
 6577TIP3    H141290   3.055   4.014   0.677 -1.0995 -0.6013 -2.9663
 6577TIP3    H241291   3.064   4.146   0.603  0.4876 -0.0555 -1.8405
 6578TIP3   OH241292   0.446   3.513   7.583  0.3625  0.7001  0.2502
 6578TIP3    H141293   0.510   3.451   7.549  0.2346  1.0813 -0.7167
 6578TIP3    H241294   0.366   3.493   7.535  0.3221  1.6127 -0.0826
 6579TIP3   OH241295   6.743   3.710   1.018  0.0803  0.0736 -0.3928
 6579TIP3    H141296   6.793   3.790   1.031  0.4003 -0.3039  0.7977
 6579TIP3    H241297   6.772   3.651   1.088  0.5870 -1.4568 -1.8296
 6580TIP3   OH241298   0.832   2.952   7.663  0.1611 -0.2898 -0.1888
 6580TIP3    H141299   0.864   3.020   7.723  0.1883  0.1430 -0.6857
 6580TIP3    H241300   0.818   2.998   7.581 -0.6998 -0.7007 -0.2790
 6581TIP3   OH241301   4.660   6.084   6.717 -0.3620  0.5756 -0.2376
 6581TIP3    H141302   4.749   6.061   6.742 -0.6049  0.5235  0.6040
 6581TIP3    H241303   4.655   6.179   6.727 -0.6687  0.4731  0.6075
 6582TIP3   OH241304   4.286   4.061   8.824  0.1918 -0.1391 -0.6051
 6582TIP3    H141305   4.318   3.971   8.825 -0.7443 -0.4821 -0.5250
 6582TIP3    H241306   4.289   4.087   8.732 -0.1827 -0.4921 -0.7183
 6583TIP3   OH241307   6.212   5.798   0.088 -0.3794 -0.0072  0.5876
 6583TIP3    H141308   6.243   5.764   0.005 -1.4441  1.9841 -0.7134
 6583TIP3    H241309   6.149   5.733   0.119 -0.4979 -0.4467 -0.5232
 6584TIP3   OH241310   6.660   0.333   0.660 -0.1701  0.3766  0.0635
 6584TIP3    H141311   6.753   0.312   0.659 -0.0674  0.8132  0.0285
 6584TIP3    H241312   6.649   0.393   0.586 -0.4619  0.3910  0.1174
 6585TIP3   OH241313   6.279   0.247   0.597 -0.1859  0.6274  0.3284
 6585TIP3    H141314   6.328   0.194   0.534  0.5640  0.9695  0.6185
 6585TIP3    H241315   6.193   0.257   0.557 -0.2820 -0.6392  0.1749
 6586TIP3   OH241316   1.154   6.474   2.008  0.3835 -0.0616  0.1729
 6586TIP3    H141317   1.216   6.458   2.079  1.2862  1.0212 -0.3400
 6586TIP3    H241318   1.096   6.397   2.009 -0.2099  0.3253  2.6409
 6587TIP3   OH241319   3.757   2.728   8.949 -0.0067  0.1051 -0.5013
 6587TIP3    H141320   3.787   2.654   9.001  4.1089 -0.2354 -2.8683
 6587TIP3    H241321   3.801   2.804   8.989 -0.2260  0.4711 -0.9500
 6588TIP3   OH241322   5.725   1.395   0.211 -0.1368  0.3613 -0.1005
 6588TIP3    H141323   5.743   1.463   0.145  1.2949  0.2125  0.1013
 6588TIP3    H241324   5.662   1.337   0.169 -0.5432  1.1964 -0.6901
 6589TIP3   OH241325   0.628   6.562   8.863 -0.0212  0.0660  1.1901
 6589TIP3    H141326   0.699   6.512   8.825 -0.9672 -1.3731  1.2333
 6589TIP3    H241327   0.612   6.521   8.948 -0.0971  1.1595  1.7323
 6590TIP3   OH241328   2.287   6.366   1.818  0.2288 -0.4583  0.8774
 6590TIP3    H141329   2.300   6.276   1.789  0.7714  0.1674 -0.9184
 6590TIP3    H241330   2.374   6.395   1.846  0.2062 -0.2392  0.7178
 6591TIP3   OH241331   1.248   1.763   7.981  0.4658 -0.0516 -0.0073
 6591TIP3    H141332   1.303   1.689   7.954  0.2983 -0.0491 -0.3549
 6591TIP3    H241333   1.311   1.833   8.001  0.5705  0.1973 -1.1309
 6592TIP3   OH241334   0.181   2.303   6.978  0.3570  0.0534 -0.9460
 6592TIP3    H141335   0.159   2.282   6.887 -0.0895 -0.4508 -0.7231
 6592TIP3    H241336   0.186   2.218   7.022 -0.4785  0.3370 -0.2633
 6593TIP3   OH241337   5.908   1.146   2.228 -0.8025 -0.3386  0.7076
 6593TIP3    H141338   5.845   1.200   2.276 -0.5621 -1.0348  1.8552
 6593TIP3    H241339   5.886   1.056   2.253 -0.3124 -0.6777 -0.0603
 6594TIP3   OH241340   0.545   4.281   0.022 -0.4900  0.1349  0.2458
 6594TIP3    H141341   0.465   4.299   0.071  0.5061  0.9279  1.6627
 6594TIP3    H241342   0.550   4.186   0.017 -1.3580  0.0749  0.4104
 6595TIP3   OH241343   1.959   3.952   7.175 -0.4975  0.6391 -0.4596
 6595TIP3    H141344   2.021   3.918   7.110  0.6726 -0.5944  1.1939
 6595TIP3    H241345   1.951   4.045   7.155 -0.7304  0.1708 -2.7563
 6596TIP3   OH241346   0.316   0.918   0.015 -0.3780 -0.6076 -0.0954
 6596TIP3    H141347   0.364   0.927  -0.067 -0.7946  0.3053 -0.2486
 6596TIP3    H241348   0.239   0.866  -0.008 -1.6466  1.4817 -0.8020
 6597TIP3   OH241349   1.495   3.671   7.927  0.2578  0.1214 -0.0148
 6597TIP3    H141350   1.538   3.745   7.885  1.0671 -0.7579 -0.8005
 6597TIP3    H241351   1.408   3.668   7.887  1.1220 -0.9050 -1.9803
 6598TIP3   OH241352   0.797   3.126   6.814 -0.1001 -0.1749 -0.3263
 6598TIP3    H141353   0.701   3.131   6.820 -0.0591  0.5682 -0.2071
 6598TIP3    H241354   0.820   3.192   6.749  0.3876  0.1543  0.1760
 6599TIP3   OH241355   3.876   3.217   2.044 -0.0065 -0.1357  0.1806
 6599TIP3    H141356   3.836   3.183   2.124 -0.6909 -0.8672 -0.4548
 6599TIP3    H241357   3.854   3.153   1.977  0.7713  0.3389 -0.5522
 6600TIP3   OH241358   5.699   4.635   6.638  0.2600 -0.3533  0.0639
 6600TIP3    H141359   5.755   4.607   6.710  0.9603 -0.4089 -0.5017
 6600TIP3    H241360   5.734   4.591   6.561 -0.4662 -0.2706 -0.3226
 6601TIP3   OH241361   3.403   6.189   1.533  0.2265  0.9446  0.6237
 6601TIP3    H141362   3.409   6.242   1.613  0.5403  2.6670 -0.4722
 6601TIP3    H241363   3.494   6.173   1.508  0.1887 -1.6211  1.8034
 6602TIP3   OH241364   3.515   0.278   7.139 -0.3875  0.1763 -0.2667
 6602TIP3    H141365   3.540   0.267   7.047  0.1947 -1.4690  0.0610
 6602TIP3    H241366   3.468   0.362   7.141 -3.0460 -1.0875 -2.6162
 6603TIP3   OH241367   0.264   5.111   0.563 -1.0155 -0.0213  1.0731
 6603TIP3    H141368   0.281   5.125   0.470 -0.4237 -0.8486  1.0474
 6603TIP3    H241369   0.350   5.120   0.605 -1.1176 -0.5810  1.4145
 6604TIP3   OH241370   4.211   3.801   2.252 -0.4080  0.3279  0.5879
 6604TIP3    H141371   4.227   3.885   2.293 -0.5486  0.4987  0.2950
 6604TIP3    H241372   4.119   3.781   2.269 -0.1797 -0.1333  1.3193
 6605TIP3   OH241373   6.526   3.066   7.192 -0.4991  0.3857  0.6629
 6605TIP3    H141374   6.488   3.062   7.105  0.1748 -0.0099  0.3794
 6605TIP3    H241375   6.471   3.008   7.245  0.3602 -1.0993 -0.0027
 6606TIP3   OH241376   4.725   5.636   0.369  0.0390 -0.6942 -0.2208
 6606TIP3    H141377   4.746   5.609   0.459  0.4173 -0.0818 -0.1186
 6606TIP3    H241378   4.681   5.720   0.379  1.3517  0.0875 -0.6677
 6607TIP3   OH241379   0.234   3.336   6.871 -0.2535  0.4749 -0.4367
 6607TIP3    H141380   0.247   3.254   6.920 -0.2346  1.9911  2.2958
 6607TIP3    H241381   0.317   3.382   6.879  0.4481  0.0194 -3.7082
 6608TIP3   OH241382   5.787   6.384   0.354  0.1044  0.4390 -0.1072
 6608TIP3    H141383   5.696   6.354   0.357 -0.1586  1.2219  0.1057
 6608TIP3    H241384   5.839   6.305   0.368 -0.5943  0.2476  1.7649
 6609TIP3   OH241385   0.781   6.409   1.886 -0.2496 -0.1013  0.0401
 6609TIP3    H141386   0.805   6.341   1.823  0.3641  0.4041 -0.2897
 6609TIP3    H241387   0.729   6.364   1.952  0.0256 -0.8633 -0.2530
 6610TIP3   OH241388   2.421   3.336   8.052 -0.4943  0.0478 -0.2470
 6610TIP3    H141389   2.339   3.335   8.002  0.5276 -0.0926 -2.0129
 6610TIP3    H241390   2.489   3.329   7.985  0.9690  0.2565  1.1760
 6611TIP3   OH241391   0.771   3.337   8.716 -0.4883 -0.2067 -0.3276
 6611TIP3    H141392   0.736   3.327   8.627 -0.7590  0.8779 -0.3632
 6611TIP3    H241393   0.862   3.362   8.703 -0.7498  0.7936 -0.3398
 6612TIP3   OH241394   6.736   6.093   7.811 -0.0180  0.0033 -0.0586
 6612TIP3    H141395   6.819   6.136   7.793 -0.0422 -0.0972 -0.4074
 6612TIP3    H241396   6.670   6.148   7.770 -0.1398  0.1561  0.3361
 6613TIP3   OH241397   0.954   5.831   0.636  0.2062 -0.4109  0.3914
 6613TIP3    H141398   1.008   5.836   0.556 -0.8855  0.5147 -0.3263
 6613TIP3    H241399   0.905   5.914   0.636  0.7086 -0.0814  2.4254
 6614TIP3   OH241400   5.631   1.759   7.883  0.1656 -0.0483  0.4132
 6614TIP3    H141401   5.702   1.694   7.885 -0.0661 -0.2861  1.5185
 6614TIP3    H241402   5.604   1.767   7.974 -0.6496  0.6902  0.1130
 6615TIP3   OH241403   3.501   5.597   8.127 -0.6781 -0.0475 -0.1779
 6615TIP3    H141404   3.495   5.603   8.031 -0.6319 -2.2042 -0.3656
 6615TIP3    H241405   3.577   5.651   8.149 -0.3666  0.0702 -1.4246
 6616TIP3   OH241406   0.921   5.150   1.051  0.0636 -0.2902 -0.3434
 6616TIP3    H141407   0.978   5.222   1.023  0.3683 -0.1342  0.6490
 6616TIP3    H241408   0.839   5.193   1.074 -0.8328 -0.5996 -2.6165
 6617TIP3   OH241409   2.668   6.111   7.551 -0.0807 -0.4159 -0.1165
 6617TIP3    H141410   2.675   6.119   7.456  1.4966  1.0567  0.0854
 6617TIP3    H241411   2.601   6.175   7.576  1.8412  1.6491  0.0252
 6618TIP3   OH241412   0.547   4.231   1.535  0.5428  0.0987  0.3062
 6618TIP3    H141413   0.523   4.164   1.471  2.1234  1.1534 -1.5187
 6618TIP3    H241414   0.643   4.226   1.540  0.7581  2.5569 -0.3455
 6619TIP3   OH241415   4.381   1.775   1.144 -0.0083 -1.0768  0.3032
 6619TIP3    H141416   4.454   1.778   1.207 -0.1044  0.2509  0.3841
 6619TIP3    H241417   4.407   1.835   1.074 -0.7163 -1.1324 -0.0173
 6620TIP3   OH241418   6.067   5.381   8.956  0.1107 -0.0218  0.4878
 6620TIP3    H141419   6.087   5.352   8.867  2.4517  0.5416  0.7626
 6620TIP3    H241420   5.992   5.439   8.947  0.3902  0.1201 -1.1386
 6621TIP3   OH241421   4.467   5.985   1.348  0.8575  0.1640  0.6696
 6621TIP3    H141422   4.501   5.944   1.268 -0.0712 -1.1964  0.9276
 6621TIP3    H241423   4.510   5.937   1.419 -0.1194 -0.2651  0.9830
 6622TIP3   OH241424   4.991   5.195   6.391  0.3452  0.1898 -0.0038
 6622TIP3    H141425   4.981   5.280   6.348  1.3206  0.8410  0.9926
 6622TIP3    H241426   4.927   5.197   6.463  1.3174  0.6728  0.8708
 6623TIP3   OH241427   4.868   1.737   8.632  0.2883 -0.2502  0.4823
 6623TIP3    H141428   4.784   1.771   8.662  0.2399  0.6006 -0.5402
 6623TIP3    H241429   4.918   1.815   8.608  0.9234 -0.7998 -0.0185
 6624TIP3   OH241430   0.748   4.340   0.902 -0.3630  0.1447  0.5143
 6624TIP3    H141431   0.683   4.403   0.934 -1.8745 -0.9266 -0.3031
 6624TIP3    H241432   0.801   4.319   0.978 -0.1028  2.0399  0.9056
 6625TIP3   OH241433   4.414   0.311   0.155 -0.5015  0.7185 -0.0326
 6625TIP3    H141434   4.375   0.397   0.136 -1.4183  0.0238 -1.4667
 6625TIP3    H241435   4.357   0.272   0.221  0.7515  1.7489  1.7712
 6626TIP3   OH241436   1.871   1.177   7.787  0.4817  0.7072  0.0742
 6626TIP3    H141437   1.828   1.263   7.786 -1.1439 -0.0609 -1.0197
 6626TIP3    H241438   1.951   1.189   7.736 -0.8823  1.0741 -2.1159
 6627TIP3   OH241439   2.463   2.092   0.945  0.0855 -0.5038 -0.4388
 6627TIP3    H141440   2.394   2.084   1.010 -0.3435  0.0791 -0.8139
 6627TIP3    H241441   2.439   2.169   0.894  1.7305  0.5439  0.2866
 6628TIP3   OH241442   6.614   1.399   2.058 -0.0228  0.0414  0.4602
 6628TIP3    H141443   6.586   1.435   2.142  0.0119  0.9129  0.1107
 6628TIP3    H241444   6.701   1.361   2.075  0.0578  0.3681  0.7773
 6629TIP3   OH241445   1.707   6.742   1.992 -0.2804  0.1353 -0.0563
 6629TIP3    H141446   1.740   6.770   2.078 -0.7180 -0.4757  0.3214
 6629TIP3    H241447   1.773   6.680   1.960 -1.2042 -1.4096  0.8846
 6630TIP3   OH241448   4.620   3.023   7.731  0.1583 -0.6114 -0.6918
 6630TIP3    H141449   4.643   3.029   7.823 -0.2066  4.3393 -0.6596
 6630TIP3    H241450   4.595   2.932   7.718  0.3640 -1.5632  4.0050
 6631TIP3   OH241451   0.668   1.595   1.420  0.1745 -0.1991  0.2933
 6631TIP3    H141452   0.709   1.655   1.357 -1.0621  0.9027  0.4889
 6631TIP3    H241453   0.619   1.533   1.365 -0.0953  0.1541  0.1240
 6632TIP3   OH241454   3.431   4.348   8.055  0.3626  0.4983 -0.2553
 6632TIP3    H141455   3.465   4.401   8.128  1.8777  0.3579 -0.8282
 6632TIP3    H241456   3.355   4.396   8.024 -0.6175  0.3326  1.6959
 6633TIP3   OH241457   1.024   2.677   8.461 -0.2300 -0.1788  0.4473
 6633TIP3    H141458   1.091   2.658   8.395 -1.5622 -2.5464 -0.3319
 6633TIP3    H241459   0.957   2.726   8.414  0.6722  1.8681  1.1436
 6634TIP3   OH241460   2.401   5.708   6.859 -0.2832  0.3980  0.2314
 6634TIP3    H141461   2.397   5.623   6.903  0.3547 -0.3868 -1.1763
 6634TIP3    H241462   2.312   5.721   6.825 -0.2836  0.1034  0.1137
 6635TIP3   OH241463   2.593   0.629   2.705  0.2376  0.7625  0.2338
 6635TIP3    H141464   2.532   0.701   2.690  0.2823  0.8115  0.2865
 6635TIP3    H241465   2.647   0.626   2.625 -1.0456 -0.4892 -0.6360
 6636TIP3   OH241466   0.564   3.179   6.919  0.4002 -0.2066  0.2293
 6636TIP3    H141467   0.571   3.274   6.908 -0.2863 -0.3733 -2.4293
 6636TIP3    H241468   0.514   3.168   6.999 -2.8070  1.8664 -1.2534
 6637TIP3   OH241469   1.789   5.917   1.418  0.5434  0.0058 -0.1453
 6637TIP3    H141470   1.807   5.969   1.497  1.4621 -0.0812 -0.2934
 6637TIP3    H241471   1.868   5.866   1.405 -0.2803 -1.3192 -0.1066
 6638TIP3   OH241472   5.248   0.622   2.568 -0.0474  0.2542  0.2515
 6638TIP3    H141473   5.322   0.671   2.534  1.1532 -1.6566 -0.0392
 6638TIP3    H241474   5.205   0.587   2.490  0.0062 -0.3706  0.4962
 6639TIP3   OH241475   1.325   4.841   0.123 -0.0560  0.0257  0.6371
 6639TIP3    H141476   1.319   4.867   0.215 -1.4655 -0.0942  0.5879
 6639TIP3    H241477   1.235   4.839   0.092  0.4848  2.4028 -1.4069
 6640TIP3   OH241478   2.568   2.133   8.662  0.2646  0.2916 -0.6316
 6640TIP3    H141479   2.571   2.201   8.730 -0.3510 -0.2506 -0.0485
 6640TIP3    H241480   2.486   2.149   8.615 -0.9976 -1.2948  0.8753
 6641TIP3   OH241481   2.706   5.730   0.826  0.3266 -0.4024  0.3783
 6641TIP3    H141482   2.625   5.679   0.824  1.2476 -2.1534  2.5146
 6641TIP3    H241483   2.747   5.714   0.741 -1.3307  0.1487 -0.5530
 6642TIP3   OH241484   3.687   5.970   8.363 -0.0952  0.5113 -0.3831
 6642TIP3    H141485   3.653   6.016   8.286  0.4380 -0.9775 -1.5750
 6642TIP3    H241486   3.764   5.924   8.331 -0.2371 -0.6792  0.8891
 6643TIP3   OH241487   4.685   1.463   0.739 -0.3990 -0.2499 -0.4064
 6643TIP3    H141488   4.694   1.558   0.726  0.2134 -0.4263 -1.2845
 6643TIP3    H241489   4.591   1.451   0.755 -0.3792  0.5862  0.5019
 6644TIP3   OH241490   1.537   1.201   7.828  0.0495  0.3867 -0.2795
 6644TIP3    H141491   1.443   1.214   7.842 -0.0411  1.6639 -1.8165
 6644TIP3    H241492   1.568   1.161   7.909 -1.8234 -0.0821  0.2416
 6645TIP3   OH241493   2.711   1.511   7.890  0.2040 -0.2276  0.0953
 6645TIP3    H141494   2.676   1.518   7.801  1.0883  1.7791 -0.1731
 6645TIP3    H241495   2.805   1.495   7.877 -0.0986 -3.0135  0.7583
 6646TIP3   OH241496   2.239   1.042   8.839 -0.5694 -0.0434  0.2072
 6646TIP3    H141497   2.321   1.050   8.790  0.2502 -0.1865  1.5183
 6646TIP3    H241498   2.260   1.073   8.927 -2.0027  0.1747  0.4995
 6647TIP3   OH241499   1.772   2.128   7.899 -0.3912  0.3837  0.4122
 6647TIP3    H141500   1.692   2.181   7.907 -1.0132 -0.2885 -1.0009
 6647TIP3    H241501   1.826   2.155   7.974 -2.0530  0.6502  1.5747
 6648TIP3   OH241502   2.709   4.315   0.146 -0.0105  0.5192  0.1482
 6648TIP3    H141503   2.667   4.233   0.121  0.1128  0.3961  0.3373
 6648TIP3    H241504   2.652   4.351   0.214 -0.6730  1.1588 -0.7376
 6649TIP3   OH241505   5.345   4.872   2.108  0.6554 -0.4178 -0.1782
 6649TIP3    H141506   5.251   4.864   2.093  0.4123  2.8651 -1.2347
 6649TIP3    H241507   5.352   4.894   2.201  0.3724 -0.5985 -0.1131
 6650TIP3   OH241508   3.189   0.834   8.011 -0.0634 -0.1439  0.0840
 6650TIP3    H141509   3.103   0.876   8.014  0.1275  0.2222  0.5899
 6650TIP3    H241510   3.187   0.781   7.932  0.2287  1.9333 -1.3930
 6651TIP3   OH241511   2.292   2.933   2.447  0.1276  0.2826  0.1634
 6651TIP3    H141512   2.333   3.016   2.425 -1.8236  1.5993  1.2030
 6651TIP3    H241513   2.232   2.916   2.374  2.0001 -1.3683 -1.0966
 6652TIP3   OH241514   1.810   5.648   7.590  0.0817  0.0864 -0.4073
 6652TIP3    H141515   1.833   5.734   7.624 -0.6439  0.7454 -1.5020
 6652TIP3    H241516   1.887   5.621   7.540  0.4367 -0.0572  0.2053
 6653TIP3   OH241517   5.825   3.366   1.869 -0.8698  0.0147  0.2150
 6653TIP3    H141518   5.814   3.441   1.810 -2.0718 -0.5407 -0.2975
 6653TIP3    H241519   5.817   3.404   1.957  1.4397  0.9316  0.1083
 6654TIP3   OH241520   4.486   4.294   2.321  0.2775  0.1574  0.7410
 6654TIP3    H141521   4.431   4.218   2.302  0.5339 -0.0676  0.8814
 6654TIP3    H241522   4.574   4.258   2.328  0.4782  0.5531  0.2767
 6655TIP3   OH241523   5.542   2.877   1.843 -0.5969  0.0666 -0.1972
 6655TIP3    H141524   5.581   2.809   1.899 -0.8137  0.5115  0.5042
 6655TIP3    H241525   5.471   2.913   1.895 -1.9578 -0.7073 -1.4452
 6656TIP3   OH241526   2.837   5.573   1.293 -0.0183  0.0457  0.0704
 6656TIP3    H141527   2.877   5.613   1.370 -2.2830 -1.6227  2.2658
 6656TIP3    H241528   2.885   5.492   1.281 -0.9168 -0.6657  1.0531
 6657TIP3   OH241529   2.900   6.700   7.334 -0.0217 -0.2937  0.1674
 6657TIP3    H141530   2.807   6.716   7.318 -0.6010 -2.3474  1.1312
 6657TIP3    H241531   2.945   6.772   7.289 -2.1436  2.4226  2.0367
 6658TIP3   OH241532   4.933   2.728   2.430  0.2634  0.4739  0.3116
 6658TIP3    H141533   4.843   2.723   2.462 -0.6514  2.2804 -1.7188
 6658TIP3    H241534   4.953   2.821   2.429  0.9170  0.3817 -2.3673
 6659TIP3   OH241535   5.793   5.447   1.126  0.1729 -0.1696  0.6566
 6659TIP3    H141536   5.780   5.358   1.093  1.0779  0.1247 -0.5707
 6659TIP3    H241537   5.886   5.465   1.111 -0.0242  1.0306  0.7571
 6660TIP3   OH241538   1.493   4.703   0.968 -0.4104  0.1766  0.2793
 6660TIP3    H141539   1.411   4.751   0.955 -0.3172  0.1075 -0.6081
 6660TIP3    H241540   1.518   4.722   1.059 -0.1193  2.2195 -0.1901
 6661TIP3   OH241541   3.811   6.327   8.871 -0.5669 -0.2238 -0.1699
 6661TIP3    H141542   3.742   6.347   8.934  0.9900  1.1687  1.1764
 6661TIP3    H241543   3.764   6.311   8.789 -2.6336 -1.8652  1.2414
 6662TIP3   OH241544   1.480   0.655   0.512 -0.0830 -0.3531  0.2329
 6662TIP3    H141545   1.541   0.582   0.497 -0.5360 -0.6035 -0.4189
 6662TIP3    H241546   1.398   0.613   0.537  0.3899  0.0214  2.7000
 6663TIP3   OH241547   2.864   1.408   0.382 -0.4123 -0.5024 -0.5234
 6663TIP3    H141548   2.931   1.459   0.427 -0.6178 -0.1401 -0.6157
 6663TIP3    H241549   2.818   1.361   0.451 -0.3407 -0.4156 -0.4172
 6664TIP3   OH241550   0.479   2.658   6.492 -0.0324 -0.4376 -0.2006
 6664TIP3    H141551   0.390   2.637   6.461 -0.9392 -0.9992  2.5448
 6664TIP3    H241552   0.474   2.750   6.517  0.8741  0.1892 -2.1161
 6665TIP3   OH241553   4.455   3.173   8.823  0.1186  0.1247  0.1633
 6665TIP3    H141554   4.459   3.219   8.907 -2.1838 -0.4880  0.6986
 6665TIP3    H241555   4.480   3.238   8.758 -1.6088  1.7625  1.0371
 6666TIP3   OH241556   4.987   6.719   7.480  0.3488  0.3675 -0.1556
 6666TIP3    H141557   5.082   6.711   7.494  0.3074  1.3463  0.8647
 6666TIP3    H241558   4.966   6.808   7.509 -0.8787  0.1871 -0.4325
 6667TIP3   OH241559   0.465   3.097   8.869  0.5450 -0.0055 -0.0338
 6667TIP3    H141560   0.512   3.155   8.929 -1.6837  0.1769  1.6425
 6667TIP3    H241561   0.530   3.075   8.802  2.2512  2.2203  0.7604
 6668TIP3   OH241562   2.520   0.916   8.647  0.4368  0.3947 -0.1396
 6668TIP3    H141563   2.523   0.845   8.711 -1.5099 -1.0441 -1.5207
 6668TIP3    H241564   2.543   0.994   8.697 -1.0183 -0.6323  2.3411
 6669TIP3   OH241565   3.114   2.827   6.750  0.1072  1.0866  0.2415
 6669TIP3    H141566   3.186   2.865   6.700  0.5987  1.0466  0.9117
 6669TIP3    H241567   3.036   2.844   6.696  0.5670  1.4253 -0.3271
 6670TIP3   OH241568   3.761   5.757   8.683 -0.2031 -0.3278  0.5754
 6670TIP3    H141569   3.761   5.853   8.685  2.6561 -0.1844 -0.5537
 6670TIP3    H241570   3.739   5.731   8.773 -0.1241  1.4073  1.1372
 6671TIP3   OH241571   1.271   1.213   7.869  0.1788 -0.6932  0.2743
 6671TIP3    H141572   1.206   1.269   7.827 -2.1971 -3.0922  0.4703
 6671TIP3    H241573   1.242   1.124   7.851  2.6805 -1.9019  1.5793
 6672TIP3   OH241574   3.008   2.072   7.981  0.2972 -0.0090  0.1751
 6672TIP3    H141575   3.094   2.114   7.989 -0.2414  1.4684 -1.3041
 6672TIP3    H241576   3.017   2.012   7.907  0.4026 -0.8651  0.8589
 6673TIP3   OH241577   1.929   3.883   0.251 -0.4136  0.0667  0.0643
 6673TIP3    H141578   2.008   3.884   0.305 -0.9167  0.7176  0.8071
 6673TIP3    H241579   1.961   3.899   0.162  0.3473 -0.2545  0.2775
 6674TIP3   OH241580   3.598   2.335   8.199 -0.5592 -0.5632  0.0749
 6674TIP3    H141581   3.555   2.274   8.139 -1.4736  0.4669 -0.3397
 6674TIP3    H241582   3.553   2.322   8.282 -0.7223 -0.4843 -0.0013
 6675TIP3   OH241583   3.283   1.983   0.058  0.1670 -0.2775 -0.2750
 6675TIP3    H141584   3.235   2.061   0.031 -3.2471 -2.1590 -0.1744
 6675TIP3    H241585   3.331   1.956  -0.020 -0.0556  0.8896 -0.8353
 6676TIP3   OH241586   1.769   3.472   7.630  0.5749  0.1052 -0.0496
 6676TIP3    H141587   1.709   3.540   7.599  1.5207  1.5232  1.0947
 6676TIP3    H241588   1.715   3.416   7.686 -0.2185 -0.1296 -1.0192
 6677TIP3   OH241589   5.816   3.145   7.253  0.1630  0.1799 -0.1982
 6677TIP3    H141590   5.877   3.164   7.324  0.2383 -1.2710  0.1483
 6677TIP3    H241591   5.871   3.121   7.179  0.0443  0.4111 -0.3663
 6678TIP3   OH241592   1.957   0.129   1.814 -0.0777  0.1396 -0.3583
 6678TIP3    H141593   2.005   0.163   1.738  0.0988  2.2709  0.6315
 6678TIP3    H241594   2.019   0.135   1.886 -0.2616 -1.8075  0.0136
 6679TIP3   OH241595   5.807   5.211   8.224  0.2070  0.4723  0.2635
 6679TIP3    H141596   5.889   5.259   8.238 -0.2139  0.8269  1.7917
 6679TIP3    H241597   5.739   5.279   8.227 -0.2241  0.0487  0.1933
 6680TIP3   OH241598   5.088   0.792   1.000  0.0460 -0.0068 -0.4976
 6680TIP3    H141599   4.995   0.785   1.023  0.3451 -1.9625  0.3350
 6680TIP3    H241600   5.115   0.702   0.982  1.8924  0.4524 -0.2534
 6681TIP3   OH241601   2.042   6.636   2.574 -0.6058  0.2517  0.1080
 6681TIP3    H141602   2.067   6.727   2.586 -4.4492  1.3958  0.9208
 6681TIP3    H241603   2.022   6.629   2.480 -0.0418  0.1590 -0.0058
 6682TIP3   OH241604   4.973   4.220   2.014  0.5006  0.3791 -0.1128
 6682TIP3    H141605   4.963   4.312   2.038 -0.1766  0.1751  0.4265
 6682TIP3    H241606   4.973   4.173   2.098  0.7171 -0.1240 -0.3873
 6683TIP3   OH241607   3.229   0.215   8.669 -0.0538  0.0278  0.5835
 6683TIP3    H141608   3.214   0.273   8.743 -0.3076  2.2838 -1.1141
 6683TIP3    H241609   3.148   0.222   8.617  0.5681 -0.5328 -0.4944
 6684TIP3   OH241610   0.898   4.843   7.803  0.5058 -0.0508 -0.1214
 6684TIP3    H141611   0.884   4.849   7.708  2.7890 -3.1983 -0.8080
 6684TIP3    H241612   0.830   4.784   7.834  1.0497 -0.7181 -0.1911
 6685TIP3   OH241613   6.410   1.439   0.876 -0.1766 -0.4533  0.0501
 6685TIP3    H141614   6.415   1.491   0.956 -0.0716 -2.3848  1.3536
 6685TIP3    H241615   6.467   1.485   0.814  0.4545  0.5984  1.3578
 6686TIP3   OH241616   1.871   2.019   2.216  0.7426 -0.4299  0.0535
 6686TIP3    H141617   1.864   2.055   2.305  0.9941  1.1466 -0.5350
 6686TIP3    H241618   1.793   1.965   2.206  0.5774 -0.4185  1.1499
 6687TIP3   OH241619   4.004   0.243   2.606  0.2340  0.1428  0.3133
 6687TIP3    H141620   3.971   0.157   2.630  1.2072 -0.8645 -1.7103
 6687TIP3    H241621   4.099   0.237   2.618  0.6953 -0.1779 -2.7334
 6688TIP3   OH241622   0.288   3.566   0.076 -0.7002 -0.0515 -0.1215
 6688TIP3    H141623   0.330   3.618   0.007 -0.4967  1.0407  0.8007
 6688TIP3    H241624   0.209   3.615   0.098 -1.2097 -0.8381 -0.1570
 6689TIP3   OH241625   0.532   4.148   7.624 -0.3987 -0.9893  0.1135
 6689TIP3    H141626   0.513   4.172   7.533 -2.5862 -2.6700  0.0372
 6689TIP3    H241627   0.618   4.106   7.620 -0.0726 -0.2679 -1.0053
 6690TIP3   OH241628   1.981   5.623   0.667 -0.4044  0.1000  0.1137
 6690TIP3    H141629   1.900   5.649   0.712 -1.1904 -1.2973 -0.4344
 6690TIP3    H241630   1.975   5.664   0.581 -2.4490 -2.9987 -1.3830
 6691TIP3   OH241631   1.788   4.539   7.851 -0.0269 -0.0553 -0.0707
 6691TIP3    H141632   1.737   4.481   7.909  1.0308 -1.4417 -0.4672
 6691TIP3    H241633   1.878   4.528   7.879  0.1418  2.1057  0.3877
 6692TIP3   OH241634   4.033   0.120   7.321 -0.0938 -0.3280 -0.3352
 6692TIP3    H141635   3.955   0.135   7.267 -0.7957  0.7986  0.9089
 6692TIP3    H241636   4.104   0.161   7.273 -0.7226  0.7384 -0.4028
 6693TIP3   OH241637   4.056   5.941   8.057  0.1636 -0.3635  0.0660
 6693TIP3    H141638   3.980   5.999   8.053 -1.0997 -1.9895 -0.8771
 6693TIP3    H241639   4.127   5.996   8.089 -0.8985  1.7396 -1.0183
 6694TIP3   OH241640   0.265   2.731   7.109  0.3140 -0.2469 -0.0442
 6694TIP3    H141641   0.329   2.660   7.106 -0.3978 -0.9594  1.0530
 6694TIP3    H241642   0.183   2.692   7.082  0.2591  0.6001 -1.1618
 6695TIP3   OH241643   5.160   1.195   7.364  0.1568  0.3496  0.5437
 6695TIP3    H141644   5.127   1.178   7.276 -0.4199 -0.0394  0.8274
 6695TIP3    H241645   5.250   1.161   7.363  0.9729  2.3681 -0.5442
 6696TIP3   OH241646   4.325   6.607   0.951 -0.3540 -0.8222 -0.2771
 6696TIP3    H141647   4.381   6.684   0.947  1.0231 -1.6886  1.0829
 6696TIP3    H241648   4.259   6.621   0.884 -1.3570  2.4590  1.2353
 6697TIP3   OH241649   5.168   1.632   0.250  0.0276  0.3705  0.2334
 6697TIP3    H141650   5.259   1.659   0.261 -0.5884  3.4171 -0.9747
 6697TIP3    H241651   5.118   1.713   0.258 -2.1933 -0.4461 -3.1672
 6698TIP3   OH241652   6.204   4.580   6.602 -0.0200  0.3828 -0.0359
 6698TIP3    H141653   6.124   4.547   6.560 -0.8452  0.0405  1.7031
 6698TIP3    H241654   6.275   4.545   6.548 -0.9796 -1.2411 -0.3262
 6699TIP3   OH241655   6.651   2.798   1.541 -0.1813  0.1512 -0.0949
 6699TIP3    H141656   6.727   2.795   1.598 -0.7551 -0.7488  0.6474
 6699TIP3    H241657   6.687   2.800   1.452  0.7332 -2.0409  0.1692
 6700TIP3   OH241658   1.020   4.554   8.848 -0.5151  0.0383  0.1752
 6700TIP3    H141659   1.095   4.521   8.799 -0.4677 -1.1194  0.9988
 6700TIP3    H241660   1.046   4.643   8.873  0.3994 -0.1838  0.0577
 6701TIP3   OH241661   6.377   6.273   0.397 -0.4102  0.2047 -0.4318
 6701TIP3    H141662   6.368   6.319   0.480  0.3711 -0.9452  0.3363
 6701TIP3    H241663   6.372   6.180   0.421 -1.9997 -0.1401 -1.9147
 6702TIP3   OH241664   2.863   0.697   6.415  0.2334 -0.3241 -0.1871
 6702TIP3    H141665   2.840   0.786   6.388 -2.3085 -0.2879  1.6385
 6702TIP3    H241666   2.800   0.677   6.484 -0.2683 -4.0802 -1.4886
 6703TIP3   OH241667   5.814   2.030   6.684  0.4573  0.3334  0.1086
 6703TIP3    H141668   5.780   1.982   6.760  0.4268  0.7074  0.3311
 6703TIP3    H241669   5.738   2.042   6.627  0.2259  1.0825  0.5602
 6704TIP3   OH241670   5.092   0.227   0.377 -0.1205 -0.1419 -0.0373
 6704TIP3    H141671   5.131   0.254   0.294 -0.0567  1.0185  0.3555
 6704TIP3    H241672   5.128   0.287   0.442 -2.7233  1.1844  0.3063
 6705TIP3   OH241673   4.988   1.682   7.999  0.1574  0.4359  0.1157
 6705TIP3    H141674   4.979   1.675   7.904  1.0295  1.0458 -0.0231
 6705TIP3    H241675   4.974   1.593   8.031  1.9590 -0.2082 -0.7790
 6706TIP3   OH241676   2.059   4.289   1.276  0.5059 -0.2151 -0.1783
 6706TIP3    H141677   2.093   4.199   1.275  2.3393  0.3160  2.6519
 6706TIP3    H241678   2.122   4.338   1.224  1.1737 -0.1259  0.6861
 6707TIP3   OH241679   0.958   1.850   0.680  0.5737 -0.6183  0.1678
 6707TIP3    H141680   0.981   1.896   0.599 -1.9413 -0.3843 -0.5042
 6707TIP3    H241681   0.945   1.759   0.653 -2.4117 -0.1689 -0.2689
 6708TIP3   OH241682   1.368   4.241   1.007 -0.0628 -0.6397  0.4874
 6708TIP3    H141683   1.355   4.213   1.097  0.3957  1.1951  1.1658
 6708TIP3    H241684   1.412   4.167   0.965  2.8106 -0.3633  2.6826
 6709TIP3   OH241685   6.356   2.197   8.457  0.0568  0.5874  0.1470
 6709TIP3    H141686   6.361   2.194   8.361 -0.0682  0.8767  0.1307
 6709TIP3    H241687   6.319   2.283   8.476  1.3140  1.0655  0.4987
 6710TIP3   OH241688   1.118   3.548   7.759 -0.4111 -0.5257  0.3146
 6710TIP3    H141689   1.210   3.537   7.737 -0.8419 -0.0735 -2.0354
 6710TIP3    H241690   1.094   3.633   7.722 -2.1579 -1.4268 -0.7825
 6711TIP3   OH241691   2.191   1.192   8.509  0.2796  0.0654  0.0616
 6711TIP3    H141692   2.101   1.163   8.526 -0.7383  1.6134 -2.2595
 6711TIP3    H241693   2.232   1.116   8.466 -0.4674 -0.0593 -0.4564
 6712TIP3   OH241694   5.581   5.432   1.284  0.3071  0.5117 -0.4123
 6712TIP3    H141695   5.633   5.398   1.211 -0.1565 -1.7060  0.2305
 6712TIP3    H241696   5.633   5.411   1.362 -1.5764 -2.0763  0.2751
 6713TIP3   OH241697   6.030   2.865   6.897 -0.2561  0.8683 -0.1314
 6713TIP3    H141698   6.071   2.860   6.811 -0.3958 -0.3143 -0.1532
 6713TIP3    H241699   6.045   2.778   6.936 -1.9366  0.6969  0.2154
 6714TIP3   OH241700   0.502   5.549   8.651  0.3859  0.2233  0.6413
 6714TIP3    H141701   0.471   5.637   8.673  0.4285  0.2396  0.6348
 6714TIP3    H241702   0.454   5.491   8.709  0.7821  0.2955  1.0424
 6715TIP3   OH241703   1.415   5.674   1.132 -0.1972 -0.0476  0.1714
 6715TIP3    H141704   1.434   5.591   1.087 -0.8113 -1.0514  1.6765
 6715TIP3    H241705   1.497   5.696   1.176  0.4213  0.9641 -1.3938
 6716TIP3   OH241706   6.021   3.076   7.096 -0.7440  0.0686  0.3570
 6716TIP3    H141707   6.073   3.056   7.174 -0.3971 -1.4218 -0.2149
 6716TIP3    H241708   6.044   3.007   7.034 -2.5444  0.0352 -0.3340
 6717TIP3   OH241709   0.607   1.616   6.827  0.5230 -0.0753  0.4263
 6717TIP3    H141710   0.553   1.687   6.862 -0.4983 -1.4565  1.8193
 6717TIP3    H241711   0.545   1.544   6.814  1.9402 -1.5729  1.6321
 6718TIP3   OH241712   4.692   3.518   0.654  0.5159 -0.8892  0.3866
 6718TIP3    H141713   4.650   3.494   0.737  1.7372  0.9355  1.5942
 6718TIP3    H241714   4.626   3.571   0.609 -0.2944 -2.1934 -0.0362
 6719TIP3   OH241715   6.338   5.772   8.842 -0.2931  0.2799  0.5063
 6719TIP3    H141716   6.422   5.797   8.880 -0.6292 -0.4493  1.7835
 6719TIP3    H241717   6.360   5.711   8.772  0.2437  0.0742  0.8481
 6720TIP3   OH241718   0.633   6.326   2.790 -0.4654 -0.9472 -0.4973
 6720TIP3    H141719   0.686   6.405   2.796  0.2281 -1.5125  1.1580
 6720TIP3    H241720   0.586   6.335   2.707  2.1802 -0.4251 -2.0352
 6721TIP3   OH241721   4.709   3.710   1.327 -0.1424 -0.0436 -0.1535
 6721TIP3    H141722   4.786   3.667   1.365 -0.2384  0.8601  1.1305
 6721TIP3    H241723   4.733   3.728   1.236  0.8877 -0.4115  0.0364
 6722TIP3   OH241724   0.661   5.499   8.418 -0.3399 -0.0899  0.2329
 6722TIP3    H141725   0.614   5.517   8.499 -2.5525 -0.4665 -0.8843
 6722TIP3    H241726   0.698   5.583   8.392 -0.1368  0.1602  1.2822
 6723TIP3   OH241727   5.133   6.671   1.535 -0.4090  0.3488 -0.0522
 6723TIP3    H141728   5.165   6.594   1.488  0.1462  0.5101  0.0431
 6723TIP3    H241729   5.092   6.725   1.468 -1.9274 -0.5926  0.0847
 6724TIP3   OH241730   0.606   1.349   0.613 -0.1990  0.4895 -0.1927
 6724TIP3    H141731   0.659   1.270   0.602  1.7503  1.7214 -0.0795
 6724TIP3    H241732   0.601   1.387   0.525 -0.6023  0.5629 -0.1383
 6725TIP3   OH241733   0.897   6.609   7.424 -0.4558  0.4098 -0.5133
 6725TIP3    H141734   0.834   6.678   7.404  0.4505  1.5978  0.5641
 6725TIP3    H241735   0.853   6.554   7.489 -0.3689  1.2596  0.2730
 6726TIP3   OH241736   3.615   4.312   7.390 -0.9658 -0.0462 -0.2291
 6726TIP3    H141737   3.614   4.375   7.318 -0.8289  1.7437  1.2579
 6726TIP3    H241738   3.529   4.321   7.431 -0.4487  0.2690  0.8489
 6727TIP3   OH241739   2.006   1.650   0.983 -0.0666 -0.6941 -0.5595
 6727TIP3    H141740   2.031   1.599   0.906  1.7063 -0.9511  0.1360
 6727TIP3    H241741   2.087   1.692   1.011 -0.6802 -0.5615  1.1247
 6728TIP3   OH241742   5.056   4.263   7.590  0.0993  0.6583  0.5140
 6728TIP3    H141743   5.047   4.168   7.593 -1.4201  0.5528 -2.8116
 6728TIP3    H241744   5.144   4.277   7.556 -0.5655  0.2464 -1.5324
 6729TIP3   OH241745   0.336   1.211   8.692 -0.0133 -0.3172 -0.3346
 6729TIP3    H141746   0.289   1.267   8.753  0.4155 -0.2892 -0.0235
 6729TIP3    H241747   0.271   1.188   8.626 -0.1129  0.8022 -0.6460
 6730TIP3   OH241748   3.962   1.320   0.495 -0.2035 -0.0133 -0.3166
 6730TIP3    H141749   3.957   1.336   0.589 -1.5341 -0.0646 -0.3690
 6730TIP3    H241750   3.984   1.227   0.488  3.3367  0.6478 -0.0663
 6731TIP3   OH241751   4.666   3.516   8.927 -0.4685  0.0028 -0.5701
 6731TIP3    H141752   4.723   3.448   8.961  0.0754  1.0568  0.7190
 6731TIP3    H241753   4.706   3.541   8.843  0.5263  0.1729 -0.0601
 6732TIP3   OH241754   5.739   4.097   7.434 -0.2413 -0.5343 -0.2760
 6732TIP3    H141755   5.669   4.092   7.500 -1.4949  1.9121 -1.2609
 6732TIP3    H241756   5.692   4.106   7.351  1.2898 -1.1570 -1.2350
 6733TIP3   OH241757   3.821   0.624   0.544 -0.2485  0.2411 -0.6647
 6733TIP3    H141758   3.909   0.640   0.578  0.4371 -1.7484 -1.3313
 6733TIP3    H241759   3.798   0.705   0.498  0.7754  1.1826  0.4067
 6734TIP3   OH241760   4.566   3.831   7.321 -0.6234 -0.0167  0.5718
 6734TIP3    H141761   4.654   3.831   7.283 -1.8168  2.1941 -2.6582
 6734TIP3    H241762   4.539   3.739   7.319  0.5039 -0.3710 -1.4083
 6735TIP3   OH241763   3.277   4.380   0.583 -0.0932  0.9418 -0.1821
 6735TIP3    H141764   3.311   4.437   0.653 -2.0662  0.9357  0.8313
 6735TIP3    H241765   3.261   4.296   0.626  2.3574 -0.3555 -1.5667
 6736TIP3   OH241766   2.885   3.887   1.088 -0.2924 -0.2269  0.4106
 6736TIP3    H141767   2.802   3.859   1.126 -0.6297  2.4952  1.9545
 6736TIP3    H241768   2.949   3.873   1.158 -0.2105  1.2725  0.6616
 6737TIP3   OH241769   1.448   2.745   1.386 -0.3219 -0.3431  0.0508
 6737TIP3    H141770   1.525   2.693   1.411 -1.4698 -0.6217  3.5614
 6737TIP3    H241771   1.437   2.727   1.293  1.6365 -3.3281  0.2401
 6738TIP3   OH241772   6.363   5.396   8.425  0.0585 -0.0730 -0.4803
 6738TIP3    H141773   6.323   5.482   8.410 -0.6794 -0.1844  0.7106
 6738TIP3    H241774   6.421   5.409   8.500  0.3127 -0.5078 -0.5985
 6739TIP3   OH241775   4.569   6.031   6.989  0.1362 -0.0636  0.0902
 6739TIP3    H141776   4.498   5.974   6.962  1.3906 -1.4291 -0.4624
 6739TIP3    H241777   4.608   6.062   6.907  1.8213 -1.4941  0.2866
 6740TIP3   OH241778   0.858   3.955   8.720 -0.5600 -0.6187  0.2339
 6740TIP3    H141779   0.783   3.948   8.662 -0.7675 -0.1923  0.4468
 6740TIP3    H241780   0.903   3.871   8.712 -0.5685 -0.5497 -0.5641
 6741TIP3   OH241781   0.464   0.589   8.419  0.4964  0.0441  0.0039
 6741TIP3    H141782   0.486   0.627   8.504 -1.5585 -0.4817  0.8218
 6741TIP3    H241783   0.526   0.517   8.409 -0.4822 -1.1799  2.0519
 6742TIP3   OH241784   4.483   5.987   7.725  0.2292 -0.1048  0.0847
 6742TIP3    H141785   4.511   5.910   7.677  1.6255  0.0828  0.5597
 6742TIP3    H241786   4.552   6.051   7.711  0.1186  0.3375  1.4057
 6743TIP3   OH241787   2.886   4.926   0.147 -0.4581 -0.5134 -0.0945
 6743TIP3    H141788   2.818   4.972   0.198 -0.0734 -0.5615  0.4735
 6743TIP3    H241789   2.893   4.976   0.066 -1.7768 -0.9927 -0.5387
 6744TIP3   OH241790   5.566   5.533   1.656  0.4673  0.3393 -0.7697
 6744TIP3    H141791   5.650   5.546   1.612  0.4557 -0.4779 -1.0389
 6744TIP3    H241792   5.588   5.534   1.750  0.9427 -0.9087 -0.8541
 6745TIP3   OH241793   1.763   5.789   2.086  0.1582  0.0848  0.0283
 6745TIP3    H141794   1.740   5.874   2.123 -1.3624  0.6924 -2.1352
 6745TIP3    H241795   1.852   5.801   2.052 -0.1047  0.9039 -0.4135
 6746TIP3   OH241796   5.356   1.166   1.052 -0.2950 -0.0206 -0.1319
 6746TIP3    H141797   5.401   1.238   1.007 -1.1165  0.7341  0.2038
 6746TIP3    H241798   5.372   1.182   1.145  0.5209 -0.9762 -0.0917
 6747TIP3   OH241799   5.371   6.564   8.284  0.1927  0.2775  0.0463
 6747TIP3    H141800   5.287   6.534   8.319 -0.2949  0.2237 -1.1073
 6747TIP3    H241801   5.416   6.484   8.256 -0.8157  0.4732 -2.3986
 6748TIP3   OH241802   4.743   3.622   8.047  0.1106  0.2095  0.5516
 6748TIP3    H141803   4.754   3.536   8.008  3.3476  0.1321  1.3827
 6748TIP3    H241804   4.766   3.611   8.139 -1.0505  1.6718  1.0749
 6749TIP3   OH241805   0.097   3.290   1.702  0.1853 -0.6068 -0.3428
 6749TIP3    H141806   0.071   3.381   1.709 -0.1719 -0.7277 -0.0425
 6749TIP3    H241807   0.057   3.248   1.778  1.6424 -0.7184  0.3944
 6750TIP3   OH241808   2.826   2.358   1.595 -0.4771  0.1838  0.1117
 6750TIP3    H141809   2.829   2.322   1.506  1.6308  0.5632 -0.0197
 6750TIP3    H241810   2.804   2.282   1.651  2.3588 -1.0623 -0.3223
 6751TIP3   OH241811   0.059   0.546   6.763 -0.7267  0.6669  0.5064
 6751TIP3    H141812   0.097   0.469   6.804 -1.5027 -0.2802 -0.5108
 6751TIP3    H241813   0.128   0.612   6.769  0.1094 -0.2283  0.9993
 6752TIP3   OH241814   1.725   3.525   1.092 -0.3771  0.0234 -0.0816
 6752TIP3    H141815   1.728   3.564   1.180 -1.1049 -0.2894  0.0957
 6752TIP3    H241816   1.792   3.456   1.093 -0.1783  0.2194  0.1289
 6753TIP3   OH241817   0.056   3.611   7.404  0.4453 -0.2450  0.2008
 6753TIP3    H141818  -0.031   3.639   7.431  0.0246 -1.4485  0.1494
 6753TIP3    H241819   0.103   3.692   7.384 -0.7770  0.4012 -0.1180
 6754TIP3   OH241820   3.351   2.118   1.491 -0.5743 -0.2277  0.3592
 6754TIP3    H141821   3.299   2.095   1.413 -1.3801  2.8330 -0.1472
 6754TIP3    H241822   3.380   2.208   1.474 -0.5393  0.4504  3.4898
 6755TIP3   OH241823   4.518   3.343   8.634 -0.0577  0.2675  0.3211
 6755TIP3    H141824   4.456   3.320   8.564  1.4829 -1.8167 -0.4815
 6755TIP3    H241825   4.594   3.379   8.588 -0.1824  1.7088  1.1912
 6756TIP3   OH241826   6.092   3.059   8.760  0.4174 -0.0480  0.2385
 6756TIP3    H141827   6.003   3.030   8.738 -0.1953  1.7233  0.1875
 6756TIP3    H241828   6.133   2.983   8.801 -1.1811 -0.8537  0.4203
 6757TIP3   OH241829   2.114   5.112   7.635  0.1081 -0.5440 -0.0072
 6757TIP3    H141830   2.023   5.122   7.607 -0.5463 -0.0097  2.1069
 6757TIP3    H241831   2.110   5.044   7.703  1.2629 -0.4231  0.2021
 6758TIP3   OH241832   0.262   4.619   8.138 -0.4760  0.0128 -0.5246
 6758TIP3    H141833   0.242   4.611   8.231 -0.3715  0.7726 -0.4294
 6758TIP3    H241834   0.339   4.564   8.124 -0.7220 -0.4075 -0.2467
 6759TIP3   OH241835   3.737   0.045   1.670 -0.5524 -0.0974 -0.4050
 6759TIP3    H141836   3.737   0.140   1.675 -0.6155 -0.0786 -0.7384
 6759TIP3    H241837   3.788   0.024   1.591 -1.4223 -0.2947 -0.9381
 6760TIP3   OH241838   0.063   1.951   1.254 -0.0261  0.0491  0.4837
 6760TIP3    H141839   0.047   2.026   1.312 -1.6711 -1.1466  1.6599
 6760TIP3    H241840   0.121   1.894   1.304 -1.2104 -0.8444  0.8979
 6761TIP3   OH241841   2.696   1.541   0.651  0.4010  0.3228  0.6061
 6761TIP3    H141842   2.723   1.451   0.629  0.1213  0.4523 -0.2859
 6761TIP3    H241843   2.667   1.535   0.742  2.0238 -0.1333  1.1415
 6762TIP3   OH241844   6.650   3.536   0.621  0.6674 -0.0419  0.1522
 6762TIP3    H141845   6.650   3.498   0.533 -1.9823  0.1514 -0.0076
 6762TIP3    H241846   6.703   3.615   0.614  0.0889  0.2363 -1.4315
 6763TIP3   OH241847   4.946   2.128   0.649 -0.2410 -0.2156 -0.0238
 6763TIP3    H141848   4.926   2.222   0.644  0.3332 -0.1444 -1.4751
 6763TIP3    H241849   4.935   2.096   0.559  2.5925 -0.8779 -0.2457
 6764TIP3   OH241850   5.900   1.720   1.788  0.0046 -0.4068 -0.2321
 6764TIP3    H141851   5.922   1.813   1.782 -0.3225 -0.4193 -1.9621
 6764TIP3    H241852   5.805   1.717   1.776 -0.2918 -0.8273  1.7894
 6765TIP3   OH241853   1.230   3.457   7.253 -0.2370  0.1527  0.3157
 6765TIP3    H141854   1.191   3.526   7.198  0.9370 -0.5091 -1.4632
 6765TIP3    H241855   1.233   3.494   7.341 -0.7908  1.8822 -0.3567
 6766TIP3   OH241856   2.697   5.434   7.831  0.4588 -0.4711  0.1742
 6766TIP3    H141857   2.663   5.484   7.757  0.9861  0.1078  0.3156
 6766TIP3    H241858   2.767   5.489   7.867  1.6566 -1.6911 -0.2033
 6767TIP3   OH241859   0.098   0.485   8.328  0.7947  0.0871  0.0626
 6767TIP3    H141860   0.075   0.576   8.309  1.8423  0.1581 -0.9844
 6767TIP3    H241861   0.125   0.449   8.244  1.0320 -1.0068  0.5874
 6768TIP3   OH241862   0.957   5.750   6.283 -0.6498  0.6242 -0.0376
 6768TIP3    H141863   0.927   5.840   6.266 -1.0440  0.6208  0.6207
 6768TIP3    H241864   0.891   5.713   6.341 -1.1844 -0.5422 -1.3372
 6769TIP3   OH241865   4.957   2.739   0.730  0.2397  0.1298  0.8536
 6769TIP3    H141866   5.007   2.661   0.704 -0.1306 -0.0786  0.7678
 6769TIP3    H241867   5.024   2.805   0.747  0.4870  0.3333 -0.8247
 6770TIP3   OH241868   2.203   0.346   0.255 -0.0981  0.3034 -0.5277
 6770TIP3    H141869   2.134   0.352   0.322  0.1325 -3.1991  0.2486
 6770TIP3    H241870   2.157   0.365   0.173 -1.4124  0.4647  0.2033
 6771TIP3   OH241871   2.330   0.051   8.899 -0.0496 -0.0994  0.1386
 6771TIP3    H141872   2.282   0.099   8.832  3.2675  1.8855 -1.0945
 6771TIP3    H241873   2.324   0.106   8.977  1.9180  1.3943 -0.6623
 6772TIP3   OH241874   3.578   1.933   0.128  0.0669 -0.0870 -0.0736
 6772TIP3    H141875   3.650   1.896   0.179  0.1451  1.2483  0.8389
 6772TIP3    H241876   3.499   1.906   0.176 -0.1196 -1.8261 -1.2500
 6773TIP3   OH241877   4.013   6.563   6.589  0.1471 -0.1315  0.3535
 6773TIP3    H141878   3.984   6.623   6.659  1.1491  0.5641  0.1846
 6773TIP3    H241879   3.937   6.506   6.575 -1.1687  1.6344 -0.0695
 6774TIP3   OH241880   5.996   4.428   1.431 -0.6074 -0.1082  0.3796
 6774TIP3    H141881   5.902   4.406   1.425 -0.9023  0.7750  1.5185
 6774TIP3    H241882   6.038   4.344   1.449 -1.1812 -0.5076 -0.0807
 6775TIP3   OH241883   4.343   5.983   8.185 -1.1907 -0.5088  0.1288
 6775TIP3    H141884   4.290   5.999   8.263 -1.3384 -0.0774 -0.0573
 6775TIP3    H241885   4.399   6.060   8.178 -1.5200 -0.3150 -0.4686
 6776TIP3   OH241886   3.350   1.259   8.424  0.3998  0.5863  0.0212
 6776TIP3    H141887   3.292   1.193   8.386 -1.1664  2.2128 -0.5351
 6776TIP3    H241888   3.306   1.287   8.504  1.2439  0.6993  0.4600
 6777TIP3   OH241889   6.150   6.623   7.409  0.2531  0.5392 -0.6080
 6777TIP3    H141890   6.088   6.676   7.459  0.7727  1.2044 -0.6365
 6777TIP3    H241891   6.224   6.682   7.394  2.0090 -0.9274  1.5586
 6778TIP3   OH241892   2.389   4.098   1.471 -0.0417  0.2360 -0.0537
 6778TIP3    H141893   2.426   4.061   1.392  1.2763  2.0782 -0.3751
 6778TIP3    H241894   2.465   4.125   1.523 -0.8942  1.3145  0.6898
 6779TIP3   OH241895   4.069   0.008   7.944 -0.2745 -0.0599  0.2058
 6779TIP3    H141896   4.100   0.033   7.857  0.5711 -1.1059  0.1851
 6779TIP3    H241897   3.979  -0.023   7.930 -0.2051 -0.0512 -0.2610
 6780TIP3   OH241898   1.631   0.874   8.817 -0.2793  0.0097  0.2453
 6780TIP3    H141899   1.638   0.970   8.819 -0.6261  0.0560  2.7024
 6780TIP3    H241900   1.540   0.857   8.841  0.1339 -0.9391  1.2144
 6781TIP3   OH241901   0.829   5.494   1.464 -0.0210 -0.0965  0.3404
 6781TIP3    H141902   0.753   5.551   1.476 -0.5607 -0.0237 -2.6652
 6781TIP3    H241903   0.903   5.554   1.461 -0.4541  0.4170 -1.5994
 6782TIP3   OH241904   0.708   4.498   1.755  0.3669 -0.1499 -0.4622
 6782TIP3    H141905   0.750   4.412   1.764  1.8840  0.3857 -1.8854
 6782TIP3    H241906   0.775   4.552   1.712 -1.2452  1.1919 -1.3707
 6783TIP3   OH241907   3.777   2.484   7.223 -0.3854 -0.0934 -0.1972
 6783TIP3    H141908   3.682   2.475   7.229 -0.2454 -0.7523  1.4622
 6783TIP3    H241909   3.796   2.567   7.266 -0.1804 -0.0694 -0.3330
 6784TIP3   OH241910   4.948   3.249   2.467 -0.5118 -0.2462 -0.0880
 6784TIP3    H141911   5.006   3.304   2.520 -1.1992 -0.1923  0.6224
 6784TIP3    H241912   4.890   3.311   2.423 -0.0186 -0.2980 -0.8370
 6785TIP3   OH241913   3.379   3.000   7.369  0.5035  0.0918 -0.7036
 6785TIP3    H141914   3.360   2.929   7.430 -0.5419  0.7400 -0.2430
 6785TIP3    H241915   3.328   2.979   7.291 -0.9667  1.0380 -0.0387
 6786TIP3   OH241916   1.867   0.931   2.356  0.0914 -0.1868  0.2430
 6786TIP3    H141917   1.830   0.845   2.337  1.1834 -0.1657 -2.3661
 6786TIP3    H241918   1.849   0.982   2.277  2.5676  0.8884  0.3040
 6787TIP3   OH241919   3.709   6.328   7.808 -0.6386  0.2677 -0.3429
 6787TIP3    H141920   3.626   6.347   7.853 -1.0522 -1.2329 -0.3878
 6787TIP3    H241921   3.721   6.234   7.821  2.4643  0.8554  1.9847
 6788TIP3   OH241922   3.924   3.444   1.500 -0.2281 -0.2932 -0.1018
 6788TIP3    H141923   3.900   3.378   1.565  0.6207  1.1722  1.7976
 6788TIP3    H241924   3.900   3.527   1.541 -0.7534  0.6413 -2.1962
 6789TIP3   OH241925   4.625   2.961   8.803 -0.0729 -0.4978  0.1379
 6789TIP3    H141926   4.606   2.867   8.796 -1.2436 -0.2312 -0.6166
 6789TIP3    H241927   4.542   2.999   8.831  0.6115  0.2341  1.2174
 6790TIP3   OH241928   3.877   5.493   0.723  0.4143 -0.3171 -0.7773
 6790TIP3    H141929   3.965   5.496   0.686  1.4276  2.6937  1.5437
 6790TIP3    H241930   3.820   5.526   0.653  1.6891  1.3570 -1.0656
 6791TIP3   OH241931   2.575   3.837   7.886  0.4793  0.8430  0.0625
 6791TIP3    H141932   2.516   3.864   7.815  2.2705  0.1856 -1.7614
 6791TIP3    H241933   2.556   3.744   7.899  0.4416  0.8605  0.1285
 6792TIP3   OH241934   4.230   0.759   8.857  0.0036  0.1906  0.2009
 6792TIP3    H141935   4.307   0.811   8.835  0.4302 -0.9890 -1.1473
 6792TIP3    H241936   4.197   0.800   8.938  2.8912 -0.2074  1.7169
 6793TIP3   OH241937   3.477   5.225   7.031  0.2343 -0.4049  0.2779
 6793TIP3    H141938   3.499   5.208   6.940 -2.7126  0.8222 -0.7982
 6793TIP3    H241939   3.466   5.138   7.070  3.1895 -0.9729  0.0210
 6794TIP3   OH241940   4.520   5.635   7.472 -0.0776  0.1138 -0.3878
 6794TIP3    H141941   4.465   5.704   7.435 -0.5370  1.1962  2.1607
 6794TIP3    H241942   4.605   5.677   7.485  0.4869 -0.6577 -1.3687
 6795TIP3   OH241943   4.027   4.717   2.021 -0.1881 -0.5018  0.4199
 6795TIP3    H141944   3.960   4.778   2.052 -0.8552 -1.4204  0.8623
 6795TIP3    H241945   4.110   4.760   2.041 -0.6398  0.4510  0.3066
 6796TIP3   OH241946   0.068   5.481   1.413 -0.2048  0.0381 -0.4397
 6796TIP3    H141947   0.099   5.402   1.370 -1.0594 -0.4095 -0.2464
 6796TIP3    H241948   0.147   5.517   1.456  0.3166 -0.3504 -1.0549
 6797TIP3   OH241949   0.954   6.048   2.186 -0.5246 -1.0374  0.6590
 6797TIP3    H141950   1.019   6.011   2.245  1.0710 -0.3314 -0.5876
 6797TIP3    H241951   0.935   6.135   2.221 -0.7822 -1.2204  0.9864
 6798TIP3   OH241952   0.174   4.880   0.048 -0.0154 -0.3173 -0.1492
 6798TIP3    H141953   0.150   4.972   0.038  1.2143 -0.1512 -2.1131
 6798TIP3    H241954   0.141   4.856   0.134 -0.2186  2.0000  0.4816
 6799TIP3   OH241955   4.378   0.949   8.618 -0.1633 -0.0792  0.4736
 6799TIP3    H141956   4.348   1.040   8.612  1.3085  0.3398 -1.2459
 6799TIP3    H241957   4.425   0.934   8.536 -0.4941 -2.4563  0.6524
 6800TIP3   OH241958   1.858   0.781   8.199 -0.3000 -0.1373 -0.2499
 6800TIP3    H141959   1.892   0.707   8.148 -0.3034  0.3980 -1.0507
 6800TIP3    H241960   1.835   0.847   8.133 -1.2730  0.1806  0.3810
 6801TIP3   OH241961   0.537   4.344   7.892 -0.1288  0.0616 -0.2158
 6801TIP3    H141962   0.513   4.265   7.844 -0.5685  0.5500 -0.8249
 6801TIP3    H241963   0.559   4.408   7.824 -3.1813  1.5734  0.0109
 6802TIP3   OH241964   0.793   6.495   7.639  0.8023  0.3266  0.7652
 6802TIP3    H141965   0.737   6.425   7.671 -0.6929  0.4008 -1.4566
 6802TIP3    H241966   0.749   6.576   7.666 -0.5599  0.3914 -1.4254
 6803TIP3   OH241967   2.069   0.556   2.451  0.2729  0.4488 -0.3828
 6803TIP3    H141968   1.979   0.566   2.482 -0.4711  0.0910 -2.3148
 6803TIP3    H241969   2.070   0.472   2.406  1.2342  0.9908 -1.4432
 6804TIP3   OH241970   6.168   1.035   8.651 -0.4595 -0.1145  0.4773
 6804TIP3    H141971   6.240   1.088   8.684  1.1351 -1.3991 -0.7436
 6804TIP3    H241972   6.113   1.019   8.728  2.0288 -1.3348  2.1648
 6805TIP3   OH241973   0.410   3.346   1.564  0.4334  0.2958 -0.0615
 6805TIP3    H141974   0.316   3.328   1.561  0.4867  0.1470 -1.7337
 6805TIP3    H241975   0.416   3.438   1.590 -0.1913  0.3798 -0.1946
 6806TIP3   OH241976   5.997   2.924   6.499  0.3058 -0.0866  0.2787
 6806TIP3    H141977   6.003   3.017   6.479  2.0032 -0.2018  0.0979
 6806TIP3    H241978   5.903   2.908   6.514  0.1791  2.0307  2.2194
 6807TIP3   OH241979   5.748   3.046   7.598  0.1977 -0.1082  0.9604
 6807TIP3    H141980   5.672   3.104   7.603 -0.5195 -0.8262 -0.7250
 6807TIP3    H241981   5.814   3.097   7.552 -0.6003 -0.7306 -0.9636
 6808TIP3   OH241982   6.596   0.732   1.726 -0.0638 -0.1122 -0.0152
 6808TIP3    H141983   6.679   0.764   1.690 -0.3232 -0.5446 -1.0337
 6808TIP3    H241984   6.538   0.808   1.724  0.6167  0.4939  1.7576
 6809TIP3   OH241985   1.527   3.766   1.140  0.8430  0.3982 -0.0779
 6809TIP3    H141986   1.463   3.697   1.161  1.4335 -0.8485 -2.0436
 6809TIP3    H241987   1.609   3.735   1.178  1.6004 -1.1778 -2.7175
 6810TIP3   OH241988   2.577   3.666   1.095  0.2169  0.1623  0.4618
 6810TIP3    H141989   2.625   3.634   1.019  2.3389  0.2833  1.6872
 6810TIP3    H241990   2.644   3.680   1.162 -1.1524  3.1239  1.3605
 6811TIP3   OH241991   2.571   0.856   7.897  0.5610 -0.6114 -0.1952
 6811TIP3    H141992   2.576   0.912   7.975  0.1028  0.0049 -0.6015
 6811TIP3    H241993   2.642   0.794   7.909  1.1965  0.1618  0.1902
 6812TIP3   OH241994   4.406   6.349   0.722 -0.1123 -0.1285 -0.2697
 6812TIP3    H141995   4.450   6.430   0.748  1.0741 -0.8353 -0.0025
 6812TIP3    H241996   4.315   6.361   0.750  0.0104  1.1691 -0.3840
 6813TIP3   OH241997   5.600   0.895   1.056  0.8730  0.5010  0.1418
 6813TIP3    H141998   5.609   0.947   1.136 -0.0730  1.2520 -0.2130
 6813TIP3    H241999   5.689   0.872   1.031  1.3202  1.9560  0.3311
 6814TIP3   OH242000   3.102   3.458   1.554 -0.3669  0.0888 -0.3959
 6814TIP3    H142001   3.167   3.463   1.625 -0.5660 -0.3871 -0.1761
 6814TIP3    H242002   3.018   3.466   1.598 -0.4595  1.6764 -0.7716
 6815TIP3   OH242003   5.939   4.672   7.955 -0.0151  0.2684 -0.2529
 6815TIP3    H142004   5.855   4.638   7.984  0.2455 -0.8958 -0.8140
 6815TIP3    H242005   5.935   4.766   7.975 -1.1033  0.0821  0.5010
 6816TIP3   OH242006   3.332   1.435   1.015  0.5061 -0.0137  0.1517
 6816TIP3    H142007   3.298   1.524   1.006  0.2704 -0.2812 -1.8674
 6816TIP3    H242008   3.407   1.431   0.955  2.1510 -0.4458  2.0971
 6817TIP3   OH242009   3.246   4.302   0.123 -0.1838 -0.2984 -0.4221
 6817TIP3    H142010   3.256   4.263   0.037 -1.3438 -3.6735  0.8006
 6817TIP3    H242011   3.174   4.365   0.113  2.2519  2.3802 -2.6444
 6818TIP3   OH242012   0.703   3.948   1.701 -0.4804  0.7358  0.3065
 6818TIP3    H142013   0.697   3.854   1.718  0.0838  0.4214 -1.0857
 6818TIP3    H242014   0.797   3.964   1.688 -0.6494  1.3436 -0.1968
 6819TIP3   OH242015   0.790   5.823   0.294  0.2943  0.1326 -0.0701
 6819TIP3    H142016   0.767   5.793   0.383 -2.2359 -1.8699 -1.2343
 6819TIP3    H242017   0.745   5.761   0.237  1.0820  1.9059 -2.7799
 6820TIP3   OH242018   5.443   1.691   2.555  0.0079 -0.4292  0.5236
 6820TIP3    H142019   5.409   1.780   2.565 -1.8048 -1.1212  0.7595
 6820TIP3    H242020   5.395   1.654   2.481  0.9931 -1.1184  0.2010
 6821TIP3   OH242021   6.648   1.109   8.806 -0.6887  0.1922 -0.0074
 6821TIP3    H142022   6.631   1.197   8.839  0.7277  0.6189 -0.3259
 6821TIP3    H242023   6.707   1.122   8.732  0.4907 -1.0661  0.6525
 6822TIP3   OH242024   6.595   0.429   8.457  0.3673 -0.0490 -0.4638
 6822TIP3    H142025   6.553   0.434   8.371  1.9915  1.1382 -1.2406
 6822TIP3    H242026   6.681   0.468   8.444  1.9364 -2.7770  0.9443
 6823TIP3   OH242027   0.735   4.968   0.919 -0.3662 -0.5890  0.4596
 6823TIP3    H142028   0.651   5.010   0.940  0.3240 -0.1924  2.7403
 6823TIP3    H242029   0.800   5.037   0.935  0.4975 -1.2957  0.0482
 6824TIP3   OH242030   1.584   3.452   0.072  0.8755 -0.3617 -0.4481
 6824TIP3    H142031   1.596   3.498  -0.011  1.4534 -0.4887 -0.4357
 6824TIP3    H242032   1.516   3.386   0.054 -0.0332  0.5403 -0.4431
 6825TIP3   OH242033   4.751   4.745   1.648  0.6967  0.5572  0.6019
 6825TIP3    H142034   4.708   4.816   1.695  1.1677 -1.0600  3.7420
 6825TIP3    H242035   4.829   4.726   1.700  1.3609 -1.2970 -0.9620
 6826TIP3   OH242036   0.391   4.216   7.374 -0.0962 -0.0864 -0.0989
 6826TIP3    H142037   0.316   4.156   7.371  2.0420 -3.0001 -0.6121
 6826TIP3    H242038   0.386   4.266   7.292 -1.3908 -0.3124 -0.1738
 6827TIP3   OH242039   0.501   5.805   8.726 -0.7230 -0.5460 -0.3695
 6827TIP3    H142040   0.508   5.798   8.822  0.0828 -3.8726 -0.5527
 6827TIP3    H242041   0.575   5.861   8.701  0.2924 -1.2696  0.8535
 6828TIP3   OH242042   2.938   6.203   8.103  0.2113  0.4873  0.8236
 6828TIP3    H142043   2.846   6.177   8.095  0.3301  0.3701 -0.3923
 6828TIP3    H242044   2.941   6.291   8.064  0.9033 -0.2014 -0.7535
 6829TIP3   OH242045   0.223   0.377   0.152 -0.5607  0.0016 -0.6416
 6829TIP3    H142046   0.148   0.436   0.154 -0.1850  0.4727  1.2427
 6829TIP3    H242047   0.199   0.304   0.210  0.4447  0.2070  0.0672
 6830TIP3   OH242048   4.029   3.402   1.271 -0.0817 -0.2876 -0.1805
 6830TIP3    H142049   4.048   3.484   1.224  1.9894 -0.5224  0.1307
 6830TIP3    H242050   4.003   3.431   1.358  1.1259  0.0803  0.0867
 6831TIP3   OH242051   3.225   4.995   1.205  0.2738  0.6677 -0.5048
 6831TIP3    H142052   3.235   4.939   1.128 -0.7971 -0.2422 -0.0238
 6831TIP3    H242053   3.222   4.933   1.278 -2.2725  1.2143 -0.0669
 6832TIP3   OH242054   5.559   1.941   0.450 -0.0486  0.5153 -0.0043
 6832TIP3    H142055   5.503   1.984   0.385  2.0807  0.9085 -1.7073
 6832TIP3    H242056   5.626   2.006   0.471 -0.2780  0.1441  2.1424
 6833TIP3   OH242057   3.108   0.152   8.261 -0.6968  0.2458  0.5227
 6833TIP3    H142058   3.056   0.161   8.341  1.0165 -1.2976  1.8990
 6833TIP3    H242059   3.179   0.216   8.271  0.6737 -1.3188  1.2677
 6834TIP3   OH242060   4.442   0.260   7.944 -0.1168  0.3641  0.0697
 6834TIP3    H142061   4.535   0.251   7.961 -0.4289  0.6639  2.1946
 6834TIP3    H242062   4.399   0.216   8.018 -1.6900 -0.3405 -1.1791
 6835TIP3   OH242063   2.218   4.205   8.092  0.4751  0.1576  0.0558
 6835TIP3    H142064   2.292   4.174   8.040  0.9904 -2.0202  1.9225
 6835TIP3    H242065   2.217   4.300   8.078  3.2293  0.1799 -0.5415
 6836TIP3   OH242066   5.027   1.423   7.442  0.1253  0.3878  0.3295
 6836TIP3    H142067   5.094   1.418   7.510  1.1432 -1.2508 -0.7281
 6836TIP3    H242068   5.038   1.343   7.391 -1.2393  1.1078 -1.1906
 6837TIP3   OH242069   0.513   4.681   1.824  0.1305  0.1199 -0.1387
 6837TIP3    H142070   0.585   4.621   1.805 -0.2167  0.2307 -1.9110
 6837TIP3    H242071   0.457   4.632   1.884  0.9243 -0.5012  0.1234
 6838TIP3   OH242072   2.190   4.583   0.350 -0.3527  0.3489  0.2740
 6838TIP3    H142073   2.117   4.538   0.392 -1.3793 -0.1198 -1.8966
 6838TIP3    H242074   2.161   4.598   0.260  1.5816  1.6677 -0.1913
 6839TIP3   OH242075   1.206   4.688   7.433  0.6359  0.0054  0.6054
 6839TIP3    H142076   1.286   4.672   7.482  1.0073 -0.1257 -0.0253
 6839TIP3    H242077   1.233   4.680   7.341  0.0688  0.7473  0.3717
 6840TIP3   OH242078   6.347   4.388   1.097  0.4358  0.3094  0.2121
 6840TIP3    H142079   6.399   4.336   1.036  0.3472  0.3390  0.1107
 6840TIP3    H242080   6.282   4.327   1.132  0.5713  0.2606  0.3761
 6841TIP3   OH242081   0.964   5.239   8.479 -0.4460 -0.2125 -0.3304
 6841TIP3    H142082   0.930   5.302   8.415 -0.4776 -0.7347 -0.8361
 6841TIP3    H242083   1.009   5.173   8.426 -0.8910 -0.9109  0.1454
 6842TIP3   OH242084   1.099   4.573   7.710  0.1093  0.0286 -0.5460
 6842TIP3    H142085   1.178   4.563   7.763  0.2873  1.1861 -0.5561
 6842TIP3    H242086   1.123   4.638   7.644 -0.4027 -0.7012 -1.4652
 6843TIP3   OH242087   1.522   4.725   0.697 -0.2147  0.1298 -0.3953
 6843TIP3    H142088   1.441   4.761   0.661  1.4717  3.4138 -1.3272
 6843TIP3    H242089   1.514   4.736   0.791 -0.2094  2.1987 -0.5838
 6844TIP3   OH242090   4.773   5.195   8.357  0.4897 -0.4787  0.6284
 6844TIP3    H142091   4.867   5.203   8.374  0.3225  0.8053  1.0234
 6844TIP3    H242092   4.731   5.234   8.433 -0.4210 -2.3162  1.1275
 6845TIP3   OH242093   5.098   6.324   0.777  0.5173  0.2705 -0.2759
 6845TIP3    H142094   5.008   6.337   0.804  0.4635  2.0773 -1.1238
 6845TIP3    H242095   5.108   6.381   0.700  1.9721 -0.9820 -1.0736
 6846TIP3   OH242096   3.456   4.706   8.543  0.0864 -0.3767 -0.4658
 6846TIP3    H142097   3.454   4.732   8.635  2.2290 -0.5081 -0.3448
 6846TIP3    H242098   3.435   4.612   8.545 -0.3316 -0.2793 -0.1589
 6847TIP3   OH242099   2.184   5.422   7.858  0.0122  0.3388  0.0311
 6847TIP3    H142100   2.182   5.434   7.763 -1.2573 -2.3524 -0.3549
 6847TIP3    H242101   2.276   5.408   7.879  0.2685  0.7303 -0.8079
 6848TIP3   OH242102   1.015   5.352   0.857 -0.3242 -0.6215  0.0298
 6848TIP3    H142103   0.940   5.335   0.800  0.5603  1.6497 -1.9916
 6848TIP3    H242104   0.980   5.411   0.924 -0.3801  0.5173 -0.9692
 6849TIP3   OH242105   2.789   3.021   1.305 -0.0697  0.0721  0.1550
 6849TIP3    H142106   2.736   3.027   1.385  1.9399 -0.9611  1.6651
 6849TIP3    H242107   2.861   3.082   1.320  1.0884 -1.1596 -0.2016
 6850TIP3   OH242108   5.022   4.984   2.158  0.4733  0.5559  0.6211
 6850TIP3    H142109   5.081   4.980   2.233  0.6016  0.8145  0.5352
 6850TIP3    H242110   4.968   4.905   2.165  0.4624  0.5970  1.0049
 6851TIP3   OH242111   1.606   6.218   1.241  0.1680 -0.3002  0.4264
 6851TIP3    H142112   1.639   6.278   1.308 -0.5427  1.4477 -0.7007
 6851TIP3    H242113   1.511   6.223   1.250  0.0574  0.0820 -0.7779
 6852TIP3   OH242114   1.244   4.524   0.850  0.5685 -0.1309 -0.0758
 6852TIP3    H142115   1.181   4.593   0.871 -0.7338 -0.4972 -2.4491
 6852TIP3    H242116   1.280   4.497   0.935  0.1340  2.5000  1.0460
 6853TIP3   OH242117   2.762   3.071   0.405  0.0230 -1.0125  0.3949
 6853TIP3    H142118   2.738   3.077   0.313 -0.8557  0.4037  0.6838
 6853TIP3    H242119   2.810   2.988   0.412 -2.1183 -2.4451 -0.8131
 6854TIP3   OH242120   2.782   0.333   7.294  0.2440 -0.6941 -0.0318
 6854TIP3    H142121   2.700   0.363   7.255  0.0117 -1.0403  0.1896
 6854TIP3    H242122   2.771   0.349   7.388 -0.0541 -1.8594  0.1435
 6855TIP3   OH242123   2.963   3.749   0.371  0.7375  0.4698  0.3893
 6855TIP3    H142124   3.037   3.800   0.337  0.5141  0.9242  0.5695
 6855TIP3    H242125   2.984   3.735   0.463  0.5042  0.7853  0.4939
 6856TIP3   OH242126   0.694   1.925   0.826 -0.1092 -0.2049  0.0974
 6856TIP3    H142127   0.773   1.909   0.774  0.5577  2.7583  0.0340
 6856TIP3    H242128   0.715   2.003   0.878 -2.3459 -0.4526  1.4876
 6857TIP3   OH242129   0.739   4.262   1.911  0.0326  0.2206 -0.1395
 6857TIP3    H142130   0.730   4.167   1.919 -1.3344  0.2445 -1.0685
 6857TIP3    H242131   0.651   4.296   1.927  0.1454  1.1955 -1.4257
 6858TIP3   OH242132   2.715   5.447   0.006  0.7228 -0.2468  0.4521
 6858TIP3    H142133   2.691   5.540   0.002  0.6060 -0.2400  1.1285
 6858TIP3    H242134   2.699   5.415  -0.082  0.1071  0.2246  0.3810
 6859TIP3   OH242135   2.507   0.422   2.458 -0.3259  0.1201  0.1514
 6859TIP3    H142136   2.445   0.494   2.460  0.6757  1.0270 -0.2452
 6859TIP3    H242137   2.590   0.461   2.485  0.2138 -0.9206  0.0618
 6860TIP3   OH242138   1.702   0.762   1.028  0.5874  0.0934 -0.2173
 6860TIP3    H142139   1.735   0.677   1.057 -0.4961 -0.6080 -0.9895
 6860TIP3    H242140   1.731   0.823   1.096  0.5159 -1.0493  0.8726
 6861TIP3   OH242141   4.157   0.852   0.144 -0.3509 -0.2450 -0.1149
 6861TIP3    H142142   4.194   0.834   0.231  0.1544  0.4543 -0.1780
 6861TIP3    H242143   4.156   0.947   0.137  1.3620 -0.2857 -1.5967
 6862TIP3   OH242144   2.513   6.428   0.473 -0.1905 -0.4940 -0.6486
 6862TIP3    H142145   2.454   6.482   0.421 -0.6406  0.8182  1.1614
 6862TIP3    H242146   2.595   6.429   0.424 -0.4581  1.1128 -1.1165
 6863TIP3   OH242147   1.173   0.534   7.582 -0.6488  0.0582 -0.0824
 6863TIP3    H142148   1.135   0.601   7.639  0.8614  0.2046  0.7912
 6863TIP3    H242149   1.169   0.571   7.494 -0.5194  0.9721  0.2934
 6864TIP3   OH242150   5.874   3.787   0.242 -0.2208  0.9323  0.7084
 6864TIP3    H142151   5.832   3.807   0.158  2.4667  0.3228 -0.8810
 6864TIP3    H242152   5.806   3.741   0.292 -1.7395  0.8207 -1.3107
 6865TIP3   OH242153   2.476   3.042   1.952  0.0172  0.6276  0.2606
 6865TIP3    H142154   2.453   2.967   2.007 -0.4543  1.8207  1.7809
 6865TIP3    H242155   2.456   3.118   2.007  0.3935  1.8684 -1.2626
 6866TIP3   OH242156   1.895   3.113   1.664  0.2185 -0.0236 -0.2935
 6866TIP3    H142157   1.936   3.197   1.646  0.1914  0.3473  1.2307
 6866TIP3    H242158   1.960   3.064   1.714  0.1583 -0.8371 -0.9935
 6867TIP3   OH242159   0.911   2.896   0.817  1.1474  0.2959  0.1130
 6867TIP3    H142160   0.859   2.903   0.898  3.2645  0.6425  1.5395
 6867TIP3    H242161   0.853   2.852   0.755 -1.2643  1.7484  1.1746
 6868TIP3   OH242162   5.069   5.008   6.200 -0.2517 -0.0057  0.3583
 6868TIP3    H142163   5.063   5.030   6.107 -2.3441 -1.9495 -0.0470
 6868TIP3    H242164   5.035   5.085   6.245  1.0988  1.0971 -0.4112
 6869TIP3   OH242165   1.835   2.420   7.153 -0.2825 -0.0186  0.4981
 6869TIP3    H142166   1.825   2.501   7.204 -0.6450 -0.0079  0.4118
 6869TIP3    H242167   1.827   2.449   7.062  2.0356  0.2308  0.3181
 6870TIP3   OH242168   0.649   2.855   6.695  0.1476 -0.1968 -0.3043
 6870TIP3    H142169   0.596   2.842   6.774  0.8053 -1.9248 -0.1011
 6870TIP3    H242170   0.739   2.860   6.729  0.3197  0.3563 -0.8404
 6871TIP3   OH242171   3.884   4.051   8.628  0.5918  0.0886  0.1260
 6871TIP3    H142172   3.881   4.082   8.719 -2.0521 -0.5489  0.3344
 6871TIP3    H242173   3.956   3.989   8.627  0.5222 -0.0869  1.8740
 6872TIP3   OH242174   1.620   5.385   0.818  0.1709  0.2288 -0.6310
 6872TIP3    H142175   1.690   5.449   0.829 -0.4220  0.4465  3.8312
 6872TIP3    H242176   1.665   5.301   0.816  0.7102  0.4817  0.2127
 6873TIP3   OH242177   2.908   5.290   1.254 -0.0745 -0.2165 -0.3457
 6873TIP3    H142178   2.884   5.205   1.291  1.2240 -0.5054 -0.1105
 6873TIP3    H242179   2.944   5.270   1.168  3.8864 -0.4227  1.1814
 6874TIP3   OH242180   3.702   6.112   7.549 -0.0768 -0.2550 -0.3269
 6874TIP3    H142181   3.626   6.092   7.603 -2.9224  0.1521 -3.8128
 6874TIP3    H242182   3.679   6.193   7.504  2.3113 -0.2598 -1.7390
 6875TIP3   OH242183   2.213   2.075   6.587  0.1952 -0.0798 -0.4284
 6875TIP3    H142184   2.299   2.110   6.564  0.5731 -1.9350 -2.0883
 6875TIP3    H242185   2.231   2.014   6.658  0.0962  0.2312 -0.1330
 6876TIP3   OH242186   0.241   5.651   7.286  0.1419  0.1124 -0.4355
 6876TIP3    H142187   0.154   5.689   7.271 -0.4666  0.1371  2.4402
 6876TIP3    H242188   0.242   5.571   7.234 -2.9722 -1.5767  1.7315
 6877TIP3   OH242189   6.164   2.425   8.753  0.2201 -0.0444 -0.0327
 6877TIP3    H142190   6.222   2.486   8.708 -0.1273 -0.7183 -1.4402
 6877TIP3    H242191   6.219   2.385   8.821  1.3426 -0.4723 -1.1640
 6878TIP3   OH242192   3.599   5.447   6.710  0.0745  0.4131 -0.0659
 6878TIP3    H142193   3.508   5.430   6.732 -0.4649  0.3792 -2.1163
 6878TIP3    H242194   3.608   5.542   6.715  0.9258  0.2752  3.4978
 6879TIP3   OH242195   2.520   0.533   8.035 -0.1292 -0.0955  0.3399
 6879TIP3    H142196   2.438   0.508   7.992  0.6280 -1.0698 -0.6056
 6879TIP3    H242197   2.584   0.467   8.006  0.9145  0.4376  1.3199
 6880TIP3   OH242198   5.839   3.212   2.195 -0.1329 -0.4615 -0.2412
 6880TIP3    H142199   5.840   3.128   2.150  0.9191 -0.0929 -0.9633
 6880TIP3    H242200   5.903   3.202   2.266  0.7672  0.0187 -0.9515
 6881TIP3   OH242201   1.802   4.374   1.323  0.2760  0.2961 -0.3918
 6881TIP3    H142202   1.893   4.347   1.315  0.6594  2.0319 -2.9384
 6881TIP3    H242203   1.764   4.359   1.236 -1.9743 -0.6125  0.6539
 6882TIP3   OH242204   1.446   2.722   8.514  0.3445  0.4562  0.6510
 6882TIP3    H142205   1.400   2.639   8.523 -0.8143  1.0019  0.0428
 6882TIP3    H242206   1.537   2.702   8.536  0.1195 -0.9901  0.3665
 6883TIP3   OH242207   0.047   2.569   6.972  0.3928  0.1145  0.1942
 6883TIP3    H142208   0.072   2.491   7.021  0.1164 -1.0713 -1.4871
 6883TIP3    H242209  -0.046   2.581   6.990  0.4956  0.2173  0.6616
 6884TIP3   OH242210   1.264   0.258   8.152  0.2000 -0.3227  0.1292
 6884TIP3    H142211   1.291   0.255   8.060 -0.6595  0.4416 -0.1718
 6884TIP3    H242212   1.216   0.341   8.160  0.4531 -0.2729  1.3220
 6885TIP3   OH242213   2.579   3.356   0.690 -0.1028 -0.3132 -0.4442
 6885TIP3    H142214   2.575   3.312   0.775  1.2072  0.2238 -0.0850
 6885TIP3    H242215   2.488   3.356   0.659 -0.7381  0.1964  1.3107
 6886TIP3   OH242216   5.763   4.489   8.190 -0.1344  0.0827 -0.0040
 6886TIP3    H142217   5.750   4.441   8.108 -0.0716 -0.6877  0.4266
 6886TIP3    H242218   5.856   4.513   8.189  0.0612 -0.6325  0.2042
 6887TIP3   OH242219   6.567   0.084   1.501 -0.0468  0.1534  0.4027
 6887TIP3    H142220   6.604   0.157   1.550 -0.8556 -0.6288  2.2906
 6887TIP3    H242221   6.512   0.038   1.565  0.0915 -1.8499 -0.8304
 6888TIP3   OH242222   2.211   5.505   7.611 -0.1907 -0.0080 -0.3130
 6888TIP3    H142223   2.288   5.527   7.560  0.7073 -0.8253  0.6374
 6888TIP3    H242224   2.140   5.502   7.547  0.1969  2.3673 -0.9845
 6889TIP3   OH242225   0.136   3.343   8.623  0.4947  0.0171 -0.2692
 6889TIP3    H142226   0.229   3.320   8.632 -0.3452 -3.2161  2.4146
 6889TIP3    H242227   0.118   3.396   8.701 -0.1560 -0.4187 -0.1246
 6890TIP3   OH242228   3.939   4.502   0.689  0.8683 -0.0530 -0.3127
 6890TIP3    H142229   3.858   4.552   0.672 -0.5876 -2.0863  0.2722
 6890TIP3    H242230   3.976   4.544   0.767 -0.4209  0.0448  0.2833
 6891TIP3   OH242231   2.831   2.435   8.856  0.0018 -0.0209 -0.3280
 6891TIP3    H142232   2.787   2.487   8.924  0.0585  0.1410 -0.4167
 6891TIP3    H242233   2.832   2.346   8.892 -0.3403 -0.0128 -0.2952
 6892TIP3   OH242234   4.622   3.197   1.035 -0.3147 -0.2436 -0.3302
 6892TIP3    H142235   4.621   3.103   1.057 -3.0218  0.1102  1.5358
 6892TIP3    H242236   4.708   3.227   1.065 -0.4072 -1.6601  1.5691
 6893TIP3   OH242237   3.259   1.272   8.675 -0.2319  0.0509 -0.1311
 6893TIP3    H142238   3.201   1.348   8.669 -1.5066 -0.8707 -0.0304
 6893TIP3    H242239   3.200   1.199   8.695  1.0830 -0.7955  0.7887
 6894TIP3   OH242240   6.002   1.737   2.434 -0.1236  0.0698  0.0653
 6894TIP3    H142241   6.061   1.686   2.488  0.1359 -0.0890 -0.3648
 6894TIP3    H242242   5.996   1.822   2.478  2.1382  0.8742 -1.0096
 6895TIP3   OH242243   1.615   5.324   8.631  0.4601  0.0042  0.0595
 6895TIP3    H142244   1.676   5.261   8.670 -0.7553 -2.4627 -1.6936
 6895TIP3    H242245   1.655   5.347   8.547 -0.2569 -0.4119 -0.4074
 6896TIP3   OH242246   2.394   0.143   2.170 -0.7512  0.3533 -0.2096
 6896TIP3    H142247   2.356   0.072   2.118 -1.8973  0.5732  0.3119
 6896TIP3    H242248   2.391   0.219   2.112 -0.8115  0.2999 -0.2770
 6897TIP3   OH242249   4.543   1.071   2.164  0.1838 -0.2008  0.1765
 6897TIP3    H142250   4.477   1.031   2.220 -0.2411 -0.6672 -0.6277
 6897TIP3    H242251   4.613   1.005   2.160 -0.6932 -1.1132 -1.4772
 6898TIP3   OH242252   0.264   2.922   0.290 -0.3645 -0.3952  0.1961
 6898TIP3    H142253   0.279   2.830   0.267  0.1731  0.0564 -1.4494
 6898TIP3    H242254   0.169   2.929   0.299 -0.7430 -0.5625 -2.5695
 6899TIP3   OH242255   0.670   3.117   0.533 -0.6074  0.1895  0.0843
 6899TIP3    H142256   0.684   3.211   0.548 -0.8802  0.4476 -1.1713
 6899TIP3    H242257   0.588   3.097   0.578  0.4966  0.0530  2.1653
 6900TIP3   OH242258   3.088   6.087   8.499  0.0772 -0.5262 -1.0326
 6900TIP3    H142259   3.103   6.107   8.407 -0.0514  1.7916 -0.6001
 6900TIP3    H242260   3.124   6.161   8.547 -0.3276 -1.4292  0.7803
 6901TIP3   OH242261   5.347   4.590   0.363 -0.1253  0.0409  0.4047
 6901TIP3    H142262   5.263   4.626   0.336 -0.3521  0.2687  1.3639
 6901TIP3    H242263   5.408   4.663   0.360 -0.3352  0.2614  1.2753
 6902TIP3   OH242264   3.694   0.737   8.915  0.5560 -0.5544  0.0112
 6902TIP3    H142265   3.675   0.645   8.902 -1.0470 -0.3591  0.7575
 6902TIP3    H242266   3.653   0.781   8.840  0.7132 -0.3872  0.0212
 6903TIP3   OH242267   2.690   6.087   8.071  0.4056 -0.2918  0.0188
 6903TIP3    H142268   2.595   6.081   8.072  0.3967 -1.0273 -1.5054
 6903TIP3    H242269   2.714   6.074   7.979  1.9039  1.1981  0.1406
 6904TIP3   OH242270   2.306   3.364   0.588  0.5940 -0.4706  0.4466
 6904TIP3    H142271   2.321   3.346   0.495  0.0979  0.2445  0.2231
 6904TIP3    H242272   2.245   3.296   0.616  0.5642 -0.5499  0.1913
 6905TIP3   OH242273   1.430   1.629   7.786  0.9031  0.2450 -0.2001
 6905TIP3    H142274   1.351   1.632   7.732  0.5159  1.2562  0.3834
 6905TIP3    H242275   1.437   1.539   7.815 -0.2124  0.2164 -0.0122
 6906TIP3   OH242276   2.674   6.489   7.037  0.3520  0.0885 -0.2664
 6906TIP3    H142277   2.616   6.450   7.102 -0.3572  0.6019 -0.5713
 6906TIP3    H242278   2.673   6.426   6.964  0.9296 -0.3527  0.0935
 6907TIP3   OH242279   5.993   1.467   1.830  0.0315 -0.0638 -0.0593
 6907TIP3    H142280   5.980   1.443   1.738 -0.7643 -0.8097  0.2278
 6907TIP3    H242281   5.991   1.563   1.831  0.1582 -0.0501 -0.8346
 6908TIP3   OH242282   5.990   4.758   1.845  0.4659 -0.2580 -0.4528
 6908TIP3    H142283   5.935   4.828   1.810  0.5183 -0.6348 -1.3013
 6908TIP3    H242284   6.035   4.798   1.919 -0.4592  0.2426 -0.1432
 6909TIP3   OH242285   3.502   2.648   8.381 -0.4322  0.1863 -0.1891
 6909TIP3    H142286   3.594   2.674   8.370 -0.0981 -0.5093  0.7424
 6909TIP3    H242287   3.505   2.552   8.376 -0.7376  0.0091  2.1676
 6910TIP3   OH242288   6.423   2.879   0.628 -0.3180 -0.0544 -0.1859
 6910TIP3    H142289   6.414   2.974   0.614  1.2449  0.3090  0.9466
 6910TIP3    H242290   6.502   2.856   0.579  2.0043  0.1887  3.1475
 6911TIP3   OH242291   1.286   5.677   7.774 -0.7629 -0.4332  0.4451
 6911TIP3    H142292   1.233   5.731   7.715 -1.2130 -0.8781  0.4290
 6911TIP3    H242293   1.374   5.681   7.737 -0.5057  1.3143  1.1673
 6912TIP3   OH242294   2.997   2.262   2.068  0.5250  0.3891  0.1196
 6912TIP3    H142295   3.054   2.262   1.991  1.2477  0.8187  0.6465
 6912TIP3    H242296   2.910   2.242   2.033  1.0571 -0.6699 -0.6449
 6913TIP3   OH242297   2.229   6.069   1.784  0.0695  0.4607 -0.1728
 6913TIP3    H142298   2.255   5.996   1.840  1.2117  0.5402 -0.5633
 6913TIP3    H242299   2.133   6.068   1.786 -0.0690 -2.5436 -2.0700
 6914TIP3   OH242300   6.049   5.942   1.209  0.3120  0.0492  0.8123
 6914TIP3    H142301   5.996   6.021   1.222  0.0814  0.3043 -1.3967
 6914TIP3    H242302   5.987   5.870   1.221  0.0246  0.2746  0.6968
 6915TIP3   OH242303   2.986   5.135   2.348 -0.3720  0.2614  0.1900
 6915TIP3    H142304   2.892   5.116   2.355 -0.3574  0.0664 -0.1209
 6915TIP3    H242305   2.990   5.231   2.344 -0.7693  0.2515 -2.3392
 6916TIP3   OH242306   2.992   6.660   1.733  0.1235 -0.2882 -0.4986
 6916TIP3    H142307   3.036   6.658   1.648  2.6820 -1.3650  0.7166
 6916TIP3    H242308   3.013   6.746   1.770 -0.2977 -0.1327 -0.6158
 6917TIP3   OH242309   1.084   0.244   2.187  0.2531 -0.0217  0.2106
 6917TIP3    H142310   1.022   0.313   2.165  0.1454 -0.6822 -1.6585
 6917TIP3    H242311   1.109   0.263   2.278 -0.9391  1.5592  0.2460
 6918TIP3   OH242312   0.568   5.929   6.287  0.0043  0.4577 -0.1518
 6918TIP3    H142313   0.648   5.982   6.286 -0.3953  1.1688  1.3695
 6918TIP3    H242314   0.597   5.842   6.262  1.1909  0.7960 -0.0560
 6919TIP3   OH242315   1.022   5.128   7.562 -0.2292  0.5623  0.1135
 6919TIP3    H142316   1.053   5.130   7.653 -1.0701 -2.0139  0.5523
 6919TIP3    H242317   1.074   5.059   7.521 -1.0879  0.4790 -0.8674
 6920TIP3   OH242318   6.447   2.589   1.575 -0.3788  0.0289 -0.0164
 6920TIP3    H142319   6.365   2.636   1.589  0.4757  1.7368 -0.4492
 6920TIP3    H242320   6.514   2.646   1.613  0.4473 -2.4491  2.5776
 6921TIP3   OH242321   2.680   4.960   0.854 -0.0849  0.0453  0.2958
 6921TIP3    H142322   2.740   4.897   0.814  0.2253  0.3739  0.2298
 6921TIP3    H242323   2.616   4.906   0.900 -0.0600 -0.3216 -0.0920
 6922TIP3   OH242324   5.179   0.771   6.849 -0.7459  0.2580  0.5682
 6922TIP3    H142325   5.129   0.769   6.768  1.9450 -1.0319 -1.1882
 6922TIP3    H242326   5.193   0.864   6.866  0.8623  0.5662 -1.9860
 6923TIP3   OH242327   5.545   2.188   0.614  0.6548 -0.8029 -0.2901
 6923TIP3    H142328   5.548   2.133   0.693  0.5348  0.8373  0.9143
 6923TIP3    H242329   5.591   2.268   0.639 -2.0978  1.0581 -0.7893
 6924TIP3   OH242330   4.444   0.262   8.598  0.5966 -0.3954  0.2483
 6924TIP3    H142331   4.398   0.328   8.546  3.0352  1.4258  0.2309
 6924TIP3    H242332   4.395   0.258   8.681 -0.3906  0.4111 -0.2740
 6925TIP3   OH242333   3.052   0.781   1.813 -0.1905 -0.4854 -0.5127
 6925TIP3    H142334   3.065   0.788   1.908 -0.6537 -0.3490 -0.4551
 6925TIP3    H242335   2.987   0.712   1.803  1.5811 -2.1722 -0.8732
 6926TIP3   OH242336   3.654   5.405   8.339  0.1252 -1.3216  0.2806
 6926TIP3    H142337   3.587   5.359   8.287  0.1325 -0.7381 -0.2578
 6926TIP3    H242338   3.698   5.461   8.276 -1.2633  1.0368  1.2675
 6927TIP3   OH242339   4.511   4.560   6.657 -0.0007 -0.0329 -0.0423
 6927TIP3    H142340   4.498   4.533   6.748 -0.0726  2.3029  0.7102
 6927TIP3    H242341   4.461   4.497   6.606 -0.6159 -0.9313  1.5774
 6928TIP3   OH242342   1.812   5.907   8.913  0.0709 -0.7247  0.4944
 6928TIP3    H142343   1.732   5.951   8.941  0.8107  0.6936  0.4450
 6928TIP3    H242344   1.812   5.824   8.962 -0.9889 -0.3669  1.1374
 6929TIP3   OH242345   1.722   6.353   8.027  0.4447  0.9596 -0.2122
 6929TIP3    H142346   1.796   6.371   8.085  0.3839 -0.7827  0.4837
 6929TIP3    H242347   1.649   6.401   8.066  0.6253  0.5867  0.6105
 6930TIP3   OH242348   4.187   2.812   8.394  0.0998  0.1175 -0.4445
 6930TIP3    H142349   4.097   2.808   8.362  0.5801 -0.7594 -1.8116
 6930TIP3    H242350   4.240   2.821   8.314  1.2860 -0.6341  0.2297
 6931TIP3   OH242351   5.239   1.100   8.898  0.4629 -0.3046 -0.1529
 6931TIP3    H142352   5.298   1.148   8.956  0.6011  0.6500 -1.0352
 6931TIP3    H242353   5.251   1.142   8.813 -2.1391  0.5395 -0.1908
 6932TIP3   OH242354   1.632   2.227   0.395  0.5451  0.3133 -0.1685
 6932TIP3    H142355   1.673   2.313   0.384 -1.0983  1.0700 -0.7053
 6932TIP3    H242356   1.543   2.246   0.426  0.5014 -1.2504  0.7849
 6933TIP3   OH242357   5.985   2.338   7.861  0.2817 -0.6886  0.3233
 6933TIP3    H142358   6.037   2.418   7.849 -1.2767  0.0760 -1.9208
 6933TIP3    H242359   5.975   2.302   7.773 -1.3046 -1.8811  0.9397
 6934TIP3   OH242360   0.720   6.240   8.270  0.7387 -0.5292 -0.4892
 6934TIP3    H142361   0.755   6.159   8.305  0.2448 -0.7022 -0.3875
 6934TIP3    H242362   0.796   6.286   8.234  1.2185 -0.4790  0.5356
 6935TIP3   OH242363   3.918   3.467   6.300  0.3986 -0.6557  0.3592
 6935TIP3    H142364   3.835   3.453   6.346  0.6490  0.8504  1.3220
 6935TIP3    H242365   3.910   3.553   6.261  0.8507 -1.2341 -1.0582
 6936TIP3   OH242366   6.702   2.453   1.595  0.0611  0.0851  0.0060
 6936TIP3    H142367   6.615   2.480   1.567  0.4328  0.5564 -0.7230
 6936TIP3    H242368   6.687   2.398   1.672 -1.0093 -1.3420 -1.1652
 6937TIP3   OH242369   4.382   2.306   2.216 -0.3753  0.1305  0.3964
 6937TIP3    H142370   4.423   2.363   2.280 -2.0887  1.1899  0.6218
 6937TIP3    H242371   4.374   2.359   2.137 -0.2873 -0.4316  0.0026
 6938TIP3   OH242372   6.574   4.088   8.841 -0.1548  0.0439  0.4329
 6938TIP3    H142373   6.543   4.176   8.862  0.3530 -0.0727  1.7502
 6938TIP3    H242374   6.604   4.094   8.750  1.0992  1.5695  0.9009
 6939TIP3   OH242375   2.528   5.134   1.485 -0.4146  0.3536  0.3740
 6939TIP3    H142376   2.467   5.086   1.542  0.3990 -1.7463 -0.4274
 6939TIP3    H242377   2.496   5.117   1.397 -0.2594  1.5828  0.0591
 6940TIP3   OH242378   2.867   1.686   7.187 -0.2089 -0.5925 -0.1531
 6940TIP3    H142379   2.823   1.676   7.103  0.2368 -2.2741 -0.2322
 6940TIP3    H242380   2.913   1.769   7.181 -1.5707  0.1323 -0.9068
 6941TIP3   OH242381   4.788   1.902   1.494  0.0328 -0.0925 -0.0900
 6941TIP3    H142382   4.819   1.985   1.529 -2.1585  1.4103 -1.4730
 6941TIP3    H242383   4.867   1.855   1.468  1.2824  2.0552 -0.3193
 6942TIP3   OH242384   0.269   6.277   2.632 -0.7411  0.0714  0.1179
 6942TIP3    H142385   0.225   6.361   2.624 -2.2214 -0.3930  2.4176
 6942TIP3    H242386   0.204   6.213   2.605 -0.1573 -0.4211 -0.1362
 6943TIP3   OH242387   5.150   3.630   7.287 -0.6968  0.3028 -0.1870
 6943TIP3    H142388   5.225   3.577   7.263 -0.0728  0.8720  0.4501
 6943TIP3    H242389   5.083   3.609   7.222 -0.9312 -2.2122  0.7596
 6944TIP3   OH242390   1.407   5.883   6.600 -0.2033  0.3698  0.8834
 6944TIP3    H142391   1.314   5.861   6.607  0.0028 -0.2457  1.7622
 6944TIP3    H242392   1.453   5.803   6.626  0.6230 -0.1194 -1.7533
 6945TIP3   OH242393   0.351   5.822   0.366  0.4530 -0.3236 -0.5173
 6945TIP3    H142394   0.263   5.838   0.399  1.2538 -1.2183  2.4057
 6945TIP3    H242395   0.349   5.732   0.334 -0.2158  0.4095 -2.7300
 6946TIP3   OH242396   5.151   5.751   7.399 -0.1467  0.0034 -0.6950
 6946TIP3    H142397   5.234   5.708   7.419 -0.0100  0.8551  0.6911
 6946TIP3    H242398   5.176   5.829   7.349 -0.0367  0.6405  0.3376
 6947TIP3   OH242399   3.220   4.837   7.923 -0.4727  0.3062  0.4192
 6947TIP3    H142400   3.305   4.834   7.968 -0.0985  0.2740 -0.2809
 6947TIP3    H242401   3.191   4.746   7.920  0.0285  0.1603 -0.3768
 6948TIP3   OH242402   6.256   5.034   8.769 -0.1493 -0.5583  0.1672
 6948TIP3    H142403   6.275   4.975   8.841 -0.0925  0.2831  0.8666
 6948TIP3    H242404   6.167   5.066   8.787  0.4049  0.7809  0.7050
 6949TIP3   OH242405   4.522   4.840   0.439 -0.2107 -0.1987  0.4120
 6949TIP3    H142406   4.442   4.846   0.387  0.3859 -1.0427 -0.6442
 6949TIP3    H242407   4.492   4.832   0.529 -1.3076 -0.1101  0.0619
 6950TIP3   OH242408   1.995   3.589   7.404 -0.2387 -0.1131 -0.6540
 6950TIP3    H142409   2.074   3.640   7.423 -0.4369 -0.5020  1.4950
 6950TIP3    H242410   1.923   3.651   7.410 -0.1835  0.0917 -1.8785
 6951TIP3   OH242411   0.549   0.603   1.936  0.3146 -0.5055 -0.4879
 6951TIP3    H142412   0.459   0.575   1.952  0.2530 -0.5174 -0.8624
 6951TIP3    H242413   0.579   0.636   2.021  0.1407 -1.0150 -0.2215
 6952TIP3   OH242414   4.912   4.794   7.757  0.3860 -0.1638  0.1162
 6952TIP3    H142415   4.887   4.701   7.757 -0.8639  0.1482  1.2123
 6952TIP3    H242416   4.831   4.841   7.772  0.9207  1.1673 -0.9268
 6953TIP3   OH242417   2.216   0.520   7.174  0.0825  0.4955 -0.3680
 6953TIP3    H142418   2.245   0.587   7.111  0.6954 -0.2011 -0.8357
 6953TIP3    H242419   2.133   0.554   7.207  0.3160  1.4292 -0.6963
 6954TIP3   OH242420   6.254   2.353   6.225 -0.0343 -0.1249  0.1080
 6954TIP3    H142421   6.233   2.293   6.295  1.1606  0.1808  0.7637
 6954TIP3    H242422   6.284   2.433   6.269  0.5784  0.1349 -0.7321
 6955TIP3   OH242423   2.623   1.633   8.510 -0.1321 -0.1442  0.4457
 6955TIP3    H142424   2.561   1.681   8.455  0.9037  0.8646  0.1245
 6955TIP3    H242425   2.622   1.544   8.476 -0.9766  0.0007  0.0810
 6956TIP3   OH242426   5.671   5.493   7.720 -0.0478 -1.0289  0.0893
 6956TIP3    H142427   5.656   5.581   7.684 -0.6195 -0.7028  1.1049
 6956TIP3    H242428   5.765   5.478   7.705 -0.1927 -0.7742 -1.2209
 6957TIP3   OH242429   5.497   4.720   1.113 -0.4689  0.4159  0.0623
 6957TIP3    H142430   5.468   4.667   1.188 -2.2180 -0.3531 -1.0941
 6957TIP3    H242431   5.582   4.755   1.140 -0.9848  0.0881  2.3641
 6958TIP3   OH242432   2.602   2.463   1.074 -0.0223  0.1662 -0.2519
 6958TIP3    H142433   2.639   2.470   0.986 -2.0784 -1.1523 -1.2982
 6958TIP3    H242434   2.529   2.525   1.075  1.3828  1.9735  1.4336
 6959TIP3   OH242435   2.110   1.143   7.105  0.3459  0.2135 -0.5569
 6959TIP3    H142436   2.040   1.177   7.049  0.7078  0.2224 -1.0096
 6959TIP3    H242437   2.072   1.064   7.144 -0.1736  0.6211 -0.2135
 6960TIP3   OH242438   0.023   1.446   8.295  0.0408  0.0397 -0.0863
 6960TIP3    H142439   0.095   1.503   8.271  0.6931  0.3291  2.2607
 6960TIP3    H242440  -0.051   1.475   8.242  0.9168  1.6486 -0.4585
 6961TIP3   OH242441   1.770   0.462   2.307  0.0268 -0.1765  0.2981
 6961TIP3    H142442   1.783   0.523   2.380  1.5268  0.7675 -0.7089
 6961TIP3    H242443   1.853   0.415   2.300 -0.7890 -1.6926  0.4360
 6962TIP3   OH242444   4.542   4.602   1.506  0.2595 -0.4938 -0.1666
 6962TIP3    H142445   4.596   4.524   1.495 -0.6300 -1.4609  1.9236
 6962TIP3    H242446   4.592   4.658   1.566 -0.2195 -0.5543  0.2905
 6963TIP3   OH242447   6.025   3.377   8.555  0.0689  0.1633  0.7215
 6963TIP3    H142448   5.943   3.347   8.595 -0.4915  0.6319 -0.0395
 6963TIP3    H242449   6.010   3.368   8.461  1.4872 -1.2698  0.5907
 6964TIP3   OH242450   5.044   5.965   8.800  0.3027 -0.2776 -0.5455
 6964TIP3    H142451   5.110   6.007   8.744  0.9917  0.3391  0.6781
 6964TIP3    H242452   5.081   5.971   8.888  0.2105 -3.0557 -0.2375
 6965TIP3   OH242453   2.529   6.359   0.167 -0.3683  0.2146  0.1961
 6965TIP3    H142454   2.569   6.274   0.180 -0.0687 -0.0232 -2.0116
 6965TIP3    H242455   2.444   6.353   0.212 -0.0663 -0.9989  0.6170
 6966TIP3   OH242456   1.532   4.198   8.430 -0.1902 -0.7735 -0.1445
 6966TIP3    H142457   1.437   4.202   8.420 -0.1083  0.0729 -0.6740
 6966TIP3    H242458   1.560   4.135   8.363 -0.3372 -0.7298 -0.2471
 6967TIP3   OH242459   4.467   5.016   7.115 -0.1613  0.4839 -0.0390
 6967TIP3    H142460   4.404   5.033   7.186 -1.3336 -2.2265 -0.3284
 6967TIP3    H242461   4.545   4.984   7.160 -0.6416 -0.5200  0.1059
 6968TIP3   OH242462   3.745   1.534   2.129 -0.1117 -0.7213 -0.0711
 6968TIP3    H142463   3.712   1.518   2.040 -1.7188 -1.0371  0.5388
 6968TIP3    H242464   3.666   1.546   2.182  0.8054 -0.7173  1.3531
 6969TIP3   OH242465   1.597   3.127   7.580 -0.5669 -0.7502 -0.3710
 6969TIP3    H142466   1.605   3.086   7.667 -1.8419  0.0720  0.1637
 6969TIP3    H242467   1.685   3.161   7.562 -0.8576  1.5832  1.9284
 6970TIP3   OH242468   5.002   0.915   1.920  0.1329  0.6317 -0.1100
 6970TIP3    H142469   5.021   0.830   1.959 -1.5347  0.6628  0.8345
 6970TIP3    H242470   5.008   0.899   1.826  1.4480 -0.1066  0.0611
 6971TIP3   OH242471   5.398   0.434   2.234  0.2427 -0.0104  0.2899
 6971TIP3    H142472   5.377   0.342   2.252 -0.5233 -0.0627 -0.7781
 6971TIP3    H242473   5.494   0.436   2.230  0.2563 -0.8329 -0.0282
 6972TIP3   OH242474   3.400   3.338   0.145  0.4490 -0.0831 -0.9300
 6972TIP3    H142475   3.316   3.321   0.187  0.9803  0.8371  0.6047
 6972TIP3    H242476   3.378   3.359   0.055 -1.2639  2.7300  0.0268
 6973TIP3   OH242477   4.790   3.675   0.196  0.5246 -0.5197 -0.2721
 6973TIP3    H142478   4.864   3.647   0.143 -0.5600 -1.6317 -1.2603
 6973TIP3    H242479   4.725   3.606   0.186 -0.9406  0.7444 -0.0191
 6974TIP3   OH242480   2.635   6.059   8.735  0.4095 -0.4087  0.1931
 6974TIP3    H142481   2.727   6.084   8.735  0.5539 -0.9282  0.4590
 6974TIP3    H242482   2.598   6.102   8.657  2.0604 -4.3937 -3.1844
 6975TIP3   OH242483   5.888   2.458   7.293  0.0302 -0.1200  0.3294
 6975TIP3    H142484   5.873   2.550   7.271 -0.5842 -0.8834 -2.9769
 6975TIP3    H242485   5.984   2.449   7.297  0.1386  0.3716 -0.9028
 6976TIP3   OH242486   6.407   0.933   1.791 -0.2327  0.3466 -0.0247
 6976TIP3    H142487   6.484   0.970   1.834  0.5105 -0.3433 -0.7322
 6976TIP3    H242488   6.400   0.979   1.708 -0.2692  0.0425 -0.1943
 6977TIP3   OH242489   5.565   2.490   8.463 -0.3523  0.0329 -0.0408
 6977TIP3    H142490   5.521   2.558   8.412 -0.8411 -0.5685 -0.4363
 6977TIP3    H242491   5.658   2.512   8.457 -0.2847 -0.6350 -2.1339
 6978TIP3   OH242492   0.758   1.193   1.260  0.2508  0.0543 -0.0221
 6978TIP3    H142493   0.761   1.201   1.356 -0.3067  0.0138  0.0027
 6978TIP3    H242494   0.676   1.147   1.243 -0.9332  2.2383 -0.6595
 6979TIP3   OH242495   5.203   5.131   6.886  0.0074 -0.3780  0.0122
 6979TIP3    H142496   5.257   5.190   6.833  0.5277 -0.7740  0.0902
 6979TIP3    H242497   5.113   5.154   6.864  0.1715  1.0856  0.7325
 6980TIP3   OH242498   4.337   0.500   0.385 -0.0109  0.0420  0.5295
 6980TIP3    H142499   4.275   0.555   0.434 -0.8965 -0.3835 -0.0821
 6980TIP3    H242500   4.293   0.484   0.301 -0.1313 -2.2248  0.9612
 6981TIP3   OH242501   1.001   4.608   8.329  0.2246  0.4252  0.2222
 6981TIP3    H142502   0.984   4.601   8.423 -1.5159 -0.5772 -0.1203
 6981TIP3    H242503   0.925   4.655   8.294  1.5966  2.1939 -0.5156
 6982TIP3   OH242504   4.901   2.770   7.735  0.2574  0.3354  0.3056
 6982TIP3    H142505   4.957   2.831   7.686 -0.8923  2.1410  1.1402
 6982TIP3    H242506   4.863   2.712   7.668  1.9686 -0.0103 -0.4225
 6983TIP3   OH242507   4.764   5.341   7.937  0.4743  0.3595 -0.2279
 6983TIP3    H142508   4.715   5.359   7.856  0.1720  2.5888  0.3928
 6983TIP3    H242509   4.699   5.305   7.997  0.6088 -0.8951 -0.7946
 6984TIP3   OH242510   4.000   1.160   8.915  0.4159 -0.2134  0.4609
 6984TIP3    H142511   3.992   1.205   8.999  0.9291 -0.9821  0.9355
 6984TIP3    H242512   4.089   1.178   8.886 -0.1103  1.0128 -0.5112
 6985TIP3   OH242513   3.986   2.006   0.101 -0.1370 -0.4523 -0.2377
 6985TIP3    H142514   3.980   2.066   0.026  1.4401 -0.7503 -0.6383
 6985TIP3    H242515   3.971   1.919   0.063 -1.2239 -0.4515  0.1415
 6986TIP3   OH242516   0.828   5.849   8.102 -0.2898 -0.6583 -0.3002
 6986TIP3    H142517   0.880   5.916   8.058  0.0424 -0.5482  0.2502
 6986TIP3    H242518   0.803   5.788   8.032 -0.6658  0.0719 -0.8223
 6987TIP3   OH242519   5.774   1.433   2.541  0.0502  0.4934  0.1199
 6987TIP3    H142520   5.691   1.425   2.589  0.4894  0.4359  0.8806
 6987TIP3    H242521   5.775   1.358   2.481  0.8345 -1.1815  2.0994
 6988TIP3   OH242522   1.141   0.483   8.156  0.1062  0.1150  0.1399
 6988TIP3    H142523   1.124   0.568   8.114  1.0875 -0.0354 -0.5872
 6988TIP3    H242524   1.059   0.463   8.202 -0.4687  1.0159 -0.4428
 6989TIP3   OH242525   0.185   3.126   7.583  0.0779  0.2203 -0.8838
 6989TIP3    H142526   0.161   3.207   7.627  0.1332 -0.6226  0.7906
 6989TIP3    H242527   0.233   3.153   7.505  0.6198  1.7775 -0.0350
 6990TIP3   OH242528   2.061   3.335   1.667 -0.1264  0.3403 -0.5847
 6990TIP3    H142529   2.140   3.382   1.642  0.3268  0.2638  0.6130
 6990TIP3    H242530   2.030   3.380   1.746 -0.4186 -0.5677 -0.1710
 6991TIP3   OH242531   2.870   4.826   0.683 -0.3886  0.3064  0.1653
 6991TIP3    H142532   2.865   4.921   0.673 -0.7140  0.3920  1.0424
 6991TIP3    H242533   2.955   4.803   0.647 -1.1920  0.6337 -2.0866
 6992TIP3   OH242534   5.121   2.022   6.880  0.3636 -0.3007 -0.3221
 6992TIP3    H142535   5.077   1.949   6.836  1.0323 -0.1284 -1.3075
 6992TIP3    H242536   5.109   2.096   6.820  1.1758 -0.0219 -0.1497
 6993TIP3   OH242537   0.644   1.195   8.481 -0.0721  0.1712  0.3441
 6993TIP3    H142538   0.724   1.144   8.468 -1.3497 -1.5165 -1.4165
 6993TIP3    H242539   0.593   1.143   8.543 -0.2751  0.6896  0.6179
 6994TIP3   OH242540   4.742   1.761   6.748  0.0448 -0.3385  0.7032
 6994TIP3    H142541   4.675   1.693   6.754  0.3222 -0.5013  2.7615
 6994TIP3    H242542   4.696   1.837   6.712 -1.2722 -0.4524  2.0497
 6995TIP3   OH242543   4.556   4.571   1.838 -0.0134 -0.1945  0.3128
 6995TIP3    H142544   4.610   4.649   1.830 -1.2002  0.4744 -1.8373
 6995TIP3    H242545   4.589   4.512   1.770 -1.8357  0.1697 -0.9385
 6996TIP3   OH242546   1.708   5.977   7.698 -0.2587 -0.5291 -0.0431
 6996TIP3    H142547   1.644   5.989   7.768 -1.0908 -0.2379 -0.8290
 6996TIP3    H242548   1.656   5.947   7.623  0.6772 -1.3009 -0.4021
 6997TIP3   OH242549   3.762   6.027   8.611 -0.0803 -0.1990 -0.1670
 6997TIP3    H142550   3.723   6.113   8.626  0.1239 -0.1485  0.0760
 6997TIP3    H242551   3.744   6.008   8.519 -1.3813 -0.5172  0.1322
 6998TIP3   OH242552   6.659   6.330   1.985  0.0795  0.5380 -0.1801
 6998TIP3    H142553   6.681   6.248   2.030  1.2045  0.9353  0.0340
 6998TIP3    H242554   6.604   6.303   1.912  1.3484 -0.5517 -0.7701
 6999TIP3   OH242555   2.354   0.230   7.684  0.6624 -0.1563 -0.2867
 6999TIP3    H142556   2.301   0.158   7.720 -0.0288  0.2189 -0.5398
 6999TIP3    H242557   2.416   0.187   7.626  1.1515 -0.6804  0.5972
 7000TIP3   OH242558   0.020   4.945   6.506  0.3224  0.1019 -0.3564
 7000TIP3    H142559   0.054   5.026   6.545  0.3265  0.0701 -0.2929
 7000TIP3    H242560   0.074   4.876   6.545 -0.3016 -0.0214  0.3175
 7001TIP3   OH242561   3.190   2.099   1.264  0.0133 -0.3967 -0.3806
 7001TIP3    H142562   3.099   2.128   1.254  0.0338  0.1068  0.7527
 7001TIP3    H242563   3.185   2.006   1.285 -0.2443 -0.3537 -0.2587
 7002TIP3   OH242564   6.449   5.010   8.032  0.1926 -0.3156  0.1687
 7002TIP3    H142565   6.520   5.073   8.020  0.3969 -0.6219 -0.2135
 7002TIP3    H242566   6.467   4.940   7.969 -0.2385 -0.5778  0.3340
 7003TIP3   OH242567   1.144   0.898   0.116 -0.2121  0.0030 -0.5077
 7003TIP3    H142568   1.082   0.902   0.189  3.5891  1.1264  3.0255
 7003TIP3    H242569   1.174   0.988   0.105  1.2670 -0.6016 -1.6478
 7004TIP3   OH242570   2.204   0.966   0.794  0.1599  0.3720  0.1996
 7004TIP3    H142571   2.253   0.884   0.787 -0.7593 -0.0152 -2.9855
 7004TIP3    H242572   2.271   1.034   0.801  0.9414 -0.5334  4.0285
 7005TIP3   OH242573   0.013   2.901   1.288  0.1611 -0.0100 -0.3787
 7005TIP3    H142574  -0.050   2.973   1.282  0.7051  0.4941 -0.1625
 7005TIP3    H242575   0.088   2.939   1.334  0.1778 -0.9123  0.3745
 7006TIP3   OH242576   6.660   1.076   0.748 -0.3581  0.4521  0.3853
 7006TIP3    H142577   6.742   1.113   0.717  0.6941 -0.2181  2.1971
 7006TIP3    H242578   6.642   1.123   0.830 -1.7019  0.4753  0.1024
 7007TIP3   OH242579   0.520   0.272   1.975  0.1309  0.3300  0.0874
 7007TIP3    H142580   0.572   0.198   2.006 -1.2101 -1.1546 -1.0076
 7007TIP3    H242581   0.579   0.320   1.917  0.9514  0.0020  0.6282
 7008TIP3   OH242582   0.993   6.005   7.946 -0.3486  0.1950  0.6231
 7008TIP3    H142583   1.081   5.981   7.972  0.3753  1.2774 -0.6821
 7008TIP3    H242584   1.004   6.084   7.893 -1.7795 -1.2275 -2.0180
 7009TIP3   OH242585   1.689   0.996   6.767  0.4214 -0.8044 -0.5022
 7009TIP3    H142586   1.740   1.020   6.845 -1.2577 -1.0582  0.7403
 7009TIP3    H242587   1.730   0.916   6.735  0.4211 -1.3879  0.8821
 7010TIP3   OH242588   2.974   1.134   7.005  0.1823  0.1599  0.2419
 7010TIP3    H142589   2.902   1.139   6.942  0.0496 -0.7403  0.3019
 7010TIP3    H242590   3.049   1.103   6.954  0.0202 -0.7817  0.5401
 7011TIP3   OH242591   0.492   1.180   6.306  0.1062  0.2601 -0.0729
 7011TIP3    H142592   0.470   1.104   6.360  1.4350  0.4784  0.8169
 7011TIP3    H242593   0.588   1.185   6.309  0.1620  0.7891 -1.7700
 7012TIP3   OH242594   6.164   1.113   0.224 -0.0409 -0.2128 -0.0563
 7012TIP3    H142595   6.116   1.070   0.154 -1.8115  1.0448  0.3115
 7012TIP3    H242596   6.135   1.070   0.304 -1.1355  1.0152  0.2315
 7013TIP3   OH242597   5.399   2.973   8.138  0.2735  0.6119 -0.4081
 7013TIP3    H142598   5.346   3.019   8.203 -1.0123  1.4961 -2.0272
 7013TIP3    H242599   5.357   2.888   8.128  0.0042  0.7764 -0.6657
 7014TIP3   OH242600   4.250   3.678   0.630  0.0545 -0.3585  0.5383
 7014TIP3    H142601   4.217   3.716   0.711 -1.2360 -0.7077  0.1902
 7014TIP3    H242602   4.211   3.730   0.561  1.8868  0.5462  0.1068
 7015TIP3   OH242603   2.634   5.830   7.117  0.4720  0.0548 -0.2074
 7015TIP3    H142604   2.586   5.834   7.199 -0.0225  0.9703 -0.5269
 7015TIP3    H242605   2.659   5.738   7.108 -0.4512 -0.2699  0.4066
 7016TIP3   OH242606   6.383   0.361   8.603 -0.4407  0.3727  0.0687
 7016TIP3    H142607   6.459   0.407   8.567  0.0454 -0.9587 -0.6877
 7016TIP3    H242608   6.309   0.392   8.551 -0.3032  1.1388  0.3243
 7017TIP3   OH242609   3.100   5.411   2.160 -0.2457  0.0339 -0.0762
 7017TIP3    H142610   3.194   5.431   2.166 -0.6383  1.5519  2.5345
 7017TIP3    H242611   3.071   5.407   2.251 -2.5814 -1.3039 -0.8032
 7018TIP3   OH242612   4.375   1.411   7.928 -0.2052  0.0235 -0.3317
 7018TIP3    H142613   4.312   1.339   7.923  1.4771 -1.6436  1.0947
 7018TIP3    H242614   4.333   1.477   7.983 -1.7098  0.1417 -1.5395
 7019TIP3   OH242615   5.831   3.855   8.535 -0.0617  0.0107 -0.2201
 7019TIP3    H142616   5.806   3.882   8.623 -0.4197 -1.0784  0.0306
 7019TIP3    H242617   5.876   3.771   8.548  0.3737  0.1083 -1.0257
 7020TIP3   OH242618   1.424   4.782   8.697 -0.2894 -0.1331  0.2643
 7020TIP3    H142619   1.477   4.841   8.751 -0.6950 -0.9308  1.5782
 7020TIP3    H242620   1.460   4.695   8.713 -1.2750 -0.5502  0.3187
 7021TIP3   OH242621   2.626   1.305   1.109  0.1409 -0.1179 -0.4938
 7021TIP3    H142622   2.545   1.348   1.079 -1.0119 -0.3676  2.0020
 7021TIP3    H242623   2.680   1.377   1.142  0.3690 -0.1004 -0.8939
 7022TIP3   OH242624   6.226   0.015   0.217 -0.0665  0.2761  0.2770
 7022TIP3    H142625   6.257   0.059   0.296  0.5539  1.4359 -0.5652
 7022TIP3    H242626   6.301  -0.034   0.186 -0.0265  0.5467 -0.0645
 7023TIP3   OH242627   4.411   5.841   7.946 -0.2445  0.2152 -0.0266
 7023TIP3    H142628   4.373   5.883   8.023  0.3312 -0.4041  0.6087
 7023TIP3    H242629   4.469   5.907   7.909  0.1181  0.2382  0.5647
 7024TIP3   OH242630   2.418   6.572   2.150 -0.3692 -0.0244  0.4540
 7024TIP3    H142631   2.471   6.535   2.079 -0.4692  1.7617 -0.6166
 7024TIP3    H242632   2.478   6.582   2.223  0.6660  1.4474 -0.5591
 7025TIP3   OH242633   6.637   3.819   8.163  0.0629  0.1370 -0.0884
 7025TIP3    H142634   6.561   3.789   8.112 -0.2286  0.9542 -0.1575
 7025TIP3    H242635   6.709   3.763   8.134 -0.6557 -1.1471  0.5033
 7026TIP3   OH242636   5.206   0.765   1.366  0.2338  0.0590 -0.3001
 7026TIP3    H142637   5.283   0.709   1.360 -0.1825 -0.9144  2.1927
 7026TIP3    H242638   5.220   0.833   1.299  2.5103 -0.9240 -0.9127
 7027TIP3   OH242639   3.091   0.302   1.559  0.4884  0.5913 -0.3581
 7027TIP3    H142640   3.067   0.374   1.501 -0.3421  1.7247  1.2992
 7027TIP3    H242641   3.043   0.227   1.524  1.9472  0.5804 -2.5570
 7028TIP3   OH242642   4.486   3.521   7.767 -0.0547  0.2589 -0.2221
 7028TIP3    H142643   4.544   3.487   7.699  2.4671  2.5971  0.6069
 7028TIP3    H242644   4.404   3.541   7.721  0.3890 -1.3468 -1.8325
 7029TIP3   OH242645   5.000   5.765   1.457  0.3627 -0.4972 -0.0421
 7029TIP3    H142646   4.938   5.819   1.505 -1.4477 -0.7194 -1.9743
 7029TIP3    H242647   5.016   5.690   1.514 -1.1771 -0.4313  0.5202
 7030TIP3   OH242648   3.724   0.608   1.186  0.2351  0.0343  0.1180
 7030TIP3    H142649   3.667   0.582   1.258  1.4449 -1.0494  0.7363
 7030TIP3    H242650   3.813   0.598   1.221  0.8401  0.0529 -1.3315
 7031TIP3   OH242651   3.059   6.313   1.086 -0.1509  0.1293 -0.3026
 7031TIP3    H142652   3.090   6.228   1.118 -0.4147 -0.1962 -0.8854
 7031TIP3    H242653   3.137   6.354   1.050 -0.4121 -0.8323 -2.0785
 7032TIP3   OH242654   5.718   6.085   8.874 -0.3595  0.7556  0.3017
 7032TIP3    H142655   5.629   6.074   8.906 -0.6868  0.1142 -0.7708
 7032TIP3    H242656   5.764   6.006   8.905 -0.4196  0.6121  0.0262
 7033TIP3   OH242657   5.040   0.818   1.652 -0.6518  0.0298 -0.2028
 7033TIP3    H142658   4.955   0.846   1.618 -0.9708 -1.2036 -0.4870
 7033TIP3    H242659   5.103   0.876   1.609 -1.2815  0.4018 -0.6496
 7034TIP3   OH242660   3.301   2.270   7.000  0.0486  0.2332 -0.1636
 7034TIP3    H142661   3.247   2.254   6.923 -0.9842  0.7492  0.4449
 7034TIP3    H242662   3.366   2.334   6.971  0.1516 -0.1531 -0.8053
 7035TIP3   OH242663   6.312   4.591   1.356 -0.4038  0.2408  0.1644
 7035TIP3    H142664   6.363   4.608   1.277 -1.2233 -0.1490 -0.4673
 7035TIP3    H242665   6.221   4.602   1.329 -0.7771 -1.2056  0.7082
 7036TIP3   OH242666   5.038   4.930   1.600 -0.1294  0.2752 -0.0097
 7036TIP3    H142667   5.119   4.979   1.590 -0.5574  0.9955 -0.0130
 7036TIP3    H242668   5.018   4.932   1.693 -0.2494  0.2729 -0.0339
 7037TIP3   OH242669   2.764   2.492   7.737  0.7503 -0.8702 -0.3343
 7037TIP3    H142670   2.727   2.525   7.818  0.1907  1.5879 -1.4939
 7037TIP3    H242671   2.788   2.401   7.756  2.3614  0.1210  3.1080
 7038TIP3   OH242672   5.758   0.616   0.298  0.5116 -0.2115  0.4000
 7038TIP3    H142673   5.768   0.626   0.203  0.2935 -0.3175  0.3656
 7038TIP3    H242674   5.809   0.688   0.335 -0.0201  0.2915  0.1857
 7039TIP3   OH242675   2.212   6.030   1.516 -0.1897  0.1419 -0.4179
 7039TIP3    H142676   2.267   5.952   1.510 -0.6565 -0.1084 -1.5290
 7039TIP3    H242677   2.221   6.058   1.607  1.4685 -0.1165 -0.4631
 7040TIP3   OH242678   3.541   1.919   1.537 -0.5166  0.5067 -0.0286
 7040TIP3    H142679   3.614   1.940   1.479  1.2217  0.6085  2.0728
 7040TIP3    H242680   3.473   1.982   1.513  1.4133  2.8920  0.2809
 7041TIP3   OH242681   5.555   3.005   6.379 -0.1369  0.0129  0.1470
 7041TIP3    H142682   5.506   2.924   6.394 -1.0953  0.1379 -1.9366
 7041TIP3    H242683   5.491   3.066   6.343  1.1645  0.7852 -0.9459
 7042TIP3   OH242684   5.665   1.820   2.066 -0.6731  0.5080 -0.7073
 7042TIP3    H142685   5.629   1.804   1.979 -2.2093  1.9300 -0.3730
 7042TIP3    H242686   5.627   1.753   2.122 -0.2735  0.0569 -0.9707
 7043TIP3   OH242687   2.479   4.136   8.038  0.1916 -0.3092 -0.4435
 7043TIP3    H142688   2.550   4.073   8.041 -0.8907 -1.6123 -1.1249
 7043TIP3    H242689   2.521   4.221   8.054  1.7250 -1.1496  0.1326
 7044TIP3   OH242690   6.271   2.668   0.561  0.1918 -0.3565  0.0046
 7044TIP3    H142691   6.306   2.610   0.628 -2.4867  0.1723  2.0511
 7044TIP3    H242692   6.310   2.753   0.580  0.2711 -0.4349  0.1977
 7045TIP3   OH242693   4.972   2.193   7.820 -0.5381  0.1694 -0.2115
 7045TIP3    H142694   5.008   2.273   7.783 -1.6260  0.5805 -0.4416
 7045TIP3    H242695   5.016   2.183   7.904 -0.3709  0.9972 -0.1930
 7046TIP3   OH242696   1.329   1.386   7.473  0.1924 -0.5520  0.0912
 7046TIP3    H142697   1.403   1.339   7.509 -0.0809 -0.1797  1.1757
 7046TIP3    H242698   1.367   1.466   7.436  0.4995 -1.0351 -0.6522
 7047TIP3   OH242699   2.683   6.108   0.191 -0.3134 -0.2465 -0.1518
 7047TIP3    H142700   2.647   6.052   0.260 -1.6493 -0.2053 -0.7731
 7047TIP3    H242701   2.768   6.136   0.224  0.3293 -2.5151  0.2482
 7048TIP3   OH242702   0.437   0.153   7.281  0.1761 -0.1307  0.6952
 7048TIP3    H142703   0.393   0.068   7.292  2.2413 -1.3225  0.2652
 7048TIP3    H242704   0.488   0.164   7.361  0.9563  0.0446  0.1812
 7049TIP3   OH242705   1.290   6.429   6.989 -0.0103  0.2808 -0.4990
 7049TIP3    H142706   1.203   6.424   6.949 -1.0512  3.2780  1.1250
 7049TIP3    H242707   1.346   6.464   6.920 -0.4747  0.0428 -1.0082
 7050TIP3   OH242708   6.224   2.502   7.383  0.6340  0.0453 -0.2863
 7050TIP3    H142709   6.310   2.479   7.418  0.3742  1.0382  1.1106
 7050TIP3    H242710   6.205   2.587   7.421 -0.8120  0.0167 -0.8757
 7051TIP3   OH242711   3.877   4.969   0.131  0.1546  0.3310 -0.0041
 7051TIP3    H142712   3.827   4.981   0.212  2.6091  0.4740  1.5895
 7051TIP3    H242713   3.949   4.911   0.155 -0.6782 -2.1616 -2.8815
 7052TIP3   OH242714   3.093   2.078   0.337 -0.0047  0.4254 -0.8351
 7052TIP3    H142715   3.053   2.130   0.268 -1.6768  0.0478 -0.2021
 7052TIP3    H242716   3.027   2.074   0.405  0.4127 -1.7471 -0.4826
 7053TIP3   OH242717   1.186   1.500   8.179 -0.2332  0.0291 -0.8319
 7053TIP3    H142718   1.212   1.410   8.161 -0.5076 -0.2906  0.2930
 7053TIP3    H242719   1.099   1.508   8.140 -1.1069 -0.8572  0.8419
 7054TIP3   OH242720   4.984   4.535   8.200  1.0304  0.3879  0.2986
 7054TIP3    H142721   4.957   4.488   8.278  2.9893 -0.4448  0.5539
 7054TIP3    H242722   4.945   4.486   8.127  0.0206  0.5745  0.7064
 7055TIP3   OH242723   6.114   4.890   8.551 -0.2918 -0.1319 -0.3720
 7055TIP3    H142724   6.098   4.859   8.641  0.9490 -0.1188 -0.1376
 7055TIP3    H242725   6.178   4.960   8.561 -1.9284  1.5278 -1.0593
 7056TIP3   OH242726   1.637   3.425   0.604 -0.1773  0.6257  0.1943
 7056TIP3    H142727   1.709   3.487   0.614  0.6191 -0.2933  0.3120
 7056TIP3    H242728   1.613   3.432   0.511  0.0626  0.9395  0.1535
 7057TIP3   OH242729   6.229   6.373   2.192  0.6431  0.2056 -0.1768
 7057TIP3    H142730   6.320   6.401   2.201  0.6921 -0.1346  0.5075
 7057TIP3    H242731   6.229   6.314   2.117  1.2403 -0.7715  0.5650
 7058TIP3   OH242732   5.420   4.336   1.685  0.2425 -0.4629 -0.1179
 7058TIP3    H142733   5.363   4.309   1.757 -1.9796  1.4185 -1.0484
 7058TIP3    H242734   5.371   4.313   1.605  2.1133 -1.4329 -1.0370
 7059TIP3   OH242735   5.683   2.859   0.740  0.0849 -0.4796 -0.8885
 7059TIP3    H142736   5.633   2.821   0.813 -0.5157  0.1976 -0.9409
 7059TIP3    H242737   5.619   2.867   0.669  0.5731 -0.7696 -1.3667
 7060TIP3   OH242738   4.981   2.171   1.658  0.0078 -0.6250  0.3456
 7060TIP3    H142739   4.931   2.249   1.682 -0.0522 -0.1970 -1.1210
 7060TIP3    H242740   5.038   2.156   1.734 -1.7182 -0.6462  1.6958
 7061TIP3   OH242741   0.043   1.726   8.646 -0.3594 -0.3700 -0.0679
 7061TIP3    H142742   0.006   1.737   8.558  2.3454 -0.3385 -1.3338
 7061TIP3    H242743   0.132   1.694   8.629  1.1917  2.1527  2.5418
 7062TIP3   OH242744   4.224   4.643   7.038 -0.1159  0.0387  0.6301
 7062TIP3    H142745   4.307   4.634   6.991 -0.1276 -0.7215  0.7389
 7062TIP3    H242746   4.236   4.591   7.117 -1.3597 -1.7139 -0.2612
 7063TIP3   OH242747   4.674   0.536   1.325  0.1386  0.5836 -0.2757
 7063TIP3    H142748   4.769   0.548   1.321  0.2293  0.2906  0.7911
 7063TIP3    H242749   4.638   0.619   1.294  0.7475  1.2388  0.7294
 7064TIP3   OH242750   5.757   6.187   1.764 -0.7559 -0.6382  0.2404
 7064TIP3    H142751   5.756   6.172   1.859 -1.4136 -0.5283  0.2603
 7064TIP3    H242752   5.733   6.279   1.755 -0.2779 -0.5368 -0.0202
 7065TIP3   OH242753   2.537   2.389   0.324  0.2429  0.2054 -0.1891
 7065TIP3    H142754   2.493   2.320   0.275  1.6141 -0.0343 -1.1623
 7065TIP3    H242755   2.596   2.342   0.383  0.8491  0.5175 -0.5340
 7066TIP3   OH242756   0.574   0.644   0.896 -0.3533  0.0557 -0.3492
 7066TIP3    H142757   0.556   0.729   0.936  1.1652  1.0674 -1.6456
 7066TIP3    H242758   0.511   0.638   0.824  0.2705  0.6740 -0.9766
 7067TIP3   OH242759   5.252   6.527   1.804 -0.3134 -0.0855 -0.1141
 7067TIP3    H142760   5.346   6.512   1.814 -0.0145  2.1327  1.1191
 7067TIP3    H242761   5.246   6.615   1.768 -1.9275  0.0684  0.4731
 7068TIP3   OH242762   4.550   2.745   7.769 -0.0238  0.1914  0.0994
 7068TIP3    H142763   4.574   2.693   7.846 -0.4142  0.7100  0.5810
 7068TIP3    H242764   4.457   2.730   7.758  0.2404 -0.7885 -0.9804
 7069TIP3   OH242765   1.234   1.121   0.712 -0.1611  0.4912  0.1771
 7069TIP3    H142766   1.170   1.191   0.725 -1.4693 -0.7715  0.8902
 7069TIP3    H242767   1.183   1.049   0.675  0.2408 -1.4068  2.9769
 7070TIP3   OH242768   3.266   3.702   1.682  0.9758 -0.6096  0.2185
 7070TIP3    H142769   3.242   3.621   1.727  1.2015  0.2049  1.8881
 7070TIP3    H242770   3.204   3.767   1.716  0.8597 -0.0517 -1.0253
 7071TIP3   OH242771   4.075   4.740   7.658  0.6600 -0.6617 -0.2084
 7071TIP3    H142772   3.997   4.733   7.604  1.3109 -0.7917 -1.1639
 7071TIP3    H242773   4.100   4.833   7.653  0.1730 -0.4655  0.6919
 7072LIG      O42774   3.930   3.863   5.978 -0.0057  0.1425  0.4095
 7072LIG     C142775   3.935   3.989   6.049 -0.2489  0.4021  0.8585
 7072LIG     C242776   4.001   4.087   5.958 -0.1466  0.2869 -0.6328
 7072LIG     C342777   3.790   4.020   6.070 -0.5488  0.0444 -0.8166
 7072LIG     H142778   3.991   3.984   6.145  1.2816 -3.0545 -0.0611
 7072LIG     H242779   4.098   4.043   5.924 -0.8591 -0.7152 -1.4347
 7072LIG     H342780   4.005   4.187   6.006 -2.3963 -0.3214  0.9306
 7072LIG     H442781   3.931   4.103   5.874 -0.3158  1.0330 -0.3558
 7072LIG     H542782   3.733   4.003   5.976  0.7823 -3.0291 -1.2047
 7072LIG     H642783   3.775   4.117   6.120 -0.2215 -0.6085  0.6105
 7072LIG     H742784   3.742   3.954   6.146  0.3092  1.6546  1.1971
 7072LIG     H842785   4.018   3.837   5.951 -0.4273 -0.9771  0.0917
   6.75058   6.75058   8.97357
