Title
42788
    1SAPS     N    1   0.625   5.020   6.503  0.2857 -0.3175 -0.2823
    1SAPS   HN1    2   0.575   4.961   6.434  0.2539  1.5305 -1.9318
    1SAPS   HN2    3   0.628   5.116   6.462 -4.0690  1.0767  2.0736
    1SAPS   HN3    4   0.726   4.994   6.507 -0.0063 -1.4984 -0.4246
    1SAPS   C12    5   0.556   5.029   6.633 -0.2958  0.8296  0.4780
    1SAPS  H12A    6   0.583   4.944   6.693  0.7089  1.1758  0.5410
    1SAPS   C13    7   0.614   5.148   6.712 -0.9974 -0.0011 -0.4515
    1SAPS  O13A    8   0.694   5.232   6.663 -0.2553 -0.6818 -0.6549
    1SAPS  O13B    9   0.551   5.179   6.815  0.0577 -0.2238  0.1866
    1SAPS   C11   10   0.409   5.047   6.604 -0.3373  0.1817 -0.0119
    1SAPS  H11A   11   0.391   5.135   6.539 -1.6955  0.0023  0.0922
    1SAPS  H11B   12   0.356   5.067   6.700 -0.1943  1.0167 -0.0970
    1SAPS     P   13   0.186   4.956   6.514  0.4923 -0.4281  0.2687
    1SAPS   O13   14   0.111   4.841   6.459 -0.0781 -0.5396  0.0873
    1SAPS   O14   15   0.126   5.006   6.643  0.2227  0.7559 -0.2094
    1SAPS   O12   16   0.347   4.939   6.537  0.8134 -0.4169 -0.3979
    1SAPS   O11   17   0.176   5.078   6.410  0.9214 -0.2654  0.0880
    1SAPS    C1   18   0.263   5.111   6.305  0.5105 -0.2402 -0.1222
    1SAPS    HA   19   0.295   5.215   6.329  1.1727 -0.2798 -0.7875
    1SAPS    HB   20   0.349   5.041   6.305  0.8947  0.0582  3.7633
    1SAPS    C2   21   0.189   5.119   6.168  0.1260 -0.0213  0.1151
    1SAPS    HS   22   0.109   5.193   6.184  0.9004  0.9066 -0.2203
    1SAPS   O21   23   0.140   4.990   6.132  0.0786  0.5636 -0.0908
    1SAPS   C21   24   0.019   4.954   6.171 -0.2071 -0.3672 -0.7758
    1SAPS   O22   25  -0.059   5.026   6.230  0.3018  0.6583  0.2949
    1SAPS   C22   26  -0.004   4.825   6.101 -0.4736  0.9376  0.0747
    1SAPS   H2R   27   0.004   4.840   5.991 -3.0790  2.6109  0.0244
    1SAPS   H2S   28   0.070   4.754   6.145 -0.3718  0.1230 -1.3399
    1SAPS    C3   29   0.288   5.169   6.058 -0.1858  0.7930  0.6089
    1SAPS    HX   30   0.375   5.100   6.054 -0.2930  0.6799 -0.0011
    1SAPS    HY   31   0.316   5.271   6.089 -1.6912  1.8366 -1.2204
    1SAPS   O31   32   0.219   5.171   5.929 -0.0231  0.3517  0.7460
    1SAPS   C31   33   0.290   5.227   5.839 -0.2901 -0.0203  1.1403
    1SAPS   O32   34   0.405   5.267   5.854 -0.3616 -0.5048  0.1981
    1SAPS   C32   35   0.210   5.244   5.711 -0.3008  0.4111 -0.1414
    1SAPS   H2X   36   0.163   5.343   5.693 -0.4877  0.0214 -1.9833
    1SAPS   H2Y   37   0.150   5.151   5.702 -1.0410  0.7942  0.7018
    1SAPS   C23   38  -0.135   4.764   6.148 -0.3017  0.0620  0.3823
    1SAPS   H3R   39  -0.225   4.828   6.148 -1.1650 -1.1146 -0.1270
    1SAPS   H3S   40  -0.108   4.732   6.250  3.0785 -0.0520 -0.4251
    1SAPS   C24   41  -0.190   4.652   6.055  0.1970  0.8004  0.9691
    1SAPS   H4R   42  -0.106   4.586   6.025  1.1912  2.9169 -1.2847
    1SAPS   H4S   43  -0.228   4.702   5.963 -1.0421 -0.2718  0.8600
    1SAPS   C25   44  -0.296   4.576   6.127  0.3389  0.1813  0.1282
    1SAPS   H5R   45  -0.272   4.560   6.233  1.2197 -1.2478 -0.2533
    1SAPS   C26   46  -0.390   4.499   6.071  0.3562 -0.3329  0.2201
    1SAPS   H6R   47  -0.467   4.457   6.137 -1.7176  1.0125 -1.2110
    1SAPS   C27   48  -0.427   4.474   5.925 -0.1964 -1.0121  0.0968
    1SAPS   H7R   49  -0.348   4.513   5.857 -0.6119  1.3951  0.9011
    1SAPS   H7S   50  -0.523   4.528   5.916 -0.0537 -0.4738  1.4706
    1SAPS   C28   51  -0.452   4.327   5.882  0.8842 -0.6682 -0.1934
    1SAPS   H8R   52  -0.551   4.291   5.914 -1.3352  3.8641 -1.1933
    1SAPS   C29   53  -0.367   4.246   5.823 -0.2316 -0.4147  0.4407
    1SAPS   H9R   54  -0.397   4.143   5.799 -0.8126 -0.4504  1.2699
    1SAPS  C210   55  -0.221   4.286   5.784 -0.0730  0.5590  0.6579
    1SAPS  H10R   56  -0.223   4.396   5.773  2.1327  0.4120 -2.4896
    1SAPS  H10S   57  -0.203   4.251   5.680 -0.8159  1.7854  0.0900
    1SAPS  C211   58  -0.119   4.248   5.893 -1.0320  0.3422  0.5526
    1SAPS  H11R   59  -0.168   4.229   5.989 -1.6533 -0.8409  0.0293
    1SAPS  C212   60   0.012   4.218   5.881 -1.1023  0.2002  0.2349
    1SAPS  H12R   61   0.060   4.182   5.973 -1.3255  0.1275  0.3240
    1SAPS  C213   62   0.091   4.235   5.754 -0.1065 -0.0737  0.6189
    1SAPS  H13R   63   0.129   4.339   5.742 -2.1844  0.7553  0.8122
    1SAPS  H13S   64   0.030   4.212   5.664  1.0712 -1.3933  0.1281
    1SAPS  C214   65   0.213   4.146   5.756 -0.0278  0.2769  0.8316
    1SAPS  H14R   66   0.235   4.090   5.848  0.8456  1.8179  1.6171
    1SAPS  C215   67   0.306   4.131   5.656 -1.1607 -0.5080 -0.8482
    1SAPS  H15R   68   0.392   4.062   5.658  0.1969  1.0482 -2.1984
    1SAPS  C216   69   0.289   4.198   5.523  0.2635  0.3798  0.6357
    1SAPS  H16R   70   0.385   4.196   5.468 -0.7465 -4.3613 -1.4236
    1SAPS  H16S   71   0.243   4.299   5.532 -4.3473 -1.5641  1.9641
    1SAPS  C217   72   0.191   4.112   5.435 -0.1900 -0.0081  0.4617
    1SAPS  H17R   73   0.087   4.134   5.466  0.2029 -1.0639  2.7556
    1SAPS  H17S   74   0.210   4.006   5.459 -0.4796 -0.1100  0.2383
    1SAPS  C218   75   0.205   4.158   5.282 -0.7470  0.0094  0.2072
    1SAPS  H18R   76   0.160   4.082   5.215 -0.1646  0.0756 -0.2633
    1SAPS  H18S   77   0.314   4.164   5.261 -0.8966  2.0830 -0.2213
    1SAPS  C219   78   0.132   4.294   5.245 -0.2943  0.0076  0.4106
    1SAPS  H19R   79   0.181   4.383   5.290 -1.3274  0.2826  1.0219
    1SAPS  H19S   80   0.028   4.298   5.283 -0.2157  0.0561  0.6223
    1SAPS  C220   81   0.130   4.316   5.093  0.3060 -0.0405 -0.1723
    1SAPS  H20R   82   0.068   4.238   5.045 -2.3944  2.0210 -0.2667
    1SAPS  H20S   83   0.232   4.296   5.054  0.6677  0.1683  0.6312
    1SAPS  H20T   84   0.089   4.413   5.059 -1.1402 -0.0038  1.4864
    1SAPS   C33   85   0.304   5.237   5.594 -0.4925 -0.3089 -0.0610
    1SAPS   H3X   86   0.355   5.138   5.595 -0.0420 -0.0740  0.5502
    1SAPS   H3Y   87   0.389   5.307   5.603 -0.3187 -0.4441 -0.5729
    1SAPS   C34   88   0.229   5.268   5.464 -0.2637  0.3943 -0.0370
    1SAPS   H4X   89   0.192   5.373   5.466 -0.4277  0.3505 -0.7818
    1SAPS   H4Y   90   0.146   5.199   5.439  0.5799 -0.4742 -0.5159
    1SAPS   C35   91   0.325   5.250   5.342 -0.0345  0.0006  0.2516
    1SAPS   H5X   92   0.342   5.140   5.348  0.9340  0.0889 -0.5745
    1SAPS   H5Y   93   0.419   5.306   5.359 -0.0706 -0.1180  0.8732
    1SAPS   C36   94   0.277   5.292   5.209 -0.1686 -0.3175  1.7165
    1SAPS   H6X   95   0.276   5.402   5.216  1.2832 -0.0322 -1.1132
    1SAPS   H6Y   96   0.172   5.265   5.183 -0.0698  0.4956  0.3792
    1SAPS   C37   97   0.378   5.248   5.091  0.4741  0.1863 -0.3443
    1SAPS   H7X   98   0.386   5.137   5.092  0.5048  0.1411 -2.3596
    1SAPS   H7Y   99   0.477   5.285   5.123 -0.3441  2.0818  0.1607
    1SAPS   C38  100   0.341   5.294   4.949 -0.9088  0.0609 -0.8005
    1SAPS   H8X  101   0.376   5.400   4.953 -0.9643  0.0351  1.0875
    1SAPS   H8Y  102   0.235   5.288   4.918 -0.4070  1.2388 -3.0027
    1SAPS   C39  103   0.410   5.218   4.841  0.1290 -0.5667 -0.0131
    1SAPS   H9X  104   0.385   5.110   4.851  3.0991 -1.6977 -2.8387
    1SAPS   H9Y  105   0.521   5.224   4.831  0.2717 -3.2027 -0.6768
    1SAPS  C310  106   0.370   5.267   4.698 -0.8491  0.3037  0.0344
    1SAPS  H10X  107   0.412   5.369   4.688 -2.2917  1.0637  1.3318
    1SAPS  H10Y  108   0.260   5.274   4.681 -0.9704 -0.4152  0.4882
    1SAPS  C311  109   0.437   5.176   4.592  0.3979  0.7810 -0.0592
    1SAPS  H11X  110   0.446   5.081   4.648 -3.6459  0.5599  0.4516
    1SAPS  H11Y  111   0.544   5.197   4.571  1.1740 -0.8594  1.9171
    1SAPS  C312  112   0.356   5.139   4.472  0.6626  0.8907  0.0297
    1SAPS  H12X  113   0.371   5.227   4.405 -0.5116  1.0244 -0.0684
    1SAPS  H12Y  114   0.250   5.129   4.504  0.3141  3.5922 -0.0522
    1SAPS  C313  115   0.412   5.009   4.415  0.3917  0.2348  0.7550
    1SAPS  H13X  116   0.397   4.935   4.496 -0.8238  0.3949  0.6886
    1SAPS  H13Y  117   0.522   5.012   4.397  0.3298 -0.7783  0.1991
    1SAPS  C314  118   0.350   4.966   4.288 -0.2874 -0.3359 -0.5479
    1SAPS  H14X  119   0.373   5.039   4.208 -0.1400 -0.2841 -0.4582
    1SAPS  H14Y  120   0.239   4.954   4.287 -0.2936 -0.3037 -0.0885
    1SAPS  C315  121   0.408   4.833   4.245 -0.2214 -0.4209 -0.5393
    1SAPS  H15X  122   0.373   4.771   4.330  0.7329  1.0507  0.9996
    1SAPS  H15Y  123   0.519   4.829   4.240  0.0408  1.9235  1.5705
    1SAPS  C316  124   0.337   4.770   4.121 -0.6245  0.4700  0.2537
    1SAPS  H16X  125   0.368   4.835   4.037  1.4296 -1.2241 -0.3658
    1SAPS  H16Y  126   0.226   4.760   4.132 -0.8833  3.6046  1.7617
    1SAPS  C317  127   0.383   4.624   4.079 -0.3559 -0.4052  0.3155
    1SAPS  H17X  128   0.338   4.602   3.980  0.7961 -3.1794  0.3186
    1SAPS  H17Y  129   0.337   4.554   4.153  2.2578 -2.1566  0.4195
    1SAPS  C318  130   0.530   4.594   4.075 -0.6695  0.9904  0.3310
    1SAPS  H18X  131   0.544   4.495   4.027 -1.8896  0.6284  0.7033
    1SAPS  H18Y  132   0.566   4.590   4.180  1.4312 -0.3764 -0.3621
    1SAPS  H18Z  133   0.595   4.673   4.031  1.3140  0.2367  1.7486
    2SAPS     N  134   0.409   6.233   6.561  0.2560  0.0868 -0.5080
    2SAPS   HN1  135   0.368   6.178   6.483 -0.5897 -0.2766  0.1755
    2SAPS   HN2  136   0.462   6.311   6.516 -0.3338  1.8589  1.6654
    2SAPS   HN3  137   0.474   6.168   6.609 -1.1375  1.6689  4.1267
    2SAPS   C12  138   0.296   6.268   6.647  0.5605  0.4601 -0.2533
    2SAPS  H12A  139   0.204   6.275   6.590  0.4702 -1.2700 -0.3558
    2SAPS   C13  140   0.263   6.165   6.757 -0.3977 -0.1532 -0.3772
    2SAPS  O13A  141   0.323   6.053   6.752 -0.6948  0.5884 -0.5637
    2SAPS  O13B  142   0.171   6.189   6.842  0.4678  0.1976  0.4170
    2SAPS   C11  143   0.340   6.395   6.730  0.2792  0.4128 -0.1245
    2SAPS  H11A  144   0.420   6.381   6.806  0.5169  0.8763 -0.2852
    2SAPS  H11B  145   0.253   6.441   6.782 -1.2341  2.2512 -3.9115
    2SAPS     P  146   0.300   6.561   6.537  0.0451  0.2833 -0.0988
    2SAPS   O13  147   0.178   6.606   6.607  0.9610 -0.1092 -0.2180
    2SAPS   O14  148   0.383   6.669   6.478 -0.7341  0.3967 -0.7816
    2SAPS   O12  149   0.388   6.497   6.645  0.0360  0.1246  0.0628
    2SAPS   O11  150   0.265   6.442   6.433 -0.5783 -0.5898 -0.6134
    2SAPS    C1  151   0.318   6.439   6.304  0.3471 -0.0156  0.0226
    2SAPS    HA  152   0.427   6.455   6.322  0.7531 -1.1061 -1.2551
    2SAPS    HB  153   0.304   6.341   6.253 -0.5586 -0.3057  0.7920
    2SAPS    C2  154   0.258   6.548   6.209 -0.2301  0.1401 -0.8909
    2SAPS    HS  155   0.262   6.645   6.262 -0.0700  0.9215 -2.2964
    2SAPS   O21  156   0.119   6.524   6.169 -0.3967  0.1115 -0.2112
    2SAPS   C21  157   0.032   6.614   6.191  0.7010  0.4470  0.0205
    2SAPS   O22  158   0.044   6.709   6.262 -0.6277  0.2756  0.2901
    2SAPS   C22  159  -0.103   6.552   6.136  0.4689 -0.3106  0.4164
    2SAPS   H2R  160  -0.089   6.495   6.041 -1.1442  0.1065 -0.1171
    2SAPS   H2S  161  -0.136   6.485   6.218 -2.5693  0.4669 -0.0294
    2SAPS    C3  162   0.352   6.564   6.081  0.0218 -0.0384  0.0030
    2SAPS    HX  163   0.452   6.518   6.094 -1.0721 -2.1686  1.5511
    2SAPS    HY  164   0.373   6.673   6.075  0.1270 -0.0737 -0.2416
    2SAPS   O31  165   0.294   6.517   5.957  0.1120  0.1992 -0.1697
    2SAPS   C31  166   0.310   6.392   5.926  0.2901 -0.2577 -0.2189
    2SAPS   O32  167   0.365   6.314   5.998 -0.0732 -0.0325 -0.4508
    2SAPS   C32  168   0.261   6.353   5.792  0.0445  0.0526  0.1686
    2SAPS   H2X  169   0.237   6.435   5.721 -0.1839 -0.4324 -0.3189
    2SAPS   H2Y  170   0.169   6.296   5.817  2.0577 -3.0064  1.2186
    2SAPS   C23  171  -0.214   6.658   6.113  0.1295  0.3615 -0.4006
    2SAPS   H3R  172  -0.192   6.731   6.033 -1.4614  2.4241  0.9671
    2SAPS   H3S  173  -0.231   6.715   6.207  2.2097  1.7155 -0.7854
    2SAPS   C24  174  -0.354   6.589   6.080 -0.3165  0.3968  0.3588
    2SAPS   H4R  175  -0.419   6.591   6.170 -1.1777  0.2276 -0.2482
    2SAPS   H4S  176  -0.337   6.483   6.051  2.9607  1.6920 -3.5154
    2SAPS   C25  177  -0.415   6.652   5.954 -0.0315  0.6538  0.5766
    2SAPS   H5R  178  -0.485   6.735   5.972 -0.2853  0.6968 -0.5803
    2SAPS   C26  179  -0.393   6.613   5.821  0.1303 -0.3469 -0.2033
    2SAPS   H6R  180  -0.448   6.662   5.739  1.0726 -0.7890 -1.1188
    2SAPS   C27  181  -0.296   6.506   5.776 -0.6520  0.0835  0.2316
    2SAPS   H7R  182  -0.360   6.416   5.765 -0.0211 -0.5870  1.7911
    2SAPS   H7S  183  -0.228   6.463   5.852  1.2623 -1.2422 -2.0666
    2SAPS   C28  184  -0.214   6.552   5.655 -0.4072  0.5112 -0.3390
    2SAPS   H8R  185  -0.164   6.650   5.662 -0.1878  0.4910 -1.4347
    2SAPS   C29  186  -0.189   6.479   5.539 -0.1181  0.1036  0.8999
    2SAPS   H9R  187  -0.126   6.526   5.462 -2.2944 -1.3654 -1.9674
    2SAPS  C210  188  -0.232   6.343   5.510 -0.5683 -0.4279 -0.5663
    2SAPS  H10R  189  -0.314   6.353   5.435 -1.6744  2.2824  0.8626
    2SAPS  H10S  190  -0.274   6.284   5.594 -0.7604 -0.0012 -0.3592
    2SAPS  C211  191  -0.110   6.275   5.445 -0.4988 -0.1999 -0.4621
    2SAPS  H11R  192  -0.015   6.277   5.500 -1.1134 -3.9011  1.0836
    2SAPS  C212  193  -0.111   6.207   5.325 -0.1304 -0.0156 -0.3223
    2SAPS  H12R  194  -0.015   6.160   5.296  0.4433  1.4118 -0.8123
    2SAPS  C213  195  -0.225   6.198   5.228 -0.1288 -0.3245  0.0070
    2SAPS  H13R  196  -0.213   6.274   5.147 -2.1303  0.7708  0.6704
    2SAPS  H13S  197  -0.320   6.228   5.277 -0.1442 -0.1096 -0.1516
    2SAPS  C214  198  -0.240   6.058   5.168 -0.8231 -0.2891  0.3232
    2SAPS  H14R  199  -0.305   5.992   5.227  0.1100 -0.8916  0.7015
    2SAPS  C215  200  -0.187   6.010   5.054 -0.1823 -0.1428  0.1907
    2SAPS  H15R  201  -0.191   5.905   5.022  0.0600 -0.0685 -0.0860
    2SAPS  C216  202  -0.099   6.083   4.955  0.0524 -0.5685  0.6869
    2SAPS  H16R  203  -0.015   6.017   4.925  1.9576  2.1072 -0.2317
    2SAPS  H16S  204  -0.051   6.168   5.008  0.2934 -0.4265  0.2392
    2SAPS  C217  205  -0.164   6.127   4.820  0.5251 -0.3904 -0.2731
    2SAPS  H17R  206  -0.250   6.187   4.856  0.3016 -2.1594  2.4293
    2SAPS  H17S  207  -0.213   6.047   4.762 -0.0272 -0.0534 -0.2838
    2SAPS  C218  208  -0.074   6.218   4.731  0.7577 -0.1207  0.0602
    2SAPS  H18R  209   0.018   6.159   4.713  0.4042  0.0537 -2.6865
    2SAPS  H18S  210  -0.036   6.302   4.793 -1.4011 -0.0215  1.3489
    2SAPS  C219  211  -0.136   6.265   4.601  0.3506  0.7364  0.7928
    2SAPS  H19R  212  -0.217   6.339   4.618  0.6294  1.4520 -0.8532
    2SAPS  H19S  213  -0.187   6.182   4.548 -0.1311  1.5491 -0.0345
    2SAPS  C220  214  -0.030   6.337   4.516  0.1636  0.4498  0.9867
    2SAPS  H20R  215   0.006   6.432   4.559  0.3813  0.9319 -0.2205
    2SAPS  H20S  216  -0.071   6.380   4.422 -2.4317 -2.7412  0.4775
    2SAPS  H20T  217   0.056   6.273   4.486 -0.7008  0.4239 -1.7412
    2SAPS   C33  218   0.376   6.260   5.718 -0.7403 -0.2394 -0.2545
    2SAPS   H3X  219   0.387   6.174   5.788 -1.8433 -1.5093 -1.5610
    2SAPS   H3Y  220   0.470   6.319   5.713 -1.3850  0.6978 -1.9255
    2SAPS   C34  221   0.330   6.219   5.582 -0.4523  0.0418  0.6063
    2SAPS   H4X  222   0.303   6.312   5.527  1.5073 -0.9920 -2.3272
    2SAPS   H4Y  223   0.237   6.159   5.583 -1.3397  1.2588 -1.4114
    2SAPS   C35  224   0.439   6.156   5.490 -0.2345 -0.2500  0.3390
    2SAPS   H5X  225   0.472   6.062   5.540 -2.0270 -0.1030  1.9194
    2SAPS   H5Y  226   0.522   6.230   5.495 -0.7831  0.4325 -0.4400
    2SAPS   C36  227   0.390   6.115   5.351  0.1365  0.1736  0.7161
    2SAPS   H6X  228   0.301   6.049   5.361 -0.1032 -0.3548 -3.3964
    2SAPS   H6Y  229   0.473   6.060   5.303 -0.9199 -0.2708 -0.6633
    2SAPS   C37  230   0.339   6.225   5.249  0.9734 -0.3925  0.1788
    2SAPS   H7X  231   0.436   6.279   5.237  2.6831 -3.3329 -0.2263
    2SAPS   H7Y  232   0.266   6.290   5.302  2.7694  1.4284  0.5425
    2SAPS   C38  233   0.277   6.152   5.125  0.0071 -0.0230 -0.9155
    2SAPS   H8X  234   0.222   6.228   5.065 -1.0640 -0.0806 -0.0353
    2SAPS   H8Y  235   0.206   6.078   5.166  0.0709 -0.0384 -0.8331
    2SAPS   C39  236   0.371   6.096   5.031 -0.0163 -0.1969 -0.0719
    2SAPS   H9X  237   0.411   6.001   5.073 -1.2698 -0.0382  1.5775
    2SAPS   H9Y  238   0.458   6.160   5.004  0.9630 -1.6241 -0.4100
    2SAPS  C310  239   0.301   6.060   4.903 -0.0696 -1.0155 -0.0034
    2SAPS  H10X  240   0.259   6.146   4.847  0.6172 -1.1127 -0.6774
    2SAPS  H10Y  241   0.215   5.993   4.929 -0.6864 -0.9672 -1.7473
    2SAPS  C311  242   0.398   5.977   4.818  0.1882 -0.1384  0.1619
    2SAPS  H11X  243   0.446   5.896   4.878  1.4040  1.5801  1.6409
    2SAPS  H11Y  244   0.485   6.037   4.784 -0.0372  0.3372  0.4195
    2SAPS  C312  245   0.321   5.909   4.702  0.2793  0.1311  0.1597
    2SAPS  H12X  246   0.260   5.991   4.659  0.7296  0.6067  0.4084
    2SAPS  H12Y  247   0.262   5.824   4.744 -0.3826 -2.2114 -4.8362
    2SAPS  C313  248   0.413   5.853   4.598 -0.5998  0.7357  0.0274
    2SAPS  H13X  249   0.345   5.812   4.520  1.1436  0.2731 -1.3028
    2SAPS  H13Y  250   0.466   5.761   4.629 -1.8319 -0.5615 -1.5141
    2SAPS  C314  251   0.506   5.953   4.538 -1.0052  0.4934 -0.7014
    2SAPS  H14X  252   0.596   5.963   4.602 -0.9029 -3.5996  0.0889
    2SAPS  H14Y  253   0.450   6.048   4.531 -0.6408  0.6112 -2.8992
    2SAPS  C315  254   0.540   5.921   4.393  0.6184  0.0715  0.0637
    2SAPS  H15X  255   0.581   6.008   4.336  2.0616  0.7909  2.0955
    2SAPS  H15Y  256   0.446   5.890   4.341  0.8185 -0.5122  0.0471
    2SAPS  C316  257   0.621   5.792   4.379  0.2814 -0.3976 -0.1586
    2SAPS  H16X  258   0.593   5.719   4.458  2.3974 -0.6664  0.4040
    2SAPS  H16Y  259   0.725   5.817   4.411 -1.2551  2.2002  3.6107
    2SAPS  C317  260   0.630   5.729   4.235  0.3651 -0.1353  0.1897
    2SAPS  H17X  261   0.537   5.673   4.211  0.9971 -0.6822 -1.0793
    2SAPS  H17Y  262   0.713   5.655   4.232  1.3517  0.9761 -0.7735
    2SAPS  C318  263   0.657   5.828   4.123  0.1438 -0.5663  0.2272
    2SAPS  H18X  264   0.737   5.894   4.164  2.0064 -4.0316  2.7119
    2SAPS  H18Y  265   0.563   5.886   4.109 -1.6868 -3.5846 -1.1037
    2SAPS  H18Z  266   0.688   5.786   4.025 -1.1923 -0.9628 -0.0411
    3SAPS     N  267   6.259   4.889   6.681 -0.0055 -0.0199  0.4399
    3SAPS   HN1  268   6.188   4.889   6.606 -1.0091 -2.9864  1.2428
    3SAPS   HN2  269   6.238   4.979   6.729 -0.5964  0.1001 -0.0346
    3SAPS   HN3  270   6.359   4.889   6.652  1.1228  1.4575  3.8133
    3SAPS   C12  271   6.241   4.775   6.774 -0.0528  0.3906  0.4581
    3SAPS  H12A  272   6.312   4.697   6.747 -0.7224 -0.1003  0.0758
    3SAPS   C13  273   6.247   4.800   6.933  0.1301 -0.6758  0.5532
    3SAPS  O13A  274   6.270   4.920   6.967  0.2827 -0.0431 -0.0181
    3SAPS  O13B  275   6.239   4.708   7.014  0.2546 -0.0744 -0.1704
    3SAPS   C11  276   6.095   4.713   6.757 -0.2141  0.4090 -0.4666
    3SAPS  H11A  277   6.018   4.783   6.796 -0.9239 -0.9211  0.6432
    3SAPS  H11B  278   6.099   4.632   6.833  2.9410  2.0584  1.3345
    3SAPS     P  279   6.059   4.511   6.590 -0.0248  0.1090 -0.6354
    3SAPS   O13  280   6.188   4.448   6.612 -0.1490 -0.5527  0.3656
    3SAPS   O14  281   5.939   4.463   6.668 -0.0932  0.4217  0.0393
    3SAPS   O12  282   6.074   4.667   6.623  0.0443 -0.1010 -0.4057
    3SAPS   O11  283   6.029   4.507   6.439  0.8982 -0.5031 -0.8082
    3SAPS    C1  284   5.896   4.552   6.401  0.1434  0.4272 -0.1531
    3SAPS    HA  285   5.814   4.518   6.467  0.0295  1.5781  0.3380
    3SAPS    HB  286   5.883   4.662   6.388 -0.1001  0.5416  0.9071
    3SAPS    C2  287   5.871   4.504   6.254 -0.0060  0.2455 -0.4579
    3SAPS    HS  288   5.786   4.561   6.211 -0.4345 -0.2157 -0.2236
    3SAPS   O21  289   5.865   4.364   6.253  0.3928  0.0984 -0.0638
    3SAPS   C21  290   5.804   4.307   6.151 -0.5256  0.3517  1.1956
    3SAPS   O22  291   5.769   4.356   6.044 -0.6375  0.4700 -0.0615
    3SAPS   C22  292   5.802   4.149   6.173 -0.1677 -0.3818  0.2827
    3SAPS   H2R  293   5.899   4.097   6.184 -1.7829 -3.9398 -0.7670
    3SAPS   H2S  294   5.732   4.138   6.258  1.4148  1.2020  1.8741
    3SAPS    C3  295   5.989   4.548   6.166  0.0234  0.2360  0.4241
    3SAPS    HX  296   6.072   4.475   6.176  0.3786  0.2718 -1.7285
    3SAPS    HY  297   6.033   4.642   6.203  0.4598 -0.6068  2.1484
    3SAPS   O31  298   5.955   4.561   6.028 -0.2224  0.0803  0.3633
    3SAPS   C31  299   5.906   4.677   5.971 -0.1152  0.3745  0.0407
    3SAPS   O32  300   5.906   4.785   6.028 -0.1163 -0.3696 -0.0623
    3SAPS   C32  301   5.878   4.651   5.821  0.5100  0.0596 -0.3537
    3SAPS   H2X  302   5.776   4.687   5.799  1.1199  1.1582 -1.4566
    3SAPS   H2Y  303   5.894   4.541   5.809  3.0214  0.4465 -1.2091
    3SAPS   C23  304   5.738   4.093   6.048 -0.1287  0.0099  0.3184
    3SAPS   H3R  305   5.804   4.127   5.965 -0.4577  2.4159  0.9668
    3SAPS   H3S  306   5.637   4.127   6.020 -0.2905 -1.0600 -0.4733
    3SAPS   C24  307   5.736   3.940   6.046 -0.6418  0.0230 -0.6581
    3SAPS   H4R  308   5.709   3.919   6.152 -0.8257  0.2263 -0.6623
    3SAPS   H4S  309   5.832   3.889   6.029 -0.2865  0.2675  0.4805
    3SAPS   C25  310   5.634   3.879   5.949  0.2954  0.1509  1.0260
    3SAPS   H5R  311   5.532   3.878   5.992  0.0076 -1.1673  0.3794
    3SAPS   C26  312   5.646   3.830   5.821  0.4227  0.0105  0.2869
    3SAPS   H6R  313   5.556   3.799   5.765 -0.3045  3.4563 -0.7036
    3SAPS   C27  314   5.775   3.819   5.741  0.0486 -0.3222  0.3242
    3SAPS   H7R  315   5.860   3.780   5.801  0.2828  0.4977  0.5454
    3SAPS   H7S  316   5.802   3.922   5.711 -0.5588  0.0525  1.0243
    3SAPS   C28  317   5.778   3.731   5.629 -0.6793  0.6445  0.1893
    3SAPS   H8R  318   5.764   3.624   5.648  0.4598  0.4604  0.0126
    3SAPS   C29  319   5.802   3.771   5.501  0.6574 -0.6622  0.2321
    3SAPS   H9R  320   5.789   3.693   5.425  0.0100  0.9080 -1.3454
    3SAPS  C210  321   5.831   3.917   5.459  1.0247 -0.3139  0.1264
    3SAPS  H10R  322   5.903   3.961   5.531 -1.7034 -0.8917  3.5063
    3SAPS  H10S  323   5.740   3.980   5.447 -0.2542 -1.7048  1.9241
    3SAPS  C211  324   5.917   3.897   5.334  0.3496  0.1871  0.0675
    3SAPS  H11R  325   5.999   3.824   5.325 -0.2621 -0.2751 -2.3350
    3SAPS  C212  326   5.901   3.966   5.221  0.3429  0.6142 -0.2035
    3SAPS  H12R  327   5.948   3.924   5.131  3.2832  1.9837  0.5610
    3SAPS  C213  328   5.794   4.070   5.203 -0.1249 -0.0179  0.0309
    3SAPS  H13R  329   5.837   4.156   5.148 -0.7742 -0.9721 -2.0678
    3SAPS  H13S  330   5.765   4.114   5.301 -1.6372  0.4288 -0.5905
    3SAPS  C214  331   5.674   4.004   5.139  0.4367 -0.4467 -0.3231
    3SAPS  H14R  332   5.632   3.919   5.196  1.8071  0.7763  2.7152
    3SAPS  C215  333   5.612   4.040   5.019  0.1939  0.9463  0.1453
    3SAPS  H15R  334   5.522   3.981   4.998 -0.2149  0.5004  2.8330
    3SAPS  C216  335   5.653   4.152   4.936  0.1837 -0.3555 -0.6060
    3SAPS  H16R  336   5.697   4.233   4.998 -1.5045  0.9958 -1.0746
    3SAPS  H16S  337   5.566   4.200   4.887 -2.7888 -1.9959  2.6352
    3SAPS  C217  338   5.759   4.112   4.828 -0.2041 -0.6096 -0.6265
    3SAPS  H17R  339   5.833   4.040   4.868 -0.5937 -1.1770 -0.9203
    3SAPS  H17S  340   5.804   4.206   4.790 -1.4244 -0.0361 -0.6991
    3SAPS  C218  341   5.695   4.053   4.695  0.4435 -0.3456 -0.8704
    3SAPS  H18R  342   5.609   4.116   4.662 -0.3376 -0.5973  0.5875
    3SAPS  H18S  343   5.640   3.964   4.733 -0.1893  1.4931  2.9338
    3SAPS  C219  344   5.783   4.021   4.576 -0.1046 -0.1646  0.0814
    3SAPS  H19R  345   5.829   3.920   4.581  1.6467  0.6465  1.1012
    3SAPS  H19S  346   5.719   4.008   4.486 -0.6103 -0.6901  0.5090
    3SAPS  C220  347   5.895   4.125   4.547 -0.5825 -0.0016  0.5374
    3SAPS  H20R  348   5.961   4.079   4.470 -0.9219  2.4209 -1.3387
    3SAPS  H20S  349   5.960   4.147   4.634  0.5816 -1.0385 -0.0393
    3SAPS  H20T  350   5.842   4.217   4.514 -0.9506 -0.0417  1.0165
    3SAPS   C33  351   5.962   4.742   5.735  0.0458  0.0604 -0.2953
    3SAPS   H3X  352   6.039   4.672   5.697 -1.4817 -3.3767  2.3237
    3SAPS   H3Y  353   6.016   4.818   5.794  1.1145 -0.1622 -0.9652
    3SAPS   C34  354   5.891   4.809   5.616  0.5281  0.5109 -0.0332
    3SAPS   H4X  355   5.810   4.880   5.643  0.2176  0.8589 -1.7599
    3SAPS   H4Y  356   5.830   4.729   5.568 -0.2633  1.1619 -0.1453
    3SAPS   C35  357   5.975   4.883   5.516 -0.6432 -0.1612 -0.6022
    3SAPS   H5X  358   5.930   4.962   5.452  1.2140  0.8379 -0.7569
    3SAPS   H5Y  359   6.053   4.940   5.570 -3.5916  1.6239  2.0830
    3SAPS   C36  360   6.036   4.785   5.417  0.7244  0.1342 -0.0336
    3SAPS   H6X  361   5.962   4.707   5.390  1.1231 -0.5867  0.8782
    3SAPS   H6Y  362   6.123   4.736   5.465  0.4670  1.3590  1.8120
    3SAPS   C37  363   6.070   4.868   5.296  0.0895 -0.5305 -0.5873
    3SAPS   H7X  364   6.136   4.949   5.334  0.4824 -0.5408 -1.2204
    3SAPS   H7Y  365   5.988   4.926   5.247  1.7336  2.4737 -0.0201
    3SAPS   C38  366   6.161   4.791   5.201  0.2913  0.3145  0.3276
    3SAPS   H8X  367   6.105   4.717   5.141  2.0950  1.1330 -2.5883
    3SAPS   H8Y  368   6.233   4.734   5.263 -2.8197 -2.6217  1.5393
    3SAPS   C39  369   6.228   4.870   5.094 -0.4977 -0.5092 -0.1566
    3SAPS   H9X  370   6.304   4.938   5.138 -0.6017 -1.4693  1.6035
    3SAPS   H9Y  371   6.165   4.944   5.039 -0.2458  1.3152  1.8774
    3SAPS  C310  372   6.286   4.772   4.983  0.1167 -0.6022 -0.1022
    3SAPS  H10X  373   6.196   4.747   4.923 -0.0802 -0.4647  0.1341
    3SAPS  H10Y  374   6.324   4.675   5.021  2.3643 -0.0642 -0.8111
    3SAPS  C311  375   6.385   4.849   4.898 -0.1599 -0.2984  0.6394
    3SAPS  H11X  376   6.486   4.867   4.942  0.4612  0.2219 -0.9175
    3SAPS  H11Y  377   6.339   4.946   4.869  0.6394  0.0550  0.5259
    3SAPS  C312  378   6.407   4.786   4.756 -0.3467 -0.4885 -0.3096
    3SAPS  H12X  379   6.306   4.756   4.722 -0.5547  0.8724 -0.9969
    3SAPS  H12Y  380   6.467   4.694   4.770 -3.8917 -2.6740  2.0988
    3SAPS  C313  381   6.481   4.886   4.658  0.3961 -0.0497  0.0749
    3SAPS  H13X  382   6.584   4.883   4.698  0.3361 -2.6710  0.1956
    3SAPS  H13Y  383   6.440   4.989   4.656  1.7591  0.4968 -0.7641
    3SAPS  C314  384   6.486   4.842   4.516  0.1573 -0.1650  0.1365
    3SAPS  H14X  385   6.393   4.783   4.504 -0.7682  0.8323  1.8951
    3SAPS  H14Y  386   6.569   4.771   4.497 -0.8479 -1.4975  0.5610
    3SAPS  C315  387   6.499   4.956   4.409  0.6013 -0.2858  0.2034
    3SAPS  H15X  388   6.411   5.024   4.414  1.5476  1.0032 -0.2138
    3SAPS  H15Y  389   6.505   4.903   4.311 -0.4064 -1.7663  0.8981
    3SAPS  C316  390   6.619   5.043   4.430  0.5270 -0.4649  0.0602
    3SAPS  H16X  391   6.614   5.079   4.535  0.5046 -0.6145  0.1110
    3SAPS  H16Y  392   6.632   5.130   4.363 -1.4223 -1.9510 -2.4304
    3SAPS  C317  393   6.750   4.967   4.409  0.2624 -0.1140  0.3856
    3SAPS  H17X  394   6.744   4.929   4.305  1.0042  0.5558  0.0855
    3SAPS  H17Y  395   6.760   4.887   4.486  0.5431 -0.1378  0.3267
    3SAPS  C318  396   6.873   5.052   4.429  0.7418 -0.0798  0.7761
    3SAPS  H18X  397   6.968   4.994   4.426  1.5527  1.2514 -0.7734
    3SAPS  H18Y  398   6.866   5.097   4.530 -1.3446  1.1902  0.1238
    3SAPS  H18Z  399   6.893   5.131   4.354 -1.0091 -0.8952 -0.6175
    4SAPS     N  400   3.963   1.449   6.521 -0.3191  0.3527 -0.2508
    4SAPS   HN1  401   3.886   1.379   6.524  0.8141 -1.0624 -2.0192
    4SAPS   HN2  402   3.947   1.523   6.450 -2.6992  1.1185  0.9659
    4SAPS   HN3  403   4.050   1.397   6.497 -1.0556 -0.2098 -1.8410
    4SAPS   C12  404   4.002   1.518   6.649 -0.3203  0.7493 -0.0031
    4SAPS  H12A  405   3.935   1.600   6.670 -0.3466  0.6860  0.1619
    4SAPS   C13  406   4.002   1.432   6.780 -0.3962 -0.0129  0.5635
    4SAPS  O13A  407   3.981   1.310   6.776 -0.2592  0.0990 -0.2952
    4SAPS  O13B  408   4.007   1.494   6.888 -0.5623  0.2758  0.5241
    4SAPS   C11  409   4.136   1.588   6.638  0.1902 -0.1983  0.6952
    4SAPS  H11A  410   4.214   1.511   6.618  1.1475  1.0618 -0.6018
    4SAPS  H11B  411   4.163   1.627   6.738  0.9670  2.5653 -0.5131
    4SAPS     P  412   4.259   1.757   6.467  0.5623  0.0361  0.3941
    4SAPS   O13  413   4.351   1.815   6.570  0.2034 -0.2977  0.4735
    4SAPS   O14  414   4.305   1.644   6.380  0.3389 -0.1638  0.6199
    4SAPS   O12  415   4.131   1.698   6.545 -0.3456 -0.2680 -0.3209
    4SAPS   O11  416   4.206   1.866   6.376 -0.6263  0.3262 -0.1215
    4SAPS    C1  417   4.080   1.896   6.335 -0.5979  0.0357  0.1953
    4SAPS    HA  418   4.040   1.800   6.295  2.8577 -0.9560 -1.2663
    4SAPS    HB  419   4.019   1.923   6.424 -1.1244 -1.5240  0.3280
    4SAPS    C2  420   4.076   1.985   6.207  0.7409  0.5517 -0.0995
    4SAPS    HS  421   3.969   2.002   6.184  0.4473  1.8100  1.9143
    4SAPS   O21  422   4.152   1.923   6.099  0.6310 -0.1113  0.2175
    4SAPS   C21  423   4.101   1.822   6.036  0.6891 -0.3796  0.2823
    4SAPS   O22  424   3.989   1.773   6.058 -0.2134  0.4484 -0.1966
    4SAPS   C22  425   4.210   1.776   5.942  0.3046 -0.5022  0.1101
    4SAPS   H2R  426   4.284   1.711   5.993  0.5740  1.5719  2.5345
    4SAPS   H2S  427   4.158   1.714   5.866  1.1339 -0.3320 -0.6177
    4SAPS    C3  428   4.131   2.129   6.228  0.4337 -0.4286  0.5945
    4SAPS    HX  429   4.239   2.119   6.251  0.3269 -3.2160  0.2221
    4SAPS    HY  430   4.079   2.173   6.316 -0.2961 -0.1087  0.0153
    4SAPS   O31  431   4.094   2.217   6.120  0.3922 -0.4380  0.3654
    4SAPS   C31  432   4.186   2.225   6.021  0.0858  0.1238  0.0571
    4SAPS   O32  433   4.296   2.171   6.024  0.5065  0.2828 -0.0525
    4SAPS   C32  434   4.128   2.329   5.919 -0.5386  0.9955 -0.2799
    4SAPS   H2X  435   4.088   2.407   5.987 -1.3944  0.3146  0.0155
    4SAPS   H2Y  436   4.045   2.275   5.868  0.5755  0.5447 -1.6687
    4SAPS   C23  437   4.296   1.874   5.858 -0.1773 -0.2450 -0.1703
    4SAPS   H3R  438   4.371   1.917   5.927  1.3004 -1.0090 -1.2402
    4SAPS   H3S  439   4.240   1.959   5.813 -0.6202  0.1085  0.9993
    4SAPS   C24  440   4.356   1.819   5.730  0.0086 -0.2336 -0.3863
    4SAPS   H4R  441   4.375   1.904   5.661  1.3859  0.2006  0.5020
    4SAPS   H4S  442   4.282   1.758   5.674 -1.2636  0.6414  0.2968
    4SAPS   C25  443   4.487   1.752   5.752 -0.6337  0.4538 -0.7190
    4SAPS   H5R  444   4.567   1.817   5.790  1.6279 -1.5776 -1.6773
    4SAPS   C26  445   4.520   1.622   5.727  0.4055 -0.2643 -0.4612
    4SAPS   H6R  446   4.625   1.594   5.745  0.9007  1.2645 -0.8617
    4SAPS   C27  447   4.425   1.518   5.692  0.5380 -0.1268  0.1913
    4SAPS   H7R  448   4.328   1.520   5.747  0.4884  0.6625  0.0774
    4SAPS   H7S  449   4.479   1.423   5.712  1.8832  0.5538 -0.0793
    4SAPS   C28  450   4.391   1.506   5.545 -0.1749 -0.3325  0.2381
    4SAPS   H8R  451   4.429   1.581   5.474 -0.3045 -0.7231 -0.2523
    4SAPS   C29  452   4.302   1.417   5.490  0.1342 -0.7494  0.5232
    4SAPS   H9R  453   4.282   1.431   5.383  2.6771  1.7193  0.2320
    4SAPS  C210  454   4.233   1.310   5.568  0.0408  0.6191 -0.0049
    4SAPS  H10R  455   4.166   1.255   5.498 -0.3775 -0.3496  1.1173
    4SAPS  H10S  456   4.164   1.340   5.650 -1.4393  0.7269 -1.2266
    4SAPS  C211  457   4.336   1.209   5.628 -0.2372  0.5278  0.4637
    4SAPS  H11R  458   4.380   1.238   5.724 -0.0770  1.0452  0.2388
    4SAPS  C212  459   4.366   1.087   5.578  0.0159  0.6587  0.2210
    4SAPS  H12R  460   4.450   1.042   5.632  0.6363  1.1934 -0.2764
    4SAPS  C213  461   4.316   1.021   5.454 -0.5147 -0.4435 -0.0564
    4SAPS  H13R  462   4.392   0.953   5.411 -1.0451 -1.5909  0.7518
    4SAPS  H13S  463   4.321   1.104   5.381  0.9053 -1.0552 -0.6872
    4SAPS  C214  464   4.173   0.971   5.468 -0.1774 -0.0834 -0.6277
    4SAPS  H14R  465   4.134   0.974   5.571 -1.8348 -0.8912 -1.1868
    4SAPS  C215  466   4.111   0.899   5.368 -0.5986  0.1615 -0.6742
    4SAPS  H15R  467   4.008   0.863   5.376 -0.6686  0.2258 -1.3001
    4SAPS  C216  468   4.178   0.853   5.243 -0.0594  0.5418 -0.4959
    4SAPS  H16R  469   4.178   0.742   5.231  2.2908  0.5428 -0.8956
    4SAPS  H16S  470   4.280   0.895   5.227 -0.5605  1.3759 -1.6791
    4SAPS  C217  471   4.104   0.909   5.120 -0.0656  0.8975 -0.4193
    4SAPS  H17R  472   4.115   1.020   5.113 -1.5904  1.1915  1.1288
    4SAPS  H17S  473   3.998   0.883   5.140  0.6255 -0.7601  1.3715
    4SAPS  C218  474   4.152   0.812   4.996 -0.0733  0.0212 -0.3947
    4SAPS  H18R  475   4.109   0.715   5.027 -0.1875  0.0971 -0.3183
    4SAPS  H18S  476   4.263   0.803   4.990  0.0830  1.0231  0.6852
    4SAPS  C219  477   4.105   0.867   4.857  0.2022  1.2321  0.3515
    4SAPS  H19R  478   4.140   0.800   4.775 -1.1615  1.2614 -0.2802
    4SAPS  H19S  479   4.158   0.959   4.826  2.8440  0.2799  1.6771
    4SAPS  C220  480   3.954   0.874   4.853 -0.0394  0.3575  0.1672
    4SAPS  H20R  481   3.936   0.936   4.762 -0.5277  0.7822  0.5450
    4SAPS  H20S  482   3.915   0.932   4.939  0.0414  0.9324 -0.1787
    4SAPS  H20T  483   3.911   0.772   4.846 -0.1403  0.3762  0.5013
    4SAPS   C33  484   4.239   2.376   5.823 -0.0609  0.1458 -0.3686
    4SAPS   H3X  485   4.334   2.393   5.878  1.1734 -0.4125 -2.2471
    4SAPS   H3Y  486   4.219   2.474   5.773  0.0387 -0.0288 -0.7539
    4SAPS   C34  487   4.273   2.276   5.715 -0.2377  0.9749  0.3204
    4SAPS   H4X  488   4.183   2.264   5.651  0.0510  2.5010 -0.4365
    4SAPS   H4Y  489   4.308   2.181   5.760  0.0216  2.0941  2.6595
    4SAPS   C35  490   4.389   2.323   5.625 -0.0006  0.6035 -0.5304
    4SAPS   H5X  491   4.486   2.308   5.677  0.8028  1.1340 -1.8426
    4SAPS   H5Y  492   4.386   2.433   5.611  0.5136  0.9970  2.0270
    4SAPS   C36  493   4.400   2.262   5.483 -0.3092  0.0916  0.1520
    4SAPS   H6X  494   4.390   2.153   5.498 -0.6946  0.0940 -0.0738
    4SAPS   H6Y  495   4.492   2.306   5.438  0.8956 -0.0844  2.3130
    4SAPS   C37  496   4.276   2.295   5.397  0.5285 -0.1259 -0.2643
    4SAPS   H7X  497   4.245   2.400   5.415  1.3594  0.1774 -0.5455
    4SAPS   H7Y  498   4.191   2.232   5.431 -1.1415  1.8114 -0.6466
    4SAPS   C38  499   4.285   2.258   5.252  0.2253 -0.0585  0.0412
    4SAPS   H8X  500   4.324   2.154   5.253 -0.5247 -0.3794  2.6495
    4SAPS   H8Y  501   4.362   2.319   5.200  1.1127 -0.5055  0.8189
    4SAPS   C39  502   4.152   2.266   5.177 -0.5540  0.8135 -0.1234
    4SAPS   H9X  503   4.092   2.350   5.216  0.0914  0.6548  1.2692
    4SAPS   H9Y  504   4.096   2.171   5.191 -0.4981  0.5499 -1.5456
    4SAPS  C310  505   4.162   2.265   5.026 -0.1472 -0.0741  0.0613
    4SAPS  H10X  506   4.229   2.183   4.991 -1.1231 -0.4329 -1.0088
    4SAPS  H10Y  507   4.209   2.361   4.994 -0.9234 -0.6526 -3.1256
    4SAPS  C311  508   4.025   2.261   4.949  0.2009  0.4991  0.2045
    4SAPS  H11X  509   3.990   2.363   4.973  0.4977  1.9034 -4.3188
    4SAPS  H11Y  510   3.966   2.180   4.995 -1.9916  1.9856  0.1605
    4SAPS  C312  511   4.034   2.265   4.787 -0.0340 -0.4393 -0.7815
    4SAPS  H12X  512   3.996   2.172   4.739  2.0347 -1.3365 -0.7938
    4SAPS  H12Y  513   4.136   2.284   4.747 -0.4710  1.0037 -1.2618
    4SAPS  C313  514   3.938   2.373   4.719 -0.6921  0.0309 -0.1859
    4SAPS  H13X  515   3.973   2.469   4.762  0.3351 -0.7521  0.7925
    4SAPS  H13Y  516   3.834   2.360   4.756 -0.0534  0.7393  2.0566
    4SAPS  C314  517   3.940   2.373   4.565  0.0528  0.1102 -0.4521
    4SAPS  H14X  518   3.836   2.352   4.531  0.9006 -0.0036 -3.2566
    4SAPS  H14Y  519   4.006   2.287   4.537 -0.5268 -1.2813  2.1067
    4SAPS  C315  520   3.993   2.503   4.514  0.2131  0.4118  0.0594
    4SAPS  H15X  521   4.089   2.515   4.568  0.1464  0.1547  0.2380
    4SAPS  H15Y  522   3.921   2.581   4.546  0.4095  1.1156 -1.1460
    4SAPS  C316  523   4.018   2.507   4.365 -0.6444 -0.3104  0.1596
    4SAPS  H16X  524   3.922   2.540   4.320  0.3233  0.8955 -1.1475
    4SAPS  H16Y  525   4.043   2.408   4.322  0.3502 -0.8492  1.8925
    4SAPS  C317  526   4.126   2.617   4.321 -1.2388  0.0242  0.2088
    4SAPS  H17X  527   4.222   2.578   4.360 -1.6387  1.2045  2.5460
    4SAPS  H17Y  528   4.100   2.716   4.363 -0.4350  0.3074  0.0491
    4SAPS  C318  529   4.131   2.642   4.171 -0.1170  0.2642  0.1750
    4SAPS  H18X  530   4.036   2.693   4.146  1.0470  2.8812  0.7708
    4SAPS  H18Y  531   4.124   2.552   4.106 -1.8413  1.2031 -1.0042
    4SAPS  H18Z  532   4.213   2.714   4.148 -1.6156  1.4573 -1.7023
    5SAPS     N  533   0.448   3.975   7.074 -0.1851  0.5245 -0.5734
    5SAPS   HN1  534   0.527   4.029   7.114 -0.1014 -0.9436  1.4049
    5SAPS   HN2  535   0.396   4.047   7.020 -1.3356  0.5287  0.4963
    5SAPS   HN3  536   0.400   3.958   7.165 -1.0489 -1.4704 -1.3268
    5SAPS   C12  537   0.493   3.856   6.992 -0.4245 -0.5704 -0.5961
    5SAPS  H12A  538   0.568   3.809   7.054  2.1129  3.3430 -0.2997
    5SAPS   C13  539   0.384   3.756   6.969 -0.2792 -0.1396  0.4048
    5SAPS  O13A  540   0.268   3.779   7.012  0.5442  0.6248  0.4982
    5SAPS  O13B  541   0.401   3.653   6.894 -0.3063 -0.1863 -0.3289
    5SAPS   C11  542   0.554   3.918   6.854  0.6462  0.4293 -0.6481
    5SAPS  H11A  543   0.471   3.976   6.806  0.0017 -0.0136 -0.0875
    5SAPS  H11B  544   0.573   3.825   6.796  0.8845  1.2545 -1.9346
    5SAPS     P  545   0.709   4.076   6.728 -0.0941 -0.0829  0.4411
    5SAPS   O13  546   0.617   4.190   6.693 -0.0719 -0.0431 -0.5492
    5SAPS   O14  547   0.856   4.106   6.713 -0.7027  0.0456  0.0250
    5SAPS   O12  548   0.667   4.006   6.857 -0.4624  0.0024  0.2378
    5SAPS   O11  549   0.666   3.969   6.615 -1.2596 -0.2006  0.4867
    5SAPS    C1  550   0.774   3.896   6.548  0.5441  0.4879 -0.4463
    5SAPS    HA  551   0.858   3.882   6.621 -1.0010  1.7550  1.6892
    5SAPS    HB  552   0.729   3.797   6.528 -2.1350  1.5546 -0.0982
    5SAPS    C2  553   0.821   3.972   6.416 -0.2899 -0.0473 -0.1606
    5SAPS    HS  554   0.865   4.063   6.462  0.2913 -0.1466 -0.5102
    5SAPS   O21  555   0.698   3.997   6.344 -0.3931 -0.1278  0.4505
    5SAPS   C21  556   0.696   4.106   6.273 -0.3976  0.1183 -0.7597
    5SAPS   O22  557   0.779   4.198   6.274  0.4833  0.1035 -0.8040
    5SAPS   C22  558   0.573   4.109   6.181 -0.4569 -0.0453 -1.0843
    5SAPS   H2R  559   0.567   4.020   6.114 -0.1254 -1.3639  0.5664
    5SAPS   H2S  560   0.475   4.110   6.233  0.2538 -0.5406  0.3004
    5SAPS    C3  561   0.933   3.893   6.339 -0.2635 -1.1343 -0.8699
    5SAPS    HX  562   0.923   3.783   6.346  3.8436 -1.5776  1.6859
    5SAPS    HY  563   1.032   3.913   6.387  0.0309 -1.0688 -1.5027
    5SAPS   O31  564   0.931   3.940   6.206  0.3534 -0.9913  0.6969
    5SAPS   C31  565   1.019   4.045   6.185  0.3154 -0.0759  0.6812
    5SAPS   O32  566   1.090   4.091   6.267  0.3245 -0.0229 -0.1040
    5SAPS   C32  567   1.001   4.107   6.045 -1.1355  0.0419 -0.0936
    5SAPS   H2X  568   1.103   4.142   6.019 -1.3853  0.2734 -0.7703
    5SAPS   H2Y  569   0.954   4.208   6.052  0.8302  1.0089 -0.3680
    5SAPS   C23  570   0.582   4.233   6.092  1.0808 -0.5741  0.5230
    5SAPS   H3R  571   0.665   4.231   6.018 -0.2856  0.8569 -1.1369
    5SAPS   H3S  572   0.610   4.320   6.155  1.7012 -0.5896  0.2789
    5SAPS   C24  573   0.450   4.252   6.016 -0.5242  0.0435 -0.0102
    5SAPS   H4R  574   0.411   4.151   5.994  1.1669 -0.7219  0.3308
    5SAPS   H4S  575   0.460   4.297   5.915 -1.8063  0.7211  0.1322
    5SAPS   C25  576   0.350   4.330   6.093 -0.6825 -0.1538  0.0846
    5SAPS   H5R  577   0.308   4.274   6.178 -1.6935 -0.3737 -0.5523
    5SAPS   C26  578   0.314   4.457   6.076 -0.0048 -0.7291  0.4726
    5SAPS   H6R  579   0.236   4.494   6.144 -0.2514  0.2687 -0.3461
    5SAPS   C27  580   0.372   4.544   5.975 -0.1541  0.1516 -0.1764
    5SAPS   H7R  581   0.333   4.509   5.877 -1.8600  0.7056  0.2584
    5SAPS   H7S  582   0.480   4.526   5.990 -0.2098 -1.1467 -1.1465
    5SAPS   C28  583   0.343   4.693   5.995 -0.5210  0.2974 -0.1189
    5SAPS   H8R  584   0.354   4.730   6.098  1.1234 -2.0322  0.6369
    5SAPS   C29  585   0.304   4.780   5.898  0.0515 -0.4461 -0.3607
    5SAPS   H9R  586   0.312   4.888   5.917  1.5449 -0.7859  1.1352
    5SAPS  C210  587   0.267   4.759   5.752  0.0412  0.1686  0.0934
    5SAPS  H10R  588   0.362   4.745   5.697  0.1588 -0.8895  0.5200
    5SAPS  H10S  589   0.233   4.859   5.719  0.1522  0.6196  1.2733
    5SAPS  C211  590   0.157   4.661   5.711 -0.6558  0.2793 -0.0197
    5SAPS  H11R  591   0.151   4.576   5.781  2.6960 -1.1517 -1.2508
    5SAPS  C212  592   0.081   4.671   5.602  0.0580 -0.4976  0.0090
    5SAPS  H12R  593   0.004   4.594   5.586  1.0999 -1.8068  1.0849
    5SAPS  C213  594   0.077   4.797   5.514  0.1065  0.1327 -0.5867
    5SAPS  H13R  595   0.079   4.892   5.572 -2.5974  1.2034 -2.0448
    5SAPS  H13S  596  -0.023   4.792   5.466  0.8796 -2.8640 -2.1237
    5SAPS  C214  597   0.179   4.806   5.399 -0.1862  1.0410 -0.8727
    5SAPS  H14R  598   0.272   4.753   5.426 -1.3535 -1.5792 -1.6319
    5SAPS  C215  599   0.165   4.859   5.283 -0.6097 -0.0672  0.1649
    5SAPS  H15R  600   0.246   4.855   5.209 -1.3418  0.9819 -0.7378
    5SAPS  C216  601   0.035   4.920   5.237 -0.0746  0.5128 -0.3756
    5SAPS  H16R  602   0.035   5.029   5.214 -0.6937  0.0374 -3.0264
    5SAPS  H16S  603  -0.046   4.905   5.311  0.0892  0.8649 -0.1211
    5SAPS  C217  604  -0.009   4.863   5.103 -0.0586 -0.2117  0.2730
    5SAPS  H17R  605  -0.098   4.900   5.049  1.0807 -1.4317 -2.6693
    5SAPS  H17S  606  -0.009   4.752   5.112 -0.6157 -0.1465  1.2225
    5SAPS  C218  607   0.100   4.910   4.993  0.6417  0.4977  0.7142
    5SAPS  H18R  608   0.191   4.850   5.013 -0.0968 -1.7467 -1.9874
    5SAPS  H18S  609   0.118   5.018   5.008 -1.8913  1.3525 -1.5641
    5SAPS  C219  610   0.059   4.893   4.842  0.7213  0.5170 -0.5410
    5SAPS  H19R  611  -0.032   4.952   4.820 -0.1174 -0.9560 -1.1831
    5SAPS  H19S  612   0.031   4.786   4.830 -0.1335  0.3628  2.1601
    5SAPS  C220  613   0.162   4.910   4.737 -0.0010  0.5090 -0.0850
    5SAPS  H20R  614   0.122   4.875   4.640  0.2013 -1.5131  0.5151
    5SAPS  H20S  615   0.253   4.853   4.765  1.6791  1.6264 -2.9239
    5SAPS  H20T  616   0.205   5.012   4.726 -0.7305  0.9577  1.0864
    5SAPS   C33  617   0.930   4.022   5.939  0.3864 -0.2563  0.3719
    5SAPS   H3X  618   0.847   3.969   5.989 -0.9452  0.9415 -0.4813
    5SAPS   H3Y  619   1.004   3.942   5.915  0.9513  1.1339 -3.2451
    5SAPS   C34  620   0.881   4.112   5.827 -0.2123  0.2356  0.3728
    5SAPS   H4X  621   0.957   4.188   5.796 -0.5413  0.3069 -0.2879
    5SAPS   H4Y  622   0.808   4.182   5.874  1.3958  1.4810  1.1122
    5SAPS   C35  623   0.811   4.036   5.718 -0.3075  0.7398  0.2331
    5SAPS   H5X  624   0.714   4.002   5.761 -0.6681  1.5942  0.1048
    5SAPS   H5Y  625   0.879   3.952   5.692 -2.1600 -0.5715 -0.5973
    5SAPS   C36  626   0.785   4.122   5.587 -0.4272  0.7014 -0.7340
    5SAPS   H6X  627   0.887   4.149   5.552 -0.2287  1.1345  0.1295
    5SAPS   H6Y  628   0.733   4.216   5.617  0.2624  0.8825 -0.0398
    5SAPS   C37  629   0.706   4.032   5.486  0.5597 -0.6336  0.4732
    5SAPS   H7X  630   0.601   4.021   5.520  0.0495  0.3259 -0.7609
    5SAPS   H7Y  631   0.757   3.933   5.482  1.8260  0.0383 -1.4230
    5SAPS   C38  632   0.711   4.087   5.344 -0.2680 -0.1022 -0.0359
    5SAPS   H8X  633   0.817   4.096   5.313  0.8819 -0.2198  3.4385
    5SAPS   H8Y  634   0.672   4.190   5.350 -1.8199 -0.5506 -1.5220
    5SAPS   C39  635   0.630   4.012   5.242 -0.2739  0.7964  0.2714
    5SAPS   H9X  636   0.522   4.000   5.267 -0.2516  0.4874  0.2216
    5SAPS   H9Y  637   0.674   3.910   5.235 -0.4502  0.7600 -0.3244
    5SAPS  C310  638   0.631   4.091   5.107 -0.4801  0.2811 -0.4486
    5SAPS  H10X  639   0.733   4.085   5.064 -0.0875 -1.1419  0.6200
    5SAPS  H10Y  640   0.599   4.189   5.149  1.8460  0.2240  1.6740
    5SAPS  C311  641   0.524   4.033   5.009 -0.3957  0.1184 -0.1353
    5SAPS  H11X  642   0.418   4.036   5.043 -0.3657 -0.1656 -0.0116
    5SAPS  H11Y  643   0.547   3.925   4.994 -0.1470 -0.0623  1.3811
    5SAPS  C312  644   0.518   4.106   4.875 -1.2420 -0.2201 -0.1283
    5SAPS  H12X  645   0.615   4.096   4.822 -1.1303  0.4874 -0.0649
    5SAPS  H12Y  646   0.504   4.214   4.893 -1.0426 -0.2526  0.2379
    5SAPS  C313  647   0.406   4.060   4.784 -0.2775 -0.0875 -0.1815
    5SAPS  H13X  648   0.315   4.070   4.847  1.7982 -1.1356  3.2046
    5SAPS  H13Y  649   0.407   3.951   4.767 -0.4508 -0.1001 -0.1102
    5SAPS  C314  650   0.401   4.123   4.646  0.0519 -0.0966 -0.3980
    5SAPS  H14X  651   0.494   4.111   4.586 -0.6154  0.4727 -1.5910
    5SAPS  H14Y  652   0.383   4.232   4.659 -1.5229 -0.6160  2.4237
    5SAPS  C315  653   0.279   4.080   4.555  0.4793  0.4569 -0.1332
    5SAPS  H15X  654   0.188   4.138   4.581  0.5372  0.6320 -0.3124
    5SAPS  H15Y  655   0.255   3.973   4.570  0.9288  0.2331 -0.9528
    5SAPS  C316  656   0.310   4.091   4.400 -0.2095 -0.1142 -0.0064
    5SAPS  H16X  657   0.411   4.048   4.385  1.0769  2.6844  0.1764
    5SAPS  H16Y  658   0.313   4.200   4.382  0.6563  0.0205  0.8573
    5SAPS  C317  659   0.205   4.031   4.302  0.4624 -0.5336 -0.8786
    5SAPS  H17X  660   0.106   4.081   4.292 -0.5769 -2.2263  0.4013
    5SAPS  H17Y  661   0.179   3.928   4.332 -0.5707 -0.2817 -0.8647
    5SAPS  C318  662   0.269   4.017   4.166  0.5150  0.5259 -0.0151
    5SAPS  H18X  663   0.366   3.966   4.183  1.6531  2.5759 -0.0302
    5SAPS  H18Y  664   0.299   4.106   4.107 -1.1122 -0.0166 -1.7535
    5SAPS  H18Z  665   0.210   3.948   4.102  0.8095  0.2126  0.0473
    6SAPS     N  666   3.143   4.958   6.368 -0.8878 -0.1150  0.0251
    6SAPS   HN1  667   3.044   4.939   6.345 -1.3454  1.9591  0.0971
    6SAPS   HN2  668   3.197   5.014   6.298 -0.5583  1.0760  1.1899
    6SAPS   HN3  669   3.178   4.860   6.369 -0.3832  0.0615  0.1239
    6SAPS   C12  670   3.164   5.011   6.499 -0.3256 -0.8850 -0.1858
    6SAPS  H12A  671   3.176   5.118   6.488  1.0290 -1.1317 -1.3704
    6SAPS   C13  672   3.049   4.982   6.598 -0.0823 -0.4691  0.4132
    6SAPS  O13A  673   2.948   4.917   6.564 -0.3946 -0.6378  0.2946
    6SAPS  O13B  674   3.058   5.024   6.716 -0.0224 -0.6524 -0.1801
    6SAPS   C11  675   3.298   4.959   6.562 -0.0654  0.1429  0.3707
    6SAPS  H11A  676   3.277   4.861   6.610  1.3209  0.5648  1.9495
    6SAPS  H11B  677   3.320   5.031   6.644  0.4055  1.5281 -0.9258
    6SAPS     P  678   3.541   5.012   6.501 -0.1211  0.2480  0.4315
    6SAPS   O13  679   3.524   5.156   6.527 -0.1888  0.4337  0.4152
    6SAPS   O14  680   3.605   4.926   6.606 -0.6736  0.1582 -0.1195
    6SAPS   O12  681   3.399   4.949   6.465  0.2756 -0.1510  0.4374
    6SAPS   O11  682   3.624   4.999   6.369 -0.0080 -0.1244  0.4547
    6SAPS    C1  683   3.582   4.917   6.260 -0.3409 -0.2260  0.3162
    6SAPS    HA  684   3.490   4.958   6.213 -0.5657 -0.5231  0.4955
    6SAPS    HB  685   3.656   4.927   6.178  0.0121  2.2287  0.8314
    6SAPS    C2  686   3.593   4.765   6.288 -0.4958  0.3349 -0.4327
    6SAPS    HS  687   3.518   4.741   6.366  0.1385 -1.5882 -0.3524
    6SAPS   O21  688   3.722   4.736   6.347  0.0181  0.0564 -0.9991
    6SAPS   C21  689   3.727   4.628   6.422 -0.2321 -0.3445 -0.1786
    6SAPS   O22  690   3.639   4.545   6.439 -0.7971  0.4113  0.0990
    6SAPS   C22  691   3.864   4.623   6.494 -0.3071  0.1905 -0.0884
    6SAPS   H2R  692   3.854   4.654   6.601 -1.0034 -2.0829  0.5616
    6SAPS   H2S  693   3.885   4.514   6.501 -0.0204  0.0628 -2.2466
    6SAPS    C3  694   3.585   4.672   6.163  0.8898  0.7431 -0.1410
    6SAPS    HX  695   3.598   4.565   6.189 -1.9417  0.5202  0.6642
    6SAPS    HY  696   3.672   4.703   6.101 -0.0572  1.1164 -1.3216
    6SAPS   O31  697   3.462   4.696   6.094 -0.0800 -0.4216 -0.1210
    6SAPS   C31  698   3.372   4.600   6.101  0.0806 -0.1070 -0.0498
    6SAPS   O32  699   3.384   4.495   6.165  0.0213  0.1757  0.5903
    6SAPS   C32  700   3.240   4.660   6.050  0.2874 -0.0051  0.1667
    6SAPS   H2X  701   3.200   4.734   6.122 -0.9654 -0.2673 -0.2313
    6SAPS   H2Y  702   3.171   4.573   6.059  1.8061 -1.2778  0.0695
    6SAPS   C23  703   3.982   4.702   6.431  0.3171  0.3015 -0.4297
    6SAPS   H3R  704   4.064   4.700   6.506  0.1446 -1.0446 -0.2547
    6SAPS   H3S  705   3.950   4.808   6.434 -2.8658 -0.5740  2.0671
    6SAPS   C24  706   4.024   4.654   6.292 -0.3858  0.2508  0.5202
    6SAPS   H4R  707   4.101   4.721   6.249 -1.2261  1.0232  0.1818
    6SAPS   H4S  708   3.934   4.657   6.226 -0.0261 -1.7940 -0.1440
    6SAPS   C25  709   4.069   4.508   6.295  0.3910 -0.4419 -0.2997
    6SAPS   H5R  710   4.031   4.443   6.375  1.3170 -1.0914 -0.3682
    6SAPS   C26  711   4.150   4.446   6.209 -0.0014  0.0711 -0.6252
    6SAPS   H6R  712   4.173   4.339   6.220 -0.1545  0.2157  1.4726
    6SAPS   C27  713   4.213   4.511   6.091 -0.2769 -0.3726 -0.3204
    6SAPS   H7R  714   4.174   4.611   6.064 -0.1419 -0.6648 -1.6767
    6SAPS   H7S  715   4.194   4.446   6.003 -0.0530  1.6628 -1.9544
    6SAPS   C28  716   4.365   4.513   6.121 -0.1447 -1.5995 -0.4630
    6SAPS   H8R  717   4.390   4.428   6.186  0.0786 -1.0320  0.2065
    6SAPS   C29  718   4.459   4.604   6.081  0.2959  0.1520 -0.3688
    6SAPS   H9R  719   4.566   4.587   6.102 -0.0664 -1.3295  0.4003
    6SAPS  C210  720   4.432   4.716   5.990 -0.1165 -0.9994  0.9028
    6SAPS  H10R  721   4.517   4.786   5.979 -0.9570 -0.1245 -0.2438
    6SAPS  H10S  722   4.356   4.782   6.036 -1.0181 -1.8932  0.7250
    6SAPS  C211  723   4.398   4.684   5.844  0.1671  0.0986 -1.2855
    6SAPS  H11R  724   4.290   4.664   5.837  0.2411 -0.5372 -0.6942
    6SAPS  C212  725   4.478   4.698   5.735 -0.2824  0.6005 -0.1308
    6SAPS  H12R  726   4.440   4.661   5.639 -1.3219 -1.7878  1.1259
    6SAPS  C213  727   4.616   4.749   5.738 -0.5541 -0.6620 -0.0827
    6SAPS  H13R  728   4.680   4.687   5.671 -3.1071 -0.5343 -2.8641
    6SAPS  H13S  729   4.665   4.735   5.836 -0.2770 -0.3511 -0.1749
    6SAPS  C214  730   4.626   4.898   5.690 -0.9827 -0.0040  0.2867
    6SAPS  H14R  731   4.613   4.973   5.769  2.2349  0.5636  0.3816
    6SAPS  C215  732   4.669   4.933   5.571 -0.2651  0.5565 -0.1059
    6SAPS  H15R  733   4.691   5.038   5.547  2.4389 -0.2615 -1.6545
    6SAPS  C216  734   4.708   4.827   5.461  0.5710  0.1809 -0.4287
    6SAPS  H16R  735   4.644   4.737   5.455  2.4669 -1.3297  0.7986
    6SAPS  H16S  736   4.810   4.792   5.487  1.2988  1.9943 -0.6534
    6SAPS  C217  737   4.705   4.900   5.328 -0.0161 -0.0752 -0.2730
    6SAPS  H17R  738   4.769   4.990   5.330  0.3296 -0.3238  0.6498
    6SAPS  H17S  739   4.600   4.930   5.308  0.0950 -0.8819 -2.2229
    6SAPS  C218  740   4.727   4.813   5.208  0.0076  0.7468 -0.1287
    6SAPS  H18R  741   4.643   4.741   5.199 -0.4542  1.3408 -0.7785
    6SAPS  H18S  742   4.826   4.762   5.212  1.4263  3.1489 -1.7436
    6SAPS  C219  743   4.718   4.884   5.075 -0.4360 -0.2782 -0.0018
    6SAPS  H19R  744   4.783   4.974   5.077 -0.3362 -0.3623  0.7154
    6SAPS  H19S  745   4.622   4.934   5.049  0.7845  2.4910  0.4297
    6SAPS  C220  746   4.768   4.792   4.957  0.3699 -0.4755  0.2896
    6SAPS  H20R  747   4.834   4.716   5.004  0.6199 -0.5955 -0.2378
    6SAPS  H20S  748   4.815   4.854   4.877  1.8888  0.1430  1.6177
    6SAPS  H20T  749   4.685   4.740   4.904 -0.3583  1.9845 -1.1623
    6SAPS   C33  750   3.235   4.717   5.910  0.3134 -0.3814 -0.0625
    6SAPS   H3X  751   3.296   4.810   5.908  0.7032 -0.5687  1.5337
    6SAPS   H3Y  752   3.132   4.749   5.883  0.6180  2.2435  1.4673
    6SAPS   C34  753   3.277   4.630   5.789  0.5064  0.0168 -0.1022
    6SAPS   H4X  754   3.205   4.546   5.788 -1.3686  1.4917  1.8105
    6SAPS   H4Y  755   3.377   4.585   5.809  1.3093  1.5373 -0.5319
    6SAPS   C35  756   3.281   4.708   5.661  0.4161  1.0405  0.4835
    6SAPS   H5X  757   3.379   4.757   5.644  1.1875 -1.1271 -2.1043
    6SAPS   H5Y  758   3.192   4.774   5.666  0.3921  0.8991  3.9976
    6SAPS   C36  759   3.264   4.607   5.540  0.0866 -0.2743  0.4820
    6SAPS   H6X  760   3.165   4.559   5.555  0.2068 -1.3687 -1.8319
    6SAPS   H6Y  761   3.341   4.527   5.540 -0.8696 -1.2104  0.6910
    6SAPS   C37  762   3.261   4.687   5.404  0.4677 -0.1933 -0.5250
    6SAPS   H7X  763   3.191   4.773   5.412  2.4426  1.5583 -1.1770
    6SAPS   H7Y  764   3.219   4.630   5.319  2.1952 -0.2915 -1.3505
    6SAPS   C38  765   3.386   4.752   5.365  0.3279  0.2937 -0.3367
    6SAPS   H8X  766   3.466   4.676   5.354  1.2279  1.1343  0.2363
    6SAPS   H8Y  767   3.428   4.817   5.445 -0.7805 -0.8740  1.2526
    6SAPS   C39  768   3.380   4.847   5.239 -0.1492 -0.6597 -0.4501
    6SAPS   H9X  769   3.469   4.912   5.226 -1.5982  1.3148 -1.0766
    6SAPS   H9Y  770   3.310   4.931   5.261  3.3088  2.2628  0.3783
    6SAPS  C310  771   3.350   4.781   5.106 -0.2854  0.2619 -0.6591
    6SAPS  H10X  772   3.242   4.756   5.097 -0.7263  1.7016  0.1063
    6SAPS  H10Y  773   3.393   4.680   5.091 -4.7803 -1.5152 -3.6403
    6SAPS  C311  774   3.383   4.859   4.981 -0.3586 -0.2926  0.0458
    6SAPS  H11X  775   3.489   4.878   4.953 -0.0761 -0.1529  1.1786
    6SAPS  H11Y  776   3.324   4.950   5.001  0.4313 -0.2843  2.6381
    6SAPS  C312  777   3.311   4.793   4.865  0.4577 -0.4033  0.1442
    6SAPS  H12X  778   3.210   4.753   4.888 -0.7049  2.1823 -0.0352
    6SAPS  H12Y  779   3.363   4.704   4.824  0.1352 -0.5768  0.1048
    6SAPS  C313  780   3.302   4.902   4.749 -0.2467 -0.2181  0.1802
    6SAPS  H13X  781   3.395   4.906   4.688 -0.6921 -1.6230 -0.6524
    6SAPS  H13Y  782   3.294   5.007   4.783 -0.1292  0.2872 -1.2663
    6SAPS  C314  783   3.182   4.879   4.658  0.0379 -0.0600  0.3620
    6SAPS  H14X  784   3.091   4.879   4.722 -0.8798  0.1136 -0.9077
    6SAPS  H14Y  785   3.182   4.789   4.593 -0.2865 -1.3224  2.0519
    6SAPS  C315  786   3.144   4.996   4.566 -0.6443  0.3575  0.2947
    6SAPS  H15X  787   3.115   5.089   4.620 -0.5646  0.6171 -0.1085
    6SAPS  H15Y  788   3.060   4.966   4.500  0.1359 -2.4047  0.4086
    6SAPS  C316  789   3.248   5.041   4.458 -0.0733  0.4852 -0.2165
    6SAPS  H16X  790   3.269   4.943   4.409 -2.5591  0.0268 -0.4899
    6SAPS  H16Y  791   3.344   5.071   4.505  1.2099 -3.4604  0.0948
    6SAPS  C317  792   3.200   5.150   4.370  0.0687 -0.0453  0.3973
    6SAPS  H17X  793   3.172   5.240   4.429 -0.0676 -0.1025  0.4200
    6SAPS  H17Y  794   3.107   5.119   4.318 -1.1190  2.4787  0.8594
    6SAPS  C318  795   3.292   5.197   4.258 -0.5907 -0.1400  0.0248
    6SAPS  H18X  796   3.236   5.271   4.197  0.2334  0.8554  0.4265
    6SAPS  H18Y  797   3.309   5.112   4.189 -0.2646  0.8653 -1.1705
    6SAPS  H18Z  798   3.388   5.243   4.293  0.8717 -2.2810 -0.9498
    7SAPS     N  799   0.222   5.823   6.705  0.6105 -0.0929  0.1956
    7SAPS   HN1  800   0.218   5.755   6.783  2.1120  0.8400  1.1430
    7SAPS   HN2  801   0.274   5.909   6.734 -0.8331  1.2916 -1.1292
    7SAPS   HN3  802   0.124   5.853   6.687  0.8796  1.5076  1.1335
    7SAPS   C12  803   0.279   5.777   6.577  1.5605 -0.6630  0.4618
    7SAPS  H12A  804   0.362   5.844   6.560  3.3171 -2.3723  1.8291
    7SAPS   C13  805   0.354   5.645   6.584 -0.0311 -0.8228  0.4266
    7SAPS  O13A  806   0.369   5.588   6.699  0.7303 -0.2012 -0.5409
    7SAPS  O13B  807   0.412   5.600   6.484 -0.0903 -0.2104 -0.2809
    7SAPS   C11  808   0.175   5.791   6.462  0.4929  0.5081  0.5218
    7SAPS  H11A  809   0.097   5.713   6.470  1.6405 -1.1749 -2.7999
    7SAPS  H11B  810   0.226   5.768   6.366  0.7212  2.7108  0.0536
    7SAPS     P  811   0.147   6.040   6.358  0.1174 -0.2057 -0.0191
    7SAPS   O13  812   0.047   6.144   6.372  0.0941  0.2118 -0.2410
    7SAPS   O14  813   0.289   6.079   6.389  0.3187 -0.8349 -0.0448
    7SAPS   O12  814   0.114   5.920   6.450  0.7319 -0.1951  1.2006
    7SAPS   O11  815   0.142   5.974   6.218  0.4507  0.3413 -0.1191
    7SAPS    C1  816   0.160   6.056   6.102  0.0218 -0.5809  0.4327
    7SAPS    HA  817   0.074   6.124   6.087  0.5134  0.3370  1.5637
    7SAPS    HB  818   0.252   6.118   6.107  0.7359 -1.4752 -1.0066
    7SAPS    C2  819   0.175   5.985   5.968  0.0370 -0.4689 -0.1961
    7SAPS    HS  820   0.209   6.057   5.891 -0.1265  1.5487  1.5353
    7SAPS   O21  821   0.053   5.911   5.940  0.5749  0.5310  0.0404
    7SAPS   C21  822  -0.029   5.973   5.871  0.1763  0.1572  0.8818
    7SAPS   O22  823  -0.018   6.087   5.834  0.7609 -0.2281 -0.3144
    7SAPS   C22  824  -0.159   5.886   5.838 -0.3126 -0.3247  0.1839
    7SAPS   H2R  825  -0.125   5.781   5.849  1.3397  0.1949  0.2991
    7SAPS   H2S  826  -0.240   5.902   5.912 -0.5449  2.6175 -0.5896
    7SAPS    C3  827   0.291   5.884   5.974 -0.1066  0.3979 -0.9820
    7SAPS    HX  828   0.253   5.794   6.027  0.9553  1.0895  1.0722
    7SAPS    HY  829   0.374   5.933   6.031  2.1599 -3.7890 -0.1897
    7SAPS   O31  830   0.346   5.858   5.847 -0.2119 -0.4286 -0.4650
    7SAPS   C31  831   0.310   5.751   5.792 -0.0323  0.2955  0.0339
    7SAPS   O32  832   0.244   5.652   5.840 -0.2509 -1.2815  0.0454
    7SAPS   C32  833   0.356   5.755   5.649  0.7635 -0.6282  0.2328
    7SAPS   H2X  834   0.456   5.804   5.643 -0.3158  1.9634  1.4486
    7SAPS   H2Y  835   0.285   5.819   5.593  0.5628 -2.5210 -1.8233
    7SAPS   C23  836  -0.215   5.906   5.696  0.3335 -0.2086 -0.0689
    7SAPS   H3R  837  -0.265   6.004   5.686 -0.2915 -0.2442  2.2269
    7SAPS   H3S  838  -0.287   5.822   5.692  0.1037 -0.1211  1.7591
    7SAPS   C24  839  -0.109   5.899   5.584 -0.8945 -0.4305  1.1998
    7SAPS   H4R  840  -0.037   5.983   5.596 -1.9240  0.4302  1.5434
    7SAPS   H4S  841  -0.164   5.907   5.488 -0.4064 -0.5909  0.9089
    7SAPS   C25  842  -0.035   5.770   5.579  0.3491  0.4383 -0.2287
    7SAPS   H5R  843  -0.007   5.740   5.681  1.9139  2.4196 -0.0143
    7SAPS   C26  844  -0.022   5.690   5.468 -0.6854 -0.2651 -0.2615
    7SAPS   H6R  845   0.020   5.589   5.478 -2.3866 -1.2389 -2.0863
    7SAPS   C27  846  -0.050   5.714   5.317 -0.6894  0.6668 -0.5402
    7SAPS   H7R  847  -0.150   5.762   5.316 -0.8767  0.4901  2.0325
    7SAPS   H7S  848  -0.050   5.616   5.264 -1.3876  0.8185 -0.8244
    7SAPS   C28  849   0.046   5.808   5.240 -0.3068  0.5608 -0.1132
    7SAPS   H8R  850   0.089   5.889   5.302 -0.2255 -0.9329  1.8993
    7SAPS   C29  851   0.090   5.787   5.113 -0.5864 -0.0105  0.0014
    7SAPS   H9R  852   0.153   5.865   5.067 -1.1211  1.3158  1.4067
    7SAPS  C210  853   0.053   5.676   5.018 -0.8706  0.0581 -0.1848
    7SAPS  H10R  854  -0.027   5.713   4.950 -3.5245  0.4382  2.8862
    7SAPS  H10S  855  -0.006   5.598   5.071  0.7381  0.0092  1.6567
    7SAPS  C211  856   0.168   5.620   4.941  0.7812 -0.0368 -0.8636
    7SAPS  H11R  857   0.268   5.637   4.985  0.6439  0.7348 -0.8354
    7SAPS  C212  858   0.161   5.558   4.818 -0.1786 -0.3070 -0.4169
    7SAPS  H12R  859   0.256   5.511   4.786  0.7781  1.4116 -0.2409
    7SAPS  C213  860   0.026   5.532   4.754 -0.6521  0.6317  0.2243
    7SAPS  H13R  861  -0.025   5.627   4.729 -1.0303  0.5352  0.6056
    7SAPS  H13S  862  -0.040   5.473   4.822 -1.1247  0.3645 -0.4612
    7SAPS  C214  863   0.031   5.451   4.625 -0.4917 -0.1928  0.2854
    7SAPS  H14R  864   0.006   5.344   4.635  2.9424 -1.0719  0.6809
    7SAPS  C215  865   0.066   5.492   4.499  0.3632  0.6631 -0.1377
    7SAPS  H15R  866   0.088   5.417   4.423  3.3506  1.4527 -0.1862
    7SAPS  C216  867   0.089   5.636   4.449  0.1271 -0.4240 -1.0184
    7SAPS  H16R  868   0.197   5.656   4.468 -0.9298  3.1991  2.4042
    7SAPS  H16S  869   0.026   5.703   4.510  1.7522 -0.4679  0.8076
    7SAPS  C217  870   0.045   5.667   4.303 -0.8467  0.0538  0.2107
    7SAPS  H17R  871  -0.055   5.620   4.290 -1.6751  0.7713  3.2858
    7SAPS  H17S  872   0.108   5.611   4.231  0.2070  1.4735 -0.0128
    7SAPS  C218  873   0.038   5.814   4.262  0.5455 -0.1902  0.2856
    7SAPS  H18R  874   0.028   5.806   4.152 -1.4016 -0.9526  0.4755
    7SAPS  H18S  875   0.134   5.862   4.291  0.3734 -0.1359  0.7831
    7SAPS  C219  876  -0.074   5.899   4.323  0.0902  0.2769  0.4738
    7SAPS  H19R  877  -0.053   5.895   4.432  0.2984 -2.0320  0.3939
    7SAPS  H19S  878  -0.173   5.852   4.307  0.4379 -0.0559 -0.8933
    7SAPS  C220  879  -0.053   6.041   4.274 -0.6366 -0.1550 -0.0864
    7SAPS  H20R  880   0.056   6.063   4.272 -1.0218  2.0421  0.3046
    7SAPS  H20S  881  -0.105   6.114   4.340  1.3093 -0.3295  1.7599
    7SAPS  H20T  882  -0.102   6.064   4.177  2.9384 -0.2124 -2.0445
    7SAPS   C33  883   0.356   5.614   5.583  0.3597 -0.5041 -0.1798
    7SAPS   H3X  884   0.257   5.565   5.571  0.1420 -1.0255  2.9344
    7SAPS   H3Y  885   0.409   5.544   5.650  2.0229  1.5791  0.7980
    7SAPS   C34  886   0.429   5.620   5.449  0.3789 -0.1791  0.1704
    7SAPS   H4X  887   0.440   5.516   5.412 -0.6098 -0.2928  0.1897
    7SAPS   H4Y  888   0.531   5.658   5.474 -0.6615  2.9032  0.1293
    7SAPS   C35  889   0.357   5.704   5.341 -0.1690  0.1076  0.2140
    7SAPS   H5X  890   0.325   5.806   5.374 -1.2241 -0.3592  0.6641
    7SAPS   H5Y  891   0.273   5.640   5.307  0.3125  0.2886 -1.3769
    7SAPS   C36  892   0.450   5.743   5.229 -0.5767 -0.6704  0.3023
    7SAPS   H6X  893   0.523   5.816   5.270 -0.2783 -0.7627 -0.0601
    7SAPS   H6Y  894   0.384   5.793   5.155 -0.3822  1.1656  1.3220
    7SAPS   C37  895   0.529   5.625   5.166  0.1482  0.0346  0.1604
    7SAPS   H7X  896   0.461   5.544   5.130  2.0346 -1.9874  0.8875
    7SAPS   H7Y  897   0.591   5.573   5.242 -1.3868 -1.6344  0.3518
    7SAPS   C38  898   0.627   5.665   5.053  0.5769 -0.2792  0.2946
    7SAPS   H8X  899   0.700   5.743   5.083  0.5626  0.2470 -0.9972
    7SAPS   H8Y  900   0.572   5.715   4.971  1.8515  0.0323 -0.3839
    7SAPS   C39  901   0.699   5.537   5.004 -0.1594  0.2584 -0.3059
    7SAPS   H9X  902   0.625   5.457   4.985 -0.7096  0.6719  0.0560
    7SAPS   H9Y  903   0.758   5.502   5.091 -2.3823  2.7615  2.4237
    7SAPS  C310  904   0.771   5.559   4.873  1.0250 -0.3538 -0.5147
    7SAPS  H10X  905   0.850   5.481   4.865  1.7113 -0.0122  2.1926
    7SAPS  H10Y  906   0.822   5.657   4.865 -0.2712  0.2117 -2.5360
    7SAPS  C311  907   0.681   5.569   4.753  0.8261 -0.5230  0.3613
    7SAPS  H11X  908   0.614   5.658   4.756  1.5824  0.0275  1.2739
    7SAPS  H11Y  909   0.611   5.482   4.751  1.4245 -1.0494  1.2728
    7SAPS  C312  910   0.772   5.543   4.627  0.5407 -0.6535 -0.2081
    7SAPS  H12X  911   0.699   5.544   4.543 -1.7614  0.4773  1.6808
    7SAPS  H12Y  912   0.809   5.438   4.627  1.0775 -0.4995 -2.1030
    7SAPS  C313  913   0.876   5.650   4.612 -0.2861  0.5172 -0.0662
    7SAPS  H13X  914   0.949   5.659   4.696  0.9114 -0.9155 -0.9183
    7SAPS  H13Y  915   0.817   5.744   4.604 -0.6299  0.4120  1.0193
    7SAPS  C314  916   0.966   5.653   4.483 -0.0852 -0.1163 -0.0224
    7SAPS  H14X  917   0.893   5.636   4.401 -0.9151  1.1453  0.4298
    7SAPS  H14Y  918   1.025   5.559   4.479 -1.1948 -0.9089  1.5009
    7SAPS  C315  919   1.058   5.778   4.463  0.3730  0.1991  0.3775
    7SAPS  H15X  920   0.995   5.869   4.471 -0.7545 -0.5357  0.1120
    7SAPS  H15Y  921   1.087   5.772   4.356 -0.7356 -0.5066  0.0950
    7SAPS  C316  922   1.186   5.781   4.549  0.5960  0.5413 -0.0429
    7SAPS  H16X  923   1.268   5.846   4.511  0.3727  0.4588 -0.6720
    7SAPS  H16Y  924   1.227   5.680   4.572  0.4623  0.1840 -1.3043
    7SAPS  C317  925   1.163   5.854   4.682 -0.3987  0.5287 -0.8626
    7SAPS  H17X  926   1.076   5.815   4.739 -0.2840 -0.4549 -1.3472
    7SAPS  H17Y  927   1.121   5.953   4.654 -0.9954  0.3793 -0.5166
    7SAPS  C318  928   1.289   5.871   4.765  0.5261 -1.0080  0.1980
    7SAPS  H18X  929   1.364   5.940   4.720 -1.0730 -0.1683 -1.3278
    7SAPS  H18Y  930   1.334   5.772   4.786 -1.4412 -2.0506 -0.2589
    7SAPS  H18Z  931   1.267   5.908   4.867  2.9815 -1.0528  0.7929
    8SAPS     N  932   4.895   0.666   6.632  0.0067 -0.5341  0.1447
    8SAPS   HN1  933   4.885   0.760   6.674 -0.4601  0.8133 -2.7131
    8SAPS   HN2  934   4.992   0.630   6.619 -0.0682 -0.1828 -1.5899
    8SAPS   HN3  935   4.851   0.680   6.538 -1.4585 -0.0160  0.8796
    8SAPS   C12  936   4.822   0.564   6.716  0.7114 -0.6141 -0.1292
    8SAPS  H12A  937   4.835   0.464   6.676  0.4155 -0.8358  0.3186
    8SAPS   C13  938   4.863   0.558   6.866  0.0924 -0.1950  0.1994
    8SAPS  O13A  939   4.962   0.625   6.907 -0.3833 -0.0708 -0.4405
    8SAPS  O13B  940   4.802   0.479   6.945  0.2394 -0.6868  0.2900
    8SAPS   C11  941   4.670   0.596   6.697 -0.4914  0.1190 -0.2113
    8SAPS  H11A  942   4.654   0.700   6.734  0.5432 -0.7026  2.8391
    8SAPS  H11B  943   4.617   0.528   6.767 -3.1482 -0.4136 -2.5501
    8SAPS     P  944   4.472   0.592   6.528  0.3199 -0.2128 -0.0694
    8SAPS   O13  945   4.393   0.503   6.616 -0.5045 -0.2215 -0.8333
    8SAPS   O14  946   4.458   0.743   6.540  0.2079 -0.0762  0.1654
    8SAPS   O12  947   4.627   0.576   6.559 -0.3792  0.7643  0.5331
    8SAPS   O11  948   4.454   0.529   6.384  0.8805 -0.2899  0.4984
    8SAPS    C1  949   4.563   0.539   6.291  0.4352 -0.1706  0.3315
    8SAPS    HA  950   4.614   0.637   6.277  2.1330 -1.3487 -2.8071
    8SAPS    HB  951   4.632   0.463   6.333 -0.0660 -0.5924  0.3945
    8SAPS    C2  952   4.506   0.486   6.157  0.1605 -0.5109  0.6139
    8SAPS    HS  953   4.589   0.480   6.084 -0.5575  1.5434 -0.4377
    8SAPS   O21  954   4.400   0.575   6.102  0.1183  0.1457 -0.1409
    8SAPS   C21  955   4.452   0.684   6.053 -0.3262  0.1631 -0.1530
    8SAPS   O22  956   4.573   0.704   6.044  0.0531 -0.0599  0.0080
    8SAPS   C22  957   4.344   0.767   5.985  0.6958  0.2634 -0.3992
    8SAPS   H2R  958   4.245   0.718   5.982  1.4621 -1.3170 -1.4348
    8SAPS   H2S  959   4.350   0.869   6.029  1.0862 -0.0380  0.2601
    8SAPS    C3  960   4.435   0.346   6.172 -0.0619 -0.7093  0.0957
    8SAPS    HX  961   4.330   0.360   6.207 -0.7926 -1.7971 -1.5315
    8SAPS    HY  962   4.490   0.288   6.248  1.1662  0.6195  0.2683
    8SAPS   O31  963   4.425   0.290   6.040  0.0478 -0.5908  0.4801
    8SAPS   C31  964   4.522   0.211   6.008 -0.8608 -0.0025  0.1887
    8SAPS   O32  965   4.598   0.163   6.089 -0.4300 -0.2412  0.1432
    8SAPS   C32  966   4.540   0.182   5.857  0.3456  0.4130 -0.0172
    8SAPS   H2X  967   4.488   0.259   5.796 -1.6938 -1.7615 -1.1843
    8SAPS   H2Y  968   4.497   0.080   5.848  2.8191 -1.0562  2.7975
    8SAPS   C23  969   4.369   0.781   5.833 -0.4280  1.0410 -0.2993
    8SAPS   H3R  970   4.470   0.808   5.796  0.3646 -1.6450 -0.3193
    8SAPS   H3S  971   4.300   0.862   5.801  1.4491  2.3499 -1.2323
    8SAPS   C24  972   4.335   0.651   5.754 -0.6318  0.3153  0.0104
    8SAPS   H4R  973   4.241   0.606   5.793  0.3305 -3.4942 -1.6273
    8SAPS   H4S  974   4.406   0.567   5.769 -1.1343 -0.2312 -0.6255
    8SAPS   C25  975   4.319   0.680   5.604 -0.5293 -0.0210  0.6757
    8SAPS   H5R  976   4.292   0.783   5.576 -0.2279  0.3857  1.8270
    8SAPS   C26  977   4.361   0.595   5.503 -0.1914 -0.1634 -0.5324
    8SAPS   H6R  978   4.316   0.607   5.404  0.5917  0.5774 -0.8010
    8SAPS   C27  979   4.427   0.460   5.522  0.4230 -0.3171 -0.2077
    8SAPS   H7R  980   4.369   0.374   5.483 -1.5586 -0.0035  1.8089
    8SAPS   H7S  981   4.432   0.436   5.630  0.4013 -0.2456 -0.1907
    8SAPS   C28  982   4.573   0.477   5.481 -0.2827  1.1840 -0.0687
    8SAPS   H8R  983   4.647   0.499   5.559  0.9074 -1.5726 -0.2796
    8SAPS   C29  984   4.617   0.449   5.356 -0.3026 -0.2946 -0.4468
    8SAPS   H9R  985   4.722   0.470   5.334 -0.2762 -0.2391 -0.2706
    8SAPS  C210  986   4.533   0.402   5.245  0.4875 -0.0973  0.2419
    8SAPS  H10R  987   4.542   0.477   5.163  2.3737 -1.8180 -1.2565
    8SAPS  H10S  988   4.427   0.395   5.275 -0.3152 -1.6090 -2.5850
    8SAPS  C211  989   4.592   0.269   5.205 -0.2157 -0.3438 -0.0774
    8SAPS  H11R  990   4.570   0.194   5.282  1.7885  1.1099  2.0383
    8SAPS  C212  991   4.644   0.238   5.084  0.9069  0.3030 -0.8141
    8SAPS  H12R  992   4.698   0.143   5.096 -0.5296 -0.2086  2.6389
    8SAPS  C213  993   4.679   0.331   4.979  0.2268 -0.3650 -0.1283
    8SAPS  H13R  994   4.777   0.300   4.938 -0.2136 -0.0974 -1.4529
    8SAPS  H13S  995   4.681   0.437   5.012 -0.8835 -1.0233  2.2698
    8SAPS  C214  996   4.567   0.314   4.875  0.1156  0.0755  0.2126
    8SAPS  H14R  997   4.466   0.329   4.916  0.3894 -0.4798  1.1151
    8SAPS  C215  998   4.589   0.288   4.748  0.3769  0.1421 -0.1135
    8SAPS  H15R  999   4.505   0.281   4.677 -0.2874  0.8284  0.5738
    8SAPS  C216 1000   4.719   0.258   4.674  0.1049 -0.7650 -0.3488
    8SAPS  H16R 1001   4.767   0.160   4.692  0.0425 -1.1542 -2.1186
    8SAPS  H16S 1002   4.796   0.335   4.698  0.3327 -1.2818  0.6057
    8SAPS  C217 1003   4.723   0.267   4.523  0.2091  0.5945 -0.2745
    8SAPS  H17R 1004   4.686   0.366   4.486  2.0329  2.0079  1.4517
    8SAPS  H17S 1005   4.649   0.189   4.496 -0.6502  0.9555  0.9049
    8SAPS  C218 1006   4.861   0.247   4.468  0.0807  0.6091  0.6394
    8SAPS  H18R 1007   4.898   0.144   4.485  0.1464  0.3945 -0.7007
    8SAPS  H18S 1008   4.937   0.309   4.520  1.4383 -1.4446  1.1699
    8SAPS  C219 1009   4.875   0.284   4.316  0.3587  0.3543 -1.2059
    8SAPS  H19R 1010   4.778   0.257   4.268 -1.6524 -0.6784  2.9682
    8SAPS  H19S 1011   4.950   0.219   4.266  1.0695  0.0508  0.2345
    8SAPS  C220 1012   4.932   0.423   4.292  0.2739  0.0077 -0.0365
    8SAPS  H20R 1013   4.870   0.489   4.357 -0.4304 -0.1739 -0.5069
    8SAPS  H20S 1014   4.919   0.454   4.186 -0.6521  1.4110  0.4573
    8SAPS  H20T 1015   5.039   0.437   4.318  0.4145 -0.8910 -0.1074
    8SAPS   C33 1016   4.688   0.177   5.812 -0.1549  0.2522  0.2779
    8SAPS   H3X 1017   4.746   0.100   5.865  0.4008  0.0549 -0.5932
    8SAPS   H3Y 1018   4.728   0.276   5.842 -4.1877  2.1764  0.1013
    8SAPS   C34 1019   4.700   0.149   5.664  0.0032 -0.1313  0.4818
    8SAPS   H4X 1020   4.650   0.231   5.607  1.5078  1.0527  0.8098
    8SAPS   H4Y 1021   4.650   0.055   5.632 -0.2732 -0.2276  1.1848
    8SAPS   C35 1022   4.851   0.154   5.630  0.0475  0.6086  0.0964
    8SAPS   H5X 1023   4.900   0.066   5.678 -2.0634 -0.8590 -0.2791
    8SAPS   H5Y 1024   4.895   0.244   5.679 -1.9432  1.1386  0.9958
    8SAPS   C36 1025   4.877   0.148   5.477  0.3547  0.2697 -0.2919
    8SAPS   H6X 1026   4.819   0.234   5.437 -3.8878 -1.2823  1.9025
    8SAPS   H6Y 1027   4.836   0.055   5.435  3.8191 -0.8645 -1.5203
    8SAPS   C37 1028   5.027   0.144   5.445  0.6526  0.2840 -0.2708
    8SAPS   H7X 1029   5.066   0.079   5.526  1.5051  0.9288 -0.1601
    8SAPS   H7Y 1030   5.075   0.243   5.458 -2.0592  1.8508 -1.3541
    8SAPS   C38 1031   5.070   0.076   5.314  0.1805  0.0864 -0.0777
    8SAPS   H8X 1032   5.002  -0.006   5.284  1.7731 -0.4904 -2.2721
    8SAPS   H8Y 1033   5.175   0.041   5.322  0.3660  0.7116  0.3480
    8SAPS   C39 1034   5.069   0.165   5.188  0.0009  0.2368 -0.0745
    8SAPS   H9X 1035   5.142   0.247   5.201 -0.0905  0.1992  0.7313
    8SAPS   H9Y 1036   4.966   0.197   5.162  0.2205 -0.3331 -1.7757
    8SAPS  C310 1037   5.106   0.083   5.063  0.0432  0.2454 -0.3322
    8SAPS  H10X 1038   5.070  -0.022   5.064  1.1595 -0.1547  0.5163
    8SAPS  H10Y 1039   5.215   0.065   5.051  0.3208  0.3800  1.6622
    8SAPS  C311 1040   5.061   0.143   4.929 -0.1133 -0.1106 -0.3428
    8SAPS  H11X 1041   5.014   0.242   4.947  1.2088  1.2689 -3.6008
    8SAPS  H11Y 1042   4.989   0.081   4.872 -1.0164 -1.0147  1.6861
    8SAPS  C312 1043   5.178   0.169   4.838  0.4293  0.1478  0.1237
    8SAPS  H12X 1044   5.235   0.074   4.823 -0.9286 -0.8081  0.8091
    8SAPS  H12Y 1045   5.254   0.239   4.879  0.9005 -1.3058  1.8658
    8SAPS  C313 1046   5.144   0.222   4.697 -0.1727  0.3813 -0.2817
    8SAPS  H13X 1047   5.083   0.314   4.707  0.8438  1.0234  0.1933
    8SAPS  H13Y 1048   5.079   0.146   4.649  0.7512 -0.7573  0.2118
    8SAPS  C314 1049   5.270   0.260   4.628 -0.1170 -0.0527  0.2434
    8SAPS  H14X 1050   5.351   0.188   4.649 -1.2970 -1.3594  0.4544
    8SAPS  H14Y 1051   5.287   0.360   4.673 -3.1357 -0.4311  2.5898
    8SAPS  C315 1052   5.250   0.275   4.479  0.0775  0.2031 -0.2000
    8SAPS  H15X 1053   5.292   0.377   4.462  0.6737 -0.1851 -1.1781
    8SAPS  H15Y 1054   5.141   0.289   4.469 -0.0620 -0.3772  0.5084
    8SAPS  C316 1055   5.311   0.166   4.401  0.4354 -0.3337 -0.0417
    8SAPS  H16X 1056   5.309   0.071   4.458 -1.8643 -1.6405 -2.0734
    8SAPS  H16Y 1057   5.418   0.192   4.387  0.3586  0.0519  0.0622
    8SAPS  C317 1058   5.252   0.136   4.262  0.6241 -0.0843  0.2511
    8SAPS  H17X 1059   5.259   0.231   4.206 -1.9700  0.4695  0.7417
    8SAPS  H17Y 1060   5.144   0.115   4.277  1.0169 -1.6132  1.2863
    8SAPS  C318 1061   5.326   0.032   4.182 -0.1131 -0.8687  0.0025
    8SAPS  H18X 1062   5.353   0.062   4.078 -0.1029  1.7442  0.7083
    8SAPS  H18Y 1063   5.256  -0.054   4.172 -0.3226 -0.6608 -0.3454
    8SAPS  H18Z 1064   5.417  -0.004   4.235 -0.0077 -2.2040 -1.0318
    9SAPS     N 1065   3.534   5.582   6.624  0.1063  0.6078  0.8755
    9SAPS   HN1 1066   3.595   5.499   6.631  2.4059  2.2805  1.7843
    9SAPS   HN2 1067   3.459   5.556   6.691  0.8454  1.1756  1.9439
    9SAPS   HN3 1068   3.511   5.585   6.523  1.4350  0.1451  0.5404
    9SAPS   C12 1069   3.597   5.706   6.670 -0.2671 -1.3985 -1.0850
    9SAPS  H12A 1070   3.523   5.783   6.656  1.3404  0.3304 -0.4810
    9SAPS   C13 1071   3.629   5.717   6.822 -0.6792  0.6376  0.1360
    9SAPS  O13A 1072   3.620   5.612   6.895 -0.2270 -0.2266 -0.0068
    9SAPS  O13B 1073   3.657   5.830   6.865 -0.7354 -0.8666  0.0905
    9SAPS   C11 1074   3.721   5.739   6.593 -0.7466  0.0892  0.8307
    9SAPS  H11A 1075   3.760   5.839   6.620  2.9253 -1.2933  1.2192
    9SAPS  H11B 1076   3.681   5.744   6.490  4.4636 -1.2212 -1.5740
    9SAPS     P 1077   3.951   5.641   6.518  0.0123 -0.0293  0.2115
    9SAPS   O13 1078   4.006   5.774   6.529  0.3191 -0.2110 -0.5258
    9SAPS   O14 1079   4.042   5.525   6.554  0.0945 -0.3429 -0.0201
    9SAPS   O12 1080   3.824   5.633   6.603  0.5146  0.5035 -0.3900
    9SAPS   O11 1081   3.905   5.615   6.373 -0.0789 -0.5875 -0.4706
    9SAPS    C1 1082   3.806   5.510   6.350 -0.6483  0.2633  0.1969
    9SAPS    HA 1083   3.759   5.479   6.445 -1.8664 -1.5038 -0.9279
    9SAPS    HB 1084   3.724   5.557   6.292 -0.3422 -1.2371 -1.5590
    9SAPS    C2 1085   3.864   5.386   6.277 -0.4495  0.7015 -0.7400
    9SAPS    HS 1086   3.952   5.348   6.333 -0.3441  0.7102 -0.8991
    9SAPS   O21 1087   3.901   5.424   6.145 -0.8457 -0.2083  0.3891
    9SAPS   C21 1088   4.031   5.407   6.112  0.7628 -0.3148  0.0936
    9SAPS   O22 1089   4.109   5.344   6.184 -0.1949  0.3932 -0.2714
    9SAPS   C22 1090   4.063   5.467   5.977  0.5568  0.1580 -0.4420
    9SAPS   H2R 1091   3.979   5.535   5.953 -2.0397 -2.6382  0.0585
    9SAPS   H2S 1092   4.158   5.523   5.990 -0.5794  1.8526  0.9157
    9SAPS    C3 1093   3.762   5.270   6.263 -0.1405  0.2450  0.2095
    9SAPS    HX 1094   3.682   5.302   6.193  1.3625 -0.4457 -1.9088
    9SAPS    HY 1095   3.725   5.267   6.368 -0.6837  1.4868  0.0727
    9SAPS   O31 1096   3.814   5.151   6.205  0.6435 -0.0348  0.1438
    9SAPS   C31 1097   3.890   5.081   6.279 -0.8790 -0.0343 -0.2530
    9SAPS   O32 1098   3.924   5.104   6.395 -0.4769  0.2163  0.0914
    9SAPS   C32 1099   3.950   4.970   6.197 -0.6627 -0.1754 -0.1841
    9SAPS   H2X 1100   3.865   4.909   6.159 -0.3957  0.1820 -1.4049
    9SAPS   H2Y 1101   3.998   4.904   6.273  0.6054  0.8369 -0.0819
    9SAPS   C23 1102   4.088   5.372   5.855  0.1184  1.4778 -0.3304
    9SAPS   H3R 1103   4.159   5.292   5.886  1.9862  2.3071 -2.1954
    9SAPS   H3S 1104   4.138   5.437   5.780  0.4177 -0.9799 -2.3861
    9SAPS   C24 1105   3.957   5.321   5.799  0.1586 -0.2160  0.2342
    9SAPS   H4R 1106   3.879   5.295   5.872 -1.0168  0.8787 -0.5974
    9SAPS   H4S 1107   3.988   5.236   5.735  0.6849 -0.0118  0.2109
    9SAPS   C25 1108   3.878   5.415   5.703  0.5317 -0.2866  0.3579
    9SAPS   H5R 1109   3.788   5.457   5.750  0.4208 -0.9901  0.7973
    9SAPS   C26 1110   3.905   5.442   5.571  0.3784 -0.0624 -0.2930
    9SAPS   H6R 1111   3.838   5.509   5.515  1.9636  1.4822 -0.4492
    9SAPS   C27 1112   4.023   5.397   5.486  0.5413 -0.6935 -0.0467
    9SAPS   H7R 1113   4.072   5.303   5.520  1.3470 -1.7527 -3.7641
    9SAPS   H7S 1114   4.104   5.472   5.496  0.4618 -0.6175  0.0373
    9SAPS   C28 1115   3.968   5.369   5.353 -0.4657  0.1898  0.1182
    9SAPS   H8R 1116   3.865   5.331   5.355  0.1470 -1.5040  1.0322
    9SAPS   C29 1117   4.041   5.390   5.242 -0.2540  0.3256 -0.3114
    9SAPS   H9R 1118   3.999   5.367   5.143  2.1404  1.0053 -1.5728
    9SAPS  C210 1119   4.184   5.453   5.246  0.3290  0.2428 -0.1312
    9SAPS  H10R 1120   4.255   5.395   5.309  0.0245  0.2644  0.2329
    9SAPS  H10S 1121   4.175   5.553   5.292 -1.2597  1.4095 -2.7657
    9SAPS  C211 1122   4.250   5.471   5.106 -0.2226 -0.5446  0.3856
    9SAPS  H11R 1123   4.325   5.396   5.077  1.2955  0.6450  1.1105
    9SAPS  C212 1124   4.228   5.566   5.020  0.6283 -0.3123 -0.3946
    9SAPS  H12R 1125   4.278   5.573   4.922 -0.1599  1.5073 -0.7098
    9SAPS  C213 1126   4.145   5.693   5.043 -0.0061  0.6709  0.5225
    9SAPS  H13R 1127   4.192   5.781   4.994  2.3293 -1.6213 -1.6653
    9SAPS  H13S 1128   4.142   5.711   5.153  1.5944  1.0377  0.5287
    9SAPS  C214 1129   3.994   5.670   5.002 -0.0584 -0.2331 -0.7596
    9SAPS  H14R 1130   3.979   5.590   4.929 -1.3165 -0.6775 -0.0403
    9SAPS  C215 1131   3.886   5.726   5.059 -0.5857 -0.0454 -0.6798
    9SAPS  H15R 1132   3.784   5.702   5.027 -0.5883  0.1661 -0.8379
    9SAPS  C216 1133   3.894   5.838   5.154 -0.5300 -0.7954  0.1562
    9SAPS  H16R 1134   3.813   5.913   5.142  0.3325  0.0874 -0.3512
    9SAPS  H16S 1135   3.988   5.896   5.141  0.4149 -1.3305  3.6092
    9SAPS  C217 1136   3.895   5.779   5.304 -0.5658 -0.0891  0.7204
    9SAPS  H17R 1137   3.963   5.691   5.309 -0.5979 -0.2345 -0.9143
    9SAPS  H17S 1138   3.793   5.738   5.319 -0.6035 -0.5346 -0.6281
    9SAPS  C218 1139   3.950   5.875   5.412 -0.1673  0.5979  0.5814
    9SAPS  H18R 1140   3.916   5.975   5.378  2.7771  1.5963  0.2826
    9SAPS  H18S 1141   4.061   5.869   5.421  0.2117  2.1224 -2.2031
    9SAPS  C219 1142   3.884   5.852   5.548 -0.3878 -0.0400 -0.2592
    9SAPS  H19R 1143   3.921   5.759   5.596 -0.0384  0.2979  0.1342
    9SAPS  H19S 1144   3.778   5.823   5.531 -1.0757  0.7518  2.2453
    9SAPS  C220 1145   3.902   5.966   5.647  0.4770 -0.2917 -0.5585
    9SAPS  H20R 1146   3.899   5.920   5.747 -0.5997  1.1675  0.1231
    9SAPS  H20S 1147   3.833   6.053   5.644  0.1487 -0.5277  0.1359
    9SAPS  H20T 1148   4.000   6.018   5.632  0.0555  1.0806  1.1190
    9SAPS   C33 1149   4.045   5.014   6.084  0.7250 -0.8855  0.2334
    9SAPS   H3X 1150   4.141   5.032   6.136  1.0502 -1.4442 -0.1585
    9SAPS   H3Y 1151   4.012   5.115   6.048  0.8261 -0.0412  2.3866
    9SAPS   C34 1152   4.059   4.912   5.973 -0.2627 -0.4315 -0.5407
    9SAPS   H4X 1153   3.975   4.839   5.974  0.1009 -0.8621 -0.8749
    9SAPS   H4Y 1154   4.154   4.855   5.988  0.4393  0.7454 -0.3835
    9SAPS   C35 1155   4.059   4.975   5.833  0.6840 -0.0341 -1.2729
    9SAPS   H5X 1156   4.095   5.080   5.843  2.4338 -0.4605 -2.6429
    9SAPS   H5Y 1157   3.955   4.983   5.795 -0.5908 -2.2593  1.3577
    9SAPS   C36 1158   4.135   4.904   5.725 -0.6534 -0.0853  0.6901
    9SAPS   H6X 1159   4.101   4.799   5.711 -0.3667 -0.0666 -0.2456
    9SAPS   H6Y 1160   4.244   4.920   5.739 -0.3968 -1.7792  0.8082
    9SAPS   C37 1161   4.105   4.963   5.581 -0.1451 -0.2569 -0.5597
    9SAPS   H7X 1162   4.126   5.072   5.591 -1.0489 -0.0975 -0.3543
    9SAPS   H7Y 1163   3.995   4.954   5.574 -0.6414  3.1707  0.4913
    9SAPS   C38 1164   4.172   4.888   5.466 -0.5188 -0.1628  0.1145
    9SAPS   H8X 1165   4.131   4.786   5.450  0.6333 -0.7757  0.8892
    9SAPS   H8Y 1166   4.283   4.886   5.477 -0.4768  3.0614  1.1373
    9SAPS   C39 1167   4.159   4.964   5.340  0.2751 -0.4900  0.0522
    9SAPS   H9X 1168   4.216   5.058   5.355  0.5948 -0.8986  1.6074
    9SAPS   H9Y 1169   4.052   4.988   5.322  0.6629  0.3980 -1.1063
    9SAPS  C310 1170   4.210   4.881   5.226 -0.6927 -0.0197  0.1664
    9SAPS  H10X 1171   4.145   4.793   5.207 -0.3255 -0.3338  0.3240
    9SAPS  H10Y 1172   4.313   4.844   5.248 -0.1647 -0.4396 -2.5780
    9SAPS  C311 1173   4.224   4.956   5.088  0.7909  0.4150  0.3798
    9SAPS  H11X 1174   4.232   4.876   5.011 -0.0965 -0.6887  1.3955
    9SAPS  H11Y 1175   4.308   5.028   5.086 -0.8960  2.4548  0.1438
    9SAPS  C312 1176   4.093   5.040   5.050  0.3160 -0.8622  0.1424
    9SAPS  H12X 1177   4.095   5.140   5.100 -1.3251 -1.6255  1.8822
    9SAPS  H12Y 1178   4.001   4.982   5.073  0.1482 -0.1241  1.4428
    9SAPS  C313 1179   4.090   5.071   4.902  0.7118 -0.1580  0.8360
    9SAPS  H13X 1180   3.987   5.081   4.861  1.2761 -2.9478 -1.5669
    9SAPS  H13Y 1181   4.135   4.982   4.852 -1.6807  0.2908 -2.4044
    9SAPS  C314 1182   4.171   5.198   4.859  0.5005 -0.3865 -0.0339
    9SAPS  H14X 1183   4.261   5.202   4.924  1.1369  0.4943 -0.9426
    9SAPS  H14Y 1184   4.106   5.286   4.876  1.9536  1.0828 -1.6727
    9SAPS  C315 1185   4.205   5.199   4.709 -0.4496 -0.2762 -0.7592
    9SAPS  H15X 1186   4.120   5.165   4.645 -2.4396  1.6809  0.6882
    9SAPS  H15Y 1187   4.288   5.127   4.694 -1.7188 -1.5394 -2.1252
    9SAPS  C316 1188   4.227   5.340   4.657 -0.2549 -0.4750 -1.0410
    9SAPS  H16X 1189   4.280   5.398   4.735 -2.6644  0.1300  0.2223
    9SAPS  H16Y 1190   4.126   5.382   4.641 -0.3095 -1.0951 -2.5650
    9SAPS  C317 1191   4.300   5.342   4.526  0.2940 -0.0244 -0.0595
    9SAPS  H17X 1192   4.404   5.302   4.534  0.7532  1.4614  2.4711
    9SAPS  H17Y 1193   4.317   5.449   4.501 -0.3834  0.1946  0.3980
    9SAPS  C318 1194   4.214   5.270   4.418 -0.1679 -0.4646 -0.3319
    9SAPS  H18X 1195   4.114   5.319   4.413 -0.2615 -0.6106  0.1235
    9SAPS  H18Y 1196   4.189   5.164   4.441  0.2972 -0.4301  0.3676
    9SAPS  H18Z 1197   4.258   5.269   4.316  0.9603 -1.7690  0.1421
   10SAPS     N 1198   2.929   4.639   6.630 -0.1949  0.3925 -0.0599
   10SAPS   HN1 1199   2.876   4.658   6.717 -0.5795  0.4685 -0.3121
   10SAPS   HN2 1200   3.029   4.618   6.652 -0.5152 -1.5207 -0.2929
   10SAPS   HN3 1201   2.930   4.731   6.581  1.8415  0.3340 -0.2377
   10SAPS   C12 1202   2.879   4.526   6.542 -0.0072  0.3232  0.9118
   10SAPS  H12A 1203   2.966   4.490   6.489 -1.2267 -2.5509  0.6988
   10SAPS   C13 1204   2.830   4.393   6.613  0.3559 -0.3499 -0.7573
   10SAPS  O13A 1205   2.827   4.377   6.740 -0.6298 -0.2777  0.4345
   10SAPS  O13B 1206   2.801   4.291   6.541 -0.1426  0.3159 -0.5752
   10SAPS   C11 1207   2.762   4.576   6.447  0.1871 -0.0704  0.4026
   10SAPS  H11A 1208   2.679   4.587   6.520  3.0586  2.5987  3.6304
   10SAPS  H11B 1209   2.749   4.498   6.368 -0.9113  0.3947  0.1037
   10SAPS     P 1210   2.891   4.713   6.270 -0.3070 -0.1013  0.4788
   10SAPS   O13 1211   2.932   4.852   6.240  0.1496 -0.0645  0.1640
   10SAPS   O14 1212   3.001   4.623   6.293 -0.5098 -0.4350  0.3231
   10SAPS   O12 1213   2.794   4.705   6.395  0.3721  0.2361  0.4024
   10SAPS   O11 1214   2.795   4.664   6.160  0.9707  0.0825 -0.2922
   10SAPS    C1 1215   2.662   4.716   6.149 -0.3191 -0.2948  0.4701
   10SAPS    HA 1216   2.606   4.711   6.245  1.6411  3.2973  1.9915
   10SAPS    HB 1217   2.665   4.820   6.112  3.6527 -0.7144 -0.7918
   10SAPS    C2 1218   2.576   4.637   6.043 -0.1263 -0.1467 -0.1249
   10SAPS    HS 1219   2.592   4.529   6.065 -2.3820 -0.6069 -0.5092
   10SAPS   O21 1220   2.611   4.670   5.908  0.4059  0.3245 -0.5071
   10SAPS   C21 1221   2.714   4.597   5.859 -0.0270  0.2681 -0.3124
   10SAPS   O22 1222   2.766   4.498   5.911 -0.0999  0.4214  0.3164
   10SAPS   C22 1223   2.760   4.660   5.724 -0.0720 -0.0722  0.1787
   10SAPS   H2R 1224   2.666   4.657   5.663  0.1935  0.3975 -0.2617
   10SAPS   H2S 1225   2.799   4.761   5.749  1.0466 -0.0457 -1.5265
   10SAPS    C3 1226   2.426   4.668   6.071 -0.0172 -0.0943  0.4943
   10SAPS    HX 1227   2.405   4.638   6.176  0.1725  1.5439  1.0421
   10SAPS    HY 1228   2.364   4.613   5.998  0.2488  0.6120 -0.2811
   10SAPS   O31 1229   2.404   4.808   6.069  0.3119  0.0410 -0.0956
   10SAPS   C31 1230   2.355   4.858   5.956 -0.5154 -0.3177  0.1156
   10SAPS   O32 1231   2.308   4.796   5.863 -0.6390 -0.1838  0.1979
   10SAPS   C32 1232   2.333   5.005   5.982  0.3959  0.3463  0.5267
   10SAPS   H2X 1233   2.314   5.013   6.092 -1.0143 -1.3032  0.4412
   10SAPS   H2Y 1234   2.245   5.045   5.929 -0.0629 -0.0119  1.0088
   10SAPS   C23 1235   2.871   4.572   5.659 -0.0449 -0.5029  0.2808
   10SAPS   H3R 1236   2.953   4.541   5.729  2.2835  1.4544 -1.4358
   10SAPS   H3S 1237   2.927   4.632   5.585 -0.9603  0.3984  0.3056
   10SAPS   C24 1238   2.814   4.440   5.594 -0.3993 -0.2824 -0.2880
   10SAPS   H4R 1239   2.732   4.462   5.523 -0.5708  3.1275  0.7783
   10SAPS   H4S 1240   2.764   4.375   5.668 -1.5943  3.3898  2.4225
   10SAPS   C25 1241   2.934   4.353   5.542  0.3294 -0.7943 -0.0295
   10SAPS   H5R 1242   2.987   4.303   5.625  3.2082 -0.8185 -1.7887
   10SAPS   C26 1243   2.976   4.336   5.418 -0.1586  0.1711  0.0569
   10SAPS   H6R 1244   3.064   4.271   5.414 -1.7273 -2.0300 -0.6551
   10SAPS   C27 1245   2.926   4.404   5.296 -0.0956  0.4468 -0.3116
   10SAPS   H7R 1246   2.953   4.512   5.298 -1.2974  0.7746 -0.8433
   10SAPS   H7S 1247   2.816   4.388   5.283 -0.7051  3.9999 -0.4684
   10SAPS   C28 1248   2.979   4.336   5.172 -0.4852  0.4385 -0.1542
   10SAPS   H8R 1249   2.979   4.226   5.171 -0.2111  0.4356 -1.4277
   10SAPS   C29 1250   3.044   4.385   5.071 -0.3204  0.0116  0.4317
   10SAPS   H9R 1251   3.075   4.323   4.985  2.0241  0.1191  1.1239
   10SAPS  C210 1252   3.086   4.529   5.041  0.1129  0.1329  0.2657
   10SAPS  H10R 1253   3.193   4.532   5.010 -0.2318 -0.5304 -1.0882
   10SAPS  H10S 1254   3.081   4.577   5.141 -1.3836 -0.6633  0.5971
   10SAPS  C211 1255   2.995   4.600   4.943 -0.3067  0.0384 -0.2842
   10SAPS  H11R 1256   2.984   4.528   4.860  3.5961 -1.1147  0.0037
   10SAPS  C212 1257   2.932   4.718   4.951  0.2037 -0.1547  0.0255
   10SAPS  H12R 1258   2.857   4.747   4.876  0.7001 -0.6372 -0.6740
   10SAPS  C213 1259   2.953   4.832   5.047 -0.7291  0.9228  0.1845
   10SAPS  H13R 1260   3.035   4.899   5.013 -0.5927  0.9325  0.5303
   10SAPS  H13S 1261   2.978   4.790   5.147 -0.0107  2.5690  0.7190
   10SAPS  C214 1262   2.826   4.917   5.062 -0.4490  0.1994 -0.1126
   10SAPS  H14R 1263   2.826   5.014   5.010 -1.8836 -0.4671 -1.4341
   10SAPS  C215 1264   2.722   4.886   5.142 -0.0524  0.4765 -0.6990
   10SAPS  H15R 1265   2.630   4.945   5.129 -0.7961 -0.6079 -0.4098
   10SAPS  C216 1266   2.715   4.758   5.226 -0.3319  0.2543  0.6257
   10SAPS  H16R 1267   2.806   4.696   5.237 -1.3144 -1.2493  0.5642
   10SAPS  H16S 1268   2.640   4.696   5.173 -1.2553  0.6846  1.3929
   10SAPS  C217 1269   2.676   4.792   5.372 -0.4921 -0.4612 -0.2444
   10SAPS  H17R 1270   2.740   4.869   5.420 -2.4956  1.5782 -0.6063
   10SAPS  H17S 1271   2.694   4.700   5.430  4.5795  0.3107 -0.2053
   10SAPS  C218 1272   2.534   4.853   5.384 -0.2133  0.0332 -0.2406
   10SAPS  H18R 1273   2.460   4.777   5.350 -0.3516  0.0405  0.0455
   10SAPS  H18S 1274   2.512   4.941   5.319 -3.6369  0.4593  1.2876
   10SAPS  C219 1275   2.499   4.898   5.524 -0.4683 -0.1698 -0.0930
   10SAPS  H19R 1276   2.593   4.942   5.565  0.3007 -1.6865 -0.1614
   10SAPS  H19S 1277   2.479   4.812   5.591  1.4623  1.2864  2.5649
   10SAPS  C220 1278   2.385   5.003   5.531  0.7454 -0.4232  0.3256
   10SAPS  H20R 1279   2.369   5.015   5.641  2.8304 -1.9945  0.8607
   10SAPS  H20S 1280   2.292   4.970   5.480  1.4628 -3.6657  0.8860
   10SAPS  H20T 1281   2.424   5.096   5.483  2.5510 -1.5000 -0.3924
   10SAPS   C33 1282   2.460   5.093   5.957  0.7940  0.2758  0.4145
   10SAPS   H3X 1283   2.468   5.109   5.847 -0.8269  1.7004  0.4743
   10SAPS   H3Y 1284   2.551   5.038   5.990  0.6390 -0.1936  0.0666
   10SAPS   C34 1285   2.449   5.230   6.035  0.1552 -0.5063  0.0911
   10SAPS   H4X 1286   2.541   5.279   5.998 -1.1469  1.2839 -0.8910
   10SAPS   H4Y 1287   2.455   5.213   6.145  1.5163  0.5021  0.1989
   10SAPS   C35 1288   2.324   5.311   5.995 -0.3653  0.1880 -0.8369
   10SAPS   H5X 1289   2.318   5.406   6.051 -2.1637  0.6576 -1.7833
   10SAPS   H5Y 1290   2.234   5.254   6.025  0.3272 -1.3440 -1.5292
   10SAPS   C36 1291   2.315   5.340   5.843  0.0444 -0.9789 -0.1625
   10SAPS   H6X 1292   2.212   5.375   5.821 -0.9869 -3.0763  1.0499
   10SAPS   H6Y 1293   2.322   5.246   5.784  0.9589  0.0082 -1.6775
   10SAPS   C37 1294   2.428   5.419   5.775  0.0134 -0.1602  0.2313
   10SAPS   H7X 1295   2.524   5.369   5.802 -0.9746 -3.4353 -1.7990
   10SAPS   H7Y 1296   2.441   5.523   5.812  0.1293 -0.7551  1.9343
   10SAPS   C38 1297   2.408   5.426   5.618  1.1968 -0.9553 -0.1300
   10SAPS   H8X 1298   2.318   5.485   5.593  1.7512  0.4905  1.0898
   10SAPS   H8Y 1299   2.388   5.323   5.581  1.4375 -1.0123 -0.1043
   10SAPS   C39 1300   2.522   5.482   5.547 -0.9817 -0.6630  0.0328
   10SAPS   H9X 1301   2.621   5.458   5.589 -0.0200 -0.7412 -2.1299
   10SAPS   H9Y 1302   2.521   5.593   5.551  1.1970 -0.6271  0.7280
   10SAPS  C310 1303   2.523   5.431   5.400 -0.3089 -0.4013  0.0717
   10SAPS  H10X 1304   2.418   5.441   5.363 -1.4251 -3.2620  2.0553
   10SAPS  H10Y 1305   2.541   5.322   5.387 -2.1401 -0.4662 -2.6455
   10SAPS  C311 1306   2.596   5.506   5.298 -0.3923 -1.0631 -0.4543
   10SAPS  H11X 1307   2.699   5.502   5.338 -0.3034  3.0341  0.1590
   10SAPS  H11Y 1308   2.577   5.615   5.304  0.0738 -1.0200  0.3270
   10SAPS  C312 1309   2.584   5.457   5.156  0.0580  0.4972 -0.3745
   10SAPS  H12X 1310   2.483   5.474   5.113 -0.9850 -1.7932  0.9799
   10SAPS  H12Y 1311   2.597   5.347   5.147 -1.3774  0.2824  0.0522
   10SAPS  C313 1312   2.686   5.517   5.058 -0.1567 -0.2014 -0.6743
   10SAPS  H13X 1313   2.641   5.543   4.960  1.1559  0.0624 -1.2268
   10SAPS  H13Y 1314   2.768   5.444   5.040 -1.7933 -2.2453 -0.2473
   10SAPS  C314 1315   2.758   5.645   5.108 -0.4968  0.4241  0.1373
   10SAPS  H14X 1316   2.812   5.628   5.203 -2.3388 -1.4333  0.9389
   10SAPS  H14Y 1317   2.677   5.720   5.119 -0.2916  0.4859  1.3420
   10SAPS  C315 1318   2.870   5.697   5.010  0.2660  0.2574 -1.3028
   10SAPS  H15X 1319   2.949   5.619   5.017  1.0818  1.1016 -0.8880
   10SAPS  H15Y 1320   2.907   5.793   5.052  1.8303 -0.2636 -1.4104
   10SAPS  C316 1321   2.840   5.716   4.867  0.4370  0.4031  0.0681
   10SAPS  H16X 1322   2.733   5.746   4.858  0.3390 -0.5021 -3.8680
   10SAPS  H16Y 1323   2.846   5.618   4.816  1.0043  0.5693 -0.1974
   10SAPS  C317 1324   2.940   5.808   4.796  0.2058 -1.1829  1.2000
   10SAPS  H17X 1325   3.049   5.788   4.810  0.5405 -0.3391  0.0182
   10SAPS  H17Y 1326   2.934   5.908   4.846  0.9115 -0.5814  0.1325
   10SAPS  C318 1327   2.913   5.822   4.641 -0.1064  0.0347 -0.9856
   10SAPS  H18X 1328   2.885   5.725   4.596 -1.7597  0.2616 -0.5112
   10SAPS  H18Y 1329   3.003   5.866   4.592 -0.1267  1.2897  0.0281
   10SAPS  H18Z 1330   2.836   5.901   4.629  0.6906  0.8342 -1.0138
   11SAPS     N 1331   0.864   4.895   1.646  0.9058 -0.6533 -0.0821
   11SAPS   HN1 1332   0.877   4.962   1.725 -0.0590 -0.5378 -0.0159
   11SAPS   HN2 1333   0.920   4.916   1.560 -0.0117 -1.3952 -0.8793
   11SAPS   HN3 1334   0.762   4.898   1.627  0.9083  1.4788  0.0374
   11SAPS   C12 1335   0.912   4.764   1.681 -0.0913 -0.1468  0.0140
   11SAPS  H12A 1336   0.830   4.715   1.731  0.2465 -2.1486 -1.2744
   11SAPS   C13 1337   0.940   4.677   1.553  0.2990  0.0851  0.1617
   11SAPS  O13A 1338   0.980   4.743   1.451  0.2761  0.5734 -0.4020
   11SAPS  O13B 1339   0.986   4.563   1.570  0.1960 -0.0466  0.3669
   11SAPS   C11 1340   1.037   4.770   1.775 -0.5230 -0.5500 -0.7716
   11SAPS  H11A 1341   1.134   4.774   1.721 -0.0804  1.1858  0.0934
   11SAPS  H11B 1342   1.033   4.677   1.836 -0.0033  0.5376  0.9983
   11SAPS     P 1343   1.139   4.903   1.981 -0.0595  0.3999  0.3616
   11SAPS   O13 1344   1.266   4.826   1.951  0.1887 -0.3024  0.0517
   11SAPS   O14 1345   1.157   5.049   2.008  0.2656 -0.4735 -0.0322
   11SAPS   O12 1346   1.027   4.875   1.871  0.1818 -0.3598 -0.4612
   11SAPS   O11 1347   1.086   4.845   2.116 -0.3387  0.1650  0.2388
   11SAPS    C1 1348   1.029   4.715   2.107  0.4576  0.4101  0.7222
   11SAPS    HA 1349   0.932   4.717   2.052 -0.3993 -1.1289  2.1098
   11SAPS    HB 1350   1.077   4.651   2.031  0.8413  1.2118  0.2694
   11SAPS    C2 1351   0.996   4.646   2.241 -0.2154  0.0352  0.6105
   11SAPS    HS 1352   0.979   4.538   2.222 -0.2387  0.4984 -2.5799
   11SAPS   O21 1353   0.885   4.704   2.314 -0.3173  0.4774  0.1811
   11SAPS   C21 1354   0.767   4.662   2.265 -0.0431  0.4298 -0.3325
   11SAPS   O22 1355   0.749   4.591   2.168  0.0151 -0.2850  0.4842
   11SAPS   C22 1356   0.663   4.715   2.366 -0.3928  0.2160  0.2227
   11SAPS   H2R 1357   0.683   4.672   2.466  2.2625  2.0392  0.5707
   11SAPS   H2S 1358   0.669   4.826   2.363  3.2344  0.1266 -0.2969
   11SAPS    C3 1359   1.117   4.657   2.331 -1.0299  0.4202  0.1124
   11SAPS    HX 1360   1.121   4.761   2.368  0.3734 -0.0559  1.4036
   11SAPS    HY 1361   1.215   4.648   2.280  0.4765  1.0767  2.7152
   11SAPS   O31 1362   1.106   4.564   2.441  0.8519 -0.2491 -0.3993
   11SAPS   C31 1363   1.187   4.581   2.538 -0.1136 -0.1165 -0.6737
   11SAPS   O32 1364   1.271   4.671   2.539  0.8752 -0.6974 -0.0043
   11SAPS   C32 1365   1.155   4.489   2.661 -0.2468  0.0194  0.2576
   11SAPS   H2X 1366   1.068   4.424   2.635 -1.7802  1.1556  2.2150
   11SAPS   H2Y 1367   1.111   4.543   2.748  1.0020  1.2447  0.1570
   11SAPS   C23 1368   0.516   4.679   2.318 -0.4457  0.5360 -0.3775
   11SAPS   H3R 1369   0.515   4.569   2.305  1.9072  0.3915  0.1686
   11SAPS   H3S 1370   0.498   4.723   2.218 -1.0029  1.1526 -0.0129
   11SAPS   C24 1371   0.413   4.744   2.416  0.6376  0.4245  0.8979
   11SAPS   H4R 1372   0.312   4.749   2.371  0.0690  0.0438  2.0956
   11SAPS   H4S 1373   0.459   4.845   2.429  0.9942  0.5522 -0.9881
   11SAPS   C25 1374   0.406   4.661   2.541  0.0130 -0.4909 -1.0344
   11SAPS   H5R 1375   0.334   4.580   2.527 -0.4172 -0.0489 -1.4063
   11SAPS   C26 1376   0.461   4.675   2.666  0.5754 -0.6263  0.1385
   11SAPS   H6R 1377   0.445   4.599   2.744  0.9365 -1.2933 -0.4276
   11SAPS   C27 1378   0.543   4.789   2.716  0.2420 -0.3562 -0.5836
   11SAPS   H7R 1379   0.479   4.874   2.748  0.3361 -0.0220 -1.2639
   11SAPS   H7S 1380   0.611   4.824   2.635 -1.3112  1.5688 -1.1137
   11SAPS   C28 1381   0.631   4.742   2.826  0.2011  0.2477 -0.0740
   11SAPS   H8R 1382   0.730   4.709   2.790 -0.0228  1.6314 -2.1109
   11SAPS   C29 1383   0.618   4.765   2.956 -0.1072  0.3852  0.1469
   11SAPS   H9R 1384   0.711   4.744   3.012 -0.6844 -1.0853  0.5822
   11SAPS  C210 1385   0.497   4.822   3.023  0.1313  0.2581  0.6143
   11SAPS  H10R 1386   0.412   4.817   2.952  0.3893 -0.4192  0.3416
   11SAPS  H10S 1387   0.520   4.930   3.036  0.4827  0.2676 -0.0366
   11SAPS  C211 1388   0.470   4.757   3.158  0.0513 -0.0562 -0.4581
   11SAPS  H11R 1389   0.448   4.840   3.228 -0.3840 -1.3654  1.0311
   11SAPS  C212 1390   0.481   4.632   3.216  0.5724 -0.1727 -0.2369
   11SAPS  H12R 1391   0.453   4.624   3.322 -1.0605 -0.0581 -0.6244
   11SAPS  C213 1392   0.517   4.503   3.157 -0.5962  0.0625  0.0821
   11SAPS  H13R 1393   0.532   4.504   3.047 -0.6199 -0.4156  0.0707
   11SAPS  H13S 1394   0.440   4.426   3.178 -0.5966  0.0397 -0.0045
   11SAPS  C214 1395   0.648   4.454   3.203  0.5988 -0.4264 -0.1854
   11SAPS  H14R 1396   0.726   4.523   3.167 -1.1591  2.2771  0.8594
   11SAPS  C215 1397   0.680   4.342   3.269 -0.7141  0.0357  0.2237
   11SAPS  H15R 1398   0.789   4.338   3.275 -0.5997  1.4073 -0.4580
   11SAPS  C216 1399   0.606   4.227   3.333 -0.2214 -0.3267 -0.2552
   11SAPS  H16R 1400   0.499   4.248   3.357  0.4203  0.6298  1.9284
   11SAPS  H16S 1401   0.665   4.213   3.425  1.1526  1.0402 -0.8842
   11SAPS  C217 1402   0.609   4.092   3.267  0.3692  0.2248  0.4116
   11SAPS  H17R 1403   0.587   4.017   3.346  0.3089 -0.4227 -0.2081
   11SAPS  H17S 1404   0.711   4.073   3.227  0.7990 -2.5552  2.4802
   11SAPS  C218 1405   0.515   4.076   3.148  0.4814  0.2441 -0.3594
   11SAPS  H18R 1406   0.517   4.176   3.100  0.5818  1.4040  1.9026
   11SAPS  H18S 1407   0.415   4.067   3.197  1.2521 -1.5546  0.9965
   11SAPS  C219 1408   0.541   3.963   3.055 -1.1200  0.5854 -0.7119
   11SAPS  H19R 1409   0.572   3.867   3.102  0.3117  0.5118 -1.7332
   11SAPS  H19S 1410   0.632   3.984   2.995  0.0981 -0.7651  0.5954
   11SAPS  C220 1411   0.435   3.933   2.955  0.9662 -0.6171  0.4461
   11SAPS  H20R 1412   0.340   3.938   3.012  1.2564  1.2126  0.8294
   11SAPS  H20S 1413   0.448   3.840   2.894  1.8700 -0.1862 -0.0367
   11SAPS  H20T 1414   0.428   4.023   2.890  2.2487 -0.9885 -0.2553
   11SAPS   C33 1415   1.277   4.402   2.706 -0.0905 -0.1088  1.1404
   11SAPS   H3X 1416   1.305   4.342   2.617 -0.6600  0.1264  0.7963
   11SAPS   H3Y 1417   1.235   4.328   2.777 -0.7273 -1.1391 -0.2664
   11SAPS   C34 1418   1.400   4.475   2.762 -0.1968 -0.1241 -0.1082
   11SAPS   H4X 1419   1.368   4.528   2.854 -0.7682 -0.5900 -0.0323
   11SAPS   H4Y 1420   1.447   4.550   2.694  0.2917 -0.2234  0.1198
   11SAPS   C35 1421   1.521   4.385   2.787 -0.1691 -0.3253 -0.3871
   11SAPS   H5X 1422   1.547   4.316   2.704 -1.1803 -2.7393  1.1970
   11SAPS   H5Y 1423   1.499   4.321   2.875 -0.0693 -0.7237 -0.6510
   11SAPS   C36 1424   1.645   4.476   2.824  0.0903  0.4337 -0.0641
   11SAPS   H6X 1425   1.623   4.564   2.888 -2.3624 -0.8328  1.0130
   11SAPS   H6Y 1426   1.667   4.515   2.723 -1.1006 -0.3332 -0.6501
   11SAPS   C37 1427   1.769   4.409   2.879 -0.3541 -0.2868  0.2458
   11SAPS   H7X 1428   1.843   4.486   2.910  1.6344 -1.9443 -0.0971
   11SAPS   H7Y 1429   1.794   4.344   2.793  1.9112  0.5022  0.2446
   11SAPS   C38 1430   1.755   4.316   3.003 -0.0722 -0.7635  0.2415
   11SAPS   H8X 1431   1.850   4.273   3.043  0.5676  0.8873  0.5710
   11SAPS   H8Y 1432   1.688   4.229   2.985 -0.5278  0.0528 -2.4423
   11SAPS   C39 1433   1.691   4.378   3.130 -0.1489  1.2222  0.0876
   11SAPS   H9X 1434   1.589   4.415   3.108 -0.7038 -0.7032 -0.7612
   11SAPS   H9Y 1435   1.747   4.471   3.154 -1.0124  2.0588 -1.0009
   11SAPS  C310 1436   1.689   4.286   3.251  0.2608  1.2392  0.4789
   11SAPS  H10X 1437   1.798   4.264   3.264  0.0420  0.2462  0.7844
   11SAPS  H10Y 1438   1.632   4.193   3.230  0.4470  1.6458 -2.1004
   11SAPS  C311 1439   1.654   4.354   3.383 -0.5839 -0.1844 -0.2391
   11SAPS  H11X 1440   1.555   4.404   3.386  0.6798  2.4833  0.3630
   11SAPS  H11Y 1441   1.725   4.440   3.389 -1.3660  0.4045  1.3365
   11SAPS  C312 1442   1.680   4.260   3.493  0.7135 -0.2432 -0.0705
   11SAPS  H12X 1443   1.771   4.198   3.480  1.4190  0.4464  1.3787
   11SAPS  H12Y 1444   1.584   4.204   3.495  0.2474  0.5591  1.2252
   11SAPS  C313 1445   1.702   4.332   3.623  0.2468 -0.0046 -0.2270
   11SAPS  H13X 1446   1.608   4.380   3.659  0.5219 -0.6141  1.4260
   11SAPS  H13Y 1447   1.785   4.404   3.609  1.4330 -1.1726  0.5337
   11SAPS  C314 1448   1.726   4.233   3.746  0.1671  0.0079  1.0312
   11SAPS  H14X 1449   1.825   4.189   3.722 -1.0179 -1.5273 -1.5463
   11SAPS  H14Y 1450   1.654   4.148   3.752  0.4260 -0.3321 -0.3164
   11SAPS  C315 1451   1.737   4.304   3.872  0.3696  0.4673 -0.4401
   11SAPS  H15X 1452   1.639   4.353   3.890  0.5113  0.5782  0.0194
   11SAPS  H15Y 1453   1.812   4.386   3.872 -0.1579  0.9985 -2.2053
   11SAPS  C316 1454   1.775   4.218   3.992  0.1377 -0.0740  0.2066
   11SAPS  H16X 1455   1.882   4.199   3.971  0.3970  1.9605 -0.4797
   11SAPS  H16Y 1456   1.709   4.128   3.995 -1.3332  0.9336 -0.7478
   11SAPS  C317 1457   1.773   4.301   4.124  0.9259  0.1258  0.5986
   11SAPS  H17X 1458   1.670   4.342   4.126  1.5641  1.9487 -0.9702
   11SAPS  H17Y 1459   1.837   4.389   4.106 -0.2785  0.7573 -0.8322
   11SAPS  C318 1460   1.810   4.223   4.256  0.1975  0.1778 -0.0690
   11SAPS  H18X 1461   1.857   4.301   4.321 -0.6438  0.9397 -0.3600
   11SAPS  H18Y 1462   1.876   4.135   4.246 -1.8279 -1.4759  0.4568
   11SAPS  H18Z 1463   1.719   4.185   4.306  0.4724 -1.7251 -0.9325
   12SAPS     N 1464   3.314   4.372   1.644 -0.0545  0.3740 -0.1252
   12SAPS   HN1 1465   3.281   4.471   1.654  0.5274  0.6707 -1.0639
   12SAPS   HN2 1466   3.306   4.334   1.741 -2.0176 -0.2563 -0.4955
   12SAPS   HN3 1467   3.411   4.377   1.607 -0.5410  0.1498 -1.4737
   12SAPS   C12 1468   3.227   4.299   1.550 -0.9146 -0.0036  0.5261
   12SAPS  H12A 1469   3.151   4.370   1.524 -1.2416  0.0949  1.6784
   12SAPS   C13 1470   3.300   4.255   1.419  0.0587  0.5434  0.0453
   12SAPS  O13A 1471   3.425   4.282   1.416  0.3602 -0.5577 -0.3646
   12SAPS  O13B 1472   3.247   4.171   1.343 -0.4964 -0.0645 -0.5253
   12SAPS   C11 1473   3.160   4.187   1.627 -0.4107 -0.2317  0.2792
   12SAPS  H11A 1474   3.241   4.118   1.658  1.9593  2.5589  0.8062
   12SAPS  H11B 1475   3.097   4.123   1.562 -0.0474  0.3745 -0.6822
   12SAPS     P 1476   2.956   4.210   1.791 -0.4036  0.0898  0.3179
   12SAPS   O13 1477   2.867   4.323   1.767 -0.1490 -0.6631  0.2194
   12SAPS   O14 1478   2.915   4.080   1.731  0.0549  0.0912 -0.2811
   12SAPS   O12 1479   3.098   4.241   1.748 -0.1738  0.3177  0.4336
   12SAPS   O11 1480   2.970   4.171   1.946 -0.2840 -0.4850  0.2941
   12SAPS    C1 1481   2.849   4.125   2.021  0.0107 -0.8789 -0.0089
   12SAPS    HA 1482   2.757   4.185   2.005 -0.5817 -0.4067  4.0293
   12SAPS    HB 1483   2.839   4.014   2.014  0.3157 -0.8664 -0.6777
   12SAPS    C2 1484   2.875   4.145   2.178  0.1905  0.1107  0.5073
   12SAPS    HS 1485   2.778   4.107   2.216  0.3340 -0.2402  0.5168
   12SAPS   O21 1486   2.897   4.282   2.200 -0.0248 -0.0723 -0.0799
   12SAPS   C21 1487   2.807   4.349   2.266  0.1887  0.3233 -0.2664
   12SAPS   O22 1488   2.700   4.305   2.308  0.4207 -0.1984  0.4364
   12SAPS   C22 1489   2.863   4.492   2.290  0.0545 -0.1218  0.3339
   12SAPS   H2R 1490   2.971   4.499   2.266 -0.1300  1.2827 -0.1673
   12SAPS   H2S 1491   2.829   4.549   2.201  3.0078 -1.4689 -1.8371
   12SAPS    C3 1492   3.000   4.057   2.227  0.2101  0.0011  0.0083
   12SAPS    HX 1493   3.089   4.102   2.180  0.4726 -0.2732  0.2389
   12SAPS    HY 1494   2.995   3.957   2.179  1.1162  0.5458 -1.2655
   12SAPS   O31 1495   3.007   4.062   2.372 -0.2738 -0.2864  0.6722
   12SAPS   C31 1496   2.917   3.988   2.430  0.0554 -0.5852 -0.5495
   12SAPS   O32 1497   2.827   3.919   2.381 -0.4770  0.6782  0.2000
   12SAPS   C32 1498   2.956   3.986   2.577  0.6338 -0.1840 -0.2899
   12SAPS   H2X 1499   2.948   4.091   2.610  0.3330 -0.0786 -0.6826
   12SAPS   H2Y 1500   3.063   3.960   2.585  0.2792 -1.3504  1.0669
   12SAPS   C23 1501   2.837   4.558   2.427 -0.0686 -0.5175  0.5182
   12SAPS   H3R 1502   2.732   4.593   2.436 -0.3561 -1.4492  0.8219
   12SAPS   H3S 1503   2.905   4.647   2.427  1.4091 -1.6025 -0.2643
   12SAPS   C24 1504   2.877   4.481   2.556  0.3565  0.0567  0.4338
   12SAPS   H4R 1505   2.811   4.392   2.559  0.9106 -0.3513  0.7132
   12SAPS   H4S 1506   2.831   4.543   2.636 -0.0049  1.6678 -0.9612
   12SAPS   C25 1507   3.026   4.447   2.567  0.0073 -0.3795 -0.2727
   12SAPS   H5R 1508   3.084   4.436   2.474 -0.2959 -0.7017 -0.4274
   12SAPS   C26 1509   3.087   4.421   2.682  0.0272  0.1936 -0.4515
   12SAPS   H6R 1510   3.192   4.389   2.675  1.0463  2.3437  2.6258
   12SAPS   C27 1511   3.031   4.423   2.823  0.1788  0.3844 -0.1162
   12SAPS   H7R 1512   3.042   4.318   2.857 -1.7977 -0.3908 -1.6834
   12SAPS   H7S 1513   2.922   4.436   2.810  0.0250  1.3237  1.8129
   12SAPS   C28 1514   3.094   4.528   2.911 -0.2425  0.8620 -0.5363
   12SAPS   H8R 1515   3.182   4.581   2.871  2.1760 -1.5866  1.1847
   12SAPS   C29 1516   3.054   4.567   3.033 -0.2120  0.5432  0.3587
   12SAPS   H9R 1517   3.124   4.634   3.085  1.1236 -0.9520  0.5784
   12SAPS  C210 1518   2.938   4.498   3.110  0.3088  0.0920 -0.1086
   12SAPS  H10R 1519   2.902   4.404   3.063  2.1479  1.3164 -4.4692
   12SAPS  H10S 1520   2.847   4.562   3.111  0.7401  0.7322  2.0303
   12SAPS  C211 1521   2.986   4.482   3.248  0.5606  0.2532 -0.3642
   12SAPS  H11R 1522   3.071   4.412   3.257  0.1131 -0.4376 -1.3335
   12SAPS  C212 1523   2.962   4.569   3.353  0.2753 -0.1625  0.5212
   12SAPS  H12R 1524   3.012   4.551   3.450 -0.6138 -0.1842  0.9837
   12SAPS  C213 1525   2.870   4.692   3.352  1.0061  0.5918 -0.3174
   12SAPS  H13R 1526   2.772   4.641   3.355 -0.0123  2.4720  0.2976
   12SAPS  H13S 1527   2.883   4.742   3.253 -2.4191  0.9718 -0.6972
   12SAPS  C214 1528   2.876   4.794   3.464 -0.0945  0.6813  0.6434
   12SAPS  H14R 1529   2.924   4.887   3.432  1.9969 -0.5431  0.0372
   12SAPS  C215 1530   2.831   4.790   3.590  0.0944 -0.9669 -0.3136
   12SAPS  H15R 1531   2.835   4.884   3.646 -0.0573 -0.5464 -0.9925
   12SAPS  C216 1532   2.757   4.670   3.657  0.2002 -0.4975  0.0670
   12SAPS  H16R 1533   2.774   4.578   3.598 -0.6190 -1.0344  0.6361
   12SAPS  H16S 1534   2.647   4.675   3.641  0.2954 -1.0031 -0.8118
   12SAPS  C217 1535   2.791   4.642   3.807  0.5421 -0.6344  0.5417
   12SAPS  H17R 1536   2.789   4.739   3.860  0.8175 -1.1468  1.5041
   12SAPS  H17S 1537   2.888   4.589   3.822 -0.5231 -2.7373  0.4319
   12SAPS  C218 1538   2.695   4.538   3.869 -0.5774  0.1452  0.3457
   12SAPS  H18R 1539   2.745   4.440   3.859 -0.1439  0.5588 -2.1251
   12SAPS  H18S 1540   2.601   4.531   3.810  0.1881 -1.1415 -0.7685
   12SAPS  C219 1541   2.665   4.564   4.019 -0.2536 -0.3744 -0.2450
   12SAPS  H19R 1542   2.630   4.666   4.042  0.1166 -0.7745  2.5656
   12SAPS  H19S 1543   2.767   4.566   4.063  0.7571 -1.7270 -2.3443
   12SAPS  C220 1544   2.595   4.446   4.084  0.0766  0.3247 -0.0468
   12SAPS  H20R 1545   2.499   4.427   4.032 -0.6546  0.2290  1.2743
   12SAPS  H20S 1546   2.583   4.463   4.194 -0.9083  0.0382 -0.0950
   12SAPS  H20T 1547   2.657   4.358   4.056  0.4068  0.4150  0.3850
   12SAPS   C33 1548   2.869   3.892   2.668  0.0533  0.0291  1.1317
   12SAPS   H3X 1549   2.851   3.791   2.626  1.2389  0.4569 -0.5164
   12SAPS   H3Y 1550   2.766   3.934   2.671 -0.4612 -1.2045  1.3160
   12SAPS   C34 1551   2.922   3.879   2.816 -0.3897 -0.0932  1.0344
   12SAPS   H4X 1552   3.032   3.886   2.807 -0.5109 -0.2245 -0.9774
   12SAPS   H4Y 1553   2.893   3.786   2.868 -1.8895 -0.2710 -0.0605
   12SAPS   C35 1554   2.872   3.996   2.903  0.3836  0.2792 -0.0647
   12SAPS   H5X 1555   2.764   4.009   2.883  0.4759 -0.0520 -0.7903
   12SAPS   H5Y 1556   2.934   4.087   2.886 -2.4214  2.5757  1.1428
   12SAPS   C36 1557   2.889   3.954   3.051 -0.6889  0.2988  0.2517
   12SAPS   H6X 1558   2.998   3.939   3.064 -0.3652  1.0875 -1.3184
   12SAPS   H6Y 1559   2.832   3.859   3.060  1.7485 -1.3041 -0.2902
   12SAPS   C37 1560   2.833   4.054   3.149  0.1823  0.0797  0.5425
   12SAPS   H7X 1561   2.726   4.057   3.121  0.2745 -0.0676  0.1696
   12SAPS   H7Y 1562   2.882   4.154   3.146 -0.7295  0.5751  1.4783
   12SAPS   C38 1563   2.847   4.006   3.295 -0.1377 -0.1491 -0.4226
   12SAPS   H8X 1564   2.948   3.966   3.316  0.0725  0.5793 -0.0147
   12SAPS   H8Y 1565   2.776   3.923   3.316  1.7357 -1.4712  1.0379
   12SAPS   C39 1566   2.824   4.122   3.391 -0.6723 -0.0475  0.0642
   12SAPS   H9X 1567   2.720   4.155   3.374 -1.6245 -1.9284  1.7774
   12SAPS   H9Y 1568   2.904   4.193   3.360 -1.7932  0.3292 -2.1611
   12SAPS  C310 1569   2.846   4.080   3.537  0.9246 -0.5291  0.4046
   12SAPS  H10X 1570   2.953   4.053   3.552  0.8619 -0.4431  1.0386
   12SAPS  H10Y 1571   2.790   3.988   3.564  0.6034  0.4642  3.4428
   12SAPS  C311 1572   2.795   4.188   3.628 -0.2746  0.2244 -0.1393
   12SAPS  H11X 1573   2.691   4.217   3.600  0.2798  1.3585 -1.1108
   12SAPS  H11Y 1574   2.848   4.285   3.617 -2.1156  1.0195 -3.1383
   12SAPS  C312 1575   2.801   4.159   3.780  0.1789 -0.2329  0.9164
   12SAPS  H12X 1576   2.776   4.053   3.799 -1.1530  0.1303  1.3284
   12SAPS  H12Y 1577   2.721   4.216   3.833 -1.4291 -0.0131 -1.5987
   12SAPS  C313 1578   2.941   4.174   3.838 -0.4877  0.0085  0.1557
   12SAPS  H13X 1579   2.970   4.279   3.862 -0.1907 -0.2240  0.8575
   12SAPS  H13Y 1580   3.011   4.113   3.778 -1.3022 -1.2249  0.4305
   12SAPS  C314 1581   2.933   4.114   3.981  0.1249  0.1346 -0.2504
   12SAPS  H14X 1582   2.885   4.015   3.980 -0.3746  0.3804 -0.7629
   12SAPS  H14Y 1583   2.858   4.173   4.039  0.1105 -0.3779  0.2623
   12SAPS  C315 1584   3.069   4.116   4.055  0.9191  0.3350 -0.6548
   12SAPS  H15X 1585   3.145   4.047   4.012  2.2895  1.9406 -0.8850
   12SAPS  H15Y 1586   3.058   4.087   4.161  1.6713  1.3355 -0.2927
   12SAPS  C316 1587   3.140   4.252   4.067 -0.0040 -0.3819 -0.0874
   12SAPS  H16X 1588   3.070   4.313   4.129 -0.7959 -2.1681  0.8402
   12SAPS  H16Y 1589   3.165   4.312   3.977  0.5890  1.8605  1.4754
   12SAPS  C317 1590   3.273   4.244   4.153  0.5791 -0.0778  0.6025
   12SAPS  H17X 1591   3.262   4.190   4.249 -0.6294  1.6966  1.5164
   12SAPS  H17Y 1592   3.302   4.345   4.188  0.9784 -0.5339  1.6179
   12SAPS  C318 1593   3.384   4.186   4.066  0.3420 -0.2142  0.2926
   12SAPS  H18X 1594   3.479   4.165   4.121  1.8592  2.0209 -1.2655
   12SAPS  H18Y 1595   3.420   4.262   3.993  2.7056  0.3371  1.9126
   12SAPS  H18Z 1596   3.352   4.091   4.017  0.8237 -0.8753  1.2234
   13SAPS     N 1597   3.301   6.317   1.866 -0.1565  0.5243 -0.0870
   13SAPS   HN1 1598   3.343   6.358   1.952 -1.9650  0.0431  1.0860
   13SAPS   HN2 1599   3.253   6.394   1.815 -2.0070  0.3005  1.2363
   13SAPS   HN3 1600   3.227   6.247   1.886 -0.2599  0.5850 -0.2513
   13SAPS   C12 1601   3.407   6.240   1.787  0.5327  0.4992  0.4881
   13SAPS  H12A 1602   3.361   6.199   1.698 -2.0520  0.2427  1.8420
   13SAPS   C13 1603   3.532   6.321   1.740 -0.1999 -0.1637 -0.4973
   13SAPS  O13A 1604   3.591   6.261   1.649  0.3373 -0.4142  0.0733
   13SAPS  O13B 1605   3.536   6.443   1.759 -0.4720  0.6531 -0.3021
   13SAPS   C11 1606   3.463   6.116   1.875  0.8367 -0.4186 -0.5447
   13SAPS  H11A 1607   3.511   6.164   1.963 -1.6693 -0.1881  0.7945
   13SAPS  H11B 1608   3.535   6.067   1.807 -0.1765 -0.8251 -1.3570
   13SAPS     P 1609   3.359   5.902   1.981  0.1610  0.5246 -0.5244
   13SAPS   O13 1610   3.284   5.917   2.109 -0.3972  0.1299 -0.2066
   13SAPS   O14 1611   3.305   5.801   1.889 -0.1037  0.5354  0.2359
   13SAPS   O12 1612   3.349   6.041   1.916 -0.0627 -0.8302  0.2877
   13SAPS   O11 1613   3.517   5.870   2.005 -0.2009  0.1261  0.1139
   13SAPS    C1 1614   3.588   5.901   2.124  0.4724 -0.9863 -0.2080
   13SAPS    HA 1615   3.698   5.908   2.111  0.3524  1.4547 -0.4173
   13SAPS    HB 1616   3.563   6.002   2.162  0.9397 -0.7792 -0.4504
   13SAPS    C2 1617   3.547   5.809   2.245 -0.2052 -0.2569 -0.6761
   13SAPS    HS 1618   3.445   5.834   2.281  0.4149 -0.0250  1.0516
   13SAPS   O21 1619   3.646   5.818   2.349  0.3919 -0.0010  0.7775
   13SAPS   C21 1620   3.630   5.920   2.424 -0.0221 -0.1959 -0.9662
   13SAPS   O22 1621   3.541   6.002   2.426 -1.0180  0.1782 -0.5246
   13SAPS   C22 1622   3.753   5.925   2.524  0.7978 -0.0519  0.2624
   13SAPS   H2R 1623   3.834   5.857   2.491  0.8145  0.4694 -0.7934
   13SAPS   H2S 1624   3.788   6.030   2.520  0.7635 -0.0807 -1.0350
   13SAPS    C3 1625   3.543   5.661   2.190 -0.6326 -0.7864  1.1793
   13SAPS    HX 1626   3.641   5.630   2.148 -0.4250  0.6378  0.5217
   13SAPS    HY 1627   3.479   5.660   2.099  2.3334 -2.2364 -1.0855
   13SAPS   O31 1628   3.504   5.573   2.294  0.0031 -0.0166 -0.2748
   13SAPS   C31 1629   3.607   5.496   2.351  0.7649 -0.1581 -0.5762
   13SAPS   O32 1630   3.721   5.492   2.315  0.0109  0.9699  0.0736
   13SAPS   C32 1631   3.554   5.432   2.477  0.0174  0.3919  0.3736
   13SAPS   H2X 1632   3.467   5.366   2.456  0.6276 -0.7671  1.3635
   13SAPS   H2Y 1633   3.527   5.520   2.538  0.3699  0.3936  0.5304
   13SAPS   C23 1634   3.707   5.893   2.665  0.2544 -0.5466  0.0030
   13SAPS   H3R 1635   3.606   5.933   2.688  0.5970 -0.4869  1.5322
   13SAPS   H3S 1636   3.785   5.930   2.735  0.1167 -1.7140  0.7954
   13SAPS   C24 1637   3.682   5.743   2.696 -0.3553 -0.5219  0.2692
   13SAPS   H4R 1638   3.622   5.703   2.612 -0.2155  0.2204 -0.1919
   13SAPS   H4S 1639   3.642   5.737   2.799 -1.0317 -0.0796  0.0353
   13SAPS   C25 1640   3.820   5.675   2.699 -0.9779 -0.1813  0.7852
   13SAPS   H5R 1641   3.864   5.649   2.601 -2.6518 -1.0857  0.2325
   13SAPS   C26 1642   3.871   5.614   2.807 -0.1938  0.0254 -0.1411
   13SAPS   H6R 1643   3.960   5.551   2.791 -0.5419 -0.8002  1.1133
   13SAPS   C27 1644   3.833   5.633   2.953 -0.7598  0.5918 -0.5917
   13SAPS   H7R 1645   3.745   5.576   2.988  0.4476 -1.3105 -0.4896
   13SAPS   H7S 1646   3.809   5.741   2.961  1.6802  1.3530 -2.2856
   13SAPS   C28 1647   3.952   5.590   3.035  0.4019 -0.2742 -0.9386
   13SAPS   H8R 1648   3.968   5.482   3.047 -1.0376 -0.3125  0.9317
   13SAPS   C29 1649   4.043   5.676   3.084  0.1056 -0.9072 -0.4618
   13SAPS   H9R 1650   4.123   5.644   3.151  0.6323  1.0702 -0.0699
   13SAPS  C210 1651   4.029   5.830   3.065 -0.1647  0.0543 -0.7844
   13SAPS  H10R 1652   3.931   5.865   3.102 -0.4628 -1.8067  0.2922
   13SAPS  H10S 1653   4.043   5.854   2.957  1.0400  1.1576 -0.4186
   13SAPS  C211 1654   4.132   5.915   3.136  0.2088  0.1106 -0.0274
   13SAPS  H11R 1655   4.220   5.949   3.078  0.2282 -0.3536 -0.2717
   13SAPS  C212 1656   4.149   5.933   3.267  0.0514 -0.4937  0.4155
   13SAPS  H12R 1657   4.225   6.004   3.303  1.7504 -1.0815 -1.7972
   13SAPS  C213 1658   4.066   5.860   3.378 -0.4196 -0.4717 -0.2932
   13SAPS  H13R 1659   4.015   5.766   3.348 -1.3095 -0.6997  1.8252
   13SAPS  H13S 1660   3.979   5.929   3.386  0.8835  1.3899 -1.2093
   13SAPS  C214 1661   4.145   5.840   3.504 -0.5128  0.1401 -0.1430
   13SAPS  H14R 1662   4.165   5.734   3.524  1.0322  0.4414  0.0745
   13SAPS  C215 1663   4.173   5.933   3.595 -0.5304 -0.9537 -0.3002
   13SAPS  H15R 1664   4.225   5.904   3.687 -2.1883  0.2266  1.0626
   13SAPS  C216 1665   4.140   6.077   3.600 -0.4425  0.2055  0.0457
   13SAPS  H16R 1666   4.088   6.109   3.507 -2.3505 -1.7499  0.3490
   13SAPS  H16S 1667   4.229   6.142   3.614 -0.4187 -0.0541  1.1539
   13SAPS  C217 1668   4.040   6.120   3.709  0.1269  0.7198  0.2706
   13SAPS  H17R 1669   4.065   6.072   3.806  0.3552  0.9455  0.3273
   13SAPS  H17S 1670   3.940   6.085   3.676 -0.8383  3.5552 -0.1370
   13SAPS  C218 1671   4.034   6.273   3.715 -0.3056 -0.4675 -0.5836
   13SAPS  H18R 1672   3.999   6.325   3.622 -0.1735 -3.5498 -2.4937
   13SAPS  H18S 1673   4.137   6.307   3.738 -0.3397 -2.4063  3.0021
   13SAPS  C219 1674   3.941   6.330   3.825 -0.2285 -0.0973 -0.4536
   13SAPS  H19R 1675   3.852   6.263   3.817  0.8308 -1.6710  0.2905
   13SAPS  H19S 1676   3.917   6.438   3.815 -2.4893 -0.4396  0.5044
   13SAPS  C220 1677   3.998   6.306   3.962  0.2218 -0.4483  0.8408
   13SAPS  H20R 1678   4.095   6.359   3.974  0.8407 -1.3636  0.0857
   13SAPS  H20S 1679   3.997   6.199   3.994  3.7755 -1.2377 -1.1137
   13SAPS  H20T 1680   3.935   6.359   4.036 -0.5249 -0.0827 -0.0298
   13SAPS   C33 1681   3.659   5.356   2.560 -0.2018  0.0180  0.0847
   13SAPS   H3X 1682   3.749   5.421   2.565  0.1139 -0.0302 -3.1263
   13SAPS   H3Y 1683   3.677   5.255   2.519  0.7410  0.2154 -0.0007
   13SAPS   C34 1684   3.611   5.312   2.700 -0.3608  0.2933  0.4426
   13SAPS   H4X 1685   3.523   5.244   2.704 -0.5957  0.6262  0.9388
   13SAPS   H4Y 1686   3.591   5.410   2.746 -1.8600  0.8680 -1.3048
   13SAPS   C35 1687   3.716   5.237   2.769 -0.8757  0.5073 -1.0267
   13SAPS   H5X 1688   3.808   5.299   2.773 -0.7596  0.3018 -0.0995
   13SAPS   H5Y 1689   3.741   5.137   2.727 -1.4942  0.4286 -1.2209
   13SAPS   C36 1690   3.665   5.207   2.920  0.1924 -0.5451  0.0730
   13SAPS   H6X 1691   3.587   5.129   2.921  0.0815 -0.4543 -0.5970
   13SAPS   H6Y 1692   3.621   5.299   2.964  1.4395  0.0859  0.0707
   13SAPS   C37 1693   3.784   5.159   3.005 -0.6848 -0.3694 -0.8285
   13SAPS   H7X 1694   3.850   5.246   3.025 -1.8150  0.0595  1.3918
   13SAPS   H7Y 1695   3.850   5.085   2.956 -0.5656  0.1950 -1.5307
   13SAPS   C38 1696   3.723   5.105   3.138 -0.0358 -0.4527  0.4682
   13SAPS   H8X 1697   3.694   5.002   3.109 -1.1759 -0.5511  1.8392
   13SAPS   H8Y 1698   3.630   5.157   3.169  0.8739  1.6914 -0.2323
   13SAPS   C39 1699   3.836   5.099   3.239 -0.1686  0.5281  0.1667
   13SAPS   H9X 1700   3.937   5.082   3.196  0.0137  1.5916  0.1492
   13SAPS   H9Y 1701   3.815   5.021   3.315 -1.0603  0.3933 -0.2093
   13SAPS  C310 1702   3.843   5.234   3.324  0.0721  0.7923 -0.0227
   13SAPS  H10X 1703   3.744   5.240   3.374  0.3487  3.0104  0.3370
   13SAPS  H10Y 1704   3.844   5.316   3.250  0.4897 -0.9773 -2.0937
   13SAPS  C311 1705   3.969   5.250   3.413  0.0204 -1.7138 -0.3777
   13SAPS  H11X 1706   4.055   5.280   3.349 -1.4663  1.0056 -1.2342
   13SAPS  H11Y 1707   3.980   5.148   3.456 -0.9447 -1.1589  1.2682
   13SAPS  C312 1708   3.944   5.340   3.536 -0.2402 -0.5657 -0.7012
   13SAPS  H12X 1709   4.029   5.328   3.607 -1.6142  1.9598  1.5644
   13SAPS  H12Y 1710   3.851   5.304   3.585  0.2596 -1.2135 -0.2063
   13SAPS  C313 1711   3.933   5.489   3.509 -0.3382 -0.1604  0.0588
   13SAPS  H13X 1712   3.866   5.502   3.421  0.0802 -1.2717 -0.4407
   13SAPS  H13Y 1713   4.032   5.531   3.484 -0.4989  0.1937  0.0022
   13SAPS  C314 1714   3.870   5.564   3.633 -0.4883  0.4435  0.1541
   13SAPS  H14X 1715   3.767   5.523   3.634 -0.4066  0.0871 -1.8289
   13SAPS  H14Y 1716   3.869   5.674   3.619  0.1419  0.5736  1.0740
   13SAPS  C315 1717   3.945   5.540   3.767  0.4180 -0.6290  0.5588
   13SAPS  H15X 1718   3.932   5.627   3.836 -2.2501 -1.0604  0.7191
   13SAPS  H15Y 1719   4.053   5.524   3.746  0.4204 -1.6207  1.2227
   13SAPS  C316 1720   3.878   5.428   3.851  0.3266  0.6931  0.4979
   13SAPS  H16X 1721   3.899   5.333   3.798 -0.7532 -0.5715  2.2391
   13SAPS  H16Y 1722   3.768   5.442   3.841  0.3256 -0.6141 -2.2955
   13SAPS  C317 1723   3.929   5.434   3.999 -0.3297  0.4802 -0.3484
   13SAPS  H17X 1724   3.859   5.381   4.067  0.7845  0.6249  0.9572
   13SAPS  H17Y 1725   3.931   5.541   4.030  0.2410  1.0362 -2.1924
   13SAPS  C318 1726   4.057   5.354   4.013  0.5986 -0.6326 -0.1607
   13SAPS  H18X 1727   4.123   5.391   3.932  0.5503 -2.2866 -1.0033
   13SAPS  H18Y 1728   4.038   5.246   3.995 -0.1453 -0.8935  1.9209
   13SAPS  H18Z 1729   4.098   5.376   4.114 -3.3296  2.1606  1.0921
   14SAPS     N 1730   5.109   5.536   1.849 -0.1411 -0.3610 -0.5678
   14SAPS   HN1 1731   5.025   5.485   1.816 -0.4603  0.1013 -0.4811
   14SAPS   HN2 1732   5.094   5.634   1.819 -0.5521  0.0143  0.7685
   14SAPS   HN3 1733   5.187   5.505   1.788 -1.3370 -2.3030 -1.1672
   14SAPS   C12 1734   5.136   5.530   1.993 -1.0609  0.6527  0.4482
   14SAPS  H12A 1735   5.158   5.427   2.017  4.1878  0.6633 -2.6045
   14SAPS   C13 1736   5.266   5.607   2.027  0.6388 -0.4096 -0.4096
   14SAPS  O13A 1737   5.318   5.680   1.936  0.5241  0.1667 -0.9060
   14SAPS  O13B 1738   5.290   5.628   2.150  0.4430 -0.7238  0.5681
   14SAPS   C11 1739   5.008   5.586   2.062 -0.2746  0.5527 -0.5231
   14SAPS  H11A 1740   5.007   5.696   2.046  0.9068  0.7598  0.6166
   14SAPS  H11B 1741   5.021   5.573   2.172 -0.1270 -3.6470 -0.8771
   14SAPS     P 1742   4.817   5.396   2.096 -0.3166  0.0104  0.1834
   14SAPS   O13 1743   4.672   5.394   2.061  0.0099  0.0629 -0.2878
   14SAPS   O14 1744   4.894   5.270   2.071  0.0505  0.2371  0.1614
   14SAPS   O12 1745   4.886   5.511   2.019 -0.7456 -0.2792 -0.3265
   14SAPS   O11 1746   4.824   5.426   2.246  0.0204 -0.2717 -0.8851
   14SAPS    C1 1747   4.729   5.500   2.321 -0.2034 -0.1369  0.1402
   14SAPS    HA 1748   4.711   5.607   2.295 -1.3118 -0.5355 -0.8666
   14SAPS    HB 1749   4.631   5.447   2.329 -0.2176 -0.4807 -1.6958
   14SAPS    C2 1750   4.780   5.524   2.463  0.2549  0.6250 -0.3414
   14SAPS    HS 1751   4.709   5.592   2.515  2.0175  0.4408  2.5190
   14SAPS   O21 1752   4.910   5.580   2.458  0.6898 -0.0026  0.6927
   14SAPS   C21 1753   4.927   5.709   2.424  0.7752 -0.0625 -0.2714
   14SAPS   O22 1754   4.833   5.790   2.405 -0.8987 -0.2173 -0.4416
   14SAPS   C22 1755   5.069   5.745   2.424 -0.1662  0.4521  1.2310
   14SAPS   H2R 1756   5.125   5.653   2.397 -0.4412  0.2512  1.3355
   14SAPS   H2S 1757   5.092   5.817   2.343 -2.2354  0.3361  0.4750
   14SAPS    C3 1758   4.784   5.394   2.542  0.5061  0.4183 -0.4559
   14SAPS    HX 1759   4.882   5.342   2.536 -0.1298 -1.0988  1.3228
   14SAPS    HY 1760   4.708   5.318   2.512  0.0465  0.8912 -0.4885
   14SAPS   O31 1761   4.767   5.428   2.682  0.1104  0.1306 -0.3095
   14SAPS   C31 1762   4.637   5.426   2.729  0.1908  0.4519  0.5343
   14SAPS   O32 1763   4.547   5.385   2.659 -0.3219  0.3402  0.6834
   14SAPS   C32 1764   4.628   5.485   2.870 -0.3701 -0.4694 -0.2791
   14SAPS   H2X 1765   4.597   5.591   2.855  1.1997  0.4416  2.2383
   14SAPS   H2Y 1766   4.722   5.484   2.930 -0.4512  0.1250 -0.1275
   14SAPS   C23 1767   5.125   5.784   2.556  0.7400  0.9892 -0.0674
   14SAPS   H3R 1768   5.069   5.874   2.590 -0.3109  0.8155 -1.2650
   14SAPS   H3S 1769   5.225   5.831   2.540  1.3371 -0.4100 -0.6021
   14SAPS   C24 1770   5.140   5.678   2.670  0.1284 -0.7642 -0.5139
   14SAPS   H4R 1771   5.040   5.630   2.677  0.1964 -0.9759 -0.9400
   14SAPS   H4S 1772   5.169   5.721   2.768  1.0438 -1.0225 -0.6544
   14SAPS   C25 1773   5.251   5.588   2.624 -0.1650  0.5537  0.0295
   14SAPS   H5R 1774   5.334   5.643   2.576  0.0530 -0.0299 -0.2658
   14SAPS   C26 1775   5.251   5.454   2.621  0.5915  0.1805 -0.1499
   14SAPS   H6R 1776   5.344   5.413   2.580  0.4794  1.5413 -1.8780
   14SAPS   C27 1777   5.150   5.362   2.680  0.8690  0.5153  0.0943
   14SAPS   H7R 1778   5.063   5.352   2.612  0.1115 -0.0717  1.1267
   14SAPS   H7S 1779   5.118   5.410   2.775  0.4454  2.7906 -1.0995
   14SAPS   C28 1780   5.200   5.226   2.718  0.5976 -0.3992  0.4114
   14SAPS   H8R 1781   5.134   5.146   2.680 -3.8349  3.2643 -0.5356
   14SAPS   C29 1782   5.306   5.193   2.789 -0.5915  0.0447  0.7521
   14SAPS   H9R 1783   5.327   5.085   2.791 -1.2602 -0.0886  0.7917
   14SAPS  C210 1784   5.411   5.279   2.865  0.0120 -0.1300  0.2799
   14SAPS  H10R 1785   5.452   5.211   2.942 -0.7846 -0.2684  0.5821
   14SAPS  H10S 1786   5.376   5.374   2.911  2.4034  2.0480 -2.0433
   14SAPS  C211 1787   5.528   5.314   2.777 -0.6142 -0.2395 -0.1299
   14SAPS  H11R 1788   5.532   5.284   2.671  0.9038  3.3250 -1.2220
   14SAPS  C212 1789   5.634   5.375   2.830 -0.0018 -1.1413 -0.9471
   14SAPS  H12R 1790   5.714   5.409   2.763  0.8929  0.7877  0.9649
   14SAPS  C213 1791   5.644   5.432   2.972  0.2965 -0.4112 -0.4063
   14SAPS  H13R 1792   5.650   5.352   3.048  1.1190 -0.6177 -0.6715
   14SAPS  H13S 1793   5.551   5.478   3.011  0.3087 -2.0392  1.7070
   14SAPS  C214 1794   5.759   5.523   2.991  0.8694 -0.3720 -0.1253
   14SAPS  H14R 1795   5.795   5.586   2.908  1.1336 -0.7332 -0.2902
   14SAPS  C215 1796   5.833   5.530   3.101  0.4526  0.0787  0.1577
   14SAPS  H15R 1797   5.927   5.587   3.107  1.5706 -1.4934 -1.3821
   14SAPS  C216 1798   5.802   5.451   3.229  0.1617 -0.5982  0.4780
   14SAPS  H16R 1799   5.839   5.348   3.210 -0.5712 -0.6885 -0.5795
   14SAPS  H16S 1800   5.693   5.438   3.243 -0.2713  1.0068 -0.9856
   14SAPS  C217 1801   5.865   5.513   3.353 -0.9918  0.3343  0.1102
   14SAPS  H17R 1802   5.832   5.618   3.360 -0.0758  0.6976 -0.7755
   14SAPS  H17S 1803   5.976   5.502   3.351 -1.0746 -0.6963  0.3453
   14SAPS  C218 1804   5.809   5.435   3.472  0.0952  0.4522  0.0061
   14SAPS  H18R 1805   5.826   5.326   3.458 -0.9343  0.1299  1.0566
   14SAPS  H18S 1806   5.699   5.445   3.461 -0.0467  0.2444  1.1441
   14SAPS  C219 1807   5.844   5.487   3.610 -0.2489 -0.3579 -0.1844
   14SAPS  H19R 1808   5.954   5.487   3.630 -0.5141  1.3702  1.6652
   14SAPS  H19S 1809   5.804   5.414   3.684  0.8373 -0.6473  0.1507
   14SAPS  C220 1810   5.798   5.628   3.629 -0.4585 -0.3389  0.5117
   14SAPS  H20R 1811   5.807   5.650   3.738  0.9011  0.6782  0.2289
   14SAPS  H20S 1812   5.689   5.636   3.610 -0.2950  2.1505  0.2995
   14SAPS  H20T 1813   5.854   5.708   3.577  2.4856 -2.0163  0.8086
   14SAPS   C33 1814   4.515   5.417   2.955  0.0722  0.6105 -0.0109
   14SAPS   H3X 1815   4.532   5.311   2.982  2.7358  1.0936  0.5004
   14SAPS   H3Y 1816   4.432   5.401   2.883 -0.1334 -0.6753  0.4861
   14SAPS   C34 1817   4.475   5.483   3.084 -0.1424 -0.1151  0.3556
   14SAPS   H4X 1818   4.486   5.592   3.063  2.3102 -0.1056  1.3600
   14SAPS   H4Y 1819   4.561   5.468   3.152 -0.2895  0.8041  0.7681
   14SAPS   C35 1820   4.354   5.438   3.154  0.4664 -0.1767 -0.2755
   14SAPS   H5X 1821   4.353   5.330   3.176  1.0103 -0.0157  0.5998
   14SAPS   H5Y 1822   4.275   5.461   3.080 -0.4221 -2.3389 -0.0720
   14SAPS   C36 1823   4.321   5.518   3.279  0.0006  0.1122 -0.2124
   14SAPS   H6X 1824   4.220   5.502   3.323  1.5530  1.8282  4.6448
   14SAPS   H6Y 1825   4.331   5.627   3.258 -0.8291  0.3536  0.5472
   14SAPS   C37 1826   4.400   5.480   3.404 -0.3958  0.5898  0.1030
   14SAPS   H7X 1827   4.506   5.505   3.381  0.2670 -0.3947  1.8509
   14SAPS   H7Y 1828   4.397   5.371   3.429  0.4949  0.6812  0.6676
   14SAPS   C38 1829   4.373   5.551   3.541 -0.8771 -0.6356  0.2231
   14SAPS   H8X 1830   4.264   5.571   3.554 -0.1986  2.4139  1.9400
   14SAPS   H8Y 1831   4.417   5.652   3.557  0.0520 -0.9937 -0.0007
   14SAPS   C39 1832   4.438   5.459   3.656 -0.3131  0.5678  0.7022
   14SAPS   H9X 1833   4.549   5.466   3.655 -0.3449  1.1740 -0.4048
   14SAPS   H9Y 1834   4.411   5.353   3.637 -1.2453  0.8433  0.4517
   14SAPS  C310 1835   4.394   5.496   3.802  0.0601 -1.1157  0.5549
   14SAPS  H10X 1836   4.450   5.443   3.882  0.3047 -0.5191  0.7838
   14SAPS  H10Y 1837   4.285   5.481   3.814  0.0866 -1.5826  0.2541
   14SAPS  C311 1838   4.408   5.648   3.838 -0.3982 -0.5485  0.0672
   14SAPS  H11X 1839   4.386   5.711   3.749  0.4366  2.1216  1.6401
   14SAPS  H11Y 1840   4.517   5.664   3.852 -0.1171 -1.9313 -0.4450
   14SAPS  C312 1841   4.330   5.700   3.960  0.5613  0.2483  0.2167
   14SAPS  H12X 1842   4.225   5.664   3.956  1.2148 -2.4222  2.8724
   14SAPS  H12Y 1843   4.322   5.810   3.959  2.4084  0.6014  4.2214
   14SAPS  C313 1844   4.381   5.643   4.097 -0.4422 -0.3346  0.3836
   14SAPS  H13X 1845   4.378   5.532   4.095  0.2445 -0.3762  1.3087
   14SAPS  H13Y 1846   4.320   5.677   4.184  3.0940  0.5438  2.7373
   14SAPS  C314 1847   4.530   5.677   4.131  0.5545  0.4922  0.2307
   14SAPS  H14X 1848   4.549   5.784   4.152  2.2320  0.1434  0.6542
   14SAPS  H14Y 1849   4.598   5.646   4.049 -0.6536 -1.1277 -0.1916
   14SAPS  C315 1850   4.567   5.623   4.271  0.4117  0.4787 -0.4011
   14SAPS  H15X 1851   4.535   5.517   4.271  1.2432  0.2212 -0.7766
   14SAPS  H15Y 1852   4.516   5.679   4.353  2.1870 -0.8622  1.7293
   14SAPS  C316 1853   4.712   5.630   4.308 -0.4261 -0.1220 -0.6489
   14SAPS  H16X 1854   4.751   5.731   4.281  0.7790 -0.1801  0.7215
   14SAPS  H16Y 1855   4.768   5.549   4.257  1.3661  0.7026 -0.0919
   14SAPS  C317 1856   4.721   5.638   4.464 -0.0166 -0.2940 -0.1216
   14SAPS  H17X 1857   4.664   5.558   4.517  0.4915  0.1270  1.1132
   14SAPS  H17Y 1858   4.674   5.729   4.508 -4.0030 -2.2998  0.2389
   14SAPS  C318 1859   4.869   5.643   4.503 -0.6756 -0.5373  0.1013
   14SAPS  H18X 1860   4.875   5.600   4.605 -1.6802 -0.6496  0.1268
   14SAPS  H18Y 1861   4.909   5.746   4.513  2.0963 -1.5480  0.2200
   14SAPS  H18Z 1862   4.930   5.585   4.431  1.8634  0.2751  1.4969
   15SAPS     N 1863   1.976   4.772   1.832 -1.1963 -0.3056  0.0597
   15SAPS   HN1 1864   1.944   4.861   1.875  0.7236  0.5539 -0.1785
   15SAPS   HN2 1865   1.913   4.730   1.761 -0.0300 -2.6130  0.2934
   15SAPS   HN3 1866   1.984   4.708   1.914 -3.5147  0.9918  1.4208
   15SAPS   C12 1867   2.112   4.794   1.765  0.0275  0.1699  0.0198
   15SAPS  H12A 1868   2.158   4.712   1.712 -0.1312  0.7527 -1.0421
   15SAPS   C13 1869   2.108   4.916   1.680  0.1313 -0.2599  0.0529
   15SAPS  O13A 1870   2.014   5.000   1.679  0.4682  0.6243  0.4575
   15SAPS  O13B 1871   2.211   4.938   1.611 -0.7938  0.2686 -0.0645
   15SAPS   C11 1872   2.210   4.820   1.883 -0.1042 -0.0090  0.3023
   15SAPS  H11A 1873   2.173   4.901   1.949 -0.4737  0.1071 -0.0411
   15SAPS  H11B 1874   2.304   4.848   1.830  1.1363 -0.6542  2.0580
   15SAPS     P 1875   2.349   4.678   2.062 -0.1259  0.5920 -0.1205
   15SAPS   O13 1876   2.325   4.549   2.129  0.1428 -0.4171 -0.5233
   15SAPS   O14 1877   2.480   4.703   2.000  0.0687  0.3042 -0.3555
   15SAPS   O12 1878   2.235   4.700   1.957  0.0484 -0.0886  0.1629
   15SAPS   O11 1879   2.316   4.797   2.158  0.2721 -0.1385 -0.0892
   15SAPS    C1 1880   2.188   4.784   2.223 -0.0008  0.0750 -0.9300
   15SAPS    HA 1881   2.113   4.725   2.166 -1.2460  1.0693 -0.3789
   15SAPS    HB 1882   2.208   4.730   2.318  1.4001  1.8509 -0.1753
   15SAPS    C2 1883   2.121   4.926   2.250 -0.3902  0.4047 -0.2230
   15SAPS    HS 1884   2.120   4.972   2.149  1.4180  2.0454  0.4360
   15SAPS   O21 1885   2.204   4.994   2.341 -0.1826 -0.5977  0.0717
   15SAPS   C21 1886   2.195   5.122   2.352  0.3871  0.0291  0.0115
   15SAPS   O22 1887   2.115   5.192   2.287 -0.6141  0.3890 -0.4052
   15SAPS   C22 1888   2.303   5.166   2.449  0.3186 -0.6692  0.3941
   15SAPS   H2R 1889   2.288   5.112   2.545 -0.6564 -1.7676 -0.3455
   15SAPS   H2S 1890   2.407   5.159   2.410  0.6913 -1.9521  1.5487
   15SAPS    C3 1891   1.973   4.912   2.304 -0.3423 -0.6124  0.1355
   15SAPS    HX 1892   1.909   4.863   2.228  0.6465 -1.6289 -0.0621
   15SAPS    HY 1893   1.934   5.016   2.315  1.0768 -0.0243 -0.1988
   15SAPS   O31 1894   1.969   4.828   2.420  0.1297 -0.6730 -0.2980
   15SAPS   C31 1895   2.002   4.881   2.531  0.1863  0.2020 -0.6921
   15SAPS   O32 1896   2.012   4.999   2.556 -0.1464  0.3998  0.3030
   15SAPS   C32 1897   2.033   4.763   2.631 -0.5048  0.3257 -0.2300
   15SAPS   H2X 1898   2.130   4.717   2.600 -1.6597 -2.7639  0.3951
   15SAPS   H2Y 1899   1.953   4.687   2.640  0.5080 -0.6686  0.8885
   15SAPS   C23 1900   2.284   5.319   2.479 -0.0993 -0.0290  0.3825
   15SAPS   H3R 1901   2.285   5.375   2.383  2.0804 -0.4974  0.0853
   15SAPS   H3S 1902   2.375   5.355   2.531 -0.4211 -0.0106  0.9382
   15SAPS   C24 1903   2.157   5.347   2.564 -0.4146 -0.4816  0.0364
   15SAPS   H4R 1904   2.163   5.290   2.659 -0.4255 -1.0704 -0.3099
   15SAPS   H4S 1905   2.066   5.310   2.511  0.4644 -1.8127 -0.6031
   15SAPS   C25 1906   2.142   5.500   2.589 -0.3381  0.2026 -0.5347
   15SAPS   H5R 1907   2.122   5.559   2.498  0.1933  1.0524 -0.1132
   15SAPS   C26 1908   2.168   5.563   2.701  0.5431  0.4534  0.4109
   15SAPS   H6R 1909   2.159   5.673   2.698 -0.8476  0.3656  0.6855
   15SAPS   C27 1910   2.223   5.513   2.832  0.3116 -0.4481  0.8990
   15SAPS   H7R 1911   2.245   5.405   2.821 -2.5205 -0.9524 -0.7425
   15SAPS   H7S 1912   2.141   5.529   2.905 -1.2344  2.9889 -1.3390
   15SAPS   C28 1913   2.346   5.597   2.883 -0.2840  0.3890  0.4203
   15SAPS   H8R 1914   2.397   5.660   2.809  0.0677  0.2054  0.5042
   15SAPS   C29 1915   2.370   5.634   3.008  0.0300 -0.3609  0.0431
   15SAPS   H9R 1916   2.462   5.691   3.029 -1.2660  3.6202 -3.6100
   15SAPS  C210 1917   2.305   5.577   3.130 -0.3905 -0.2070 -0.2591
   15SAPS  H10R 1918   2.232   5.501   3.096 -1.1002  0.4925 -0.3401
   15SAPS  H10S 1919   2.260   5.670   3.172  0.3775  2.3114 -4.3775
   15SAPS  C211 1920   2.408   5.508   3.218 -0.2783 -0.4091  0.0552
   15SAPS  H11R 1921   2.459   5.429   3.160  0.5475  0.8626 -1.0033
   15SAPS  C212 1922   2.421   5.527   3.351 -0.0827  0.5669  0.3529
   15SAPS  H12R 1923   2.501   5.475   3.407 -0.5894 -0.3016  0.2773
   15SAPS  C213 1924   2.352   5.631   3.439 -0.3388 -0.0856 -0.1922
   15SAPS  H13R 1925   2.338   5.720   3.374  1.8426 -0.4659 -1.3010
   15SAPS  H13S 1926   2.433   5.671   3.504  0.4997  0.0748 -1.2888
   15SAPS  C214 1927   2.228   5.602   3.516 -0.2231 -0.1400  0.1914
   15SAPS  H14R 1928   2.144   5.670   3.494 -1.6289 -1.0193  2.4623
   15SAPS  C215 1929   2.212   5.506   3.610  0.0302 -0.2927  0.1675
   15SAPS  H15R 1930   2.113   5.488   3.654 -0.6943  0.2231 -1.1767
   15SAPS  C216 1931   2.324   5.419   3.659  0.3670  0.5515  0.3913
   15SAPS  H16R 1932   2.411   5.433   3.592 -1.0074  1.1504 -1.3259
   15SAPS  H16S 1933   2.292   5.313   3.659  1.8270  0.0898  1.5063
   15SAPS  C217 1934   2.364   5.451   3.800 -0.6619 -0.1983  0.4365
   15SAPS  H17R 1935   2.385   5.560   3.797 -2.9634  0.2672 -0.1469
   15SAPS  H17S 1936   2.461   5.400   3.820 -0.2866  0.7557  1.1595
   15SAPS  C218 1937   2.261   5.412   3.905 -0.1409 -0.3780  0.7495
   15SAPS  H18R 1938   2.236   5.304   3.904 -0.9217 -0.2795 -3.1193
   15SAPS  H18S 1939   2.169   5.467   3.878 -1.2149 -1.6679  1.6381
   15SAPS  C219 1940   2.306   5.445   4.046  0.1622 -0.4381 -0.5328
   15SAPS  H19R 1941   2.346   5.548   4.032 -0.8331  0.1961  1.0351
   15SAPS  H19S 1942   2.381   5.377   4.091  0.5394  0.5953  0.4412
   15SAPS  C220 1943   2.189   5.467   4.143 -0.8623  0.1004  0.3997
   15SAPS  H20R 1944   2.227   5.480   4.247  2.0876 -1.7782 -0.3410
   15SAPS  H20S 1945   2.124   5.377   4.137 -1.9518  0.9612 -1.2773
   15SAPS  H20T 1946   2.135   5.559   4.110 -1.2769 -0.1878  0.2698
   15SAPS   C33 1947   2.064   4.807   2.774  0.2991 -0.0245  0.3466
   15SAPS   H3X 1948   2.125   4.900   2.776  1.0283 -0.4521 -0.7146
   15SAPS   H3Y 1949   2.108   4.727   2.837  3.2186  0.5621 -0.7769
   15SAPS   C34 1950   1.931   4.854   2.836  0.4955  0.3314  0.0663
   15SAPS   H4X 1951   1.859   4.771   2.850 -1.5100  1.6251 -1.9803
   15SAPS   H4Y 1952   1.870   4.929   2.782  2.1460  0.2445 -2.0534
   15SAPS   C35 1953   1.939   4.904   2.979 -0.3674  0.6885  0.0187
   15SAPS   H5X 1954   1.840   4.949   3.002 -1.2673 -0.1702 -1.9665
   15SAPS   H5Y 1955   2.015   4.985   2.971  2.4676 -1.9507 -2.2096
   15SAPS   C36 1956   1.984   4.793   3.083 -0.1327 -0.1104  0.1777
   15SAPS   H6X 1957   2.086   4.755   3.061  0.2403  0.4067  0.9616
   15SAPS   H6Y 1958   1.914   4.707   3.083 -1.6832  1.0810 -0.9986
   15SAPS   C37 1959   1.990   4.860   3.219 -0.3088  0.0854 -0.9218
   15SAPS   H7X 1960   1.890   4.908   3.221 -0.0113  0.6881  0.0898
   15SAPS   H7Y 1961   2.064   4.942   3.229 -0.8408  0.5239 -0.5726
   15SAPS   C38 1962   2.008   4.768   3.339  0.4389  0.0345 -0.4694
   15SAPS   H8X 1963   2.108   4.721   3.339 -0.8450 -2.8899 -1.0380
   15SAPS   H8Y 1964   1.934   4.687   3.322  0.0231  0.3427 -0.1504
   15SAPS   C39 1965   1.983   4.839   3.467 -0.1019  0.5212 -0.5425
   15SAPS   H9X 1966   1.888   4.892   3.448 -0.4428 -1.0664 -4.0264
   15SAPS   H9Y 1967   2.069   4.909   3.482 -0.3976  1.3951 -2.5645
   15SAPS  C310 1968   1.963   4.739   3.580 -0.6251 -0.0480 -0.3448
   15SAPS  H10X 1969   2.060   4.702   3.619 -0.2364  1.0388 -0.2601
   15SAPS  H10Y 1970   1.912   4.658   3.524 -0.3247 -0.2702 -0.2959
   15SAPS  C311 1971   1.866   4.791   3.691 -0.3345  0.1646 -0.0546
   15SAPS  H11X 1972   1.762   4.806   3.656 -0.3784  0.9848  0.3977
   15SAPS  H11Y 1973   1.910   4.887   3.726 -0.8896 -0.0646  1.3510
   15SAPS  C312 1974   1.853   4.704   3.812 -0.4489  0.2690  0.7813
   15SAPS  H12X 1975   1.959   4.699   3.847  0.0529 -1.4987 -0.7975
   15SAPS  H12Y 1976   1.815   4.600   3.806  0.8375 -0.1209 -2.4243
   15SAPS  C313 1977   1.769   4.779   3.919  0.2679  0.4187  0.6124
   15SAPS  H13X 1978   1.661   4.767   3.899  0.3620  0.0237  0.3387
   15SAPS  H13Y 1979   1.803   4.885   3.913 -3.1495  1.5951 -0.2651
   15SAPS  C314 1980   1.788   4.729   4.064  0.0086  0.4813 -0.0632
   15SAPS  H14X 1981   1.896   4.720   4.089 -0.1196 -0.2462  0.2678
   15SAPS  H14Y 1982   1.752   4.623   4.066 -1.0069  0.8235  2.3438
   15SAPS  C315 1983   1.703   4.797   4.168  0.4054  0.4706 -0.2856
   15SAPS  H15X 1984   1.596   4.808   4.140  0.5024  3.0038  0.1103
   15SAPS  H15Y 1985   1.735   4.902   4.179  0.1300  0.3600  2.2636
   15SAPS  C316 1986   1.703   4.734   4.305 -0.3679  0.4111 -0.1370
   15SAPS  H16X 1987   1.639   4.643   4.297  1.0316 -0.5568 -0.6562
   15SAPS  H16Y 1988   1.657   4.804   4.379 -1.2922 -1.9628  1.6809
   15SAPS  C317 1989   1.839   4.698   4.354 -0.1692  0.9444  0.7826
   15SAPS  H17X 1990   1.906   4.780   4.320 -1.8763  2.1348  0.1376
   15SAPS  H17Y 1991   1.856   4.601   4.303  0.8293  0.9968  0.9859
   15SAPS  C318 1992   1.863   4.694   4.505  0.0204 -0.3306 -0.0246
   15SAPS  H18X 1993   1.817   4.607   4.557 -0.2198  1.2778  2.6239
   15SAPS  H18Y 1994   1.816   4.782   4.553  1.5694  1.4475 -1.6136
   15SAPS  H18Z 1995   1.966   4.679   4.543 -0.2151 -2.5334 -0.0857
   16SAPS     N 1996   2.546   5.383   1.704 -0.4373  0.5682 -0.4097
   16SAPS   HN1 1997   2.485   5.412   1.783  1.6670  1.9158  0.8010
   16SAPS   HN2 1998   2.627   5.444   1.683  1.6390 -1.9005  0.0005
   16SAPS   HN3 1999   2.490   5.399   1.618  0.9085 -0.5216 -1.5396
   16SAPS   C12 2000   2.618   5.250   1.722 -0.1644 -0.1953 -0.1910
   16SAPS  H12A 2001   2.552   5.166   1.710  2.6297 -2.5449 -0.3678
   16SAPS   C13 2002   2.732   5.236   1.617 -0.1142 -0.2741  0.1513
   16SAPS  O13A 2003   2.760   5.335   1.541  0.3240 -0.2289 -0.4816
   16SAPS  O13B 2004   2.795   5.132   1.603 -0.5178  0.1689 -0.2616
   16SAPS   C11 2005   2.683   5.235   1.863  0.5396 -0.2877 -0.4790
   16SAPS  H11A 2006   2.607   5.260   1.940 -0.1508 -0.5165 -1.0724
   16SAPS  H11B 2007   2.772   5.301   1.874  0.2657  0.1543 -0.9052
   16SAPS     P 2008   2.829   5.066   1.986 -0.6127 -0.2861 -0.0095
   16SAPS   O13 2009   2.796   4.943   2.050 -0.3387 -0.4352  0.2392
   16SAPS   O14 2010   2.958   5.065   1.911  0.1385  0.0281 -0.0102
   16SAPS   O12 2011   2.718   5.102   1.890 -0.6013  0.3063  1.1935
   16SAPS   O11 2012   2.840   5.174   2.097  0.3230 -0.9191  0.2817
   16SAPS    C1 2013   2.962   5.229   2.135  0.5525  0.5380 -1.3388
   16SAPS    HA 2014   3.035   5.148   2.159 -0.5903  0.5470  2.9731
   16SAPS    HB 2015   2.995   5.300   2.056  1.1743 -0.2378 -1.7886
   16SAPS    C2 2016   2.946   5.324   2.253  0.1632  0.3247  0.8966
   16SAPS    HS 2017   3.038   5.384   2.271  0.4363 -0.0631  0.8144
   16SAPS   O21 2018   2.908   5.252   2.371  0.4037  0.0437  0.2967
   16SAPS   C21 2019   3.003   5.176   2.430 -0.0357 -0.1411 -0.5459
   16SAPS   O22 2020   3.121   5.175   2.400  0.8383 -0.4102 -0.2104
   16SAPS   C22 2021   2.948   5.111   2.556  0.3676 -0.3849  0.0143
   16SAPS   H2R 2022   2.930   5.190   2.632 -1.1990  0.4724 -1.2043
   16SAPS   H2S 2023   2.846   5.076   2.529  0.2734  0.3619 -0.6100
   16SAPS    C3 2024   2.835   5.426   2.228 -0.2334 -0.6997  0.1496
   16SAPS    HX 2025   2.748   5.370   2.187  1.1075 -2.1410 -0.8125
   16SAPS    HY 2026   2.867   5.495   2.148 -0.4225  0.7718  1.3053
   16SAPS   O31 2027   2.803   5.508   2.342 -0.1875  0.0099  0.1069
   16SAPS   C31 2028   2.691   5.487   2.409 -0.0021 -0.6959 -0.1660
   16SAPS   O32 2029   2.610   5.403   2.375  0.2651  0.1605 -0.2804
   16SAPS   C32 2030   2.669   5.590   2.514 -0.1648 -0.4472  0.1465
   16SAPS   H2X 2031   2.580   5.653   2.491  2.2300  3.2190  0.1280
   16SAPS   H2Y 2032   2.756   5.659   2.513 -0.7504  0.3048 -1.1523
   16SAPS   C23 2033   3.026   4.995   2.606  0.2996  0.5168 -0.5516
   16SAPS   H3R 2034   3.124   5.025   2.649 -0.4012 -0.3785  1.8485
   16SAPS   H3S 2035   3.044   4.918   2.527  3.7081  0.8569 -0.2624
   16SAPS   C24 2036   2.969   4.918   2.722  0.5440 -0.9571 -0.1933
   16SAPS   H4R 2037   3.049   4.846   2.751  1.0203 -0.4206 -0.1525
   16SAPS   H4S 2038   2.888   4.849   2.689  1.3201 -1.9165 -0.1268
   16SAPS   C25 2039   2.928   4.993   2.847 -1.0030 -0.9028 -0.2405
   16SAPS   H5R 2040   2.830   5.040   2.836 -1.4994 -1.1396  2.4464
   16SAPS   C26 2041   2.984   5.000   2.968 -0.0696 -0.2455  0.2385
   16SAPS   H6R 2042   2.934   5.056   3.049  1.6054 -2.3040  2.8898
   16SAPS   C27 2043   3.118   4.938   3.013 -0.7923 -0.1229  0.3809
   16SAPS   H7R 2044   3.147   4.865   2.935  0.0343  1.9828 -1.4046
   16SAPS   H7S 2045   3.100   4.880   3.106  0.8795 -0.7164  0.3693
   16SAPS   C28 2046   3.236   5.034   3.036  0.3742  0.4610  0.3332
   16SAPS   H8R 2047   3.262   5.106   2.957  2.2127 -1.6573 -1.1056
   16SAPS   C29 2048   3.310   5.025   3.142 -0.6328 -0.7763 -0.1472
   16SAPS   H9R 2049   3.388   5.102   3.150  0.7316 -1.9788 -1.2355
   16SAPS  C210 2050   3.313   4.949   3.273 -0.0199  0.2485 -0.7705
   16SAPS  H10R 2051   3.419   4.920   3.290  0.6188  0.0179 -4.3825
   16SAPS  H10S 2052   3.258   4.853   3.259 -0.2691  0.0463  1.3088
   16SAPS  C211 2053   3.255   5.004   3.401 -0.7081 -0.2842  0.5148
   16SAPS  H11R 2054   3.145   5.005   3.412 -0.8670 -2.4921 -0.2793
   16SAPS  C212 2055   3.324   5.063   3.502 -0.0387 -0.0437  0.1897
   16SAPS  H12R 2056   3.268   5.113   3.582  1.3255  0.3077  0.9556
   16SAPS  C213 2057   3.478   5.058   3.522 -0.5397 -0.4529  0.1944
   16SAPS  H13R 2058   3.525   5.032   3.425  0.2474 -0.6454  0.6292
   16SAPS  H13S 2059   3.529   4.981   3.583  6.1259  3.1361  0.0191
   16SAPS  C214 2060   3.526   5.196   3.557  0.5507  0.1243 -0.4724
   16SAPS  H14R 2061   3.478   5.284   3.512 -1.1299 -0.7196 -0.4307
   16SAPS  C215 2062   3.609   5.224   3.662  0.1613  0.5231  0.1198
   16SAPS  H15R 2063   3.638   5.329   3.673  0.0266  0.5693  0.0409
   16SAPS  C216 2064   3.676   5.118   3.756  0.3294 -0.8960 -0.4474
   16SAPS  H16R 2065   3.785   5.141   3.761  0.2014 -0.5015  2.0154
   16SAPS  H16S 2066   3.671   5.012   3.726  1.0809 -0.6785 -1.3990
   16SAPS  C217 2067   3.619   5.133   3.896  0.8813  0.0956  0.5406
   16SAPS  H17R 2068   3.518   5.087   3.898  1.4048 -1.2273 -0.9433
   16SAPS  H17S 2069   3.622   5.243   3.914  1.0612  0.5405 -1.8070
   16SAPS  C218 2070   3.721   5.081   4.003  0.0667  0.2453 -0.1909
   16SAPS  H18R 2071   3.693   5.141   4.093 -1.2116  0.2945 -0.5913
   16SAPS  H18S 2072   3.820   5.118   3.971  0.0462  1.1005  0.6642
   16SAPS  C219 2073   3.712   4.931   4.014  0.1277 -0.8461 -0.5430
   16SAPS  H19R 2074   3.717   4.877   3.917  0.5977 -0.5590 -0.6807
   16SAPS  H19S 2075   3.614   4.905   4.059 -0.1092  1.5391  0.4660
   16SAPS  C220 2076   3.814   4.864   4.112  0.3379  0.6379  1.0698
   16SAPS  H20R 2077   3.898   4.832   4.048 -0.4946  0.4173  0.0626
   16SAPS  H20S 2078   3.780   4.777   4.171  1.7158  1.1644  2.7259
   16SAPS  H20T 2079   3.851   4.941   4.183 -3.1436  1.9747  1.6505
   16SAPS   C33 2080   2.631   5.535   2.657 -0.1551 -0.7012  0.1429
   16SAPS   H3X 2081   2.548   5.462   2.648  0.3512 -1.8735  3.3976
   16SAPS   H3Y 2082   2.598   5.629   2.707 -0.7971  0.4576 -2.2882
   16SAPS   C34 2083   2.751   5.477   2.733  0.3804  0.1595 -0.1591
   16SAPS   H4X 2084   2.844   5.533   2.709  1.3523 -0.6683  1.5128
   16SAPS   H4Y 2085   2.755   5.369   2.706 -2.6545  0.2466 -1.3675
   16SAPS   C35 2086   2.737   5.498   2.881  0.0032 -0.1252 -0.2176
   16SAPS   H5X 2087   2.629   5.500   2.909 -0.2253  2.9843 -0.9380
   16SAPS   H5Y 2088   2.781   5.599   2.893 -0.9407  0.3147 -0.3732
   16SAPS   C36 2089   2.814   5.401   2.968  0.6658 -0.2046  0.3516
   16SAPS   H6X 2090   2.918   5.403   2.927  0.5979  1.3784  0.2006
   16SAPS   H6Y 2091   2.786   5.294   2.952 -0.8666  0.1871  0.3181
   16SAPS   C37 2092   2.817   5.434   3.114  0.0079  0.2800  0.1234
   16SAPS   H7X 2093   2.719   5.477   3.143  0.0483  0.0576  0.6020
   16SAPS   H7Y 2094   2.890   5.515   3.139 -0.1534  0.5831 -0.3851
   16SAPS   C38 2095   2.850   5.307   3.194 -0.2771 -0.2789  0.2397
   16SAPS   H8X 2096   2.948   5.267   3.164  0.1368  1.7989 -1.3964
   16SAPS   H8Y 2097   2.774   5.226   3.189 -1.8943  1.1980 -0.6318
   16SAPS   C39 2098   2.859   5.350   3.346  0.6293  0.8926  0.3567
   16SAPS   H9X 2099   2.765   5.405   3.368 -0.4990 -0.6705 -0.3631
   16SAPS   H9Y 2100   2.955   5.405   3.345  0.1458  1.7650  0.9269
   16SAPS  C310 2101   2.865   5.232   3.443 -1.0978  0.2413 -0.7219
   16SAPS  H10X 2102   2.898   5.143   3.385  1.4023 -0.1231  1.0740
   16SAPS  H10Y 2103   2.764   5.208   3.483 -0.1156 -3.2012  0.0009
   16SAPS  C311 2104   2.961   5.244   3.566  0.3971  0.2506 -0.8966
   16SAPS  H11X 2105   2.905   5.323   3.622  1.6761  0.9520 -0.5536
   16SAPS  H11Y 2106   3.055   5.292   3.533  0.5508  0.5333 -0.0741
   16SAPS  C312 2107   2.975   5.118   3.649 -0.0886  0.2833  0.7072
   16SAPS  H12X 2108   3.025   5.035   3.595 -2.1170 -0.9372  0.6252
   16SAPS  H12Y 2109   2.875   5.075   3.673  0.1278 -2.0961 -2.1142
   16SAPS  C313 2110   3.033   5.138   3.793 -0.3573 -0.8357 -0.1726
   16SAPS  H13X 2111   2.963   5.203   3.850  0.8809  2.1879 -1.8697
   16SAPS  H13Y 2112   3.133   5.183   3.809  0.0464 -1.7269 -0.1666
   16SAPS  C314 2113   3.055   5.003   3.863 -0.1741 -0.4516  0.3931
   16SAPS  H14X 2114   3.113   4.945   3.788 -0.9563  2.0160 -2.3245
   16SAPS  H14Y 2115   2.955   4.957   3.880  0.2787 -0.8247  2.3272
   16SAPS  C315 2116   3.137   5.015   3.992  0.2364 -0.6727 -0.0440
   16SAPS  H15X 2117   3.082   5.083   4.060  2.6257  0.7965  0.5509
   16SAPS  H15Y 2118   3.236   5.061   3.968  0.0039 -0.6775 -1.0538
   16SAPS  C316 2119   3.168   4.879   4.061  0.1365 -0.3787 -0.4626
   16SAPS  H16X 2120   3.239   4.900   4.144 -1.2780  1.1118  0.4030
   16SAPS  H16Y 2121   3.227   4.822   3.986  1.2654  0.6527 -0.3797
   16SAPS  C317 2122   3.051   4.786   4.099 -0.1217 -0.5262  0.3159
   16SAPS  H17X 2123   3.093   4.692   4.142 -1.1008 -0.9225  0.4345
   16SAPS  H17Y 2124   2.985   4.745   4.020  0.5505  0.4375 -0.7576
   16SAPS  C318 2125   2.968   4.846   4.206  0.2930 -0.3214 -0.4197
   16SAPS  H18X 2126   2.874   4.791   4.225  0.5019  0.1644  2.5189
   16SAPS  H18Y 2127   2.929   4.948   4.185  1.6297  0.4757  0.7281
   16SAPS  H18Z 2128   3.023   4.858   4.302 -1.0489 -0.7061  0.4215
   17SAPS     N 2129   0.350   5.494   1.891 -0.1660  0.1479 -0.3645
   17SAPS   HN1 2130   0.279   5.442   1.835  0.1737  0.3510 -0.9947
   17SAPS   HN2 2131   0.336   5.487   1.993  0.4312  1.1879 -0.1983
   17SAPS   HN3 2132   0.342   5.596   1.868 -1.7863 -0.0320 -0.7440
   17SAPS   C12 2133   0.493   5.456   1.863 -0.2662  0.2886  0.1037
   17SAPS  H12A 2134   0.512   5.463   1.757  0.3175  1.0865  0.2501
   17SAPS   C13 2135   0.586   5.544   1.938 -0.3318  0.2367  0.4457
   17SAPS  O13A 2136   0.546   5.603   2.042 -0.5005  0.8436  0.7542
   17SAPS  O13B 2137   0.707   5.545   1.905  0.4171 -0.5003 -0.0156
   17SAPS   C11 2138   0.510   5.306   1.896  0.1718  0.8437 -0.1569
   17SAPS  H11A 2139   0.519   5.303   2.007 -0.3108  2.9688 -0.0259
   17SAPS  H11B 2140   0.609   5.276   1.856  0.3047 -0.0786  0.7836
   17SAPS     P 2141   0.411   5.065   1.879  0.0121  0.3827  0.5346
   17SAPS   O13 2142   0.303   4.999   1.801 -0.4751 -0.3576  0.4012
   17SAPS   O14 2143   0.550   5.015   1.872 -0.2349  0.2583  0.1301
   17SAPS   O12 2144   0.408   5.217   1.852 -0.3242  0.2985  0.2135
   17SAPS   O11 2145   0.381   5.066   2.029 -0.6245 -0.4201  0.1913
   17SAPS    C1 2146   0.254   5.112   2.072 -0.8700 -0.7973  0.4676
   17SAPS    HA 2147   0.264   5.218   2.106 -0.5428 -0.2153 -1.3327
   17SAPS    HB 2148   0.178   5.121   1.992  0.7690 -1.0037 -1.1590
   17SAPS    C2 2149   0.197   5.011   2.179  0.1514 -0.1508  0.0887
   17SAPS    HS 2150   0.093   5.037   2.205  0.2845  3.5341 -2.3133
   17SAPS   O21 2151   0.268   5.018   2.299 -0.9940  0.3205  0.1092
   17SAPS   C21 2152   0.271   5.126   2.362 -0.5619 -0.1231  0.3349
   17SAPS   O22 2153   0.205   5.227   2.336  0.2453  0.0110  0.1244
   17SAPS   C22 2154   0.371   5.117   2.481 -0.4383  0.6963  0.1500
   17SAPS   H2R 2155   0.337   5.046   2.560 -1.0086  1.9461  1.0725
   17SAPS   H2S 2156   0.464   5.066   2.449  0.2043  1.8071  0.2061
   17SAPS    C3 2157   0.217   4.868   2.122  0.7672 -0.0654 -0.1994
   17SAPS    HX 2158   0.319   4.834   2.150  0.7659  0.1769  0.1057
   17SAPS    HY 2159   0.204   4.866   2.012  1.0334  0.1344 -0.2364
   17SAPS   O31 2160   0.117   4.777   2.176  0.0749  0.0119 -0.2724
   17SAPS   C31 2161   0.146   4.648   2.142 -0.2689 -0.2494  0.1989
   17SAPS   O32 2162   0.247   4.613   2.080 -0.1928  0.7368 -0.6436
   17SAPS   C32 2163   0.039   4.561   2.190 -0.8683  0.5664 -0.4942
   17SAPS   H2X 2164   0.044   4.460   2.143  3.8354  0.7539 -0.8295
   17SAPS   H2Y 2165  -0.060   4.608   2.171 -2.2402 -1.7704  0.2866
   17SAPS   C23 2166   0.409   5.245   2.548  0.1955  0.1443  0.0604
   17SAPS   H3R 2167   0.312   5.288   2.579  0.9189  1.1848  0.9205
   17SAPS   H3S 2168   0.467   5.308   2.478  0.1645 -0.4345 -0.4969
   17SAPS   C24 2169   0.485   5.214   2.672  0.5066  0.1028 -0.7061
   17SAPS   H4R 2170   0.573   5.151   2.646  0.6905  0.1595 -0.2307
   17SAPS   H4S 2171   0.419   5.143   2.726 -0.4982  1.6225  0.1274
   17SAPS   C25 2172   0.522   5.333   2.766 -0.1223 -0.2491 -0.1018
   17SAPS   H5R 2173   0.517   5.433   2.722 -1.2996  0.6730  1.9618
   17SAPS   C26 2174   0.552   5.323   2.893  0.5092 -0.4375 -0.2235
   17SAPS   H6R 2175   0.589   5.414   2.944 -0.1171 -0.7244  0.7673
   17SAPS   C27 2176   0.559   5.198   2.970 -0.1122  0.2355  0.7747
   17SAPS   H7R 2177   0.531   5.107   2.913 -1.0498 -0.5377  2.3809
   17SAPS   H7S 2178   0.483   5.200   3.052 -2.0257  2.4594 -0.9130
   17SAPS   C28 2179   0.697   5.181   3.021 -0.1232 -0.1404 -0.0709
   17SAPS   H8R 2180   0.770   5.146   2.946  0.5699 -0.2308  0.6265
   17SAPS   C29 2181   0.735   5.201   3.149 -0.7293 -0.2777  0.0844
   17SAPS   H9R 2182   0.835   5.170   3.183  0.2128  1.9270 -0.4691
   17SAPS  C210 2183   0.644   5.254   3.251 -0.2037  0.8950  0.2752
   17SAPS  H10R 2184   0.651   5.190   3.342 -0.2467  0.5123  0.0098
   17SAPS  H10S 2185   0.537   5.255   3.222 -0.3246  1.0778  0.7168
   17SAPS  C211 2186   0.674   5.394   3.264 -0.1336 -1.0067 -0.8493
   17SAPS  H11R 2187   0.685   5.451   3.171 -0.2051 -1.3170 -1.0483
   17SAPS  C212 2188   0.677   5.474   3.375  0.4016 -0.1129  0.2508
   17SAPS  H12R 2189   0.686   5.583   3.362  0.2744  0.0453  1.3853
   17SAPS  C213 2190   0.667   5.433   3.517 -0.2463 -0.5435 -0.3107
   17SAPS  H13R 2191   0.656   5.323   3.515 -1.5414 -0.4286 -1.4634
   17SAPS  H13S 2192   0.566   5.459   3.556  0.9903 -0.5468  3.2690
   17SAPS  C214 2193   0.765   5.487   3.613 -0.5365  0.2070  0.2809
   17SAPS  H14R 2194   0.827   5.569   3.574  0.1348  0.2237  1.3402
   17SAPS  C215 2195   0.763   5.451   3.746 -0.9177 -0.4852  0.8323
   17SAPS  H15R 2196   0.855   5.474   3.801 -1.5712  0.8889  1.3977
   17SAPS  C216 2197   0.667   5.350   3.803 -0.6694 -0.0199  0.3101
   17SAPS  H16R 2198   0.715   5.250   3.809  0.1504  0.4290  1.7346
   17SAPS  H16S 2199   0.567   5.337   3.757 -0.7400  0.2473  0.3875
   17SAPS  C217 2200   0.628   5.386   3.948 -0.2746  0.4017  0.0464
   17SAPS  H17R 2201   0.615   5.497   3.950 -1.6097  0.2957 -1.1129
   17SAPS  H17S 2202   0.705   5.350   4.019  1.4474 -0.5444 -2.1990
   17SAPS  C218 2203   0.484   5.343   3.995 -0.2450  0.5610 -0.1195
   17SAPS  H18R 2204   0.501   5.234   4.014  0.2451  0.4490 -1.1386
   17SAPS  H18S 2205   0.411   5.351   3.912 -1.0463 -0.3281  0.4724
   17SAPS  C219 2206   0.426   5.407   4.121  0.1864 -0.5600  0.3174
   17SAPS  H19R 2207   0.415   5.515   4.097  0.8104 -0.7323 -0.8113
   17SAPS  H19S 2208   0.497   5.392   4.205 -0.4191 -0.4039  0.8722
   17SAPS  C220 2209   0.284   5.337   4.164 -0.8276  0.1402  0.1960
   17SAPS  H20R 2210   0.287   5.228   4.139  0.4531  0.3286 -0.5564
   17SAPS  H20S 2211   0.199   5.383   4.109 -0.5892 -0.1642 -0.4422
   17SAPS  H20T 2212   0.250   5.350   4.269 -1.9324  0.4145 -0.1782
   17SAPS   C33 2213   0.054   4.544   2.345  0.0992 -0.6996  0.5279
   17SAPS   H3X 2214  -0.054   4.531   2.368 -0.8431  3.0846 -0.9026
   17SAPS   H3Y 2215   0.093   4.639   2.389 -2.7720  0.9638 -0.2461
   17SAPS   C34 2216   0.139   4.424   2.397 -0.2219 -0.0632  0.4183
   17SAPS   H4X 2217   0.250   4.429   2.397 -0.1255  2.2768  4.4548
   17SAPS   H4Y 2218   0.116   4.333   2.338  2.0816 -0.5977  0.2485
   17SAPS   C35 2219   0.088   4.392   2.539  0.0122 -0.4108  0.2071
   17SAPS   H5X 2220  -0.021   4.381   2.520  0.2325  0.8842 -2.1437
   17SAPS   H5Y 2221   0.109   4.481   2.602  0.1948  0.1268 -0.5938
   17SAPS   C36 2222   0.149   4.268   2.603  0.3527 -0.4641  0.7382
   17SAPS   H6X 2223   0.157   4.286   2.712 -0.5275  0.0893  0.7251
   17SAPS   H6Y 2224   0.253   4.263   2.565 -0.1458 -1.4786 -0.6021
   17SAPS   C37 2225   0.074   4.141   2.561  0.2326 -0.0750 -0.6731
   17SAPS   H7X 2226   0.031   4.143   2.458 -1.0357 -1.8956 -0.2307
   17SAPS   H7Y 2227  -0.005   4.131   2.639  2.6141 -1.6071  1.7248
   17SAPS   C38 2228   0.173   4.021   2.581  0.2987  0.2895  0.3947
   17SAPS   H8X 2229   0.103   3.935   2.594 -0.9843  0.8219 -2.2046
   17SAPS   H8Y 2230   0.232   4.035   2.673 -1.2940 -0.1332  1.5276
   17SAPS   C39 2231   0.274   4.000   2.467  0.5691  0.9164 -0.2679
   17SAPS   H9X 2232   0.347   4.083   2.476 -0.9258  2.3708 -0.8663
   17SAPS   H9Y 2233   0.216   4.009   2.372 -1.5792 -1.1555  0.7324
   17SAPS  C310 2234   0.345   3.865   2.462 -0.1416 -1.0717 -0.0536
   17SAPS  H10X 2235   0.415   3.864   2.375 -0.3464 -0.4535 -0.2257
   17SAPS  H10Y 2236   0.265   3.789   2.449  0.2106 -1.3559 -0.5851
   17SAPS  C311 2237   0.424   3.832   2.591  0.6868  0.0634 -0.4705
   17SAPS  H11X 2238   0.379   3.874   2.683  0.2223 -0.5666 -0.4069
   17SAPS  H11Y 2239   0.517   3.893   2.591  1.9809 -1.8307 -1.1166
   17SAPS  C312 2240   0.448   3.678   2.615  0.0933 -0.4332  0.4309
   17SAPS  H12X 2241   0.355   3.620   2.634  0.9717 -1.6092  1.2701
   17SAPS  H12Y 2242   0.501   3.671   2.713  0.5612 -0.0051  0.2122
   17SAPS  C313 2243   0.540   3.618   2.509 -0.5721 -0.8622  0.2660
   17SAPS  H13X 2244   0.628   3.685   2.498  0.1413 -1.4264  2.0245
   17SAPS  H13Y 2245   0.483   3.628   2.414  1.1923  1.0929 -0.6637
   17SAPS  C314 2246   0.585   3.476   2.543 -0.8399 -0.2604 -0.0151
   17SAPS  H14X 2247   0.614   3.418   2.453 -2.5175 -2.1704  0.6201
   17SAPS  H14Y 2248   0.495   3.420   2.576 -0.4627  0.5948  2.7696
   17SAPS  C315 2249   0.708   3.467   2.644 -0.5659  0.4957 -0.1772
   17SAPS  H15X 2250   0.693   3.503   2.749  2.8501 -0.9190  0.9251
   17SAPS  H15Y 2251   0.777   3.546   2.609 -1.3416  0.8266 -1.0151
   17SAPS  C316 2252   0.772   3.329   2.638 -0.4024 -0.7387  0.5705
   17SAPS  H16X 2253   0.800   3.324   2.531 -0.0194  2.3783  0.4269
   17SAPS  H16Y 2254   0.701   3.246   2.660 -0.6930 -0.2747  1.4360
   17SAPS  C317 2255   0.900   3.322   2.727 -0.5776 -0.1984 -0.3028
   17SAPS  H17X 2256   0.975   3.400   2.705  1.2084 -1.9922 -0.8647
   17SAPS  H17Y 2257   0.941   3.223   2.696 -0.9770 -0.5660  0.3120
   17SAPS  C318 2258   0.880   3.332   2.882 -0.5751 -0.0875 -0.8775
   17SAPS  H18X 2259   0.799   3.258   2.902  0.7651 -1.6487 -1.0322
   17SAPS  H18Y 2260   0.856   3.429   2.930  1.8159  0.0011  0.2615
   17SAPS  H18Z 2261   0.972   3.297   2.934 -1.0958  1.0790  0.9080
   18SAPS     N 2262   5.033   5.107   1.916 -0.0773  0.2850  0.5515
   18SAPS   HN1 2263   4.988   5.171   1.984  0.3989  2.6514 -1.2369
   18SAPS   HN2 2264   5.042   5.009   1.951  2.5984 -0.3716 -1.6259
   18SAPS   HN3 2265   5.129   5.140   1.895  0.7827 -1.3458  1.7062
   18SAPS   C12 2266   4.951   5.089   1.795 -0.2052  0.5852  0.0329
   18SAPS  H12A 2267   4.864   5.038   1.832  0.3549  1.1623  2.2906
   18SAPS   C13 2268   4.903   5.218   1.725  0.0808  0.4314  0.2378
   18SAPS  O13A 2269   4.969   5.328   1.733  0.2868  0.4911 -0.3679
   18SAPS  O13B 2270   4.801   5.207   1.655 -0.0343  0.0351  0.0476
   18SAPS   C11 2271   5.036   5.004   1.690  0.7779  0.0207 -0.3560
   18SAPS  H11A 2272   5.134   5.053   1.678  0.1885  1.5424  0.7741
   18SAPS  H11B 2273   4.972   4.997   1.600  0.3443 -1.5106  0.0295
   18SAPS     P 2274   5.114   4.757   1.670 -0.1883  0.0918  0.3583
   18SAPS   O13 2275   5.042   4.750   1.538 -0.5423 -0.6321 -0.1792
   18SAPS   O14 2276   5.261   4.769   1.672  0.5064  0.3870 -0.5056
   18SAPS   O12 2277   5.054   4.877   1.754 -0.0419 -0.3768  0.5354
   18SAPS   O11 2278   5.063   4.639   1.758 -0.4181 -0.7207 -0.1106
   18SAPS    C1 2279   4.924   4.620   1.774 -0.3502  0.6919  0.6009
   18SAPS    HA 2280   4.861   4.642   1.685 -0.6401 -2.0753  0.0348
   18SAPS    HB 2281   4.917   4.509   1.782  1.1639  0.6447  1.6600
   18SAPS    C2 2282   4.871   4.682   1.902  0.2769 -0.9285 -0.1226
   18SAPS    HS 2283   4.869   4.792   1.893 -0.9738 -0.5469  3.2870
   18SAPS   O21 2284   4.940   4.631   2.018 -0.0903 -0.0400 -0.0074
   18SAPS   C21 2285   5.037   4.713   2.060  0.4917 -0.8829 -0.2217
   18SAPS   O22 2286   5.041   4.832   2.034  0.6907 -0.1434  0.1435
   18SAPS   C22 2287   5.128   4.638   2.145 -0.5022  0.0120 -0.3176
   18SAPS   H2R 2288   5.083   4.539   2.167 -1.0610 -0.4809 -3.3375
   18SAPS   H2S 2289   5.223   4.630   2.088 -1.9776 -0.2696 -2.8571
   18SAPS    C3 2290   4.722   4.641   1.921 -0.1481  0.0335 -0.2985
   18SAPS    HX 2291   4.716   4.532   1.945  2.9271 -0.3219 -0.7807
   18SAPS    HY 2292   4.654   4.638   1.833  0.5890  0.4893 -0.8941
   18SAPS   O31 2293   4.658   4.724   2.021 -0.4974  0.3873  0.4293
   18SAPS   C31 2294   4.655   4.670   2.145 -0.9232  0.0375  0.1778
   18SAPS   O32 2295   4.716   4.564   2.170 -0.3048 -0.6703  0.1907
   18SAPS   C32 2296   4.568   4.757   2.230 -0.1555  0.1688 -0.4734
   18SAPS   H2X 2297   4.466   4.750   2.188 -1.2424  1.0641  1.9140
   18SAPS   H2Y 2298   4.605   4.861   2.221 -0.6636  0.1990 -2.7895
   18SAPS   C23 2299   5.153   4.710   2.282  0.1010 -0.3253 -0.4617
   18SAPS   H3R 2300   5.207   4.804   2.261 -0.5378 -0.0839 -1.0591
   18SAPS   H3S 2301   5.218   4.645   2.345 -1.2825  1.6314  3.2947
   18SAPS   C24 2302   5.023   4.738   2.363 -0.1382  0.3688  0.2299
   18SAPS   H4R 2303   4.963   4.807   2.300 -0.8118 -0.2444  0.1819
   18SAPS   H4S 2304   5.066   4.778   2.458  0.5326 -0.7677  0.4170
   18SAPS   C25 2305   4.940   4.618   2.393 -0.2547 -0.2468 -0.1258
   18SAPS   H5R 2306   4.886   4.572   2.309  0.2774  0.4217 -0.8535
   18SAPS   C26 2307   4.921   4.566   2.518  0.2521 -0.0619  0.2429
   18SAPS   H6R 2308   4.855   4.479   2.530  0.4829 -0.0561  1.8656
   18SAPS   C27 2309   4.986   4.615   2.643  0.2269 -0.0819  0.3869
   18SAPS   H7R 2310   4.938   4.565   2.729 -0.8337 -2.1139 -1.2939
   18SAPS   H7S 2311   4.966   4.724   2.650  0.3416 -0.0156 -0.1878
   18SAPS   C28 2312   5.136   4.595   2.660 -0.2606  0.3721 -0.3083
   18SAPS   H8R 2313   5.184   4.513   2.605 -1.2713 -0.5939  0.2029
   18SAPS   C29 2314   5.214   4.690   2.710  0.2634 -0.3503  0.1735
   18SAPS   H9R 2315   5.323   4.674   2.704  0.1063 -1.1993 -0.7304
   18SAPS  C210 2316   5.172   4.819   2.781 -0.0845  0.2443  0.3948
   18SAPS  H10R 2317   5.062   4.835   2.790  0.0010  0.0052  2.0756
   18SAPS  H10S 2318   5.209   4.901   2.716 -0.0762 -0.9290 -1.1396
   18SAPS  C211 2319   5.236   4.834   2.913 -0.0898  0.5586 -0.1213
   18SAPS  H11R 2320   5.334   4.884   2.919  0.6637 -1.0018  1.2862
   18SAPS  C212 2321   5.191   4.817   3.037  0.1791  0.0905 -0.0445
   18SAPS  H12R 2322   5.266   4.835   3.116 -1.0009  2.2970  0.6612
   18SAPS  C213 2323   5.056   4.763   3.087 -0.9538  0.3406 -1.0338
   18SAPS  H13R 2324   5.009   4.693   3.015  0.0987  0.3715 -1.7747
   18SAPS  H13S 2325   4.984   4.845   3.107 -0.9109  0.3133 -0.7624
   18SAPS  C214 2326   5.064   4.687   3.219  0.0115 -0.1251 -0.1834
   18SAPS  H14R 2327   5.082   4.578   3.223 -1.3030 -0.4181 -1.4484
   18SAPS  C215 2328   5.056   4.748   3.337  0.1625 -0.1791 -0.1655
   18SAPS  H15R 2329   5.036   4.693   3.430 -1.0372 -0.8240 -0.7920
   18SAPS  C216 2330   5.041   4.900   3.351 -0.6103 -0.1914 -1.5310
   18SAPS  H16R 2331   4.941   4.944   3.336  0.1208  2.3329  0.3326
   18SAPS  H16S 2332   5.109   4.948   3.277  0.0703  0.2603 -0.6269
   18SAPS  C217 2333   5.094   4.938   3.493  0.1485 -0.4950  0.4553
   18SAPS  H17R 2334   5.201   4.910   3.504  0.2550  0.1982  1.3042
   18SAPS  H17S 2335   5.052   4.866   3.566 -3.1394  0.7589 -0.0141
   18SAPS  C218 2336   5.076   5.076   3.548  0.8680 -0.5457  0.7540
   18SAPS  H18R 2337   4.970   5.076   3.580  1.2794  1.8618  2.3420
   18SAPS  H18S 2338   5.085   5.147   3.463  0.1973 -0.9549  0.3284
   18SAPS  C219 2339   5.173   5.133   3.657  0.1244  0.1090 -0.7855
   18SAPS  H19R 2340   5.131   5.231   3.688 -0.4057 -0.3983  0.1544
   18SAPS  H19S 2341   5.278   5.150   3.626  0.2162 -1.0368 -1.1383
   18SAPS  C220 2342   5.160   5.046   3.790 -0.3518 -0.3212  0.0806
   18SAPS  H20R 2343   5.055   5.016   3.809 -0.4601 -0.9915 -1.4752
   18SAPS  H20S 2344   5.199   5.104   3.877  1.5231 -1.2004 -0.1115
   18SAPS  H20T 2345   5.218   4.952   3.780  0.7758  0.3029  0.5022
   18SAPS   C33 2346   4.570   4.711   2.374  0.0106  0.2018  0.1199
   18SAPS   H3X 2347   4.670   4.729   2.419 -0.7846 -3.3104  3.9382
   18SAPS   H3Y 2348   4.548   4.602   2.375  2.7139 -0.4043 -0.0566
   18SAPS   C34 2349   4.473   4.791   2.458  0.8321  0.1357 -0.7668
   18SAPS   H4X 2350   4.385   4.825   2.400  0.1163 -1.3330 -0.5741
   18SAPS   H4Y 2351   4.524   4.882   2.498 -0.4218  1.8341 -2.8190
   18SAPS   C35 2352   4.425   4.717   2.591 -0.3235  0.1938  0.0977
   18SAPS   H5X 2353   4.387   4.615   2.571 -1.9961  0.9959 -1.0312
   18SAPS   H5Y 2354   4.345   4.788   2.622  2.0933  2.7382  0.9476
   18SAPS   C36 2355   4.536   4.710   2.703 -0.0311 -0.4181  0.1592
   18SAPS   H6X 2356   4.531   4.808   2.754 -1.3829 -1.4397  2.1222
   18SAPS   H6Y 2357   4.636   4.712   2.653 -0.5574  0.0867 -0.9093
   18SAPS   C37 2358   4.523   4.603   2.811  0.6501  0.3221  0.0330
   18SAPS   H7X 2359   4.507   4.506   2.760 -1.3131  0.4427  0.3732
   18SAPS   H7Y 2360   4.432   4.621   2.872  1.1943  1.0802  0.6489
   18SAPS   C38 2361   4.637   4.606   2.907 -0.1669  0.3540  0.2260
   18SAPS   H8X 2362   4.649   4.709   2.948  2.2265 -0.0308  0.6444
   18SAPS   H8Y 2363   4.726   4.568   2.853 -0.8148  0.7090 -1.1612
   18SAPS   C39 2364   4.610   4.514   3.024 -0.4193 -0.0063  0.3630
   18SAPS   H9X 2365   4.578   4.411   2.998  1.4736 -0.6497  0.4073
   18SAPS   H9Y 2366   4.527   4.545   3.090 -0.4079 -1.0022  0.8488
   18SAPS  C310 2367   4.729   4.496   3.121 -0.6949 -0.2210 -0.2640
   18SAPS  H10X 2368   4.777   4.596   3.130 -0.6837 -0.2265 -0.2597
   18SAPS  H10Y 2369   4.808   4.434   3.073 -1.2888 -0.7777 -0.5323
   18SAPS  C311 2370   4.689   4.433   3.258 -0.0990 -0.2616 -0.0316
   18SAPS  H11X 2371   4.672   4.328   3.225  2.4628 -0.1946 -1.8691
   18SAPS  H11Y 2372   4.593   4.482   3.284  1.2385  2.3282  0.3397
   18SAPS  C312 2373   4.791   4.449   3.364  0.2748  0.0193 -0.0300
   18SAPS  H12X 2374   4.800   4.559   3.377 -0.8608  0.4361 -2.3084
   18SAPS  H12Y 2375   4.889   4.411   3.327  1.4338  1.6106  1.2366
   18SAPS  C313 2376   4.757   4.391   3.501 -0.3625  0.1963 -0.1187
   18SAPS  H13X 2377   4.760   4.280   3.502 -2.6025 -0.0342 -3.6630
   18SAPS  H13Y 2378   4.652   4.413   3.528 -0.2649 -0.0556  0.4831
   18SAPS  C314 2379   4.839   4.461   3.611  0.4410  0.4122  0.1592
   18SAPS  H14X 2380   4.845   4.566   3.575 -1.1180 -0.0481 -1.5915
   18SAPS  H14Y 2381   4.939   4.418   3.632 -0.5604  0.0027  5.5970
   18SAPS  C315 2382   4.762   4.454   3.741  0.5729 -0.6536  0.1559
   18SAPS  H15X 2383   4.750   4.347   3.767  2.4159 -0.1379  3.8855
   18SAPS  H15Y 2384   4.663   4.503   3.727  0.2183 -1.4516 -0.1929
   18SAPS  C316 2385   4.844   4.506   3.854  0.7123  0.1720  0.2390
   18SAPS  H16X 2386   4.902   4.594   3.818  1.9780 -0.4256  0.7410
   18SAPS  H16Y 2387   4.921   4.427   3.872 -0.8169 -2.1667 -2.6392
   18SAPS  C317 2388   4.758   4.559   3.973  0.9731  0.0500  0.3792
   18SAPS  H17X 2389   4.691   4.479   4.012  0.5117  0.3884  0.2952
   18SAPS  H17Y 2390   4.687   4.636   3.935  0.9601 -0.0784  0.1439
   18SAPS  C318 2391   4.840   4.612   4.098  0.1164 -0.4072  0.0550
   18SAPS  H18X 2392   4.926   4.672   4.060 -1.3897  1.4756 -0.5194
   18SAPS  H18Y 2393   4.879   4.529   4.160 -0.2123  0.9575  2.2035
   18SAPS  H18Z 2394   4.785   4.687   4.159  0.9596  0.3790 -0.1162
   19SAPS     N 2395   1.438   4.764   1.741 -0.0013  0.8056  0.2487
   19SAPS   HN1 2396   1.452   4.866   1.728  3.6039  0.7211  2.0335
   19SAPS   HN2 2397   1.380   4.721   1.666  1.9202  0.4942 -1.1414
   19SAPS   HN3 2398   1.376   4.747   1.823 -1.1096  1.2442 -0.4896
   19SAPS   C12 2399   1.569   4.692   1.764  0.4739 -0.5601  0.9170
   19SAPS  H12A 2400   1.544   4.587   1.776 -0.4002 -0.3796  0.7213
   19SAPS   C13 2401   1.668   4.713   1.649 -0.4695 -0.9342  0.2712
   19SAPS  O13A 2402   1.630   4.759   1.531 -0.1199 -0.0470  0.0946
   19SAPS  O13B 2403   1.784   4.673   1.668 -0.1151  0.8372  0.0183
   19SAPS   C11 2404   1.629   4.750   1.895  0.0473 -0.2205  0.2050
   19SAPS  H11A 2405   1.727   4.702   1.915  0.0251 -0.8958 -1.2380
   19SAPS  H11B 2406   1.564   4.716   1.979  0.7389 -2.8936 -0.2508
   19SAPS     P 2407   1.724   4.990   1.984 -0.1613  0.4429 -0.1164
   19SAPS   O13 2408   1.863   4.949   1.980 -0.5434 -0.2268  0.5173
   19SAPS   O14 2409   1.686   5.127   1.948  0.2632  1.1078 -0.6623
   19SAPS   O12 2410   1.639   4.901   1.888  0.7089  0.1279  0.4238
   19SAPS   O11 2411   1.657   4.957   2.120  0.3280 -0.0548 -0.0311
   19SAPS    C1 2412   1.516   4.967   2.149  0.5576  0.0864  0.3164
   19SAPS    HA 2413   1.468   5.053   2.097  0.8817 -1.3659 -2.5966
   19SAPS    HB 2414   1.468   4.871   2.120  2.2046 -0.6560 -0.0865
   19SAPS    C2 2415   1.493   5.012   2.290 -0.0125 -0.1710  0.0022
   19SAPS    HS 2416   1.539   5.111   2.313  0.6233 -0.9535  2.4182
   19SAPS   O21 2417   1.527   4.901   2.378 -0.1474  0.0912 -0.2197
   19SAPS   C21 2418   1.577   4.944   2.494 -0.3560  0.5517  0.1745
   19SAPS   O22 2419   1.606   5.057   2.524 -0.0408 -0.0729 -0.0346
   19SAPS   C22 2420   1.597   4.826   2.587  0.1381 -0.2505  0.0082
   19SAPS   H2R 2421   1.517   4.751   2.570  0.2520 -0.3786  0.0396
   19SAPS   H2S 2422   1.693   4.778   2.557 -0.5158 -1.5522 -0.0777
   19SAPS    C3 2423   1.340   5.043   2.311 -0.0174 -0.5604 -0.3053
   19SAPS    HX 2424   1.290   4.946   2.293 -0.8299 -0.1323 -0.3972
   19SAPS    HY 2425   1.315   5.129   2.244 -0.3741  0.3965  1.0090
   19SAPS   O31 2426   1.313   5.094   2.446 -0.0726 -0.1044 -0.3460
   19SAPS   C31 2427   1.345   5.223   2.479  0.4627 -0.3371 -0.1273
   19SAPS   O32 2428   1.406   5.295   2.401  0.2974 -0.4011 -0.3808
   19SAPS   C32 2429   1.306   5.248   2.627 -0.8863  0.6278  0.2821
   19SAPS   H2X 2430   1.324   5.159   2.691  0.3066  1.4574  1.1335
   19SAPS   H2Y 2431   1.202   5.288   2.636  0.2601  3.7438  0.8078
   19SAPS   C23 2432   1.603   4.856   2.739  0.5773 -0.6310  0.0598
   19SAPS   H3R 2433   1.672   4.939   2.762 -0.8635 -0.1773  3.2671
   19SAPS   H3S 2434   1.652   4.769   2.788 -0.6202 -2.2297 -1.4285
   19SAPS   C24 2435   1.469   4.877   2.798 -0.0977  0.3028 -0.3629
   19SAPS   H4R 2436   1.427   4.774   2.800 -1.8438  0.9070 -2.3122
   19SAPS   H4S 2437   1.390   4.928   2.738  1.6694  0.3196 -2.8197
   19SAPS   C25 2438   1.483   4.944   2.932 -0.6754  0.1120 -0.0536
   19SAPS   H5R 2439   1.487   5.053   2.924 -2.4038  0.4350  2.4471
   19SAPS   C26 2440   1.483   4.890   3.061  0.1366 -0.0043 -0.1904
   19SAPS   H6R 2441   1.491   4.954   3.150  0.9316 -0.0185 -0.2445
   19SAPS   C27 2442   1.487   4.745   3.092 -0.4900  0.4569  0.0137
   19SAPS   H7R 2443   1.517   4.687   3.002  0.6419  1.0398 -0.0085
   19SAPS   H7S 2444   1.389   4.705   3.127 -0.4366 -0.7815 -1.1611
   19SAPS   C28 2445   1.588   4.718   3.203 -0.0762 -0.2267  0.0224
   19SAPS   H8R 2446   1.693   4.707   3.170  0.3572  0.3094  1.1684
   19SAPS   C29 2447   1.563   4.724   3.333 -0.1544  0.4132 -0.5717
   19SAPS   H9R 2448   1.647   4.702   3.401 -1.0775  0.6479  0.6891
   19SAPS  C210 2449   1.432   4.772   3.389 -0.6458  0.2926  0.3179
   19SAPS  H10R 2450   1.390   4.696   3.458 -2.3859  0.0818 -0.9069
   19SAPS  H10S 2451   1.344   4.784   3.322 -1.4360  0.9757  1.4545
   19SAPS  C211 2452   1.450   4.892   3.478  0.6320  0.0752  0.1503
   19SAPS  H11R 2453   1.500   4.978   3.430 -1.1497  1.5041  0.7157
   19SAPS  C212 2454   1.422   4.900   3.609  0.6764  0.0697 -0.8015
   19SAPS  H12R 2455   1.446   4.991   3.666 -1.1339 -0.4460  0.8638
   19SAPS  C213 2456   1.348   4.800   3.687  0.5139  0.0027 -0.8443
   19SAPS  H13R 2457   1.400   4.703   3.672 -2.4507 -1.7716 -0.4485
   19SAPS  H13S 2458   1.247   4.785   3.642  1.2852  0.7977 -2.9237
   19SAPS  C214 2459   1.333   4.818   3.840  0.2641 -0.5832  0.1546
   19SAPS  H14R 2460   1.304   4.918   3.877  1.2908 -0.7234  1.4189
   19SAPS  C215 2461   1.342   4.721   3.934  0.2064 -0.4205  0.3872
   19SAPS  H15R 2462   1.339   4.753   4.039  0.8834 -0.4589  0.4219
   19SAPS  C216 2463   1.375   4.574   3.909  0.3544  0.0541 -0.1722
   19SAPS  H16R 2464   1.466   4.539   3.962  2.6345  0.8037 -3.3398
   19SAPS  H16S 2465   1.388   4.543   3.803  0.5746 -0.2012 -0.0704
   19SAPS  C217 2466   1.258   4.497   3.976 -0.4566 -0.4721 -0.3512
   19SAPS  H17R 2467   1.173   4.511   3.906 -0.9250  0.4746  0.3963
   19SAPS  H17S 2468   1.220   4.536   4.072  1.5861 -1.0953  0.7835
   19SAPS  C218 2469   1.286   4.342   3.986  0.5451  0.1456  1.1583
   19SAPS  H18R 2470   1.355   4.310   3.905  0.0177 -0.6248  1.0161
   19SAPS  H18S 2471   1.193   4.284   3.971  2.1468 -3.1229  2.9153
   19SAPS  C219 2472   1.349   4.301   4.118 -0.1617  0.0987  0.3539
   19SAPS  H19R 2473   1.267   4.321   4.190 -0.7069  1.7895 -0.6811
   19SAPS  H19S 2474   1.441   4.362   4.136  0.1378 -0.6193  1.3948
   19SAPS  C220 2475   1.384   4.155   4.139  0.1374  0.1433 -0.4623
   19SAPS  H20R 2476   1.295   4.088   4.137  1.4619 -1.6834 -0.9104
   19SAPS  H20S 2477   1.433   4.143   4.238  0.3432 -0.0797 -0.5892
   19SAPS  H20T 2478   1.453   4.109   4.065  0.0770 -2.8419  1.1806
   19SAPS   C33 2479   1.393   5.365   2.684  0.0116  0.4232 -0.2483
   19SAPS   H3X 2480   1.385   5.449   2.612  1.0788  0.5469 -0.2423
   19SAPS   H3Y 2481   1.501   5.339   2.697 -0.0660  0.7314  1.2617
   19SAPS   C34 2482   1.344   5.421   2.820 -0.2054  0.1882  0.5177
   19SAPS   H4X 2483   1.246   5.471   2.800 -0.7909 -1.1393 -0.0520
   19SAPS   H4Y 2484   1.414   5.500   2.855  0.3506  0.6495 -1.4600
   19SAPS   C35 2485   1.321   5.311   2.926  0.3410 -0.6743  0.7069
   19SAPS   H5X 2486   1.405   5.240   2.920  1.0727  0.2213 -0.0038
   19SAPS   H5Y 2487   1.231   5.256   2.890  1.8490 -1.6815 -1.7959
   19SAPS   C36 2488   1.291   5.362   3.076 -0.3394 -0.0940  0.2840
   19SAPS   H6X 2489   1.205   5.432   3.075  0.8053  1.3681 -1.0786
   19SAPS   H6Y 2490   1.380   5.423   3.101 -0.7095 -0.3464  2.4267
   19SAPS   C37 2491   1.263   5.251   3.182 -0.2401  0.2145  0.8047
   19SAPS   H7X 2492   1.360   5.200   3.201 -0.2418 -0.1684 -0.2027
   19SAPS   H7Y 2493   1.205   5.174   3.127 -1.5049  0.6181  1.5269
   19SAPS   C38 2494   1.191   5.293   3.312  0.8024  0.4450  0.1682
   19SAPS   H8X 2495   1.096   5.343   3.285  0.6824 -0.7466 -1.7400
   19SAPS   H8Y 2496   1.259   5.361   3.369  1.9111  0.1970 -0.8208
   19SAPS   C39 2497   1.167   5.176   3.403 -0.3115 -0.2415  0.3293
   19SAPS   H9X 2498   1.266   5.132   3.428  0.3295  0.4819 -0.8457
   19SAPS   H9Y 2499   1.110   5.091   3.358 -1.3343 -0.3366  1.7377
   19SAPS  C310 2500   1.076   5.211   3.521 -0.2812  0.0667  0.7645
   19SAPS  H10X 2501   0.968   5.229   3.506 -0.5680 -1.2878  1.1160
   19SAPS  H10Y 2502   1.125   5.296   3.574 -1.4946  0.6775  0.9584
   19SAPS  C311 2503   1.076   5.102   3.636 -0.9895  0.6131  0.6239
   19SAPS  H11X 2504   1.179   5.067   3.658 -0.9205  0.4662  0.0812
   19SAPS  H11Y 2505   1.011   5.017   3.607 -0.7740 -0.0692  2.0821
   19SAPS  C312 2506   1.028   5.156   3.767  0.2608 -0.3939  0.3998
   19SAPS  H12X 2507   0.986   5.072   3.827 -2.1149  0.3117 -0.1701
   19SAPS  H12Y 2508   0.950   5.233   3.750  3.1405  2.6615 -0.0631
   19SAPS  C313 2509   1.135   5.225   3.854  0.2554 -0.3457 -0.3495
   19SAPS  H13X 2510   1.195   5.302   3.799 -1.2330  1.4506  0.4565
   19SAPS  H13Y 2511   1.209   5.150   3.888  1.8191  1.2860  0.0269
   19SAPS  C314 2512   1.070   5.297   3.974 -0.1438 -0.4875  0.5869
   19SAPS  H14X 2513   1.018   5.386   3.933  1.3876 -0.0094 -0.4012
   19SAPS  H14Y 2514   1.139   5.331   4.054  1.5729 -0.5844 -0.7928
   19SAPS  C315 2515   0.967   5.213   4.055 -0.0299  0.1227 -0.0670
   19SAPS  H15X 2516   0.997   5.110   4.085  0.7698  0.4513  0.2732
   19SAPS  H15Y 2517   0.878   5.190   3.993  0.8317  1.4498 -1.8765
   19SAPS  C316 2518   0.921   5.282   4.189 -0.3692 -0.4006  0.0941
   19SAPS  H16X 2519   0.873   5.381   4.177  1.1926  0.2927 -0.7212
   19SAPS  H16Y 2520   1.014   5.297   4.249  1.0521 -0.6410 -1.9395
   19SAPS  C317 2521   0.827   5.190   4.272  0.2683 -0.4417 -0.3055
   19SAPS  H17X 2522   0.867   5.090   4.301  1.9461  0.1789 -0.3746
   19SAPS  H17Y 2523   0.743   5.169   4.203 -0.7007  1.1836  0.3262
   19SAPS  C318 2524   0.771   5.252   4.402  0.1792 -0.4162 -0.5336
   19SAPS  H18X 2525   0.858   5.292   4.458  0.0199  0.3519 -0.8313
   19SAPS  H18Y 2526   0.715   5.173   4.457 -1.3795  1.5393  0.8277
   19SAPS  H18Z 2527   0.705   5.340   4.389 -2.3520 -2.3117 -1.4486
   20SAPS     N 2528   5.118   0.179   1.933 -0.1633  0.0990 -0.3065
   20SAPS   HN1 2529   5.086   0.083   1.910 -2.1827  0.6599 -0.0612
   20SAPS   HN2 2530   5.152   0.188   2.031  2.6461 -0.9873 -1.0777
   20SAPS   HN3 2531   5.037   0.242   1.914  0.7355  1.0149 -1.2220
   20SAPS   C12 2532   5.221   0.225   1.837  0.8469  0.3084  0.2142
   20SAPS  H12A 2533   5.303   0.154   1.841 -0.3281 -1.3500 -2.2956
   20SAPS   C13 2534   5.170   0.230   1.689  0.2415 -0.6103 -0.5623
   20SAPS  O13A 2535   5.068   0.160   1.653  0.0894 -0.3284 -0.7155
   20SAPS  O13B 2536   5.245   0.283   1.609 -0.3967 -0.4730  0.5464
   20SAPS   C11 2537   5.296   0.349   1.883  0.1422  0.0942  0.8638
   20SAPS  H11A 2538   5.230   0.438   1.871 -0.4848 -0.0353  3.0511
   20SAPS  H11B 2539   5.387   0.357   1.819  0.4923 -1.8671  1.0637
   20SAPS     P 2540   5.316   0.442   2.126 -0.2409 -0.5567 -0.1085
   20SAPS   O13 2541   5.386   0.408   2.247 -0.0957 -0.0004 -0.0133
   20SAPS   O14 2542   5.338   0.577   2.063 -0.0919 -0.1235 -0.3116
   20SAPS   O12 2543   5.344   0.333   2.018 -0.1927 -0.3194  0.3148
   20SAPS   O11 2544   5.160   0.426   2.144 -0.2257 -0.1050  0.0673
   20SAPS    C1 2545   5.079   0.531   2.204  0.1544 -0.2986 -0.2301
   20SAPS    HA 2546   5.124   0.633   2.204 -0.9083  0.1936 -1.2798
   20SAPS    HB 2547   4.980   0.546   2.156 -0.5176 -1.9418  0.5710
   20SAPS    C2 2548   5.047   0.505   2.351  0.3185 -0.5619  0.6793
   20SAPS    HS 2549   4.970   0.576   2.388  1.5550 -0.1189  2.5383
   20SAPS   O21 2550   5.160   0.526   2.434  0.0587  0.2593  0.3867
   20SAPS   C21 2551   5.154   0.620   2.526 -0.5683  0.3465  0.8893
   20SAPS   O22 2552   5.075   0.711   2.532  0.2989  0.3073  0.1544
   20SAPS   C22 2553   5.273   0.604   2.625  0.2142 -0.5045  0.2357
   20SAPS   H2R 2554   5.272   0.505   2.675 -0.8054 -0.1724  0.9077
   20SAPS   H2S 2555   5.360   0.629   2.561 -0.0764 -0.1945 -0.0408
   20SAPS    C3 2556   4.991   0.359   2.376 -0.7445  0.1796  0.3806
   20SAPS    HX 2557   5.067   0.288   2.336 -1.0367  0.8144 -1.4103
   20SAPS    HY 2558   4.914   0.345   2.297  2.4649 -0.1636 -2.9634
   20SAPS   O31 2559   4.955   0.321   2.511 -0.1453  0.0022  0.0220
   20SAPS   C31 2560   5.046   0.257   2.588  0.4336  0.0275 -0.2002
   20SAPS   O32 2561   5.148   0.206   2.541 -0.4166 -0.1752 -0.3354
   20SAPS   C32 2562   5.000   0.251   2.736 -0.4930  0.5102 -0.3580
   20SAPS   H2X 2563   4.989   0.142   2.751  0.6597  0.5046  0.5475
   20SAPS   H2Y 2564   4.902   0.304   2.732 -1.7304 -1.6806 -0.4132
   20SAPS   C23 2565   5.270   0.704   2.746  0.1797 -0.2153 -0.5026
   20SAPS   H3R 2566   5.193   0.675   2.821  1.1919  1.4395  1.2686
   20SAPS   H3S 2567   5.236   0.806   2.720 -1.3075 -0.7565 -0.7574
   20SAPS   C24 2568   5.417   0.708   2.803 -0.5388  0.3150 -0.8717
   20SAPS   H4R 2569   5.415   0.789   2.878  2.8518 -0.3070  0.0456
   20SAPS   H4S 2570   5.492   0.735   2.726 -0.3135 -1.2873 -1.2604
   20SAPS   C25 2571   5.448   0.579   2.863 -0.2920 -0.7140  0.2553
   20SAPS   H5R 2572   5.455   0.492   2.797  0.8430  0.1701 -0.8567
   20SAPS   C26 2573   5.481   0.551   2.989 -0.4230  0.1147  0.9804
   20SAPS   H6R 2574   5.530   0.455   3.008  1.8894  0.9927 -0.2129
   20SAPS   C27 2575   5.509   0.649   3.102  0.8398  0.1476 -0.2525
   20SAPS   H7R 2576   5.559   0.735   3.052 -0.6864  0.4676 -1.3194
   20SAPS   H7S 2577   5.590   0.610   3.167  0.3585  1.2942  1.0768
   20SAPS   C28 2578   5.382   0.702   3.171  0.0999  0.7872 -0.5245
   20SAPS   H8R 2579   5.291   0.695   3.110  0.6317  2.4798 -1.5784
   20SAPS   C29 2580   5.381   0.755   3.297  0.7445  0.0956 -0.6050
   20SAPS   H9R 2581   5.276   0.768   3.326 -0.1566 -1.2658 -3.0181
   20SAPS  C210 2582   5.492   0.766   3.401  0.6267 -0.1367  0.2047
   20SAPS  H10R 2583   5.588   0.773   3.345  0.0043  0.3891 -0.8384
   20SAPS  H10S 2584   5.495   0.669   3.454  0.5871  0.4802  1.3686
   20SAPS  C211 2585   5.482   0.876   3.502 -0.1676 -0.0312 -0.5480
   20SAPS  H11R 2586   5.531   0.969   3.469  1.4794 -0.9628 -0.8528
   20SAPS  C212 2587   5.419   0.878   3.619 -0.1833 -0.0566 -0.4409
   20SAPS  H12R 2588   5.413   0.975   3.670  2.4025  0.1732 -0.4495
   20SAPS  C213 2589   5.327   0.772   3.670  0.0971  0.3674  0.3623
   20SAPS  H13R 2590   5.342   0.767   3.780  2.5906  2.3438  0.2073
   20SAPS  H13S 2591   5.354   0.676   3.622 -0.1391  1.0657 -1.2574
   20SAPS  C214 2592   5.186   0.798   3.625 -0.1209  0.6395  0.5578
   20SAPS  H14R 2593   5.186   0.839   3.522 -2.0655  0.2542  0.3634
   20SAPS  C215 2594   5.072   0.781   3.700  0.3535 -0.8442  0.1065
   20SAPS  H15R 2595   4.977   0.793   3.645  0.8734  0.9784 -0.4545
   20SAPS  C216 2596   5.072   0.743   3.851  0.4619  0.2288  0.6278
   20SAPS  H16R 2597   5.164   0.774   3.905  0.9791 -0.5651  0.2248
   20SAPS  H16S 2598   5.080   0.633   3.870  1.3395 -0.3217 -2.4532
   20SAPS  C217 2599   4.950   0.809   3.919  0.0624 -0.7308 -0.8856
   20SAPS  H17R 2600   4.863   0.762   3.868 -0.7484  0.3377 -0.5238
   20SAPS  H17S 2601   4.941   0.917   3.894  1.2305 -0.8430 -1.9214
   20SAPS  C218 2602   4.947   0.779   4.070  0.9555 -0.0267  0.7039
   20SAPS  H18R 2603   4.970   0.671   4.081 -1.1767 -0.8525 -1.8202
   20SAPS  H18S 2604   4.839   0.788   4.094 -0.1455  1.5233 -3.9200
   20SAPS  C219 2605   5.037   0.876   4.150  0.4514  0.8665  0.5979
   20SAPS  H19R 2606   4.979   0.971   4.152  0.8075  1.2187 -2.0506
   20SAPS  H19S 2607   5.130   0.889   4.091  0.0966  1.8192  0.2310
   20SAPS  C220 2608   5.064   0.819   4.293 -0.9644  0.3425  0.3747
   20SAPS  H20R 2609   5.110   0.718   4.290 -0.5753  0.5378 -0.6287
   20SAPS  H20S 2610   4.968   0.804   4.348 -1.1463 -0.8547 -0.2299
   20SAPS  H20T 2611   5.126   0.883   4.358  0.6391 -2.5816  1.9230
   20SAPS   C33 2612   5.101   0.315   2.834 -1.1695  0.3297  0.3013
   20SAPS   H3X 2613   5.095   0.426   2.823  1.3766  0.6480  1.3875
   20SAPS   H3Y 2614   5.205   0.284   2.811 -1.9360 -2.8690  0.7010
   20SAPS   C34 2615   5.066   0.284   2.976 -0.7334 -0.6375 -0.2053
   20SAPS   H4X 2616   5.049   0.176   2.997 -0.7391 -0.0651  3.5496
   20SAPS   H4Y 2617   4.977   0.336   3.018 -0.0108 -0.1601  0.7859
   20SAPS   C35 2618   5.190   0.327   3.063  0.0839 -0.0570  0.1459
   20SAPS   H5X 2619   5.204   0.437   3.061 -0.8171  0.0947 -2.7434
   20SAPS   H5Y 2620   5.281   0.283   3.017  0.4580  2.6180 -1.8696
   20SAPS   C36 2621   5.177   0.293   3.214  0.2421  0.0551 -0.4189
   20SAPS   H6X 2622   5.074   0.324   3.242 -0.4686  0.4090 -3.1460
   20SAPS   H6Y 2623   5.257   0.345   3.271  0.9143 -0.6434 -0.6998
   20SAPS   C37 2624   5.176   0.137   3.242 -0.2365  0.4742  0.2347
   20SAPS   H7X 2625   5.269   0.086   3.206 -0.0120  2.5912 -2.4376
   20SAPS   H7Y 2626   5.092   0.093   3.184 -0.7988  2.0795 -0.2005
   20SAPS   C38 2627   5.159   0.105   3.390  0.3161  0.1558  0.3392
   20SAPS   H8X 2628   5.084   0.169   3.442  0.4036 -0.7559  1.6576
   20SAPS   H8Y 2629   5.259   0.134   3.429 -0.4464  1.1220  1.6768
   20SAPS   C39 2630   5.125  -0.039   3.426  0.0429  0.0514  0.2477
   20SAPS   H9X 2631   5.209  -0.101   3.390  0.5490  1.2932 -0.8020
   20SAPS   H9Y 2632   5.031  -0.077   3.381 -0.4704  0.6375  0.7972
   20SAPS  C310 2633   5.111  -0.049   3.583  0.5476 -0.1526 -0.3533
   20SAPS  H10X 2634   5.030   0.014   3.626  1.2375  0.2084  0.4273
   20SAPS  H10Y 2635   5.213  -0.017   3.611  0.0586  2.9248 -1.6501
   20SAPS  C311 2636   5.079  -0.192   3.624 -0.0842  0.0912 -0.0425
   20SAPS  H11X 2637   5.107  -0.263   3.544  0.6909  0.3766 -0.0309
   20SAPS  H11Y 2638   4.970  -0.205   3.643 -0.6613 -0.0062 -2.9795
   20SAPS  C312 2639   5.151  -0.243   3.752  0.3195 -0.1931  0.3694
   20SAPS  H12X 2640   5.123  -0.168   3.829  0.8724  1.1072 -0.6731
   20SAPS  H12Y 2641   5.261  -0.224   3.753 -0.2327  3.7341 -0.3892
   20SAPS  C313 2642   5.111  -0.384   3.798  0.4633  0.3278  0.8409
   20SAPS  H13X 2643   5.013  -0.370   3.847  1.3962  0.4303  2.7520
   20SAPS  H13Y 2644   5.173  -0.404   3.888 -0.4910  0.6410  1.5764
   20SAPS  C314 2645   5.124  -0.485   3.692 -0.9067  0.2724  0.1688
   20SAPS  H14X 2646   5.228  -0.477   3.652 -1.3685  2.7068 -0.7440
   20SAPS  H14Y 2647   5.058  -0.463   3.606 -0.2845 -0.5741 -0.5490
   20SAPS  C315 2648   5.093  -0.628   3.749 -0.6325  0.1384 -0.5988
   20SAPS  H15X 2649   4.988  -0.647   3.778 -0.2334 -3.0420 -0.9044
   20SAPS  H15Y 2650   5.149  -0.647   3.844 -2.3566 -0.0170  0.4271
   20SAPS  C316 2651   5.134  -0.742   3.655  0.5279  0.3075 -0.3022
   20SAPS  H16X 2652   5.122  -0.842   3.702  1.5922  0.6397  0.7064
   20SAPS  H16Y 2653   5.239  -0.731   3.620  0.5008  0.6947 -0.2549
   20SAPS  C317 2654   5.048  -0.735   3.527  0.5127  0.5749  0.2780
   20SAPS  H17X 2655   5.069  -0.638   3.476 -1.7139  0.5172 -0.9018
   20SAPS  H17Y 2656   4.942  -0.743   3.559 -0.0433  0.1718 -1.5352
   20SAPS  C318 2657   5.065  -0.841   3.417 -0.0264  0.3214  0.2590
   20SAPS  H18X 2658   5.173  -0.865   3.410 -0.4807 -1.3605 -2.1591
   20SAPS  H18Y 2659   5.034  -0.823   3.311  0.5772  0.0235  0.0333
   20SAPS  H18Z 2660   5.018  -0.933   3.458 -1.3173  0.3730 -1.0266
   21CHL1    C3 2661   2.219   3.424   6.032  0.1896  0.4655 -0.1292
   21CHL1    H3 2662   2.313   3.483   6.026  2.3516 -2.5980  1.1955
   21CHL1    O3 2663   2.210   3.376   6.159  0.0298 -0.1350  0.5135
   21CHL1   H3' 2664   2.224   3.459   6.206 -0.2680  0.6981 -0.8246
   21CHL1    C4 2665   2.091   3.502   6.001  0.1175  0.3191 -0.1729
   21CHL1   H4A 2666   2.010   3.427   6.012  0.1442  0.3325  0.1147
   21CHL1   H4B 2667   2.071   3.579   6.079 -0.4689 -0.3485  0.3413
   21CHL1    C5 2668   2.088   3.553   5.858  0.1023 -0.3695 -0.1750
   21CHL1    C6 2669   2.078   3.685   5.836  0.1518  0.0831 -0.2178
   21CHL1    H6 2670   2.052   3.756   5.916 -2.2578  0.0234 -0.8708
   21CHL1    C7 2671   2.084   3.734   5.693 -0.0611 -0.2066 -0.0506
   21CHL1   H7A 2672   2.015   3.819   5.674  0.2971  0.4720  1.5017
   21CHL1   H7B 2673   2.191   3.764   5.688  0.2928 -1.4000  0.1600
   21CHL1    C8 2674   2.077   3.634   5.580  0.2936  0.3558  0.6563
   21CHL1    H8 2675   1.971   3.606   5.566 -0.5436  2.0141  2.9103
   21CHL1   C14 2676   2.131   3.685   5.456 -0.1513 -0.1165 -0.0017
   21CHL1   H14 2677   2.236   3.719   5.474 -0.2190  0.9451 -1.4149
   21CHL1   C15 2678   2.068   3.809   5.391 -0.0568 -0.3400 -0.6597
   21CHL1  H15A 2679   1.963   3.778   5.374  0.0390 -0.3627 -1.2294
   21CHL1  H15B 2680   2.067   3.897   5.460  2.9680 -0.8697  0.2146
   21CHL1   C16 2681   2.140   3.827   5.262 -0.1658  0.4108  0.0982
   21CHL1  H16A 2682   2.067   3.874   5.192 -1.1588 -1.8992 -0.5270
   21CHL1  H16B 2683   2.230   3.887   5.285 -0.9000  0.5812  2.8788
   21CHL1   C17 2684   2.176   3.683   5.224  0.5578 -0.0468  0.5260
   21CHL1   H17 2685   2.286   3.674   5.236  0.4569 -1.4844  0.5692
   21CHL1   C13 2686   2.126   3.585   5.338 -0.6382 -0.0831  0.6823
   21CHL1   C18 2687   1.982   3.531   5.307 -0.2494 -0.3191  0.1980
   21CHL1  H18A 2688   1.918   3.612   5.267  0.5552 -0.6264 -1.8590
   21CHL1  H18B 2689   1.984   3.448   5.233 -3.1100 -1.3654  1.1631
   21CHL1  H18C 2690   1.933   3.492   5.399  1.1840 -1.2276  0.6079
   21CHL1   C12 2691   2.223   3.469   5.370  0.9647 -0.3376 -0.1064
   21CHL1  H12A 2692   2.224   3.391   5.291  0.3601  0.2838 -0.7316
   21CHL1  H12B 2693   2.323   3.516   5.382  1.1705 -0.9260  0.5437
   21CHL1   C11 2694   2.181   3.410   5.502  1.0012  0.3633 -0.4777
   21CHL1  H11A 2695   2.080   3.365   5.494  1.4756 -1.3530  1.9932
   21CHL1  H11B 2696   2.247   3.325   5.528  0.9208  0.4957  0.1861
   21CHL1    C9 2697   2.166   3.515   5.620 -0.4344 -0.1427 -0.4166
   21CHL1    H9 2698   2.273   3.546   5.629  0.2402 -1.5414 -2.6973
   21CHL1   C10 2699   2.120   3.445   5.752  0.2889 -0.9188 -0.4045
   21CHL1   C19 2700   1.996   3.352   5.732 -0.2328 -0.2203 -0.4238
   21CHL1  H19A 2701   1.917   3.398   5.669 -0.0115  0.0116 -0.5348
   21CHL1  H19B 2702   2.035   3.264   5.677  0.7137  0.6643 -1.2068
   21CHL1  H19C 2703   1.961   3.316   5.831 -0.0073  1.0987  0.1650
   21CHL1    C1 2704   2.247   3.359   5.788 -0.1299  0.1652 -0.1786
   21CHL1   H1A 2705   2.266   3.276   5.717 -0.6607  0.7562 -1.0348
   21CHL1   H1B 2706   2.341   3.419   5.790 -0.8062  1.2203  1.3877
   21CHL1    C2 2707   2.238   3.310   5.936 -0.3645 -0.7450  0.3791
   21CHL1   H2A 2708   2.327   3.250   5.965 -0.3027 -1.6245 -1.4951
   21CHL1   H2B 2709   2.155   3.238   5.944  0.9390 -2.2426  0.9366
   21CHL1   C20 2710   2.143   3.643   5.074  0.0858 -0.4758 -0.4853
   21CHL1   H20 2711   2.035   3.617   5.068  0.5239 -2.2837 -0.8438
   21CHL1   C21 2712   2.208   3.512   5.039  0.6438 -0.6188  0.0590
   21CHL1  H21A 2713   2.194   3.485   4.933 -0.9366  0.9274 -0.1671
   21CHL1  H21B 2714   2.166   3.431   5.103 -1.1287 -0.4428 -0.8371
   21CHL1  H21C 2715   2.317   3.510   5.061  0.7988 -2.5124 -0.6771
   21CHL1   C22 2716   2.172   3.762   4.976 -0.7880 -0.7093  0.3947
   21CHL1  H22A 2717   2.136   3.861   5.011  0.2441  0.0322 -0.5773
   21CHL1  H22B 2718   2.282   3.770   4.975 -0.7399 -0.7554  2.1701
   21CHL1   C23 2719   2.108   3.731   4.836  0.5638 -0.9111  0.8092
   21CHL1  H23A 2720   2.156   3.644   4.787 -0.5277  1.1688 -4.5778
   21CHL1  H23B 2721   2.000   3.715   4.855 -0.2026  1.6221 -0.8407
   21CHL1   C24 2722   2.132   3.843   4.736  0.4367  0.1182  1.2248
   21CHL1  H24A 2723   2.128   3.934   4.800 -1.4077 -0.2870  1.7353
   21CHL1  H24B 2724   2.233   3.837   4.690  0.2844  1.8113  0.5904
   21CHL1   C25 2725   2.019   3.863   4.630 -0.8251 -0.1400 -0.2342
   21CHL1   H25 2726   2.060   3.949   4.571 -1.2260  1.0581  1.1756
   21CHL1   C26 2727   1.980   3.741   4.540  0.5340 -0.1316  0.5745
   21CHL1  H26A 2728   2.061   3.675   4.501  1.9578  0.5941  2.1433
   21CHL1  H26B 2729   1.915   3.679   4.606  1.0005 -0.7904  0.4292
   21CHL1  H26C 2730   1.917   3.773   4.455  2.5854 -0.4489 -1.1404
   21CHL1   C27 2731   1.889   3.928   4.690  0.2959  0.0092  0.2448
   21CHL1  H27A 2732   1.922   4.002   4.767  0.3750 -0.0368  0.2550
   21CHL1  H27B 2733   1.818   3.975   4.618  1.6458 -0.7036 -1.6115
   21CHL1  H27C 2734   1.830   3.855   4.750 -2.8445  1.4229 -0.8866
   22CHL1    C3 2735   5.467   2.552   5.596 -0.0045 -0.1441  0.1813
   22CHL1    H3 2736   5.362   2.585   5.580 -0.6188 -3.1289 -3.1920
   22CHL1    O3 2737   5.524   2.613   5.714 -0.1109 -0.7301 -0.3487
   22CHL1   H3' 2738   5.452   2.662   5.754  0.4727 -1.3812  1.6094
   22CHL1    C4 2739   5.456   2.402   5.603 -0.0705 -0.2198  0.3609
   22CHL1   H4A 2740   5.557   2.369   5.637 -0.9129 -0.7938  2.4881
   22CHL1   H4B 2741   5.397   2.360   5.688 -0.3233 -1.4518 -0.3931
   22CHL1    C5 2742   5.398   2.341   5.475 -0.0694 -0.7069 -0.4540
   22CHL1    C6 2743   5.292   2.261   5.471  0.0618  0.2064  0.0235
   22CHL1    H6 2744   5.257   2.217   5.565 -0.1440 -2.9835 -1.4405
   22CHL1    C7 2745   5.223   2.215   5.345 -0.5008  0.6327 -0.1937
   22CHL1   H7A 2746   5.181   2.114   5.363  2.0477 -0.2218  1.4084
   22CHL1   H7B 2747   5.135   2.276   5.315  0.2352  0.8992 -1.9702
   22CHL1    C8 2748   5.314   2.218   5.221  0.4316  0.2529  1.1104
   22CHL1    H8 2749   5.385   2.133   5.227  0.5011 -0.0858 -2.5259
   22CHL1   C14 2750   5.234   2.208   5.088  0.4453  0.1072 -0.1605
   22CHL1   H14 2751   5.177   2.303   5.094 -0.6275 -0.5984  2.0824
   22CHL1   C15 2752   5.124   2.104   5.071  0.4039 -0.0988 -0.2414
   22CHL1  H15A 2753   5.175   2.008   5.098  0.7122  0.3589  0.8695
   22CHL1  H15B 2754   5.045   2.136   5.142  1.3641  0.5843  0.5494
   22CHL1   C16 2755   5.093   2.123   4.923  0.5867 -0.0301 -0.6263
   22CHL1  H16A 2756   5.098   2.024   4.872  0.1460 -1.1209  1.3225
   22CHL1  H16B 2757   4.994   2.171   4.909  0.1368 -0.1557  1.7049
   22CHL1   C17 2758   5.197   2.225   4.858 -0.1161  0.3646  0.2314
   22CHL1   H17 2759   5.152   2.325   4.873 -0.8359  0.3044 -1.3253
   22CHL1   C13 2760   5.308   2.216   4.959  0.3120 -0.0874 -0.3287
   22CHL1   C18 2761   5.399   2.093   4.941 -0.7918  0.7147  0.3861
   22CHL1  H18A 2762   5.467   2.074   5.027  1.4197 -0.8217 -1.5729
   22CHL1  H18B 2763   5.335   2.004   4.925 -3.0365  2.4013 -0.5132
   22CHL1  H18C 2764   5.475   2.105   4.861  0.6897  1.4329  1.8365
   22CHL1   C12 2765   5.387   2.353   4.972 -0.1338  0.1840 -0.2702
   22CHL1  H12A 2766   5.456   2.357   4.885 -0.5619 -0.6318 -0.6511
   22CHL1  H12B 2767   5.316   2.439   4.965 -0.3533 -0.0845 -1.3684
   22CHL1   C11 2768   5.474   2.354   5.091 -0.5885  0.3931 -0.4848
   22CHL1  H11A 2769   5.552   2.276   5.080 -1.4262 -0.3701 -1.1991
   22CHL1  H11B 2770   5.514   2.458   5.088 -0.4797  0.3716 -3.8740
   22CHL1    C9 2771   5.388   2.346   5.220  0.5194 -0.4532 -0.8345
   22CHL1    H9 2772   5.306   2.422   5.217  0.6050 -0.3815 -1.4509
   22CHL1   C10 2773   5.470   2.390   5.354  0.0268  0.0228  0.5559
   22CHL1   C19 2774   5.607   2.324   5.345 -0.1414  0.4365  0.1757
   22CHL1  H19A 2775   5.663   2.358   5.436 -0.6121 -1.4177  1.2084
   22CHL1  H19B 2776   5.592   2.215   5.360  0.6928  0.0078 -1.8120
   22CHL1  H19C 2777   5.667   2.343   5.254  0.8111  4.9219  1.4753
   22CHL1    C1 2778   5.476   2.547   5.356  0.8667 -0.0106 -0.4420
   22CHL1   H1A 2779   5.514   2.595   5.263 -0.9759  3.7981  0.6003
   22CHL1   H1B 2780   5.372   2.579   5.379  1.1853 -0.1706  1.2865
   22CHL1    C2 2781   5.546   2.605   5.479  0.3095 -0.2620 -0.7085
   22CHL1   H2A 2782   5.549   2.716   5.483  1.0656 -0.2835 -0.2611
   22CHL1   H2B 2783   5.650   2.564   5.478  1.2456  1.8863 -2.9597
   22CHL1   C20 2784   5.225   2.189   4.713 -0.1348  0.1044  0.6927
   22CHL1   H20 2785   5.265   2.086   4.705  0.3450  0.4114 -1.7650
   22CHL1   C21 2786   5.331   2.287   4.652  0.0472  0.0163 -0.1046
   22CHL1  H21A 2787   5.308   2.393   4.674  1.3612  0.8650 -2.4313
   22CHL1  H21B 2788   5.330   2.296   4.541 -1.7347 -0.0062 -0.1237
   22CHL1  H21C 2789   5.436   2.266   4.682  0.2901  0.0436 -0.9148
   22CHL1   C22 2790   5.093   2.195   4.627 -0.2406  0.6207  0.3835
   22CHL1  H22A 2791   5.006   2.153   4.683 -0.7727 -0.4755 -1.2104
   22CHL1  H22B 2792   5.064   2.302   4.619  1.1549  1.1266  1.5476
   22CHL1   C23 2793   5.103   2.106   4.499  0.8432  0.0590  0.6476
   22CHL1  H23A 2794   5.192   2.124   4.436  0.3676  1.6539  0.3911
   22CHL1  H23B 2795   5.103   2.004   4.545  1.7552  0.1663  0.8970
   22CHL1   C24 2796   4.983   2.111   4.403 -0.1138  0.2101 -0.3321
   22CHL1  H24A 2797   4.893   2.113   4.468  2.0307 -2.2257  3.0276
   22CHL1  H24B 2798   4.992   2.210   4.353 -0.4317  0.4340  0.0486
   22CHL1   C25 2799   4.974   1.999   4.299  0.2339  0.2637 -0.3973
   22CHL1   H25 2800   4.895   2.017   4.223 -1.6122 -2.3009  0.7569
   22CHL1   C26 2801   5.105   1.966   4.220  0.5093 -0.4573  0.3290
   22CHL1  H26A 2802   5.152   2.061   4.186 -0.2334 -0.9340 -2.2296
   22CHL1  H26B 2803   5.177   1.922   4.293  0.7607 -0.0584  0.3263
   22CHL1  H26C 2804   5.092   1.904   4.129 -0.9753  0.9784 -0.5018
   22CHL1   C27 2805   4.935   1.873   4.381  0.5166 -0.3078 -0.2745
   22CHL1  H27A 2806   5.032   1.834   4.420  1.2274  0.3313 -1.3540
   22CHL1  H27B 2807   4.850   1.883   4.452 -0.1865 -0.4243 -1.0890
   22CHL1  H27C 2808   4.902   1.788   4.317 -0.4558 -1.6139  1.8249
   23CHL1    C3 2809   0.323   3.334   5.890 -0.0614  0.3275 -0.3222
   23CHL1    H3 2810   0.322   3.427   5.829  1.0667  0.8633  0.4473
   23CHL1    O3 2811   0.253   3.361   6.007  0.1381  0.6944 -0.0632
   23CHL1   H3' 2812   0.273   3.290   6.069  1.3079  1.0370 -0.0164
   23CHL1    C4 2813   0.271   3.203   5.821 -0.4626  0.1507 -0.3661
   23CHL1   H4A 2814   0.284   3.118   5.892 -1.3941  0.2398 -0.0718
   23CHL1   H4B 2815   0.164   3.226   5.801 -0.6170 -0.3370 -0.1201
   23CHL1    C5 2816   0.345   3.176   5.696  0.3130 -1.3774 -0.0598
   23CHL1    C6 2817   0.285   3.183   5.573  0.1169 -0.6629 -0.5357
   23CHL1    H6 2818   0.176   3.197   5.562  0.0912 -2.1244 -2.6188
   23CHL1    C7 2819   0.362   3.134   5.448 -0.8065  0.2086  0.1386
   23CHL1   H7A 2820   0.302   3.061   5.389 -2.0321  0.9845  0.3945
   23CHL1   H7B 2821   0.375   3.221   5.380 -1.7865  0.3797  0.1585
   23CHL1    C8 2822   0.504   3.067   5.483 -0.7653 -0.2220 -0.6888
   23CHL1    H8 2823   0.486   2.962   5.517 -1.0068 -0.4602 -1.5273
   23CHL1   C14 2824   0.587   3.052   5.355  0.6716  0.2348  0.6916
   23CHL1   H14 2825   0.591   3.153   5.310 -0.9119 -0.2593 -0.6565
   23CHL1   C15 2826   0.527   2.968   5.244  0.3564  0.2716 -0.0485
   23CHL1  H15A 2827   0.465   2.885   5.285  0.2410  0.7816  0.8156
   23CHL1  H15B 2828   0.461   3.027   5.177  0.7722  0.0487 -0.6609
   23CHL1   C16 2829   0.651   2.923   5.165 -0.2256  0.3253  0.3470
   23CHL1  H16A 2830   0.652   2.812   5.155  0.5862  0.3024  0.6048
   23CHL1  H16B 2831   0.636   2.969   5.064 -1.3760 -0.1447  0.2881
   23CHL1   C17 2832   0.781   2.981   5.230  0.2088 -0.0793 -0.3734
   23CHL1   H17 2833   0.802   3.079   5.183 -1.2021  0.2993 -0.2410
   23CHL1   C13 2834   0.727   3.004   5.377 -0.2900 -0.2064  0.3094
   23CHL1   C18 2835   0.739   2.863   5.446 -0.0013 -0.2702 -0.1478
   23CHL1  H18A 2836   0.677   2.786   5.395 -2.9004  2.2821 -0.7887
   23CHL1  H18B 2837   0.841   2.831   5.472 -0.3153 -0.6652  0.6132
   23CHL1  H18C 2838   0.682   2.858   5.541 -0.5449 -1.0097 -0.5046
   23CHL1   C12 2839   0.797   3.110   5.461 -0.0114 -0.2056 -0.5631
   23CHL1  H12A 2840   0.902   3.078   5.477  1.1497  3.7980  1.0715
   23CHL1  H12B 2841   0.796   3.207   5.406  2.3076  0.3403  0.2342
   23CHL1   C11 2842   0.724   3.122   5.596 -0.0773  0.0113  0.4570
   23CHL1  H11A 2843   0.752   3.033   5.656  0.6272  0.1452  0.3364
   23CHL1  H11B 2844   0.771   3.208   5.649  1.3986  0.2133 -1.1147
   23CHL1    C9 2845   0.573   3.156   5.584 -0.0149  0.2499  0.2853
   23CHL1    H9 2846   0.566   3.262   5.551  2.3815  0.1741 -0.6354
   23CHL1   C10 2847   0.503   3.152   5.724 -0.1378 -0.5698  0.1335
   23CHL1   C19 2848   0.521   3.017   5.796 -0.1149  0.6380  0.1446
   23CHL1  H19A 2849   0.485   2.931   5.735  0.5560  0.0451  0.5604
   23CHL1  H19B 2850   0.631   3.000   5.805  0.6109  2.8498 -2.9744
   23CHL1  H19C 2851   0.461   3.012   5.890 -0.9566  1.0784 -0.3633
   23CHL1    C1 2852   0.553   3.270   5.809  0.3851 -0.0537 -0.3114
   23CHL1   H1A 2853   0.657   3.251   5.843  0.9207  1.7897 -0.8171
   23CHL1   H1B 2854   0.555   3.361   5.746  1.3657  0.8640  0.9747
   23CHL1    C2 2855   0.467   3.308   5.934  0.4362 -0.4849 -0.3666
   23CHL1   H2A 2856   0.514   3.399   5.977  2.0907 -1.5401  0.1820
   23CHL1   H2B 2857   0.476   3.227   6.009 -0.5627  0.3085  0.6281
   23CHL1   C20 2858   0.909   2.888   5.205  0.2076 -0.8029  0.2488
   23CHL1   H20 2859   0.886   2.785   5.241 -0.1916 -1.1038 -0.8217
   23CHL1   C21 2860   1.030   2.954   5.273  0.1880  0.8461  0.9641
   23CHL1  H21A 2861   1.032   3.063   5.250  1.3933  0.6503  0.0361
   23CHL1  H21B 2862   1.126   2.905   5.245 -0.9455 -1.1970  0.4331
   23CHL1  H21C 2863   1.016   2.952   5.383  1.0796  1.6949  1.1053
   23CHL1   C22 2864   0.944   2.882   5.050 -0.6711  0.3438  0.1747
   23CHL1  H22A 2865   0.926   2.982   5.007 -1.1047 -0.2994 -1.2097
   23CHL1  H22B 2866   1.054   2.871   5.040 -0.5622  2.0384 -0.6618
   23CHL1   C23 2867   0.881   2.770   4.961  0.6745 -0.2571  0.3929
   23CHL1  H23A 2868   0.906   2.670   5.001  1.1225  0.2219  1.3494
   23CHL1  H23B 2869   0.773   2.794   4.958  0.8490  0.8111  1.5061
   23CHL1   C24 2870   0.950   2.773   4.825 -0.1797  0.3262 -0.0431
   23CHL1  H24A 2871   1.059   2.776   4.843 -0.2772 -0.3186  0.6517
   23CHL1  H24B 2872   0.930   2.684   4.761  3.7166  0.0878 -1.1779
   23CHL1   C25 2873   0.894   2.895   4.747 -0.2920  0.0871  0.0916
   23CHL1   H25 2874   0.895   2.981   4.818  3.6294  0.8218 -0.6200
   23CHL1   C26 2875   0.991   2.930   4.631 -0.3609  0.6558 -0.9762
   23CHL1  H26A 2876   0.941   3.017   4.583  0.4834  0.3780 -2.4066
   23CHL1  H26B 2877   1.094   2.952   4.665 -0.0647 -0.7701 -0.9074
   23CHL1  H26C 2878   1.003   2.850   4.555  1.9230  1.9718 -2.0945
   23CHL1   C27 2879   0.750   2.880   4.698 -0.3001  0.7023 -0.3892
   23CHL1  H27A 2880   0.685   2.862   4.786  0.5307 -2.8749 -0.3449
   23CHL1  H27B 2881   0.705   2.955   4.629 -1.5528 -0.6683 -1.1111
   23CHL1  H27C 2882   0.758   2.783   4.644  1.1115  1.3124 -1.3491
   24CHL1    C3 2883   4.919   3.523   5.739 -0.2579 -0.3410 -0.4760
   24CHL1    H3 2884   4.814   3.486   5.740 -0.9615  1.4903 -1.0443
   24CHL1    O3 2885   4.958   3.549   5.870 -0.2272  0.1627  0.2281
   24CHL1   H3' 2886   4.904   3.621   5.901 -0.7951 -0.2844  0.2951
   24CHL1    C4 2887   5.006   3.406   5.692  0.4537  0.1111  0.4641
   24CHL1   H4A 2888   5.113   3.437   5.697  0.7747 -1.0193  0.9793
   24CHL1   H4B 2889   4.991   3.326   5.768  0.6576 -0.1889  0.1889
   24CHL1    C5 2890   4.959   3.363   5.549 -0.4134 -0.0209 -0.6837
   24CHL1    C6 2891   4.902   3.252   5.514 -0.6108  0.3114  0.0681
   24CHL1    H6 2892   4.878   3.177   5.590  2.0193 -0.5177  0.1667
   24CHL1    C7 2893   4.865   3.225   5.375 -0.0311 -0.2675 -0.3676
   24CHL1   H7A 2894   4.879   3.117   5.355  1.5578  0.1890 -2.0032
   24CHL1   H7B 2895   4.757   3.252   5.377  0.1955  0.6788  1.2820
   24CHL1    C8 2896   4.942   3.313   5.273 -0.3422  0.6092  0.0425
   24CHL1    H8 2897   5.050   3.290   5.274 -0.5592 -0.6960 -1.6039
   24CHL1   C14 2898   4.882   3.282   5.132 -0.2786 -0.5651 -0.2215
   24CHL1   H14 2899   4.776   3.314   5.141 -0.1905 -0.0320 -1.0534
   24CHL1   C15 2900   4.875   3.140   5.074  0.3668  0.0848  0.0075
   24CHL1  H15A 2901   4.965   3.089   5.115  0.2775  0.9244  1.3193
   24CHL1  H15B 2902   4.783   3.094   5.117  0.3775  1.4809  1.6502
   24CHL1   C16 2903   4.869   3.152   4.921 -0.2610  0.3233 -0.3019
   24CHL1  H16A 2904   4.969   3.118   4.888 -0.2646 -0.1239  0.1464
   24CHL1  H16B 2905   4.794   3.083   4.877  0.9751 -0.5163 -1.1461
   24CHL1   C17 2906   4.861   3.309   4.899 -0.2366 -0.4419  0.0384
   24CHL1   H17 2907   4.754   3.333   4.916 -0.1397  0.8529 -1.0467
   24CHL1   C13 2908   4.934   3.374   5.015 -0.5309  0.4604  0.0193
   24CHL1   C18 2909   5.084   3.351   4.996  0.1512 -0.0921 -1.1263
   24CHL1  H18A 2910   5.114   3.424   4.917  0.6117 -1.2870 -2.0930
   24CHL1  H18B 2911   5.143   3.383   5.084  1.8663 -1.5284 -1.6942
   24CHL1  H18C 2912   5.107   3.248   4.960 -0.9234 -0.5025 -0.6746
   24CHL1   C12 2913   4.911   3.521   5.049 -0.1619 -0.5008 -0.3695
   24CHL1  H12A 2914   4.941   3.588   4.966  1.8557 -0.5016  0.3203
   24CHL1  H12B 2915   4.800   3.526   5.061 -0.1208 -0.5369  0.0304
   24CHL1   C11 2916   4.964   3.555   5.193  0.3467 -0.2642  0.3173
   24CHL1  H11A 2917   5.074   3.563   5.181  0.2345  1.1048  0.0633
   24CHL1  H11B 2918   4.940   3.661   5.218  2.8012  0.7100 -1.0130
   24CHL1    C9 2919   4.919   3.454   5.315 -0.1575 -0.5972  0.1267
   24CHL1    H9 2920   4.809   3.467   5.318 -0.1580 -0.8395  2.1499
   24CHL1   C10 2921   4.971   3.492   5.453 -0.7569  0.8729  0.1307
   24CHL1   C19 2922   5.116   3.535   5.436 -0.3923  0.3588 -0.2490
   24CHL1  H19A 2923   5.131   3.623   5.370 -2.9855  1.1157  0.0596
   24CHL1  H19B 2924   5.175   3.558   5.528  0.5566  0.0598 -0.7650
   24CHL1  H19C 2925   5.175   3.459   5.381  0.2898 -0.0386  0.9726
   24CHL1    C1 2926   4.894   3.614   5.503  0.0508 -0.0344  0.5908
   24CHL1   H1A 2927   4.920   3.702   5.440  0.4372  0.1344  0.9747
   24CHL1   H1B 2928   4.786   3.588   5.497  0.7948 -3.3030 -1.3725
   24CHL1    C2 2929   4.931   3.647   5.649  0.3475  0.5495  0.2793
   24CHL1   H2A 2930   4.848   3.715   5.676 -0.5835  0.1522 -1.4921
   24CHL1   H2B 2931   5.031   3.696   5.657  0.4673  0.3932 -0.1997
   24CHL1   C20 2932   4.895   3.344   4.759  0.5304  0.2425  0.1830
   24CHL1   H20 2933   4.995   3.302   4.732  0.5220  0.5071 -0.2816
   24CHL1   C21 2934   4.904   3.493   4.733 -0.5691  0.3706  0.2605
   24CHL1  H21A 2935   4.818   3.551   4.774 -0.3526  0.9661 -0.1142
   24CHL1  H21B 2936   4.923   3.527   4.629  1.6584 -0.5969  0.2913
   24CHL1  H21C 2937   4.999   3.535   4.773  1.9818 -1.1506 -3.6765
   24CHL1   C22 2938   4.812   3.272   4.653  0.6201 -0.5877  0.9047
   24CHL1  H22A 2939   4.772   3.174   4.688  2.7282 -0.7290  3.1494
   24CHL1  H22B 2940   4.719   3.332   4.649  1.7877  1.2293 -0.0395
   24CHL1   C23 2941   4.858   3.278   4.513 -0.3874  0.3262 -0.5491
   24CHL1  H23A 2942   4.850   3.382   4.476  0.1292  1.0078  1.1393
   24CHL1  H23B 2943   4.962   3.238   4.510 -0.6698 -0.3383 -1.7953
   24CHL1   C24 2944   4.782   3.202   4.407  0.2003 -0.3354  0.4639
   24CHL1  H24A 2945   4.782   3.092   4.424 -1.0476 -0.3845  0.2469
   24CHL1  H24B 2946   4.677   3.238   4.397  0.7733  1.6249  1.0541
   24CHL1   C25 2947   4.852   3.214   4.268 -0.3038 -0.5434  0.3583
   24CHL1   H25 2948   4.961   3.195   4.281 -0.1534  0.5755  0.8655
   24CHL1   C26 2949   4.798   3.100   4.181 -0.5674 -0.1095 -0.0137
   24CHL1  H26A 2950   4.688   3.108   4.165 -0.2563  0.1366 -2.3125
   24CHL1  H26B 2951   4.856   3.102   4.086  0.0672  0.5232  0.3798
   24CHL1  H26C 2952   4.822   3.003   4.231 -0.2924  1.8191  4.0148
   24CHL1   C27 2953   4.835   3.349   4.197 -0.1276 -0.6579 -0.4136
   24CHL1  H27A 2954   4.727   3.375   4.188  0.1387  0.2492 -1.2346
   24CHL1  H27B 2955   4.879   3.437   4.249  0.3458  1.0230 -3.3822
   24CHL1  H27C 2956   4.868   3.355   4.091 -0.2726 -0.3279 -0.4444
   25CHL1    C3 2957   0.291   1.547   5.959 -0.1846 -0.4906 -0.4028
   25CHL1    H3 2958   0.242   1.447   5.967 -0.4563 -0.2423  1.6977
   25CHL1    O3 2959   0.289   1.615   6.087 -0.7722  0.5651  0.0816
   25CHL1   H3' 2960   0.318   1.699   6.050 -0.0793 -0.0798 -0.8918
   25CHL1    C4 2961   0.445   1.524   5.917  0.1846  0.1228  0.3117
   25CHL1   H4A 2962   0.500   1.620   5.929  1.5283 -0.5469 -0.2802
   25CHL1   H4B 2963   0.495   1.454   5.987  0.6389  1.4291  1.3389
   25CHL1    C5 2964   0.457   1.467   5.779  0.1422 -0.2212  0.1971
   25CHL1    C6 2965   0.517   1.350   5.756  0.2746  0.2337 -0.1354
   25CHL1    H6 2966   0.549   1.298   5.847 -1.4801  0.9323  0.9357
   25CHL1    C7 2967   0.520   1.281   5.624  0.4148  0.3602  0.6867
   25CHL1   H7A 2968   0.613   1.221   5.627  0.6450  0.6495 -0.3195
   25CHL1   H7B 2969   0.437   1.208   5.619  0.7927 -0.1239  1.3379
   25CHL1    C8 2970   0.508   1.381   5.504  0.2133  0.5280  0.8115
   25CHL1    H8 2971   0.601   1.441   5.494 -0.8592  1.9281 -2.1391
   25CHL1   C14 2972   0.490   1.299   5.380 -0.4482  1.2020  0.2918
   25CHL1   H14 2973   0.407   1.226   5.388 -0.2408  1.0691  1.5499
   25CHL1   C15 2974   0.620   1.210   5.345 -0.3516  0.0900  0.3041
   25CHL1  H15A 2975   0.712   1.272   5.342 -0.0903 -0.3259 -0.4851
   25CHL1  H15B 2976   0.639   1.125   5.415 -0.4171  1.9338  2.6749
   25CHL1   C16 2977   0.595   1.173   5.199 -0.0621  0.5476  0.5146
   25CHL1  H16A 2978   0.693   1.178   5.147 -0.1733 -3.5566 -0.4475
   25CHL1  H16B 2979   0.570   1.065   5.194  0.2585  0.5129 -3.4985
   25CHL1   C17 2980   0.474   1.256   5.149  0.4355  0.3675 -0.9304
   25CHL1   H17 2981   0.378   1.205   5.173  0.7711  0.7657  1.4656
   25CHL1   C13 2982   0.465   1.374   5.251  1.3178  0.1871 -0.7737
   25CHL1   C18 2983   0.577   1.475   5.225  0.0280 -0.5105 -0.0533
   25CHL1  H18A 2984   0.675   1.432   5.196 -0.7612 -0.5028 -3.1139
   25CHL1  H18B 2985   0.543   1.557   5.158 -0.9402  0.4729  1.5949
   25CHL1  H18C 2986   0.603   1.531   5.317  2.2357  1.5743 -1.8143
   25CHL1   C12 2987   0.332   1.457   5.285  0.1062 -0.0275 -0.2027
   25CHL1  H12A 2988   0.313   1.527   5.201  3.1193 -0.6126 -1.4963
   25CHL1  H12B 2989   0.244   1.390   5.287 -0.3984  0.6156  1.6842
   25CHL1   C11 2990   0.357   1.552   5.409  0.3262  0.0622  0.2588
   25CHL1  H11A 2991   0.430   1.631   5.384 -0.8945  0.4207 -2.5981
   25CHL1  H11B 2992   0.260   1.604   5.428 -0.4003 -1.1010 -0.0985
   25CHL1    C9 2993   0.387   1.466   5.529  0.7847 -0.5991 -0.2799
   25CHL1    H9 2994   0.296   1.403   5.521 -0.3605  1.1285 -1.5157
   25CHL1   C10 2995   0.388   1.545   5.670 -0.2278  0.4173  0.5248
   25CHL1   C19 2996   0.467   1.675   5.655 -0.2574  0.6954  0.5484
   25CHL1  H19A 2997   0.555   1.648   5.593  1.2269  0.8093  2.5061
   25CHL1  H19B 2998   0.409   1.752   5.599 -0.6837  0.3206  0.4697
   25CHL1  H19C 2999   0.506   1.730   5.743  0.4854 -0.1718  0.7764
   25CHL1    C1 3000   0.244   1.576   5.710 -0.1614 -0.2507  0.2437
   25CHL1   H1A 3001   0.190   1.649   5.646  0.5546  0.7021  0.6980
   25CHL1   H1B 3002   0.188   1.481   5.699 -2.3167  0.9545  0.1243
   25CHL1    C2 3003   0.219   1.631   5.848  0.5341 -0.3508  0.1018
   25CHL1   H2A 3004   0.117   1.624   5.891  1.2492 -1.8779  1.6552
   25CHL1   H2B 3005   0.249   1.737   5.859  0.0536 -0.3777  2.0374
   25CHL1   C20 3006   0.476   1.277   5.003  0.9526  0.3920  0.1210
   25CHL1   H20 3007   0.562   1.343   4.979  0.3454  0.8287 -0.9079
   25CHL1   C21 3008   0.347   1.349   4.950  0.8603  0.4046 -0.4582
   25CHL1  H21A 3009   0.348   1.442   5.011 -3.2219  0.4822 -0.2024
   25CHL1  H21B 3010   0.245   1.309   4.972  0.3983  1.0861 -1.3250
   25CHL1  H21C 3011   0.343   1.387   4.846 -0.9958 -2.8500 -1.7396
   25CHL1   C22 3012   0.512   1.145   4.921  0.7077  0.2357 -0.2291
   25CHL1  H22A 3013   0.609   1.103   4.954 -0.7393 -3.0071  0.2076
   25CHL1  H22B 3014   0.429   1.073   4.939  2.4331 -2.3541 -2.0380
   25CHL1   C23 3015   0.510   1.172   4.767  0.0874 -0.1255  0.0722
   25CHL1  H23A 3016   0.412   1.212   4.734  0.2718  1.3212  1.1753
   25CHL1  H23B 3017   0.597   1.239   4.748 -1.6498  1.5126 -2.8048
   25CHL1   C24 3018   0.517   1.038   4.685  0.2470 -0.1537  0.4246
   25CHL1  H24A 3019   0.612   0.992   4.720  1.0098 -1.1058 -2.5696
   25CHL1  H24B 3020   0.427   0.977   4.706 -1.3199  1.3273 -1.6385
   25CHL1   C25 3021   0.508   1.057   4.527 -0.4476 -0.1777  0.0007
   25CHL1   H25 3022   0.426   1.129   4.501  0.4352  0.5536 -0.8310
   25CHL1   C26 3023   0.636   1.124   4.465  0.2309  0.3552  0.1762
   25CHL1  H26A 3024   0.669   1.214   4.522  1.4684 -0.0880  0.1852
   25CHL1  H26B 3025   0.712   1.044   4.464  0.5713  0.6230 -2.4348
   25CHL1  H26C 3026   0.618   1.155   4.359  2.0407  1.1200  0.0578
   25CHL1   C27 3027   0.463   0.932   4.449 -0.3457 -0.0702 -0.5553
   25CHL1  H27A 3028   0.431   0.960   4.347 -2.0126  0.7197  0.1534
   25CHL1  H27B 3029   0.549   0.862   4.437  0.3576  0.3627  1.4920
   25CHL1  H27C 3030   0.377   0.888   4.505 -1.8191  4.4923  1.2246
   26CHL1    C3 3031   5.469   1.258   5.942  0.0683 -0.3061 -0.7594
   26CHL1    H3 3032   5.412   1.352   5.932 -0.4892 -0.4912  0.5731
   26CHL1    O3 3033   5.517   1.253   6.073 -0.0399 -0.4641  0.5016
   26CHL1   H3' 3034   5.572   1.331   6.078 -2.1748  1.4858 -2.9501
   26CHL1    C4 3035   5.371   1.141   5.917 -0.2311  0.3442 -0.1183
   26CHL1   H4A 3036   5.410   1.042   5.952  0.3463 -0.3658 -2.5659
   26CHL1   H4B 3037   5.284   1.153   5.984  1.7549  2.0199  2.3649
   26CHL1    C5 3038   5.325   1.134   5.774 -0.1609 -0.8336  0.3911
   26CHL1    C6 3039   5.191   1.133   5.746 -0.2426 -0.2078  0.0310
   26CHL1    H6 3040   5.112   1.131   5.821 -1.2764 -0.4527 -1.0396
   26CHL1    C7 3041   5.138   1.131   5.606  0.9113 -0.1446 -0.5123
   26CHL1   H7A 3042   5.052   1.062   5.603  0.2230  0.6849 -0.2016
   26CHL1   H7B 3043   5.098   1.232   5.581 -1.7898 -1.1746 -0.5688
   26CHL1    C8 3044   5.254   1.084   5.510  0.4841 -0.2406 -0.3145
   26CHL1    H8 3045   5.260   0.974   5.528 -0.7141 -0.3432 -0.4599
   26CHL1   C14 3046   5.198   1.113   5.370  0.0715 -0.8570  0.2771
   26CHL1   H14 3047   5.182   1.222   5.378  0.1723 -0.9748  4.0283
   26CHL1   C15 3048   5.063   1.055   5.331  0.2864  0.7074  0.0537
   26CHL1  H15A 3049   5.055   0.946   5.350 -0.8339  0.5330 -1.2629
   26CHL1  H15B 3050   4.970   1.092   5.381  0.3343 -0.0719  0.7479
   26CHL1   C16 3051   5.051   1.077   5.186  0.6521 -0.0820 -0.3671
   26CHL1  H16A 3052   5.009   0.989   5.133  0.7389 -0.5684  0.3538
   26CHL1  H16B 3053   4.982   1.162   5.174 -0.3330 -0.1537  3.4385
   26CHL1   C17 3054   5.191   1.122   5.133  0.0832  0.6124  0.3050
   26CHL1   H17 3055   5.191   1.233   5.132  1.7731  0.6319 -0.2241
   26CHL1   C13 3056   5.289   1.082   5.245 -0.2835 -0.5437  0.3737
   26CHL1   C18 3057   5.323   0.930   5.244  1.0636 -0.4268 -0.7056
   26CHL1  H18A 3058   5.413   0.919   5.181  2.7858  0.8675  1.3780
   26CHL1  H18B 3059   5.364   0.905   5.344  0.8599  1.2997 -0.1578
   26CHL1  H18C 3060   5.240   0.864   5.211 -0.1957  1.3770 -1.3110
   26CHL1   C12 3061   5.418   1.173   5.263 -0.2556  0.2142  0.0076
   26CHL1  H12A 3062   5.494   1.146   5.188 -1.0899  2.3515 -1.6877
   26CHL1  H12B 3063   5.378   1.276   5.256  0.1922  0.2887 -1.7559
   26CHL1   C11 3064   5.479   1.154   5.407 -0.9132 -0.3025 -0.0237
   26CHL1  H11A 3065   5.520   1.052   5.419 -1.3530 -0.3788  0.9426
   26CHL1  H11B 3066   5.562   1.224   5.427 -1.2682 -0.8344  4.2746
   26CHL1    C9 3067   5.378   1.169   5.527 -0.5693 -0.6743 -0.3971
   26CHL1    H9 3068   5.346   1.275   5.524  0.0549 -0.3223  2.4474
   26CHL1   C10 3069   5.439   1.142   5.668  0.3997 -0.9934  0.5858
   26CHL1   C19 3070   5.514   1.007   5.677 -0.1337 -0.4599  0.3895
   26CHL1  H19A 3071   5.556   0.974   5.774  0.8780 -2.3501 -0.6387
   26CHL1  H19B 3072   5.441   0.932   5.639 -1.2361  0.0055  1.5099
   26CHL1  H19C 3073   5.600   1.015   5.607 -1.0155  1.5196 -0.5321
   26CHL1    C1 3074   5.539   1.255   5.707 -0.5411 -0.5355  0.0475
   26CHL1   H1A 3075   5.626   1.236   5.642 -0.9262  0.6265 -0.8458
   26CHL1   H1B 3076   5.505   1.358   5.684 -1.0996 -0.4992  0.9535
   26CHL1    C2 3077   5.589   1.256   5.850 -0.0178  0.3862 -0.4202
   26CHL1   H2A 3078   5.657   1.343   5.864 -2.2870  2.2653 -0.4594
   26CHL1   H2B 3079   5.638   1.157   5.863 -1.3561 -0.1152  1.1363
   26CHL1   C20 3080   5.208   1.086   4.984  0.0852  0.2752 -0.1491
   26CHL1   H20 3081   5.210   0.975   4.979  2.0700  0.1498  2.0689
   26CHL1   C21 3082   5.346   1.128   4.935 -0.0746 -0.5252  0.3736
   26CHL1  H21A 3083   5.367   1.081   4.837 -0.5673 -1.1630  0.5650
   26CHL1  H21B 3084   5.417   1.080   5.005 -1.8106 -0.6901  2.1224
   26CHL1  H21C 3085   5.353   1.237   4.918 -0.4064 -0.7256 -1.2165
   26CHL1   C22 3086   5.086   1.140   4.910 -0.5190 -0.2761  0.7177
   26CHL1  H22A 3087   4.983   1.103   4.932 -0.9356  0.3374 -0.1613
   26CHL1  H22B 3088   5.094   1.250   4.923  1.1515  0.0812 -2.4454
   26CHL1   C23 3089   5.100   1.117   4.753  0.8139  0.2117  0.5600
   26CHL1  H23A 3090   5.188   1.168   4.707 -0.0240  0.7863 -0.4621
   26CHL1  H23B 3091   5.111   1.008   4.734 -1.3850  0.5324 -3.6056
   26CHL1   C24 3092   4.968   1.164   4.684 -0.4317 -0.3696 -1.0393
   26CHL1  H24A 3093   4.883   1.103   4.720  0.2879 -1.6119 -1.3868
   26CHL1  H24B 3094   4.952   1.269   4.715  1.5840 -0.0865 -0.8039
   26CHL1   C25 3095   4.966   1.171   4.535  1.6807  0.1694  0.5366
   26CHL1   H25 3096   4.982   1.064   4.509 -0.9210 -0.9683  3.0971
   26CHL1   C26 3097   4.823   1.195   4.483  0.6753  0.1656  0.6663
   26CHL1  H26A 3098   4.795   1.301   4.503  1.5554  0.4371  0.4907
   26CHL1  H26B 3099   4.810   1.186   4.373 -0.7760 -0.0760  0.8348
   26CHL1  H26C 3100   4.753   1.121   4.528  2.6673 -2.3686 -0.1884
   26CHL1   C27 3101   5.067   1.264   4.480  0.0143  0.1198 -0.3699
   26CHL1  H27A 3102   5.051   1.287   4.373 -2.3768  0.7425  0.0744
   26CHL1  H27B 3103   5.058   1.363   4.530  1.3423 -0.2274  0.6256
   26CHL1  H27C 3104   5.172   1.227   4.490  0.1644  0.3385 -1.1301
   27CHL1    C3 3105   3.340   3.044   5.982  0.1457 -0.6441  0.0342
   27CHL1    H3 3106   3.321   3.152   5.965 -1.6791 -0.7292  1.2920
   27CHL1    O3 3107   3.347   3.029   6.124 -0.1520 -0.4462 -0.0404
   27CHL1   H3' 3108   3.333   2.935   6.136 -1.6018 -0.4636 -1.4769
   27CHL1    C4 3109   3.219   2.964   5.924 -0.0566 -0.2548  0.1658
   27CHL1   H4A 3110   3.219   2.857   5.954  0.1602 -0.7033 -1.3508
   27CHL1   H4B 3111   3.126   3.005   5.969  0.3212 -2.3683  3.1781
   27CHL1    C5 3112   3.219   2.960   5.773 -0.3590  0.0313 -0.7975
   27CHL1    C6 3113   3.125   3.022   5.706 -0.4001  0.1208  0.3482
   27CHL1    H6 3114   3.039   3.068   5.755 -0.9979 -1.3872  0.7847
   27CHL1    C7 3115   3.115   3.026   5.555  0.4220 -0.2707 -0.7281
   27CHL1   H7A 3116   3.014   3.001   5.517  1.0490 -0.3482 -2.4548
   27CHL1   H7B 3117   3.125   3.127   5.510 -3.5421  0.5786 -0.0400
   27CHL1    C8 3118   3.217   2.925   5.488  0.3083 -0.1499  0.2037
   27CHL1    H8 3119   3.171   2.824   5.493  1.9178 -0.9199  0.0721
   27CHL1   C14 3120   3.241   2.970   5.346 -0.0214 -0.2847 -0.0447
   27CHL1   H14 3121   3.298   3.065   5.335  3.9672 -2.5143 -0.7833
   27CHL1   C15 3122   3.113   2.978   5.261 -0.2008  0.6034  0.7686
   27CHL1  H15A 3123   3.054   2.885   5.268  1.5194 -0.5779  0.1026
   27CHL1  H15B 3124   3.054   3.069   5.290 -1.6803 -0.0754 -0.0210
   27CHL1   C16 3125   3.173   2.991   5.113  0.2452  0.7494 -0.3155
   27CHL1  H16A 3126   3.111   2.938   5.036  2.7081 -4.1885  0.6984
   27CHL1  H16B 3127   3.177   3.100   5.097 -0.6362  0.7311 -0.7331
   27CHL1   C17 3128   3.321   2.944   5.119 -0.0073 -0.3832 -0.2228
   27CHL1   H17 3129   3.383   3.036   5.117 -2.4416  1.5047  2.2555
   27CHL1   C13 3130   3.343   2.889   5.262 -0.1548  0.0673  0.3643
   27CHL1   C18 3131   3.295   2.740   5.272  0.4886  0.0855 -0.2518
   27CHL1  H18A 3132   3.193   2.731   5.230 -0.0462 -1.3439  1.2391
   27CHL1  H18B 3133   3.369   2.678   5.217  0.8393  0.2343  0.0447
   27CHL1  H18C 3134   3.289   2.695   5.373 -0.0831 -0.5183 -0.5490
   27CHL1   C12 3135   3.479   2.896   5.323  0.1856  0.1076 -0.5197
   27CHL1  H12A 3136   3.565   2.844   5.276  1.2860 -0.2551  1.7598
   27CHL1  H12B 3137   3.506   3.004   5.321  0.2126  0.1150  0.0255
   27CHL1   C11 3138   3.468   2.859   5.477  0.1171 -0.5088  0.5062
   27CHL1  H11A 3139   3.466   2.749   5.495 -2.0636 -0.2059  2.6239
   27CHL1  H11B 3140   3.563   2.887   5.529  1.2124 -0.2533 -1.5252
   27CHL1    C9 3141   3.352   2.932   5.551  0.1681  0.4372  0.1433
   27CHL1    H9 3142   3.383   3.038   5.538  1.5635 -0.0224 -0.4614
   27CHL1   C10 3143   3.351   2.907   5.708 -0.3531 -0.6214 -0.2246
   27CHL1   C19 3144   3.350   2.759   5.749 -0.3632  0.9205 -0.1104
   27CHL1  H19A 3145   3.357   2.734   5.857 -1.0408 -1.1041 -0.4788
   27CHL1  H19B 3146   3.264   2.706   5.703  0.3998  1.9643 -2.9704
   27CHL1  H19C 3147   3.434   2.704   5.701 -0.3479  2.6366 -2.1967
   27CHL1    C1 3148   3.471   2.981   5.773 -0.6450  0.0195 -0.0124
   27CHL1   H1A 3149   3.561   2.928   5.735 -0.7042  0.3736 -0.6589
   27CHL1   H1B 3150   3.487   3.087   5.742  0.9098  0.2188  1.3205
   27CHL1    C2 3151   3.470   2.991   5.926 -0.3916 -0.1812  0.6844
   27CHL1   H2A 3152   3.554   3.060   5.953 -0.8886  1.5645 -1.8769
   27CHL1   H2B 3153   3.481   2.893   5.977 -1.5712 -0.5195  0.3030
   27CHL1   C20 3154   3.362   2.862   5.001 -0.0356 -0.3755 -0.3770
   27CHL1   H20 3155   3.328   2.758   5.019 -0.0266 -0.0036  2.0435
   27CHL1   C21 3156   3.518   2.837   4.997  0.0944  0.0114  0.3831
   27CHL1  H21A 3157   3.564   2.938   5.002  2.0881 -0.7508 -1.0488
   27CHL1  H21B 3158   3.544   2.783   4.904  0.8842  1.9506 -0.5743
   27CHL1  H21C 3159   3.552   2.781   5.087 -0.2588  0.9772  1.1261
   27CHL1   C22 3160   3.321   2.905   4.860 -0.0520 -0.2231 -0.0090
   27CHL1  H22A 3161   3.365   2.835   4.786 -0.3813  0.5238 -0.9377
   27CHL1  H22B 3162   3.211   2.908   4.845  0.1328 -0.4076 -1.5787
   27CHL1   C23 3163   3.370   3.039   4.820 -0.3280 -0.1294  0.4521
   27CHL1  H23A 3164   3.322   3.113   4.888 -1.8077 -2.1559  1.7271
   27CHL1  H23B 3165   3.481   3.037   4.828 -0.2676 -0.4966 -0.4197
   27CHL1   C24 3166   3.331   3.071   4.676 -0.2929 -0.4812  0.3454
   27CHL1  H24A 3167   3.353   2.986   4.609  0.1795  0.8106 -1.1876
   27CHL1  H24B 3168   3.221   3.080   4.664 -0.5702 -1.9523  1.4865
   27CHL1   C25 3169   3.411   3.185   4.622 -0.2464 -0.1022  0.3757
   27CHL1   H25 3170   3.396   3.276   4.684 -0.4616 -0.6230  1.1070
   27CHL1   C26 3171   3.564   3.179   4.614  0.0131 -0.1122 -0.0365
   27CHL1  H26A 3172   3.615   3.181   4.713 -2.1079 -1.2094  1.1274
   27CHL1  H26B 3173   3.585   3.092   4.548 -2.5351  0.3320 -1.5604
   27CHL1  H26C 3174   3.605   3.259   4.549 -0.8059  1.0396  0.8140
   27CHL1   C27 3175   3.358   3.224   4.485 -0.2149  0.0140  0.0138
   27CHL1  H27A 3176   3.388   3.330   4.471  2.4316 -0.4891  1.3204
   27CHL1  H27B 3177   3.249   3.212   4.467 -0.0931 -2.1217  0.4527
   27CHL1  H27C 3178   3.416   3.176   4.403  1.0850  0.1128  0.8414
   28CHL1    C3 3179   0.582   2.622   5.970  0.3990  0.3616  0.0061
   28CHL1    H3 3180   0.537   2.714   5.927  0.2525  0.1716 -0.2493
   28CHL1    O3 3181   0.584   2.622   6.108  0.0451  0.1420 -0.4893
   28CHL1   H3' 3182   0.492   2.609   6.132  0.2049 -1.6492 -0.7341
   28CHL1    C4 3183   0.491   2.507   5.924 -0.4593 -0.1280  0.5865
   28CHL1   H4A 3184   0.514   2.409   5.971  0.9736 -1.2258 -2.1900
   28CHL1   H4B 3185   0.389   2.545   5.947 -0.4407  3.6211 -3.9228
   28CHL1    C5 3186   0.489   2.491   5.775 -0.6232  0.0011 -0.0465
   28CHL1    C6 3187   0.373   2.488   5.713 -0.7891 -0.3098 -0.3842
   28CHL1    H6 3188   0.277   2.489   5.768 -1.0698  0.7115 -0.8729
   28CHL1    C7 3189   0.355   2.477   5.567 -0.3273  0.4191 -0.7338
   28CHL1   H7A 3190   0.276   2.401   5.552  1.7701 -2.1233  0.1960
   28CHL1   H7B 3191   0.320   2.577   5.535 -0.4561  1.4192  2.1644
   28CHL1    C8 3192   0.483   2.429   5.495 -0.0828  0.6465  0.1934
   28CHL1    H8 3193   0.493   2.322   5.522  2.4698  0.6733 -0.4367
   28CHL1   C14 3194   0.470   2.443   5.345  0.3823  0.2730 -0.0761
   28CHL1   H14 3195   0.468   2.552   5.325  0.5264  0.9584  3.1380
   28CHL1   C15 3196   0.343   2.373   5.282  0.5557  0.5921  0.4342
   28CHL1  H15A 3197   0.320   2.284   5.344  0.7383  0.3770  0.1933
   28CHL1  H15B 3198   0.252   2.436   5.292 -0.7652 -0.9376 -1.3228
   28CHL1   C16 3199   0.388   2.348   5.140  0.1809 -0.7195 -0.0819
   28CHL1  H16A 3200   0.392   2.238   5.122 -2.0791 -0.9267  0.3728
   28CHL1  H16B 3201   0.332   2.391   5.054 -0.0852 -1.2095 -0.1626
   28CHL1   C17 3202   0.542   2.391   5.135  0.0947  0.7837  0.6168
   28CHL1   H17 3203   0.548   2.499   5.108 -0.7363  0.4400 -1.1009
   28CHL1   C13 3204   0.592   2.381   5.278  0.3490 -0.4427 -0.6629
   28CHL1   C18 3205   0.613   2.229   5.316 -0.3817  0.9957  0.2181
   28CHL1  H18A 3206   0.701   2.196   5.257 -0.2504  1.3844  0.1994
   28CHL1  H18B 3207   0.618   2.194   5.421 -1.4242  2.5431  0.8191
   28CHL1  H18C 3208   0.527   2.170   5.276 -0.5530  1.6817 -0.4387
   28CHL1   C12 3209   0.723   2.463   5.316  0.5968  0.2519  0.5226
   28CHL1  H12A 3210   0.821   2.423   5.283  0.2150  0.3465 -0.7860
   28CHL1  H12B 3211   0.714   2.569   5.282 -1.5654  0.0313  0.2717
   28CHL1   C11 3212   0.743   2.462   5.470  0.7734 -0.3654  0.6503
   28CHL1  H11A 3213   0.757   2.355   5.494  0.3991 -0.1645  1.8578
   28CHL1  H11B 3214   0.825   2.526   5.508 -1.4246  1.8522  1.9821
   28CHL1    C9 3215   0.613   2.498   5.545 -0.1822 -0.2467 -0.2748
   28CHL1    H9 3216   0.587   2.605   5.526 -2.9166 -0.3774  1.9503
   28CHL1   C10 3217   0.625   2.490   5.702  0.1564  0.0627  0.0793
   28CHL1   C19 3218   0.691   2.361   5.740 -0.2541 -0.4140  0.0700
   28CHL1  H19A 3219   0.683   2.331   5.846 -0.9869 -1.0302 -0.1504
   28CHL1  H19B 3220   0.658   2.275   5.677  0.5119 -1.1171  0.6102
   28CHL1  H19C 3221   0.800   2.371   5.722 -0.3925  2.0211  0.2461
   28CHL1    C1 3222   0.705   2.611   5.748 -0.4279  0.0510 -0.0848
   28CHL1   H1A 3223   0.804   2.588   5.704  1.1078  1.8303  2.2385
   28CHL1   H1B 3224   0.678   2.711   5.708  2.6052  1.5112  1.1891
   28CHL1    C2 3225   0.722   2.608   5.903 -0.3518 -0.0751  0.0143
   28CHL1   H2A 3226   0.784   2.696   5.932  0.2144 -0.5681  0.3163
   28CHL1   H2B 3227   0.782   2.521   5.936  2.7768  1.7561 -0.3933
   28CHL1   C20 3228   0.624   2.318   5.024 -0.3126 -0.0206  0.8556
   28CHL1   H20 3229   0.614   2.208   5.031  2.0585 -0.2381  1.7051
   28CHL1   C21 3230   0.771   2.368   5.023  0.3095  0.3730  0.3333
   28CHL1  H21A 3231   0.821   2.354   4.926  0.9941 -0.3813  0.7850
   28CHL1  H21B 3232   0.829   2.321   5.105  0.3758  2.8371  1.7977
   28CHL1  H21C 3233   0.783   2.477   5.043  1.1266  0.1154  1.3383
   28CHL1   C22 3234   0.565   2.338   4.885  0.2575  0.1836  0.7937
   28CHL1  H22A 3235   0.611   2.253   4.830 -2.2040 -2.4894  2.5179
   28CHL1  H22B 3236   0.457   2.310   4.886 -0.1394  1.5721  0.3302
   28CHL1   C23 3237   0.573   2.470   4.815 -0.5180 -0.2828 -0.4210
   28CHL1  H23A 3238   0.536   2.545   4.888  1.0640  0.2063 -0.0730
   28CHL1  H23B 3239   0.680   2.496   4.797 -0.8922  1.6440 -0.0943
   28CHL1   C24 3240   0.508   2.459   4.681 -0.2506 -0.7848  0.0186
   28CHL1  H24A 3241   0.507   2.355   4.640 -1.6083 -0.4450 -0.8948
   28CHL1  H24B 3242   0.398   2.470   4.691 -0.2776  0.3005 -1.1760
   28CHL1   C25 3243   0.550   2.555   4.568  0.3021  0.0340  0.5004
   28CHL1   H25 3244   0.547   2.658   4.609 -2.0140 -0.3332  1.4111
   28CHL1   C26 3245   0.684   2.521   4.510 -0.3732 -0.3871 -0.0045
   28CHL1  H26A 3246   0.680   2.412   4.488 -0.1599 -0.1770 -1.1446
   28CHL1  H26B 3247   0.699   2.593   4.427  2.8517  1.1947  1.7402
   28CHL1  H26C 3248   0.761   2.542   4.588  0.8521  0.4966 -1.4042
   28CHL1   C27 3249   0.455   2.546   4.452 -0.1725 -0.2433  0.4486
   28CHL1  H27A 3250   0.444   2.449   4.399  1.1966 -0.0975 -0.1420
   28CHL1  H27B 3251   0.359   2.591   4.485  1.2624  2.1537  1.6189
   28CHL1  H27C 3252   0.477   2.620   4.372  1.9769  0.6507  1.7781
   29CHL1    C3 3253   1.964   4.153   5.851  0.0824 -0.8178  0.1541
   29CHL1    H3 3254   2.061   4.119   5.807 -0.7392 -0.3669 -2.1677
   29CHL1    O3 3255   1.978   4.137   5.993  0.1403 -0.5160 -0.3075
   29CHL1   H3' 3256   1.919   4.206   6.024  0.3047  0.2214 -1.5702
   29CHL1    C4 3257   1.956   4.300   5.821  0.6061 -0.1856  0.4143
   29CHL1   H4A 3258   1.880   4.357   5.879  1.9609  0.6543  1.4000
   29CHL1   H4B 3259   2.049   4.344   5.862  0.0638  0.0898  1.3643
   29CHL1    C5 3260   1.944   4.332   5.674 -0.0666 -0.3262 -0.4882
   29CHL1    C6 3261   2.030   4.411   5.612  0.0405  0.0552  0.6111
   29CHL1    H6 3262   2.106   4.468   5.668 -1.8042 -0.5966  4.0585
   29CHL1    C7 3263   2.035   4.440   5.466  0.4562 -0.5602  0.2781
   29CHL1   H7A 3264   2.036   4.551   5.456  1.1639 -0.5933 -0.0611
   29CHL1   H7B 3265   2.131   4.404   5.424  0.1169  0.6325 -1.6350
   29CHL1    C8 3266   1.903   4.393   5.393 -0.4685  0.0759  0.2702
   29CHL1    H8 3267   1.826   4.468   5.420  0.0714 -0.0472  2.2611
   29CHL1   C14 3268   1.913   4.389   5.236 -0.6173 -0.7904  0.1247
   29CHL1   H14 3269   1.987   4.312   5.207  0.0131 -0.3763  0.6037
   29CHL1   C15 3270   1.969   4.514   5.159 -0.2089 -0.2486  0.3487
   29CHL1  H15A 3271   1.935   4.609   5.206 -1.1206 -0.6943  0.6015
   29CHL1  H15B 3272   2.080   4.519   5.164 -0.1915  3.2628 -0.4759
   29CHL1   C16 3273   1.907   4.497   5.015 -1.0009  0.8075 -0.4722
   29CHL1  H16A 3274   1.831   4.576   4.999 -0.3821  0.9594 -3.2154
   29CHL1  H16B 3275   1.986   4.502   4.937 -1.4261 -1.6242 -1.1239
   29CHL1   C17 3276   1.837   4.358   5.015  0.4166 -0.3172 -0.2794
   29CHL1   H17 3277   1.924   4.288   5.009 -0.3694 -1.5332  1.5879
   29CHL1   C13 3278   1.790   4.338   5.162 -0.1958 -0.0067  0.1446
   29CHL1   C18 3279   1.675   4.428   5.183  0.0836 -0.2853  0.7026
   29CHL1  H18A 3280   1.662   4.451   5.291  1.7655 -0.0307  0.8823
   29CHL1  H18B 3281   1.684   4.526   5.131  0.9400 -0.8875 -0.3311
   29CHL1  H18C 3282   1.581   4.387   5.142 -0.4992  1.6903 -0.0651
   29CHL1   C12 3283   1.765   4.190   5.207  0.3831  0.0353  0.2864
   29CHL1  H12A 3284   1.677   4.137   5.164  0.5553 -0.8947  1.0553
   29CHL1  H12B 3285   1.857   4.132   5.184  0.2362  0.4132 -1.3728
   29CHL1   C11 3286   1.743   4.186   5.361  0.0504 -0.5976 -0.2402
   29CHL1  H11A 3287   1.647   4.239   5.379 -0.2617 -0.8232 -1.1662
   29CHL1  H11B 3288   1.730   4.087   5.410 -0.0977 -0.2093  0.5290
   29CHL1    C9 3289   1.861   4.256   5.444 -0.0868  0.1987 -0.2284
   29CHL1    H9 3290   1.948   4.190   5.422  0.6084  1.7860 -2.5398
   29CHL1   C10 3291   1.837   4.252   5.604  0.1300 -0.6776  0.5594
   29CHL1   C19 3292   1.698   4.309   5.631 -0.6195 -0.7580  0.1767
   29CHL1  H19A 3293   1.618   4.235   5.610  0.4695 -2.0277  0.4051
   29CHL1  H19B 3294   1.685   4.335   5.738 -1.8132  1.5057 -0.4488
   29CHL1  H19C 3295   1.665   4.398   5.574 -0.5766  1.1826  2.9696
   29CHL1    C1 3296   1.825   4.101   5.648 -0.5015  0.4369 -0.4419
   29CHL1   H1A 3297   1.720   4.079   5.619 -0.6578  0.4755  0.0805
   29CHL1   H1B 3298   1.898   4.030   5.603  0.6044  0.2875  1.4728
   29CHL1    C2 3299   1.843   4.077   5.798  0.2749  0.6313  0.1781
   29CHL1   H2A 3300   1.859   3.969   5.821 -3.1662 -0.0211  0.0142
   29CHL1   H2B 3301   1.747   4.110   5.844  0.9402  2.0642  0.5996
   29CHL1   C20 3302   1.739   4.335   4.896  0.8155 -0.6719  0.1974
   29CHL1   H20 3303   1.677   4.250   4.932 -1.6145  0.9227 -0.0169
   29CHL1   C21 3304   1.829   4.285   4.780  0.3659 -0.2722  0.3173
   29CHL1  H21A 3305   1.873   4.379   4.740  0.1831  1.3854  3.6908
   29CHL1  H21B 3306   1.773   4.240   4.695  0.7147  1.5179 -0.9111
   29CHL1  H21C 3307   1.916   4.223   4.814  1.1747  0.8026  0.2500
   29CHL1   C22 3308   1.654   4.456   4.849 -0.2289 -0.4915 -0.1568
   29CHL1  H22A 3309   1.605   4.504   4.936 -0.2388 -1.7671  0.5677
   29CHL1  H22B 3310   1.719   4.532   4.801 -0.3180  0.2228  0.8419
   29CHL1   C23 3311   1.548   4.427   4.745 -0.5084  0.0903 -1.1196
   29CHL1  H23A 3312   1.580   4.356   4.666 -0.7458 -0.2052 -0.9530
   29CHL1  H23B 3313   1.461   4.375   4.790 -0.1700 -0.3044 -0.9094
   29CHL1   C24 3314   1.501   4.558   4.676 -0.7724 -0.2581 -0.2189
   29CHL1  H24A 3315   1.480   4.636   4.752  1.3391 -0.1918  0.3531
   29CHL1  H24B 3316   1.583   4.601   4.615 -1.3055  0.2207 -0.6069
   29CHL1   C25 3317   1.380   4.539   4.580 -0.6369  0.2322  0.2786
   29CHL1   H25 3318   1.369   4.634   4.523  0.3262  0.5454  0.5906
   29CHL1   C26 3319   1.416   4.438   4.471  0.4506 -0.3445  0.2479
   29CHL1  H26A 3320   1.503   4.469   4.409 -0.3701 -1.1973 -1.3893
   29CHL1  H26B 3321   1.436   4.338   4.516 -0.9510  0.8979  4.0377
   29CHL1  H26C 3322   1.332   4.424   4.401  1.1946 -1.4262 -0.4652
   29CHL1   C27 3323   1.260   4.496   4.670 -0.2994 -0.4088  0.4934
   29CHL1  H27A 3324   1.183   4.461   4.598  0.8825 -0.4756 -0.7824
   29CHL1  H27B 3325   1.276   4.408   4.736 -0.3976 -0.2213  0.7679
   29CHL1  H27C 3326   1.206   4.574   4.726  1.2226  0.2803  1.0649
   30CHL1    C3 3327   4.776   2.522   5.552 -0.4802  0.3304 -0.3558
   30CHL1    H3 3328   4.676   2.544   5.509 -0.2254 -1.2377 -1.8625
   30CHL1    O3 3329   4.770   2.473   5.683  0.2865  0.3005 -0.2342
   30CHL1   H3' 3330   4.687   2.505   5.720 -0.7761 -2.6223  0.1423
   30CHL1    C4 3331   4.830   2.402   5.475 -0.4493  0.1210  0.2680
   30CHL1   H4A 3332   4.930   2.384   5.519  1.2339  1.4973 -2.6886
   30CHL1   H4B 3333   4.755   2.321   5.491  0.4323 -1.5682 -3.1657
   30CHL1    C5 3334   4.840   2.424   5.329 -0.2842  0.1743 -0.0434
   30CHL1    C6 3335   4.782   2.336   5.243 -0.4420 -0.0907  0.2243
   30CHL1    H6 3336   4.728   2.246   5.275 -1.7617  0.7617  0.4944
   30CHL1    C7 3337   4.800   2.342   5.095  0.1437  0.2004 -0.4578
   30CHL1   H7A 3338   4.854   2.251   5.063 -0.7380 -1.1272  1.6228
   30CHL1   H7B 3339   4.703   2.358   5.044 -1.2073 -2.2987  1.1681
   30CHL1    C8 3340   4.887   2.463   5.047  0.2676  0.0074  0.0234
   30CHL1    H8 3341   4.992   2.428   5.042  0.3463  0.3335 -0.8662
   30CHL1   C14 3342   4.838   2.501   4.908 -0.7615 -0.1401  0.0484
   30CHL1   H14 3343   4.736   2.541   4.928 -2.6094 -2.3159 -3.9189
   30CHL1   C15 3344   4.817   2.395   4.801 -0.2806  1.3165 -0.5406
   30CHL1  H15A 3345   4.900   2.322   4.799 -1.2951 -0.0448  2.2975
   30CHL1  H15B 3346   4.725   2.339   4.828  0.1359  0.1306 -1.4707
   30CHL1   C16 3347   4.795   2.477   4.672 -0.3524  0.2477 -0.4239
   30CHL1  H16A 3348   4.856   2.428   4.593 -1.0663  0.2118 -0.9600
   30CHL1  H16B 3349   4.691   2.489   4.635 -0.1816  0.6136 -0.7959
   30CHL1   C17 3350   4.840   2.626   4.706  0.0520  0.8852  0.7916
   30CHL1   H17 3351   4.745   2.681   4.723  0.3539  1.5438  0.4179
   30CHL1   C13 3352   4.912   2.621   4.843 -0.2161 -0.2491 -0.3290
   30CHL1   C18 3353   5.062   2.585   4.835 -0.4417 -0.1286  0.0485
   30CHL1  H18A 3354   5.124   2.669   4.798  0.1851 -0.1979  0.9076
   30CHL1  H18B 3355   5.100   2.544   4.932 -0.1849  1.0689  0.4687
   30CHL1  H18C 3356   5.086   2.517   4.751 -1.2184  0.3027 -0.5353
   30CHL1   C12 3357   4.893   2.747   4.937 -0.2760  0.4419  0.7699
   30CHL1  H12A 3358   4.955   2.826   4.889  0.5810 -0.7919 -0.2225
   30CHL1  H12B 3359   4.786   2.776   4.937 -0.2280  0.6516 -0.3853
   30CHL1   C11 3360   4.937   2.712   5.075  0.2537  0.5173 -0.0199
   30CHL1  H11A 3361   5.047   2.700   5.078  0.1146 -1.0206 -0.2762
   30CHL1  H11B 3362   4.922   2.805   5.135  0.0612  1.2155 -1.1351
   30CHL1    C9 3363   4.873   2.578   5.142 -0.5120 -0.8275  0.4539
   30CHL1    H9 3364   4.765   2.605   5.146 -0.0493  1.0326  1.1319
   30CHL1   C10 3365   4.909   2.553   5.292  0.2683 -0.1991  0.7468
   30CHL1   C19 3366   5.060   2.529   5.315  0.0013 -0.0308  0.0522
   30CHL1  H19A 3367   5.091   2.490   5.415 -1.4245 -1.6641 -0.0996
   30CHL1  H19B 3368   5.088   2.453   5.239 -2.8182 -0.7906 -0.3263
   30CHL1  H19C 3369   5.116   2.623   5.297  0.9226  0.2400  3.5564
   30CHL1    C1 3370   4.853   2.670   5.376  0.4626 -0.4969  0.3802
   30CHL1   H1A 3371   4.912   2.764   5.378 -0.3070  0.0135 -0.1926
   30CHL1   H1B 3372   4.747   2.688   5.350 -0.5401 -1.4345  3.4806
   30CHL1    C2 3373   4.865   2.641   5.522 -0.0416  0.1868 -0.3362
   30CHL1   H2A 3374   4.831   2.726   5.586  0.2484  2.7685 -3.3726
   30CHL1   H2B 3375   4.962   2.602   5.557 -0.8046 -1.2991  0.2099
   30CHL1   C20 3376   4.916   2.700   4.588  0.1477 -0.5335 -0.6450
   30CHL1   H20 3377   5.017   2.654   4.585 -0.1889 -1.2402 -3.3546
   30CHL1   C21 3378   4.913   2.850   4.607 -0.1460  0.2416 -0.2042
   30CHL1  H21A 3379   4.804   2.873   4.613 -0.2516 -0.4192  0.4642
   30CHL1  H21B 3380   4.958   2.906   4.522  0.7146  1.6444  1.1182
   30CHL1  H21C 3381   4.966   2.887   4.697 -1.0993 -0.5848  0.7238
   30CHL1   C22 3382   4.881   2.667   4.441  0.1735  0.3300  0.5288
   30CHL1  H22A 3383   4.947   2.726   4.374  0.1111 -0.2348 -0.0440
   30CHL1  H22B 3384   4.888   2.558   4.418 -0.4781  0.6348 -1.2272
   30CHL1   C23 3385   4.738   2.699   4.408  0.4673  0.3204 -0.5695
   30CHL1  H23A 3386   4.668   2.632   4.461  0.0748  1.0186 -0.1906
   30CHL1  H23B 3387   4.717   2.805   4.435  0.7916  0.0016  0.9953
   30CHL1   C24 3388   4.713   2.686   4.258 -0.0557  0.4402 -0.1861
   30CHL1  H24A 3389   4.758   2.771   4.202  1.1286 -0.2815 -0.3783
   30CHL1  H24B 3390   4.767   2.600   4.213  0.1379  0.6008 -0.2604
   30CHL1   C25 3391   4.564   2.678   4.220  0.2216 -0.5012 -0.4623
   30CHL1   H25 3392   4.512   2.606   4.286 -0.7425  0.7107  0.1575
   30CHL1   C26 3393   4.499   2.815   4.240 -0.8090 -0.6957 -0.3620
   30CHL1  H26A 3394   4.390   2.807   4.216 -0.5345  0.1597 -2.0776
   30CHL1  H26B 3395   4.510   2.854   4.344  1.4974 -1.0386 -0.4315
   30CHL1  H26C 3396   4.552   2.891   4.178 -1.1229  0.1272  0.3484
   30CHL1   C27 3397   4.536   2.627   4.077 -0.3249 -0.2983  0.3249
   30CHL1  H27A 3398   4.568   2.700   3.999 -3.3477 -0.6338 -1.3575
   30CHL1  H27B 3399   4.599   2.537   4.058 -0.3339 -0.4802  1.1154
   30CHL1  H27C 3400   4.427   2.608   4.067 -0.1234 -1.1072 -0.4252
   31CHL1    C3 3401   2.498   4.243   5.872 -0.1813  0.0633  0.5259
   31CHL1    H3 3402   2.593   4.299   5.865 -0.3261  0.5140  1.8311
   31CHL1    O3 3403   2.477   4.228   6.009  0.5396  0.7025  0.5735
   31CHL1   H3' 3404   2.406   4.164   6.021  1.7320 -1.1646 -1.4944
   31CHL1    C4 3405   2.381   4.319   5.794 -0.2962  0.4315  0.3245
   31CHL1   H4A 3406   2.282   4.268   5.793 -0.4244  0.6645  0.8664
   31CHL1   H4B 3407   2.366   4.420   5.838 -1.9067  1.9381 -3.2931
   31CHL1    C5 3408   2.417   4.339   5.653 -0.6030  0.2491  0.1249
   31CHL1    C6 3409   2.417   4.457   5.598 -0.1567  0.1137  0.3335
   31CHL1    H6 3410   2.396   4.545   5.662 -0.5717 -0.1104  0.5053
   31CHL1    C7 3411   2.452   4.488   5.458 -0.5404 -0.3249  0.2492
   31CHL1   H7A 3412   2.395   4.574   5.418  1.4879  0.8649 -0.2381
   31CHL1   H7B 3413   2.560   4.513   5.463 -0.1268 -1.6815 -1.1647
   31CHL1    C8 3414   2.433   4.356   5.368  0.2347 -0.2497 -0.1887
   31CHL1    H8 3415   2.324   4.334   5.360  0.1406  0.7637 -2.1761
   31CHL1   C14 3416   2.481   4.380   5.224 -0.5613 -0.0325 -0.4414
   31CHL1   H14 3417   2.589   4.404   5.240 -0.5299  1.2623 -2.2634
   31CHL1   C15 3418   2.418   4.495   5.144 -0.4171 -0.1760  0.6914
   31CHL1  H15A 3419   2.310   4.501   5.168 -0.9559  0.2797 -1.5936
   31CHL1  H15B 3420   2.469   4.587   5.180 -1.9540  0.9537  0.0576
   31CHL1   C16 3421   2.462   4.459   4.994 -0.4607 -0.4256 -0.7789
   31CHL1  H16A 3422   2.369   4.456   4.933 -0.0836 -0.0222 -1.3816
   31CHL1  H16B 3423   2.526   4.545   4.966  0.7802 -0.2497  2.2271
   31CHL1   C17 3424   2.535   4.324   5.007 -0.2409 -0.1529  0.1467
   31CHL1   H17 3425   2.636   4.354   5.042 -0.5440 -0.0247  0.9374
   31CHL1   C13 3426   2.480   4.257   5.133 -0.1229  0.1036  0.3296
   31CHL1   C18 3427   2.330   4.213   5.110 -0.5725 -0.4076  0.9254
   31CHL1  H18A 3428   2.271   4.297   5.068 -1.2490 -1.8722 -1.2520
   31CHL1  H18B 3429   2.335   4.141   5.025  0.3755 -1.2463  1.6550
   31CHL1  H18C 3430   2.288   4.158   5.197 -1.3571  0.2830  0.9866
   31CHL1   C12 3431   2.565   4.142   5.194  0.0377 -0.0527  0.3471
   31CHL1  H12A 3432   2.581   4.060   5.121 -1.4685 -0.7036  0.7136
   31CHL1  H12B 3433   2.667   4.185   5.202 -0.1930  0.8710 -1.2930
   31CHL1   C11 3434   2.521   4.101   5.335  0.0182  0.4643  0.7500
   31CHL1  H11A 3435   2.423   4.050   5.326 -1.3284  2.4726  2.7457
   31CHL1  H11B 3436   2.597   4.038   5.385  0.0900  0.9947  1.3181
   31CHL1    C9 3437   2.508   4.232   5.428  0.6542 -0.6414  1.4414
   31CHL1    H9 3438   2.611   4.271   5.442  0.5905 -0.4779  1.4642
   31CHL1   C10 3439   2.454   4.205   5.574  0.4982  0.6971  0.1657
   31CHL1   C19 3440   2.325   4.115   5.563  0.2551 -0.5305 -0.2273
   31CHL1  H19A 3441   2.251   4.168   5.499  2.8676  1.1879 -2.0554
   31CHL1  H19B 3442   2.350   4.015   5.523 -1.2162 -0.3299 -1.7582
   31CHL1  H19C 3443   2.274   4.094   5.660  1.3355 -1.6907  0.1152
   31CHL1    C1 3444   2.551   4.120   5.663  0.5827  0.3399 -0.5709
   31CHL1   H1A 3445   2.557   4.015   5.627  0.0677 -0.8982  2.6828
   31CHL1   H1B 3446   2.654   4.157   5.644  0.8960 -1.1125 -1.9666
   31CHL1    C2 3447   2.516   4.105   5.811 -0.1953  0.7193  0.1758
   31CHL1   H2A 3448   2.593   4.045   5.864 -1.8623 -0.5418  1.2564
   31CHL1   H2B 3449   2.424   4.043   5.816  0.7048 -0.8689 -1.8264
   31CHL1   C20 3450   2.568   4.246   4.879  0.0950 -0.1071  0.3420
   31CHL1   H20 3451   2.598   4.143   4.908 -1.7344 -0.4841  1.0013
   31CHL1   C21 3452   2.682   4.319   4.809 -0.1147  0.2447 -0.1303
   31CHL1  H21A 3453   2.703   4.270   4.712 -0.7167  0.0885 -0.1846
   31CHL1  H21B 3454   2.773   4.329   4.872  0.1201 -1.0022 -0.2472
   31CHL1  H21C 3455   2.649   4.419   4.774  0.3063  0.5167  0.2401
   31CHL1   C22 3456   2.450   4.223   4.778  0.5302 -0.0280  0.2478
   31CHL1  H22A 3457   2.361   4.194   4.838 -0.3715  2.8702  0.4438
   31CHL1  H22B 3458   2.429   4.324   4.737 -0.7727  0.4280  1.9251
   31CHL1   C23 3459   2.478   4.121   4.659  0.0749  0.1715 -0.4473
   31CHL1  H23A 3460   2.571   4.151   4.606  0.1786  0.6181 -0.0114
   31CHL1  H23B 3461   2.500   4.030   4.719  1.5361 -0.7974 -2.3498
   31CHL1   C24 3462   2.364   4.108   4.566 -0.1693 -0.3124 -0.3088
   31CHL1  H24A 3463   2.383   4.025   4.494  1.3172 -1.6911  1.5565
   31CHL1  H24B 3464   2.274   4.084   4.627 -1.0979  0.2726 -1.3927
   31CHL1   C25 3465   2.329   4.228   4.476  0.2899 -0.6938  0.4453
   31CHL1   H25 3466   2.301   4.311   4.544  0.3123 -0.1890 -0.1549
   31CHL1   C26 3467   2.448   4.291   4.396  0.0861  0.2596 -0.3202
   31CHL1  H26A 3468   2.526   4.310   4.472 -0.8518 -0.4373  0.8636
   31CHL1  H26B 3469   2.477   4.226   4.311 -1.6901  1.5305 -1.9850
   31CHL1  H26C 3470   2.414   4.384   4.345 -2.2862 -0.1028  0.4466
   31CHL1   C27 3471   2.203   4.194   4.393  0.1052 -0.0721  0.3049
   31CHL1  H27A 3472   2.237   4.110   4.328  0.6569 -0.9120  1.6429
   31CHL1  H27B 3473   2.123   4.157   4.460 -3.1600  1.5865 -2.3567
   31CHL1  H27C 3474   2.176   4.280   4.328  1.6214 -0.2206 -0.5486
   32CHL1    C3 3475   4.296   2.701   5.489 -0.2288  0.4391 -0.2620
   32CHL1    H3 3476   4.208   2.647   5.447 -0.0059  1.1162 -1.6500
   32CHL1    O3 3477   4.298   2.660   5.626  0.5679  0.2933  0.4154
   32CHL1   H3' 3478   4.205   2.669   5.649  1.0651  1.0963  2.2300
   32CHL1    C4 3479   4.415   2.646   5.421  0.4182  0.1048  0.4289
   32CHL1   H4A 3480   4.505   2.685   5.472  0.9668 -0.9903  0.3377
   32CHL1   H4B 3481   4.438   2.537   5.427  1.9007  0.2055 -2.0733
   32CHL1    C5 3482   4.416   2.689   5.273 -0.2126  0.2882 -0.8162
   32CHL1    C6 3483   4.425   2.597   5.177 -0.8461 -0.6931 -0.4518
   32CHL1    H6 3484   4.462   2.502   5.219 -0.8488  0.4426  2.3283
   32CHL1    C7 3485   4.411   2.630   5.031 -0.0514 -0.4662  0.1129
   32CHL1   H7A 3486   4.482   2.570   4.970  0.5625 -1.0756  1.3952
   32CHL1   H7B 3487   4.310   2.598   4.998 -0.0383  1.4566 -2.0901
   32CHL1    C8 3488   4.415   2.779   4.992  0.2339  0.1086  0.2846
   32CHL1    H8 3489   4.521   2.814   4.989 -0.0334  1.4681  3.4024
   32CHL1   C14 3490   4.346   2.804   4.859  0.3740 -0.3848 -0.2570
   32CHL1   H14 3491   4.238   2.784   4.874  0.1944  1.3116  0.9709
   32CHL1   C15 3492   4.390   2.717   4.739 -0.4169 -0.7251  0.5832
   32CHL1  H15A 3493   4.500   2.730   4.729 -0.5557  1.0840  1.1414
   32CHL1  H15B 3494   4.355   2.611   4.737  2.0419 -1.6159 -0.6508
   32CHL1   C16 3495   4.334   2.793   4.618 -0.0835  0.1641  0.0312
   32CHL1  H16A 3496   4.421   2.804   4.549  0.3383 -1.6567  0.2326
   32CHL1  H16B 3497   4.247   2.745   4.568 -1.0870  2.4037 -0.5001
   32CHL1   C17 3498   4.284   2.937   4.676  0.3943 -0.0277 -0.3216
   32CHL1   H17 3499   4.175   2.924   4.692  0.6519  0.3240  2.1419
   32CHL1   C13 3500   4.348   2.955   4.810  0.0857  0.1862  0.1642
   32CHL1   C18 3501   4.499   2.997   4.797  0.2362 -0.1056 -0.0819
   32CHL1  H18A 3502   4.545   2.947   4.709 -0.9641  0.1831 -0.9037
   32CHL1  H18B 3503   4.491   3.106   4.778 -0.5689 -0.0487  0.5295
   32CHL1  H18C 3504   4.551   2.989   4.895  0.0434  0.6762  0.0915
   32CHL1   C12 3505   4.268   3.031   4.919 -0.4563 -0.2506  0.0585
   32CHL1  H12A 3506   4.250   3.139   4.899 -2.5851 -0.4551  0.5804
   32CHL1  H12B 3507   4.168   2.985   4.936 -2.3035  3.0671 -1.0255
   32CHL1   C11 3508   4.333   3.014   5.051  0.3665 -0.5898  0.4562
   32CHL1  H11A 3509   4.434   3.061   5.046  0.9636 -1.9252 -0.2726
   32CHL1  H11B 3510   4.276   3.066   5.131  0.5121 -1.1239  0.9173
   32CHL1    C9 3511   4.336   2.864   5.099 -0.2168 -0.7753 -1.0109
   32CHL1    H9 3512   4.230   2.830   5.096  0.3696 -3.3362  2.2199
   32CHL1   C10 3513   4.381   2.838   5.249  0.1596  0.5943  0.1165
   32CHL1   C19 3514   4.508   2.920   5.280 -0.6477  0.2889 -0.4683
   32CHL1  H19A 3515   4.484   3.029   5.271 -1.0040  0.4918  2.1824
   32CHL1  H19B 3516   4.550   2.900   5.381 -0.2206 -1.0232 -0.8931
   32CHL1  H19C 3517   4.585   2.889   5.207  1.9155  0.2912  2.0752
   32CHL1    C1 3518   4.263   2.885   5.337  0.2716  0.0119  0.2531
   32CHL1   H1A 3519   4.261   2.996   5.334 -0.7938  0.0127  0.4753
   32CHL1   H1B 3520   4.171   2.838   5.295  0.6199 -2.0529  1.6656
   32CHL1    C2 3521   4.278   2.850   5.490  0.1265 -0.0722  0.5589
   32CHL1   H2A 3522   4.192   2.886   5.552 -1.2710 -0.2741 -1.1867
   32CHL1   H2B 3523   4.364   2.915   5.516  0.6921  0.9321 -3.2650
   32CHL1   C20 3524   4.305   3.050   4.570 -0.4557  0.4349 -0.1657
   32CHL1   H20 3525   4.408   3.029   4.534 -0.4673 -1.0518  0.6051
   32CHL1   C21 3526   4.284   3.195   4.613 -0.0145  0.2798 -0.0319
   32CHL1  H21A 3527   4.357   3.230   4.690 -0.2281 -1.5582  1.0608
   32CHL1  H21B 3528   4.182   3.209   4.655 -0.2114 -1.5396  0.1533
   32CHL1  H21C 3529   4.300   3.259   4.524  0.0878 -0.0926 -0.2815
   32CHL1   C22 3530   4.210   3.019   4.447 -0.3262  0.3344 -0.5708
   32CHL1  H22A 3531   4.195   2.909   4.434 -3.0002  0.9042 -3.4956
   32CHL1  H22B 3532   4.114   3.058   4.486  0.1594 -0.6131  1.7534
   32CHL1   C23 3533   4.251   3.087   4.312 -0.0089  0.4461 -0.1181
   32CHL1  H23A 3534   4.246   3.198   4.311 -1.9456  0.3795 -0.4281
   32CHL1  H23B 3535   4.356   3.058   4.291 -0.3398 -2.1925  1.4165
   32CHL1   C24 3536   4.160   3.052   4.185  0.6813  0.1220 -0.1508
   32CHL1  H24A 3537   4.137   2.944   4.180 -1.8531  0.5723  0.5781
   32CHL1  H24B 3538   4.061   3.097   4.208  0.6390  2.2339 -3.6234
   32CHL1   C25 3539   4.214   3.091   4.053  0.4704 -0.2736  0.2292
   32CHL1   H25 3540   4.232   3.200   4.052 -1.2518  0.0450 -0.1546
   32CHL1   C26 3541   4.338   3.018   4.009  0.0086 -0.0463 -0.1166
   32CHL1  H26A 3542   4.363   3.052   3.907 -0.0222  2.4308  0.6486
   32CHL1  H26B 3543   4.436   3.035   4.060  0.4676  0.3332 -1.0988
   32CHL1  H26C 3544   4.310   2.910   4.001  1.0274 -0.4708  1.4516
   32CHL1   C27 3545   4.106   3.071   3.949  0.4415  0.1035 -1.0634
   32CHL1  H27A 3546   4.101   2.961   3.935  2.0169 -0.0596 -0.5723
   32CHL1  H27B 3547   4.003   3.097   3.981  1.1681  1.4046  0.3893
   32CHL1  H27C 3548   4.125   3.115   3.849  1.5307  3.0774  0.3183
   33CHL1    C3 3549   1.924   2.515   5.811  0.8395  0.2919  0.1665
   33CHL1    H3 3550   2.022   2.504   5.760 -0.1260 -3.1960 -1.2236
   33CHL1    O3 3551   1.927   2.587   5.933  0.7044 -0.0493  0.1336
   33CHL1   H3' 3552   1.836   2.615   5.943  1.0647  1.3165 -0.1905
   33CHL1    C4 3553   1.822   2.581   5.712 -0.0626 -0.5435 -0.6426
   33CHL1   H4A 3554   1.725   2.591   5.764  0.4800  1.8290  0.0568
   33CHL1   H4B 3555   1.854   2.686   5.691 -2.1471  0.2839  0.1199
   33CHL1    C5 3556   1.816   2.504   5.588  0.7725  0.1606 -0.7878
   33CHL1    C6 3557   1.834   2.569   5.471  0.0430 -0.4929  0.6186
   33CHL1    H6 3558   1.857   2.676   5.471  1.5346 -0.7670 -1.1769
   33CHL1    C7 3559   1.817   2.515   5.336 -0.2951  0.1985 -0.0942
   33CHL1   H7A 3560   1.770   2.590   5.269 -1.1062  0.6758  0.9933
   33CHL1   H7B 3561   1.918   2.491   5.295 -0.9975 -1.8309 -0.7219
   33CHL1    C8 3562   1.733   2.385   5.348  0.6607  0.1733 -0.7843
   33CHL1    H8 3563   1.629   2.416   5.370  0.6594 -0.2315 -0.2072
   33CHL1   C14 3564   1.738   2.319   5.216  0.0841  0.2186  0.6881
   33CHL1   H14 3565   1.847   2.307   5.194  0.2867  0.8509  1.3015
   33CHL1   C15 3566   1.707   2.402   5.090  0.2708  0.1331  0.0849
   33CHL1  H15A 3567   1.639   2.486   5.116 -0.6939 -0.6547  0.1917
   33CHL1  H15B 3568   1.794   2.453   5.044 -1.0110  1.4320 -0.9880
   33CHL1   C16 3569   1.652   2.293   4.994 -0.4774 -0.6428  0.3061
   33CHL1  H16A 3570   1.545   2.314   4.969 -0.2580 -0.0405 -0.1560
   33CHL1  H16B 3571   1.694   2.296   4.891 -1.8872 -0.1339 -0.2762
   33CHL1   C17 3572   1.670   2.152   5.060 -0.5427 -0.1753 -0.3910
   33CHL1   H17 3573   1.775   2.125   5.037 -1.1130 -1.2897 -1.8280
   33CHL1   C13 3574   1.653   2.189   5.210 -0.6322 -0.3158  0.2753
   33CHL1   C18 3575   1.502   2.228   5.234 -0.3248 -0.3762  0.5586
   33CHL1  H18A 3576   1.471   2.314   5.171  2.4184  1.6719  1.8236
   33CHL1  H18B 3577   1.445   2.134   5.214 -0.0649 -0.3734 -0.2310
   33CHL1  H18C 3578   1.482   2.268   5.335 -1.1296 -0.3984  0.4200
   33CHL1   C12 3579   1.712   2.089   5.310 -0.1881 -0.5083  0.4347
   33CHL1  H12A 3580   1.669   1.987   5.305  0.2718 -0.6853 -0.0718
   33CHL1  H12B 3581   1.819   2.071   5.285  0.5570  1.6668  1.7755
   33CHL1   C11 3582   1.706   2.149   5.447  0.1862  0.3024  0.3055
   33CHL1  H11A 3583   1.602   2.158   5.486  0.4290  1.1442  0.7790
   33CHL1  H11B 3584   1.759   2.079   5.516  0.9658  0.3146 -0.2667
   33CHL1    C9 3585   1.774   2.285   5.462 -0.3925 -0.2378 -0.0121
   33CHL1    H9 3586   1.882   2.277   5.436 -0.2600  1.2098 -0.0133
   33CHL1   C10 3587   1.769   2.364   5.599 -0.4351  0.2930  0.1083
   33CHL1   C19 3588   1.625   2.362   5.647 -0.0769  0.2380 -0.1993
   33CHL1  H19A 3589   1.557   2.424   5.585 -0.9637  0.4908  0.9856
   33CHL1  H19B 3590   1.595   2.258   5.670 -0.3297  0.3909  0.1706
   33CHL1  H19C 3591   1.612   2.411   5.746 -0.3844 -1.0979  0.4448
   33CHL1    C1 3592   1.861   2.290   5.697 -0.0122  0.4849 -0.2781
   33CHL1   H1A 3593   1.826   2.188   5.727  1.6113  0.1323  0.5109
   33CHL1   H1B 3594   1.965   2.284   5.658 -0.7200 -0.5819 -2.1268
   33CHL1    C2 3595   1.885   2.365   5.836  0.6396 -0.2681 -0.0105
   33CHL1   H2A 3596   1.970   2.327   5.898  0.2332 -0.3383  0.5105
   33CHL1   H2B 3597   1.790   2.352   5.891  1.6963 -1.0925  1.7333
   33CHL1   C20 3598   1.582   2.041   5.009  0.2941 -0.8834 -0.4437
   33CHL1   H20 3599   1.475   2.048   5.037  0.0076 -0.3179 -1.6405
   33CHL1   C21 3600   1.633   1.903   5.065  0.0052 -0.2166 -0.0695
   33CHL1  H21A 3601   1.744   1.904   5.069  0.0181  1.5735 -0.1534
   33CHL1  H21B 3602   1.609   1.822   4.993  0.0806 -0.2397 -0.0688
   33CHL1  H21C 3603   1.597   1.866   5.164  3.9196 -0.9404  1.2635
   33CHL1   C22 3604   1.573   2.030   4.852 -0.3591  1.4675 -0.3622
   33CHL1  H22A 3605   1.505   1.942   4.846  2.7799 -1.2053  0.4237
   33CHL1  H22B 3606   1.529   2.115   4.795  0.0529  1.3226 -0.9004
   33CHL1   C23 3607   1.709   2.001   4.781  0.5007  0.2676  0.4893
   33CHL1  H23A 3608   1.766   2.094   4.763  1.4307 -0.4303 -0.3234
   33CHL1  H23B 3609   1.769   1.935   4.848  2.4916  1.6888  0.1847
   33CHL1   C24 3610   1.685   1.924   4.649 -0.1553 -0.7549 -0.1729
   33CHL1  H24A 3611   1.773   1.891   4.590  0.4015  2.7248 -1.5615
   33CHL1  H24B 3612   1.621   1.835   4.665 -0.1863 -0.8642 -0.8698
   33CHL1   C25 3613   1.593   2.002   4.546 -0.4938 -0.3889 -0.2857
   33CHL1   H25 3614   1.503   2.039   4.599 -1.0391 -1.4467 -0.4320
   33CHL1   C26 3615   1.670   2.127   4.494 -0.0417  0.2340  0.2731
   33CHL1  H26A 3616   1.600   2.191   4.437 -1.3013  0.0739  1.6028
   33CHL1  H26B 3617   1.707   2.188   4.580 -0.3419  1.0091 -0.1332
   33CHL1  H26C 3618   1.752   2.089   4.430 -2.5851  0.3061 -3.3049
   33CHL1   C27 3619   1.567   1.915   4.424  0.3453  0.1479 -0.0037
   33CHL1  H27A 3620   1.497   1.964   4.353 -1.6337 -1.7389  0.5342
   33CHL1  H27B 3621   1.651   1.878   4.362  0.7613 -3.1500  2.2734
   33CHL1  H27C 3622   1.505   1.825   4.442  1.7036 -1.1072 -1.2721
   34CHL1    C3 3623   4.096   4.296   5.633 -1.1323 -0.0682 -0.2236
   34CHL1    H3 3624   4.007   4.352   5.671 -0.8956  0.5120 -0.5120
   34CHL1    O3 3625   4.125   4.216   5.747  0.0076  0.1066 -0.1348
   34CHL1   H3' 3626   4.217   4.237   5.765  0.0941 -1.8083  2.0959
   34CHL1    C4 3627   4.059   4.215   5.513  0.3334  0.3399 -0.6636
   34CHL1   H4A 3628   4.123   4.125   5.508 -0.9761 -0.6846  0.0852
   34CHL1   H4B 3629   3.959   4.168   5.526  0.8015 -0.9364 -1.4725
   34CHL1    C5 3630   4.060   4.288   5.381 -0.4249  0.2385 -0.3057
   34CHL1    C6 3631   3.955   4.278   5.300  0.0713 -0.0810  0.0332
   34CHL1    H6 3632   3.871   4.221   5.344  1.2281 -0.3755  1.9852
   34CHL1    C7 3633   3.964   4.343   5.157  0.0935  0.1644 -0.0441
   34CHL1   H7A 3634   3.922   4.283   5.074  1.2448 -0.7140 -0.0161
   34CHL1   H7B 3635   3.910   4.440   5.162  1.7913  1.1252  0.7211
   34CHL1    C8 3636   4.107   4.381   5.117  0.0169  0.0661 -0.1508
   34CHL1    H8 3637   4.158   4.284   5.103 -0.9363 -0.5916  0.7739
   34CHL1   C14 3638   4.106   4.451   4.987 -0.7262  0.0640  0.5081
   34CHL1   H14 3639   4.057   4.546   5.018  0.0719  0.2304  1.3051
   34CHL1   C15 3640   4.019   4.395   4.870 -0.2228 -0.1741  0.4845
   34CHL1  H15A 3641   4.022   4.285   4.854  0.7271  0.1421 -2.2033
   34CHL1  H15B 3642   3.912   4.423   4.871 -0.3509 -0.5640 -0.6319
   34CHL1   C16 3643   4.084   4.468   4.746 -0.4341 -0.3072  0.4686
   34CHL1  H16A 3644   4.124   4.397   4.671 -2.4503  0.1031 -1.0972
   34CHL1  H16B 3645   4.007   4.524   4.689 -1.9560 -2.3733  0.3730
   34CHL1   C17 3646   4.198   4.558   4.800  0.2397  0.5042 -0.9786
   34CHL1   H17 3647   4.151   4.655   4.828  0.9335  0.6860 -0.4100
   34CHL1   C13 3648   4.240   4.494   4.933 -0.2271  0.7733  0.5551
   34CHL1   C18 3649   4.318   4.365   4.906  0.5043  0.2983 -0.1736
   34CHL1  H18A 3650   4.255   4.293   4.848 -0.7252  1.9742 -1.0235
   34CHL1  H18B 3651   4.414   4.375   4.851  1.3005 -1.9764  0.6526
   34CHL1  H18C 3652   4.341   4.307   4.998 -3.0851 -1.4328 -0.1778
   34CHL1   C12 3653   4.309   4.583   5.034 -0.2541 -0.4827  0.0367
   34CHL1  H12A 3654   4.410   4.619   5.005  0.0162 -1.7637 -0.7069
   34CHL1  H12B 3655   4.243   4.672   5.037 -0.2358 -0.4642 -0.1050
   34CHL1   C11 3656   4.319   4.518   5.171  0.3575 -0.1585 -0.1521
   34CHL1  H11A 3657   4.398   4.441   5.158 -1.1044 -1.4743 -1.5470
   34CHL1  H11B 3658   4.345   4.594   5.248 -0.6267 -1.6117  1.7005
   34CHL1    C9 3659   4.181   4.458   5.230  0.1777  0.4868  0.3749
   34CHL1    H9 3660   4.116   4.548   5.234 -1.4230 -0.5580 -0.7633
   34CHL1   C10 3661   4.184   4.374   5.353  0.3144  0.4957 -0.4383
   34CHL1   C19 3662   4.307   4.283   5.350 -0.2511 -0.2225  0.0806
   34CHL1  H19A 3663   4.397   4.345   5.370  1.0647 -1.4933 -1.6147
   34CHL1  H19B 3664   4.299   4.203   5.427 -1.4154  0.3584  0.5911
   34CHL1  H19C 3665   4.314   4.232   5.252 -0.6150 -1.1571  0.5263
   34CHL1    C1 3666   4.195   4.473   5.472 -0.3814 -0.0595 -0.4067
   34CHL1   H1A 3667   4.275   4.549   5.465 -0.3858 -0.1128 -1.0791
   34CHL1   H1B 3668   4.105   4.536   5.458  0.0809  0.3879 -1.4362
   34CHL1    C2 3669   4.212   4.401   5.609  0.5418  0.4356  0.0008
   34CHL1   H2A 3670   4.212   4.482   5.685  2.5009 -0.6015  1.2106
   34CHL1   H2B 3671   4.312   4.352   5.608  0.7778  0.9149 -1.0572
   34CHL1   C20 3672   4.300   4.596   4.694 -0.2720 -0.3804  0.5771
   34CHL1   H20 3673   4.342   4.504   4.646  3.9922  2.1721 -1.1913
   34CHL1   C21 3674   4.427   4.670   4.754 -0.2765 -0.1230  0.4438
   34CHL1  H21A 3675   4.405   4.759   4.817  0.6696  1.1631 -0.9902
   34CHL1  H21B 3676   4.489   4.720   4.676 -1.4369  0.3647 -0.1948
   34CHL1  H21C 3677   4.486   4.597   4.814 -0.2074  1.0357  1.8373
   34CHL1   C22 3678   4.227   4.686   4.582  0.4938 -0.0839 -1.0897
   34CHL1  H22A 3679   4.143   4.629   4.537 -2.5255  1.6122  1.9480
   34CHL1  H22B 3680   4.176   4.768   4.636  1.2065 -0.3626  0.0454
   34CHL1   C23 3681   4.316   4.746   4.475  0.0527  0.5210  0.2819
   34CHL1  H23A 3682   4.391   4.807   4.529  0.8102  0.0267 -0.1931
   34CHL1  H23B 3683   4.374   4.666   4.424 -1.5028 -0.3117 -0.2572
   34CHL1   C24 3684   4.229   4.827   4.379  0.1888 -0.4488  0.5343
   34CHL1  H24A 3685   4.152   4.760   4.337  0.3323  0.3258 -1.0455
   34CHL1  H24B 3686   4.177   4.901   4.443 -0.0463 -0.4296  0.3213
   34CHL1   C25 3687   4.319   4.912   4.282 -0.5065  0.0549  0.0545
   34CHL1   H25 3688   4.369   4.996   4.335  0.9636  1.1778 -2.8328
   34CHL1   C26 3689   4.431   4.831   4.204  0.1095 -0.7161  0.1155
   34CHL1  H26A 3690   4.378   4.773   4.125  0.4478 -0.3123 -0.4156
   34CHL1  H26B 3691   4.499   4.895   4.143 -0.8659  0.6660  0.4302
   34CHL1  H26C 3692   4.497   4.776   4.275  0.0058 -0.1674  0.6393
   34CHL1   C27 3693   4.239   4.978   4.173  0.1531 -0.3945 -0.0753
   34CHL1  H27A 3694   4.296   5.043   4.103  0.3228  1.2886  1.5380
   34CHL1  H27B 3695   4.164   4.911   4.127 -0.5484  0.0181  0.4448
   34CHL1  H27C 3696   4.172   5.051   4.224  1.8066  2.1274 -1.3022
   35CHL1    C3 3697   6.564   5.501   6.016 -0.5726  0.2601  0.3533
   35CHL1    H3 3698   6.512   5.597   5.997 -0.2099  0.1194 -1.5918
   35CHL1    O3 3699   6.578   5.485   6.157  0.3246 -0.3368  0.9085
   35CHL1   H3' 3700   6.509   5.541   6.192  0.6100  0.4038  0.3104
   35CHL1    C4 3701   6.476   5.377   5.972  0.5444 -0.1012 -0.4018
   35CHL1   H4A 3702   6.515   5.282   6.013 -3.9419 -2.7772 -1.7092
   35CHL1   H4B 3703   6.374   5.386   6.016 -1.2191 -1.8532 -3.8129
   35CHL1    C5 3704   6.473   5.364   5.821  0.5227  0.1182 -0.6389
   35CHL1    C6 3705   6.352   5.369   5.774 -0.2387 -0.4146 -0.0314
   35CHL1    H6 3706   6.269   5.383   5.845  0.2276  1.1201  0.2575
   35CHL1    C7 3707   6.328   5.362   5.628  0.7446  0.1158 -0.8545
   35CHL1   H7A 3708   6.246   5.294   5.596  0.4259 -0.9322  1.9607
   35CHL1   H7B 3709   6.306   5.464   5.590  1.3566 -0.1002 -1.8098
   35CHL1    C8 3710   6.457   5.306   5.555  0.6660  0.4999  0.1659
   35CHL1    H8 3711   6.461   5.197   5.576  2.2458  0.2927 -1.0208
   35CHL1   C14 3712   6.442   5.316   5.404 -0.4350 -0.4558  0.1310
   35CHL1   H14 3713   6.435   5.424   5.380 -2.5114 -0.9899 -2.1246
   35CHL1   C15 3714   6.308   5.264   5.341 -0.3611  0.3088  0.1202
   35CHL1  H15A 3715   6.288   5.164   5.386 -0.2376  0.4663  0.5236
   35CHL1  H15B 3716   6.225   5.333   5.368  0.7810  2.0890 -0.7541
   35CHL1   C16 3717   6.337   5.275   5.191 -0.2306  0.1527 -0.2547
   35CHL1  H16A 3718   6.306   5.179   5.144  1.6609  0.0243 -1.3331
   35CHL1  H16B 3719   6.285   5.353   5.131 -0.3755 -0.9440 -1.6163
   35CHL1   C17 3720   6.493   5.300   5.185  0.6737  0.5814  0.3470
   35CHL1   H17 3721   6.503   5.410   5.184 -0.8069  0.7392  0.7569
   35CHL1   C13 3722   6.556   5.267   5.323  0.1713  0.8488 -0.3666
   35CHL1   C18 3723   6.569   5.107   5.338 -0.9115 -0.6655  0.0645
   35CHL1  H18A 3724   6.675   5.075   5.341 -0.1344  1.6594 -0.0346
   35CHL1  H18B 3725   6.532   5.071   5.436  0.3748  1.1389  1.2873
   35CHL1  H18C 3726   6.514   5.062   5.253  0.9503 -0.3756 -1.3531
   35CHL1   C12 3727   6.683   5.344   5.366  0.4003 -0.2254  0.1715
   35CHL1  H12A 3728   6.776   5.305   5.320 -0.3049 -3.1880  1.0454
   35CHL1  H12B 3729   6.661   5.452   5.350 -3.0535 -0.4340  2.4368
   35CHL1   C11 3730   6.702   5.315   5.514 -0.1037  0.0812  0.1910
   35CHL1  H11A 3731   6.720   5.206   5.519  3.0058  0.5769  2.9734
   35CHL1  H11B 3732   6.797   5.357   5.554 -0.9748  1.6264  0.7488
   35CHL1    C9 3733   6.584   5.367   5.599  0.9579 -0.1685  0.7855
   35CHL1    H9 3734   6.587   5.475   5.573  1.0446 -0.1518  0.8606
   35CHL1   C10 3735   6.604   5.353   5.749  0.2657  0.1037 -0.3341
   35CHL1   C19 3736   6.664   5.211   5.787 -0.8082 -0.4127  0.2029
   35CHL1  H19A 3737   6.595   5.135   5.745 -2.8492  2.1670 -1.4170
   35CHL1  H19B 3738   6.764   5.196   5.740 -0.5931  1.0441  0.1421
   35CHL1  H19C 3739   6.680   5.208   5.897 -1.7239 -0.8300  0.3289
   35CHL1    C1 3740   6.695   5.468   5.785 -0.4112 -0.4261  0.4785
   35CHL1   H1A 3741   6.800   5.451   5.752 -0.4151  0.5442 -0.0437
   35CHL1   H1B 3742   6.659   5.561   5.737 -2.1737 -1.8059 -0.9906
   35CHL1    C2 3743   6.704   5.487   5.937  0.1066  0.2900  0.4626
   35CHL1   H2A 3744   6.782   5.561   5.964  1.3778 -0.1104 -1.8637
   35CHL1   H2B 3745   6.745   5.394   5.981  1.3724 -0.4089 -1.9967
   35CHL1   C20 3746   6.563   5.244   5.060  0.1758 -0.9904  0.0611
   35CHL1   H20 3747   6.553   5.134   5.066  0.7657 -1.0229  0.4693
   35CHL1   C21 3748   6.716   5.274   5.046  0.2521  0.4168  0.0970
   35CHL1  H21A 3749   6.780   5.223   5.121 -1.5576  0.5360  1.7998
   35CHL1  H21B 3750   6.741   5.382   5.054 -1.7166  0.8831  0.5317
   35CHL1  H21C 3751   6.742   5.226   4.949 -1.9905 -2.5115  0.7995
   35CHL1   C22 3752   6.488   5.276   4.921 -0.4654 -1.0199 -0.2615
   35CHL1  H22A 3753   6.523   5.204   4.844 -1.9416 -0.4958 -1.4518
   35CHL1  H22B 3754   6.380   5.253   4.916 -0.6654 -0.7478  1.9212
   35CHL1   C23 3755   6.510   5.414   4.862  0.0855 -0.0708 -0.0217
   35CHL1  H23A 3756   6.499   5.481   4.950  3.1814 -0.5100  0.8334
   35CHL1  H23B 3757   6.606   5.437   4.810  0.6559 -1.4200  0.3795
   35CHL1   C24 3758   6.402   5.435   4.750  0.2134  0.2512  0.0342
   35CHL1  H24A 3759   6.305   5.394   4.785  0.6365 -1.0414 -0.2544
   35CHL1  H24B 3760   6.398   5.545   4.735  0.8576  0.3942  0.8171
   35CHL1   C25 3761   6.429   5.373   4.608  0.5673 -0.4668  0.4939
   35CHL1   H25 3762   6.475   5.272   4.611  3.0549  0.5952  1.1105
   35CHL1   C26 3763   6.299   5.363   4.523 -0.3619 -0.2748 -0.1057
   35CHL1  H26A 3764   6.334   5.324   4.425  2.6716  0.5823  0.5177
   35CHL1  H26B 3765   6.221   5.303   4.574  0.1848 -0.2470  0.7821
   35CHL1  H26C 3766   6.266   5.466   4.494  0.6469 -0.1575 -0.8803
   35CHL1   C27 3767   6.541   5.457   4.546  0.1272 -0.4210 -0.3797
   35CHL1  H27A 3768   6.518   5.565   4.555  1.8663 -0.1732  2.0763
   35CHL1  H27B 3769   6.633   5.437   4.604 -0.2317 -0.4790  0.1698
   35CHL1  H27C 3770   6.551   5.429   4.438 -2.1593  2.6925 -1.5364
   36CHL1    C3 3771   1.971   5.163   5.579  0.3083  0.4646  0.6987
   36CHL1    H3 3772   2.061   5.111   5.618 -0.1260  0.9423  2.4535
   36CHL1    O3 3773   1.898   5.218   5.682 -0.7104 -0.0774  0.6311
   36CHL1   H3' 3774   1.855   5.293   5.642  0.1392 -1.2116 -2.7028
   36CHL1    C4 3775   1.999   5.279   5.483  0.1767 -0.3060 -0.8082
   36CHL1   H4A 3776   1.909   5.333   5.446 -0.2434  0.4365  1.1845
   36CHL1   H4B 3777   2.064   5.353   5.534 -1.3269  0.6107 -0.1343
   36CHL1    C5 3778   2.081   5.216   5.365 -0.3229 -0.3476  0.2277
   36CHL1    C6 3779   2.207   5.266   5.331 -0.3014  0.0812  0.1831
   36CHL1    H6 3780   2.251   5.348   5.389  2.0354 -1.3927  0.6564
   36CHL1    C7 3781   2.298   5.199   5.232 -0.0958 -0.2481  0.4279
   36CHL1   H7A 3782   2.355   5.271   5.169 -0.3244 -2.3217 -2.3559
   36CHL1   H7B 3783   2.367   5.132   5.286 -0.4213  1.1854  2.7888
   36CHL1    C8 3784   2.212   5.117   5.133 -0.1760 -1.0969 -0.4507
   36CHL1    H8 3785   2.172   5.195   5.065  1.5595  0.7768  0.5429
   36CHL1   C14 3786   2.309   5.038   5.041  0.1504 -0.3330  0.3492
   36CHL1   H14 3787   2.357   4.971   5.115 -0.7712 -0.0062  1.2824
   36CHL1   C15 3788   2.409   5.125   4.958  0.1089 -0.2745 -0.0194
   36CHL1  H15A 3789   2.361   5.214   4.912 -2.8943 -2.0033 -0.4371
   36CHL1  H15B 3790   2.497   5.161   5.015  0.2221  1.9409 -1.4613
   36CHL1   C16 3791   2.456   5.030   4.845 -0.8339 -0.0027  0.4448
   36CHL1  H16A 3792   2.455   5.087   4.750  1.9097 -1.2482 -0.4643
   36CHL1  H16B 3793   2.563   5.004   4.865 -0.5461 -0.1466 -1.1852
   36CHL1   C17 3794   2.361   4.902   4.855 -0.0757 -0.8311  0.1305
   36CHL1   H17 3795   2.414   4.825   4.914 -0.9659 -0.9909  0.7272
   36CHL1   C13 3796   2.242   4.947   4.942 -0.0832 -0.1519 -0.6236
   36CHL1   C18 3797   2.144   5.033   4.851  0.3986  0.4437  0.4162
   36CHL1  H18A 3798   2.209   5.107   4.800  1.4610 -1.8763 -1.8076
   36CHL1  H18B 3799   2.089   4.968   4.780  2.6223  0.1911 -1.1886
   36CHL1  H18C 3800   2.067   5.077   4.918 -0.9021 -1.2122  0.0884
   36CHL1   C12 3801   2.159   4.841   5.019  0.0485 -0.3373  0.2134
   36CHL1  H12A 3802   2.104   4.785   4.940  0.2805  0.1870 -0.3297
   36CHL1  H12B 3803   2.223   4.774   5.079  0.6230 -0.5455 -0.6032
   36CHL1   C11 3804   2.057   4.912   5.111 -0.0777  0.3629  0.4269
   36CHL1  H11A 3805   1.965   4.953   5.064 -1.3596 -0.3538  2.1728
   36CHL1  H11B 3806   2.022   4.822   5.166  0.9304 -3.0387 -3.9869
   36CHL1    C9 3807   2.123   5.020   5.203  0.2628 -1.1398  0.0268
   36CHL1    H9 3808   2.198   4.970   5.268  2.4151  1.4902 -0.2514
   36CHL1   C10 3809   2.019   5.091   5.298 -0.5980  0.1508 -0.2477
   36CHL1   C19 3810   1.913   5.155   5.202  0.0233  0.1555  0.4497
   36CHL1  H19A 3811   1.831   5.084   5.180 -0.4489  0.1371  2.1494
   36CHL1  H19B 3812   1.860   5.239   5.251 -1.2156 -0.9173  1.0144
   36CHL1  H19C 3813   1.966   5.201   5.116  0.5592  0.3488  0.8714
   36CHL1    C1 3814   1.958   4.991   5.397  0.1207 -0.1662  0.0728
   36CHL1   H1A 3815   1.903   4.916   5.337  2.1626  0.9274 -3.4577
   36CHL1   H1B 3816   2.048   4.937   5.433  1.4025  2.1963  0.6030
   36CHL1    C2 3817   1.882   5.048   5.517 -0.3143 -0.2654 -0.5553
   36CHL1   H2A 3818   1.872   4.966   5.591  0.8436 -0.2192 -0.3192
   36CHL1   H2B 3819   1.780   5.087   5.499  1.1780  4.0299 -0.8405
   36CHL1   C20 3820   2.335   4.823   4.717  0.5385  0.2062 -0.5708
   36CHL1   H20 3821   2.265   4.740   4.741 -0.8913  1.8730  1.2927
   36CHL1   C21 3822   2.471   4.760   4.694 -0.3865 -0.0442 -0.1676
   36CHL1  H21A 3823   2.481   4.699   4.602 -0.1705  2.2286 -1.7496
   36CHL1  H21B 3824   2.500   4.694   4.778 -0.6905  0.0058 -0.0246
   36CHL1  H21C 3825   2.544   4.843   4.684  0.2609 -0.4208  1.1978
   36CHL1   C22 3826   2.293   4.909   4.590  0.2725 -0.4766  0.6482
   36CHL1  H22A 3827   2.192   4.954   4.600  0.0546 -0.9170  0.4101
   36CHL1  H22B 3828   2.366   4.994   4.596  0.9772 -1.1279  1.6864
   36CHL1   C23 3829   2.306   4.839   4.449 -0.0374 -0.3049 -0.0245
   36CHL1  H23A 3830   2.411   4.808   4.427  1.0087  1.5283  2.0179
   36CHL1  H23B 3831   2.247   4.745   4.450  1.6891 -1.4423  1.1787
   36CHL1   C24 3832   2.249   4.916   4.332  0.3237 -0.1683 -0.0261
   36CHL1  H24A 3833   2.148   4.949   4.365  0.9367  0.9093  0.8614
   36CHL1  H24B 3834   2.303   5.009   4.303  0.2908  0.1745  0.9511
   36CHL1   C25 3835   2.240   4.842   4.203 -0.4958  0.7749  0.0588
   36CHL1   H25 3836   2.163   4.761   4.202 -1.8689  2.0500 -0.6147
   36CHL1   C26 3837   2.190   4.934   4.093 -0.1013  0.3523 -0.3692
   36CHL1  H26A 3838   2.099   4.987   4.129 -1.1680 -1.3602 -0.4533
   36CHL1  H26B 3839   2.269   5.003   4.055  0.6522 -0.3534 -0.1129
   36CHL1  H26C 3840   2.154   4.872   4.008  2.4384 -2.4815  0.4738
   36CHL1   C27 3841   2.378   4.784   4.162  0.1499 -0.6250 -0.9885
   36CHL1  H27A 3842   2.456   4.862   4.179 -1.7910  0.8010  2.7588
   36CHL1  H27B 3843   2.401   4.702   4.233  1.1875 -1.0583 -1.8087
   36CHL1  H27C 3844   2.375   4.740   4.060 -4.8129 -0.8478 -1.0024
   37CHL1    C3 3845   2.591   0.720   5.640 -0.0192 -0.4293  0.4434
   37CHL1    H3 3846   2.487   0.710   5.604 -0.0516 -0.2216  0.4773
   37CHL1    O3 3847   2.595   0.757   5.772 -0.0330  0.0154  0.0239
   37CHL1   H3' 3848   2.529   0.701   5.813 -2.2613 -0.1715 -3.4822
   37CHL1    C4 3849   2.643   0.585   5.631  0.3855  0.7373  0.9531
   37CHL1   H4A 3850   2.739   0.583   5.688  1.2258  0.7724 -0.4179
   37CHL1   H4B 3851   2.591   0.513   5.698 -0.6390  1.4048  0.8788
   37CHL1    C5 3852   2.655   0.530   5.489  0.8974 -0.4373 -0.8544
   37CHL1    C6 3853   2.602   0.411   5.456  0.1835  0.0768 -0.4342
   37CHL1    H6 3854   2.538   0.356   5.528  1.3289  0.1905  0.7084
   37CHL1    C7 3855   2.616   0.348   5.318  0.1613 -0.0026 -0.4226
   37CHL1   H7A 3856   2.648   0.242   5.330  1.7402  0.5162  0.2328
   37CHL1   H7B 3857   2.519   0.345   5.265  0.0070  1.6001 -0.2558
   37CHL1    C8 3858   2.716   0.422   5.232 -0.1383  0.3506 -0.0163
   37CHL1    H8 3859   2.818   0.378   5.242  0.9052  2.4692 -0.6603
   37CHL1   C14 3860   2.670   0.393   5.082  0.4355  0.1360 -0.3196
   37CHL1   H14 3861   2.576   0.452   5.075 -1.5409 -2.9081 -1.5146
   37CHL1   C15 3862   2.627   0.249   5.044  0.6802 -0.3542  0.3656
   37CHL1  H15A 3863   2.681   0.171   5.101 -0.0213  0.1641  1.7884
   37CHL1  H15B 3864   2.518   0.239   5.068  0.4049  2.5456  0.6763
   37CHL1   C16 3865   2.639   0.253   4.889  0.3635 -0.5895  0.5569
   37CHL1  H16A 3866   2.710   0.170   4.871  0.0340 -1.1272  1.6476
   37CHL1  H16B 3867   2.543   0.235   4.837 -0.3676  1.4936  1.0828
   37CHL1   C17 3868   2.697   0.396   4.849  0.0860 -0.9947  0.2557
   37CHL1   H17 3869   2.607   0.459   4.836  0.5348 -0.1543  1.0710
   37CHL1   C13 3870   2.766   0.445   4.975 -1.4558  0.2973 -0.2460
   37CHL1   C18 3871   2.910   0.387   4.986  0.2347 -0.3029  0.7556
   37CHL1  H18A 3872   2.921   0.278   4.968 -0.0277 -0.3227  0.7121
   37CHL1  H18B 3873   2.960   0.424   4.894 -0.3329  2.2299  1.4002
   37CHL1  H18C 3874   2.971   0.419   5.073 -0.3632  1.8757  0.4240
   37CHL1   C12 3875   2.769   0.597   4.997 -0.8463  0.0499  0.6952
   37CHL1  H12A 3876   2.855   0.640   4.940 -2.0178 -0.1237 -1.3033
   37CHL1  H12B 3877   2.670   0.639   4.969 -1.7024 -1.8073  0.7676
   37CHL1   C11 3878   2.798   0.642   5.135 -0.0863  0.3469 -0.5017
   37CHL1  H11A 3879   2.904   0.627   5.163  0.2594  0.2474 -1.8111
   37CHL1  H11B 3880   2.767   0.749   5.138 -2.5544 -0.3228  0.8667
   37CHL1    C9 3881   2.712   0.572   5.244  0.4086 -0.2728 -0.7016
   37CHL1    H9 3882   2.606   0.598   5.224 -0.2092 -0.9288  1.4237
   37CHL1   C10 3883   2.730   0.617   5.392 -0.0015 -0.0794  0.5005
   37CHL1   C19 3884   2.884   0.620   5.416  0.1470  0.1728 -0.6753
   37CHL1  H19A 3885   2.926   0.521   5.386  1.3517  0.2669  0.5934
   37CHL1  H19B 3886   2.939   0.697   5.358 -0.0551 -1.1460 -2.7435
   37CHL1  H19C 3887   2.916   0.636   5.521  0.3438  1.9537 -0.9840
   37CHL1    C1 3888   2.670   0.761   5.408  0.1862  0.3771 -0.6123
   37CHL1   H1A 3889   2.746   0.815   5.348 -1.2871  0.2547 -2.7277
   37CHL1   H1B 3890   2.571   0.769   5.358  0.4127 -2.6851 -1.7731
   37CHL1    C2 3891   2.666   0.816   5.547 -0.5692 -0.1492 -0.4121
   37CHL1   H2A 3892   2.603   0.907   5.547  1.0304  1.1536  3.5196
   37CHL1   H2B 3893   2.765   0.843   5.589 -1.4279  1.4645  0.6665
   37CHL1   C20 3894   2.771   0.412   4.714  0.1393 -0.8442  0.4714
   37CHL1   H20 3895   2.860   0.346   4.712 -0.7883 -2.1348 -0.4653
   37CHL1   C21 3896   2.822   0.555   4.683 -0.3312  0.0333 -0.3601
   37CHL1  H21A 3897   2.870   0.545   4.583  2.8513 -0.9318  1.1256
   37CHL1  H21B 3898   2.905   0.579   4.752 -2.0355  0.8269  1.5012
   37CHL1  H21C 3899   2.741   0.631   4.687 -0.5542 -0.2835  2.2089
   37CHL1   C22 3900   2.682   0.360   4.598 -0.7234 -0.1497  0.9309
   37CHL1  H22A 3901   2.632   0.265   4.623  1.9087 -1.8549  0.1801
   37CHL1  H22B 3902   2.598   0.432   4.589  0.6192  1.7570  2.6198
   37CHL1   C23 3903   2.744   0.339   4.455 -0.3377  0.1914 -0.4110
   37CHL1  H23A 3904   2.665   0.326   4.378 -0.7700 -1.5149  0.2729
   37CHL1  H23B 3905   2.794   0.437   4.435  1.5373 -0.4668  0.7868
   37CHL1   C24 3906   2.851   0.227   4.441  0.2057 -0.0621  0.2136
   37CHL1  H24A 3907   2.930   0.255   4.514  1.5429 -1.2864 -0.7103
   37CHL1  H24B 3908   2.809   0.126   4.458 -0.5124  0.4061  1.3434
   37CHL1   C25 3909   2.913   0.212   4.297 -0.5035 -0.1317  0.2329
   37CHL1   H25 3910   2.979   0.298   4.275  1.0385 -1.3646 -0.1112
   37CHL1   C26 3911   3.016   0.103   4.289 -0.4805 -0.4747 -0.6512
   37CHL1  H26A 3912   2.977   0.006   4.328  0.9541  0.0663  2.4695
   37CHL1  H26B 3913   3.046   0.090   4.183 -1.0708  0.7660 -0.9903
   37CHL1  H26C 3914   3.100   0.128   4.357 -0.9024 -1.2839  0.1955
   37CHL1   C27 3915   2.809   0.176   4.197 -0.2115  0.5681  0.0066
   37CHL1  H27A 3916   2.734   0.258   4.184 -0.6244 -0.1192 -2.4257
   37CHL1  H27B 3917   2.854   0.156   4.098 -0.7678 -0.5634 -0.0365
   37CHL1  H27C 3918   2.759   0.083   4.232 -1.1933  1.1213  0.1243
   38CHL1    C3 3919   2.538   3.153   6.187  0.0141 -0.0502  0.1830
   38CHL1    H3 3920   2.444   3.207   6.165  0.2601 -0.7740 -3.2818
   38CHL1    O3 3921   2.550   3.129   6.328  0.1276 -0.2330  0.1982
   38CHL1   H3' 3922   2.477   3.068   6.341 -1.3378  1.1844 -0.8779
   38CHL1    C4 3923   2.544   3.019   6.113  0.4505 -0.2714  0.2994
   38CHL1   H4A 3924   2.637   2.963   6.134 -0.3205 -0.6962  2.8776
   38CHL1   H4B 3925   2.472   2.952   6.164  0.3770 -0.2374  0.2415
   38CHL1    C5 3926   2.554   3.037   5.961  0.8077 -0.2729 -0.2217
   38CHL1    C6 3927   2.462   2.979   5.895  0.4039  0.0178  0.3527
   38CHL1    H6 3928   2.387   2.919   5.949  0.0706 -2.3538 -2.4995
   38CHL1    C7 3929   2.457   2.972   5.746 -0.2232 -0.2060  0.1378
   38CHL1   H7A 3930   2.464   2.869   5.707 -2.5192 -0.8008  1.1101
   38CHL1   H7B 3931   2.361   3.016   5.710 -0.9479  1.3083  3.5109
   38CHL1    C8 3932   2.569   3.053   5.671  0.3039  0.3796  0.0782
   38CHL1    H8 3933   2.650   2.978   5.661  0.2561  0.2552  0.5974
   38CHL1   C14 3934   2.517   3.099   5.534 -0.0644  0.0354  0.0836
   38CHL1   H14 3935   2.429   3.165   5.549 -0.4548 -0.5047  0.1795
   38CHL1   C15 3936   2.470   2.989   5.439 -0.3532 -0.2298 -0.2843
   38CHL1  H15A 3937   2.551   2.915   5.423  0.6931  0.4925  1.3732
   38CHL1  H15B 3938   2.378   2.934   5.469  0.0672  0.0723  1.6873
   38CHL1   C16 3939   2.461   3.062   5.305 -0.4416 -0.1423 -0.2744
   38CHL1  H16A 3940   2.506   2.996   5.228 -0.7189 -0.4409 -0.1823
   38CHL1  H16B 3941   2.361   3.101   5.275 -0.7988  1.8280  2.9744
   38CHL1   C17 3942   2.548   3.194   5.319  0.5627 -0.3909 -0.2704
   38CHL1   H17 3943   2.485   3.285   5.329  1.1158 -0.1991  2.3218
   38CHL1   C13 3944   2.620   3.179   5.458 -0.5639 -0.3431  0.3428
   38CHL1   C18 3945   2.756   3.101   5.429  0.8972 -0.4974  0.2323
   38CHL1  H18A 3946   2.754   3.010   5.365 -1.1858  0.2111 -0.7959
   38CHL1  H18B 3947   2.833   3.172   5.391 -0.5628  0.6873 -0.6272
   38CHL1  H18C 3948   2.806   3.070   5.523 -0.3321  1.3426  1.5693
   38CHL1   C12 3949   2.645   3.306   5.540  0.1753  0.1635 -1.0969
   38CHL1  H12A 3950   2.720   3.373   5.493  1.2284 -0.9579 -1.0631
   38CHL1  H12B 3951   2.552   3.361   5.567 -0.1466 -0.8514 -0.0121
   38CHL1   C11 3952   2.701   3.266   5.680 -0.3590  0.1462  0.0326
   38CHL1  H11A 3953   2.798   3.211   5.676  0.0643  0.7687  1.3423
   38CHL1  H11B 3954   2.733   3.358   5.733 -0.2970  0.8781 -1.2189
   38CHL1    C9 3955   2.608   3.170   5.756 -0.0074  0.1371  1.3656
   38CHL1    H9 3956   2.510   3.223   5.759 -0.1790  0.2133 -1.8797
   38CHL1   C10 3957   2.653   3.139   5.902 -0.2333  0.5293 -0.1691
   38CHL1   C19 3958   2.790   3.078   5.908  0.1387  0.3555 -0.3507
   38CHL1  H19A 3959   2.866   3.152   5.874  0.2392  1.1119  1.3866
   38CHL1  H19B 3960   2.827   3.045   6.008  1.3024  0.2809 -0.7907
   38CHL1  H19C 3961   2.801   2.993   5.838  0.2072 -0.3068  0.4375
   38CHL1    C1 3962   2.641   3.267   5.991 -0.2111 -0.1633  0.5244
   38CHL1   H1A 3963   2.720   3.340   5.961 -1.7772  1.0580 -0.8339
   38CHL1   H1B 3964   2.552   3.332   5.977 -0.1223  0.0701  1.0072
   38CHL1    C2 3965   2.658   3.239   6.143 -0.6024  0.5592  0.3132
   38CHL1   H2A 3966   2.651   3.336   6.196 -0.2165  1.1129 -0.6330
   38CHL1   H2B 3967   2.760   3.197   6.161 -0.1937  1.6336  0.5467
   38CHL1   C20 3968   2.629   3.227   5.191 -0.5997  0.5401  0.0102
   38CHL1   H20 3969   2.704   3.148   5.169  0.2908  0.8504  1.7439
   38CHL1   C21 3970   2.694   3.368   5.211 -0.5091  0.2654  0.8220
   38CHL1  H21A 3971   2.760   3.364   5.300 -1.6897  0.0689  1.7182
   38CHL1  H21B 3972   2.613   3.442   5.230  0.3617  1.7650 -0.9954
   38CHL1  H21C 3973   2.759   3.407   5.130  0.8096 -1.3243  1.0832
   38CHL1   C22 3974   2.545   3.236   5.058 -0.2063 -0.2757  0.0185
   38CHL1  H22A 3975   2.483   3.144   5.053  1.4763 -1.4780  0.1369
   38CHL1  H22B 3976   2.485   3.329   5.061  0.8992  0.4711 -0.4119
   38CHL1   C23 3977   2.635   3.247   4.926 -0.3206  0.0626  0.6067
   38CHL1  H23A 3978   2.596   3.329   4.862  1.0972  0.9703  0.8586
   38CHL1  H23B 3979   2.734   3.284   4.960 -0.8963  3.0164 -0.5766
   38CHL1   C24 3980   2.652   3.115   4.849 -0.2696  0.4603 -0.5197
   38CHL1  H24A 3981   2.697   3.032   4.908 -0.1308 -0.4014 -1.7905
   38CHL1  H24B 3982   2.554   3.092   4.802  0.3506 -2.4416 -0.5937
   38CHL1   C25 3983   2.747   3.122   4.727 -0.5144 -0.3690  0.3092
   38CHL1   H25 3984   2.741   3.223   4.683  0.6682 -0.6735 -0.6080
   38CHL1   C26 3985   2.890   3.097   4.780 -0.5395 -0.2887  0.8099
   38CHL1  H26A 3986   2.912   3.173   4.858 -1.7177 -0.6250  1.4941
   38CHL1  H26B 3987   2.904   2.993   4.818 -1.5754 -0.9066 -0.4159
   38CHL1  H26C 3988   2.962   3.125   4.699  0.2118 -1.7854  0.9168
   38CHL1   C27 3989   2.725   3.015   4.619 -1.2265 -0.0814  0.2047
   38CHL1  H27A 3990   2.724   2.915   4.668  0.7976 -0.0554  0.3822
   38CHL1  H27B 3991   2.635   3.034   4.557 -1.0184 -1.6264 -0.6310
   38CHL1  H27C 3992   2.809   3.019   4.547 -0.0959  0.0968  1.4840
   39CHL1    C3 3993   3.561   4.009   5.673  0.5874 -0.4146  0.2826
   39CHL1    H3 3994   3.505   3.915   5.653 -2.1953  0.8975  1.4521
   39CHL1    O3 3995   3.603   3.992   5.806 -0.0155 -0.2777 -0.0520
   39CHL1   H3' 3996   3.683   3.939   5.806  0.6676  0.6390  2.0790
   39CHL1    C4 3997   3.682   4.038   5.584 -0.0548  0.4673 -0.1338
   39CHL1   H4A 3998   3.731   4.129   5.627  0.7877  0.1688 -0.4409
   39CHL1   H4B 3999   3.766   3.965   5.590 -1.7353 -1.5804 -0.5607
   39CHL1    C5 4000   3.648   4.066   5.439  0.1230 -0.2013 -0.0094
   39CHL1    C6 4001   3.709   3.995   5.343  0.4026  0.2639  0.1620
   39CHL1    H6 4002   3.789   3.926   5.372 -0.5719 -1.0801 -0.2780
   39CHL1    C7 4003   3.685   4.023   5.192 -0.4054 -0.0738 -0.8434
   39CHL1   H7A 4004   3.776   4.002   5.131 -1.0022  0.7672 -2.0724
   39CHL1   H7B 4005   3.618   3.941   5.157  0.5873 -1.9358  1.3274
   39CHL1    C8 4006   3.621   4.161   5.164 -0.2118 -0.1201 -1.1006
   39CHL1    H8 4007   3.698   4.237   5.190 -1.3509  0.8068 -0.3288
   39CHL1   C14 4008   3.586   4.166   5.018 -0.6413 -0.4368 -0.6685
   39CHL1   H14 4009   3.516   4.081   5.010 -0.4955 -0.4238 -2.3119
   39CHL1   C15 4010   3.697   4.144   4.906 -0.0957  0.1303  0.7224
   39CHL1  H15A 4011   3.788   4.202   4.933 -0.3428 -0.5808  3.3736
   39CHL1  H15B 4012   3.720   4.038   4.882 -1.3214 -0.0583  0.3187
   39CHL1   C16 4013   3.644   4.209   4.783  0.3472 -0.7441  0.4337
   39CHL1  H16A 4014   3.722   4.279   4.746 -0.1280  0.0830  0.9797
   39CHL1  H16B 4015   3.634   4.138   4.698  0.1018  1.6466 -1.6341
   39CHL1   C17 4016   3.503   4.268   4.824  0.3382  0.2642  0.1252
   39CHL1   H17 4017   3.434   4.183   4.809  1.9889 -1.0034 -0.7189
   39CHL1   C13 4018   3.509   4.291   4.979  0.1998 -0.8180  0.5743
   39CHL1   C18 4019   3.593   4.415   5.002 -0.4016  0.2779  0.5995
   39CHL1  H18A 4020   3.520   4.498   4.988  0.0718  0.6563  0.3349
   39CHL1  H18B 4021   3.631   4.433   5.104 -0.1403  2.7944  0.1202
   39CHL1  H18C 4022   3.681   4.428   4.935 -0.0079  1.7298  1.3702
   39CHL1   C12 4023   3.380   4.294   5.062 -0.4845  0.1773 -0.2819
   39CHL1  H12A 4024   3.334   4.395   5.049 -0.0363  0.3939 -0.2161
   39CHL1  H12B 4025   3.304   4.220   5.029  1.1201 -1.2487 -0.9088
   39CHL1   C11 4026   3.404   4.280   5.210  0.0959 -0.0413 -0.5878
   39CHL1  H11A 4027   3.435   4.379   5.251  2.3871 -1.8476  2.4591
   39CHL1  H11B 4028   3.311   4.255   5.265  0.9711 -0.1238  0.9213
   39CHL1    C9 4029   3.496   4.166   5.254 -1.2123  0.3004  0.1646
   39CHL1    H9 4030   3.436   4.072   5.245  0.4680 -0.8259  0.2937
   39CHL1   C10 4031   3.536   4.171   5.409 -0.4704  0.2847 -0.0146
   39CHL1   C19 4032   3.606   4.307   5.433  0.0914  0.1372 -0.0144
   39CHL1  H19A 4033   3.650   4.317   5.535  0.4016  1.3030 -0.2506
   39CHL1  H19B 4034   3.681   4.339   5.357  0.1694  2.5299  0.9537
   39CHL1  H19C 4035   3.520   4.377   5.427  1.2319  1.4397 -2.4840
   39CHL1    C1 4036   3.423   4.150   5.513 -0.2163  0.2365 -0.5881
   39CHL1   H1A 4037   3.352   4.236   5.519  2.2627  2.4791 -1.1829
   39CHL1   H1B 4038   3.362   4.060   5.491  0.1988 -0.5010  1.1403
   39CHL1    C2 4039   3.469   4.130   5.662  0.6724  0.0364 -0.7402
   39CHL1   H2A 4040   3.383   4.109   5.729  0.3621  0.6883 -0.9320
   39CHL1   H2B 4041   3.513   4.223   5.704 -0.2627 -0.2976  1.0881
   39CHL1   C20 4042   3.466   4.390   4.732  0.8793  0.4423  0.2476
   39CHL1   H20 4043   3.529   4.477   4.761 -0.0056  1.1653  0.0307
   39CHL1   C21 4044   3.314   4.420   4.740  0.0067  0.2454 -0.0190
   39CHL1  H21A 4045   3.258   4.409   4.836  1.0631  0.2904  0.6115
   39CHL1  H21B 4046   3.269   4.343   4.674 -2.0062  0.7486  0.6927
   39CHL1  H21C 4047   3.276   4.518   4.703  1.9392  1.0580  0.0256
   39CHL1   C22 4048   3.505   4.359   4.581  0.0435  0.3346 -0.2284
   39CHL1  H22A 4049   3.615   4.355   4.572  0.0159  0.5588 -0.6984
   39CHL1  H22B 4050   3.481   4.251   4.569  2.8942 -0.3667 -0.3148
   39CHL1   C23 4051   3.441   4.460   4.477 -0.5329  0.2800 -0.8404
   39CHL1  H23A 4052   3.471   4.414   4.381  0.9247 -0.2081 -0.1739
   39CHL1  H23B 4053   3.330   4.462   4.480 -0.5816  2.1075 -2.2305
   39CHL1   C24 4054   3.506   4.598   4.498  0.0818 -0.0318 -0.1418
   39CHL1  H24A 4055   3.445   4.653   4.573 -1.1820 -1.6741  0.1059
   39CHL1  H24B 4056   3.605   4.585   4.545 -1.4223 -2.4205  2.7169
   39CHL1   C25 4057   3.533   4.667   4.363  0.2216  0.3384 -0.6707
   39CHL1   H25 4058   3.608   4.607   4.307  0.9172  0.8197 -0.2581
   39CHL1   C26 4059   3.409   4.652   4.271  0.3316  0.6478 -0.2566
   39CHL1  H26A 4060   3.440   4.703   4.178 -1.3076 -0.2996 -1.3715
   39CHL1  H26B 4061   3.372   4.548   4.257  1.2472  0.0767  1.2936
   39CHL1  H26C 4062   3.327   4.717   4.309 -0.3415 -0.7500  0.8005
   39CHL1   C27 4063   3.574   4.812   4.375 -0.1623 -0.0232 -0.1346
   39CHL1  H27A 4064   3.564   4.852   4.272  2.3032 -0.1031 -0.4635
   39CHL1  H27B 4065   3.504   4.855   4.450 -0.9906 -1.2208 -0.1941
   39CHL1  H27C 4066   3.679   4.822   4.411 -0.6303 -0.1372  1.3112
   40CHL1    C3 4067   6.074   6.745   6.166 -0.5361 -0.2571 -0.0648
   40CHL1    H3 4068   6.182   6.770   6.161 -0.7901  0.5784 -4.0735
   40CHL1    O3 4069   6.050   6.705   6.297 -0.4375 -0.0543 -0.1869
   40CHL1   H3' 4070   6.094   6.766   6.357  0.5130 -0.4280 -0.4814
   40CHL1    C4 4071   5.999   6.877   6.146 -0.5150 -0.4067  0.1399
   40CHL1   H4A 4072   5.890   6.866   6.166 -0.6904 -1.2026 -1.1231
   40CHL1   H4B 4073   6.042   6.945   6.223  0.2487  0.2826 -0.8602
   40CHL1    C5 4074   6.022   6.942   6.011  0.1124 -0.0886  0.4738
   40CHL1    C6 4075   6.063   7.067   5.992 -0.2295  0.4111  0.5578
   40CHL1    H6 4076   6.088   7.126   6.082  2.2606  0.6196 -0.2044
   40CHL1    C7 4077   6.077   7.134   5.858  0.0458  0.1948 -0.1122
   40CHL1   H7A 4078   6.003   7.217   5.853 -0.4989 -0.3297 -1.0727
   40CHL1   H7B 4079   6.180   7.172   5.839 -0.1776  1.1846  0.5400
   40CHL1    C8 4080   6.020   7.048   5.743  0.7641 -0.0888  0.7546
   40CHL1    H8 4081   5.911   7.058   5.764  0.4288 -1.9923  0.0511
   40CHL1   C14 4082   6.051   7.107   5.608  0.1177 -0.4615 -0.2716
   40CHL1   H14 4083   6.162   7.094   5.607  0.1873  0.1412 -0.8383
   40CHL1   C15 4084   6.009   7.252   5.572  0.5926 -0.1393  0.4469
   40CHL1  H15A 4085   5.908   7.265   5.618  0.1893 -1.1714 -0.1163
   40CHL1  H15B 4086   6.067   7.339   5.610  1.0568  0.1412 -0.8458
   40CHL1   C16 4087   6.022   7.260   5.425 -0.3738  0.2773  0.2757
   40CHL1  H16A 4088   5.928   7.300   5.380 -0.9384 -2.1947 -0.9187
   40CHL1  H16B 4089   6.102   7.330   5.393 -2.0204  1.8118 -0.6614
   40CHL1   C17 4090   6.052   7.117   5.378  0.5224 -0.5564  0.2819
   40CHL1   H17 4091   6.162   7.107   5.387  0.7973  1.3580 -0.5568
   40CHL1   C13 4092   5.997   7.024   5.492 -0.2571 -0.3765 -0.5930
   40CHL1   C18 4093   5.847   7.019   5.498 -0.1252  0.2874  0.1633
   40CHL1  H18A 4094   5.808   6.969   5.408  0.7768  0.4934 -0.3582
   40CHL1  H18B 4095   5.806   6.970   5.589  1.8096 -0.5603  0.6315
   40CHL1  H18C 4096   5.798   7.119   5.503  0.0313  0.3180  1.8073
   40CHL1   C12 4097   6.058   6.883   5.493  0.6117  0.2427 -0.8970
   40CHL1  H12A 4098   6.045   6.811   5.409 -0.9252 -0.6581  0.0595
   40CHL1  H12B 4099   6.168   6.893   5.503  0.2033  2.5280  3.8903
   40CHL1   C11 4100   6.018   6.817   5.631  0.0804 -0.2309  0.9347
   40CHL1  H11A 4101   5.913   6.787   5.611 -0.1850  1.0029  0.3828
   40CHL1  H11B 4102   6.076   6.723   5.641 -0.0586 -0.2199  1.9198
   40CHL1    C9 4103   6.049   6.899   5.761 -1.0669  0.1381  0.5882
   40CHL1    H9 4104   6.159   6.897   5.775 -1.0439  0.5805  0.5020
   40CHL1   C10 4105   6.003   6.836   5.892  0.6664  0.0541  0.2433
   40CHL1   C19 4106   5.851   6.805   5.883  0.3881  0.8774  0.0205
   40CHL1  H19A 4107   5.803   6.891   5.832  0.7554  0.5918 -0.8283
   40CHL1  H19B 4108   5.822   6.722   5.815 -1.4283  2.6996 -1.5685
   40CHL1  H19C 4109   5.812   6.783   5.985  0.9688  1.4065  0.3667
   40CHL1    C1 4110   6.071   6.703   5.919 -0.7508 -0.2220 -0.4049
   40CHL1   H1A 4111   6.044   6.635   5.836 -0.6267  0.3779 -0.9446
   40CHL1   H1B 4112   6.182   6.714   5.925 -0.9745  2.4240  0.1574
   40CHL1    C2 4113   6.039   6.639   6.057 -0.6525  0.1642 -0.3557
   40CHL1   H2A 4114   6.105   6.550   6.061 -2.5308 -1.4167 -2.0668
   40CHL1   H2B 4115   5.932   6.609   6.062 -0.4122 -0.8453 -1.0715
   40CHL1   C20 4116   6.001   7.100   5.231 -0.1660  0.4795 -0.7518
   40CHL1   H20 4117   5.893   7.127   5.227 -0.1578  1.4161  2.4145
   40CHL1   C21 4118   6.015   6.959   5.181  0.0300 -0.9722  0.3408
   40CHL1  H21A 4119   5.970   6.965   5.080 -1.2982  2.5996  0.9879
   40CHL1  H21B 4120   5.947   6.888   5.233 -0.5428 -2.7995 -2.6504
   40CHL1  H21C 4121   6.117   6.914   5.183 -0.1981 -1.4839  0.6269
   40CHL1   C22 4122   6.069   7.200   5.131 -0.5532  0.5637 -0.2182
   40CHL1  H22A 4123   6.020   7.186   5.032  0.8366  2.6308 -1.2809
   40CHL1  H22B 4124   6.055   7.306   5.161  0.4981  1.0990 -1.4901
   40CHL1   C23 4125   6.224   7.174   5.131 -0.5901  0.0745 -0.2347
   40CHL1  H23A 4126   6.277   7.159   5.227  1.1730  0.4317 -1.1178
   40CHL1  H23B 4127   6.220   7.082   5.070 -2.0085  1.3831 -2.2679
   40CHL1   C24 4128   6.296   7.288   5.053 -0.5359 -0.1755 -0.1231
   40CHL1  H24A 4129   6.238   7.322   4.964  1.0279  1.0366 -0.7328
   40CHL1  H24B 4130   6.305   7.376   5.121 -2.0391  1.2034 -1.6002
   40CHL1   C25 4131   6.438   7.249   5.012 -0.6160  0.2985 -0.7585
   40CHL1   H25 4132   6.483   7.211   5.106 -0.2240 -0.8765 -1.4062
   40CHL1   C26 4133   6.413   7.145   4.904  0.3355  0.5114 -0.0923
   40CHL1  H26A 4134   6.372   7.061   4.965  1.6191  0.5193  0.8243
   40CHL1  H26B 4135   6.348   7.179   4.821 -3.1802 -1.9259  1.4355
   40CHL1  H26C 4136   6.504   7.112   4.848  0.3675 -1.7046  1.1408
   40CHL1   C27 4137   6.528   7.360   4.962 -0.1836  0.3921  0.4237
   40CHL1  H27A 4138   6.551   7.439   5.037 -0.5731  0.9667 -0.0544
   40CHL1  H27B 4139   6.621   7.311   4.929 -1.5969 -1.9300 -0.3643
   40CHL1  H27C 4140   6.486   7.418   4.877  2.7579  1.2789 -0.5215
   41CHL1    C3 4141   0.830   4.935   5.635  0.3009 -0.6549 -0.5220
   41CHL1    H3 4142   0.888   4.840   5.638  1.6193  0.1572  0.2210
   41CHL1    O3 4143   0.814   4.962   5.775 -0.5855  0.5880  0.4418
   41CHL1   H3' 4144   0.758   5.040   5.775  1.0893  1.8405  0.5083
   41CHL1    C4 4145   0.903   5.044   5.553 -0.5548 -0.4457  0.3430
   41CHL1   H4A 4146   0.830   5.128   5.552  0.1665  0.1866  0.4253
   41CHL1   H4B 4147   0.998   5.084   5.593 -0.3498  0.3498 -0.8866
   41CHL1    C5 4148   0.911   4.998   5.410 -0.0647 -0.0771  0.8516
   41CHL1    C6 4149   1.025   4.963   5.361 -0.2857 -0.2678  0.5915
   41CHL1    H6 4150   1.111   4.971   5.429 -0.3722 -2.4765  1.0174
   41CHL1    C7 4151   1.055   4.925   5.223  0.5317 -0.1472 -0.3209
   41CHL1   H7A 4152   1.138   4.989   5.186 -0.4526  0.7112 -1.1205
   41CHL1   H7B 4153   1.086   4.819   5.210 -2.9508 -1.2749 -0.3405
   41CHL1    C8 4154   0.927   4.960   5.133  0.3321  0.4317 -0.2249
   41CHL1    H8 4155   0.916   5.070   5.125 -2.2405  0.2006 -0.9692
   41CHL1   C14 4156   0.947   4.889   5.000 -0.1807 -0.5113  0.4093
   41CHL1   H14 4157   0.946   4.781   5.025  1.3396 -0.3392  1.3018
   41CHL1   C15 4158   1.084   4.892   4.930  0.1150  0.2005 -0.4321
   41CHL1  H15A 4159   1.125   4.995   4.931  1.4300 -0.3031 -0.5307
   41CHL1  H15B 4160   1.161   4.829   4.979  0.1496  0.0675 -0.6545
   41CHL1   C16 4161   1.047   4.833   4.791 -0.1068  0.3174  0.1803
   41CHL1  H16A 4162   1.087   4.902   4.713  0.7042 -0.7820 -0.4055
   41CHL1  H16B 4163   1.098   4.735   4.780 -0.9207 -0.0241 -0.6552
   41CHL1   C17 4164   0.892   4.824   4.786  0.1945  0.3642  0.9552
   41CHL1   H17 4165   0.863   4.720   4.812 -1.4403  1.2995  3.1134
   41CHL1   C13 4166   0.837   4.911   4.898 -0.1713  0.4086  0.3441
   41CHL1   C18 4167   0.841   5.059   4.863  0.3192  0.7184  0.4242
   41CHL1  H18A 4168   0.939   5.097   4.827 -0.2461  1.5358 -0.3100
   41CHL1  H18B 4169   0.762   5.097   4.794  0.2987  0.2361  0.1777
   41CHL1  H18C 4170   0.822   5.113   4.958 -2.6304  2.3350 -0.9293
   41CHL1   C12 4171   0.705   4.865   4.964 -0.0287 -0.3560  0.3526
   41CHL1  H12A 4172   0.623   4.898   4.897  0.3505  1.1657  0.6005
   41CHL1  H12B 4173   0.715   4.755   4.975  0.9725 -0.1577  1.7042
   41CHL1   C11 4174   0.677   4.933   5.103  0.7750  0.1956 -0.3500
   41CHL1  H11A 4175   0.651   5.039   5.080  0.4487  0.2721  0.3249
   41CHL1  H11B 4176   0.585   4.897   5.154  1.0644 -0.4466 -0.2702
   41CHL1    C9 4177   0.800   4.905   5.198 -0.0434 -0.9690  0.4582
   41CHL1    H9 4178   0.802   4.795   5.210 -0.5790 -1.4300 -2.6613
   41CHL1   C10 4179   0.784   4.972   5.339  0.6675 -0.1369 -0.4295
   41CHL1   C19 4180   0.712   5.113   5.320  0.6077  0.5738  0.4385
   41CHL1  H19A 4181   0.777   5.181   5.261  1.7325 -1.7427 -1.1548
   41CHL1  H19B 4182   0.615   5.102   5.267  1.3628 -1.3230 -0.6407
   41CHL1  H19C 4183   0.694   5.164   5.417 -1.3611 -0.7923  0.8636
   41CHL1    C1 4184   0.695   4.883   5.422 -1.0870  0.2439 -0.0999
   41CHL1   H1A 4185   0.591   4.867   5.387 -0.9809  0.3153 -0.4546
   41CHL1   H1B 4186   0.740   4.781   5.422  1.5676  1.3097  0.6968
   41CHL1    C2 4187   0.696   4.912   5.573 -0.0537  0.2260 -0.1981
   41CHL1   H2A 4188   0.643   4.831   5.627 -1.8999  2.3394  1.3470
   41CHL1   H2B 4189   0.647   5.012   5.569  1.0165  0.7794 -4.2762
   41CHL1   C20 4190   0.839   4.842   4.645  0.2261  0.0178  0.3948
   41CHL1   H20 4191   0.855   4.947   4.614 -0.7429  0.0150 -0.1841
   41CHL1   C21 4192   0.683   4.835   4.638 -0.8080 -0.2723 -0.8249
   41CHL1  H21A 4193   0.644   4.742   4.683 -1.4140  1.3367  2.2385
   41CHL1  H21B 4194   0.657   4.851   4.531  0.3854  1.2539 -0.9148
   41CHL1  H21C 4195   0.635   4.913   4.701 -1.2874 -2.7562  2.1154
   41CHL1   C22 4196   0.893   4.727   4.553 -0.2719  0.0575 -0.3183
   41CHL1  H22A 4197   1.000   4.699   4.566  0.3399  0.3649 -3.8069
   41CHL1  H22B 4198   0.829   4.638   4.570 -0.6995  0.1864 -1.2065
   41CHL1   C23 4199   0.883   4.768   4.408  0.0074 -0.3009 -0.3920
   41CHL1  H23A 4200   0.784   4.814   4.387 -0.3289 -0.0944  1.4572
   41CHL1  H23B 4201   0.956   4.850   4.390  0.2267  0.3063  2.7197
   41CHL1   C24 4202   0.901   4.647   4.308 -0.3128  0.0687  0.6956
   41CHL1  H24A 4203   0.999   4.596   4.325 -0.3287 -0.8657 -1.7197
   41CHL1  H24B 4204   0.834   4.561   4.328  1.5916 -1.5521  0.5096
   41CHL1   C25 4205   0.894   4.685   4.154  0.4359 -0.2211 -0.4700
   41CHL1   H25 4206   0.792   4.724   4.137  0.0711 -0.5967  0.7546
   41CHL1   C26 4207   0.988   4.798   4.117  0.2961  0.4778 -0.5090
   41CHL1  H26A 4208   1.090   4.772   4.153 -0.1933 -2.6480 -1.0465
   41CHL1  H26B 4209   0.996   4.797   4.006  0.8535 -2.1172 -0.5302
   41CHL1  H26C 4210   0.953   4.898   4.151  0.0252 -0.1444  1.1453
   41CHL1   C27 4211   0.913   4.557   4.072 -0.0531  0.4541  0.4213
   41CHL1  H27A 4212   1.007   4.500   4.090 -1.6166 -3.0230 -1.4701
   41CHL1  H27B 4213   0.830   4.485   4.089 -0.0169  0.4867  0.7361
   41CHL1  H27C 4214   0.907   4.564   3.961 -1.1916  0.4215  0.4693
   42CHL1    C3 4215   0.731   6.850   6.000  0.0173 -0.4790 -0.2747
   42CHL1    H3 4216   0.783   6.928   5.940  0.5703 -1.2130 -0.7686
   42CHL1    O3 4217   0.697   6.914   6.126 -0.0136  0.6154  0.2935
   42CHL1   H3' 4218   0.631   6.857   6.165  0.3032 -0.0890 -0.1864
   42CHL1    C4 4219   0.605   6.826   5.917 -1.0880  0.3580  0.2539
   42CHL1   H4A 4220   0.543   6.748   5.965 -0.9776 -0.9340 -1.5709
   42CHL1   H4B 4221   0.543   6.918   5.926 -2.2481 -0.5560  2.2253
   42CHL1    C5 4222   0.642   6.781   5.776 -0.2096  1.0590 -0.0255
   42CHL1    C6 4223   0.610   6.861   5.669 -0.3401 -0.1978  0.2192
   42CHL1    H6 4224   0.552   6.952   5.689 -0.6463  0.1481 -2.0263
   42CHL1    C7 4225   0.647   6.829   5.517 -0.0590  0.1879  0.0403
   42CHL1   H7A 4226   0.559   6.848   5.452 -0.2989  0.1040  0.3391
   42CHL1   H7B 4227   0.735   6.895   5.501  0.9210 -0.8894  0.8384
   42CHL1    C8 4228   0.694   6.683   5.506  0.7360  0.0353  0.0106
   42CHL1    H8 4229   0.611   6.611   5.522  0.6919  0.2277  0.7033
   42CHL1   C14 4230   0.759   6.671   5.369 -0.0210  0.3859 -0.4561
   42CHL1   H14 4231   0.851   6.733   5.375  0.7778 -0.8658  1.0694
   42CHL1   C15 4232   0.682   6.718   5.243  0.5007 -0.3038 -0.1792
   42CHL1  H15A 4233   0.573   6.702   5.258  0.5116 -1.8143 -1.3846
   42CHL1  H15B 4234   0.695   6.827   5.227 -0.3697 -0.4566 -2.1859
   42CHL1   C16 4235   0.737   6.632   5.130  0.5465  0.1884  0.7467
   42CHL1  H16A 4236   0.660   6.568   5.081  0.9378 -0.8894  1.4924
   42CHL1  H16B 4237   0.776   6.699   5.050 -0.6686  1.1504  0.9290
   42CHL1   C17 4238   0.860   6.552   5.193  0.4452  0.1703 -0.6577
   42CHL1   H17 4239   0.950   6.617   5.187  0.3752  0.2035 -1.4404
   42CHL1   C13 4240   0.813   6.532   5.347 -0.2329 -0.0867 -0.2099
   42CHL1   C18 4241   0.705   6.420   5.350  0.1372  0.3685 -0.2125
   42CHL1  H18A 4242   0.648   6.410   5.445  1.4999  3.5887  1.0733
   42CHL1  H18B 4243   0.636   6.422   5.263 -1.4426  1.0256  1.0107
   42CHL1  H18C 4244   0.759   6.324   5.334 -0.2984 -0.3789  2.3489
   42CHL1   C12 4245   0.933   6.508   5.449  0.2912  0.2130 -0.4519
   42CHL1  H12A 4246   0.978   6.408   5.436  0.6223  0.3667 -0.4835
   42CHL1  H12B 4247   1.009   6.587   5.433  1.9019 -1.1604  0.0922
   42CHL1   C11 4248   0.872   6.517   5.598  0.3473 -0.4743 -0.0723
   42CHL1  H11A 4249   0.806   6.428   5.602 -1.8816  1.1174  0.5081
   42CHL1  H11B 4250   0.963   6.513   5.662  0.3485  0.9719  0.0496
   42CHL1    C9 4251   0.788   6.650   5.617 -1.0119  0.2356  0.8308
   42CHL1    H9 4252   0.854   6.740   5.610 -3.2226  1.8335 -0.8577
   42CHL1   C10 4253   0.730   6.653   5.759 -0.6967 -0.8451  0.0605
   42CHL1   C19 4254   0.647   6.518   5.788 -0.1665 -0.5430  0.0469
   42CHL1  H19A 4255   0.569   6.502   5.710 -0.2017  1.8572 -0.5031
   42CHL1  H19B 4256   0.721   6.435   5.781 -1.2508 -1.4095 -2.2221
   42CHL1  H19C 4257   0.614   6.524   5.893 -1.3915  0.2095 -0.3622
   42CHL1    C1 4258   0.843   6.678   5.867 -0.1602  0.7212 -0.7630
   42CHL1   H1A 4259   0.889   6.578   5.880  0.3164  0.9062 -1.0195
   42CHL1   H1B 4260   0.920   6.752   5.836  2.1101 -0.9801  0.4891
   42CHL1    C2 4261   0.806   6.715   6.011 -1.0568 -1.2980 -0.1693
   42CHL1   H2A 4262   0.896   6.724   6.075 -1.3002 -1.1538  0.1553
   42CHL1   H2B 4263   0.748   6.636   6.063 -0.3815 -0.4462  1.9890
   42CHL1   C20 4264   0.895   6.423   5.114 -0.4048 -0.1960 -0.6055
   42CHL1   H20 4265   0.809   6.354   5.120 -0.3250 -0.1798  3.2648
   42CHL1   C21 4266   1.014   6.345   5.170  0.4471  0.3994 -0.8601
   42CHL1  H21A 4267   1.021   6.253   5.108 -0.8647 -0.1524 -0.2403
   42CHL1  H21B 4268   1.008   6.304   5.273 -0.1095 -1.0329 -1.4331
   42CHL1  H21C 4269   1.099   6.416   5.172 -1.1284  2.4661  2.5604
   42CHL1   C22 4270   0.919   6.462   4.970 -0.2865 -1.4122 -0.1480
   42CHL1  H22A 4271   0.830   6.512   4.928 -0.2999 -3.1908 -2.4051
   42CHL1  H22B 4272   1.004   6.533   4.962 -0.6281 -1.0152 -0.2852
   42CHL1   C23 4273   0.931   6.338   4.881  0.0196 -0.1194  0.7748
   42CHL1  H23A 4274   1.032   6.291   4.888  0.2604 -0.2914 -2.3150
   42CHL1  H23B 4275   0.857   6.263   4.914  0.9518 -0.8937  1.1729
   42CHL1   C24 4276   0.896   6.381   4.736 -0.4482  0.5652 -0.2991
   42CHL1  H24A 4277   0.791   6.411   4.754  0.0961  3.3659 -1.3304
   42CHL1  H24B 4278   0.961   6.465   4.705  0.0786  0.3007  0.0663
   42CHL1   C25 4279   0.907   6.256   4.631  0.1140 -0.2395 -0.0082
   42CHL1   H25 4280   1.016   6.235   4.622  1.2793  4.1124  1.4801
   42CHL1   C26 4281   0.823   6.135   4.678  0.0418 -0.2661  0.0607
   42CHL1  H26A 4282   0.798   6.067   4.594  1.3379 -2.6402  1.4814
   42CHL1  H26B 4283   0.880   6.081   4.757 -1.6061  0.5896  1.9197
   42CHL1  H26C 4284   0.722   6.153   4.719 -0.9233 -2.0636 -1.3821
   42CHL1   C27 4285   0.857   6.294   4.488  0.3160  0.0824 -0.0611
   42CHL1  H27A 4286   0.752   6.327   4.502 -0.3195 -1.0849 -1.7075
   42CHL1  H27B 4287   0.922   6.378   4.456 -0.0515  1.3737  2.3417
   42CHL1  H27C 4288   0.857   6.205   4.421 -0.3157 -0.4479  0.6302
   43CHL1    C3 4289   6.492   1.864   6.259  0.2882 -0.3835 -0.1008
   43CHL1    H3 4290   6.407   1.793   6.262  1.2204 -1.4858  1.4985
   43CHL1    O3 4291   6.525   1.902   6.393  0.0312 -0.2119  0.5206
   43CHL1   H3' 4292   6.548   1.825   6.445  2.1499 -0.3372 -0.4973
   43CHL1    C4 4293   6.615   1.774   6.230 -0.0001  0.2974 -0.1862
   43CHL1   H4A 4294   6.702   1.835   6.262  0.6300  0.2277 -1.6992
   43CHL1   H4B 4295   6.617   1.679   6.287  1.3217  0.0760 -0.5714
   43CHL1    C5 4296   6.619   1.741   6.084 -0.4821 -0.7258  0.3175
   43CHL1    C6 4297   6.620   1.616   6.044 -0.3131  0.7654  0.4536
   43CHL1    H6 4298   6.626   1.536   6.118 -1.5382  0.4247  0.2067
   43CHL1    C7 4299   6.634   1.573   5.905 -0.5326 -0.1534  0.3539
   43CHL1   H7A 4300   6.718   1.501   5.895 -0.6771 -0.2607 -0.1005
   43CHL1   H7B 4301   6.552   1.512   5.861  0.1515 -0.1336 -1.0355
   43CHL1    C8 4302   6.670   1.686   5.811  0.9785 -0.0251  0.5345
   43CHL1    H8 4303   6.770   1.724   5.840  0.3668  0.8466  1.5988
   43CHL1   C14 4304   6.658   1.648   5.671  0.0025  0.4050  0.2837
   43CHL1   H14 4305   6.550   1.630   5.655 -0.0996  2.1621 -1.3792
   43CHL1   C15 4306   6.729   1.513   5.630 -0.4372 -0.0791 -1.2858
   43CHL1  H15A 4307   6.831   1.508   5.672 -1.3055  1.5199  1.1776
   43CHL1  H15B 4308   6.682   1.418   5.662  0.8610 -0.3705 -0.1608
   43CHL1   C16 4309   6.747   1.520   5.479  0.0671 -0.2375  0.0717
   43CHL1  H16A 4310   6.851   1.506   5.445  0.8733  2.0621  1.3762
   43CHL1  H16B 4311   6.692   1.438   5.428 -0.0235  0.1403 -0.4588
   43CHL1   C17 4312   6.665   1.655   5.438 -0.6110 -0.5571 -0.4850
   43CHL1   H17 4313   6.556   1.636   5.430 -0.8410  1.0622 -1.5805
   43CHL1   C13 4314   6.686   1.748   5.558  0.4297 -0.0385  0.2147
   43CHL1   C18 4315   6.831   1.795   5.559 -0.3102  0.2070  0.5433
   43CHL1  H18A 4316   6.896   1.719   5.511 -1.3537 -0.0983 -0.4260
   43CHL1  H18B 4317   6.833   1.881   5.489 -2.0799  0.1419  0.3745
   43CHL1  H18C 4318   6.881   1.823   5.655  0.4674  1.2068 -0.1309
   43CHL1   C12 4319   6.582   1.862   5.584  0.0444  0.6204 -0.4000
   43CHL1  H12A 4320   6.615   1.945   5.518  2.1207 -0.7809 -1.2020
   43CHL1  H12B 4321   6.486   1.837   5.536  0.2126 -3.5268  1.0601
   43CHL1   C11 4322   6.576   1.911   5.729 -0.3394 -0.3965  0.5414
   43CHL1  H11A 4323   6.655   1.988   5.743 -0.3053 -0.4851  0.8399
   43CHL1  H11B 4324   6.485   1.973   5.716 -0.3229 -0.4024  0.3942
   43CHL1    C9 4325   6.576   1.807   5.836 -0.5732 -0.7424 -0.1036
   43CHL1    H9 4326   6.473   1.766   5.824 -0.3952 -0.3765 -4.2638
   43CHL1   C10 4327   6.599   1.855   5.981  0.3406 -0.4806 -0.1068
   43CHL1   C19 4328   6.729   1.938   5.985  0.0422  0.0227 -0.5456
   43CHL1  H19A 4329   6.813   1.918   5.915 -1.3842 -0.2214 -2.2564
   43CHL1  H19B 4330   6.702   2.045   5.977 -0.8448 -0.1501 -0.0533
   43CHL1  H19C 4331   6.774   1.942   6.086  1.9437 -0.9970 -1.2887
   43CHL1    C1 4332   6.484   1.950   6.018 -0.4866 -0.4443  0.4098
   43CHL1   H1A 4333   6.479   2.039   5.950 -1.1604 -0.9028 -0.1566
   43CHL1   H1B 4334   6.388   1.903   5.990 -0.8219  0.7358 -0.5425
   43CHL1    C2 4335   6.474   1.989   6.165  0.8168  0.2442 -0.0622
   43CHL1   H2A 4336   6.373   2.032   6.179 -0.1052 -1.4527 -1.1354
   43CHL1   H2B 4337   6.548   2.067   6.192 -1.3017  2.0966  0.6597
   43CHL1   C20 4338   6.703   1.705   5.294 -0.2215 -0.5525  0.8368
   43CHL1   H20 4339   6.804   1.751   5.298  0.5397 -2.1224  0.5009
   43CHL1   C21 4340   6.591   1.800   5.253 -0.5866 -0.5626  0.1780
   43CHL1  H21A 4341   6.602   1.828   5.146  2.9799 -1.4470  0.2029
   43CHL1  H21B 4342   6.592   1.892   5.315  0.4010 -1.3574  1.3834
   43CHL1  H21C 4343   6.497   1.749   5.284 -0.5986  0.7693  2.5905
   43CHL1   C22 4344   6.717   1.593   5.191  0.1407  0.2177  0.5443
   43CHL1  H22A 4345   6.795   1.521   5.224 -0.6200 -1.4315 -1.1139
   43CHL1  H22B 4346   6.620   1.539   5.189 -0.2059  0.6287  2.8852
   43CHL1   C23 4347   6.764   1.625   5.046  0.8969 -0.3850  0.2836
   43CHL1  H23A 4348   6.693   1.689   4.989 -0.4562  0.4144  2.7580
   43CHL1  H23B 4349   6.849   1.692   5.070  1.2805 -0.5206 -0.6470
   43CHL1   C24 4350   6.812   1.500   4.971 -0.6877 -0.6227  0.6901
   43CHL1  H24A 4351   6.919   1.521   4.949 -1.5362  1.5126 -2.0093
   43CHL1  H24B 4352   6.802   1.408   5.031 -0.0076  0.8026  3.1308
   43CHL1   C25 4353   6.729   1.480   4.843 -0.6860 -0.2749  0.0768
   43CHL1   H25 4354   6.747   1.565   4.774 -0.4885  1.0067  1.6479
   43CHL1   C26 4355   6.773   1.356   4.756 -0.4850 -0.4112 -0.1212
   43CHL1  H26A 4356   6.879   1.373   4.726 -0.7258  1.1744 -0.1413
   43CHL1  H26B 4357   6.760   1.264   4.817 -0.5865 -1.1646 -1.2695
   43CHL1  H26C 4358   6.709   1.362   4.666 -1.8697  1.5461  0.9003
   43CHL1   C27 4359   6.576   1.470   4.870 -0.1135  0.2358  0.6419
   43CHL1  H27A 4360   6.529   1.474   4.769 -0.2556  1.2234  0.7334
   43CHL1  H27B 4361   6.562   1.374   4.924 -0.5210 -0.2203 -0.2544
   43CHL1  H27C 4362   6.542   1.564   4.919 -0.0312  0.5504  0.1039
   44CHL1    C3 4363   0.099   3.667   6.089  0.5470  0.0914 -0.3045
   44CHL1    H3 4364   0.065   3.755   6.149  0.1282 -1.5004  1.9392
   44CHL1    O3 4365   0.188   3.593   6.165  0.1824  0.0295 -0.2887
   44CHL1   H3' 4366   0.220   3.523   6.108  1.0970  0.0540  0.1737
   44CHL1    C4 4367  -0.023   3.577   6.043 -0.0937 -0.6141 -0.5619
   44CHL1   H4A 4368   0.018   3.482   6.005  1.6379  0.1728 -0.7356
   44CHL1   H4B 4369  -0.088   3.559   6.131 -2.8395 -0.7016 -2.4584
   44CHL1    C5 4370  -0.113   3.649   5.943 -0.4595  0.7169  0.3096
   44CHL1    C6 4371  -0.240   3.686   5.970  0.0624 -0.2382  0.1248
   44CHL1    H6 4372  -0.290   3.669   6.066  1.0304  0.2280  0.7201
   44CHL1    C7 4373  -0.324   3.756   5.864 -0.4743  0.4470 -0.4679
   44CHL1   H7A 4374  -0.423   3.705   5.863  1.5770 -4.1072  1.0018
   44CHL1   H7B 4375  -0.338   3.861   5.897  0.5968  0.1455  1.0677
   44CHL1    C8 4376  -0.267   3.740   5.718  0.0875  0.2465 -0.1166
   44CHL1    H8 4377  -0.279   3.638   5.676 -1.9213 -0.3321  1.6655
   44CHL1   C14 4378  -0.333   3.840   5.626  0.0422 -0.2081 -0.1508
   44CHL1   H14 4379  -0.328   3.938   5.679  1.1719 -0.1456 -0.3406
   44CHL1   C15 4380  -0.485   3.822   5.603  0.2501 -0.2196  0.2711
   44CHL1  H15A 4381  -0.523   3.718   5.588  0.2679 -0.5353  2.1502
   44CHL1  H15B 4382  -0.530   3.848   5.701  1.6929  1.3769  0.5609
   44CHL1   C16 4383  -0.517   3.905   5.480 -0.1263 -0.9994  0.3961
   44CHL1  H16A 4384  -0.554   3.845   5.394  0.0694 -0.7324  0.1257
   44CHL1  H16B 4385  -0.592   3.984   5.504  1.0057  0.7659 -1.5068
   44CHL1   C17 4386  -0.379   3.962   5.426  0.7491 -0.2583 -0.2544
   44CHL1   H17 4387  -0.362   4.051   5.490 -2.4646  0.7956 -0.6869
   44CHL1   C13 4388  -0.278   3.860   5.485  1.2975 -0.4904  0.5769
   44CHL1   C18 4389  -0.298   3.728   5.407 -0.0770 -0.0775 -0.2749
   44CHL1  H18A 4390  -0.245   3.646   5.461 -0.0081  0.7403  0.9335
   44CHL1  H18B 4391  -0.405   3.701   5.390 -0.3436 -0.4936  1.7334
   44CHL1  H18C 4392  -0.247   3.721   5.309  1.5370 -0.3969  0.5585
   44CHL1   C12 4393  -0.132   3.906   5.489  0.2758  0.3453 -0.2102
   44CHL1  H12A 4394  -0.090   3.911   5.386 -0.2999 -1.0079 -0.5431
   44CHL1  H12B 4395  -0.141   4.010   5.527 -0.2722  0.3565 -0.3576
   44CHL1   C11 4396  -0.053   3.809   5.579  0.1508  0.0252 -0.8157
   44CHL1  H11A 4397  -0.045   3.716   5.519  0.6646  0.8412 -2.0416
   44CHL1  H11B 4398   0.048   3.855   5.575  0.1917  0.1035  0.5794
   44CHL1    C9 4399  -0.117   3.782   5.718 -0.8821 -0.2674  0.9331
   44CHL1    H9 4400  -0.108   3.883   5.763 -2.7671  0.8943 -1.1207
   44CHL1   C10 4401  -0.037   3.691   5.813  0.3947 -0.4917 -0.3276
   44CHL1   C19 4402   0.001   3.563   5.741  0.2305 -0.4165  0.3200
   44CHL1  H19A 4403  -0.078   3.535   5.668 -2.1261  1.6715  1.8667
   44CHL1  H19B 4404   0.095   3.595   5.691  0.2482 -1.0683 -0.0670
   44CHL1  H19C 4405   0.039   3.484   5.809 -0.9562 -0.1011  1.3960
   44CHL1    C1 4406   0.093   3.774   5.854  0.5328  0.9083  0.5614
   44CHL1   H1A 4407   0.151   3.792   5.761 -0.2789 -1.6624 -0.5180
   44CHL1   H1B 4408   0.076   3.868   5.911  2.2365 -0.4959  3.6205
   44CHL1    C2 4409   0.181   3.706   5.961 -0.0636  0.1804  0.2592
   44CHL1   H2A 4410   0.271   3.766   5.985 -0.4126  0.9377 -0.3146
   44CHL1   H2B 4411   0.219   3.609   5.924  0.4099  0.9410 -1.2945
   44CHL1   C20 4412  -0.365   3.998   5.272  0.3040  0.1187  0.1207
   44CHL1   H20 4413  -0.282   3.937   5.230 -1.5659 -1.2961 -1.7637
   44CHL1   C21 4414  -0.316   4.145   5.263  0.5193  0.5043 -0.4869
   44CHL1  H21A 4415  -0.230   4.163   5.332 -0.0226 -2.0302  0.9822
   44CHL1  H21B 4416  -0.396   4.218   5.289 -0.0154  0.0252 -0.7720
   44CHL1  H21C 4417  -0.287   4.174   5.160 -1.6982  3.4695 -0.3966
   44CHL1   C22 4418  -0.495   3.983   5.179  1.2675  0.7482 -0.4380
   44CHL1  H22A 4419  -0.549   3.886   5.185  0.8259  1.0207  0.1811
   44CHL1  H22B 4420  -0.568   4.059   5.215  1.1262  0.3997  0.0160
   44CHL1   C23 4421  -0.467   3.990   5.029 -0.0084 -0.5921 -0.0382
   44CHL1  H23A 4422  -0.423   4.090   5.010  0.4199 -0.9308 -0.8663
   44CHL1  H23B 4423  -0.393   3.915   4.994 -2.6349 -1.8495 -3.4439
   44CHL1   C24 4424  -0.587   3.985   4.941  1.0622 -0.5709 -0.2323
   44CHL1  H24A 4425  -0.628   3.883   4.958 -2.4640  0.6632 -0.3633
   44CHL1  H24B 4426  -0.668   4.054   4.973  0.7506 -0.5961 -0.9382
   44CHL1   C25 4427  -0.575   4.032   4.795 -0.2048  0.3577  0.3753
   44CHL1   H25 4428  -0.569   4.143   4.798 -0.7577  0.3726  2.0536
   44CHL1   C26 4429  -0.445   3.977   4.734 -0.9948 -0.5721  0.3007
   44CHL1  H26A 4430  -0.418   4.031   4.641 -0.5241  0.8333  1.2190
   44CHL1  H26B 4431  -0.359   4.006   4.798  0.6995 -0.7875 -1.8001
   44CHL1  H26C 4432  -0.441   3.867   4.724 -0.6138 -0.5083 -0.2393
   44CHL1   C27 4433  -0.705   3.989   4.713 -0.7097 -0.0383  0.1174
   44CHL1  H27A 4434  -0.700   3.888   4.668  0.4001 -0.6377  1.5134
   44CHL1  H27B 4435  -0.788   3.986   4.787 -0.0806 -2.5459  0.8402
   44CHL1  H27C 4436  -0.720   4.076   4.646  1.7793  0.8678  0.6337
   45CHL1    C3 4437   1.217   4.441   5.756 -0.6111  0.2469  0.1725
   45CHL1    H3 4438   1.224   4.330   5.765  1.9196  0.4429  1.7001
   45CHL1    O3 4439   1.270   4.490   5.876 -0.0702 -0.1608  0.3081
   45CHL1   H3' 4440   1.249   4.583   5.868 -0.8975 -0.4541 -1.5834
   45CHL1    C4 4441   1.311   4.473   5.647 -0.1951 -0.3520 -0.1509
   45CHL1   H4A 4442   1.333   4.580   5.625  0.0431 -0.2310  0.6118
   45CHL1   H4B 4443   1.408   4.430   5.681 -0.9330 -1.6943  0.3120
   45CHL1    C5 4444   1.266   4.415   5.512  0.5915 -0.6788 -0.0660
   45CHL1    C6 4445   1.343   4.333   5.441  0.5297 -0.3107  0.3153
   45CHL1    H6 4446   1.440   4.305   5.483  0.5649 -0.3481  0.2091
   45CHL1    C7 4447   1.300   4.285   5.306 -0.1994  0.0359 -0.2956
   45CHL1   H7A 4448   1.390   4.276   5.241 -0.1749  1.8974 -0.5717
   45CHL1   H7B 4449   1.258   4.183   5.319  0.4973 -0.4740 -1.7800
   45CHL1    C8 4450   1.189   4.366   5.236  0.0729  0.8394  0.5814
   45CHL1    H8 4451   1.230   4.464   5.207 -1.4339  2.0232  2.2253
   45CHL1   C14 4452   1.119   4.299   5.112 -0.6324 -0.6837  0.9136
   45CHL1   H14 4453   1.063   4.211   5.149  1.3137 -2.0354  0.8177
   45CHL1   C15 4454   1.215   4.255   4.999  0.0954  0.3920 -0.2402
   45CHL1  H15A 4455   1.266   4.344   4.956  0.5142 -0.0631 -0.7029
   45CHL1  H15B 4456   1.289   4.175   5.024  0.2444  0.6775  0.2366
   45CHL1   C16 4457   1.111   4.214   4.891  0.5904  0.1306 -1.1072
   45CHL1  H16A 4458   1.140   4.240   4.787  0.4617 -1.1208 -1.4736
   45CHL1  H16B 4459   1.097   4.104   4.901  2.4265 -0.0630 -0.1346
   45CHL1   C17 4460   0.978   4.285   4.919  0.2495  1.0555  0.6889
   45CHL1   H17 4461   0.907   4.209   4.958 -1.9847  0.4010 -3.9657
   45CHL1   C13 4462   1.007   4.375   5.042  0.3101  0.0922  0.3640
   45CHL1   C18 4463   1.061   4.519   4.996  0.3044 -0.4596 -0.2485
   45CHL1  H18A 4464   1.087   4.588   5.079 -2.3024 -0.4794  0.6591
   45CHL1  H18B 4465   1.138   4.501   4.917  0.3200 -1.0656 -0.1046
   45CHL1  H18C 4466   0.972   4.571   4.955  0.1353 -2.1802 -2.2658
   45CHL1   C12 4467   0.893   4.396   5.142 -0.4592  0.5447  0.8387
   45CHL1  H12A 4468   0.821   4.470   5.101  1.3693  1.7139 -0.3498
   45CHL1  H12B 4469   0.835   4.302   5.154 -0.4385  0.2820 -0.9215
   45CHL1   C11 4470   0.947   4.455   5.278  0.4417  0.2269 -0.0928
   45CHL1  H11A 4471   0.950   4.563   5.253  0.5441  0.2077 -0.1635
   45CHL1  H11B 4472   0.864   4.446   5.351 -1.7169 -1.0503 -2.5347
   45CHL1    C9 4473   1.076   4.390   5.339  0.4959  0.0401 -0.2624
   45CHL1    H9 4474   1.036   4.293   5.376  1.3188  0.4698  1.9441
   45CHL1   C10 4475   1.126   4.462   5.466  0.0422  0.1923  0.4316
   45CHL1   C19 4476   1.129   4.614   5.440  0.1441  0.8108 -0.4907
   45CHL1  H19A 4477   1.030   4.664   5.442  0.1034  0.9616  3.5360
   45CHL1  H19B 4478   1.185   4.676   5.514 -0.5057  0.2731  0.4750
   45CHL1  H19C 4479   1.190   4.632   5.349  1.1357  1.9787  0.3612
   45CHL1    C1 4480   1.032   4.436   5.591 -0.0171 -0.1728  0.0988
   45CHL1   H1A 4481   0.934   4.481   5.565 -0.0702  0.0232  0.6248
   45CHL1   H1B 4482   1.023   4.325   5.598 -0.9726 -0.2298 -1.5113
   45CHL1    C2 4483   1.081   4.487   5.727 -0.2387  0.0674 -0.2966
   45CHL1   H2A 4484   1.007   4.451   5.801 -1.3912  0.6038 -1.1562
   45CHL1   H2B 4485   1.070   4.598   5.725 -0.3472  0.0858 -3.6911
   45CHL1   C20 4486   0.901   4.343   4.798  0.0225  0.2592 -0.3015
   45CHL1   H20 4487   0.959   4.418   4.740  0.3601 -1.1470 -1.8608
   45CHL1   C21 4488   0.774   4.415   4.846  0.8122 -0.2660  0.2480
   45CHL1  H21A 4489   0.773   4.519   4.883 -1.6117  0.1179 -0.7186
   45CHL1  H21B 4490   0.714   4.347   4.911  1.4413  0.7880  2.0023
   45CHL1  H21C 4491   0.714   4.426   4.753  2.0126 -1.0725 -0.6588
   45CHL1   C22 4492   0.866   4.218   4.713 -0.0746  1.0266 -0.6305
   45CHL1  H22A 4493   0.963   4.182   4.674 -0.2312  1.2290 -1.2286
   45CHL1  H22B 4494   0.817   4.136   4.770  0.7286 -0.1618 -1.6014
   45CHL1   C23 4495   0.784   4.260   4.590  0.0624  0.0978  0.4158
   45CHL1  H23A 4496   0.678   4.263   4.626 -0.0262 -1.1388  0.3094
   45CHL1  H23B 4497   0.824   4.360   4.567  1.6747 -0.3833  0.9924
   45CHL1   C24 4498   0.789   4.156   4.478 -0.6333  0.3813  0.0659
   45CHL1  H24A 4499   0.896   4.150   4.448 -0.4431 -3.6420  0.9076
   45CHL1  H24B 4500   0.767   4.055   4.520 -0.6052  0.1645 -0.4378
   45CHL1   C25 4501   0.707   4.175   4.348  0.6027  0.7912 -0.1305
   45CHL1   H25 4502   0.608   4.205   4.388 -0.4328  1.0235 -2.7218
   45CHL1   C26 4503   0.752   4.288   4.266 -0.2420 -0.0193 -1.1067
   45CHL1  H26A 4504   0.843   4.263   4.207 -1.3669 -2.4550 -1.9410
   45CHL1  H26B 4505   0.677   4.317   4.190 -0.7124 -0.0559 -0.6638
   45CHL1  H26C 4506   0.748   4.382   4.325 -4.4626  0.2997 -1.5601
   45CHL1   C27 4507   0.688   4.038   4.273 -0.0517  0.4280 -0.0155
   45CHL1  H27A 4508   0.598   4.041   4.208  1.0384  1.1280 -1.5516
   45CHL1  H27B 4509   0.775   4.027   4.205  0.7101 -0.5668  1.0879
   45CHL1  H27C 4510   0.673   3.949   4.338  0.8769 -0.3914 -0.8861
   46CHL1    C3 4511   3.489   3.428   5.826  0.0802 -0.9110  0.0791
   46CHL1    H3 4512   3.401   3.362   5.811 -3.2489  3.6504 -2.8753
   46CHL1    O3 4513   3.541   3.444   5.958 -0.0656 -0.0739 -0.3527
   46CHL1   H3' 4514   3.603   3.517   5.956 -1.2060  0.9192 -1.0761
   46CHL1    C4 4515   3.607   3.376   5.736 -0.4777  0.4919  0.2663
   46CHL1   H4A 4516   3.698   3.426   5.775 -0.6394  1.0607 -0.0736
   46CHL1   H4B 4517   3.622   3.270   5.765  0.3591  0.5648  0.1119
   46CHL1    C5 4518   3.606   3.398   5.585 -0.5745 -0.4419 -0.1345
   46CHL1    C6 4519   3.595   3.293   5.499  0.1289 -0.3887  0.9736
   46CHL1    H6 4520   3.611   3.193   5.543  0.4307 -1.1920 -0.8766
   46CHL1    C7 4521   3.568   3.305   5.350  0.1391 -1.1113 -0.2298
   46CHL1   H7A 4522   3.633   3.229   5.302  0.2911 -1.2942  0.2603
   46CHL1   H7B 4523   3.467   3.276   5.316 -0.8545  3.2878 -1.6845
   46CHL1    C8 4524   3.586   3.450   5.303 -0.0183 -0.1617  0.5779
   46CHL1    H8 4525   3.692   3.480   5.289 -0.2292  0.4558  0.2667
   46CHL1   C14 4526   3.537   3.460   5.155  0.3761 -1.0509 -0.5207
   46CHL1   H14 4527   3.428   3.439   5.150  0.1841  0.1532 -2.1139
   46CHL1   C15 4528   3.582   3.352   5.053 -0.4061  1.3289  0.9257
   46CHL1  H15A 4529   3.680   3.310   5.082 -1.3755 -1.5344  0.3124
   46CHL1  H15B 4530   3.509   3.269   5.049  0.9228  0.1826 -0.5315
   46CHL1   C16 4531   3.573   3.431   4.925 -0.0101 -0.0116  0.4530
   46CHL1  H16A 4532   3.671   3.458   4.880  1.3868 -1.7765  2.2693
   46CHL1  H16B 4533   3.508   3.370   4.857  0.1008  0.7740 -0.3764
   46CHL1   C17 4534   3.498   3.570   4.956 -0.1523 -0.2635  0.9191
   46CHL1   H17 4535   3.391   3.542   4.961  0.0562 -1.0618  0.9568
   46CHL1   C13 4536   3.543   3.597   5.093  0.2174  0.0649 -0.9525
   46CHL1   C18 4537   3.693   3.650   5.088  0.1185  0.2666  0.2848
   46CHL1  H18A 4538   3.761   3.585   5.028  1.5988 -0.4891  2.6452
   46CHL1  H18B 4539   3.688   3.746   5.032 -1.6694 -0.1167 -0.2854
   46CHL1  H18C 4540   3.736   3.666   5.189  0.4129 -0.3177  0.2565
   46CHL1   C12 4541   3.454   3.691   5.189  0.2068 -0.3169  0.1625
   46CHL1  H12A 4542   3.459   3.794   5.148 -0.4475 -0.1917  0.3808
   46CHL1  H12B 4543   3.350   3.658   5.174  0.4606 -1.2790  0.4763
   46CHL1   C11 4544   3.491   3.692   5.337 -0.1682 -0.1641  0.4170
   46CHL1  H11A 4545   3.588   3.745   5.347  0.3629 -1.0609  0.0887
   46CHL1  H11B 4546   3.413   3.737   5.402 -1.6496 -2.5415  0.3996
   46CHL1    C9 4547   3.513   3.547   5.396  0.0500 -0.0671 -0.7238
   46CHL1    H9 4548   3.409   3.511   5.384 -1.2653  3.0390  0.5006
   46CHL1   C10 4549   3.558   3.538   5.543 -0.5347 -0.1363  0.6263
   46CHL1   C19 4550   3.690   3.625   5.562 -0.3037  0.6255 -0.3736
   46CHL1  H19A 4551   3.676   3.734   5.545  0.2623  0.9232  0.8990
   46CHL1  H19B 4552   3.752   3.600   5.651  2.3703  0.4951 -2.1670
   46CHL1  H19C 4553   3.759   3.588   5.483  1.0234  0.6945  0.7149
   46CHL1    C1 4554   3.436   3.579   5.627 -0.0376 -0.9943  0.4086
   46CHL1   H1A 4555   3.416   3.685   5.602 -1.9465 -1.1328  1.1861
   46CHL1   H1B 4556   3.346   3.523   5.593 -1.3650  0.0824  1.9901
   46CHL1    C2 4557   3.453   3.571   5.777 -0.2738  0.2296 -0.2914
   46CHL1   H2A 4558   3.377   3.630   5.832 -1.4093  1.7776 -3.2712
   46CHL1   H2B 4559   3.542   3.638   5.784 -1.6263  2.2042 -0.9492
   46CHL1   C20 4560   3.505   3.676   4.840  0.2627  0.5454  0.7854
   46CHL1   H20 4561   3.612   3.699   4.824  0.0428  0.7569 -0.5191
   46CHL1   C21 4562   3.438   3.798   4.890  0.1415  0.2966 -0.4375
   46CHL1  H21A 4563   3.433   3.871   4.807 -0.4322 -0.5594 -1.1824
   46CHL1  H21B 4564   3.494   3.857   4.966 -0.0089  0.5350 -0.5114
   46CHL1  H21C 4565   3.337   3.766   4.924  1.7943 -2.5440  2.4216
   46CHL1   C22 4566   3.440   3.619   4.714  0.2162 -0.1545  0.1901
   46CHL1  H22A 4567   3.516   3.555   4.666 -0.0640 -0.8866  0.7098
   46CHL1  H22B 4568   3.353   3.555   4.741 -0.6098  0.7092 -0.3440
   46CHL1   C23 4569   3.386   3.715   4.603  0.0147  0.0954  0.2199
   46CHL1  H23A 4570   3.337   3.659   4.521  0.2027  1.6808 -1.0309
   46CHL1  H23B 4571   3.302   3.774   4.647 -0.6743 -0.5720 -0.1737
   46CHL1   C24 4572   3.504   3.796   4.543 -0.5359  0.9961  0.5546
   46CHL1  H24A 4573   3.543   3.869   4.618  1.1779 -0.0750  0.7677
   46CHL1  H24B 4574   3.582   3.720   4.520  1.0899  2.3852  1.2661
   46CHL1   C25 4575   3.471   3.874   4.417  0.3325 -1.1517 -0.0568
   46CHL1   H25 4576   3.434   3.799   4.343  0.4481 -1.5303  0.2655
   46CHL1   C26 4577   3.363   3.982   4.437  0.4047  0.5718  0.2133
   46CHL1  H26A 4578   3.399   4.061   4.506  2.0893  2.6280 -2.7375
   46CHL1  H26B 4579   3.350   4.036   4.340  1.3273  3.5234  1.5894
   46CHL1  H26C 4580   3.266   3.944   4.473  1.4524 -2.4679  0.0741
   46CHL1   C27 4581   3.601   3.944   4.360  0.1935  0.1956  0.0779
   46CHL1  H27A 4582   3.617   4.032   4.425  0.9099 -0.2037  0.4468
   46CHL1  H27B 4583   3.687   3.874   4.364  0.5572  0.7059  1.5701
   46CHL1  H27C 4584   3.573   3.986   4.260 -0.5807 -0.6671 -0.0835
   47CHL1    C3 4585   5.168   4.119   6.100 -0.2002 -0.3620 -0.1364
   47CHL1    H3 4586   5.140   4.225   6.083 -2.0847 -1.0817 -1.8099
   47CHL1    O3 4587   5.177   4.100   6.238 -0.0494 -0.2321 -0.0660
   47CHL1   H3' 4588   5.179   4.005   6.251 -1.6995 -0.1536  1.0521
   47CHL1    C4 4589   5.055   4.027   6.044 -0.2402  1.3286 -0.0376
   47CHL1   H4A 4590   5.059   3.919   6.066 -2.1539  1.1807 -0.2703
   47CHL1   H4B 4591   4.966   4.068   6.094 -1.1039 -0.7133  0.1782
   47CHL1    C5 4592   5.054   4.041   5.893  0.6754 -0.1238  0.3368
   47CHL1    C6 4593   4.941   4.075   5.832 -0.4352 -0.0749 -0.2286
   47CHL1    H6 4594   4.859   4.081   5.905 -0.2178 -1.3652  0.1559
   47CHL1    C7 4595   4.918   4.083   5.678 -0.0404 -1.1605 -0.6870
   47CHL1   H7A 4596   4.821   4.045   5.640 -1.1030  1.5885 -0.9871
   47CHL1   H7B 4597   4.910   4.193   5.662 -0.1374 -0.7929  1.5342
   47CHL1    C8 4598   5.034   4.026   5.600 -0.4180  0.0010  0.0917
   47CHL1    H8 4599   5.025   3.916   5.606  3.2166 -0.4036  0.5643
   47CHL1   C14 4600   5.032   4.072   5.452 -0.5202  0.0939 -0.0997
   47CHL1   H14 4601   5.027   4.183   5.446 -0.2920  0.0302 -2.1246
   47CHL1   C15 4602   4.911   4.024   5.365 -0.4439 -0.2465  0.0324
   47CHL1  H15A 4603   4.877   3.921   5.392 -1.7233  0.2634  0.4316
   47CHL1  H15B 4604   4.829   4.098   5.374 -0.0074  0.7028 -2.8774
   47CHL1   C16 4605   4.967   4.028   5.224 -0.8690 -0.2968  0.1578
   47CHL1  H16A 4606   4.978   3.932   5.169 -0.3568 -1.0249  1.4688
   47CHL1  H16B 4607   4.898   4.093   5.168  0.4726 -0.1529 -1.3842
   47CHL1   C17 4608   5.109   4.093   5.233  1.4091  0.1460 -0.0153
   47CHL1   H17 4609   5.093   4.203   5.234 -1.6820 -0.2205 -0.6336
   47CHL1   C13 4610   5.154   4.029   5.370 -0.1818 -0.7110  0.3577
   47CHL1   C18 4611   5.173   3.877   5.361  0.1486 -0.4576 -0.6315
   47CHL1  H18A 4612   5.186   3.833   5.463  0.5170 -1.5421 -1.1311
   47CHL1  H18B 4613   5.080   3.830   5.322 -0.3543  0.5594 -0.6949
   47CHL1  H18C 4614   5.262   3.838   5.307  0.6363 -1.0151  0.5339
   47CHL1   C12 4615   5.283   4.104   5.427 -0.0131  0.2149  0.0486
   47CHL1  H12A 4616   5.373   4.080   5.367 -0.1662  2.0148 -0.9543
   47CHL1  H12B 4617   5.265   4.213   5.422 -0.8865  0.1280  0.9494
   47CHL1   C11 4618   5.304   4.071   5.577  0.6389 -0.2875  0.1597
   47CHL1  H11A 4619   5.343   3.970   5.600  1.0577 -0.1678  0.0003
   47CHL1  H11B 4620   5.382   4.142   5.612  1.7387 -1.3268 -0.0925
   47CHL1    C9 4621   5.164   4.076   5.665 -0.0823 -0.5959  0.3966
   47CHL1    H9 4622   5.142   4.185   5.666 -1.4826 -0.7697 -1.9100
   47CHL1   C10 4623   5.187   4.027   5.813  0.2744 -0.2458 -0.5424
   47CHL1   C19 4624   5.217   3.878   5.811 -0.5044  0.0667  0.0027
   47CHL1  H19A 4625   5.310   3.843   5.761 -0.0854 -0.9707  1.4469
   47CHL1  H19B 4626   5.210   3.830   5.911 -0.1657  0.1758  0.0797
   47CHL1  H19C 4627   5.146   3.821   5.747 -0.7444  0.7285 -0.3325
   47CHL1    C1 4628   5.297   4.108   5.886  0.0314 -0.2797  0.5083
   47CHL1   H1A 4629   5.391   4.096   5.829 -0.8109  0.9871 -1.2420
   47CHL1   H1B 4630   5.261   4.213   5.879 -0.0564 -0.3977 -1.2567
   47CHL1    C2 4631   5.306   4.082   6.040 -0.2659  0.7872 -0.2978
   47CHL1   H2A 4632   5.386   4.148   6.081 -0.2210  0.7694 -0.3559
   47CHL1   H2B 4633   5.338   3.979   6.069  1.8567  2.0360  2.3236
   47CHL1   C20 4634   5.202   4.079   5.106  0.0473 -0.3165 -0.0379
   47CHL1   H20 4635   5.247   3.977   5.107 -2.1475 -1.3898  2.3439
   47CHL1   C21 4636   5.315   4.185   5.124 -1.1550  0.0330  0.6908
   47CHL1  H21A 4637   5.391   4.143   5.194 -0.1991 -1.3312 -1.0867
   47CHL1  H21B 4638   5.286   4.290   5.149  0.5379  1.0521 -1.2813
   47CHL1  H21C 4639   5.378   4.190   5.033 -0.1315 -1.4850  1.2914
   47CHL1   C22 4640   5.125   4.105   4.978  0.2822 -0.2811  0.6362
   47CHL1  H22A 4641   5.036   4.039   4.976  1.1033 -1.3924 -0.5714
   47CHL1  H22B 4642   5.095   4.212   4.983  1.3850  0.1543 -1.0543
   47CHL1   C23 4643   5.192   4.084   4.838 -0.8267 -0.3780 -0.1811
   47CHL1  H23A 4644   5.263   4.168   4.820 -1.4289  0.3097  0.5628
   47CHL1  H23B 4645   5.246   3.987   4.839 -0.2766 -0.0807  0.3338
   47CHL1   C24 4646   5.084   4.065   4.728 -0.3509  0.4732  0.2508
   47CHL1  H24A 4647   5.031   3.971   4.755 -0.8783  1.2392  2.0357
   47CHL1  H24B 4648   5.009   4.148   4.730  1.1997  1.9450 -0.2889
   47CHL1   C25 4649   5.143   4.057   4.585 -0.0970  0.7125 -0.3962
   47CHL1   H25 4650   5.222   3.980   4.586  0.5798  1.3470 -2.0690
   47CHL1   C26 4651   5.029   4.023   4.499 -0.2774  0.4041 -0.1415
   47CHL1  H26A 4652   4.986   3.921   4.505 -0.0797  0.2944 -0.5200
   47CHL1  H26B 4653   4.947   4.097   4.508  0.0733  1.1454 -2.4449
   47CHL1  H26C 4654   5.059   4.039   4.393 -1.1569 -0.9890 -0.6182
   47CHL1   C27 4655   5.196   4.186   4.529 -0.5224  0.0629  0.1887
   47CHL1  H27A 4656   5.114   4.259   4.510  0.2639  1.0459  0.4428
   47CHL1  H27B 4657   5.274   4.239   4.588 -0.6672  2.4356 -1.6014
   47CHL1  H27C 4658   5.239   4.171   4.428 -1.3921  1.7676 -0.4712
   48CHL1    C3 4659   2.971   5.146   6.072  0.0143 -0.4847  0.1014
   48CHL1    H3 4660   3.080   5.170   6.071 -0.1935  0.4801 -0.5382
   48CHL1    O3 4661   2.922   5.105   6.201  0.3186 -0.5270 -0.2074
   48CHL1   H3' 4662   2.908   5.010   6.192  1.3708 -0.7097 -0.0785
   48CHL1    C4 4663   2.904   5.265   6.012 -0.1142 -0.2467  0.6742
   48CHL1   H4A 4664   2.796   5.253   6.036 -0.0905 -1.1455  0.3571
   48CHL1   H4B 4665   2.931   5.358   6.067 -1.3336 -0.4282  1.6166
   48CHL1    C5 4666   2.930   5.286   5.863 -0.9288  0.0553 -0.2278
   48CHL1    C6 4667   2.979   5.402   5.822 -0.1625 -0.4133  0.3133
   48CHL1    H6 4668   2.985   5.487   5.891  0.3110  0.4941 -0.7983
   48CHL1    C7 4669   3.014   5.433   5.680 -0.4706 -0.0450 -0.1761
   48CHL1   H7A 4670   2.949   5.518   5.650  1.1341  2.3909  2.6727
   48CHL1   H7B 4671   3.123   5.455   5.670 -0.1600 -1.2268  0.4565
   48CHL1    C8 4672   2.981   5.321   5.581  0.5683 -0.4251  0.7894
   48CHL1    H8 4673   2.874   5.323   5.551  1.1900 -1.1026 -1.7107
   48CHL1   C14 4674   3.071   5.344   5.462 -0.5582  0.1683  0.1577
   48CHL1   H14 4675   3.173   5.323   5.499  0.2635  1.5455 -1.2289
   48CHL1   C15 4676   3.068   5.471   5.389 -0.9806 -0.7360  0.2910
   48CHL1  H15A 4677   2.974   5.527   5.369  0.0418  0.5168 -1.3067
   48CHL1  H15B 4678   3.126   5.549   5.444  1.5907 -0.6490 -2.3289
   48CHL1   C16 4679   3.133   5.451   5.250  0.3042 -0.0843  0.1893
   48CHL1  H16A 4680   3.059   5.494   5.180 -0.4532 -1.4758  0.0925
   48CHL1  H16B 4681   3.234   5.497   5.237  0.6337 -0.4586  1.2540
   48CHL1   C17 4682   3.145   5.289   5.241 -0.4260 -0.1296 -0.0438
   48CHL1   H17 4683   3.247   5.273   5.281 -0.5327  0.5555  0.5292
   48CHL1   C13 4684   3.052   5.235   5.361 -0.0898  0.9808 -0.3912
   48CHL1   C18 4685   2.909   5.238   5.307  0.7276 -0.1278  0.3014
   48CHL1  H18A 4686   2.830   5.220   5.383  0.2888 -0.7296 -0.2745
   48CHL1  H18B 4687   2.886   5.339   5.266  0.0300  0.9420  3.1439
   48CHL1  H18C 4688   2.897   5.155   5.234  1.9064 -0.4174  0.4140
   48CHL1   C12 4689   3.087   5.095   5.421 -0.1457  0.5170 -0.1812
   48CHL1  H12A 4690   3.065   5.031   5.333  0.0656  1.8653 -1.2591
   48CHL1  H12B 4691   3.194   5.092   5.451 -0.2403  0.3983  0.1430
   48CHL1   C11 4692   2.996   5.064   5.538 -0.0545  0.0634  0.4259
   48CHL1  H11A 4693   2.890   5.046   5.508  0.7945  0.9814 -3.7344
   48CHL1  H11B 4694   3.026   4.968   5.584 -0.8659  0.2802  1.4581
   48CHL1    C9 4695   3.004   5.180   5.642 -0.3250 -0.4431 -0.3617
   48CHL1    H9 4696   3.109   5.180   5.679 -0.1383 -4.3783 -0.3983
   48CHL1   C10 4697   2.931   5.159   5.774  0.4740  0.0230  0.2148
   48CHL1   C19 4698   2.777   5.126   5.746 -0.4214  1.2494 -0.1685
   48CHL1  H19A 4699   2.728   5.214   5.699  0.7482  2.3778  0.6503
   48CHL1  H19B 4700   2.773   5.033   5.686 -0.1383  0.3759  1.1221
   48CHL1  H19C 4701   2.723   5.108   5.841  0.8961  0.5562  0.4772
   48CHL1    C1 4702   3.003   5.040   5.839  0.0207 -0.8163 -0.1297
   48CHL1   H1A 4703   2.975   4.953   5.776  0.7838 -2.0798  1.2207
   48CHL1   H1B 4704   3.113   5.058   5.842  0.1684 -1.5779 -0.7485
   48CHL1    C2 4705   2.963   5.019   5.988 -0.4120  0.4357 -0.1322
   48CHL1   H2A 4706   3.021   4.939   6.038 -2.0827  0.2396  1.6116
   48CHL1   H2B 4707   2.859   4.979   5.988 -0.0972 -0.3962 -0.1791
   48CHL1   C20 4708   3.133   5.222   5.105  0.3339 -0.2583  0.4159
   48CHL1   H20 4709   3.101   5.118   5.126  0.6874 -0.4739 -0.1083
   48CHL1   C21 4710   3.273   5.230   5.045  0.2027  0.0559 -0.0030
   48CHL1  H21A 4711   3.347   5.170   5.103 -0.4809  1.1552  2.1016
   48CHL1  H21B 4712   3.265   5.180   4.946 -1.4180 -1.3971  0.8129
   48CHL1  H21C 4713   3.302   5.337   5.034 -2.0087  0.4552 -3.0138
   48CHL1   C22 4714   3.043   5.294   5.006  0.4317  0.6889  0.0462
   48CHL1  H22A 4715   2.939   5.296   5.044 -0.1982 -3.4484 -1.0270
   48CHL1  H22B 4716   3.088   5.395   4.997  1.4295  0.5628  2.6829
   48CHL1   C23 4717   2.999   5.216   4.884  0.0047 -0.4930 -0.7987
   48CHL1  H23A 4718   3.087   5.223   4.817  2.0543  0.2947  1.8154
   48CHL1  H23B 4719   2.980   5.108   4.902  1.1285 -0.7472 -1.1223
   48CHL1   C24 4720   2.893   5.302   4.803 -0.0744  0.0045 -0.1792
   48CHL1  H24A 4721   2.790   5.302   4.846  0.1476 -1.0354  0.3874
   48CHL1  H24B 4722   2.938   5.403   4.802  1.3464 -0.5569  1.5139
   48CHL1   C25 4723   2.879   5.258   4.655  0.7268 -0.2559  0.8638
   48CHL1   H25 4724   2.978   5.251   4.605  0.8904 -0.1030  1.1655
   48CHL1   C26 4725   2.799   5.130   4.625  0.4313  0.3641  0.1561
   48CHL1  H26A 4726   2.696   5.144   4.663  0.5293  1.0868  0.1659
   48CHL1  H26B 4727   2.793   5.118   4.515 -0.2536 -1.3800  0.3540
   48CHL1  H26C 4728   2.840   5.041   4.677 -1.9860 -0.4428  0.8365
   48CHL1   C27 4729   2.812   5.377   4.573  0.1841 -0.4048 -0.3684
   48CHL1  H27A 4730   2.713   5.390   4.621 -0.0547 -3.0148  0.0331
   48CHL1  H27B 4731   2.881   5.464   4.564 -2.5217  2.1068  1.4339
   48CHL1  H27C 4732   2.791   5.348   4.467 -1.2079  0.1918 -0.2724
   49CHL1    C3 4733   3.179   0.697   2.532  0.4906 -1.0822 -0.3623
   49CHL1    H3 4734   3.115   0.787   2.534  1.0463 -0.6259 -1.9338
   49CHL1    O3 4735   3.203   0.658   2.401 -0.4304 -0.0563 -0.0910
   49CHL1   H3' 4736   3.251   0.575   2.415  1.5839  0.8079 -1.4222
   49CHL1    C4 4737   3.315   0.739   2.598  0.2535 -0.5589  0.2457
   49CHL1   H4A 4738   3.387   0.654   2.602 -1.6442 -2.1809  1.1667
   49CHL1   H4B 4739   3.361   0.819   2.535 -1.0121 -0.0878 -0.1174
   49CHL1    C5 4740   3.302   0.768   2.740  0.4098  0.5137 -0.4676
   49CHL1    C6 4741   3.334   0.893   2.788 -1.0804  0.2988  0.4157
   49CHL1    H6 4742   3.380   0.963   2.716  1.1482 -1.2300  0.2256
   49CHL1    C7 4743   3.331   0.927   2.932  0.3262  0.7055 -0.3959
   49CHL1   H7A 4744   3.428   0.981   2.946  0.0529  0.9011  0.8401
   49CHL1   H7B 4745   3.245   0.992   2.957  0.2214  0.5201 -0.2743
   49CHL1    C8 4746   3.321   0.800   3.025  0.5091  0.1326  0.3312
   49CHL1    H8 4747   3.422   0.752   3.020  1.2532  1.7487 -1.1323
   49CHL1   C14 4748   3.288   0.838   3.165  0.2597 -0.5754 -1.1250
   49CHL1   H14 4749   3.186   0.880   3.165  0.0115 -1.0352  1.2537
   49CHL1   C15 4750   3.376   0.945   3.240  0.3639  0.2037 -0.5117
   49CHL1  H15A 4751   3.481   0.934   3.203  0.1961  0.0497 -0.9409
   49CHL1  H15B 4752   3.349   1.048   3.208  2.9439  0.7063 -1.3655
   49CHL1   C16 4753   3.351   0.915   3.389  0.3797  0.9293  0.4825
   49CHL1  H16A 4754   3.444   0.884   3.442 -0.8849 -4.0674  0.2628
   49CHL1  H16B 4755   3.327   1.007   3.447  0.8820  1.7254 -0.5212
   49CHL1   C17 4756   3.242   0.795   3.392  0.5754 -0.1348 -0.3784
   49CHL1   H17 4757   3.144   0.847   3.387  0.0358 -1.1773 -0.8103
   49CHL1   C13 4758   3.267   0.725   3.261 -0.0788 -0.3410 -1.2035
   49CHL1   C18 4759   3.397   0.642   3.279  0.0642  0.7039  0.4897
   49CHL1  H18A 4760   3.488   0.700   3.304  1.2885 -0.6446 -0.7093
   49CHL1  H18B 4761   3.394   0.557   3.349 -1.2537  1.8918  1.9541
   49CHL1  H18C 4762   3.417   0.586   3.185 -1.9818 -0.7096  0.8320
   49CHL1   C12 4763   3.151   0.643   3.212  0.5686 -0.0884  0.7664
   49CHL1  H12A 4764   3.142   0.553   3.278  1.0853 -0.6477  0.0935
   49CHL1  H12B 4765   3.058   0.703   3.216  0.3144 -0.1378 -2.2637
   49CHL1   C11 4766   3.173   0.592   3.067  0.2065  0.2221  0.1582
   49CHL1  H11A 4767   3.260   0.524   3.082  1.4075  1.5358 -0.5829
   49CHL1  H11B 4768   3.088   0.527   3.038  1.4001 -1.4787  0.2767
   49CHL1    C9 4769   3.207   0.712   2.972  0.0007 -0.1748 -0.4106
   49CHL1    H9 4770   3.110   0.768   2.970  0.3797  0.6378  1.6925
   49CHL1   C10 4771   3.236   0.667   2.831 -0.3140  0.2199 -0.2582
   49CHL1   C19 4772   3.330   0.536   2.835  0.1046 -0.1980  0.0938
   49CHL1  H19A 4773   3.346   0.503   2.730  1.4071 -0.9821  0.5186
   49CHL1  H19B 4774   3.426   0.556   2.887 -1.1035 -0.1079  2.4465
   49CHL1  H19C 4775   3.285   0.447   2.886  1.8827 -1.9476 -1.2402
   49CHL1    C1 4776   3.105   0.625   2.764  0.4060  0.3250  0.9429
   49CHL1   H1A 4777   3.075   0.533   2.818 -0.2718  0.0520  0.1170
   49CHL1   H1B 4778   3.020   0.694   2.780 -0.1590 -0.6116  2.1368
   49CHL1    C2 4779   3.113   0.588   2.616  0.0431  0.3316  0.8140
   49CHL1   H2A 4780   3.014   0.563   2.571  1.0497 -1.9090 -0.2728
   49CHL1   H2B 4781   3.171   0.494   2.614  0.4838  0.6095  0.3394
   49CHL1   C20 4782   3.235   0.710   3.524 -0.0254 -0.1105 -0.0229
   49CHL1   H20 4783   3.261   0.605   3.499 -0.7451 -0.1991 -0.4296
   49CHL1   C21 4784   3.085   0.695   3.555 -0.5920  0.0984 -0.1413
   49CHL1  H21A 4785   3.017   0.677   3.470 -0.6656 -0.2609 -0.0094
   49CHL1  H21B 4786   3.063   0.791   3.607  1.7147  0.6686 -0.0998
   49CHL1  H21C 4787   3.081   0.608   3.625 -0.5277  1.0594  1.1029
   49CHL1   C22 4788   3.312   0.767   3.646 -1.1775  0.2375 -0.0161
   49CHL1  H22A 4789   3.421   0.744   3.649 -1.6998 -2.4160  0.9029
   49CHL1  H22B 4790   3.309   0.877   3.629  1.2029  0.5131  0.9073
   49CHL1   C23 4791   3.260   0.741   3.791 -0.0528  0.3021  0.6107
   49CHL1  H23A 4792   3.159   0.787   3.794 -1.1572 -2.0391  1.2715
   49CHL1  H23B 4793   3.239   0.633   3.805 -2.6834  0.4864 -1.1559
   49CHL1   C24 4794   3.348   0.806   3.896 -0.0382  0.1064 -0.2061
   49CHL1  H24A 4795   3.450   0.765   3.880 -1.6597 -4.0317 -1.3359
   49CHL1  H24B 4796   3.341   0.915   3.873 -0.1621  0.1554  0.0606
   49CHL1   C25 4797   3.306   0.798   4.042 -0.4101  1.3073 -0.1000
   49CHL1   H25 4798   3.201   0.835   4.053 -0.8272 -0.3503  2.4181
   49CHL1   C26 4799   3.311   0.650   4.084 -0.0660  0.0314 -0.3420
   49CHL1  H26A 4800   3.299   0.641   4.194 -2.2203  0.1550 -0.5267
   49CHL1  H26B 4801   3.239   0.586   4.029 -1.3117  2.3396 -1.5441
   49CHL1  H26C 4802   3.416   0.615   4.069 -0.5688 -1.0195 -1.6049
   49CHL1   C27 4803   3.407   0.861   4.140  0.2905 -0.1692 -0.3158
   49CHL1  H27A 4804   3.365   0.859   4.243 -2.7040 -1.6377 -1.4542
   49CHL1  H27B 4805   3.505   0.810   4.131  0.5429  0.3400 -0.4918
   49CHL1  H27C 4806   3.411   0.969   4.114 -0.6752 -0.0432  0.0286
   50CHL1    C3 4807   5.550   4.025   2.640 -0.3253  0.6267  0.0484
   50CHL1    H3 4808   5.506   4.126   2.651  1.7514  1.6936 -0.8820
   50CHL1    O3 4809   5.569   4.017   2.499  0.6122  0.0473 -0.0058
   50CHL1   H3' 4810   5.590   3.930   2.463  1.3635  0.1203  0.2443
   50CHL1    C4 4811   5.688   4.023   2.699  0.0231  0.0992  1.2182
   50CHL1   H4A 4812   5.739   3.933   2.660  0.8439  1.3029 -0.6612
   50CHL1   H4B 4813   5.749   4.104   2.654  1.3532 -1.8452 -0.6842
   50CHL1    C5 4814   5.690   4.031   2.850 -0.5995  0.2388 -0.2759
   50CHL1    C6 4815   5.762   4.127   2.910 -0.1647  0.3723  0.5728
   50CHL1    H6 4816   5.820   4.195   2.845 -0.8790  0.0117 -0.4613
   50CHL1    C7 4817   5.747   4.148   3.056  0.5931  0.3250 -0.6021
   50CHL1   H7A 4818   5.840   4.179   3.108 -0.2944  1.1862  0.5383
   50CHL1   H7B 4819   5.678   4.233   3.071 -0.5166 -0.5014 -0.9193
   50CHL1    C8 4820   5.695   4.029   3.147 -0.5475 -0.2589  0.2593
   50CHL1    H8 4821   5.777   3.954   3.153 -0.7882 -0.5052  0.5087
   50CHL1   C14 4822   5.661   4.072   3.290 -0.2842 -0.3893  0.7202
   50CHL1   H14 4823   5.592   4.158   3.274 -0.8302 -1.0226 -0.4481
   50CHL1   C15 4824   5.777   4.132   3.372  0.3878 -0.6767 -0.2365
   50CHL1  H15A 4825   5.856   4.055   3.366 -1.3584 -2.5101 -1.1520
   50CHL1  H15B 4826   5.803   4.234   3.335 -0.6176 -0.7100 -1.0972
   50CHL1   C16 4827   5.706   4.132   3.512 -0.1455 -0.8223  0.8083
   50CHL1  H16A 4828   5.791   4.100   3.576 -1.2365 -1.0523  2.1885
   50CHL1  H16B 4829   5.678   4.234   3.546  0.1059 -0.3894 -0.2424
   50CHL1   C17 4830   5.585   4.035   3.517  0.0650 -0.4312 -0.1853
   50CHL1   H17 4831   5.488   4.089   3.519  0.1870 -0.2317  1.0675
   50CHL1   C13 4832   5.590   3.963   3.378 -0.5511 -0.3912 -0.6627
   50CHL1   C18 4833   5.684   3.840   3.387  0.0168  0.0405 -0.1514
   50CHL1  H18A 4834   5.632   3.755   3.437 -1.5785  1.1000  0.0518
   50CHL1  H18B 4835   5.707   3.781   3.296  2.0473  0.1258  0.2505
   50CHL1  H18C 4836   5.775   3.858   3.449 -1.7075  0.9242  2.2684
   50CHL1   C12 4837   5.458   3.932   3.308 -0.7785  0.5333 -0.1742
   50CHL1  H12A 4838   5.400   3.862   3.372 -3.0642  0.8572 -1.7412
   50CHL1  H12B 4839   5.395   4.023   3.295 -1.7106 -0.1792 -0.7576
   50CHL1   C11 4840   5.482   3.877   3.166 -0.4391  0.3024 -0.2826
   50CHL1  H11A 4841   5.533   3.778   3.162  1.8778  1.2776  1.9102
   50CHL1  H11B 4842   5.380   3.876   3.123 -0.8768  1.8700  0.6311
   50CHL1    C9 4843   5.567   3.973   3.085 -0.2426 -0.2113 -0.0313
   50CHL1    H9 4844   5.507   4.066   3.084 -0.0278 -0.0411 -2.0054
   50CHL1   C10 4845   5.588   3.936   2.930 -0.2244  0.1482 -0.5715
   50CHL1   C19 4846   5.646   3.787   2.929  0.7846 -0.3645 -0.3081
   50CHL1  H19A 4847   5.650   3.763   2.821 -0.3660  0.1758 -0.4879
   50CHL1  H19B 4848   5.743   3.787   2.984  0.0382 -0.6363  1.0614
   50CHL1  H19C 4849   5.588   3.707   2.981  0.0160  1.3045  1.5506
   50CHL1    C1 4850   5.450   3.938   2.854  0.3020  1.0003 -0.6470
   50CHL1   H1A 4851   5.386   3.854   2.887 -1.0317  1.4755 -1.9108
   50CHL1   H1B 4852   5.391   4.027   2.883  0.5435 -0.1439  4.2527
   50CHL1    C2 4853   5.461   3.919   2.702  0.0069 -0.3074  0.3404
   50CHL1   H2A 4854   5.362   3.925   2.653  1.1279  0.1253 -2.0107
   50CHL1   H2B 4855   5.512   3.820   2.692  1.5450  0.5410 -0.4830
   50CHL1   C20 4856   5.570   3.945   3.644  0.8660  0.0050 -0.0079
   50CHL1   H20 4857   5.653   3.871   3.652 -0.2965 -1.2398  1.0658
   50CHL1   C21 4858   5.432   3.864   3.636  0.5577 -0.0070  0.3179
   50CHL1  H21A 4859   5.434   3.808   3.732  0.4317 -0.8491 -0.1570
   50CHL1  H21B 4860   5.441   3.794   3.550  0.5326  0.1011  0.2274
   50CHL1  H21C 4861   5.342   3.929   3.633 -0.9469 -1.9343  1.5033
   50CHL1   C22 4862   5.562   4.030   3.772 -0.4841 -0.4556  0.2332
   50CHL1  H22A 4863   5.666   4.070   3.775 -1.2464  1.9089 -2.1063
   50CHL1  H22B 4864   5.501   4.122   3.761  2.0969  1.6497  2.0525
   50CHL1   C23 4865   5.544   3.970   3.917  0.1686  0.5869  0.6839
   50CHL1  H23A 4866   5.529   4.042   4.001 -0.2573 -0.0289  1.1448
   50CHL1  H23B 4867   5.451   3.909   3.917 -0.7803  1.9310  2.4243
   50CHL1   C24 4868   5.655   3.871   3.950 -0.7338  0.7162 -0.0583
   50CHL1  H24A 4869   5.665   3.807   3.859  1.8969  0.6168  0.2214
   50CHL1  H24B 4870   5.751   3.926   3.965  1.1834 -2.2973 -0.4404
   50CHL1   C25 4871   5.622   3.790   4.070  0.7281  0.3593  0.3843
   50CHL1   H25 4872   5.591   3.853   4.156 -2.0027  1.1217 -1.0448
   50CHL1   C26 4873   5.513   3.683   4.055  0.4650 -0.3202  0.6452
   50CHL1  H26A 4874   5.408   3.717   4.040  0.3056 -1.6453 -1.6916
   50CHL1  H26B 4875   5.547   3.621   3.969  1.7262  3.6845 -2.0469
   50CHL1  H26C 4876   5.515   3.619   4.146 -1.2210 -0.0632  0.8942
   50CHL1   C27 4877   5.745   3.705   4.119 -0.2643 -0.3404  0.1201
   50CHL1  H27A 4878   5.789   3.647   4.036 -0.7696  0.1481 -0.5061
   50CHL1  H27B 4879   5.820   3.773   4.166  0.1303 -0.6377 -0.0850
   50CHL1  H27C 4880   5.715   3.643   4.206  0.6613 -1.5521 -0.4071
   51CHL1    C3 4881   2.067   4.001   2.636 -0.1134  0.7228 -0.3443
   51CHL1    H3 4882   2.142   4.077   2.667  0.2872 -0.9223  3.2104
   51CHL1    O3 4883   2.048   4.000   2.498 -0.4186  0.6887 -0.0982
   51CHL1   H3' 4884   1.990   3.928   2.472  2.5381 -1.4342 -1.4279
   51CHL1    C4 4885   2.121   3.861   2.680  1.1099  0.3962 -0.4081
   51CHL1   H4A 4886   2.057   3.779   2.641  3.0697 -1.2838 -0.2765
   51CHL1   H4B 4887   2.221   3.844   2.635  1.0634  2.2978 -1.3277
   51CHL1    C5 4888   2.119   3.850   2.831  0.6178 -1.5434 -0.4042
   51CHL1    C6 4889   2.230   3.820   2.891 -0.3135 -0.4474  0.2846
   51CHL1    H6 4890   2.312   3.802   2.821  0.3770 -1.2234  1.2581
   51CHL1    C7 4891   2.256   3.792   3.033 -0.1261  0.3716  0.6404
   51CHL1   H7A 4892   2.308   3.696   3.049 -0.3584  0.4494  1.9409
   51CHL1   H7B 4893   2.323   3.877   3.054 -0.8440  1.4128 -1.0251
   51CHL1    C8 4894   2.119   3.790   3.115  0.6388 -0.3028  0.3668
   51CHL1    H8 4895   2.075   3.693   3.083 -0.6982  0.0356  1.1427
   51CHL1   C14 4896   2.142   3.803   3.268  0.0353 -0.3606  0.4549
   51CHL1   H14 4897   2.196   3.899   3.276  1.0060 -0.9244  0.8455
   51CHL1   C15 4898   2.225   3.706   3.345  0.4372 -0.3596  0.6037
   51CHL1  H15A 4899   2.183   3.603   3.348 -0.2202 -0.0798  2.2149
   51CHL1  H15B 4900   2.323   3.700   3.294  0.6033  1.7682  0.6191
   51CHL1   C16 4901   2.216   3.768   3.482  0.6306 -0.0592 -0.0418
   51CHL1  H16A 4902   2.219   3.689   3.560  1.4079 -0.4148 -0.4206
   51CHL1  H16B 4903   2.303   3.835   3.503  0.7338  0.2167 -1.2564
   51CHL1   C17 4904   2.084   3.846   3.486  0.4750 -0.8369 -0.0895
   51CHL1   H17 4905   2.105   3.955   3.479 -2.8160 -0.0753  0.2471
   51CHL1   C13 4906   2.015   3.826   3.350  0.1211 -0.0376 -0.7547
   51CHL1   C18 4907   1.933   3.694   3.340 -0.8599 -1.1388  0.2755
   51CHL1  H18A 4908   1.941   3.654   3.237  0.5345  0.3195 -0.2170
   51CHL1  H18B 4909   1.966   3.613   3.410 -0.7807  1.1673  3.0928
   51CHL1  H18C 4910   1.824   3.712   3.355 -0.8025 -0.5943  0.0135
   51CHL1   C12 4911   1.942   3.949   3.297  0.3168 -0.1201 -0.0873
   51CHL1  H12A 4912   1.852   3.991   3.347  1.1015  0.6448  0.7077
   51CHL1  H12B 4913   2.016   4.029   3.315  0.5078  0.2420 -2.2571
   51CHL1   C11 4914   1.905   3.948   3.146  0.5029 -0.0428 -0.5338
   51CHL1  H11A 4915   1.825   3.872   3.133  1.4094 -1.2339  0.5666
   51CHL1  H11B 4916   1.875   4.049   3.113 -0.5679 -0.4037 -0.7092
   51CHL1    C9 4917   2.028   3.912   3.061 -0.2824  0.2397 -0.1490
   51CHL1    H9 4918   2.095   4.000   3.069  2.1829 -1.3363 -1.7439
   51CHL1   C10 4919   1.994   3.891   2.913  0.4378 -0.0817  0.0468
   51CHL1   C19 4920   1.891   3.774   2.898 -1.0967 -0.6233  0.3869
   51CHL1  H19A 4921   1.874   3.754   2.790 -0.5656  0.4984  0.0837
   51CHL1  H19B 4922   1.928   3.679   2.944  1.8526  0.9033  1.4380
   51CHL1  H19C 4923   1.797   3.804   2.950 -0.5442  0.1001  0.9921
   51CHL1    C1 4924   1.940   4.024   2.850  0.2728  0.0187 -0.6046
   51CHL1   H1A 4925   1.839   4.039   2.893  0.4311  3.0441 -1.0087
   51CHL1   H1B 4926   2.012   4.099   2.891 -0.6119  0.6116 -0.0900
   51CHL1    C2 4927   1.933   4.026   2.703 -0.7419  0.7390  0.7805
   51CHL1   H2A 4928   1.890   4.124   2.675 -1.0608  1.2570  2.9157
   51CHL1   H2B 4929   1.860   3.950   2.668 -0.7048  0.7617  0.6540
   51CHL1   C20 4930   1.989   3.826   3.614 -0.1129 -0.4872  0.5344
   51CHL1   H20 4931   1.957   3.719   3.614 -1.0993 -0.2054  0.5614
   51CHL1   C21 4932   1.862   3.915   3.598 -0.4240  0.0633 -0.0900
   51CHL1  H21A 4933   1.799   3.866   3.522 -1.4709 -1.0240  1.4309
   51CHL1  H21B 4934   1.891   4.019   3.571 -2.2589  0.4823 -0.5390
   51CHL1  H21C 4935   1.793   3.911   3.685  1.0157  0.4047  1.1189
   51CHL1   C22 4936   2.070   3.866   3.747 -0.0499 -0.6252  0.3074
   51CHL1  H22A 4937   2.169   3.815   3.749  0.1697 -0.2156  0.0464
   51CHL1  H22B 4938   2.080   3.974   3.722  2.0076 -1.5147 -3.5518
   51CHL1   C23 4939   1.999   3.830   3.878 -0.0391  0.6881  0.4114
   51CHL1  H23A 4940   1.907   3.891   3.886 -0.1036  0.5376  0.8618
   51CHL1  H23B 4941   1.981   3.721   3.862  3.9547 -0.1940  0.8492
   51CHL1   C24 4942   2.087   3.832   4.008  0.1001 -0.4630  0.5138
   51CHL1  H24A 4943   2.195   3.823   3.983  0.4584  0.9254  1.4474
   51CHL1  H24B 4944   2.085   3.932   4.056  0.0762 -0.7223  1.0565
   51CHL1   C25 4945   2.047   3.729   4.118 -0.9203 -0.4183 -0.2964
   51CHL1   H25 4946   2.035   3.626   4.077 -1.8177 -0.2688 -0.4252
   51CHL1   C26 4947   2.157   3.708   4.226 -0.5139 -0.4536  0.0286
   51CHL1  H26A 4948   2.249   3.677   4.172  0.6776  0.8245  1.2500
   51CHL1  H26B 4949   2.174   3.805   4.277  0.6985 -2.0278  2.8960
   51CHL1  H26C 4950   2.137   3.629   4.302  0.9670 -0.9349 -0.0629
   51CHL1   C27 4951   1.903   3.760   4.180  0.2295 -0.0066  0.3271
   51CHL1  H27A 4952   1.861   3.676   4.239  1.2165 -0.9656 -0.2845
   51CHL1  H27B 4953   1.914   3.853   4.239  0.5479 -0.0001  0.2606
   51CHL1  H27C 4954   1.830   3.774   4.098  0.9125  0.0379 -0.2861
   52CHL1    C3 4955   2.280   3.318   2.879  0.6443 -0.1710 -0.1158
   52CHL1    H3 4956   2.292   3.426   2.904 -0.4387  0.1553 -0.9204
   52CHL1    O3 4957   2.297   3.315   2.740 -0.4124  0.2552  0.0866
   52CHL1   H3' 4958   2.206   3.312   2.709 -0.7025 -1.7727  0.9608
   52CHL1    C4 4959   2.384   3.239   2.954  0.8489 -0.5744  0.0168
   52CHL1   H4A 4960   2.380   3.142   2.901 -0.5317 -0.7078  0.3268
   52CHL1   H4B 4961   2.479   3.289   2.928 -0.4375  2.2002  0.2266
   52CHL1    C5 4962   2.373   3.242   3.106  0.4779  0.0613 -0.2809
   52CHL1    C6 4963   2.471   3.279   3.190  0.2252 -0.5680  1.2688
   52CHL1    H6 4964   2.569   3.313   3.156 -0.7497  1.5244  0.4252
   52CHL1    C7 4965   2.452   3.278   3.335 -0.8455 -0.3230 -0.0889
   52CHL1   H7A 4966   2.547   3.231   3.369  1.2192  2.3483 -1.7937
   52CHL1   H7B 4967   2.447   3.386   3.361  2.2283  0.4937 -2.3482
   52CHL1    C8 4968   2.338   3.196   3.380  0.7206  0.3505  0.0290
   52CHL1    H8 4969   2.349   3.087   3.363 -0.6060  0.4352 -1.6885
   52CHL1   C14 4970   2.306   3.222   3.532 -0.0489  0.0938 -0.3112
   52CHL1   H14 4971   2.268   3.326   3.530  0.1034  0.1455 -0.6454
   52CHL1   C15 4972   2.427   3.233   3.622  0.0921  0.6348 -0.3437
   52CHL1  H15A 4973   2.491   3.146   3.596 -0.2987 -0.1922  1.3604
   52CHL1  H15B 4974   2.494   3.321   3.616 -0.4203  1.0865  0.4015
   52CHL1   C16 4975   2.374   3.202   3.759  0.4183  0.0628  0.9616
   52CHL1  H16A 4976   2.410   3.103   3.795 -0.4279 -0.8624 -0.6299
   52CHL1  H16B 4977   2.393   3.286   3.829 -0.3094 -0.2065  1.5000
   52CHL1   C17 4978   2.212   3.178   3.743  0.1780 -0.3550  0.0879
   52CHL1   H17 4979   2.165   3.279   3.754 -0.4451 -0.8864  3.0161
   52CHL1   C13 4980   2.198   3.139   3.596  0.4473 -0.3997 -0.2059
   52CHL1   C18 4981   2.222   2.982   3.579 -0.1993 -0.2266  0.6403
   52CHL1  H18A 4982   2.229   2.955   3.471  0.8825  3.0342 -0.2387
   52CHL1  H18B 4983   2.321   2.961   3.625  0.7119  1.1460 -0.5694
   52CHL1  H18C 4984   2.146   2.915   3.623 -1.8016  2.0782  1.6203
   52CHL1   C12 4985   2.070   3.189   3.526 -0.3955  0.3328  0.0832
   52CHL1  H12A 4986   1.977   3.139   3.559  0.6174 -1.3108  0.5304
   52CHL1  H12B 4987   2.058   3.296   3.554 -2.5605 -0.2088  1.3760
   52CHL1   C11 4988   2.085   3.168   3.372 -0.0094  0.2205  0.2827
   52CHL1  H11A 4989   2.089   3.057   3.363  0.6646  0.0827  1.9950
   52CHL1  H11B 4990   1.991   3.215   3.336 -0.4858 -0.8022  0.1673
   52CHL1    C9 4991   2.214   3.230   3.305  0.0006  0.1183 -0.5306
   52CHL1    H9 4992   2.197   3.340   3.312  0.3136  0.1893 -0.8579
   52CHL1   C10 4993   2.235   3.202   3.153  0.6885  0.4144 -1.0452
   52CHL1   C19 4994   2.223   3.045   3.137  0.0542 -0.0504  0.3797
   52CHL1  H19A 4995   2.299   2.998   3.204  0.3054 -0.2336 -0.0326
   52CHL1  H19B 4996   2.122   3.007   3.164 -0.8439  0.6021 -1.8523
   52CHL1  H19C 4997   2.240   3.004   3.035 -2.2797  0.4227 -0.2588
   52CHL1    C1 4998   2.124   3.285   3.078  0.2654  0.5160  0.5857
   52CHL1   H1A 4999   2.026   3.243   3.111  1.2625 -0.8071  1.9832
   52CHL1   H1B 5000   2.124   3.391   3.108 -2.2044  0.6295  0.4638
   52CHL1    C2 5001   2.141   3.273   2.927 -0.7086  0.1347 -0.4874
   52CHL1   H2A 5002   2.061   3.326   2.871 -0.7778  0.6158  0.0625
   52CHL1   H2B 5003   2.127   3.168   2.894  0.9459  0.6510 -3.1681
   52CHL1   C20 5004   2.145   3.081   3.844  0.1115 -0.1184 -0.0370
   52CHL1   H20 5005   2.195   2.982   3.841 -0.0245 -0.2156  0.7887
   52CHL1   C21 5006   1.993   3.058   3.817 -0.0213 -0.6409  0.7404
   52CHL1  H21A 5007   1.947   3.151   3.777  0.0773 -0.4156  1.1452
   52CHL1  H21B 5008   1.931   3.018   3.900 -0.6653  0.1466  0.6553
   52CHL1  H21C 5009   1.992   2.977   3.741 -1.0496 -1.4789  1.6271
   52CHL1   C22 5010   2.172   3.123   3.989 -0.2213  0.2474 -0.3900
   52CHL1  H22A 5011   2.277   3.156   4.007  0.4671 -2.2193  0.6100
   52CHL1  H22B 5012   2.099   3.204   4.014  0.0292  0.1761  0.6169
   52CHL1   C23 5013   2.161   2.996   4.076  0.0906 -0.4621 -0.5563
   52CHL1  H23A 5014   2.060   2.951   4.064 -0.4573 -0.1153  2.0776
   52CHL1  H23B 5015   2.252   2.935   4.059 -0.5533 -1.9003  0.8876
   52CHL1   C24 5016   2.171   3.021   4.230  0.2238  0.2258  0.0703
   52CHL1  H24A 5017   2.251   3.092   4.261  1.1456 -0.6080 -0.3559
   52CHL1  H24B 5018   2.080   3.078   4.259  0.1376 -0.8282  1.9886
   52CHL1   C25 5019   2.174   2.899   4.316 -0.2030  0.0649  0.0575
   52CHL1   H25 5020   2.081   2.839   4.307  0.1090 -0.7560  1.7783
   52CHL1   C26 5021   2.299   2.816   4.288  0.0447  0.0279 -1.2274
   52CHL1  H26A 5022   2.311   2.749   4.375 -0.7525  2.5928  0.9749
   52CHL1  H26B 5023   2.281   2.755   4.196 -2.7190  1.0606 -1.4649
   52CHL1  H26C 5024   2.388   2.883   4.278 -0.1061  0.4736  0.1884
   52CHL1   C27 5025   2.178   2.950   4.461 -0.5678  1.0968  0.6619
   52CHL1  H27A 5026   2.269   3.012   4.475  0.1988  0.2702 -0.4336
   52CHL1  H27B 5027   2.085   3.003   4.491 -1.1658 -0.7694  2.3469
   52CHL1  H27C 5028   2.185   2.868   4.535 -1.1392 -1.8041 -2.2659
   53CHL1    C3 5029   6.397   3.355   2.656  0.3429 -0.3781 -0.6290
   53CHL1    H3 5030   6.457   3.262   2.656  0.0276 -0.6094 -2.2267
   53CHL1    O3 5031   6.356   3.382   2.517 -0.1979  0.2161 -0.4213
   53CHL1   H3' 5032   6.435   3.402   2.467  0.8344 -2.1964  0.0775
   53CHL1    C4 5033   6.276   3.344   2.750  0.0955  0.2077  0.1482
   53CHL1   H4A 5034   6.218   3.437   2.730  1.9944  1.1835 -1.0494
   53CHL1   H4B 5035   6.217   3.255   2.721 -1.1513  0.5282  1.5445
   53CHL1    C5 5036   6.319   3.336   2.900  0.5749 -0.3978 -0.3335
   53CHL1    C6 5037   6.279   3.233   2.976 -0.3304 -0.4346  0.3887
   53CHL1    H6 5038   6.216   3.155   2.930  0.4804  0.0041 -1.5898
   53CHL1    C7 5039   6.304   3.221   3.121 -0.0044 -0.3525 -0.4051
   53CHL1   H7A 5040   6.208   3.207   3.174  0.5116 -0.2187  0.5845
   53CHL1   H7B 5041   6.383   3.145   3.138 -0.4618 -1.0862 -1.4634
   53CHL1    C8 5042   6.363   3.356   3.172 -0.4342  0.4921  0.1980
   53CHL1    H8 5043   6.279   3.428   3.178 -0.4091  0.6446 -1.1355
   53CHL1   C14 5044   6.415   3.334   3.314  0.5864 -0.2778  0.5181
   53CHL1   H14 5045   6.495   3.258   3.306  0.3133 -0.5242  0.1095
   53CHL1   C15 5046   6.325   3.272   3.419 -0.6612  0.5621 -0.3187
   53CHL1  H15A 5047   6.220   3.305   3.408 -0.8647  0.9598  2.3050
   53CHL1  H15B 5048   6.330   3.162   3.407 -1.1479  0.5197 -0.1438
   53CHL1   C16 5049   6.391   3.313   3.558 -0.0918  0.0672  0.0984
   53CHL1  H16A 5050   6.302   3.355   3.609  0.1058 -1.5475  1.8508
   53CHL1  H16B 5051   6.424   3.224   3.616 -1.3513  0.1713  1.0099
   53CHL1   C17 5052   6.507   3.403   3.516  0.4027 -0.2016 -0.2903
   53CHL1   H17 5053   6.607   3.353   3.512  0.9704  0.8650  0.1751
   53CHL1   C13 5054   6.471   3.462   3.381 -0.2412  0.3283  0.0129
   53CHL1   C18 5055   6.359   3.572   3.405  0.7940  0.1197  0.2839
   53CHL1  H18A 5056   6.314   3.619   3.314 -0.7340  0.0764  0.9727
   53CHL1  H18B 5057   6.273   3.516   3.447  1.3392 -0.7782  0.2096
   53CHL1  H18C 5058   6.389   3.660   3.465  0.4129  0.2982  0.2179
   53CHL1   C12 5059   6.588   3.508   3.295  0.3443 -0.0058  0.1208
   53CHL1  H12A 5060   6.628   3.602   3.337 -0.1657  0.3593 -0.1982
   53CHL1  H12B 5061   6.662   3.426   3.300  0.8424  0.4319 -0.0440
   53CHL1   C11 5062   6.548   3.526   3.146  0.2352 -0.4786  0.3611
   53CHL1  H11A 5063   6.484   3.616   3.135  0.8907 -0.2372 -2.1737
   53CHL1  H11B 5064   6.644   3.546   3.094 -0.2998  1.3745  0.0087
   53CHL1    C9 5065   6.476   3.412   3.085  0.5881  0.2211 -0.3034
   53CHL1    H9 5066   6.553   3.333   3.080  0.1076 -0.3987  1.5055
   53CHL1   C10 5067   6.416   3.446   2.944 -0.0134 -0.2516 -0.2145
   53CHL1   C19 5068   6.329   3.576   2.947 -0.6343  0.0971 -0.1835
   53CHL1  H19A 5069   6.402   3.659   2.935 -2.8725  1.9101 -2.0659
   53CHL1  H19B 5070   6.264   3.580   2.857 -1.2942 -0.9878  0.2194
   53CHL1  H19C 5071   6.266   3.575   3.039 -0.4921 -1.0518 -0.0869
   53CHL1    C1 5072   6.534   3.456   2.843 -0.5326 -0.0057 -1.1313
   53CHL1   H1A 5073   6.601   3.538   2.876 -2.0693  0.6315  0.5266
   53CHL1   H1B 5074   6.586   3.358   2.834 -1.3841 -0.7220  1.1573
   53CHL1    C2 5075   6.488   3.471   2.700 -0.2625 -0.8771  0.2675
   53CHL1   H2A 5076   6.575   3.477   2.631 -0.9608  0.3520 -0.5240
   53CHL1   H2B 5077   6.437   3.569   2.694  1.8004  0.1568 -1.1875
   53CHL1   C20 5078   6.529   3.498   3.636  0.8531 -0.1480 -0.1239
   53CHL1   H20 5079   6.445   3.567   3.659 -0.2940 -0.8336 -2.0160
   53CHL1   C21 5080   6.649   3.592   3.595  0.0174 -0.4596  0.3840
   53CHL1  H21A 5081   6.663   3.664   3.678  2.5216 -0.7675  0.3016
   53CHL1  H21B 5082   6.604   3.653   3.514  0.1321 -0.0643  0.6194
   53CHL1  H21C 5083   6.737   3.529   3.567  0.2893 -0.2608  0.7888
   53CHL1   C22 5084   6.572   3.424   3.758 -0.5838 -1.1076 -0.2027
   53CHL1  H22A 5085   6.513   3.331   3.775 -1.7190 -0.3100  0.3618
   53CHL1  H22B 5086   6.678   3.391   3.752 -0.8663 -1.8514 -1.3103
   53CHL1   C23 5087   6.555   3.510   3.887  0.4538  0.3793  0.0739
   53CHL1  H23A 5088   6.607   3.608   3.879 -0.6717  0.8742 -2.4994
   53CHL1  H23B 5089   6.447   3.532   3.897  0.9018  2.4128  0.7923
   53CHL1   C24 5090   6.604   3.430   4.009  0.1202 -0.1186 -0.0365
   53CHL1  H24A 5091   6.537   3.345   4.033 -0.8839  0.4441 -0.7631
   53CHL1  H24B 5092   6.698   3.372   3.997  0.1002  0.0181 -0.8777
   53CHL1   C25 5093   6.621   3.523   4.133  0.2779 -0.6663  0.4603
   53CHL1   H25 5094   6.575   3.614   4.087  0.8183 -1.0484 -0.8735
   53CHL1   C26 5095   6.557   3.483   4.264 -0.8904 -0.1079  0.0767
   53CHL1  H26A 5096   6.579   3.561   4.340  0.1303  0.8737 -1.1709
   53CHL1  H26B 5097   6.447   3.466   4.259 -0.9779  0.6537 -1.0221
   53CHL1  H26C 5098   6.601   3.388   4.301 -0.0456 -0.1234 -0.9149
   53CHL1   C27 5099   6.769   3.555   4.151  0.4737  0.2016 -0.0482
   53CHL1  H27A 5100   6.818   3.469   4.203  0.2452 -0.1150 -0.3531
   53CHL1  H27B 5101   6.817   3.575   4.053  2.2625 -1.5085  0.4056
   53CHL1  H27C 5102   6.775   3.646   4.214 -1.8272  0.9195 -0.7825
   54CHL1    C3 5103   1.692   0.177   2.427  0.0963 -0.1029 -0.4466
   54CHL1    H3 5104   1.599   0.233   2.452  0.0338 -0.2083 -0.4416
   54CHL1    O3 5105   1.708   0.154   2.288  0.0568  0.8436  0.3364
   54CHL1   H3' 5106   1.794   0.112   2.282 -1.7040 -2.9771 -1.3122
   54CHL1    C4 5107   1.816   0.249   2.486 -0.8950 -0.0897 -0.2921
   54CHL1   H4A 5108   1.911   0.205   2.448  0.1787  1.1322  0.8491
   54CHL1   H4B 5109   1.809   0.352   2.445 -0.4154  0.4559  0.9211
   54CHL1    C5 5110   1.812   0.244   2.640  0.0321 -0.2765  0.0964
   54CHL1    C6 5111   1.804   0.348   2.723  0.3800 -0.3514 -0.1550
   54CHL1    H6 5112   1.818   0.451   2.686  2.2714 -0.3320  0.5065
   54CHL1    C7 5113   1.798   0.340   2.867 -0.0469  0.3327 -0.1419
   54CHL1   H7A 5114   1.853   0.425   2.913  2.8943  0.9442 -4.2624
   54CHL1   H7B 5115   1.693   0.355   2.898  0.5065 -0.0740  2.0903
   54CHL1    C8 5116   1.840   0.201   2.926  0.2652 -0.2698  0.3472
   54CHL1    H8 5117   1.948   0.187   2.903  0.8101 -1.8885  3.3000
   54CHL1   C14 5118   1.818   0.191   3.076  0.0749  0.7010 -0.8131
   54CHL1   H14 5119   1.709   0.198   3.094  0.4518  1.1818  1.6404
   54CHL1   C15 5120   1.881   0.295   3.165 -0.1985  0.0514  0.1779
   54CHL1  H15A 5121   1.980   0.323   3.124  0.2995 -1.9654 -0.1144
   54CHL1  H15B 5122   1.808   0.378   3.152  0.4923  0.5210 -0.7729
   54CHL1   C16 5123   1.896   0.232   3.301  0.5393 -0.6827 -0.0985
   54CHL1  H16A 5124   2.004   0.233   3.325  0.2336  3.3913  2.0281
   54CHL1  H16B 5125   1.848   0.280   3.389  0.3892 -0.8034 -0.1135
   54CHL1   C17 5126   1.839   0.086   3.289 -1.0058 -0.1288  0.1517
   54CHL1   H17 5127   1.730   0.087   3.309 -0.7993  0.5632  1.3563
   54CHL1   C13 5128   1.861   0.050   3.143 -0.9030 -0.3048 -0.0253
   54CHL1   C18 5129   2.006   0.015   3.103  0.1827  0.3815 -0.5988
   54CHL1  H18A 5130   2.032  -0.085   3.144  0.9348  0.4845 -0.7995
   54CHL1  H18B 5131   2.021   0.011   2.993 -1.5738  1.0590 -0.8938
   54CHL1  H18C 5132   2.075   0.094   3.141  1.0220  0.9098 -3.0473
   54CHL1   C12 5133   1.765  -0.044   3.082 -0.1900 -0.0070  0.2943
   54CHL1  H12A 5134   1.790  -0.151   3.103  1.6859 -0.5014 -3.5618
   54CHL1  H12B 5135   1.666  -0.021   3.125 -0.2267  0.5056 -0.0643
   54CHL1   C11 5136   1.769  -0.044   2.928  0.0255 -0.1916 -0.2692
   54CHL1  H11A 5137   1.875  -0.076   2.917 -0.3897 -1.8477  0.1834
   54CHL1  H11B 5138   1.702  -0.118   2.878 -1.8791  0.2129  1.5461
   54CHL1    C9 5139   1.755   0.095   2.859 -0.7924 -0.0353  0.2048
   54CHL1    H9 5140   1.648   0.124   2.868 -0.5633  0.2448  2.7111
   54CHL1   C10 5141   1.790   0.095   2.704  0.2459  0.6679 -0.0240
   54CHL1   C19 5142   1.922   0.015   2.680  0.0347  0.7739 -0.0567
   54CHL1  H19A 5143   1.931   0.004   2.570  1.9798  1.9733 -0.0693
   54CHL1  H19B 5144   2.015   0.052   2.729  1.9277 -1.1615 -1.9650
   54CHL1  H19C 5145   1.897  -0.086   2.717 -0.4824  0.1714 -1.9321
   54CHL1    C1 5146   1.667   0.023   2.637 -0.4616  0.7192  0.0025
   54CHL1   H1A 5147   1.648  -0.085   2.657 -2.7517  1.0651 -0.0107
   54CHL1   H1B 5148   1.575   0.076   2.669 -1.1392 -0.3880 -0.0749
   54CHL1    C2 5149   1.672   0.038   2.480 -0.2254 -0.3103  0.0289
   54CHL1   H2A 5150   1.581  -0.017   2.447 -0.6178  1.0469 -1.2413
   54CHL1   H2B 5151   1.764  -0.020   2.459  0.5906  0.4806  1.3203
   54CHL1   C20 5152   1.886  -0.005   3.401 -0.3258 -0.5640 -0.1898
   54CHL1   H20 5153   1.995   0.009   3.415 -0.2905 -1.1972  0.1982
   54CHL1   C21 5154   1.859  -0.156   3.373  0.0260  0.1327  0.6821
   54CHL1  H21A 5155   1.909  -0.225   3.444  1.5195 -0.4262 -0.8485
   54CHL1  H21B 5156   1.927  -0.183   3.290 -0.3272 -3.5136  1.4307
   54CHL1  H21C 5157   1.758  -0.182   3.334  1.1022 -2.1443 -0.7744
   54CHL1   C22 5158   1.834   0.038   3.536 -0.1149 -0.8771 -0.6130
   54CHL1  H22A 5159   1.848   0.147   3.555 -0.2986 -1.1570  1.3705
   54CHL1  H22B 5160   1.729   0.001   3.529  0.3854 -2.3822 -0.4434
   54CHL1   C23 5161   1.892  -0.039   3.656  0.1874 -0.1309  0.2386
   54CHL1  H23A 5162   1.864  -0.146   3.660 -1.4760  0.3073  3.4692
   54CHL1  H23B 5163   2.003  -0.040   3.645  0.2607 -0.1176  0.9311
   54CHL1   C24 5164   1.853   0.017   3.793 -0.5517  0.0190 -0.6368
   54CHL1  H24A 5165   1.892   0.120   3.811 -1.8696  0.4518 -0.1557
   54CHL1  H24B 5166   1.742   0.018   3.798 -0.7467 -1.4147 -3.0808
   54CHL1   C25 5167   1.903  -0.059   3.917 -0.2498  0.8565 -0.3699
   54CHL1   H25 5168   1.846  -0.154   3.921 -0.7038  1.1030 -0.7903
   54CHL1   C26 5169   2.053  -0.088   3.922  0.3006  0.0111 -0.2849
   54CHL1  H26A 5170   2.083  -0.148   3.833  2.0262 -0.3502  0.4854
   54CHL1  H26B 5171   2.110   0.006   3.934  0.0242  0.0544  0.7985
   54CHL1  H26C 5172   2.077  -0.152   4.009  0.8030  0.7627  0.1355
   54CHL1   C27 5173   1.855   0.022   4.044 -0.2592  0.8639  0.2179
   54CHL1  H27A 5174   1.864  -0.040   4.137 -1.2138  0.3956  0.0079
   54CHL1  H27B 5175   1.911   0.117   4.057 -1.9091  1.6229  2.3430
   54CHL1  H27C 5176   1.747   0.046   4.043 -0.6202 -0.4347  1.9641
   55CHL1    C3 5177   6.094   4.598   2.944 -0.3585 -0.0113  0.8117
   55CHL1    H3 5178   6.203   4.577   2.953 -0.1174  0.7030 -0.2882
   55CHL1    O3 5179   6.060   4.608   2.804  0.3471  0.6495  0.1211
   55CHL1   H3' 5180   6.059   4.519   2.766 -3.0302  0.4570  0.3735
   55CHL1    C4 5181   6.039   4.472   3.006  0.6334  0.6798 -0.5861
   55CHL1   H4A 5182   5.930   4.466   2.989  0.5679 -1.3293  0.2104
   55CHL1   H4B 5183   6.085   4.380   2.964  1.6394  0.3202  1.1898
   55CHL1    C5 5184   6.064   4.463   3.154  0.2071 -0.3004 -1.0697
   55CHL1    C6 5185   6.114   4.357   3.213 -0.2214 -0.0874  0.5606
   55CHL1    H6 5186   6.145   4.274   3.147  0.0446 -0.6094  1.3269
   55CHL1    C7 5187   6.130   4.337   3.359 -0.2812  0.6663 -0.7190
   55CHL1   H7A 5188   6.109   4.231   3.380  2.3337  0.4637  1.4201
   55CHL1   H7B 5189   6.231   4.369   3.392 -0.8407 -0.7003  2.6259
   55CHL1    C8 5190   6.036   4.430   3.437  0.0947 -0.3481  0.3721
   55CHL1    H8 5191   5.932   4.401   3.412 -0.7549  2.9341 -0.3185
   55CHL1   C14 5192   6.075   4.433   3.587  0.2397  0.2289  0.1228
   55CHL1   H14 5193   6.176   4.479   3.595 -0.4120  1.6371  0.4701
   55CHL1   C15 5194   6.097   4.296   3.651  0.2000  0.2975 -0.2942
   55CHL1  H15A 5195   6.013   4.224   3.637 -1.5428  2.4443 -1.6520
   55CHL1  H15B 5196   6.201   4.265   3.631 -0.3641 -1.0063 -1.3260
   55CHL1   C16 5197   6.079   4.339   3.803 -0.3463  0.2516  0.0670
   55CHL1  H16A 5198   6.000   4.283   3.857  2.0880 -1.2801  2.3039
   55CHL1  H16B 5199   6.175   4.324   3.857 -0.4954  0.9970  0.5466
   55CHL1   C17 5200   6.050   4.489   3.809 -0.3092 -0.5092 -0.3796
   55CHL1   H17 5201   6.151   4.535   3.813 -1.3758  2.5121 -3.0652
   55CHL1   C13 5202   5.989   4.519   3.673 -0.5041 -0.8894 -0.4504
   55CHL1   C18 5203   5.843   4.468   3.673 -0.5075  0.2489  0.0519
   55CHL1  H18A 5204   5.806   4.457   3.568  1.4470  2.3711 -0.9669
   55CHL1  H18B 5205   5.818   4.373   3.724  0.9292 -0.4552 -0.5035
   55CHL1  H18C 5206   5.787   4.552   3.721 -1.4189 -0.0813 -0.3949
   55CHL1   C12 5207   6.000   4.664   3.623 -0.2621  0.3056 -0.6464
   55CHL1  H12A 5208   5.916   4.721   3.667 -2.4577 -1.9865 -1.5904
   55CHL1  H12B 5209   6.097   4.703   3.661  0.5024 -1.5956 -0.5300
   55CHL1   C11 5210   5.974   4.677   3.473  0.6920 -0.4255  0.9804
   55CHL1  H11A 5211   5.866   4.653   3.463  0.7868  0.0200 -1.7601
   55CHL1  H11B 5212   6.007   4.775   3.433 -1.1535 -0.1014  0.1823
   55CHL1    C9 5213   6.051   4.575   3.378  0.2627 -0.2799 -0.3680
   55CHL1    H9 5214   6.160   4.592   3.391  1.1343 -3.8969 -1.8300
   55CHL1   C10 5215   6.018   4.586   3.227  0.1963 -0.0880  0.0485
   55CHL1   C19 5216   5.858   4.590   3.219 -0.0151 -0.0256 -0.4426
   55CHL1  H19A 5217   5.819   4.574   3.116 -0.3088 -2.0565 -0.0591
   55CHL1  H19B 5218   5.815   4.503   3.273  1.5145 -1.4272 -1.3683
   55CHL1  H19C 5219   5.816   4.682   3.265 -1.5912 -1.6381  1.5222
   55CHL1    C1 5220   6.080   4.714   3.168  0.9229  0.3022  0.4046
   55CHL1   H1A 5221   6.032   4.802   3.216  0.2578 -0.7404  1.6987
   55CHL1   H1B 5222   6.189   4.725   3.188  0.7231  2.2723  0.6487
   55CHL1    C2 5223   6.054   4.730   3.020 -0.7658  1.0246 -0.2794
   55CHL1   H2A 5224   6.125   4.808   2.983  0.0311  0.2009 -0.5516
   55CHL1   H2B 5225   5.946   4.750   3.007 -0.6235  1.7825 -0.3198
   55CHL1   C20 5226   5.979   4.530   3.939  0.4749  0.4398 -0.1772
   55CHL1   H20 5227   5.875   4.491   3.936  0.6126  0.0560  0.0204
   55CHL1   C21 5228   5.969   4.680   3.956 -0.1918 -0.1545 -0.5584
   55CHL1  H21A 5229   6.068   4.723   3.930 -1.3172  3.1980  0.2417
   55CHL1  H21B 5230   5.936   4.707   4.059  0.0923  0.3558 -0.5982
   55CHL1  H21C 5231   5.893   4.725   3.889 -0.1549 -1.0288 -1.1984
   55CHL1   C22 5232   6.034   4.473   4.069 -0.1339 -0.0823 -0.7946
   55CHL1  H22A 5233   5.964   4.495   4.152 -1.1531 -1.3891 -1.2767
   55CHL1  H22B 5234   6.033   4.362   4.068 -1.8769 -0.2597  3.2599
   55CHL1   C23 5235   6.182   4.517   4.103  0.0452 -0.0242  0.5179
   55CHL1  H23A 5236   6.237   4.556   4.015 -0.9819 -1.3333 -0.7556
   55CHL1  H23B 5237   6.176   4.605   4.170 -0.2358 -1.1308  2.0113
   55CHL1   C24 5238   6.274   4.405   4.154  0.1843  0.6382  0.5885
   55CHL1  H24A 5239   6.248   4.360   4.252 -1.9080  1.0758  0.2746
   55CHL1  H24B 5240   6.272   4.322   4.080 -0.4334 -0.9519  2.3010
   55CHL1   C25 5241   6.420   4.450   4.174  0.6948  0.4428  0.0208
   55CHL1   H25 5242   6.442   4.515   4.087  0.7813  0.3272 -0.0445
   55CHL1   C26 5243   6.441   4.516   4.310 -0.1266 -0.6966 -0.6291
   55CHL1  H26A 5244   6.392   4.453   4.388 -1.4847  1.2330  0.1505
   55CHL1  H26B 5245   6.549   4.532   4.332 -0.4613 -0.8897  1.4188
   55CHL1  H26C 5246   6.389   4.614   4.314  2.3722  0.6805  0.5303
   55CHL1   C27 5247   6.526   4.329   4.171 -0.2035 -0.2938 -0.3680
   55CHL1  H27A 5248   6.490   4.251   4.241  0.1013 -0.8406 -0.8149
   55CHL1  H27B 5249   6.532   4.293   4.067 -0.1659 -1.5161  0.0473
   55CHL1  H27C 5250   6.624   4.369   4.205  0.0616  0.0529 -1.4946
   56CHL1    C3 5251   1.389   1.537   2.759 -0.1446 -0.4566 -0.4273
   56CHL1    H3 5252   1.328   1.444   2.761  0.0642 -0.6569  3.3580
   56CHL1    O3 5253   1.480   1.528   2.652  0.7029 -0.3191 -0.2717
   56CHL1   H3' 5254   1.528   1.611   2.656  0.7155 -0.3446  0.0735
   56CHL1    C4 5255   1.300   1.663   2.738 -0.0552  0.3349 -0.6805
   56CHL1   H4A 5256   1.368   1.750   2.735 -2.4331  2.4137  0.9977
   56CHL1   H4B 5257   1.245   1.641   2.643  0.8489  2.0108 -1.6375
   56CHL1    C5 5258   1.198   1.695   2.856 -0.1587 -0.2610  0.7153
   56CHL1    C6 5259   1.066   1.706   2.840  0.4127 -0.3743 -0.6614
   56CHL1    H6 5260   1.018   1.689   2.742 -1.9963 -2.2592  0.7370
   56CHL1    C7 5261   0.964   1.748   2.940  0.2301 -0.0358 -0.2850
   56CHL1   H7A 5262   0.912   1.839   2.902  3.0967  1.3294 -1.1924
   56CHL1   H7B 5263   0.888   1.671   2.965  0.8383  0.4089  3.6158
   56CHL1    C8 5264   1.027   1.788   3.074  0.0944 -0.5445 -0.1326
   56CHL1    H8 5265   1.065   1.892   3.067  1.3165 -1.0052 -0.4629
   56CHL1   C14 5266   0.924   1.778   3.186 -0.1404 -0.8609 -0.2836
   56CHL1   H14 5267   0.891   1.672   3.189 -1.2664 -0.5147  0.2943
   56CHL1   C15 5268   0.793   1.859   3.183  0.1843 -0.3633 -0.7847
   56CHL1  H15A 5269   0.806   1.955   3.128  3.2309 -0.2221 -0.0344
   56CHL1  H15B 5270   0.720   1.803   3.122 -1.4816 -1.8711  2.3337
   56CHL1   C16 5271   0.736   1.874   3.329  0.4314 -0.2771 -0.3997
   56CHL1  H16A 5272   0.711   1.980   3.351 -2.6716 -1.1680  0.8851
   56CHL1  H16B 5273   0.637   1.824   3.338  1.3228 -2.2773 -1.1394
   56CHL1   C17 5274   0.848   1.806   3.414  0.0773 -0.2361 -0.0931
   56CHL1   H17 5275   0.822   1.698   3.405 -1.9714 -0.1020  2.6577
   56CHL1   C13 5276   0.977   1.812   3.332 -0.7596  0.2059  0.1826
   56CHL1   C18 5277   1.026   1.959   3.321  0.4531 -0.4590 -0.1883
   56CHL1  H18A 5278   0.948   2.030   3.285 -1.6779 -1.7030  1.6721
   56CHL1  H18B 5279   1.063   1.994   3.420 -1.9552  1.6435  0.0955
   56CHL1  H18C 5280   1.113   1.978   3.255 -0.3100 -0.5607 -1.2503
   56CHL1   C12 5281   1.091   1.713   3.360 -0.5295 -0.6701  0.6095
   56CHL1  H12A 5282   1.142   1.734   3.456  0.3629  0.8176 -0.1608
   56CHL1  H12B 5283   1.045   1.612   3.369  0.3758 -0.9847  2.0376
   56CHL1   C11 5284   1.203   1.728   3.248  0.3531  0.4433  0.0767
   56CHL1  H11A 5285   1.260   1.824   3.256  2.0156 -0.5952  1.4252
   56CHL1  H11B 5286   1.281   1.655   3.278 -0.4841 -0.6643 -0.3759
   56CHL1    C9 5287   1.149   1.703   3.103 -0.0222  0.4026  0.1306
   56CHL1    H9 5288   1.101   1.603   3.101  0.5322  0.0961  1.4788
   56CHL1   C10 5289   1.258   1.703   2.989 -0.7810 -0.2289  0.2767
   56CHL1   C19 5290   1.348   1.831   2.994  0.2451  0.0519  0.0566
   56CHL1  H19A 5291   1.295   1.921   2.957  1.8100  2.3824  3.0438
   56CHL1  H19B 5292   1.374   1.861   3.098 -2.2855  0.8978  0.5327
   56CHL1  H19C 5293   1.449   1.819   2.951  0.1059  1.2149 -0.6109
   56CHL1    C1 5294   1.357   1.588   3.011 -0.4938  0.4687  0.1335
   56CHL1   H1A 5295   1.411   1.612   3.105  1.9962  2.2178 -1.6258
   56CHL1   H1B 5296   1.301   1.492   3.018  2.2428 -1.2956 -0.5540
   56CHL1    C2 5297   1.458   1.557   2.898 -0.1803  0.3051 -0.1051
   56CHL1   H2A 5298   1.520   1.466   2.913 -1.0253 -1.0869 -3.8568
   56CHL1   H2B 5299   1.529   1.642   2.898  2.2871 -1.6355 -0.7898
   56CHL1   C20 5300   0.846   1.834   3.565 -0.6817 -0.6259 -0.0143
   56CHL1   H20 5301   0.880   1.937   3.591  1.9124 -1.1889 -0.8059
   56CHL1   C21 5302   0.939   1.743   3.653  0.8346 -0.1723  0.9523
   56CHL1  H21A 5303   0.934   1.641   3.610 -0.2884  0.8711 -1.5419
   56CHL1  H21B 5304   0.925   1.751   3.763 -1.6768  0.7044  0.6394
   56CHL1  H21C 5305   1.044   1.762   3.624  0.3165 -0.5617 -1.3447
   56CHL1   C22 5306   0.703   1.837   3.617  0.2696  0.1001 -0.8419
   56CHL1  H22A 5307   0.711   1.874   3.722 -1.1005 -0.3165 -0.5644
   56CHL1  H22B 5308   0.638   1.915   3.571 -1.1806 -0.6205 -0.0910
   56CHL1   C23 5309   0.626   1.703   3.611 -0.4858  0.8334  0.9497
   56CHL1  H23A 5310   0.621   1.658   3.509  0.0634  1.6125  0.5652
   56CHL1  H23B 5311   0.690   1.637   3.673 -1.4668  0.9726  2.1354
   56CHL1   C24 5312   0.494   1.713   3.680 -0.0890  0.5640  0.0176
   56CHL1  H24A 5313   0.499   1.749   3.785 -1.4005  2.2208 -0.4359
   56CHL1  H24B 5314   0.436   1.793   3.627 -1.7686 -0.6721 -0.0762
   56CHL1   C25 5315   0.399   1.594   3.671  0.0767 -0.4616  0.1690
   56CHL1   H25 5316   0.394   1.572   3.562  3.9141  1.3107 -0.5587
   56CHL1   C26 5317   0.457   1.476   3.748  0.4781  0.1666 -0.0015
   56CHL1  H26A 5318   0.381   1.399   3.770 -2.5019  2.5781 -1.0308
   56CHL1  H26B 5319   0.522   1.424   3.674 -0.4587 -0.0837 -0.6810
   56CHL1  H26C 5320   0.508   1.510   3.841  0.5185 -0.3362  0.1596
   56CHL1   C27 5321   0.266   1.641   3.730  0.3569  0.0076  0.2279
   56CHL1  H27A 5322   0.257   1.634   3.840 -7.3060  1.1099  0.2077
   56CHL1  H27B 5323   0.236   1.740   3.690 -1.9695 -0.9457 -0.5451
   56CHL1  H27C 5324   0.185   1.576   3.691  1.2639 -1.6116  0.8986
   57CHL1    C3 5325   5.071   3.770   2.270 -0.6269  0.1363 -0.2810
   57CHL1    H3 5326   5.157   3.700   2.264 -0.2530  0.4562  0.9918
   57CHL1    O3 5327   5.051   3.827   2.145  0.4572  0.2771 -0.0098
   57CHL1   H3' 5328   5.011   3.914   2.153  0.8219  0.5747 -1.2190
   57CHL1    C4 5329   4.943   3.695   2.312  0.3233  0.2132 -0.2540
   57CHL1   H4A 5330   4.853   3.760   2.304  1.1375  1.4255  0.1852
   57CHL1   H4B 5331   4.927   3.625   2.227  0.5351  1.2785 -1.2034
   57CHL1    C5 5332   4.962   3.633   2.449 -0.3650 -0.0798 -0.6383
   57CHL1    C6 5333   4.952   3.504   2.473 -0.3536  0.3914  0.8933
   57CHL1    H6 5334   4.916   3.437   2.393  1.2036 -0.2656  0.7020
   57CHL1    C7 5335   4.948   3.438   2.611  0.5622 -0.4562 -0.3714
   57CHL1   H7A 5336   4.864   3.366   2.616 -0.6215  0.8676 -0.7171
   57CHL1   H7B 5337   5.044   3.388   2.636  1.2792  1.3163  0.6616
   57CHL1    C8 5338   4.946   3.551   2.723  0.1348 -0.4391  0.4151
   57CHL1    H8 5339   4.841   3.586   2.738  0.8401  1.2619  1.5956
   57CHL1   C14 5340   4.974   3.488   2.862 -0.0022  0.0742  0.7731
   57CHL1   H14 5341   5.077   3.448   2.854 -0.5531 -1.4799  1.0531
   57CHL1   C15 5342   4.888   3.371   2.916 -0.0072 -0.7086  0.4475
   57CHL1  H15A 5343   4.782   3.391   2.893  0.1036  1.9602  1.8850
   57CHL1  H15B 5344   4.910   3.270   2.875  0.0040 -0.9946  1.1336
   57CHL1   C16 5345   4.921   3.369   3.065  0.0656  0.4832 -0.1908
   57CHL1  H16A 5346   4.839   3.390   3.137  1.7783  1.3159  1.5978
   57CHL1  H16B 5347   4.962   3.271   3.099  0.7035  1.0141  0.5970
   57CHL1   C17 5348   5.016   3.488   3.101 -0.5471  0.1401 -0.1879
   57CHL1   H17 5349   5.121   3.454   3.087 -0.9416 -0.6205 -1.3691
   57CHL1   C13 5350   4.988   3.587   2.983 -0.1747  0.8304  0.1423
   57CHL1   C18 5351   4.854   3.657   3.012  0.6907 -0.2683  0.3166
   57CHL1  H18A 5352   4.767   3.590   3.031  0.3853  0.3309  1.0705
   57CHL1  H18B 5353   4.861   3.737   3.089  0.8860  1.0288 -1.0015
   57CHL1  H18C 5354   4.811   3.714   2.926 -4.0751 -0.4675  2.2296
   57CHL1   C12 5355   5.092   3.686   2.942 -0.1655 -0.2297  0.2495
   57CHL1  H12A 5356   5.115   3.764   3.018 -2.1012  0.3504  0.2941
   57CHL1  H12B 5357   5.190   3.636   2.931  0.6173  1.3502 -0.2851
   57CHL1   C11 5358   5.061   3.761   2.807 -0.2448 -0.9355 -0.1214
   57CHL1  H11A 5359   4.975   3.829   2.827  0.6692 -0.2457  1.8186
   57CHL1  H11B 5360   5.137   3.837   2.779 -2.6817  0.3264 -4.1695
   57CHL1    C9 5361   5.038   3.667   2.690  0.5950  0.8960 -0.8169
   57CHL1    H9 5362   5.136   3.619   2.668  0.9386  2.0212 -1.8104
   57CHL1   C10 5363   4.999   3.733   2.562  0.7922 -0.0974 -0.1022
   57CHL1   C19 5364   4.861   3.819   2.582 -0.0226 -0.5223  0.0298
   57CHL1  H19A 5365   4.816   3.840   2.482 -2.7375  0.7262  1.4137
   57CHL1  H19B 5366   4.785   3.753   2.628 -0.8250 -0.3927 -1.0543
   57CHL1  H19C 5367   4.880   3.919   2.625 -0.7280 -0.7038  0.7739
   57CHL1    C1 5368   5.114   3.829   2.521 -0.2045 -0.1237 -0.3728
   57CHL1   H1A 5369   5.120   3.915   2.590 -1.9607 -2.2859  2.7361
   57CHL1   H1B 5370   5.206   3.770   2.542 -0.3266 -0.1293  0.1345
   57CHL1    C2 5371   5.104   3.880   2.373  0.1207 -0.3472  0.2471
   57CHL1   H2A 5372   5.207   3.921   2.359  0.5749 -0.9393  1.6854
   57CHL1   H2B 5373   5.029   3.961   2.360 -0.0348 -0.6343 -0.7395
   57CHL1   C20 5374   5.009   3.545   3.244 -0.6645 -0.4472  0.4355
   57CHL1   H20 5375   4.905   3.575   3.266 -0.1811  0.1628  2.0498
   57CHL1   C21 5376   5.104   3.666   3.262 -0.8395  0.1645 -0.8951
   57CHL1  H21A 5377   5.206   3.636   3.230 -0.8672  1.0392 -1.8519
   57CHL1  H21B 5378   5.106   3.708   3.365 -3.5270 -1.1857 -0.2145
   57CHL1  H21C 5379   5.073   3.756   3.205  2.3126  2.4317  0.5990
   57CHL1   C22 5380   5.053   3.438   3.348  0.8881  0.1018 -0.8741
   57CHL1  H22A 5381   5.001   3.343   3.321  0.8825  0.3269 -1.6723
   57CHL1  H22B 5382   5.161   3.413   3.339  1.2776  1.2088  0.3969
   57CHL1   C23 5383   5.028   3.471   3.496  0.2503 -0.9775  0.2047
   57CHL1  H23A 5384   5.097   3.555   3.521  0.6959 -0.8013 -1.5148
   57CHL1  H23B 5385   4.926   3.514   3.508  0.3330 -0.2176 -1.5049
   57CHL1   C24 5386   5.041   3.348   3.586 -0.6525  0.0051 -0.4341
   57CHL1  H24A 5387   4.976   3.266   3.549 -1.1885  0.5738 -0.7801
   57CHL1  H24B 5388   5.146   3.311   3.592 -1.0598 -1.0543  0.6161
   57CHL1   C25 5389   5.006   3.396   3.727 -0.5222 -0.0981 -0.4447
   57CHL1   H25 5390   5.074   3.479   3.755 -0.9895 -0.5528  2.3036
   57CHL1   C26 5391   4.859   3.430   3.752 -0.1589  0.1467 -0.5760
   57CHL1  H26A 5392   4.796   3.338   3.748 -1.2967  0.8458  0.5141
   57CHL1  H26B 5393   4.845   3.479   3.851 -1.7327 -0.6048 -0.4027
   57CHL1  H26C 5394   4.809   3.495   3.678 -0.8096 -1.4049 -1.5500
   57CHL1   C27 5395   5.039   3.285   3.825 -0.1723 -0.4174 -0.3121
   57CHL1  H27A 5396   4.961   3.207   3.812 -1.0971  0.4922 -0.2492
   57CHL1  H27B 5397   5.142   3.245   3.812  0.3203  0.3512  1.0096
   57CHL1  H27C 5398   5.034   3.337   3.923 -0.6685  0.0204 -0.5711
   58CHL1    C3 5399   4.091   5.059   2.438 -0.4097 -0.4424 -0.2329
   58CHL1    H3 5400   4.128   4.958   2.412 -1.4924 -0.6199 -1.1609
   58CHL1    O3 5401   4.021   5.100   2.328 -0.0894  0.0070  0.4919
   58CHL1   H3' 5402   4.084   5.094   2.255 -0.3475  2.5646 -0.0244
   58CHL1    C4 5403   3.991   5.066   2.554  0.6603  0.4273  0.3810
   58CHL1   H4A 5404   3.952   5.170   2.557 -3.0801 -0.8142 -0.4144
   58CHL1   H4B 5405   3.903   5.005   2.527  1.5018 -0.8165  0.3871
   58CHL1    C5 5406   4.046   5.022   2.691  0.8939  0.7199 -0.4220
   58CHL1    C6 5407   3.989   4.922   2.756 -0.2811  0.4701 -0.0535
   58CHL1    H6 5408   3.895   4.875   2.725 -1.0809  2.1374 -0.2289
   58CHL1    C7 5409   4.041   4.868   2.887 -0.5073 -0.0296 -0.2157
   58CHL1   H7A 5410   3.954   4.862   2.955 -0.1629  0.2222  0.2527
   58CHL1   H7B 5411   4.076   4.762   2.891  0.9173  0.3750 -1.1437
   58CHL1    C8 5412   4.144   4.961   2.955 -0.0056 -0.4679  0.5865
   58CHL1    H8 5413   4.088   5.047   2.997 -2.1080  0.0946 -2.9346
   58CHL1   C14 5414   4.217   4.881   3.056  0.0375  0.4090 -0.2540
   58CHL1   H14 5415   4.272   4.802   2.999  1.5946  1.2076  0.0853
   58CHL1   C15 5416   4.138   4.793   3.166 -0.1244  0.1547  0.6318
   58CHL1  H15A 5417   4.052   4.849   3.207 -1.2606 -0.5505 -0.7178
   58CHL1  H15B 5418   4.094   4.706   3.113 -0.9320  1.3063 -0.6528
   58CHL1   C16 5419   4.245   4.756   3.268  0.4264 -0.2673 -0.0574
   58CHL1  H16A 5420   4.213   4.793   3.367  0.7225  0.3399 -0.1857
   58CHL1  H16B 5421   4.257   4.648   3.292  1.0142 -0.3540 -0.6931
   58CHL1   C17 5422   4.375   4.824   3.222 -0.0728  0.4111 -0.4018
   58CHL1   H17 5423   4.434   4.758   3.156  0.2828 -0.7924  1.0655
   58CHL1   C13 5424   4.330   4.940   3.133  0.3192 -0.2870 -0.3812
   58CHL1   C18 5425   4.278   5.052   3.232 -0.8903  0.2009  0.1167
   58CHL1  H18A 5426   4.230   5.120   3.158  1.5618 -0.1192 -1.9059
   58CHL1  H18B 5427   4.207   5.016   3.309 -0.9429  0.2649  0.0989
   58CHL1  H18C 5428   4.364   5.102   3.282  0.4097 -2.3890  0.5965
   58CHL1   C12 5429   4.430   5.002   3.038  0.0212  0.0540  0.1184
   58CHL1  H12A 5430   4.500   5.066   3.097 -0.6658 -0.3716  1.4506
   58CHL1  H12B 5431   4.478   4.927   2.971  1.3756  0.4831  0.5721
   58CHL1   C11 5432   4.353   5.091   2.931  0.4236  0.4555 -0.1425
   58CHL1  H11A 5433   4.307   5.177   2.984 -0.7651 -2.2307  3.5925
   58CHL1  H11B 5434   4.433   5.118   2.858 -0.5017  1.1277 -0.9209
   58CHL1    C9 5435   4.239   5.015   2.853  0.1294  0.2388  0.0408
   58CHL1    H9 5436   4.300   4.932   2.812 -1.4114 -1.1647  0.4942
   58CHL1   C10 5437   4.178   5.086   2.738  0.2219 -0.3707  0.3040
   58CHL1   C19 5438   4.142   5.226   2.792 -0.4715  0.0925  0.2146
   58CHL1  H19A 5439   4.064   5.285   2.738 -1.5462 -1.0577  0.4628
   58CHL1  H19B 5440   4.110   5.228   2.899  2.0474  0.7054  1.0224
   58CHL1  H19C 5441   4.238   5.281   2.802 -0.3529 -0.3688  1.8796
   58CHL1    C1 5442   4.274   5.103   2.616 -0.4325  0.4125 -0.2249
   58CHL1   H1A 5443   4.352   5.178   2.640 -2.2640  1.9120  1.3879
   58CHL1   H1B 5444   4.316   5.002   2.599 -0.8775  0.2695 -0.4958
   58CHL1    C2 5445   4.211   5.149   2.479 -0.6066 -0.4609 -0.7299
   58CHL1   H2A 5446   4.279   5.160   2.392 -1.3152 -0.7766 -1.3386
   58CHL1   H2B 5447   4.166   5.250   2.495 -0.4129  0.1642 -3.6372
   58CHL1   C20 5448   4.466   4.848   3.339  0.5424 -0.1108 -0.7819
   58CHL1   H20 5449   4.430   4.932   3.402 -1.4326 -0.1748 -1.7530
   58CHL1   C21 5450   4.605   4.866   3.285 -0.3547 -0.4157  0.1645
   58CHL1  H21A 5451   4.603   4.935   3.199  1.7541 -0.2792  0.1788
   58CHL1  H21B 5452   4.657   4.777   3.243  2.6209  1.3368 -0.1120
   58CHL1  H21C 5453   4.671   4.904   3.366 -0.5076  0.4596 -0.1175
   58CHL1   C22 5454   4.475   4.726   3.446  0.0441 -0.3944 -0.0965
   58CHL1  H22A 5455   4.376   4.692   3.483  0.5598 -0.6133  1.1005
   58CHL1  H22B 5456   4.521   4.640   3.392  1.0613  0.0674  0.0218
   58CHL1   C23 5457   4.566   4.748   3.571  0.4138 -0.6290  0.9817
   58CHL1  H23A 5458   4.568   4.653   3.629  0.2438 -0.3704  1.4179
   58CHL1  H23B 5459   4.666   4.765   3.526 -0.4845 -0.8018 -1.2380
   58CHL1   C24 5460   4.524   4.868   3.652  0.3387 -0.2755 -0.6037
   58CHL1  H24A 5461   4.539   4.957   3.587  1.3005 -2.1810 -3.1431
   58CHL1  H24B 5462   4.417   4.859   3.680 -0.0685  1.5305 -1.3860
   58CHL1   C25 5463   4.599   4.900   3.778 -0.0373 -0.1844 -0.2098
   58CHL1   H25 5464   4.592   4.807   3.837 -1.4108 -0.0837 -0.1671
   58CHL1   C26 5465   4.751   4.938   3.763  0.4353  0.0866 -0.3048
   58CHL1  H26A 5466   4.806   4.848   3.728 -1.3230 -0.8303 -0.8522
   58CHL1  H26B 5467   4.777   5.015   3.688  0.3715  1.2453  0.8301
   58CHL1  H26C 5468   4.788   4.972   3.862 -0.8727  1.6852 -0.3309
   58CHL1   C27 5469   4.523   5.011   3.858  0.0899  0.1942  1.0284
   58CHL1  H27A 5470   4.565   5.022   3.961 -1.5036 -0.0107  1.7392
   58CHL1  H27B 5471   4.536   5.109   3.807  0.6246 -1.3755 -2.0405
   58CHL1  H27C 5472   4.415   4.990   3.849  0.5145 -1.5158 -0.5568
   59CHL1    C3 5473   3.737   1.450   3.083  0.4070  0.0984  0.3607
   59CHL1    H3 5474   3.848   1.444   3.078  0.4200  0.7671 -0.3372
   59CHL1    O3 5475   3.696   1.500   2.958 -0.0794 -0.0028 -0.2639
   59CHL1   H3' 5476   3.722   1.592   2.962 -0.9227  0.2091  1.8682
   59CHL1    C4 5477   3.657   1.324   3.110 -0.0418  0.1296 -0.2060
   59CHL1   H4A 5478   3.549   1.349   3.106  0.0988  0.5361 -1.9955
   59CHL1   H4B 5479   3.689   1.246   3.037  1.2391  1.5686 -1.2296
   59CHL1    C5 5480   3.679   1.274   3.253  0.1673 -0.0336  0.0557
   59CHL1    C6 5481   3.723   1.149   3.287  0.1441 -0.0073  0.2012
   59CHL1    H6 5482   3.754   1.076   3.212  3.8984  1.4013  0.1959
   59CHL1    C7 5483   3.734   1.105   3.432  0.6637  0.9919 -0.3860
   59CHL1   H7A 5484   3.685   1.008   3.452 -1.7911  1.9328 -1.3815
   59CHL1   H7B 5485   3.839   1.087   3.463  0.3436 -0.0971  0.0832
   59CHL1    C8 5486   3.658   1.195   3.526  0.1932 -0.0688  0.1751
   59CHL1    H8 5487   3.548   1.194   3.516  0.1591 -1.0734  0.5366
   59CHL1   C14 5488   3.702   1.158   3.668 -0.2542  0.1758 -0.2644
   59CHL1   H14 5489   3.813   1.165   3.673 -0.1713 -1.2310  0.6559
   59CHL1   C15 5490   3.688   1.014   3.726 -0.1528  0.1893 -0.4504
   59CHL1  H15A 5491   3.583   0.981   3.709 -0.2142  1.1164 -1.9777
   59CHL1  H15B 5492   3.760   0.943   3.680 -1.0984 -0.3464 -1.1388
   59CHL1   C16 5493   3.709   1.030   3.875  0.1187  0.5496  0.4939
   59CHL1  H16A 5494   3.634   0.978   3.938  0.3833  1.3717  1.5046
   59CHL1  H16B 5495   3.808   1.001   3.915  0.9740 -0.8770 -2.3914
   59CHL1   C17 5496   3.712   1.182   3.914  1.0381 -0.8197 -0.5299
   59CHL1   H17 5497   3.818   1.215   3.908  1.0362 -0.8768 -0.9036
   59CHL1   C13 5498   3.652   1.250   3.789  0.2943  0.3519  0.0696
   59CHL1   C18 5499   3.500   1.249   3.791  0.0840  0.1693  0.3947
   59CHL1  H18A 5500   3.463   1.146   3.814  1.8083 -0.3597  0.9147
   59CHL1  H18B 5501   3.449   1.325   3.854 -0.5447 -0.4591  0.6618
   59CHL1  H18C 5502   3.456   1.274   3.692 -1.6012  1.4290  1.4095
   59CHL1   C12 5503   3.702   1.393   3.765 -0.1101  0.0514  0.6115
   59CHL1  H12A 5504   3.658   1.466   3.837 -0.0831 -2.1457  3.0015
   59CHL1  H12B 5505   3.813   1.395   3.767 -0.0568  0.6862 -1.2474
   59CHL1   C11 5506   3.684   1.441   3.617  0.3140  0.1095 -0.4315
   59CHL1  H11A 5507   3.576   1.468   3.609 -0.2016 -2.1833 -2.1825
   59CHL1  H11B 5508   3.749   1.531   3.606 -0.0678  0.2844 -1.4402
   59CHL1    C9 5509   3.708   1.337   3.502 -0.9222  0.1476  0.1608
   59CHL1    H9 5510   3.819   1.326   3.499 -0.9462 -0.0141 -0.2719
   59CHL1   C10 5511   3.654   1.384   3.364 -0.1877 -0.2374 -0.2781
   59CHL1   C19 5512   3.501   1.416   3.379  0.6830  1.2365 -0.5855
   59CHL1  H19A 5513   3.449   1.442   3.285 -0.3826  0.2720 -0.2937
   59CHL1  H19B 5514   3.443   1.330   3.420 -0.3332  1.2437 -1.9548
   59CHL1  H19C 5515   3.478   1.499   3.449 -1.2419 -1.1474  1.8657
   59CHL1    C1 5516   3.730   1.516   3.324  0.4824  0.7255 -0.0562
   59CHL1   H1A 5517   3.713   1.599   3.396 -2.5680 -1.4227  1.9545
   59CHL1   H1B 5518   3.840   1.497   3.321  0.1706 -1.2253 -1.8060
   59CHL1    C2 5519   3.708   1.562   3.180 -0.3620 -0.5199  0.2173
   59CHL1   H2A 5520   3.778   1.644   3.157  0.2237 -1.4549 -1.5388
   59CHL1   H2B 5521   3.605   1.605   3.178  0.3535  1.3777  1.7657
   59CHL1   C20 5522   3.645   1.203   4.052 -0.4392  0.8190 -0.0798
   59CHL1   H20 5523   3.543   1.160   4.046 -1.4065  2.8465  0.7514
   59CHL1   C21 5524   3.641   1.346   4.102 -0.8861 -0.1179  0.2915
   59CHL1  H21A 5525   3.599   1.356   4.205  0.5851 -1.5575  1.0838
   59CHL1  H21B 5526   3.591   1.413   4.029 -1.7537  0.1799  1.1248
   59CHL1  H21C 5527   3.744   1.385   4.107 -1.5829  1.7971  0.3762
   59CHL1   C22 5528   3.717   1.132   4.164 -0.2550  0.5205  0.1522
   59CHL1  H22A 5529   3.669   1.145   4.264 -0.0437 -2.6942  0.7743
   59CHL1  H22B 5530   3.708   1.022   4.151  0.9648  0.1480  2.0090
   59CHL1   C23 5531   3.867   1.165   4.190 -0.6674 -0.2955  0.0925
   59CHL1  H23A 5532   3.915   1.171   4.090 -2.0414 -2.7075 -0.7818
   59CHL1  H23B 5533   3.875   1.270   4.227 -0.0976 -0.2147 -0.2405
   59CHL1   C24 5534   3.931   1.069   4.286  0.4272 -0.0607 -0.2745
   59CHL1  H24A 5535   3.914   1.114   4.386 -1.1383 -1.5778  0.2043
   59CHL1  H24B 5536   3.872   0.974   4.284 -0.5561  0.5122  0.3849
   59CHL1   C25 5537   4.084   1.046   4.279  0.6510 -0.1894 -0.4304
   59CHL1   H25 5538   4.102   1.028   4.171 -1.8047 -1.1068 -0.7495
   59CHL1   C26 5539   4.170   1.157   4.314  0.0908 -0.6688 -0.7718
   59CHL1  H26A 5540   4.141   1.251   4.262  1.4652  0.1247 -0.1449
   59CHL1  H26B 5541   4.158   1.162   4.424 -0.8381 -0.1356 -0.8895
   59CHL1  H26C 5542   4.280   1.148   4.297  0.2062  0.5530 -0.7291
   59CHL1   C27 5543   4.112   0.921   4.356  0.1262  0.1598  0.0572
   59CHL1  H27A 5544   4.040   0.842   4.325 -0.1201  1.3766 -2.7151
   59CHL1  H27B 5545   4.214   0.878   4.350  0.3066  0.5652  0.1461
   59CHL1  H27C 5546   4.090   0.950   4.461 -1.5525  0.1160 -0.2481
   60CHL1    C3 5547   5.059   1.324   2.618 -0.5607  0.1017 -0.3566
   60CHL1    H3 5548   5.051   1.216   2.591  0.0128 -0.2029  0.6554
   60CHL1    O3 5549   5.101   1.402   2.503 -0.2404  0.5895 -0.0371
   60CHL1   H3' 5550   5.119   1.487   2.544 -0.3437  0.7600 -0.3375
   60CHL1    C4 5551   4.922   1.374   2.653  0.1095 -0.2695 -1.0833
   60CHL1   H4A 5552   4.914   1.484   2.641  2.1375 -0.2208 -2.5663
   60CHL1   H4B 5553   4.867   1.330   2.567 -0.8385  0.6000 -0.9374
   60CHL1    C5 5554   4.875   1.326   2.787  0.2973 -1.4651  0.1987
   60CHL1    C6 5555   4.755   1.267   2.801 -0.3439 -0.5696  0.2108
   60CHL1    H6 5556   4.696   1.255   2.709 -0.4422  0.0314  0.1923
   60CHL1    C7 5557   4.702   1.221   2.934  0.6837  1.0721  0.3857
   60CHL1   H7A 5558   4.595   1.246   2.950  0.5332  2.4061 -2.2930
   60CHL1   H7B 5559   4.728   1.113   2.938  0.0940  0.9525  1.1113
   60CHL1    C8 5560   4.780   1.273   3.060 -0.1196  0.2452 -0.4354
   60CHL1    H8 5561   4.745   1.377   3.081  0.3188  0.3115  0.0046
   60CHL1   C14 5562   4.750   1.183   3.180  0.2063  0.2849 -0.6044
   60CHL1   H14 5563   4.784   1.082   3.149  1.1589 -0.0416  1.3796
   60CHL1   C15 5564   4.610   1.162   3.218  0.2122 -0.6286  0.0883
   60CHL1  H15A 5565   4.546   1.249   3.189  0.9338  0.0262  0.4421
   60CHL1  H15B 5566   4.585   1.061   3.179  1.5381 -1.9991  2.5432
   60CHL1   C16 5567   4.602   1.152   3.371  0.0884  0.0015 -0.8825
   60CHL1  H16A 5568   4.544   1.241   3.403 -1.8065 -1.5682  0.2647
   60CHL1  H16B 5569   4.552   1.056   3.396 -0.6421  0.4057 -0.7679
   60CHL1   C17 5570   4.753   1.144   3.413 -0.0683 -0.8695 -0.0701
   60CHL1   H17 5571   4.788   1.041   3.388  3.2449 -0.4027  1.9073
   60CHL1   C13 5572   4.823   1.232   3.307  0.0611 -0.0216 -0.4420
   60CHL1   C18 5573   4.789   1.384   3.337 -0.7848 -0.3801  1.0024
   60CHL1  H18A 5574   4.833   1.446   3.256 -0.4754 -0.1125  1.3675
   60CHL1  H18B 5575   4.678   1.389   3.334 -0.8079 -0.8990  0.8239
   60CHL1  H18C 5576   4.848   1.428   3.421  2.2919  0.1478 -1.2845
   60CHL1   C12 5577   4.976   1.213   3.287 -0.1811  0.4785 -0.2361
   60CHL1  H12A 5578   5.032   1.246   3.377  2.0839 -1.4914 -0.8285
   60CHL1  H12B 5579   4.996   1.105   3.270 -0.9902  0.4024 -0.7676
   60CHL1   C11 5580   5.021   1.287   3.164  0.5329  0.0251 -0.0880
   60CHL1  H11A 5581   5.006   1.395   3.184 -0.1493  0.0901 -0.9221
   60CHL1  H11B 5582   5.129   1.273   3.142  0.3356  2.4429 -3.2552
   60CHL1    C9 5583   4.933   1.262   3.030  0.1816  0.0591 -0.7314
   60CHL1    H9 5584   4.947   1.152   3.016 -1.3400 -0.4648  1.3001
   60CHL1   C10 5585   4.972   1.334   2.899 -0.0399  0.7267 -0.5386
   60CHL1   C19 5586   4.987   1.483   2.948 -0.6622  0.6113 -0.1305
   60CHL1  H19A 5587   4.971   1.543   2.855 -0.6672 -0.8964 -1.1359
   60CHL1  H19B 5588   4.905   1.510   3.018  0.7566 -1.9546  2.7596
   60CHL1  H19C 5589   5.083   1.499   3.000 -2.4038  5.4356  2.2029
   60CHL1    C1 5590   5.108   1.274   2.860 -0.2627 -0.2706  0.1536
   60CHL1   H1A 5591   5.184   1.294   2.938 -0.2708  2.7746 -0.4648
   60CHL1   H1B 5592   5.098   1.164   2.855  0.3275 -0.3790  1.1877
   60CHL1    C2 5593   5.158   1.345   2.735  0.5419  0.4753 -0.4197
   60CHL1   H2A 5594   5.255   1.296   2.712 -0.5893 -2.1694 -0.0373
   60CHL1   H2B 5595   5.178   1.453   2.745  0.1596  0.5718 -0.6929
   60CHL1   C20 5596   4.774   1.166   3.564 -0.1577  0.1100 -0.0884
   60CHL1   H20 5597   4.783   1.276   3.572 -0.0502  0.1415 -0.5779
   60CHL1   C21 5598   4.903   1.097   3.608  0.1375 -0.0593 -0.5974
   60CHL1  H21A 5599   4.921   1.121   3.715 -0.2323 -1.9307 -0.0967
   60CHL1  H21B 5600   4.990   1.151   3.562  1.9342 -1.4938  0.9566
   60CHL1  H21C 5601   4.902   0.987   3.598 -0.7789 -0.0258 -0.9471
   60CHL1   C22 5602   4.656   1.108   3.644  0.0737  0.1620 -0.1731
   60CHL1  H22A 5603   4.566   1.167   3.613 -0.0404  0.2227  0.2726
   60CHL1  H22B 5604   4.639   0.999   3.630 -2.0741  0.6956 -2.8625
   60CHL1   C23 5605   4.675   1.121   3.794 -0.4750 -0.1099  0.5723
   60CHL1  H23A 5606   4.718   1.032   3.845 -2.2505 -0.5408  1.3940
   60CHL1  H23B 5607   4.742   1.205   3.823 -0.9771  0.0885  1.1941
   60CHL1   C24 5608   4.546   1.154   3.864 -0.5611 -0.1377 -0.6095
   60CHL1  H24A 5609   4.508   1.251   3.826 -0.2791  0.1979 -0.0464
   60CHL1  H24B 5610   4.470   1.079   3.831 -4.2868  2.3993  1.4803
   60CHL1   C25 5611   4.552   1.160   4.016  0.1628  0.2108  0.0844
   60CHL1   H25 5612   4.642   1.221   4.038 -0.3379  0.7461  0.7135
   60CHL1   C26 5613   4.431   1.223   4.080 -0.5593 -0.0046  0.5566
   60CHL1  H26A 5614   4.428   1.332   4.058 -1.5072 -0.2404 -0.6158
   60CHL1  H26B 5615   4.338   1.174   4.043 -0.3459  0.8267 -1.1892
   60CHL1  H26C 5616   4.450   1.209   4.188 -1.9498  1.0994  0.9778
   60CHL1   C27 5617   4.577   1.022   4.080  0.1815  0.1132 -0.0169
   60CHL1  H27A 5618   4.569   1.026   4.191 -0.3303  0.7669 -0.0748
   60CHL1  H27B 5619   4.500   0.946   4.056 -0.0489  0.2073  0.4206
   60CHL1  H27C 5620   4.677   0.979   4.057 -0.2693  0.4269 -2.8436
   61CHL1    C3 5621   5.825   2.610   2.770  0.0282 -0.1408 -0.3127
   61CHL1    H3 5622   5.852   2.709   2.812  0.6235 -0.8748  1.1055
   61CHL1    O3 5623   5.842   2.632   2.631  0.1581  0.7023  0.2195
   61CHL1   H3' 5624   5.768   2.685   2.601  1.0620  2.6960  1.2914
   61CHL1    C4 5625   5.934   2.521   2.831  0.1623 -0.3583  0.4179
   61CHL1   H4A 5626   5.955   2.431   2.769  0.5667 -0.0615  0.1239
   61CHL1   H4B 5627   6.028   2.577   2.819  0.6716 -1.0426  1.0823
   61CHL1    C5 5628   5.913   2.506   2.979 -0.0390 -0.9121 -0.3987
   61CHL1    C6 5629   6.017   2.528   3.067  0.1582  0.2964  0.2792
   61CHL1    H6 5630   6.119   2.556   3.036 -0.1825  0.3728 -0.8136
   61CHL1    C7 5631   6.005   2.503   3.217 -0.2339 -0.2051  0.3933
   61CHL1   H7A 5632   6.099   2.448   3.236  0.4340  0.9610  0.5976
   61CHL1   H7B 5633   6.014   2.600   3.272  0.6066 -0.0220 -0.0531
   61CHL1    C8 5634   5.879   2.430   3.260 -0.0539 -0.1522 -1.1502
   61CHL1    H8 5635   5.900   2.324   3.236  0.0293 -0.1094 -1.2658
   61CHL1   C14 5636   5.854   2.454   3.405  0.9584 -0.4479 -0.6362
   61CHL1   H14 5637   5.831   2.561   3.424 -2.0426 -0.7836 -1.9080
   61CHL1   C15 5638   5.967   2.414   3.506 -0.2178 -0.7966 -0.4200
   61CHL1  H15A 5639   5.997   2.314   3.469 -1.3201 -0.1625 -3.2969
   61CHL1  H15B 5640   6.046   2.492   3.510  0.5803 -1.3600 -3.1970
   61CHL1   C16 5641   5.889   2.398   3.641 -0.0358  0.5858 -0.5289
   61CHL1  H16A 5642   5.916   2.293   3.667  0.4647  0.9915  0.6695
   61CHL1  H16B 5643   5.935   2.466   3.716  0.5937 -0.2888 -0.1099
   61CHL1   C17 5644   5.736   2.413   3.611 -0.2094  0.4071  0.8284
   61CHL1   H17 5645   5.713   2.518   3.637  0.4413 -0.2567  4.6622
   61CHL1   C13 5646   5.723   2.390   3.457  0.2430 -0.8978 -0.4976
   61CHL1   C18 5647   5.729   2.237   3.439 -0.3371  0.6810 -0.4332
   61CHL1  H18A 5648   5.816   2.181   3.478 -0.4634  0.5574 -0.3279
   61CHL1  H18B 5649   5.639   2.192   3.487 -0.5356 -1.2497 -2.4512
   61CHL1  H18C 5650   5.718   2.205   3.334  0.2950 -1.4572  0.1144
   61CHL1   C12 5651   5.600   2.445   3.384 -0.4549  0.4191 -0.3098
   61CHL1  H12A 5652   5.509   2.387   3.410 -1.0049  0.0756 -2.7376
   61CHL1  H12B 5653   5.581   2.552   3.406 -1.6740 -0.3347  2.6984
   61CHL1   C11 5654   5.618   2.433   3.231  0.1300 -0.5194 -0.2672
   61CHL1  H11A 5655   5.614   2.325   3.203 -0.6834 -0.6704  0.3702
   61CHL1  H11B 5656   5.528   2.476   3.182 -0.8812 -0.2554  1.6948
   61CHL1    C9 5657   5.757   2.479   3.180 -0.0266  0.1863  0.0438
   61CHL1    H9 5658   5.737   2.587   3.200  1.2156  0.7092 -1.3933
   61CHL1   C10 5659   5.776   2.468   3.024 -0.6114  0.0731 -0.3047
   61CHL1   C19 5660   5.766   2.322   2.988  0.5182 -0.0439 -0.3810
   61CHL1  H19A 5661   5.771   2.300   2.879 -1.7158 -1.7137 -0.2047
   61CHL1  H19B 5662   5.836   2.251   3.037  0.2598  0.4752  0.7964
   61CHL1  H19C 5663   5.661   2.289   3.004  1.0058 -1.6050 -0.2035
   61CHL1    C1 5664   5.670   2.559   2.956  0.4224  0.6269  0.0410
   61CHL1   H1A 5665   5.565   2.535   2.981  0.2232  1.1042 -0.3078
   61CHL1   H1B 5666   5.677   2.664   2.994  0.0599  1.1802 -1.3513
   61CHL1    C2 5667   5.683   2.573   2.805 -0.0004  0.0983 -0.0352
   61CHL1   H2A 5668   5.604   2.643   2.773  0.9604  1.0658 -0.3638
   61CHL1   H2B 5669   5.677   2.475   2.753  2.7536 -1.7734  2.7889
   61CHL1   C20 5670   5.647   2.336   3.711 -0.5813  1.3022  0.2328
   61CHL1   H20 5671   5.686   2.232   3.702 -0.7697  1.2896 -0.4900
   61CHL1   C21 5672   5.494   2.349   3.677 -0.2002  0.3186 -0.8245
   61CHL1  H21A 5673   5.469   2.278   3.595  2.2189 -3.2518  1.2401
   61CHL1  H21B 5674   5.476   2.451   3.638 -2.4815  0.5852  0.7705
   61CHL1  H21C 5675   5.424   2.319   3.758 -1.9418  0.4785 -2.2095
   61CHL1   C22 5676   5.691   2.371   3.857 -0.1090  0.8006  0.1213
   61CHL1  H22A 5677   5.794   2.333   3.875 -1.4384 -2.2720  2.0551
   61CHL1  H22B 5678   5.684   2.481   3.867 -2.2599  1.0604 -2.7252
   61CHL1   C23 5679   5.604   2.304   3.968 -0.2330 -0.1828 -0.4077
   61CHL1  H23A 5680   5.519   2.375   3.974  2.4124  3.5865 -2.5029
   61CHL1  H23B 5681   5.571   2.200   3.948  1.6879 -0.9710  0.2291
   61CHL1   C24 5682   5.675   2.314   4.109  0.9597 -0.2233 -0.1564
   61CHL1  H24A 5683   5.759   2.241   4.119  1.3221  0.1162 -0.6734
   61CHL1  H24B 5684   5.728   2.412   4.117  1.5524 -0.5311 -0.2639
   61CHL1   C25 5685   5.573   2.304   4.224 -0.3363  0.3058  0.0134
   61CHL1   H25 5686   5.496   2.384   4.217 -0.6001  0.1309  0.7481
   61CHL1   C26 5687   5.500   2.170   4.214 -0.3775 -0.2062 -0.1775
   61CHL1  H26A 5688   5.566   2.081   4.223  0.3539  0.3981  0.5275
   61CHL1  H26B 5689   5.423   2.176   4.295 -0.1838  0.0998 -0.0181
   61CHL1  H26C 5690   5.434   2.164   4.124 -1.7273  1.4699  0.6389
   61CHL1   C27 5691   5.635   2.314   4.354 -0.1053  0.0440 -0.5200
   61CHL1  H27A 5692   5.557   2.333   4.431 -1.1943 -3.4692 -0.5992
   61CHL1  H27B 5693   5.684   2.219   4.386  0.3902  1.3387  3.0439
   61CHL1  H27C 5694   5.714   2.392   4.366 -0.6348  0.3649  1.2496
   62CHL1    C3 5695   2.192   2.038   2.975 -0.0040  0.0260  0.1981
   62CHL1    H3 5696   2.095   2.079   3.012 -1.3090 -1.3774 -1.4689
   62CHL1    O3 5697   2.202   2.079   2.843  0.1264 -0.1192 -0.1393
   62CHL1   H3' 5698   2.296   2.085   2.828  0.7746 -0.9063  2.9609
   62CHL1    C4 5699   2.314   2.086   3.060  0.3418 -0.3382 -0.0727
   62CHL1   H4A 5700   2.407   2.057   3.005 -0.0296 -0.1403 -0.8165
   62CHL1   H4B 5701   2.303   2.196   3.052 -4.9181 -0.7698 -2.8356
   62CHL1    C5 5702   2.314   2.036   3.206  0.1264 -0.5153  0.1309
   62CHL1    C6 5703   2.300   2.133   3.305 -0.7013  0.3010  0.2119
   62CHL1    H6 5704   2.302   2.241   3.281 -0.7052  0.1709 -0.3918
   62CHL1    C7 5705   2.301   2.103   3.450 -0.6090  0.4319  0.1016
   62CHL1   H7A 5706   2.388   2.153   3.497 -0.5680  0.4065  0.0533
   62CHL1   H7B 5707   2.200   2.119   3.492  0.2134  0.8019  2.0343
   62CHL1    C8 5708   2.335   1.946   3.468 -0.2667 -0.3215 -0.5013
   62CHL1    H8 5709   2.442   1.919   3.461 -0.2282  0.1389 -1.9085
   62CHL1   C14 5710   2.284   1.913   3.606  0.2961  0.5065  0.4514
   62CHL1   H14 5711   2.173   1.915   3.611  0.3019 -0.1141  1.2377
   62CHL1   C15 5712   2.324   2.005   3.726  0.1865 -1.4148  0.9439
   62CHL1  H15A 5713   2.431   2.038   3.727 -0.6631  1.6342  1.2402
   62CHL1  H15B 5714   2.255   2.088   3.749 -1.6079 -1.7331 -2.6165
   62CHL1   C16 5715   2.318   1.913   3.850  0.0658 -0.2041 -0.6440
   62CHL1  H16A 5716   2.417   1.893   3.895 -0.2304 -0.9214 -0.2859
   62CHL1  H16B 5717   2.265   1.965   3.933 -0.6583  2.3166 -2.5638
   62CHL1   C17 5718   2.270   1.773   3.802  0.8218 -0.3998 -0.2690
   62CHL1   H17 5719   2.160   1.784   3.805  0.7675 -0.8335 -0.5252
   62CHL1   C13 5720   2.315   1.765   3.653  0.2422 -0.2785  0.5209
   62CHL1   C18 5721   2.467   1.738   3.649  0.1092 -0.0226 -0.1565
   62CHL1  H18A 5722   2.525   1.773   3.561  0.2854  0.8441  0.2987
   62CHL1  H18B 5723   2.498   1.785   3.745  0.0279 -2.1097  0.9566
   62CHL1  H18C 5724   2.502   1.635   3.675 -0.9839 -0.4885 -0.4627
   62CHL1   C12 5725   2.246   1.669   3.556  0.2694 -0.1167 -0.0249
   62CHL1  H12A 5726   2.276   1.567   3.589 -1.4998 -0.5975  0.1941
   62CHL1  H12B 5727   2.136   1.682   3.562  0.0238 -1.6079 -0.8888
   62CHL1   C11 5728   2.294   1.699   3.410  0.0276  0.7181  0.9433
   62CHL1  H11A 5729   2.403   1.682   3.414 -0.1143 -1.6186 -1.8884
   62CHL1  H11B 5730   2.238   1.631   3.342 -0.3668  1.0428  0.9387
   62CHL1    C9 5731   2.266   1.848   3.368 -0.5130  0.2377  0.2081
   62CHL1    H9 5732   2.158   1.874   3.375 -0.4244  0.4764  0.7085
   62CHL1   C10 5733   2.304   1.887   3.221 -0.5155 -0.6694 -0.4482
   62CHL1   C19 5734   2.442   1.831   3.191  0.3987  0.8851 -0.1978
   62CHL1  H19A 5735   2.467   1.848   3.085  1.1016 -1.1583 -0.4073
   62CHL1  H19B 5736   2.521   1.879   3.252  1.9117 -2.8145  1.0872
   62CHL1  H19C 5737   2.453   1.720   3.194  0.7087  0.6904 -4.0940
   62CHL1    C1 5738   2.196   1.829   3.129  0.2659 -0.4732  0.2200
   62CHL1   H1A 5739   2.199   1.718   3.118 -3.1885 -0.4456 -3.8053
   62CHL1   H1B 5740   2.097   1.861   3.167 -0.6250 -1.4932 -1.1396
   62CHL1    C2 5741   2.187   1.880   2.984 -0.5335 -0.1298  0.3331
   62CHL1   H2A 5742   2.101   1.844   2.923  0.4549 -0.2580 -1.0374
   62CHL1   H2B 5743   2.273   1.858   2.917 -1.2481  3.7180 -2.1917
   62CHL1   C20 5744   2.305   1.665   3.895 -0.8186 -0.1642  0.3765
   62CHL1   H20 5745   2.415   1.664   3.907 -0.2411 -1.2159 -3.4254
   62CHL1   C21 5746   2.276   1.518   3.860 -0.4469  0.2599 -0.1777
   62CHL1  H21A 5747   2.167   1.499   3.864 -0.4177  0.2818  0.8969
   62CHL1  H21B 5748   2.327   1.451   3.933  0.3100  2.7051  1.6976
   62CHL1  H21C 5749   2.314   1.494   3.758 -0.5479 -0.1299 -0.1234
   62CHL1   C22 5750   2.252   1.693   4.038 -0.5630 -0.0651  0.3617
   62CHL1  H22A 5751   2.301   1.613   4.098  0.0726 -0.4798 -0.6887
   62CHL1  H22B 5752   2.281   1.792   4.079 -0.0797 -0.7065  1.6248
   62CHL1   C23 5753   2.098   1.684   4.050  0.4785 -0.2172  0.7709
   62CHL1  H23A 5754   2.051   1.766   3.991 -0.6732 -0.0162  1.9466
   62CHL1  H23B 5755   2.070   1.586   4.007  2.0150 -0.6424  0.6647
   62CHL1   C24 5756   2.054   1.677   4.195 -0.3646  0.0001 -0.3491
   62CHL1  H24A 5757   2.103   1.588   4.240 -0.6394 -0.4946 -1.0266
   62CHL1  H24B 5758   2.084   1.765   4.257  0.1208  1.2936 -2.3488
   62CHL1   C25 5759   1.903   1.656   4.204  0.2352 -0.7186 -0.3829
   62CHL1   H25 5760   1.894   1.556   4.158  0.0887  0.2471 -2.5932
   62CHL1   C26 5761   1.869   1.634   4.354  0.0797 -0.0598 -0.5688
   62CHL1  H26A 5762   1.761   1.608   4.364 -0.3179  1.9935  1.0186
   62CHL1  H26B 5763   1.921   1.548   4.401  1.0605  1.6253  1.5714
   62CHL1  H26C 5764   1.901   1.716   4.422 -0.5857  0.0926 -0.4326
   62CHL1   C27 5765   1.821   1.771   4.141  0.4200  0.4869  0.3090
   62CHL1  H27A 5766   1.717   1.734   4.141  0.8719 -0.8525 -0.8564
   62CHL1  H27B 5767   1.826   1.874   4.184 -0.1874  0.9849 -0.7752
   62CHL1  H27C 5768   1.850   1.781   4.034  0.7088  1.6928  0.4872
   63CHL1    C3 5769   3.709   0.280   2.815  0.3030 -0.9739 -0.3607
   63CHL1    H3 5770   3.818   0.303   2.805 -0.0577  0.5200 -1.0976
   63CHL1    O3 5771   3.642   0.330   2.701 -0.7864  0.4401 -0.0075
   63CHL1   H3' 5772   3.676   0.417   2.678  0.8461  0.0965  0.9170
   63CHL1    C4 5773   3.676   0.135   2.842 -1.0075 -0.1967 -0.2901
   63CHL1   H4A 5774   3.565   0.131   2.835 -1.2750  2.6428  0.9730
   63CHL1   H4B 5775   3.727   0.073   2.765  0.5127 -0.9882  1.2832
   63CHL1    C5 5776   3.722   0.083   2.975 -0.8063  0.7908  0.6478
   63CHL1    C6 5777   3.796  -0.026   2.987 -1.0917 -0.2558 -0.5281
   63CHL1    H6 5778   3.828  -0.072   2.892  1.3167 -0.1479  0.1641
   63CHL1    C7 5779   3.834  -0.089   3.119 -0.2271  0.1383 -0.1890
   63CHL1   H7A 5780   3.811  -0.197   3.111  3.7445 -0.7494 -2.4272
   63CHL1   H7B 5781   3.944  -0.074   3.130  0.0286 -0.5602 -1.5102
   63CHL1    C8 5782   3.761  -0.026   3.242  0.1516  0.0130 -0.3039
   63CHL1    H8 5783   3.662  -0.078   3.240  1.5705 -2.8441 -1.5989
   63CHL1   C14 5784   3.829  -0.060   3.374 -0.4426  0.2256 -0.4661
   63CHL1   H14 5785   3.933  -0.026   3.355 -0.5520  0.6273 -0.3534
   63CHL1   C15 5786   3.852  -0.207   3.412  0.4824  0.6868  0.9744
   63CHL1  H15A 5787   3.757  -0.259   3.389  0.6943  1.1246 -1.0055
   63CHL1  H15B 5788   3.936  -0.254   3.357  0.0516 -0.0143  0.9137
   63CHL1   C16 5789   3.888  -0.202   3.559 -0.3252  0.4875 -0.7556
   63CHL1  H16A 5790   3.830  -0.283   3.609  1.6294 -0.3653  0.2536
   63CHL1  H16B 5791   3.989  -0.241   3.585 -0.5429  0.7900  0.6137
   63CHL1   C17 5792   3.866  -0.057   3.611 -0.4058 -0.1048 -0.0114
   63CHL1   H17 5793   3.966  -0.008   3.601 -1.2986  1.6813 -0.6010
   63CHL1   C13 5794   3.783   0.015   3.501 -0.0307 -0.4361 -0.0476
   63CHL1   C18 5795   3.631  -0.026   3.520 -0.5086 -1.1348  0.6599
   63CHL1  H18A 5796   3.620  -0.130   3.559  1.0021  0.4409  6.2306
   63CHL1  H18B 5797   3.577   0.041   3.591 -1.9786  0.5559 -1.9116
   63CHL1  H18C 5798   3.581  -0.015   3.421  1.4098 -0.7346 -0.3064
   63CHL1   C12 5799   3.799   0.163   3.474  0.2431 -0.3162  0.4126
   63CHL1  H12A 5800   3.751   0.227   3.552  0.2672 -0.6071  0.6668
   63CHL1  H12B 5801   3.907   0.188   3.462  0.3132  0.4141  2.1920
   63CHL1   C11 5802   3.717   0.209   3.347 -0.0371  0.2673  0.2635
   63CHL1  H11A 5803   3.606   0.206   3.355 -0.0363 -0.4923  0.1306
   63CHL1  H11B 5804   3.748   0.314   3.331  1.2619 -0.4498 -2.4049
   63CHL1    C9 5805   3.754   0.126   3.224 -0.1494  0.2224  0.2681
   63CHL1    H9 5806   3.863   0.148   3.218  0.2973 -1.1355  2.3074
   63CHL1   C10 5807   3.673   0.169   3.097 -0.6628 -0.0891  0.3387
   63CHL1   C19 5808   3.528   0.154   3.129  0.1058  0.3052 -0.4143
   63CHL1  H19A 5809   3.485   0.226   3.201  1.3448 -1.2144  1.9487
   63CHL1  H19B 5810   3.466   0.171   3.038 -2.1867 -1.8837  0.6017
   63CHL1  H19C 5811   3.514   0.048   3.161 -1.1986  0.3998 -0.5874
   63CHL1    C1 5812   3.708   0.314   3.066  0.5734 -0.7873 -0.5909
   63CHL1   H1A 5813   3.675   0.378   3.150 -1.4876 -0.4689 -1.5862
   63CHL1   H1B 5814   3.818   0.322   3.064  0.5643  1.8178  2.3927
   63CHL1    C2 5815   3.666   0.364   2.937 -0.2120  0.5778  0.8524
   63CHL1   H2A 5816   3.709   0.465   2.915 -0.2019 -0.0407 -2.6028
   63CHL1   H2B 5817   3.555   0.369   2.933 -0.3324 -1.8146 -1.6346
   63CHL1   C20 5818   3.817  -0.045   3.759 -0.8727  0.1502  0.0174
   63CHL1   H20 5819   3.718  -0.095   3.765 -1.3871  1.2603  0.9646
   63CHL1   C21 5820   3.796   0.104   3.796 -0.6889  0.1599  1.0456
   63CHL1  H21A 5821   3.702   0.130   3.743 -0.2798  1.3663  0.9025
   63CHL1  H21B 5822   3.880   0.172   3.772 -0.6146 -0.6610 -1.2178
   63CHL1  H21C 5823   3.754   0.129   3.896 -3.1728 -0.4175  0.2183
   63CHL1   C22 5824   3.923  -0.101   3.857 -0.3056  0.6683 -0.8955
   63CHL1  H22A 5825   3.976  -0.193   3.823  0.5593  1.3221 -1.3412
   63CHL1  H22B 5826   4.007  -0.035   3.886 -0.2892  0.5934 -0.7693
   63CHL1   C23 5827   3.850  -0.139   3.989  0.4541 -0.6004  0.4051
   63CHL1  H23A 5828   3.799  -0.052   4.036 -1.5035 -1.4642 -0.0348
   63CHL1  H23B 5829   3.776  -0.218   3.968 -2.7822  1.8161  1.8356
   63CHL1   C24 5830   3.957  -0.193   4.082  0.3738  0.5959  0.4735
   63CHL1  H24A 5831   4.021  -0.261   4.023  1.2124 -0.7225  2.7603
   63CHL1  H24B 5832   4.017  -0.101   4.096  0.3875  0.4865  1.1677
   63CHL1   C25 5833   3.906  -0.261   4.211 -0.2379  0.1127 -0.2762
   63CHL1   H25 5834   3.863  -0.356   4.173 -0.1921  0.5323 -1.4086
   63CHL1   C26 5835   4.017  -0.289   4.306 -0.0699 -0.5669 -0.0005
   63CHL1  H26A 5836   3.981  -0.340   4.398  1.4325 -0.9918  0.3794
   63CHL1  H26B 5837   4.098  -0.353   4.265  1.4654 -0.2206  2.2624
   63CHL1  H26C 5838   4.064  -0.192   4.336 -3.1628  0.3334  2.4701
   63CHL1   C27 5839   3.794  -0.186   4.283 -0.2130  0.1384 -0.1748
   63CHL1  H27A 5840   3.833  -0.105   4.347  0.5776 -0.4367  0.0869
   63CHL1  H27B 5841   3.727  -0.144   4.205  2.0289  0.9451 -1.7704
   63CHL1  H27C 5842   3.731  -0.256   4.342  1.6362 -1.4911  0.0066
   64CHL1    C3 5843   2.410   4.167   2.437  0.3645 -0.7360  0.1928
   64CHL1    H3 5844   2.311   4.118   2.444 -1.7554  3.1686  0.3607
   64CHL1    O3 5845   2.459   4.167   2.303  0.5646  0.0552 -0.8161
   64CHL1   H3' 5846   2.540   4.219   2.312  0.5137  0.0375 -0.2287
   64CHL1    C4 5847   2.389   4.313   2.481  0.2622  0.0669 -0.5851
   64CHL1   H4A 5848   2.483   4.366   2.453 -0.1287  0.2232 -1.6642
   64CHL1   H4B 5849   2.311   4.358   2.417 -1.9793 -1.4403  0.9518
   64CHL1    C5 5850   2.362   4.324   2.630 -0.7752 -0.2329  0.0748
   64CHL1    C6 5851   2.251   4.393   2.666 -0.9123  0.0237  0.3983
   64CHL1    H6 5852   2.193   4.437   2.583  0.2065  1.1901  0.2011
   64CHL1    C7 5853   2.208   4.415   2.806  0.0750 -0.3278  0.5712
   64CHL1   H7A 5854   2.194   4.524   2.821  3.1007  0.1843  0.4034
   64CHL1   H7B 5855   2.112   4.365   2.829 -1.6629  2.3306 -0.4119
   64CHL1    C8 5856   2.315   4.364   2.905 -0.3971 -0.0640 -0.2162
   64CHL1    H8 5857   2.384   4.451   2.916 -0.9703  0.2660  0.9601
   64CHL1   C14 5858   2.258   4.350   3.050 -0.7468 -0.0495  0.4259
   64CHL1   H14 5859   2.176   4.276   3.039  0.0449 -0.8669 -0.1794
   64CHL1   C15 5860   2.192   4.462   3.117 -0.4688 -0.8306  0.3021
   64CHL1  H15A 5861   2.254   4.553   3.103  1.0855 -1.7665  0.9174
   64CHL1  H15B 5862   2.088   4.477   3.082 -0.6154  1.7312  1.5876
   64CHL1   C16 5863   2.199   4.428   3.264  0.0032 -0.1008  0.1623
   64CHL1  H16A 5864   2.272   4.498   3.310 -1.3933  4.6386 -3.9590
   64CHL1  H16B 5865   2.095   4.436   3.302  0.1604 -1.9571  1.0981
   64CHL1   C17 5866   2.259   4.287   3.268 -0.3244  0.4617  0.3292
   64CHL1   H17 5867   2.181   4.214   3.239 -0.3926  0.4626  0.5096
   64CHL1   C13 5868   2.355   4.289   3.149 -0.1640 -0.2816  0.3175
   64CHL1   C18 5869   2.481   4.378   3.179  0.2446 -0.0612 -0.0876
   64CHL1  H18A 5870   2.552   4.312   3.234 -1.2298 -1.6093  0.0441
   64CHL1  H18B 5871   2.515   4.410   3.078  0.5107 -1.9780 -0.6519
   64CHL1  H18C 5872   2.458   4.469   3.239  0.3543  0.3413 -0.6542
   64CHL1   C12 5873   2.396   4.157   3.104 -0.5716  0.4707 -0.0756
   64CHL1  H12A 5874   2.466   4.100   3.170 -0.2005 -0.3611 -1.1608
   64CHL1  H12B 5875   2.307   4.092   3.093  1.3402 -2.3224 -0.0495
   64CHL1   C11 5876   2.470   4.167   2.970 -1.0469  0.7051  0.3440
   64CHL1  H11A 5877   2.561   4.228   2.986 -0.6298  0.1441  0.1400
   64CHL1  H11B 5878   2.496   4.062   2.945  0.1010  0.1342  3.5157
   64CHL1    C9 5879   2.385   4.233   2.862 -0.5039  0.2655  0.1367
   64CHL1    H9 5880   2.305   4.157   2.850 -0.6851  0.3214  0.9606
   64CHL1   C10 5881   2.451   4.244   2.724 -0.5660  0.3201 -0.5021
   64CHL1   C19 5882   2.587   4.317   2.743 -0.3935 -0.6426 -0.4402
   64CHL1  H19A 5883   2.564   4.409   2.802  0.8700 -1.0911  0.8137
   64CHL1  H19B 5884   2.655   4.259   2.809  0.9520 -1.4088 -2.4198
   64CHL1  H19C 5885   2.640   4.310   2.646  1.8175 -1.5840  0.7562
   64CHL1    C1 5886   2.478   4.100   2.667  0.5217 -0.2016  0.1506
   64CHL1   H1A 5887   2.567   4.059   2.719 -1.0756  0.2898  3.5451
   64CHL1   H1B 5888   2.381   4.049   2.679  1.3354 -1.2717  3.1621
   64CHL1    C2 5889   2.512   4.101   2.522 -0.2977 -0.0104  0.6470
   64CHL1   H2A 5890   2.515   3.993   2.496 -0.2042  0.1941 -0.2218
   64CHL1   H2B 5891   2.617   4.138   2.519 -0.3296  0.2853  2.1770
   64CHL1   C20 5892   2.317   4.259   3.415 -0.0908  0.2445  0.8444
   64CHL1   H20 5893   2.395   4.336   3.431 -0.0734  0.7454 -1.2895
   64CHL1   C21 5894   2.383   4.111   3.426 -0.0911  0.2332  0.8006
   64CHL1  H21A 5895   2.405   4.091   3.533  0.2168 -1.4303  0.4656
   64CHL1  H21B 5896   2.477   4.120   3.368 -1.0798 -1.6755 -1.2312
   64CHL1  H21C 5897   2.316   4.029   3.392  1.4135 -0.7402  0.0963
   64CHL1   C22 5898   2.197   4.274   3.521 -0.2674 -0.1703  0.5918
   64CHL1  H22A 5899   2.149   4.371   3.496 -1.8935 -0.8055  1.1316
   64CHL1  H22B 5900   2.125   4.190   3.517 -1.3788  0.7767  0.3677
   64CHL1   C23 5901   2.243   4.292   3.663  0.2071 -0.5989 -0.0208
   64CHL1  H23A 5902   2.308   4.211   3.702 -0.5747 -0.9456  0.6042
   64CHL1  H23B 5903   2.309   4.382   3.663  1.4653 -1.4420  2.0482
   64CHL1   C24 5904   2.124   4.318   3.757  0.1763  0.0518 -0.4031
   64CHL1  H24A 5905   2.060   4.404   3.727 -0.3934  0.5064  1.8673
   64CHL1  H24B 5906   2.063   4.225   3.757  0.4326 -0.1204  0.0850
   64CHL1   C25 5907   2.143   4.335   3.910 -0.3028  0.5662  0.0020
   64CHL1   H25 5908   2.042   4.356   3.950 -0.3950  0.3962 -0.1444
   64CHL1   C26 5909   2.207   4.210   3.968 -0.2528  0.0244 -0.2391
   64CHL1  H26A 5910   2.318   4.212   3.960 -0.1707 -0.0763  0.7194
   64CHL1  H26B 5911   2.189   4.197   4.077  0.3950 -1.9742 -0.3411
   64CHL1  H26C 5912   2.176   4.115   3.920 -0.8015 -0.4797  1.0555
   64CHL1   C27 5913   2.220   4.464   3.952  0.3038  0.2842 -0.0788
   64CHL1  H27A 5914   2.242   4.459   4.061  3.0807 -2.2846 -0.6457
   64CHL1  H27B 5915   2.309   4.490   3.891  0.0150  2.2922  0.2796
   64CHL1  H27C 5916   2.152   4.551   3.938  1.8164  1.2654 -1.6883
   65CHL1    C3 5917   2.435   1.227   2.767 -0.2643  0.7940 -0.2865
   65CHL1    H3 5918   2.536   1.234   2.813 -0.2097 -2.4500  0.3675
   65CHL1    O3 5919   2.457   1.219   2.624  0.3065 -0.3435 -0.5915
   65CHL1   H3' 5920   2.439   1.131   2.593  0.6519 -0.2012 -1.2001
   65CHL1    C4 5921   2.368   1.097   2.809  0.8069 -0.0439  0.1174
   65CHL1   H4A 5922   2.280   1.079   2.744 -0.1924  0.7977  1.2002
   65CHL1   H4B 5923   2.441   1.015   2.794 -0.3685 -1.1762  0.3732
   65CHL1    C5 5924   2.307   1.098   2.945 -0.0064 -0.6486 -0.7329
   65CHL1    C6 5925   2.336   1.007   3.032 -0.0969  0.6782  0.0636
   65CHL1    H6 5926   2.408   0.925   3.021 -0.4365 -0.3197  3.8129
   65CHL1    C7 5927   2.282   1.008   3.175  0.1620 -0.0121  0.0087
   65CHL1   H7A 5928   2.258   0.905   3.208 -0.8968 -0.2243 -1.3544
   65CHL1   H7B 5929   2.357   1.056   3.242  0.2955 -0.1526 -0.0402
   65CHL1    C8 5930   2.155   1.098   3.194 -0.5503  0.8397 -0.2652
   65CHL1    H8 5931   2.071   1.045   3.144 -1.7098  1.1497  1.2791
   65CHL1   C14 5932   2.125   1.125   3.342 -0.4061 -0.1209  0.4495
   65CHL1   H14 5933   2.216   1.178   3.378  1.3777 -1.1465 -2.2814
   65CHL1   C15 5934   2.120   0.998   3.429 -0.0651 -0.5520 -0.6650
   65CHL1  H15A 5935   2.060   0.919   3.379 -1.8191  0.5063 -0.3115
   65CHL1  H15B 5936   2.224   0.962   3.447  1.3369  2.6661 -1.4211
   65CHL1   C16 5937   2.049   1.045   3.556 -0.0367  0.3840 -0.4755
   65CHL1  H16A 5938   1.955   0.989   3.575  1.0134 -0.6021  2.3633
   65CHL1  H16B 5939   2.111   1.026   3.647 -1.4673  0.9594  0.6628
   65CHL1   C17 5940   2.003   1.192   3.529 -0.1437  0.2360 -0.5069
   65CHL1   H17 5941   2.083   1.253   3.576 -0.1792 -0.8165  0.9549
   65CHL1   C13 5942   2.012   1.209   3.373  0.9554  0.1440  0.0059
   65CHL1   C18 5943   1.890   1.140   3.326 -0.2908  0.2350 -0.5475
   65CHL1  H18A 5944   1.805   1.210   3.324  0.4361  1.1374 -0.4808
   65CHL1  H18B 5945   1.895   1.105   3.221  0.1188 -1.3580 -0.0350
   65CHL1  H18C 5946   1.862   1.049   3.384 -0.9038  0.9797  0.3329
   65CHL1   C12 5947   2.023   1.348   3.311  0.3847  0.1233 -0.4822
   65CHL1  H12A 5948   1.931   1.410   3.320 -1.7989 -2.6602 -1.9775
   65CHL1  H12B 5949   2.103   1.411   3.355 -1.2788  2.0334 -0.0867
   65CHL1   C11 5950   2.058   1.326   3.160 -0.3868 -0.1973 -0.2295
   65CHL1  H11A 5951   1.966   1.305   3.102 -0.7540 -0.5914  0.4686
   65CHL1  H11B 5952   2.101   1.425   3.135  0.1797 -0.5034 -0.4771
   65CHL1    C9 5953   2.178   1.232   3.129 -0.0755 -0.4886  0.0459
   65CHL1    H9 5954   2.263   1.284   3.178 -0.9696  0.5568  0.5291
   65CHL1   C10 5955   2.212   1.219   2.977 -0.3859  0.4405 -0.5831
   65CHL1   C19 5956   2.089   1.200   2.886  0.3387 -0.4423 -0.4310
   65CHL1  H19A 5957   2.029   1.110   2.911  1.2517 -0.9693 -0.0704
   65CHL1  H19B 5958   2.024   1.289   2.901  0.7190 -0.1308 -0.6159
   65CHL1  H19C 5959   2.104   1.193   2.776 -1.2806  1.3638 -0.8146
   65CHL1    C1 5960   2.290   1.347   2.940  0.1403  0.8894 -0.0411
   65CHL1   H1A 5961   2.209   1.423   2.944 -4.0736 -3.0089 -2.1480
   65CHL1   H1B 5962   2.376   1.367   3.008 -0.9007 -0.0182  1.5929
   65CHL1    C2 5963   2.346   1.346   2.796  0.4811  0.1226  0.1912
   65CHL1   H2A 5964   2.402   1.442   2.790  1.7643 -0.5272  1.0863
   65CHL1   H2B 5965   2.262   1.354   2.724 -1.4818 -2.4149  2.0022
   65CHL1   C20 5966   1.884   1.238   3.606 -0.5380 -0.7096  0.5260
   65CHL1   H20 5967   1.795   1.195   3.556  1.1712 -1.2987 -2.1977
   65CHL1   C21 5968   1.869   1.394   3.599 -0.1426  0.5578 -0.4577
   65CHL1  H21A 5969   1.779   1.427   3.655 -1.3963 -0.6882 -1.6812
   65CHL1  H21B 5970   1.845   1.429   3.497 -2.2982 -0.6710 -0.4129
   65CHL1  H21C 5971   1.965   1.442   3.630 -0.7173  1.7428 -0.4571
   65CHL1   C22 5972   1.882   1.191   3.755 -0.0604  0.0715 -0.0588
   65CHL1  H22A 5973   1.788   1.221   3.807  0.2676  4.3393 -1.5565
   65CHL1  H22B 5974   1.884   1.080   3.757 -0.8326  0.0505  1.7751
   65CHL1   C23 5975   1.999   1.233   3.847 -0.1931 -0.4550  0.5268
   65CHL1  H23A 5976   2.092   1.186   3.807 -0.7828  1.1269 -3.1327
   65CHL1  H23B 5977   2.002   1.344   3.839  0.8757 -0.4551  0.8215
   65CHL1   C24 5978   1.977   1.195   3.990 -0.0632  0.3008 -0.4382
   65CHL1  H24A 5979   1.878   1.230   4.026 -0.3308  0.6408 -1.4580
   65CHL1  H24B 5980   1.980   1.086   4.006 -2.2326  0.0796 -1.1442
   65CHL1   C25 5981   2.082   1.255   4.095  0.2454  0.8249 -0.6737
   65CHL1   H25 5982   2.084   1.364   4.071  0.6070  0.3324 -3.1272
   65CHL1   C26 5983   2.023   1.238   4.244  0.2962 -0.4914  0.1980
   65CHL1  H26A 5984   1.922   1.283   4.251 -0.6257 -1.7411 -3.2503
   65CHL1  H26B 5985   2.014   1.129   4.264 -1.6399 -0.3479  0.2386
   65CHL1  H26C 5986   2.089   1.282   4.322 -1.3107 -2.3100  2.7263
   65CHL1   C27 5987   2.216   1.195   4.074 -0.2724 -0.5846  0.3137
   65CHL1  H27A 5988   2.285   1.246   4.145 -2.1322  1.2917  0.8642
   65CHL1  H27B 5989   2.208   1.088   4.103  0.3792 -0.5229  0.7574
   65CHL1  H27C 5990   2.253   1.201   3.969  1.2238 -1.0418  0.7909
   66CHL1    C3 5991   5.162   3.112   2.469 -0.8210  0.3255 -0.6588
   66CHL1    H3 5992   5.204   3.212   2.495 -1.7168  1.2717 -2.5668
   66CHL1    O3 5993   5.142   3.099   2.325  0.3816 -0.2569 -0.1748
   66CHL1   H3' 5994   5.134   3.005   2.309 -1.9763  0.1645 -2.1027
   66CHL1    C4 5995   5.259   2.997   2.509 -0.3267 -0.0778 -0.3057
   66CHL1   H4A 5996   5.208   2.903   2.479  0.4229 -1.3319  2.1024
   66CHL1   H4B 5997   5.358   2.990   2.460 -0.4510  1.7057 -0.8827
   66CHL1    C5 5998   5.276   2.975   2.657 -0.7645 -0.0474 -0.7494
   66CHL1    C6 5999   5.397   2.955   2.708  0.4060 -0.7138 -0.6841
   66CHL1    H6 6000   5.484   2.960   2.640  0.1874  0.0563 -0.9228
   66CHL1    C7 6001   5.431   2.932   2.853  0.4103  0.3587  0.6261
   66CHL1   H7A 6002   5.477   2.831   2.848 -0.6883 -0.1896  1.3579
   66CHL1   H7B 6003   5.513   2.994   2.895  1.9695 -2.1125  1.4307
   66CHL1    C8 6004   5.305   2.912   2.946 -0.3913 -0.2667 -0.2328
   66CHL1    H8 6005   5.284   2.803   2.957 -0.7689 -0.0486  1.5360
   66CHL1   C14 6006   5.327   2.947   3.097  0.0799  0.1552 -0.1713
   66CHL1   H14 6007   5.342   3.057   3.093 -0.6498  0.2846  0.4850
   66CHL1   C15 6008   5.448   2.876   3.166  0.8068 -0.6430  0.6631
   66CHL1  H15A 6009   5.437   2.770   3.136 -1.6398  0.3442 -2.4362
   66CHL1  H15B 6010   5.546   2.912   3.128 -0.9919  2.2843 -1.6230
   66CHL1   C16 6011   5.420   2.909   3.308 -1.1231 -0.6008 -0.4009
   66CHL1  H16A 6012   5.454   2.827   3.376  1.2744  0.5389 -0.1069
   66CHL1  H16B 6013   5.499   2.981   3.339  0.2865 -1.9290 -0.7512
   66CHL1   C17 6014   5.280   2.976   3.325 -0.1814 -0.2765 -0.2651
   66CHL1   H17 6015   5.291   3.086   3.319  0.0580 -0.3884 -3.1028
   66CHL1   C13 6016   5.208   2.935   3.189 -0.5966 -0.2946 -0.2233
   66CHL1   C18 6017   5.162   2.787   3.201  0.3009 -0.3924  0.1064
   66CHL1  H18A 6018   5.101   2.763   3.291 -1.0787 -0.5105 -0.8239
   66CHL1  H18B 6019   5.094   2.752   3.120  0.6236  0.3637 -0.5011
   66CHL1  H18C 6020   5.249   2.718   3.205 -1.1088 -2.1650  2.5128
   66CHL1   C12 6021   5.099   3.029   3.136 -0.7684  0.3033 -0.4543
   66CHL1  H12A 6022   5.008   3.011   3.197  0.1942  2.6008  1.8300
   66CHL1  H12B 6023   5.127   3.135   3.153 -2.2829  0.7905 -0.8280
   66CHL1   C11 6024   5.061   2.997   2.984 -0.6335 -1.0612 -0.7363
   66CHL1  H11A 6025   5.024   2.892   2.981  1.6015 -1.9187 -0.2881
   66CHL1  H11B 6026   4.986   3.075   2.958 -0.1227 -0.8189 -1.5022
   66CHL1    C9 6027   5.189   3.000   2.896 -0.2696 -0.1147  0.6728
   66CHL1    H9 6028   5.219   3.107   2.889 -0.1574 -0.2398 -1.6428
   66CHL1   C10 6029   5.149   2.975   2.746 -0.3863  0.6104  0.1283
   66CHL1   C19 6030   5.068   2.844   2.737 -0.5172  0.7040 -0.6741
   66CHL1  H19A 6031   5.053   2.804   2.634  0.3620  2.7184 -1.6335
   66CHL1  H19B 6032   5.122   2.767   2.797 -1.0952  1.0260  0.2771
   66CHL1  H19C 6033   4.966   2.855   2.777 -0.0922 -1.6274  1.2986
   66CHL1    C1 6034   5.063   3.094   2.699 -0.5915  0.1308 -0.5560
   66CHL1   H1A 6035   4.959   3.081   2.735 -0.8187  1.5670 -0.6568
   66CHL1   H1B 6036   5.107   3.187   2.741 -0.5036  0.1406 -0.6682
   66CHL1    C2 6037   5.032   3.108   2.546 -0.0585  0.0074  0.4263
   66CHL1   H2A 6038   4.973   3.197   2.515  1.2431  0.1518 -1.8736
   66CHL1   H2B 6039   4.967   3.022   2.519 -2.3599  1.6773  0.3403
   66CHL1   C20 6040   5.209   2.946   3.460  0.4490 -0.6097  0.1908
   66CHL1   H20 6041   5.195   2.836   3.465  1.5498 -0.7376  1.1774
   66CHL1   C21 6042   5.062   2.995   3.463  0.6858 -0.1967 -0.1072
   66CHL1  H21A 6043   4.998   2.923   3.407 -0.5154  0.6367  0.1572
   66CHL1  H21B 6044   5.049   3.101   3.435  1.9783  0.8218  2.7186
   66CHL1  H21C 6045   5.021   2.994   3.567 -0.2211  0.2559 -0.4547
   66CHL1   C22 6046   5.297   2.972   3.583  0.6815 -0.1220  0.0241
   66CHL1  H22A 6047   5.405   2.964   3.561  0.7314  0.9167 -0.1510
   66CHL1  H22B 6048   5.274   3.078   3.607  1.0137  0.2774 -1.3336
   66CHL1   C23 6049   5.269   2.882   3.707  0.4743  0.1941 -0.2664
   66CHL1  H23A 6050   5.159   2.880   3.718  0.4646  1.1504 -0.1429
   66CHL1  H23B 6051   5.316   2.784   3.682 -0.6388 -0.0257 -1.5481
   66CHL1   C24 6052   5.350   2.928   3.838  0.2223 -0.2432  1.4665
   66CHL1  H24A 6053   5.452   2.934   3.792  0.2105 -0.5830  1.3932
   66CHL1  H24B 6054   5.319   3.032   3.858  1.0001  0.3240 -0.0836
   66CHL1   C25 6055   5.342   2.841   3.956 -0.5904 -0.1157  0.1573
   66CHL1   H25 6056   5.239   2.833   3.995 -0.4115  1.5674  1.1101
   66CHL1   C26 6057   5.396   2.697   3.917 -0.3326 -0.3680 -0.9031
   66CHL1  H26A 6058   5.504   2.690   3.892  0.5499 -1.0483  2.5657
   66CHL1  H26B 6059   5.378   2.636   4.008 -0.6105  0.2622 -0.5328
   66CHL1  H26C 6060   5.326   2.660   3.838 -1.7843 -0.3547  0.3402
   66CHL1   C27 6061   5.424   2.909   4.075 -0.6316 -0.0646  0.6357
   66CHL1  H27A 6062   5.431   2.835   4.157  0.4162 -0.1055  0.5284
   66CHL1  H27B 6063   5.362   2.991   4.115 -0.3152  0.1700  0.6495
   66CHL1  H27C 6064   5.522   2.953   4.045  0.0781 -1.4319  0.8374
   67CHL1    C3 6065   2.985   1.921   2.815  0.9597 -0.8308  0.2474
   67CHL1    H3 6066   2.956   1.814   2.808 -3.7436  0.2410  0.0495
   67CHL1    O3 6067   2.954   1.978   2.681 -0.2009  0.2166 -0.8027
   67CHL1   H3' 6068   2.979   2.071   2.684 -0.9507  0.4140 -0.6392
   67CHL1    C4 6069   2.891   1.993   2.918 -0.5606 -0.6324  0.9112
   67CHL1   H4A 6070   2.917   2.100   2.913  0.5878 -0.9566 -2.2884
   67CHL1   H4B 6071   2.784   1.980   2.889 -0.8000 -0.5284  1.7059
   67CHL1    C5 6072   2.911   1.941   3.060  0.2897  0.5940  0.2925
   67CHL1    C6 6073   2.813   1.901   3.137  0.6233  0.2929  0.5096
   67CHL1    H6 6074   2.710   1.898   3.098  0.5034  3.2366  0.4022
   67CHL1    C7 6075   2.823   1.852   3.280  0.3033  0.5313  0.5169
   67CHL1   H7A 6076   2.759   1.902   3.357 -0.2047 -0.8303  1.0139
   67CHL1   H7B 6077   2.793   1.745   3.271 -2.5245  1.3013 -0.3117
   67CHL1    C8 6078   2.966   1.855   3.348 -0.3552  0.2188  0.1545
   67CHL1    H8 6079   2.987   1.954   3.394  0.6959  0.6606 -1.1980
   67CHL1   C14 6080   2.990   1.749   3.455  0.0905  0.2987 -0.8917
   67CHL1   H14 6081   3.005   1.650   3.406  0.0972 -0.3396  0.3808
   67CHL1   C15 6082   2.882   1.723   3.556  0.1886 -0.2368 -0.4946
   67CHL1  H15A 6083   2.822   1.811   3.586 -1.3924 -1.3314 -0.3074
   67CHL1  H15B 6084   2.819   1.644   3.509  2.7312 -1.3535 -2.2922
   67CHL1   C16 6085   2.952   1.670   3.682 -1.0795 -0.4894 -0.2158
   67CHL1  H16A 6086   2.942   1.742   3.766  0.3335 -1.3598  0.7346
   67CHL1  H16B 6087   2.900   1.578   3.717  0.6492 -1.4146  0.0596
   67CHL1   C17 6088   3.106   1.662   3.648 -0.1707  0.3483  0.1481
   67CHL1   H17 6089   3.114   1.569   3.589 -3.2388  0.6076 -0.8371
   67CHL1   C13 6090   3.123   1.770   3.537 -0.6594  0.6999  0.3151
   67CHL1   C18 6091   3.131   1.907   3.606 -0.6322  0.3067 -0.1454
   67CHL1  H18A 6092   3.163   1.989   3.537  1.5933  1.2038  1.7967
   67CHL1  H18B 6093   3.051   1.925   3.681  0.2528  1.3138  0.5978
   67CHL1  H18C 6094   3.218   1.911   3.675 -0.7956 -2.6171  0.3391
   67CHL1   C12 6095   3.230   1.754   3.433 -0.0646  0.0334  0.5101
   67CHL1  H12A 6096   3.332   1.772   3.475  0.6900  1.1463 -1.6688
   67CHL1  H12B 6097   3.213   1.649   3.399  0.7202  0.5025 -1.4887
   67CHL1   C11 6098   3.206   1.843   3.307 -0.0795  0.5977  0.4130
   67CHL1  H11A 6099   3.229   1.951   3.325  2.2936  0.6666 -2.2139
   67CHL1  H11B 6100   3.282   1.817   3.230 -0.1130 -2.7241  1.3509
   67CHL1    C9 6101   3.069   1.834   3.237  0.1260 -0.5861 -0.3023
   67CHL1    H9 6102   3.049   1.730   3.203  2.3233 -1.6317  1.3743
   67CHL1   C10 6103   3.052   1.928   3.111 -0.0956  0.2158 -0.2970
   67CHL1   C19 6104   3.096   2.074   3.144 -0.7272 -0.4533 -0.3104
   67CHL1  H19A 6105   3.205   2.071   3.162 -1.0322  2.1368  2.7717
   67CHL1  H19B 6106   3.071   2.138   3.056  0.8264 -1.3576 -1.4612
   67CHL1  H19C 6107   3.041   2.112   3.233 -0.8905 -1.1218 -0.1181
   67CHL1    C1 6108   3.144   1.869   2.999  0.0086 -0.1738  0.1154
   67CHL1   H1A 6109   3.252   1.862   3.027  0.1869 -3.0924 -0.9982
   67CHL1   H1B 6110   3.105   1.766   2.990 -1.7436  0.5264 -0.8449
   67CHL1    C2 6111   3.130   1.930   2.856 -0.7905  0.3052 -0.4589
   67CHL1   H2A 6112   3.192   1.883   2.776 -1.7021  1.0480 -1.6287
   67CHL1   H2B 6113   3.156   2.038   2.858  1.5397 -0.1711 -1.3665
   67CHL1   C20 6114   3.211   1.654   3.760  0.7985  0.4898 -0.1234
   67CHL1   H20 6115   3.284   1.738   3.758  1.2672  0.2659  2.8915
   67CHL1   C21 6116   3.281   1.517   3.743 -0.1149  0.3591 -0.2188
   67CHL1  H21A 6117   3.365   1.506   3.815 -0.1670  1.7867  0.0950
   67CHL1  H21B 6118   3.326   1.498   3.644 -0.4255 -1.1999 -0.0850
   67CHL1  H21C 6119   3.213   1.429   3.748  0.5411 -0.1804 -0.6371
   67CHL1   C22 6120   3.150   1.659   3.901  0.1889  0.2886 -0.2989
   67CHL1  H22A 6121   3.085   1.747   3.917  0.1211 -0.1175  1.9329
   67CHL1  H22B 6122   3.084   1.570   3.911  0.9250 -0.5366 -2.2124
   67CHL1   C23 6123   3.246   1.665   4.019 -0.4795 -0.1428 -0.1950
   67CHL1  H23A 6124   3.295   1.565   4.028  0.2206  0.2834  0.9865
   67CHL1  H23B 6125   3.324   1.742   4.000 -0.4129 -0.6927 -2.4038
   67CHL1   C24 6126   3.173   1.696   4.151 -0.2528 -0.1157 -0.0590
   67CHL1  H24A 6127   3.112   1.787   4.131  1.8908  1.9717  2.2000
   67CHL1  H24B 6128   3.104   1.611   4.165 -0.9690 -0.0032 -2.4420
   67CHL1   C25 6129   3.268   1.705   4.276  0.1819  0.0183  0.3996
   67CHL1   H25 6130   3.313   1.806   4.272  0.6400 -0.1773  0.5018
   67CHL1   C26 6131   3.193   1.693   4.406 -0.2038  0.0243 -0.4906
   67CHL1  H26A 6132   3.156   1.590   4.425 -1.1988  0.6335  1.0413
   67CHL1  H26B 6133   3.268   1.719   4.485 -0.9614  2.2010 -0.4089
   67CHL1  H26C 6134   3.111   1.766   4.417  0.7997  0.9242  2.0121
   67CHL1   C27 6135   3.389   1.614   4.276  0.1828 -0.6079  0.2787
   67CHL1  H27A 6136   3.354   1.510   4.255  1.1241 -1.0484  0.7780
   67CHL1  H27B 6137   3.468   1.630   4.200  1.7497 -2.5140  1.3828
   67CHL1  H27C 6138   3.443   1.618   4.373  1.7482  3.3359 -0.5718
   68CHL1    C3 6139   0.271   0.588   2.863 -0.3215 -0.2427 -0.2063
   68CHL1    H3 6140   0.381   0.583   2.848 -0.4155 -0.8549 -0.7203
   68CHL1    O3 6141   0.217   0.677   2.768  0.6650  0.6606 -0.3428
   68CHL1   H3' 6142   0.123   0.694   2.781  0.1827 -0.9150 -1.3935
   68CHL1    C4 6143   0.219   0.446   2.865  0.0328  0.5316  0.3551
   68CHL1   H4A 6144   0.109   0.458   2.873 -0.2590  0.1151 -2.2101
   68CHL1   H4B 6145   0.234   0.400   2.765 -3.2180  1.5442 -0.7310
   68CHL1    C5 6146   0.270   0.356   2.970  0.7184 -0.1854 -0.1442
   68CHL1    C6 6147   0.343   0.245   2.945  0.0573 -0.7247 -0.8261
   68CHL1    H6 6148   0.361   0.207   2.843  2.2291  0.4150 -0.9241
   68CHL1    C7 6149   0.381   0.149   3.056  0.0172 -0.0365  0.2206
   68CHL1   H7A 6150   0.328   0.052   3.046 -2.7542  1.2536  1.3624
   68CHL1   H7B 6151   0.491   0.140   3.049  0.2237  0.0783  2.4728
   68CHL1    C8 6152   0.338   0.189   3.199 -0.0635 -0.2739 -0.4190
   68CHL1    H8 6153   0.233   0.156   3.213 -0.6545  2.1894  1.8344
   68CHL1   C14 6154   0.432   0.126   3.306 -0.0002 -0.0398  0.2586
   68CHL1   H14 6155   0.537   0.160   3.294 -0.3571  1.4889  1.2614
   68CHL1   C15 6156   0.448  -0.028   3.306  0.2720 -0.7540 -0.1101
   68CHL1  H15A 6157   0.350  -0.080   3.293 -0.1716  0.5050 -2.4482
   68CHL1  H15B 6158   0.510  -0.066   3.221 -1.5993  1.2941 -2.5550
   68CHL1   C16 6159   0.503  -0.053   3.448  0.3208 -0.2129  0.0239
   68CHL1  H16A 6160   0.441  -0.138   3.485  0.8590 -0.8146 -0.4106
   68CHL1  H16B 6161   0.610  -0.084   3.445  0.3673 -0.3808  1.8762
   68CHL1   C17 6162   0.486   0.075   3.528  0.1287  0.4427 -0.2544
   68CHL1   H17 6163   0.584   0.128   3.524  0.3379  0.3707  2.3064
   68CHL1   C13 6164   0.390   0.164   3.447 -0.8084 -0.3403 -0.4095
   68CHL1   C18 6165   0.250   0.110   3.485  0.1036 -0.1200  0.4464
   68CHL1  H18A 6166   0.257  -0.001   3.493 -0.4387 -0.0912  1.4981
   68CHL1  H18B 6167   0.215   0.154   3.581  0.3885  0.9848  0.0596
   68CHL1  H18C 6168   0.175   0.138   3.408 -0.5469  0.1927  1.1775
   68CHL1   C12 6169   0.400   0.313   3.463 -0.1719 -0.2183  0.6377
   68CHL1  H12A 6170   0.357   0.334   3.563 -1.3263  0.7099 -0.0256
   68CHL1  H12B 6171   0.503   0.354   3.453  0.0337 -1.0896 -1.3109
   68CHL1   C11 6172   0.306   0.393   3.367  0.3360  0.6617 -0.0927
   68CHL1  H11A 6173   0.202   0.369   3.396  0.0136 -0.9190 -2.2652
   68CHL1  H11B 6174   0.328   0.502   3.361 -1.3532  1.0332 -0.0685
   68CHL1    C9 6175   0.340   0.344   3.215  0.6575 -0.2911 -0.5788
   68CHL1    H9 6176   0.447   0.363   3.193  0.8112 -0.5350 -0.0491
   68CHL1   C10 6177   0.246   0.421   3.114 -0.0782  0.2193  0.0838
   68CHL1   C19 6178   0.098   0.406   3.150 -0.8256 -0.8328 -0.6591
   68CHL1  H19A 6179   0.065   0.304   3.179 -0.4215 -0.6380  0.5135
   68CHL1  H19B 6180   0.071   0.482   3.226 -0.6484 -1.7977  0.3920
   68CHL1  H19C 6181   0.039   0.440   3.061 -0.5351  2.3812  0.2590
   68CHL1    C1 6182   0.292   0.573   3.115  0.0133  0.0661  0.5552
   68CHL1   H1A 6183   0.240   0.624   3.199 -1.9254 -1.4086  0.3182
   68CHL1   H1B 6184   0.403   0.570   3.127  0.0654  2.1204  0.9425
   68CHL1    C2 6185   0.244   0.660   2.993  0.1699  0.1657  0.1273
   68CHL1   H2A 6186   0.295   0.759   2.992 -1.9159  1.2954 -0.2744
   68CHL1   H2B 6187   0.134   0.676   3.001  0.3383  1.0834  0.8325
   68CHL1   C20 6188   0.464   0.054   3.686  0.4346  0.2510 -0.1086
   68CHL1   H20 6189   0.357   0.070   3.711  0.1671 -2.6387  0.9869
   68CHL1   C21 6190   0.560   0.160   3.754 -0.0769  0.0311 -0.6658
   68CHL1  H21A 6191   0.559   0.158   3.865 -0.9288 -0.6981 -0.6724
   68CHL1  H21B 6192   0.528   0.261   3.724 -0.0120  0.2034 -0.1726
   68CHL1  H21C 6193   0.664   0.135   3.726 -0.3409 -1.3579 -0.5097
   68CHL1   C22 6194   0.498  -0.088   3.730  0.0439  0.1545 -0.2377
   68CHL1  H22A 6195   0.417  -0.154   3.693  0.6082  0.1847 -1.5634
   68CHL1  H22B 6196   0.596  -0.130   3.699 -0.6444 -0.2637 -1.9717
   68CHL1   C23 6197   0.479  -0.119   3.886 -0.3462 -0.6160  0.0318
   68CHL1  H23A 6198   0.558  -0.064   3.940  0.0291  1.6949 -2.6289
   68CHL1  H23B 6199   0.393  -0.061   3.925 -0.1387 -0.2874  0.0012
   68CHL1   C24 6200   0.471  -0.265   3.923  0.5011 -0.1962  0.4436
   68CHL1  H24A 6201   0.380  -0.311   3.879  0.4060  0.6234 -0.2429
   68CHL1  H24B 6202   0.554  -0.302   3.859  0.7652  0.6955  0.2564
   68CHL1   C25 6203   0.490  -0.309   4.070  0.0337 -0.1354  0.2622
   68CHL1   H25 6204   0.483  -0.419   4.067  1.3048 -0.2254 -0.2605
   68CHL1   C26 6205   0.632  -0.266   4.123 -0.1206  0.4995 -0.2810
   68CHL1  H26A 6206   0.711  -0.304   4.055 -0.6152 -1.5413  0.2152
   68CHL1  H26B 6207   0.637  -0.155   4.133 -1.2772  0.6642 -1.3152
   68CHL1  H26C 6208   0.649  -0.309   4.224 -1.1989 -0.5308 -0.5227
   68CHL1   C27 6209   0.380  -0.259   4.169 -0.3041 -0.6243 -0.0533
   68CHL1  H27A 6210   0.366  -0.322   4.259 -0.0872  1.0707  1.2233
   68CHL1  H27B 6211   0.401  -0.154   4.200 -0.6167  0.0914 -2.0763
   68CHL1  H27C 6212   0.283  -0.259   4.114  0.4732  0.3813 -1.4953
   69CHL1    C3 6213   5.829   0.011   3.000 -0.1121  0.1786  0.7012
   69CHL1    H3 6214   5.915  -0.032   3.055  1.7870 -0.6626 -2.6484
   69CHL1    O3 6215   5.856  -0.035   2.872  0.0648  0.1885  1.0634
   69CHL1   H3' 6216   5.784   0.005   2.823 -0.0944  0.2621  1.3543
   69CHL1    C4 6217   5.695  -0.048   3.048  0.4142 -0.8863 -0.4400
   69CHL1   H4A 6218   5.621  -0.010   2.975  0.1479  2.4150  1.3548
   69CHL1   H4B 6219   5.714  -0.157   3.043  1.7420 -0.6239 -2.0755
   69CHL1    C5 6220   5.664   0.002   3.195  0.5661 -0.8196  0.4036
   69CHL1    C6 6221   5.644  -0.071   3.302 -0.1627  0.7799  0.1363
   69CHL1    H6 6222   5.633  -0.178   3.279  1.9893  0.7534 -1.0088
   69CHL1    C7 6223   5.626  -0.022   3.441 -0.2526  0.7246 -0.1973
   69CHL1   H7A 6224   5.531  -0.064   3.482  0.4908 -1.7433 -0.8477
   69CHL1   H7B 6225   5.712  -0.050   3.506 -1.1777  0.0408  0.7737
   69CHL1    C8 6226   5.592   0.129   3.441 -0.8359  0.0876  0.2018
   69CHL1    H8 6227   5.492   0.143   3.394 -0.2124  1.8130 -0.6735
   69CHL1   C14 6228   5.593   0.170   3.586 -0.0943 -0.4880 -0.0246
   69CHL1   H14 6229   5.699   0.161   3.620  0.0061  1.7362  0.3932
   69CHL1   C15 6230   5.509   0.093   3.694  0.2561 -0.0417  0.9836
   69CHL1  H15A 6231   5.407   0.080   3.652  0.2192  2.0651  0.2849
   69CHL1  H15B 6232   5.550  -0.008   3.711  1.8049  0.5569  0.9839
   69CHL1   C16 6233   5.497   0.195   3.807 -0.4656  0.0743  0.2631
   69CHL1  H16A 6234   5.392   0.215   3.835 -0.6894 -0.4381 -0.1836
   69CHL1  H16B 6235   5.538   0.154   3.902 -2.6264 -1.7277  0.4881
   69CHL1   C17 6236   5.558   0.336   3.766 -0.1415  0.7328 -0.7180
   69CHL1   H17 6237   5.664   0.338   3.800 -0.6108 -0.1575  0.8815
   69CHL1   C13 6238   5.563   0.323   3.607  0.0881  0.2189 -0.3751
   69CHL1   C18 6239   5.427   0.349   3.556 -0.0731  0.4230  0.1272
   69CHL1  H18A 6240   5.353   0.267   3.575 -0.6963  1.0756  0.6037
   69CHL1  H18B 6241   5.372   0.440   3.589 -0.9976 -0.3579  0.8162
   69CHL1  H18C 6242   5.427   0.363   3.446  0.4065  5.0772  0.5096
   69CHL1   C12 6243   5.681   0.390   3.542 -0.0944 -0.5364  0.7251
   69CHL1  H12A 6244   5.671   0.501   3.534  2.3510 -0.2653  0.5140
   69CHL1  H12B 6245   5.775   0.369   3.598 -1.2001 -1.1426  2.4201
   69CHL1   C11 6246   5.684   0.361   3.385 -0.1576 -0.3235  0.0451
   69CHL1  H11A 6247   5.601   0.408   3.328 -0.0444 -0.5100 -0.2756
   69CHL1  H11B 6248   5.778   0.411   3.352  0.1938 -0.5624  0.6772
   69CHL1    C9 6249   5.694   0.208   3.353 -0.3310  0.1902  0.1339
   69CHL1    H9 6250   5.787   0.178   3.406 -1.1741 -0.6894  1.1626
   69CHL1   C10 6251   5.683   0.158   3.207  0.1266  0.0704  1.0621
   69CHL1   C19 6252   5.562   0.227   3.134 -0.4708 -0.1125 -0.7791
   69CHL1  H19A 6253   5.462   0.187   3.157 -0.5190 -0.2509 -1.2110
   69CHL1  H19B 6254   5.558   0.337   3.146 -2.9140  0.0282 -2.2831
   69CHL1  H19C 6255   5.583   0.213   3.025 -0.9434 -1.7444 -0.6868
   69CHL1    C1 6256   5.811   0.221   3.134  0.3205 -0.0228  0.2859
   69CHL1   H1A 6257   5.790   0.329   3.119 -2.4266 -0.3359  1.3549
   69CHL1   H1B 6258   5.900   0.205   3.199  1.8261 -4.1415 -2.3644
   69CHL1    C2 6259   5.848   0.161   2.995 -0.1403 -0.0476  0.0584
   69CHL1   H2A 6260   5.955   0.185   2.979 -0.4578  2.9488  1.7998
   69CHL1   H2B 6261   5.793   0.197   2.905 -0.6958 -0.4783  0.2155
   69CHL1   C20 6262   5.495   0.462   3.822 -0.9696 -0.0430  0.1267
   69CHL1   H20 6263   5.395   0.481   3.778 -1.2922  0.0086  0.8607
   69CHL1   C21 6264   5.579   0.586   3.778 -0.8464  0.1569  0.3708
   69CHL1  H21A 6265   5.563   0.610   3.670  1.4094  3.3657  0.6070
   69CHL1  H21B 6266   5.687   0.571   3.799 -0.6630  0.4347 -0.3309
   69CHL1  H21C 6267   5.543   0.674   3.835  1.5549  1.7722 -0.4606
   69CHL1   C22 6268   5.489   0.458   3.978 -0.3731 -0.5803  0.3517
   69CHL1  H22A 6269   5.464   0.359   4.022  1.4992 -0.2352  2.3422
   69CHL1  H22B 6270   5.594   0.465   4.013 -1.1016 -3.8832  3.9011
   69CHL1   C23 6271   5.399   0.566   4.045  0.1859  0.1060 -0.4097
   69CHL1  H23A 6272   5.392   0.662   3.990  0.2456  0.3943  0.0833
   69CHL1  H23B 6273   5.298   0.521   4.040  0.9598 -1.6887 -0.7432
   69CHL1   C24 6274   5.418   0.576   4.196 -0.1583 -0.5696 -0.1545
   69CHL1  H24A 6275   5.321   0.612   4.236 -2.7027 -4.4874 -2.1371
   69CHL1  H24B 6276   5.433   0.472   4.231  1.5106 -0.7143 -1.1742
   69CHL1   C25 6277   5.536   0.653   4.263  0.4157 -0.0669  0.9948
   69CHL1   H25 6278   5.638   0.633   4.223  1.1049  0.8075  2.2202
   69CHL1   C26 6279   5.514   0.800   4.241  0.5633 -0.3580  1.0240
   69CHL1  H26A 6280   5.608   0.848   4.276 -0.1026  2.4567 -0.7344
   69CHL1  H26B 6281   5.512   0.829   4.134 -0.9764  0.4073  1.2296
   69CHL1  H26C 6282   5.438   0.846   4.307 -1.6404 -2.8266  0.4190
   69CHL1   C27 6283   5.550   0.612   4.411  0.8883 -0.3317  0.5192
   69CHL1  H27A 6284   5.463   0.658   4.463 -0.6510 -0.8623 -1.4729
   69CHL1  H27B 6285   5.546   0.501   4.418 -2.4834 -0.2680  1.4173
   69CHL1  H27C 6286   5.640   0.658   4.458  0.7584  0.4838  0.0025
   70CHL1    C3 6287   2.501   4.831   2.524 -0.0613  0.0414  0.4485
   70CHL1    H3 6288   2.396   4.865   2.515 -0.1049  0.2006  1.4954
   70CHL1    O3 6289   2.546   4.801   2.392  0.4268  0.3924  0.4503
   70CHL1   H3' 6290   2.471   4.767   2.343  1.4488 -0.7770 -0.3749
   70CHL1    C4 6291   2.584   4.930   2.603 -0.6160 -0.2448  1.3895
   70CHL1   H4A 6292   2.690   4.894   2.602 -0.9382 -1.2324  1.3338
   70CHL1   H4B 6293   2.582   5.024   2.545 -2.2046 -1.4599 -0.6576
   70CHL1    C5 6294   2.533   4.953   2.742  0.3192  0.4001 -1.0496
   70CHL1    C6 6295   2.487   5.071   2.780 -0.9245 -0.4180 -0.8481
   70CHL1    H6 6296   2.503   5.155   2.710  0.0221 -1.1890 -1.5835
   70CHL1    C7 6297   2.444   5.107   2.922  0.1953  0.1096  0.1415
   70CHL1   H7A 6298   2.488   5.200   2.963  2.8700 -0.5173 -1.1144
   70CHL1   H7B 6299   2.333   5.105   2.927  0.2431 -0.5445  2.8943
   70CHL1    C8 6300   2.492   4.993   3.021 -0.2026 -0.5749 -0.1929
   70CHL1    H8 6301   2.601   5.003   3.042 -0.2824  0.6886 -0.2774
   70CHL1   C14 6302   2.423   5.010   3.156  0.2593  0.3814 -0.8194
   70CHL1   H14 6303   2.316   4.993   3.135  0.1077  0.0074  0.2110
   70CHL1   C15 6304   2.441   5.140   3.226  1.1132  0.1163  0.0981
   70CHL1  H15A 6305   2.532   5.200   3.206  1.2993 -0.0410  0.4722
   70CHL1  H15B 6306   2.366   5.213   3.188  0.7974 -0.6088 -0.7113
   70CHL1   C16 6307   2.419   5.118   3.375  0.5742  0.1251 -0.8828
   70CHL1  H16A 6308   2.513   5.147   3.427 -0.6278  1.4003  0.7070
   70CHL1  H16B 6309   2.348   5.182   3.432 -0.1554 -1.2021 -0.2702
   70CHL1   C17 6310   2.387   4.964   3.389 -0.2955  0.1716  0.0633
   70CHL1   H17 6311   2.277   4.948   3.385 -0.6855  2.0585  1.7216
   70CHL1   C13 6312   2.462   4.904   3.265 -0.3453 -0.9549  0.1866
   70CHL1   C18 6313   2.615   4.902   3.287 -0.3180 -0.3351 -0.0510
   70CHL1  H18A 6314   2.674   4.886   3.195 -0.9279 -0.0025 -0.5094
   70CHL1  H18B 6315   2.642   4.995   3.341 -1.5224  0.2154 -0.3544
   70CHL1  H18C 6316   2.635   4.810   3.346 -2.4109 -0.7845  0.0488
   70CHL1   C12 6317   2.409   4.764   3.211 -0.5375 -0.9560 -0.4170
   70CHL1  H12A 6318   2.452   4.694   3.286 -1.3679  0.5441  1.5595
   70CHL1  H12B 6319   2.298   4.760   3.201 -0.5429 -0.3981 -0.6265
   70CHL1   C11 6320   2.468   4.742   3.073 -0.0695  0.2113 -0.6183
   70CHL1  H11A 6321   2.575   4.730   3.099 -0.5219 -1.0089  0.7979
   70CHL1  H11B 6322   2.432   4.642   3.041 -3.4583  0.4220  1.9819
   70CHL1    C9 6323   2.455   4.856   2.969  0.1584  0.0408  0.4863
   70CHL1    H9 6324   2.346   4.853   2.950  0.4505 -1.3025 -1.1831
   70CHL1   C10 6325   2.525   4.825   2.825 -0.0399 -0.1619 -0.0880
   70CHL1   C19 6326   2.664   4.750   2.859 -0.5252  0.7301  0.3488
   70CHL1  H19A 6327   2.729   4.826   2.908  0.9557 -0.1316 -0.2289
   70CHL1  H19B 6328   2.657   4.657   2.919  2.1467 -1.5404 -2.4946
   70CHL1  H19C 6329   2.723   4.714   2.772  0.1359 -0.8777  1.4275
   70CHL1    C1 6330   2.436   4.717   2.745 -0.2148  0.2740 -0.3467
   70CHL1   H1A 6331   2.415   4.627   2.806 -0.3221  2.1116  2.5337
   70CHL1   H1B 6332   2.335   4.762   2.736 -1.0621 -1.0020  1.9618
   70CHL1    C2 6333   2.485   4.692   2.599 -0.1410  0.0215 -0.4744
   70CHL1   H2A 6334   2.416   4.622   2.548  2.5625 -3.2742  0.0662
   70CHL1   H2B 6335   2.585   4.643   2.601 -1.0390 -1.8581  0.3640
   70CHL1   C20 6336   2.428   4.895   3.525  0.1706 -0.1448  0.6551
   70CHL1   H20 6337   2.538   4.878   3.527  0.1764 -0.0532  2.0041
   70CHL1   C21 6338   2.364   4.758   3.559 -0.0941  0.1026  0.3303
   70CHL1  H21A 6339   2.401   4.725   3.659 -0.0396  0.2117  0.3458
   70CHL1  H21B 6340   2.392   4.686   3.479 -1.6045 -1.6421  1.2917
   70CHL1  H21C 6341   2.255   4.777   3.560  0.1307  1.8270  3.0514
   70CHL1   C22 6342   2.405   4.986   3.648  0.1127 -0.7334  0.3423
   70CHL1  H22A 6343   2.406   5.093   3.619 -1.3504 -0.6441  0.5251
   70CHL1  H22B 6344   2.303   4.968   3.687  0.7812 -1.3358  1.8762
   70CHL1   C23 6345   2.507   4.968   3.765  0.0599  0.1752 -0.1164
   70CHL1  H23A 6346   2.502   4.868   3.812 -0.5717  1.9704  4.0482
   70CHL1  H23B 6347   2.610   4.975   3.724  0.4960 -1.4120  0.6524
   70CHL1   C24 6348   2.488   5.079   3.873 -0.1346 -0.3411 -0.3929
   70CHL1  H24A 6349   2.507   5.174   3.819  1.6486 -0.1328  0.5536
   70CHL1  H24B 6350   2.388   5.061   3.919 -0.8934  0.0283 -1.8190
   70CHL1   C25 6351   2.585   5.071   3.993 -0.1390  0.1846 -0.4648
   70CHL1   H25 6352   2.597   4.963   4.015 -1.6894 -0.0975 -0.8740
   70CHL1   C26 6353   2.723   5.122   3.942  0.0037  0.2695  0.9419
   70CHL1  H26A 6354   2.796   5.134   4.025  1.5453 -1.0463 -0.1556
   70CHL1  H26B 6355   2.760   5.057   3.860  0.4481 -2.3682  3.0893
   70CHL1  H26C 6356   2.717   5.226   3.904  3.9564 -0.2748 -1.8383
   70CHL1   C27 6357   2.564   5.155   4.119  0.7915  0.3089  0.8608
   70CHL1  H27A 6358   2.628   5.116   4.201  0.3388 -1.7989  0.2824
   70CHL1  H27B 6359   2.574   5.263   4.096 -3.0886  0.8619  1.0512
   70CHL1  H27C 6360   2.458   5.136   4.147  0.7593  1.0921  1.2946
   71CHL1    C3 6361   5.919   1.460   2.929 -0.4559  0.0839 -0.6789
   71CHL1    H3 6362   5.843   1.388   2.967  0.9587 -0.1109  2.0710
   71CHL1    O3 6363   5.890   1.498   2.794 -0.5527 -0.3140 -0.0292
   71CHL1   H3' 6364   5.962   1.557   2.771 -0.2585 -0.3518  0.7722
   71CHL1    C4 6365   5.939   1.581   3.024 -0.5749  0.3218  0.6124
   71CHL1   H4A 6366   6.023   1.639   2.979 -1.5757 -0.5015 -2.6145
   71CHL1   H4B 6367   5.853   1.650   3.013  0.1648  1.0072 -1.2998
   71CHL1    C5 6368   5.973   1.532   3.159  0.0904 -0.1877 -0.5714
   71CHL1    C6 6369   5.884   1.556   3.259  0.0260  0.0210 -0.1949
   71CHL1    H6 6370   5.790   1.612   3.247 -0.9774 -1.4589  0.4557
   71CHL1    C7 6371   5.917   1.517   3.397 -0.5255 -0.1610  0.3851
   71CHL1   H7A 6372   5.888   1.603   3.461  2.2213  1.3224 -0.2153
   71CHL1   H7B 6373   5.857   1.427   3.423 -1.3315 -0.0297 -0.8958
   71CHL1    C8 6374   6.065   1.487   3.419 -0.2311 -0.1327  0.8089
   71CHL1    H8 6375   6.119   1.583   3.412 -1.4010  0.4359 -1.4408
   71CHL1   C14 6376   6.094   1.419   3.556 -0.3492  0.2429 -0.4727
   71CHL1   H14 6377   6.040   1.322   3.547  1.6476 -0.8083 -1.7413
   71CHL1   C15 6378   6.045   1.498   3.685  0.3062 -0.4171  1.1452
   71CHL1  H15A 6379   6.050   1.606   3.662  0.0520 -0.7857 -0.8641
   71CHL1  H15B 6380   5.940   1.463   3.703  0.3160 -2.1258 -1.5035
   71CHL1   C16 6381   6.134   1.450   3.797 -0.0830 -0.4086  0.1639
   71CHL1  H16A 6382   6.186   1.542   3.832 -2.0414  1.2234 -0.9986
   71CHL1  H16B 6383   6.065   1.418   3.877 -1.8347  0.1597 -1.0652
   71CHL1   C17 6384   6.222   1.338   3.733  0.1270 -0.5222 -0.7451
   71CHL1   H17 6385   6.155   1.250   3.738 -1.9609  1.0198 -0.0465
   71CHL1   C13 6386   6.237   1.381   3.588  0.1076  0.4575 -0.5586
   71CHL1   C18 6387   6.329   1.510   3.576 -0.1383 -0.4970 -0.6846
   71CHL1  H18A 6388   6.311   1.571   3.485 -0.9865  3.0719  1.6341
   71CHL1  H18B 6389   6.304   1.585   3.655 -0.4295 -0.4561 -0.8126
   71CHL1  H18C 6390   6.438   1.489   3.579  0.2382  1.0825 -1.8309
   71CHL1   C12 6391   6.275   1.277   3.486  0.6431  0.1582  0.8806
   71CHL1  H12A 6392   6.381   1.246   3.486  0.5228 -0.7018 -2.6827
   71CHL1  H12B 6393   6.201   1.195   3.499  1.4095 -0.9486 -1.2049
   71CHL1   C11 6394   6.252   1.331   3.340 -0.1513 -0.3327 -0.6270
   71CHL1  H11A 6395   6.323   1.416   3.337 -0.6070  0.2068  1.9987
   71CHL1  H11B 6396   6.273   1.249   3.268  0.1277 -2.0836  1.3485
   71CHL1    C9 6397   6.117   1.392   3.311  0.1342 -0.8457 -0.0024
   71CHL1    H9 6398   6.051   1.304   3.307 -2.2177  0.8628 -0.8614
   71CHL1   C10 6399   6.101   1.451   3.170 -0.5144  0.2579 -0.4049
   71CHL1   C19 6400   6.222   1.540   3.132 -0.1610 -0.3727 -0.8990
   71CHL1  H19A 6401   6.244   1.613   3.214 -2.2956  0.0660 -0.6710
   71CHL1  H19B 6402   6.311   1.477   3.112 -0.3088 -0.6516 -0.6927
   71CHL1  H19C 6403   6.210   1.590   3.034  0.2022 -0.4017 -0.9606
   71CHL1    C1 6404   6.084   1.339   3.065 -0.5152  0.1746  0.0866
   71CHL1   H1A 6405   6.182   1.287   3.072 -0.1279  0.9067  0.2211
   71CHL1   H1B 6406   6.006   1.270   3.101 -0.1525  0.1366  0.8040
   71CHL1    C2 6407   6.044   1.373   2.923 -0.4352  0.0162 -0.1985
   71CHL1   H2A 6408   6.013   1.289   2.856 -1.5022  2.0637 -2.4482
   71CHL1   H2B 6409   6.135   1.423   2.882 -0.7013  0.1780 -0.6043
   71CHL1   C20 6410   6.354   1.324   3.818 -0.3928 -0.2654 -0.0424
   71CHL1   H20 6411   6.434   1.398   3.794 -0.7594  0.4062  0.7536
   71CHL1   C21 6412   6.413   1.184   3.788  0.5924 -0.8733 -0.1912
   71CHL1  H21A 6413   6.430   1.174   3.678 -0.2847  1.0232 -0.5441
   71CHL1  H21B 6414   6.334   1.106   3.797 -0.9454  0.7218  0.8546
   71CHL1  H21C 6415   6.505   1.167   3.847  0.7835 -0.6155 -0.4101
   71CHL1   C22 6416   6.356   1.346   3.974 -0.1414  0.5548 -0.1678
   71CHL1  H22A 6417   6.465   1.336   3.995 -0.6703 -0.1319  2.8534
   71CHL1  H22B 6418   6.319   1.448   3.997 -1.5705  0.6774 -2.6632
   71CHL1   C23 6419   6.277   1.245   4.066 -0.0155 -0.0948 -0.1733
   71CHL1  H23A 6420   6.170   1.235   4.038  0.2411  0.3968 -1.3788
   71CHL1  H23B 6421   6.314   1.142   4.050 -0.5164 -0.8182  2.7287
   71CHL1   C24 6422   6.286   1.280   4.222  0.6148  0.7961  0.2425
   71CHL1  H24A 6423   6.241   1.379   4.241 -0.5775  0.2641  0.2624
   71CHL1  H24B 6424   6.223   1.214   4.286  0.1233  1.8111  0.8369
   71CHL1   C25 6425   6.427   1.273   4.290 -0.1183 -0.4012 -0.7556
   71CHL1   H25 6426   6.483   1.354   4.238 -1.1268  0.2422 -0.8659
   71CHL1   C26 6427   6.407   1.294   4.439 -0.3999  0.3196  0.5476
   71CHL1  H26A 6428   6.503   1.309   4.492  0.0113 -1.4174  0.3382
   71CHL1  H26B 6429   6.337   1.373   4.475 -0.2307  0.7603 -0.0699
   71CHL1  H26C 6430   6.357   1.206   4.485 -3.0164 -0.3137 -3.0879
   71CHL1   C27 6431   6.513   1.151   4.278  0.2676  0.8023  0.3168
   71CHL1  H27A 6432   6.452   1.066   4.315 -1.6959  1.9600 -0.1120
   71CHL1  H27B 6433   6.552   1.144   4.174 -3.1439 -1.8234 -0.9701
   71CHL1  H27C 6434   6.609   1.162   4.333  0.0983  2.1711  0.3840
   72CHL1    C3 6435   2.831   6.636   2.572 -0.2145 -0.2978  0.1728
   72CHL1    H3 6436   2.874   6.534   2.560  0.1570 -0.1787  0.4704
   72CHL1    O3 6437   2.821   6.702   2.445 -0.5510 -0.3599  0.2032
   72CHL1   H3' 6438   2.899   6.755   2.431 -0.8165 -0.5401 -2.4690
   72CHL1    C4 6439   2.700   6.618   2.638  0.8251 -1.3651 -0.1627
   72CHL1   H4A 6440   2.646   6.716   2.643  0.9497 -1.2134 -1.4913
   72CHL1   H4B 6441   2.640   6.557   2.568 -0.4076  0.0304 -0.3920
   72CHL1    C5 6442   2.704   6.561   2.775 -0.6218  0.9813  0.6966
   72CHL1    C6 6443   2.635   6.450   2.809 -0.0702  0.0798  0.2660
   72CHL1    H6 6444   2.572   6.396   2.736  0.5789 -1.3879  0.7363
   72CHL1    C7 6445   2.632   6.406   2.947 -0.7545  0.5375  0.0886
   72CHL1   H7A 6446   2.528   6.384   2.980 -1.0728  2.1906  0.2946
   72CHL1   H7B 6447   2.680   6.308   2.965 -3.5647 -0.4313  3.5781
   72CHL1    C8 6448   2.691   6.498   3.051 -0.1412 -0.3161 -0.1257
   72CHL1    H8 6449   2.610   6.574   3.058  0.4127  0.3976 -1.1611
   72CHL1   C14 6450   2.723   6.430   3.186 -0.2394  0.1041  0.5227
   72CHL1   H14 6451   2.804   6.363   3.152  0.4544  1.6249 -0.9881
   72CHL1   C15 6452   2.618   6.333   3.240  0.3682  0.5441 -0.2394
   72CHL1  H15A 6453   2.521   6.382   3.220 -0.4075 -1.5239 -1.8425
   72CHL1  H15B 6454   2.619   6.234   3.191  0.7212 -0.8656  2.4160
   72CHL1   C16 6455   2.661   6.318   3.384  0.7842  0.8543  0.1565
   72CHL1  H16A 6456   2.578   6.344   3.453  0.7107  0.6086  0.1611
   72CHL1  H16B 6457   2.688   6.214   3.410 -0.1966  0.3746 -0.7054
   72CHL1   C17 6458   2.784   6.406   3.406  0.0892  0.3622  0.6374
   72CHL1   H17 6459   2.874   6.347   3.378 -0.5139  1.4118 -4.5188
   72CHL1   C13 6460   2.782   6.514   3.293  0.2824  0.4196 -0.1918
   72CHL1   C18 6461   2.676   6.620   3.328 -1.1864  0.3400  0.4549
   72CHL1  H18A 6462   2.579   6.573   3.357 -1.1157 -0.4965 -0.5953
   72CHL1  H18B 6463   2.702   6.674   3.421 -0.6625  0.8652  0.0121
   72CHL1  H18C 6464   2.667   6.688   3.240  0.9968  0.4242  0.2430
   72CHL1   C12 6465   2.916   6.573   3.236 -0.4024  0.2987  0.3836
   72CHL1  H12A 6466   2.954   6.643   3.314  0.9432 -1.6766  1.5861
   72CHL1  H12B 6467   2.995   6.496   3.221  0.2728  0.9449  0.5299
   72CHL1   C11 6468   2.896   6.647   3.102 -0.1853  0.1497 -1.2943
   72CHL1  H11A 6469   2.840   6.738   3.130 -0.1197 -0.3090  0.3846
   72CHL1  H11B 6470   3.000   6.669   3.071  1.0453 -1.5036  1.3259
   72CHL1    C9 6471   2.823   6.557   2.996  0.3201 -0.3594  0.2117
   72CHL1    H9 6472   2.881   6.465   2.973 -0.2025 -0.2643 -1.6133
   72CHL1   C10 6473   2.808   6.635   2.866 -0.1196  0.4235  0.0157
   72CHL1   C19 6474   2.736   6.773   2.896 -0.3489 -0.0953 -0.8216
   72CHL1  H19A 6475   2.715   6.837   2.808 -0.3215 -0.4156 -1.0620
   72CHL1  H19B 6476   2.640   6.758   2.950 -1.4998 -1.2810 -3.0451
   72CHL1  H19C 6477   2.805   6.839   2.952  0.6787 -1.3191 -0.5896
   72CHL1    C1 6478   2.956   6.652   2.800  0.6431 -0.4174 -0.3118
   72CHL1   H1A 6479   3.025   6.706   2.869 -0.8391 -1.2852  1.9589
   72CHL1   H1B 6480   2.997   6.549   2.793 -0.7250 -0.9705 -0.4833
   72CHL1    C2 6481   2.939   6.718   2.656 -0.5036  0.6490  0.3546
   72CHL1   H2A 6482   3.034   6.711   2.597 -0.7539  2.2234 -0.2767
   72CHL1   H2B 6483   2.903   6.822   2.668 -1.9891  0.0158  1.7374
   72CHL1   C20 6484   2.790   6.454   3.555  0.7621 -0.7320 -0.2194
   72CHL1   H20 6485   2.699   6.513   3.580 -0.5087 -3.3815  1.9174
   72CHL1   C21 6486   2.910   6.540   3.563 -0.9403  0.3591 -0.3349
   72CHL1  H21A 6487   2.902   6.639   3.513 -1.8630  0.9855  1.0044
   72CHL1  H21B 6488   3.008   6.499   3.530 -1.8194 -2.3779  0.2218
   72CHL1  H21C 6489   2.927   6.569   3.669  1.3615 -3.4154  0.5104
   72CHL1   C22 6490   2.798   6.335   3.656  0.4721  0.1209  0.5014
   72CHL1  H22A 6491   2.706   6.275   3.637 -0.5870  1.5825  0.8589
   72CHL1  H22B 6492   2.886   6.273   3.632 -1.5234 -2.6077 -0.2174
   72CHL1   C23 6493   2.798   6.360   3.808  0.0043  0.0778  0.5302
   72CHL1  H23A 6494   2.904   6.384   3.829 -0.0407  1.0590 -0.2856
   72CHL1  H23B 6495   2.738   6.445   3.845  0.0451  0.5759 -0.5032
   72CHL1   C24 6496   2.758   6.224   3.882 -0.1078  0.5904  0.0732
   72CHL1  H24A 6497   2.650   6.205   3.863 -0.4084  1.1517  1.1733
   72CHL1  H24B 6498   2.817   6.143   3.833 -2.0448 -0.0598 -1.2792
   72CHL1   C25 6499   2.774   6.223   4.038  0.0668  0.1513 -0.2904
   72CHL1   H25 6500   2.730   6.317   4.078 -0.3314 -0.1661  0.0329
   72CHL1   C26 6501   2.717   6.096   4.099  0.8476  0.0099  0.2778
   72CHL1  H26A 6502   2.608   6.087   4.077  1.3034 -0.6248 -2.0247
   72CHL1  H26B 6503   2.775   6.004   4.077 -0.5639 -1.3814  2.0286
   72CHL1  H26C 6504   2.724   6.112   4.209  1.3917  1.5543  0.0442
   72CHL1   C27 6505   2.923   6.228   4.082 -0.0089 -0.3880  0.1763
   72CHL1  H27A 6506   2.933   6.219   4.192  0.3761  2.6927  0.4854
   72CHL1  H27B 6507   2.991   6.165   4.021  0.0733  0.0182 -0.1590
   72CHL1  H27C 6508   2.954   6.332   4.058 -2.3926  0.6186  1.1245
   73CHL1    C3 6509   1.825   5.415   2.902  0.4850 -0.5480  0.2539
   73CHL1    H3 6510   1.913   5.482   2.896  1.5806 -2.0614 -2.1179
   73CHL1    O3 6511   1.794   5.397   2.759 -0.0072 -0.0968  0.1776
   73CHL1   H3' 6512   1.774   5.486   2.730 -0.0752 -0.1345  0.1082
   73CHL1    C4 6513   1.862   5.280   2.957 -0.2490 -0.2936  0.3675
   73CHL1   H4A 6514   1.771   5.224   2.927 -2.9525  4.0900 -0.4336
   73CHL1   H4B 6515   1.954   5.253   2.901  0.2517 -0.8340  1.4185
   73CHL1    C5 6516   1.886   5.286   3.105 -0.1814 -0.0784  0.3306
   73CHL1    C6 6517   1.997   5.238   3.169  0.7123 -0.0156  0.2489
   73CHL1    H6 6518   2.075   5.190   3.109  1.0972 -0.2981  0.9602
   73CHL1    C7 6519   2.009   5.226   3.321 -0.5015 -0.0705  0.4257
   73CHL1   H7A 6520   2.042   5.124   3.351 -1.3917  0.3339  3.0441
   73CHL1   H7B 6521   2.088   5.298   3.350 -0.1790  0.6007 -1.9485
   73CHL1    C8 6522   1.873   5.254   3.393  0.3123  1.0374  0.0147
   73CHL1    H8 6523   1.813   5.161   3.389  0.6825  0.8243 -1.3595
   73CHL1   C14 6524   1.890   5.277   3.549  0.0831 -0.0045  0.1093
   73CHL1   H14 6525   1.949   5.370   3.563 -1.0138  0.3829  2.8289
   73CHL1   C15 6526   1.963   5.167   3.631  1.0083 -0.6776 -0.1469
   73CHL1  H15A 6527   1.920   5.067   3.612 -1.6744 -0.1447  2.3049
   73CHL1  H15B 6528   2.073   5.169   3.611  1.2273 -0.3232  0.9830
   73CHL1   C16 6529   1.928   5.211   3.779  0.1097 -0.5450  0.3455
   73CHL1  H16A 6530   1.906   5.115   3.829 -2.5946 -0.5860 -0.7486
   73CHL1  H16B 6531   2.016   5.261   3.825 -0.3554 -0.3707  1.0594
   73CHL1   C17 6532   1.806   5.310   3.769 -0.2557 -1.0905 -0.3993
   73CHL1   H17 6533   1.845   5.413   3.784 -1.7734 -0.3216 -1.5411
   73CHL1   C13 6534   1.762   5.300   3.621  0.2119 -0.0022 -0.3358
   73CHL1   C18 6535   1.672   5.174   3.608 -0.0279  0.3604  0.1204
   73CHL1  H18A 6536   1.583   5.184   3.675 -0.3700  1.2150 -0.4506
   73CHL1  H18B 6537   1.644   5.132   3.509  0.6165 -2.0988  0.8900
   73CHL1  H18C 6538   1.715   5.082   3.655  2.2581  1.5169  0.4293
   73CHL1   C12 6539   1.699   5.431   3.569  0.4879 -0.1252 -0.2858
   73CHL1  H12A 6540   1.594   5.425   3.607  0.4422 -1.9451 -0.6063
   73CHL1  H12B 6541   1.758   5.522   3.593  1.4338 -0.3266 -1.7467
   73CHL1   C11 6542   1.677   5.413   3.416 -0.6736  0.7000 -0.4080
   73CHL1  H11A 6543   1.597   5.336   3.412  1.6953 -1.9513  0.3399
   73CHL1  H11B 6544   1.634   5.508   3.378 -2.1517  0.2509  0.0698
   73CHL1    C9 6545   1.799   5.367   3.333  0.5759  0.2864 -0.5438
   73CHL1    H9 6546   1.869   5.452   3.345 -1.3382  1.8992 -0.2833
   73CHL1   C10 6547   1.770   5.346   3.184 -0.2236  0.7411 -0.1685
   73CHL1   C19 6548   1.646   5.252   3.174 -0.2728 -0.5930 -0.1412
   73CHL1  H19A 6549   1.661   5.161   3.236  2.0658  1.0555  1.8835
   73CHL1  H19B 6550   1.552   5.302   3.206  1.0151  0.4991  2.1258
   73CHL1  H19C 6551   1.626   5.218   3.070 -3.2808 -0.3798  0.2587
   73CHL1    C1 6552   1.743   5.487   3.125  0.1480 -0.4719  0.3116
   73CHL1   H1A 6553   1.651   5.533   3.165  0.6568  0.4339  0.4548
   73CHL1   H1B 6554   1.826   5.552   3.161 -0.4724 -0.0389  0.9774
   73CHL1    C2 6555   1.709   5.484   2.978  0.1880  0.2981  0.0201
   73CHL1   H2A 6556   1.689   5.586   2.939 -1.6469 -0.5784 -1.4922
   73CHL1   H2B 6557   1.616   5.426   2.960  0.6538 -0.3489 -0.3540
   73CHL1   C20 6558   1.708   5.281   3.883  0.9113 -0.4374  0.3298
   73CHL1   H20 6559   1.685   5.172   3.888 -1.0951 -0.0102  1.7673
   73CHL1   C21 6560   1.583   5.376   3.870 -0.3315  0.6919  0.1520
   73CHL1  H21A 6561   1.623   5.480   3.869  0.7511  0.3320 -2.5573
   73CHL1  H21B 6562   1.508   5.358   3.950 -0.4111 -0.8761 -0.2381
   73CHL1  H21C 6563   1.524   5.367   3.777 -1.7987  1.7925  0.9275
   73CHL1   C22 6564   1.780   5.316   4.017  0.6836  0.3537  1.1618
   73CHL1  H22A 6565   1.882   5.354   3.995 -0.4734  1.8737 -2.2238
   73CHL1  H22B 6566   1.721   5.392   4.072 -0.4435 -1.1087  2.0471
   73CHL1   C23 6567   1.785   5.196   4.122  0.4405 -0.3647 -0.1679
   73CHL1  H23A 6568   1.680   5.199   4.160  1.1271  1.2376  1.7757
   73CHL1  H23B 6569   1.806   5.102   4.067  0.7772 -0.0873 -0.5134
   73CHL1   C24 6570   1.875   5.207   4.242 -0.3933 -1.2367  0.1040
   73CHL1  H24A 6571   1.978   5.215   4.202 -1.0695 -0.8380 -1.6743
   73CHL1  H24B 6572   1.860   5.300   4.301  1.1447 -0.7703 -0.2015
   73CHL1   C25 6573   1.864   5.095   4.340  0.9062  0.2809 -0.5287
   73CHL1   H25 6574   1.911   5.004   4.296  0.1904 -0.8423  0.9488
   73CHL1   C26 6575   1.949   5.123   4.467 -0.1383 -0.1360  0.1548
   73CHL1  H26A 6576   1.912   5.209   4.526  2.2209 -0.2447  1.9932
   73CHL1  H26B 6577   1.966   5.038   4.538 -0.2257 -0.0190  0.3165
   73CHL1  H26C 6578   2.054   5.144   4.436  0.1230  0.3910  1.3108
   73CHL1   C27 6579   1.724   5.078   4.398 -0.1636 -0.2889 -0.1356
   73CHL1  H27A 6580   1.719   5.005   4.482  0.5059  2.2581  2.2410
   73CHL1  H27B 6581   1.689   5.173   4.441  4.1865  1.1574  0.7195
   73CHL1  H27C 6582   1.658   5.039   4.317 -0.7222  0.2210  0.0691
   74CHL1    C3 6583   6.819   6.174   2.642 -0.7738  0.3178 -0.4038
   74CHL1    H3 6584   6.778   6.277   2.646  2.6719  1.7821  1.5102
   74CHL1    O3 6585   6.931   6.171   2.545  0.6305  0.1042 -0.0615
   74CHL1   H3' 6586   6.880   6.195   2.467 -0.6153 -1.0641  0.3440
   74CHL1    C4 6587   6.887   6.152   2.784  0.2463 -0.5767 -0.3780
   74CHL1   H4A 6588   6.956   6.066   2.774  0.6209 -1.0826  4.3390
   74CHL1   H4B 6589   6.950   6.243   2.799  0.1484 -0.2060 -1.9503
   74CHL1    C5 6590   6.796   6.118   2.900  0.6075  0.0852  0.5937
   74CHL1    C6 6591   6.813   6.172   3.023 -0.3861 -0.7933 -0.7220
   74CHL1    H6 6592   6.896   6.243   3.038 -0.5086 -0.6038 -0.9426
   74CHL1    C7 6593   6.744   6.129   3.151  0.1815 -0.1580 -0.0783
   74CHL1   H7A 6594   6.815   6.112   3.235 -2.2575  0.5558  2.2696
   74CHL1   H7B 6595   6.680   6.208   3.196  2.1409  0.4502  1.8853
   74CHL1    C8 6596   6.653   6.009   3.136 -0.2856 -0.7307 -0.0446
   74CHL1    H8 6597   6.725   5.925   3.154  1.5060  0.5946 -0.7249
   74CHL1   C14 6598   6.541   6.015   3.238  0.4241  0.1079 -0.0115
   74CHL1   H14 6599   6.480   6.099   3.198 -1.9005 -1.3253  0.3306
   74CHL1   C15 6600   6.580   6.033   3.377 -0.3138  0.3518 -0.8267
   74CHL1  H15A 6601   6.660   5.961   3.400 -1.3934 -0.5477  0.2339
   74CHL1  H15B 6602   6.621   6.131   3.409  2.1366 -0.7834 -0.2816
   74CHL1   C16 6603   6.445   6.006   3.451  0.0095 -0.3678 -0.2935
   74CHL1  H16A 6604   6.461   5.951   3.547  1.6411 -1.8353 -1.3422
   74CHL1  H16B 6605   6.401   6.104   3.477 -2.8201 -1.3233 -1.0701
   74CHL1   C17 6606   6.357   5.914   3.355  0.3384 -0.2422 -0.7363
   74CHL1   H17 6607   6.275   5.981   3.320 -1.1848 -1.7802 -0.2582
   74CHL1   C13 6608   6.450   5.890   3.242  0.3169 -0.7964  0.5601
   74CHL1   C18 6609   6.533   5.763   3.269 -0.0368  0.2389  0.5702
   74CHL1  H18A 6610   6.475   5.671   3.247  1.5320  0.1446 -4.3470
   74CHL1  H18B 6611   6.617   5.749   3.198 -0.9919  0.5392 -0.6478
   74CHL1  H18C 6612   6.573   5.761   3.373  0.3016  0.2595  0.4395
   74CHL1   C12 6613   6.389   5.879   3.098  0.1250  0.7043  0.9180
   74CHL1  H12A 6614   6.331   5.785   3.089 -0.2369  0.9101  1.0822
   74CHL1  H12B 6615   6.326   5.962   3.061 -0.6213 -1.3161 -2.8583
   74CHL1   C11 6616   6.503   5.873   2.987 -0.7321 -0.0974 -0.1867
   74CHL1  H11A 6617   6.560   5.779   2.995 -2.6367 -1.2292  0.6405
   74CHL1  H11B 6618   6.450   5.874   2.889 -1.0027  1.1176 -0.0545
   74CHL1    C9 6619   6.583   6.003   2.995 -0.0464  0.1760 -0.4121
   74CHL1    H9 6620   6.514   6.088   2.975 -0.1144  0.6515  1.6626
   74CHL1   C10 6621   6.692   6.011   2.879  0.0925  0.0993 -0.2892
   74CHL1   C19 6622   6.756   5.870   2.858 -0.4658  0.0960 -0.1015
   74CHL1  H19A 6623   6.829   5.875   2.773 -0.9677 -1.9608 -0.7159
   74CHL1  H19B 6624   6.821   5.833   2.941 -0.3999 -0.7843 -0.5270
   74CHL1  H19C 6625   6.678   5.797   2.828 -1.3986  0.2490  1.8042
   74CHL1    C1 6626   6.617   6.065   2.746 -0.1908  0.1866 -0.0613
   74CHL1   H1A 6627   6.538   5.989   2.728 -0.6849  0.5142  0.6699
   74CHL1   H1B 6628   6.570   6.164   2.769  1.4545  0.8326  0.6433
   74CHL1    C2 6629   6.709   6.067   2.623 -0.1143 -0.0154  0.1609
   74CHL1   H2A 6630   6.654   6.087   2.529 -2.0097 -2.4840  0.6383
   74CHL1   H2B 6631   6.766   5.972   2.610 -0.1066 -0.4368  2.6708
   74CHL1   C20 6632   6.284   5.805   3.433  0.4092  0.0962  1.0012
   74CHL1   H20 6633   6.350   5.720   3.461 -0.7819 -0.7707  1.2166
   74CHL1   C21 6634   6.182   5.734   3.333 -0.0116 -0.8021 -0.1644
   74CHL1  H21A 6635   6.142   5.648   3.391 -1.6096 -0.9613 -1.4339
   74CHL1  H21B 6636   6.241   5.701   3.245 -0.2405 -1.4219 -0.0902
   74CHL1  H21C 6637   6.109   5.812   3.302  0.7373 -0.5082 -1.2231
   74CHL1   C22 6638   6.189   5.850   3.551 -0.6446 -0.0852  0.1980
   74CHL1  H22A 6639   6.235   5.938   3.601 -2.4553  0.5001  0.9379
   74CHL1  H22B 6640   6.091   5.873   3.504  0.1037  2.5837 -0.2453
   74CHL1   C23 6641   6.168   5.734   3.659 -0.1993  0.0985  1.1819
   74CHL1  H23A 6642   6.101   5.774   3.738  0.6759  3.3155  0.4719
   74CHL1  H23B 6643   6.111   5.654   3.608  0.6168  1.1632 -1.5469
   74CHL1   C24 6644   6.302   5.698   3.721 -0.4491  0.5067  0.5003
   74CHL1  H24A 6645   6.353   5.633   3.646 -0.0294  0.5831  0.7167
   74CHL1  H24B 6646   6.379   5.777   3.734  1.2541 -1.1641  1.0573
   74CHL1   C25 6647   6.292   5.612   3.845 -0.5271  1.0725 -0.4865
   74CHL1   H25 6648   6.210   5.538   3.832 -0.5649  1.0754 -0.2614
   74CHL1   C26 6649   6.433   5.541   3.864  0.3223 -0.0319  0.3492
   74CHL1  H26A 6650   6.462   5.473   3.781  2.3812 -1.1980  1.9192
   74CHL1  H26B 6651   6.517   5.613   3.876  1.4328 -1.2481  0.2129
   74CHL1  H26C 6652   6.413   5.496   3.964 -1.1218 -0.3197 -0.0607
   74CHL1   C27 6653   6.271   5.693   3.973  0.2203 -0.1824  0.0562
   74CHL1  H27A 6654   6.282   5.629   4.064  0.9688  0.0815  0.1607
   74CHL1  H27B 6655   6.351   5.769   3.987  0.0891 -0.2125  1.0638
   74CHL1  H27C 6656   6.180   5.757   3.969  1.5463  1.7207 -2.7804
   75CHL1    C3 6657   0.630   0.381   2.706  0.0288 -0.2559 -0.9141
   75CHL1    H3 6658   0.528   0.365   2.748  0.1816 -1.1823 -0.8726
   75CHL1    O3 6659   0.616   0.435   2.577 -0.2462  0.2152 -0.1808
   75CHL1   H3' 6660   0.700   0.410   2.540  0.3977  0.6881  0.9147
   75CHL1    C4 6661   0.717   0.482   2.796 -0.1721 -0.1523  0.3303
   75CHL1   H4A 6662   0.818   0.489   2.750 -0.0669 -0.2948  0.5381
   75CHL1   H4B 6663   0.668   0.582   2.793  2.7669  1.4028  0.2226
   75CHL1    C5 6664   0.733   0.425   2.934  0.0992  0.5081  0.2264
   75CHL1    C6 6665   0.702   0.497   3.042  0.4628 -0.2018 -0.2351
   75CHL1    H6 6666   0.658   0.597   3.030  2.9745  1.1059  0.7327
   75CHL1    C7 6667   0.738   0.464   3.186  0.4740 -0.2539  0.5651
   75CHL1   H7A 6668   0.776   0.555   3.236 -1.4980  0.7663  0.3074
   75CHL1   H7B 6669   0.642   0.449   3.240 -0.2471 -0.8059 -0.7881
   75CHL1    C8 6670   0.831   0.345   3.197 -0.2146  0.1869 -0.7194
   75CHL1    H8 6671   0.933   0.384   3.176 -0.6496  1.5089 -0.4620
   75CHL1   C14 6672   0.823   0.285   3.344  0.9575  0.3673  0.1247
   75CHL1   H14 6673   0.716   0.256   3.347  1.1122 -0.6624 -1.9590
   75CHL1   C15 6674   0.841   0.382   3.463  0.4589  0.5860  0.6527
   75CHL1  H15A 6675   0.911   0.467   3.446 -0.2885  0.8458 -1.4877
   75CHL1  H15B 6676   0.747   0.435   3.490  1.6713  3.1083  0.2422
   75CHL1   C16 6677   0.891   0.282   3.573 -0.4203  0.0936 -0.6933
   75CHL1  H16A 6678   0.994   0.300   3.610 -0.1920 -0.0190 -1.2651
   75CHL1  H16B 6679   0.821   0.287   3.659 -0.1453 -0.5634 -0.4228
   75CHL1   C17 6680   0.891   0.132   3.514 -0.3001 -0.2708  0.0000
   75CHL1   H17 6681   0.786   0.095   3.524 -0.8340  1.4869  1.5721
   75CHL1   C13 6682   0.914   0.161   3.362 -0.3896 -0.5584 -0.9983
   75CHL1   C18 6683   1.058   0.211   3.337 -0.3827  0.7374 -0.4458
   75CHL1  H18A 6684   1.082   0.304   3.393 -0.7243  1.2691 -1.1587
   75CHL1  H18B 6685   1.137   0.133   3.346 -0.5713  0.1363 -3.0752
   75CHL1  H18C 6686   1.068   0.243   3.231 -1.5912  1.9603 -0.2187
   75CHL1   C12 6687   0.877   0.056   3.265  0.8728 -0.1559 -0.1631
   75CHL1  H12A 6688   0.928  -0.042   3.278  0.5252 -0.0342  2.8605
   75CHL1  H12B 6689   0.769   0.043   3.284  0.0931  3.5364 -1.2723
   75CHL1   C11 6690   0.885   0.100   3.114 -0.6316  0.0432 -0.7568
   75CHL1  H11A 6691   0.992   0.099   3.081 -0.4546 -0.4363 -0.1808
   75CHL1  H11B 6692   0.830   0.023   3.057  1.8717 -1.8959 -0.7505
   75CHL1    C9 6693   0.807   0.233   3.091 -0.6792 -0.1225  0.3273
   75CHL1    H9 6694   0.700   0.208   3.109 -0.4661 -1.2141  0.1509
   75CHL1   C10 6695   0.814   0.283   2.940  0.8477 -0.9838  0.0067
   75CHL1   C19 6696   0.960   0.297   2.901  0.3859  0.6614 -0.5106
   75CHL1  H19A 6697   0.964   0.343   2.799  0.5119 -0.5434 -1.0649
   75CHL1  H19B 6698   1.014   0.356   2.978 -1.7460 -0.9935  2.4112
   75CHL1  H19C 6699   0.997   0.192   2.902  0.8048  0.8111 -0.1732
   75CHL1    C1 6700   0.736   0.192   2.848  0.7263  0.1313 -0.2098
   75CHL1   H1A 6701   0.787   0.094   2.831  0.5393 -0.4465  2.2550
   75CHL1   H1B 6702   0.650   0.172   2.915  2.6405 -1.4885  1.9393
   75CHL1    C2 6703   0.687   0.240   2.707  0.3439  0.2420  0.2304
   75CHL1   H2A 6704   0.610   0.166   2.677  0.3966  0.0914  0.4622
   75CHL1   H2B 6705   0.777   0.222   2.645  0.2637  0.1314  0.1448
   75CHL1   C20 6706   1.001   0.046   3.588  0.3035 -0.4108  0.4879
   75CHL1   H20 6707   1.099   0.095   3.569 -0.1466 -0.1883 -1.5714
   75CHL1   C21 6708   1.026  -0.094   3.520  1.3056  0.4629 -0.5942
   75CHL1  H21A 6709   1.101  -0.153   3.578 -0.1511  0.5546  1.4706
   75CHL1  H21B 6710   1.080  -0.070   3.425  2.7395  0.1718  0.1219
   75CHL1  H21C 6711   0.939  -0.162   3.509  1.4635  0.2945 -0.8214
   75CHL1   C22 6712   0.969   0.026   3.738 -0.8786 -0.3183  0.5026
   75CHL1  H22A 6713   0.861   0.053   3.741 -0.4884  1.3956  0.4235
   75CHL1  H22B 6714   0.976  -0.078   3.775  0.5109  0.3280  2.2395
   75CHL1   C23 6715   1.061   0.108   3.835  0.0494  0.0367  0.2209
   75CHL1  H23A 6716   1.166   0.082   3.810 -0.6722 -1.8563 -1.1252
   75CHL1  H23B 6717   1.058   0.214   3.801  1.4945 -0.1947 -0.7241
   75CHL1   C24 6718   1.038   0.094   3.991 -0.1328  0.5607 -0.0404
   75CHL1  H24A 6719   1.029  -0.016   4.004  2.8305 -0.0659 -2.2691
   75CHL1  H24B 6720   1.134   0.126   4.037  1.6296  0.4564 -3.3605
   75CHL1   C25 6721   0.916   0.177   4.045 -0.0243  0.2193  0.1377
   75CHL1   H25 6722   0.833   0.166   3.972 -1.2081 -1.2437  1.6266
   75CHL1   C26 6723   0.864   0.126   4.174  0.9384 -0.0296  0.3347
   75CHL1  H26A 6724   0.861   0.015   4.180  2.7684 -0.0446  1.7118
   75CHL1  H26B 6725   0.934   0.167   4.250 -0.2473  0.7769  1.0230
   75CHL1  H26C 6726   0.768   0.179   4.191  1.7699  1.8320 -0.4934
   75CHL1   C27 6727   0.941   0.327   4.055  0.4374 -0.1567 -0.2555
   75CHL1  H27A 6728   0.976   0.379   3.964  0.8057  1.0981  0.5869
   75CHL1  H27B 6729   0.855   0.388   4.091  1.1616  0.5757  0.2623
   75CHL1  H27C 6730   1.027   0.337   4.124  0.3479 -1.8126  0.1431
   76CHL1    C3 6731   3.166   5.743   2.378 -0.1402  0.1492  0.4987
   76CHL1    H3 6732   3.261   5.695   2.343 -0.3390 -2.0565  2.6772
   76CHL1    O3 6733   3.093   5.782   2.260 -0.4486 -0.2761 -0.3396
   76CHL1   H3' 6734   3.149   5.849   2.221  0.1513  0.1030  1.0901
   76CHL1    C4 6735   3.085   5.645   2.466 -0.1880 -0.0899 -0.1757
   76CHL1   H4A 6736   2.986   5.670   2.510  1.3309  1.0893  2.9202
   76CHL1   H4B 6737   3.067   5.557   2.401 -0.5296 -0.3279  0.2364
   76CHL1    C5 6738   3.154   5.610   2.602  0.0135 -0.3670  0.3759
   76CHL1    C6 6739   3.183   5.481   2.634 -0.1815 -0.7935 -0.6162
   76CHL1    H6 6740   3.154   5.404   2.560 -0.4981 -1.3764  0.1084
   76CHL1    C7 6741   3.254   5.444   2.768 -0.1588 -0.0173  0.4107
   76CHL1   H7A 6742   3.193   5.365   2.816  0.7168  0.0934  1.7688
   76CHL1   H7B 6743   3.358   5.406   2.760 -0.0287  0.0768  1.4621
   76CHL1    C8 6744   3.251   5.560   2.871  0.4475  0.6955  0.5788
   76CHL1    H8 6745   3.144   5.568   2.902 -1.4243 -2.1138 -4.0844
   76CHL1   C14 6746   3.344   5.525   2.995  0.1920  1.1021  0.5383
   76CHL1   H14 6747   3.447   5.518   2.955 -0.6487  0.6125 -1.6840
   76CHL1   C15 6748   3.314   5.394   3.076  0.4307  0.1228 -0.2384
   76CHL1  H15A 6749   3.205   5.372   3.081  0.3208  0.8093  0.9976
   76CHL1  H15B 6750   3.371   5.308   3.036  1.3554 -0.0034  1.2770
   76CHL1   C16 6751   3.376   5.420   3.215 -0.1710  0.2338  0.5467
   76CHL1  H16A 6752   3.300   5.408   3.295  1.1267 -1.0868  1.6387
   76CHL1  H16B 6753   3.459   5.348   3.233  2.4974  3.1610  0.8999
   76CHL1   C17 6754   3.435   5.562   3.203 -0.3321  0.1160  0.0740
   76CHL1   H17 6755   3.529   5.535   3.150 -1.5352 -3.0631 -0.6557
   76CHL1   C13 6756   3.354   5.636   3.092  0.3147  0.3469 -0.3870
   76CHL1   C18 6757   3.213   5.671   3.145  0.3473  0.5236 -1.0090
   76CHL1  H18A 6758   3.167   5.586   3.198 -0.1634  2.0364  1.1122
   76CHL1  H18B 6759   3.215   5.751   3.222 -0.3912 -1.1300  0.8015
   76CHL1  H18C 6760   3.147   5.715   3.067  0.0326  0.2378 -0.9075
   76CHL1   C12 6761   3.414   5.757   3.031 -0.0038 -0.4875 -0.8194
   76CHL1  H12A 6762   3.413   5.834   3.111  0.4201 -0.6043 -0.6972
   76CHL1  H12B 6763   3.515   5.730   2.994  0.4532  0.1264 -0.0483
   76CHL1   C11 6764   3.334   5.803   2.903 -0.1312 -0.9140 -0.3328
   76CHL1  H11A 6765   3.245   5.857   2.941  0.9075  0.7770 -0.2366
   76CHL1  H11B 6766   3.397   5.884   2.862 -0.2158  0.5509  2.2028
   76CHL1    C9 6767   3.293   5.689   2.804 -0.6179  0.9202 -0.2886
   76CHL1    H9 6768   3.392   5.675   2.756 -1.1309 -1.6515 -0.7362
   76CHL1   C10 6769   3.198   5.728   2.683  0.4038  0.2637 -1.1766
   76CHL1   C19 6770   3.070   5.791   2.733 -0.2486 -0.5417  0.0955
   76CHL1  H19A 6771   3.087   5.889   2.781  0.1806  0.5784 -2.1890
   76CHL1  H19B 6772   2.984   5.809   2.665 -1.4193 -0.2430  1.6161
   76CHL1  H19C 6773   3.021   5.726   2.808 -2.2146 -0.7943 -1.3281
   76CHL1    C1 6774   3.272   5.838   2.593 -0.2393 -0.0330  0.0318
   76CHL1   H1A 6775   3.301   5.929   2.650  1.7963 -0.3649 -0.3984
   76CHL1   H1B 6776   3.368   5.787   2.571 -1.6504 -2.9454  0.0922
   76CHL1    C2 6777   3.204   5.870   2.456  0.0224 -0.5052  0.0442
   76CHL1   H2A 6778   3.261   5.936   2.388  0.0909 -1.8434 -1.2506
   76CHL1   H2B 6779   3.104   5.917   2.466  0.5692  1.0192 -1.3073
   76CHL1   C20 6780   3.463   5.640   3.335  0.3173  0.2956  0.1944
   76CHL1   H20 6781   3.462   5.748   3.311  1.2560  0.0774 -0.9151
   76CHL1   C21 6782   3.609   5.602   3.377 -0.2134  0.2785  0.1888
   76CHL1  H21A 6783   3.636   5.671   3.459 -0.0738  0.2905  0.1322
   76CHL1  H21B 6784   3.677   5.621   3.292  0.2185 -1.1535  0.1918
   76CHL1  H21C 6785   3.615   5.496   3.411  0.4912 -0.2442 -1.4499
   76CHL1   C22 6786   3.364   5.611   3.451  0.7185 -0.0298 -0.9484
   76CHL1  H22A 6787   3.265   5.599   3.402 -0.0517  0.6312  0.4070
   76CHL1  H22B 6788   3.387   5.514   3.499  1.1315  1.0526  1.1244
   76CHL1   C23 6789   3.352   5.726   3.553  0.2097 -0.4114  0.3723
   76CHL1  H23A 6790   3.455   5.748   3.589  1.0302 -0.9769 -1.5495
   76CHL1  H23B 6791   3.337   5.827   3.509 -1.3780 -0.0179  1.6880
   76CHL1   C24 6792   3.265   5.705   3.675  0.3328  0.7230 -0.7753
   76CHL1  H24A 6793   3.296   5.778   3.752 -0.1324  2.2062 -1.9492
   76CHL1  H24B 6794   3.162   5.726   3.637  0.0953 -1.0410 -1.1882
   76CHL1   C25 6795   3.249   5.562   3.734  0.2244 -0.1267 -0.2902
   76CHL1   H25 6796   3.245   5.487   3.652 -0.1529  0.1133 -0.4983
   76CHL1   C26 6797   3.369   5.524   3.824 -0.0068 -0.5642  0.0453
   76CHL1  H26A 6798   3.387   5.601   3.903  1.2700 -1.7133  0.9186
   76CHL1  H26B 6799   3.356   5.431   3.883 -0.5273  0.8200  2.2288
   76CHL1  H26C 6800   3.460   5.520   3.761 -0.6315 -1.3034 -0.8421
   76CHL1   C27 6801   3.119   5.549   3.823 -0.7451  0.8927  0.4168
   76CHL1  H27A 6802   3.126   5.460   3.889 -1.0663  0.1196 -0.5542
   76CHL1  H27B 6803   3.087   5.636   3.884 -1.5068  0.6846  0.3252
   76CHL1  H27C 6804   3.025   5.541   3.764 -0.4996  2.4087 -0.2171
   77SOPE     N 6805   0.041   6.820   6.536 -0.2776  0.3439  0.0935
   77SOPE   HN1 6806   0.104   6.742   6.563 -0.4945 -0.0318 -0.4743
   77SOPE   HN2 6807   0.036   6.816   6.432  0.2853 -0.6827  0.0945
   77SOPE   HN3 6808   0.102   6.900   6.565  3.4671 -2.2814  0.1977
   77SOPE   C12 6809  -0.089   6.809   6.611  0.2358 -0.4725 -0.1818
   77SOPE  H12A 6810  -0.132   6.706   6.612 -1.5126  0.2227  1.5872
   77SOPE  H12B 6811  -0.160   6.869   6.551  0.3851 -2.5940 -2.7283
   77SOPE   C11 6812  -0.078   6.858   6.755  1.0878  0.6147  0.2008
   77SOPE  H11A 6813  -0.033   6.959   6.750  1.0349  0.5756 -2.2852
   77SOPE  H11B 6814  -0.005   6.795   6.811  0.2044  0.0822  0.7895
   77SOPE     P 6815  -0.308   6.955   6.812  0.3866  0.2985  0.2166
   77SOPE   O13 6816  -0.372   6.972   6.944 -0.3099 -0.2888 -0.3055
   77SOPE   O14 6817  -0.396   6.914   6.703 -0.0308 -0.1621 -0.3230
   77SOPE   O12 6818  -0.202   6.847   6.835 -0.2940 -0.4634 -0.1693
   77SOPE   O11 6819  -0.233   7.096   6.779 -0.3255  0.3844  0.0095
   77SOPE    C1 6820  -0.301   7.203   6.718  0.0426 -0.4380  0.4109
   77SOPE    HA 6821  -0.274   7.292   6.779  0.3370  0.2140 -0.6453
   77SOPE    HB 6822  -0.412   7.195   6.720 -0.1756  1.6868 -0.6214
   77SOPE    C2 6823  -0.255   7.233   6.570 -0.2070  0.2844 -0.3726
   77SOPE    HS 6824  -0.304   7.327   6.538 -0.5973  1.4015  3.1389
   77SOPE   O21 6825  -0.285   7.118   6.486  0.0514  0.1494 -0.5382
   77SOPE   C21 6826  -0.411   7.110   6.449 -0.0405  1.1363 -0.2600
   77SOPE   O22 6827  -0.506   7.185   6.472 -0.5473  0.2187 -0.1986
   77SOPE   C22 6828  -0.427   6.974   6.387 -0.0281  0.5289  0.0242
   77SOPE   H2R 6829  -0.515   6.930   6.438 -1.1588 -0.7003 -2.7582
   77SOPE   H2S 6830  -0.345   6.901   6.406 -1.3399 -0.5704  1.7466
   77SOPE    C3 6831  -0.102   7.257   6.572 -0.2742  0.2021  0.0578
   77SOPE    HX 6832  -0.057   7.166   6.617 -0.4917  0.6467  1.2156
   77SOPE    HY 6833  -0.099   7.343   6.642 -1.0755  0.1008  0.2259
   77SOPE   O31 6834  -0.056   7.279   6.439  0.1458 -0.8272 -0.0903
   77SOPE   C31 6835   0.040   7.191   6.395 -0.8206 -0.4872  0.2400
   77SOPE   O32 6836   0.091   7.104   6.464 -0.7740  0.2599 -0.0776
   77SOPE   C32 6837   0.062   7.219   6.244  0.0895  0.0176  0.2551
   77SOPE   H2X 6838   0.137   7.299   6.230  0.0161  0.1359  0.5477
   77SOPE   H2Y 6839  -0.035   7.244   6.195 -1.8556 -1.0927  3.2332
   77SOPE   C23 6840  -0.453   6.992   6.235  0.8995  0.2438  0.8562
   77SOPE   H3R 6841  -0.558   7.024   6.216  1.0399 -0.2392 -0.9232
   77SOPE   H3S 6842  -0.461   6.887   6.201  1.9668 -0.5734  2.9780
   77SOPE   C24 6843  -0.340   7.053   6.143 -0.2835 -0.4639 -0.3074
   77SOPE   H4R 6844  -0.307   7.148   6.189 -1.8757 -0.1039  0.1602
   77SOPE   H4S 6845  -0.250   6.988   6.151 -0.8191 -1.1672  0.1364
   77SOPE   C25 6846  -0.383   7.096   6.005  0.0931 -0.5487 -0.2226
   77SOPE   H5R 6847  -0.449   7.018   5.960  0.7919 -0.9716 -0.5349
   77SOPE   H5S 6848  -0.434   7.194   6.009  0.6301 -0.2539 -0.4829
   77SOPE   C26 6849  -0.261   7.114   5.914 -0.2042  0.4832 -0.2819
   77SOPE   H6R 6850  -0.184   7.170   5.971 -1.4924  0.8307  1.2084
   77SOPE   H6S 6851  -0.224   7.012   5.891  0.2262 -0.2968  3.3407
   77SOPE   C27 6852  -0.294   7.196   5.785 -0.3017 -0.4387 -0.7653
   77SOPE   H7R 6853  -0.349   7.286   5.818  0.9180 -0.3008  1.0499
   77SOPE   H7S 6854  -0.196   7.219   5.739  0.5071  1.1717  1.5502
   77SOPE   C28 6855  -0.374   7.118   5.683  0.0111  0.1026 -0.7545
   77SOPE   H8R 6856  -0.343   7.012   5.675 -2.4845 -0.6936 -0.6017
   77SOPE   H8S 6857  -0.475   7.104   5.728  1.0816 -0.1600  1.7066
   77SOPE   C29 6858  -0.372   7.179   5.546 -0.2707  0.1260  0.5645
   77SOPE   H91 6859  -0.462   7.240   5.529 -1.1236 -1.0905  0.5400
   77SOPE  C210 6860  -0.276   7.165   5.449  0.3173  0.5838 -0.9554
   77SOPE  H101 6861  -0.280   7.235   5.365 -2.8706  0.8196 -0.7255
   77SOPE  C211 6862  -0.156   7.072   5.470  0.2919  0.2266  0.1962
   77SOPE  H11R 6863  -0.137   7.034   5.572  0.9554 -2.0933 -0.7163
   77SOPE  H11S 6864  -0.060   7.124   5.449  0.5530 -0.9254 -1.8081
   77SOPE  C212 6865  -0.151   6.956   5.371 -0.4552  0.4255  0.0721
   77SOPE  H12R 6866  -0.248   6.902   5.362 -0.5687  0.4747  0.8858
   77SOPE  H12S 6867  -0.084   6.874   5.401 -2.4698 -1.4162 -0.2175
   77SOPE  C213 6868  -0.107   7.008   5.230 -0.5314 -0.0570  0.3107
   77SOPE  H13R 6869  -0.001   7.040   5.238 -0.9918  1.7868 -0.5439
   77SOPE  H13S 6870  -0.156   7.105   5.210  2.1488  1.4680  0.5854
   77SOPE  C214 6871  -0.139   6.912   5.114 -0.1131 -0.4342  0.0587
   77SOPE  H14R 6872  -0.245   6.884   5.130  0.7046 -3.6227  0.7502
   77SOPE  H14S 6873  -0.084   6.816   5.125  0.9565 -0.2457 -2.6265
   77SOPE  C215 6874  -0.114   6.960   4.967 -0.2890 -0.2370  0.4318
   77SOPE  H15R 6875  -0.004   6.965   4.955 -0.2885  1.1100  0.8468
   77SOPE  H15S 6876  -0.142   7.067   4.966  1.2531  0.1834  0.3578
   77SOPE  C216 6877  -0.184   6.871   4.858  0.2516  0.1773  0.2504
   77SOPE  H16R 6878  -0.162   6.921   4.761  2.5770 -0.0743  0.6027
   77SOPE  H16S 6879  -0.294   6.873   4.872 -0.0006  0.6724 -1.4950
   77SOPE  C217 6880  -0.119   6.737   4.835 -0.0273  0.5090 -0.9913
   77SOPE  H17R 6881  -0.150   6.657   4.905 -1.3309  0.5791 -1.4652
   77SOPE  H17S 6882  -0.009   6.746   4.853 -0.4495  1.1850  1.6059
   77SOPE  C218 6883  -0.143   6.684   4.697  0.1887 -0.0920  0.0957
   77SOPE  H18R 6884  -0.148   6.573   4.703 -1.4152  0.0204  2.0208
   77SOPE  H18S 6885  -0.063   6.717   4.627  0.6628 -0.8439  0.2711
   77SOPE  H18T 6886  -0.232   6.730   4.650  0.5970  0.3257 -0.2779
   77SOPE   C33 6887   0.128   7.089   6.168  0.5799 -0.6442  0.0174
   77SOPE   H3X 6888   0.064   6.998   6.178  1.7838 -1.5489 -0.2173
   77SOPE   H3Y 6889   0.225   7.065   6.218  0.1426  0.5871  1.5261
   77SOPE   C34 6890   0.148   7.112   6.021  0.5555  0.4254  0.1327
   77SOPE   H4X 6891   0.218   7.197   6.005  2.3042 -1.0237 -0.2131
   77SOPE   H4Y 6892   0.058   7.137   5.961  1.3549  2.4431 -0.3296
   77SOPE   C35 6893   0.207   6.989   5.946 -0.2888 -0.6080 -0.5481
   77SOPE   H5X 6894   0.301   6.955   5.994  0.0890  1.7489  0.5590
   77SOPE   H5Y 6895   0.220   7.016   5.839 -1.9130 -2.1850 -1.1879
   77SOPE   C36 6896   0.114   6.874   5.927 -0.5604  0.2333  0.3997
   77SOPE   H6X 6897   0.020   6.917   5.886 -0.3771  1.3526  1.1095
   77SOPE   H6Y 6898   0.097   6.842   6.033 -0.4160  1.4060  0.7912
   77SOPE   C37 6899   0.186   6.769   5.833  0.4732 -0.4293 -0.1492
   77SOPE   H7X 6900   0.145   6.669   5.858  0.7436 -0.0672  1.9485
   77SOPE   H7Y 6901   0.295   6.757   5.853  0.4625  0.8962  0.9251
   77SOPE   C38 6902   0.156   6.805   5.685  1.1050 -0.2625 -1.4594
   77SOPE   H8X 6903   0.215   6.897   5.665  0.0560  0.8673  0.3182
   77SOPE   H8Y 6904   0.049   6.827   5.663  0.5816 -0.9621  0.1805
   77SOPE   C39 6905   0.205   6.696   5.595  0.2845  0.4079  0.3920
   77SOPE   H9X 6906   0.149   6.602   5.612  0.7950  0.3316  1.7550
   77SOPE   H9Y 6907   0.310   6.671   5.620  0.9979  0.6615 -2.1087
   77SOPE  C310 6908   0.195   6.746   5.452  0.0418  0.5065  0.0394
   77SOPE  H10X 6909   0.257   6.837   5.437 -0.8197  0.9149 -1.1937
   77SOPE  H10Y 6910   0.090   6.780   5.438 -0.4047 -1.0253 -0.5948
   77SOPE  C311 6911   0.248   6.642   5.347 -0.4227 -0.2461  0.2873
   77SOPE  H11X 6912   0.194   6.546   5.360  2.8774 -1.9127  3.2549
   77SOPE  H11Y 6913   0.348   6.612   5.385 -0.1074 -0.1214 -0.4359
   77SOPE  C312 6914   0.260   6.678   5.195  0.3860  0.4859 -0.0901
   77SOPE  H12X 6915   0.340   6.755   5.193  2.7857 -1.8819 -0.2636
   77SOPE  H12Y 6916   0.167   6.731   5.164  0.9021  1.3421 -0.2124
   77SOPE  C313 6917   0.306   6.553   5.121 -0.4644 -0.4223  0.1790
   77SOPE  H13X 6918   0.223   6.479   5.121 -1.2298  0.2960 -2.8174
   77SOPE  H13Y 6919   0.398   6.512   5.167 -0.9716 -0.7126  0.9575
   77SOPE  C314 6920   0.330   6.574   4.970  0.2623 -0.5010 -0.4383
   77SOPE  H14X 6921   0.429   6.623   4.957  1.2152 -2.2304  0.0329
   77SOPE  H14Y 6922   0.245   6.641   4.943 -0.6290 -0.8523  1.3285
   77SOPE  C315 6923   0.321   6.440   4.899  0.3045  0.7669 -0.1188
   77SOPE  H15X 6924   0.217   6.400   4.899  0.0063  1.3822  2.2123
   77SOPE  H15Y 6925   0.377   6.372   4.967  0.2743 -0.0723 -0.9147
   77SOPE  C316 6926   0.370   6.437   4.755 -1.1180  0.3183  0.2719
   77SOPE  H16X 6927   0.378   6.331   4.726  1.4937  0.9710 -1.8132
   77SOPE  H16Y 6928   0.472   6.482   4.750 -0.2524 -1.3869  1.6492
   77SOPE  C317 6929   0.268   6.514   4.664 -0.1008 -0.0926 -0.2661
   77SOPE  H17X 6930   0.265   6.614   4.713 -0.5535 -0.8510  1.3196
   77SOPE  H17Y 6931   0.170   6.462   4.669 -0.9197  1.2461 -1.5133
   77SOPE  C318 6932   0.313   6.524   4.519 -0.3604 -0.6170  0.3837
   77SOPE  H18X 6933   0.273   6.611   4.463  3.4303  1.0596 -0.0020
   77SOPE  H18Y 6934   0.272   6.433   4.469  0.0497 -0.2982 -0.5493
   77SOPE  H18Z 6935   0.424   6.521   4.512 -0.3129 -0.0417  0.7879
   78SOPE     N 6936   4.107   3.137   6.549 -0.4766  0.6169  0.4694
   78SOPE   HN1 6937   4.063   3.117   6.457 -2.4171  1.1770  1.2130
   78SOPE   HN2 6938   4.089   3.057   6.614  0.7385 -1.0483 -1.1309
   78SOPE   HN3 6939   4.070   3.230   6.577  0.4859  1.8188 -1.9290
   78SOPE   C12 6940   4.254   3.146   6.538  0.0811 -0.0974  0.6684
   78SOPE  H12A 6941   4.292   3.044   6.513 -1.1488 -0.4532  0.1800
   78SOPE  H12B 6942   4.300   3.180   6.633  0.1633 -2.5552  1.5853
   78SOPE   C11 6943   4.301   3.233   6.419 -0.2197  0.5451  0.0083
   78SOPE  H11A 6944   4.256   3.193   6.325  2.4737  1.6831 -1.8935
   78SOPE  H11B 6945   4.410   3.211   6.410 -0.3448 -0.6389  1.1350
   78SOPE     P 6946   4.385   3.479   6.449  0.3607  0.0425 -0.0613
   78SOPE   O13 6947   4.504   3.416   6.507  0.3523 -0.0427  0.2772
   78SOPE   O14 6948   4.328   3.595   6.512  0.0599 -0.2499 -0.3549
   78SOPE   O12 6949   4.269   3.372   6.441  0.4167 -0.5513  0.7377
   78SOPE   O11 6950   4.412   3.515   6.304 -0.2896 -0.0428  0.3634
   78SOPE    C1 6951   4.307   3.562   6.219 -0.2820 -0.3555  0.2211
   78SOPE    HA 6952   4.320   3.671   6.203  1.5982 -0.5724  0.1503
   78SOPE    HB 6953   4.209   3.556   6.273  0.2447  0.6836  1.3356
   78SOPE    C2 6954   4.271   3.478   6.098  0.1691  0.1718  0.5187
   78SOPE    HS 6955   4.275   3.371   6.127  3.3550  0.0352 -0.0121
   78SOPE   O21 6956   4.366   3.508   5.990 -0.5276 -0.8651 -0.4981
   78SOPE   C21 6957   4.465   3.425   5.971 -0.4350 -0.1919  0.3389
   78SOPE   O22 6958   4.491   3.326   6.037  0.5276 -0.5071  0.5876
   78SOPE   C22 6959   4.558   3.469   5.860  0.5659  0.1009  0.5739
   78SOPE   H2R 6960   4.666   3.460   5.887  0.7066  2.9922  1.2626
   78SOPE   H2S 6961   4.541   3.576   5.837 -0.2184 -0.2470 -0.5327
   78SOPE    C3 6962   4.128   3.511   6.042  0.6192 -0.2809 -0.0555
   78SOPE    HX 6963   4.144   3.617   6.015  1.7158 -1.0030 -2.4861
   78SOPE    HY 6964   4.050   3.504   6.120  1.8499 -1.4076  1.1418
   78SOPE   O31 6965   4.080   3.443   5.921 -0.5199 -0.3875 -0.3958
   78SOPE   C31 6966   4.029   3.319   5.947 -0.0590  0.3541 -0.1445
   78SOPE   O32 6967   4.014   3.275   6.055 -0.5007 -0.0346 -0.3795
   78SOPE   C32 6968   3.994   3.247   5.822  0.4618  0.2035  0.0895
   78SOPE   H2X 6969   3.885   3.254   5.801  0.4235 -0.2354  0.1268
   78SOPE   H2Y 6970   4.015   3.139   5.840 -0.5074 -0.1349 -0.6930
   78SOPE   C23 6971   4.533   3.380   5.732 -0.4964 -1.1223 -0.3001
   78SOPE   H3R 6972   4.523   3.278   5.774  1.0439 -1.1424  0.0913
   78SOPE   H3S 6973   4.627   3.378   5.674  1.1444 -1.2545  2.2080
   78SOPE   C24 6974   4.418   3.432   5.644 -0.1568  0.7533 -0.2281
   78SOPE   H4R 6975   4.323   3.430   5.703 -0.9286 -0.9852 -1.4401
   78SOPE   H4S 6976   4.444   3.537   5.617 -0.2328  1.0620  0.8221
   78SOPE   C25 6977   4.421   3.346   5.518 -0.0920 -0.6464 -0.1887
   78SOPE   H5R 6978   4.525   3.335   5.480 -0.9831  1.4374 -3.8104
   78SOPE   H5S 6979   4.376   3.247   5.537  0.2163 -0.8888 -0.6848
   78SOPE   C26 6980   4.341   3.425   5.413  0.0072  0.8600  0.0939
   78SOPE   H6R 6981   4.235   3.406   5.440 -0.2128 -3.0446 -2.5901
   78SOPE   H6S 6982   4.352   3.535   5.414 -0.1244  0.9442 -2.6208
   78SOPE   C27 6983   4.364   3.387   5.266  0.6845  0.8121  0.3075
   78SOPE   H7R 6984   4.383   3.277   5.262  0.6097  0.8307 -1.1480
   78SOPE   H7S 6985   4.269   3.405   5.211  0.6066 -1.3994 -0.3814
   78SOPE   C28 6986   4.475   3.470   5.194 -0.0326 -0.0444 -0.2539
   78SOPE   H8R 6987   4.438   3.575   5.182 -1.6202 -0.1059  3.0148
   78SOPE   H8S 6988   4.560   3.491   5.262 -0.9181  0.9489  0.6012
   78SOPE   C29 6989   4.517   3.397   5.068 -0.4283 -1.1781  0.2627
   78SOPE   H91 6990   4.577   3.310   5.098 -2.0522 -2.7269 -0.8184
   78SOPE  C210 6991   4.488   3.413   4.940  0.4320 -0.1753 -0.4436
   78SOPE  H101 6992   4.518   3.338   4.865 -1.4829  0.5150 -1.9744
   78SOPE  C211 6993   4.400   3.525   4.881 -0.4811 -0.2861  0.8244
   78SOPE  H11R 6994   4.379   3.594   4.966 -0.2505  0.7420  0.0700
   78SOPE  H11S 6995   4.302   3.485   4.850  0.4180 -0.8238 -1.5023
   78SOPE  C212 6996   4.460   3.612   4.769 -0.1480 -0.1491 -0.0650
   78SOPE  H12R 6997   4.565   3.631   4.799  0.5132 -1.9964 -1.1136
   78SOPE  H12S 6998   4.406   3.708   4.751  0.2950 -0.2073 -1.8797
   78SOPE  C213 6999   4.454   3.539   4.634  0.4014 -0.1730 -0.5323
   78SOPE  H13R 7000   4.348   3.509   4.620  0.5372 -0.4384 -1.0231
   78SOPE  H13S 7001   4.514   3.446   4.646  0.0468 -0.1174  2.2357
   78SOPE  C214 7002   4.517   3.621   4.535  0.5359  0.3994 -0.0184
   78SOPE  H14R 7003   4.627   3.614   4.547  0.5604  2.5267  1.8051
   78SOPE  H14S 7004   4.471   3.723   4.539 -0.3500 -0.0247  1.4660
   78SOPE  C215 7005   4.485   3.574   4.387  0.3090  1.2054  0.0249
   78SOPE  H15R 7006   4.375   3.581   4.372  0.5879  1.1336 -2.7118
   78SOPE  H15S 7007   4.513   3.467   4.371 -0.4061  0.8449  1.1011
   78SOPE  C216 7008   4.547   3.670   4.287 -0.0547 -0.5242 -0.0856
   78SOPE  H16R 7009   4.658   3.661   4.291  0.0687  0.8109 -0.0715
   78SOPE  H16S 7010   4.529   3.771   4.330  0.0537 -0.5413  0.0019
   78SOPE  C217 7011   4.495   3.672   4.138  0.1168 -0.3078 -0.2795
   78SOPE  H17R 7012   4.570   3.721   4.073  0.8877  1.5697  1.8991
   78SOPE  H17S 7013   4.402   3.733   4.132  0.7357  0.4999 -2.3604
   78SOPE  C218 7014   4.475   3.535   4.072 -0.3437 -0.0672 -0.4367
   78SOPE  H18R 7015   4.383   3.484   4.106  0.9117 -2.9918 -1.1549
   78SOPE  H18S 7016   4.559   3.464   4.085  1.3511  2.0299  0.8030
   78SOPE  H18T 7017   4.459   3.562   3.966 -0.5127  0.4642 -0.2783
   78SOPE   C33 7018   4.070   3.285   5.694  0.0296 -0.0215 -0.0909
   78SOPE   H3X 7019   4.180   3.287   5.713 -0.3743 -1.2994  2.9329
   78SOPE   H3Y 7020   4.034   3.383   5.655 -0.2755  0.0783  0.4352
   78SOPE   C34 7021   4.055   3.187   5.576  0.2666 -0.4447  0.5490
   78SOPE   H4X 7022   4.084   3.085   5.608 -0.9181 -1.1142 -0.3966
   78SOPE   H4Y 7023   4.128   3.217   5.498 -0.1060  0.0621  0.3814
   78SOPE   C35 7024   3.917   3.167   5.513  0.4667  0.0649 -0.2964
   78SOPE   H5X 7025   3.862   3.263   5.524  3.1809  1.7028  0.0377
   78SOPE   H5Y 7026   3.868   3.094   5.580  0.5512 -0.1360 -0.4482
   78SOPE   C36 7027   3.912   3.132   5.360 -0.6061 -0.1247 -0.7750
   78SOPE   H6X 7028   3.808   3.106   5.331 -1.1263 -1.5246  1.9871
   78SOPE   H6Y 7029   3.973   3.043   5.332  2.3365  1.3150  0.5727
   78SOPE   C37 7030   3.944   3.254   5.274 -0.2731 -0.9693  0.5461
   78SOPE   H7X 7031   3.984   3.332   5.342  2.0244  0.7344 -2.4597
   78SOPE   H7Y 7032   3.856   3.296   5.221  0.8634  1.8850  0.7246
   78SOPE   C38 7033   4.055   3.222   5.170  0.4803 -0.1156 -0.0323
   78SOPE   H8X 7034   4.023   3.129   5.119 -3.7523  0.5760  1.0135
   78SOPE   H8Y 7035   4.147   3.203   5.229  0.3760 -1.0645 -0.1660
   78SOPE   C39 7036   4.076   3.337   5.070  0.4067  0.0135  0.3043
   78SOPE   H9X 7037   4.178   3.318   5.030 -0.1590 -2.1455 -0.2557
   78SOPE   H9Y 7038   4.061   3.437   5.117 -1.7593 -0.5230  0.8869
   78SOPE  C310 7039   3.979   3.318   4.962  0.1628  0.1261  0.2772
   78SOPE  H10X 7040   3.876   3.340   4.998 -0.6627 -1.8143 -0.7749
   78SOPE  H10Y 7041   3.986   3.213   4.926  1.7105  0.2811  0.0565
   78SOPE  C311 7042   4.025   3.397   4.838 -0.7107  0.3038  0.4846
   78SOPE  H11X 7043   4.136   3.397   4.835 -0.7097  0.9138  0.4163
   78SOPE  H11Y 7044   3.988   3.502   4.841 -2.6177 -0.3212  0.4624
   78SOPE  C312 7045   3.964   3.345   4.702 -0.4819  0.2265  0.7081
   78SOPE  H12X 7046   3.853   3.346   4.710 -0.3656 -0.6062  3.9323
   78SOPE  H12Y 7047   4.001   3.244   4.673  0.1310  1.1024 -1.7479
   78SOPE  C313 7048   4.011   3.432   4.578  0.2492  0.6438  0.6730
   78SOPE  H13X 7049   4.120   3.450   4.580  0.2437  0.7140  0.2567
   78SOPE  H13Y 7050   3.947   3.523   4.580 -0.6062  0.0622  2.2847
   78SOPE  C314 7051   3.965   3.363   4.440 -0.2073  0.0176  1.1208
   78SOPE  H14X 7052   3.863   3.320   4.448 -0.4385  0.4008  0.3380
   78SOPE  H14Y 7053   4.040   3.290   4.404  0.5016  0.9405  0.6659
   78SOPE  C315 7054   3.971   3.461   4.313  0.0826  0.1840 -0.6085
   78SOPE  H15X 7055   4.055   3.534   4.309 -1.2572  1.7921 -0.7932
   78SOPE  H15Y 7056   3.884   3.529   4.329  0.1265  0.1463 -0.1993
   78SOPE  C316 7057   3.952   3.394   4.179  0.7173 -0.2462  0.1803
   78SOPE  H16X 7058   3.863   3.328   4.175 -0.1501  0.9378 -0.5764
   78SOPE  H16Y 7059   4.040   3.329   4.159  0.0924 -0.7960 -0.8700
   78SOPE  C317 7060   3.952   3.496   4.061 -0.7932 -0.4644  0.4046
   78SOPE  H17X 7061   4.035   3.570   4.070  0.1370 -1.4656  0.3237
   78SOPE  H17Y 7062   3.862   3.559   4.078 -0.5852  0.2291 -0.9295
   78SOPE  C318 7063   3.953   3.449   3.915 -0.1512 -0.6561  0.2052
   78SOPE  H18X 7064   3.964   3.544   3.858 -0.9117  0.1675  1.3674
   78SOPE  H18Y 7065   3.858   3.400   3.886 -0.2052 -1.0178  0.9695
   78SOPE  H18Z 7066   4.044   3.387   3.900  1.9295  1.8950  1.2958
   79SOPE     N 7067   5.756   6.483   6.997 -0.9251 -0.0987 -0.3359
   79SOPE   HN1 7068   5.737   6.401   7.059  2.9411 -1.6728 -0.9140
   79SOPE   HN2 7069   5.720   6.570   7.040  1.6504  0.5672  0.6818
   79SOPE   HN3 7070   5.688   6.460   6.922  0.0216  1.9282 -1.9183
   79SOPE   C12 7071   5.893   6.488   6.923  0.6362 -0.0298 -0.8831
   79SOPE  H12A 7072   5.966   6.540   6.989  0.1592 -1.4916  0.8784
   79SOPE  H12B 7073   5.873   6.537   6.825  0.1187  1.1398 -0.2198
   79SOPE   C11 7074   5.951   6.353   6.904 -0.1204  0.3061  0.1611
   79SOPE  H11A 7075   6.058   6.342   6.877 -0.7286 -2.8224 -1.5315
   79SOPE  H11B 7076   5.911   6.321   6.805  3.3573  0.1014 -1.3316
   79SOPE     P 7077   5.874   6.105   6.988  0.0116 -0.1776  0.5596
   79SOPE   O13 7078   5.739   6.096   7.043  0.0075  0.1154 -0.4085
   79SOPE   O14 7079   5.976   6.014   7.053 -0.4624 -0.1777 -0.2920
   79SOPE   O12 7080   5.924   6.254   7.002  0.5603  0.2740  0.0973
   79SOPE   O11 7081   5.881   6.084   6.827  0.4388 -0.6648  0.1525
   79SOPE    C1 7082   5.764   6.047   6.751 -0.3555 -0.5759 -0.0918
   79SOPE    HA 7083   5.712   6.142   6.728  0.2487  0.2240  1.6974
   79SOPE    HB 7084   5.692   5.986   6.809  0.0918 -1.6646 -0.6456
   79SOPE    C2 7085   5.799   5.982   6.614  0.5944  0.1345 -0.4281
   79SOPE    HS 7086   5.850   5.885   6.631  0.5950 -0.0347 -1.3440
   79SOPE   O21 7087   5.876   6.073   6.537  0.7273 -0.4616 -0.0926
   79SOPE   C21 7088   5.954   6.033   6.432  0.0320 -0.1104  0.3757
   79SOPE   O22 7089   5.974   5.918   6.403  0.2021  0.3925  0.2203
   79SOPE   C22 7090   6.011   6.157   6.360  0.6859  0.3418 -0.7292
   79SOPE   H2R 7091   6.082   6.213   6.425  0.7826 -3.7325  3.1541
   79SOPE   H2S 7092   5.929   6.232   6.349  0.3053  0.0201 -0.1558
   79SOPE    C3 7093   5.664   5.951   6.536  0.5902  0.0801 -0.7594
   79SOPE    HX 7094   5.611   6.048   6.543  0.7270  0.0465  2.3880
   79SOPE    HY 7095   5.594   5.886   6.593 -1.0240  1.0530 -1.5878
   79SOPE   O31 7096   5.688   5.897   6.406 -0.1844 -0.2146 -0.3931
   79SOPE   C31 7097   5.718   5.767   6.417  0.3796 -0.3592  0.1353
   79SOPE   O32 7098   5.719   5.697   6.514 -0.0659 -0.2209  0.0822
   79SOPE   C32 7099   5.737   5.725   6.272 -0.0937 -0.3682 -0.1051
   79SOPE   H2X 7100   5.839   5.758   6.245 -0.1562 -0.5688 -0.5928
   79SOPE   H2Y 7101   5.660   5.779   6.212 -1.4420 -0.9920  0.9862
   79SOPE   C23 7102   6.074   6.134   6.220 -0.1954 -0.3633 -0.0637
   79SOPE   H3R 7103   6.160   6.064   6.229 -1.8600 -2.2357  2.6886
   79SOPE   H3S 7104   6.112   6.230   6.178 -3.7562  0.0018 -3.0583
   79SOPE   C24 7105   5.978   6.094   6.102  0.2075  0.1272  0.0268
   79SOPE   H4R 7106   6.043   6.085   6.012 -0.9905 -0.4437 -0.8086
   79SOPE   H4S 7107   5.934   5.994   6.124  1.5550 -0.5293 -0.1175
   79SOPE   C25 7108   5.873   6.197   6.075 -0.6837 -0.0156  0.1268
   79SOPE   H5R 7109   5.801   6.208   6.160 -1.6105 -2.3225 -0.2829
   79SOPE   H5S 7110   5.923   6.295   6.058 -2.5022  1.1348  1.0139
   79SOPE   C26 7111   5.799   6.162   5.949  0.1199  0.5021 -0.2552
   79SOPE   H6R 7112   5.860   6.133   5.861  0.3939 -0.8320  0.3520
   79SOPE   H6S 7113   5.741   6.069   5.967  1.0240  0.1265  0.8533
   79SOPE   C27 7114   5.694   6.268   5.920 -0.0593  0.1962 -0.2710
   79SOPE   H7R 7115   5.620   6.225   5.850  1.5334 -0.5389 -1.5706
   79SOPE   H7S 7116   5.636   6.297   6.010  0.2625 -0.6694  0.2267
   79SOPE   C28 7117   5.749   6.392   5.853  0.3938  0.3839 -0.1882
   79SOPE   H8R 7118   5.668   6.461   5.821 -0.7690 -1.1080 -0.6538
   79SOPE   H8S 7119   5.801   6.454   5.929 -0.0663  1.5953 -0.8411
   79SOPE   C29 7120   5.852   6.383   5.747 -0.2089  0.2749  0.0833
   79SOPE   H91 7121   5.953   6.354   5.781 -0.9119 -1.6986  0.5996
   79SOPE  C210 7122   5.854   6.408   5.612 -0.0904 -0.6941  0.2822
   79SOPE  H101 7123   5.952   6.403   5.561  0.7159 -1.3397  1.8018
   79SOPE  C211 7124   5.729   6.460   5.532 -0.0470  0.1590  0.4880
   79SOPE  H11R 7125   5.641   6.460   5.599 -0.1979 -3.3078  0.4624
   79SOPE  H11S 7126   5.693   6.389   5.454 -2.2847  0.4237  1.2275
   79SOPE  C212 7127   5.754   6.590   5.453  0.1238 -0.5711 -0.5655
   79SOPE  H12R 7128   5.841   6.564   5.389  0.6477 -0.2954  0.0176
   79SOPE  H12S 7129   5.771   6.675   5.523  0.9205 -2.4365  1.6653
   79SOPE  C213 7130   5.629   6.623   5.362  0.7621 -0.0528  0.4840
   79SOPE  H13R 7131   5.547   6.638   5.436  1.0242 -1.0972  1.0035
   79SOPE  H13S 7132   5.601   6.543   5.290 -3.8415 -0.4905  2.4100
   79SOPE  C214 7133   5.644   6.750   5.270 -1.3698 -0.2348 -1.4298
   79SOPE  H14R 7134   5.740   6.747   5.214 -1.2768 -1.1651 -1.2463
   79SOPE  H14S 7135   5.651   6.845   5.327 -0.3503 -0.6028 -0.9257
   79SOPE  C215 7136   5.527   6.773   5.168 -0.9309  0.1418 -0.3696
   79SOPE  H15R 7137   5.432   6.783   5.226 -0.3741  0.7524  0.4574
   79SOPE  H15S 7138   5.526   6.681   5.106 -1.0136  0.6572 -1.1322
   79SOPE  C216 7139   5.534   6.904   5.086  0.4883 -0.3225  0.1201
   79SOPE  H16R 7140   5.534   6.992   5.154  0.3746  1.0919 -1.6101
   79SOPE  H16S 7141   5.444   6.913   5.021  0.9533  0.1190 -0.4729
   79SOPE  C217 7142   5.653   6.908   4.985  0.6111 -0.5482  0.2455
   79SOPE  H17R 7143   5.656   6.831   4.905 -0.8464  0.2137 -0.5727
   79SOPE  H17S 7144   5.740   6.892   5.052 -0.1290 -1.9855  0.8941
   79SOPE  C218 7145   5.657   7.037   4.907 -0.3022 -0.4279 -1.0011
   79SOPE  H18R 7146   5.676   7.121   4.977  1.0899 -0.9042 -0.7722
   79SOPE  H18S 7147   5.565   7.046   4.846 -1.5805 -0.1845  0.8740
   79SOPE  H18T 7148   5.744   7.045   4.838  1.8977 -2.1111  1.4028
   79SOPE   C33 7149   5.728   5.570   6.255  0.1473 -0.1376  0.4543
   79SOPE   H3X 7150   5.622   5.538   6.266  0.2122 -0.0319  1.4872
   79SOPE   H3Y 7151   5.784   5.506   6.327 -1.2670 -2.6192 -0.5112
   79SOPE   C34 7152   5.769   5.513   6.120  0.7779 -0.2692 -0.4123
   79SOPE   H4X 7153   5.726   5.411   6.130 -2.4381  1.1444  2.1866
   79SOPE   H4Y 7154   5.878   5.510   6.101  0.9017 -1.2074  0.4243
   79SOPE   C35 7155   5.704   5.594   6.005  0.1185 -0.0751  0.3034
   79SOPE   H5X 7156   5.618   5.655   6.041  1.3698  0.9704  1.6640
   79SOPE   H5Y 7157   5.659   5.522   5.933 -1.5592  0.2928  0.9312
   79SOPE   C36 7158   5.802   5.692   5.933  0.2029  0.2466 -0.3518
   79SOPE   H6X 7159   5.892   5.640   5.892  0.9169  1.2972 -0.1507
   79SOPE   H6Y 7160   5.824   5.764   6.014 -2.8029 -0.1879  0.9664
   79SOPE   C37 7161   5.727   5.773   5.831  0.8878 -0.4903 -0.3117
   79SOPE   H7X 7162   5.660   5.837   5.893  3.1672  0.3781  1.3959
   79SOPE   H7Y 7163   5.666   5.703   5.770 -2.1731 -1.3072  3.3171
   79SOPE   C38 7164   5.814   5.852   5.739  1.6804  0.7518 -0.4279
   79SOPE   H8X 7165   5.907   5.795   5.717  0.9734 -1.0007  0.9352
   79SOPE   H8Y 7166   5.855   5.939   5.795  0.1663  1.8898 -1.0097
   79SOPE   C39 7167   5.755   5.919   5.610 -0.3601  0.2240 -0.5406
   79SOPE   H9X 7168   5.672   5.984   5.645 -1.2269 -1.0455 -0.1808
   79SOPE   H9Y 7169   5.710   5.848   5.537  0.9801  1.3516 -2.5352
   79SOPE  C310 7170   5.846   6.012   5.529 -0.1416 -0.2552 -0.5786
   79SOPE  H10X 7171   5.948   5.970   5.543 -0.5288 -0.8446  0.7475
   79SOPE  H10Y 7172   5.854   6.109   5.582 -0.2382 -0.5673  0.0296
   79SOPE  C311 7173   5.802   6.029   5.386 -0.5158  0.5718 -0.1001
   79SOPE  H11X 7174   5.727   6.111   5.380 -2.8924 -1.4940 -0.4973
   79SOPE  H11Y 7175   5.761   5.941   5.332  1.7082 -0.7178  0.2068
   79SOPE  C312 7176   5.934   6.064   5.305 -0.3760  0.9261  0.4237
   79SOPE  H12X 7177   6.009   5.985   5.327 -3.0742 -1.3012  2.1573
   79SOPE  H12Y 7178   5.984   6.153   5.348 -0.0519  2.4410 -2.7908
   79SOPE  C313 7179   5.905   6.082   5.153  0.4343 -0.1269 -0.3610
   79SOPE  H13X 7180   5.875   5.981   5.115 -0.2784  0.1732 -0.6234
   79SOPE  H13Y 7181   6.004   6.101   5.108  0.3953  1.0014 -0.0021
   79SOPE  C314 7182   5.796   6.177   5.118 -0.1698 -0.4521 -0.3532
   79SOPE  H14X 7183   5.701   6.153   5.171  0.4038 -2.3064 -0.0795
   79SOPE  H14Y 7184   5.765   6.176   5.011 -0.8078  0.2110 -0.1855
   79SOPE  C315 7185   5.833   6.326   5.154 -0.1810  0.1538 -0.3452
   79SOPE  H15X 7186   5.939   6.346   5.128  0.3148  0.1245  1.5483
   79SOPE  H15Y 7187   5.835   6.340   5.264 -0.7348  0.7705 -0.4083
   79SOPE  C316 7188   5.736   6.428   5.091  0.5478  0.2304  0.1795
   79SOPE  H16X 7189   5.771   6.527   5.127  1.3210  0.6195 -1.5399
   79SOPE  H16Y 7190   5.633   6.402   5.124  0.8567 -0.4251  0.6277
   79SOPE  C317 7191   5.747   6.430   4.934 -0.7769  0.2831 -0.1987
   79SOPE  H17X 7192   5.699   6.524   4.899  0.7593  1.1956  0.0089
   79SOPE  H17Y 7193   5.696   6.340   4.893 -0.3580 -0.2127  0.3563
   79SOPE  C318 7194   5.888   6.424   4.871  0.0550  0.9446 -0.4063
   79SOPE  H18X 7195   5.899   6.447   4.762  1.7391  0.3659 -0.3798
   79SOPE  H18Y 7196   5.938   6.329   4.898 -0.3266  1.6969  3.4919
   79SOPE  H18Z 7197   5.954   6.501   4.916 -1.1942  2.5346 -1.1303
   80SOPE     N 7198   2.620   4.199   6.749  0.2953 -0.0819 -0.3589
   80SOPE   HN1 7199   2.690   4.275   6.739 -0.0926  0.3565  0.1558
   80SOPE   HN2 7200   2.661   4.116   6.703 -0.7020 -0.4928 -0.5436
   80SOPE   HN3 7201   2.546   4.230   6.682  0.8620  2.1947 -0.0259
   80SOPE   C12 7202   2.577   4.167   6.890 -0.1799 -0.3722  0.3548
   80SOPE  H12A 7203   2.495   4.235   6.920 -0.0962 -0.1688  0.1273
   80SOPE  H12B 7204   2.665   4.180   6.957  0.1025  1.2010 -0.2759
   80SOPE   C11 7205   2.504   4.030   6.905 -0.4937 -0.5415  0.5715
   80SOPE  H11A 7206   2.481   4.012   7.012 -1.0375 -3.4604  0.0389
   80SOPE  H11B 7207   2.571   3.953   6.862 -1.8320 -1.3316 -0.1700
   80SOPE     P 7208   2.282   3.902   6.843  0.0127  0.6360  0.0827
   80SOPE   O13 7209   2.154   3.952   6.897 -0.5256 -0.4533  0.5102
   80SOPE   O14 7210   2.348   3.797   6.921 -0.0831  0.2724  0.7422
   80SOPE   O12 7211   2.374   4.038   6.837 -0.0294  0.2447  0.2473
   80SOPE   O11 7212   2.266   3.842   6.697  0.3104  0.1454  0.2541
   80SOPE    C1 7213   2.359   3.874   6.592 -0.5066  0.0958  0.6018
   80SOPE    HA 7214   2.403   3.777   6.562 -0.7921 -0.0275  0.5816
   80SOPE    HB 7215   2.440   3.945   6.619 -0.9203  1.0112 -0.4613
   80SOPE    C2 7216   2.286   3.942   6.464  0.0850  0.1477 -0.9807
   80SOPE    HS 7217   2.237   4.036   6.497  0.2338  0.3248 -1.2600
   80SOPE   O21 7218   2.184   3.856   6.402  0.1643 -0.3106  0.1441
   80SOPE   C21 7219   2.094   3.929   6.332 -0.5892 -0.2757  0.2882
   80SOPE   O22 7220   2.074   4.050   6.346 -0.4903  0.2907 -0.1486
   80SOPE   C22 7221   2.022   3.840   6.230 -0.0716 -0.3560 -0.1121
   80SOPE   H2R 7222   2.035   3.735   6.261  1.0263  0.1674  1.3147
   80SOPE   H2S 7223   2.075   3.859   6.134  0.6562  0.3194  0.4035
   80SOPE    C3 7224   2.387   3.992   6.352  0.6137  0.3920  0.0141
   80SOPE    HX 7225   2.452   4.071   6.395  1.7799 -1.6607  2.2521
   80SOPE    HY 7226   2.332   4.044   6.270  0.8570  0.9335  0.1919
   80SOPE   O31 7227   2.471   3.886   6.298 -0.2242  0.4824 -0.5246
   80SOPE   C31 7228   2.432   3.827   6.178  0.6070  0.4762 -0.7067
   80SOPE   O32 7229   2.342   3.868   6.110  0.2835  0.7921 -0.0687
   80SOPE   C32 7230   2.518   3.707   6.148  0.3733 -0.6587 -0.5870
   80SOPE   H2X 7231   2.457   3.615   6.162 -2.5668  1.1034 -0.9327
   80SOPE   H2Y 7232   2.594   3.703   6.228 -1.3036 -0.6400  1.0625
   80SOPE   C23 7233   1.871   3.874   6.228  0.4022  0.2677 -0.3640
   80SOPE   H3R 7234   1.856   3.983   6.241 -1.7816 -0.1735  1.3749
   80SOPE   H3S 7235   1.825   3.837   6.322  1.5421  1.1135  0.5531
   80SOPE   C24 7236   1.782   3.838   6.109  0.3069 -0.2037 -0.1840
   80SOPE   H4R 7237   1.678   3.876   6.120  0.3292 -0.4371  0.9017
   80SOPE   H4S 7238   1.815   3.886   6.014 -2.0011  0.4672 -0.7209
   80SOPE   C25 7239   1.768   3.690   6.094  0.1397 -0.4261  0.8128
   80SOPE   H5R 7240   1.868   3.641   6.096  0.3607 -0.0214  0.1368
   80SOPE   H5S 7241   1.711   3.640   6.176  0.4973 -2.3659 -0.0709
   80SOPE   C26 7242   1.706   3.653   5.959  0.0468  0.1182  0.1998
   80SOPE   H6R 7243   1.624   3.728   5.947  0.5499  0.8481  1.1965
   80SOPE   H6S 7244   1.781   3.686   5.884  1.6586 -1.8139  0.9098
   80SOPE   C27 7245   1.671   3.502   5.942 -0.0297 -0.0743 -0.6471
   80SOPE   H7R 7246   1.743   3.427   5.980 -0.3670  0.3467  0.9020
   80SOPE   H7S 7247   1.578   3.490   6.000  1.4050 -2.1488  1.3644
   80SOPE   C28 7248   1.646   3.479   5.793 -0.0004 -0.8768  0.4105
   80SOPE   H8R 7249   1.745   3.501   5.748  1.1743 -1.9912  2.2749
   80SOPE   H8S 7250   1.636   3.369   5.779 -0.7922 -0.8682  0.8464
   80SOPE   C29 7251   1.539   3.555   5.725 -0.0553  0.6885  0.1035
   80SOPE   H91 7252   1.435   3.524   5.745  0.1347  1.1886  2.0759
   80SOPE  C210 7253   1.560   3.662   5.647 -0.0904  0.2771  0.1225
   80SOPE  H101 7254   1.475   3.702   5.589  1.0761 -0.3876 -2.1646
   80SOPE  C211 7255   1.689   3.718   5.590 -0.4756  0.2050  0.0755
   80SOPE  H11R 7256   1.761   3.636   5.573  0.3602  0.6548  1.2882
   80SOPE  H11S 7257   1.737   3.781   5.667 -2.9475  3.3463 -0.6983
   80SOPE  C212 7258   1.681   3.815   5.471 -0.3255 -0.0683  0.0362
   80SOPE  H12R 7259   1.782   3.860   5.455  0.0057 -0.3983  1.1523
   80SOPE  H12S 7260   1.605   3.891   5.496 -1.3328 -0.7471 -0.8561
   80SOPE  C213 7261   1.635   3.743   5.339  0.2943 -0.4926 -0.1940
   80SOPE  H13R 7262   1.544   3.688   5.369 -0.4793  2.3387  3.2958
   80SOPE  H13S 7263   1.708   3.668   5.300 -2.0633 -0.8690 -4.4688
   80SOPE  C214 7264   1.613   3.840   5.218 -0.4727  0.5359 -0.3824
   80SOPE  H14R 7265   1.711   3.860   5.169  0.4944 -3.9341 -0.6934
   80SOPE  H14S 7266   1.580   3.940   5.253  1.4151  1.7723 -1.8884
   80SOPE  C215 7267   1.514   3.770   5.129  0.7840  0.2732 -0.0028
   80SOPE  H15R 7268   1.412   3.775   5.174  0.8560  1.9814  0.0350
   80SOPE  H15S 7269   1.534   3.661   5.127  1.4732  0.4111 -2.2711
   80SOPE  C216 7270   1.511   3.831   4.986 -0.1847  0.2922  0.4484
   80SOPE  H16R 7271   1.454   3.763   4.920 -0.3346  1.2574 -0.4378
   80SOPE  H16S 7272   1.617   3.835   4.952 -0.0100 -1.4617  0.6841
   80SOPE  C217 7273   1.449   3.965   4.974 -0.5272  0.5545  0.5398
   80SOPE  H17R 7274   1.496   4.034   5.048  2.9478 -0.4181 -0.5540
   80SOPE  H17S 7275   1.346   3.951   5.012 -0.0936 -1.4075  1.1227
   80SOPE  C218 7276   1.463   4.020   4.831 -0.2271 -0.9840  0.0674
   80SOPE  H18R 7277   1.415   3.942   4.768 -2.0788  0.0652  0.0961
   80SOPE  H18S 7278   1.565   4.049   4.799  0.1151 -0.7350  1.3136
   80SOPE  H18T 7279   1.412   4.118   4.828  0.3495 -0.6403  1.0323
   80SOPE   C33 7280   2.595   3.724   6.013  0.2511  0.3324  0.2640
   80SOPE   H3X 7281   2.681   3.654   6.017 -1.9941 -2.5511  1.5132
   80SOPE   H3Y 7282   2.629   3.830   6.006 -1.3719  0.7808 -1.5091
   80SOPE   C34 7283   2.514   3.682   5.889 -0.0460  0.4423 -0.0066
   80SOPE   H4X 7284   2.425   3.747   5.876 -0.4371  0.0223  0.5222
   80SOPE   H4Y 7285   2.472   3.582   5.912  1.4488 -0.4079 -0.8457
   80SOPE   C35 7286   2.606   3.688   5.763  0.3945  0.1815 -0.2748
   80SOPE   H5X 7287   2.678   3.604   5.775 -0.9377 -0.7427  1.9018
   80SOPE   H5Y 7288   2.671   3.777   5.770  0.4473  0.1233 -0.0076
   80SOPE   C36 7289   2.536   3.669   5.628  0.4217 -0.3077 -0.3345
   80SOPE   H6X 7290   2.448   3.737   5.625  0.8752  0.2967 -3.6022
   80SOPE   H6Y 7291   2.497   3.567   5.611  2.4850 -1.2212  0.1322
   80SOPE   C37 7292   2.619   3.722   5.508 -0.7374  0.4190 -0.1528
   80SOPE   H7X 7293   2.707   3.654   5.510  0.3692  1.8051  1.8407
   80SOPE   H7Y 7294   2.664   3.817   5.543 -1.5430  0.9463 -0.5382
   80SOPE   C38 7295   2.542   3.723   5.374 -0.3288  0.3385  1.0275
   80SOPE   H8X 7296   2.453   3.788   5.385 -2.2536 -2.0158  0.1941
   80SOPE   H8Y 7297   2.493   3.624   5.363 -2.0670  1.3094 -0.4132
   80SOPE   C39 7298   2.624   3.761   5.247  0.5196  0.0202  0.4897
   80SOPE   H9X 7299   2.707   3.688   5.240  1.7173  1.4102 -0.5480
   80SOPE   H9Y 7300   2.681   3.856   5.262  0.5290 -0.2495  2.4278
   80SOPE  C310 7301   2.538   3.775   5.122  0.2366  0.4668 -0.0300
   80SOPE  H10X 7302   2.490   3.875   5.127 -0.0104  0.4467 -1.5623
   80SOPE  H10Y 7303   2.466   3.690   5.122  0.8038 -0.0721 -2.1096
   80SOPE  C311 7304   2.625   3.760   4.995 -0.3639 -0.1923 -0.5637
   80SOPE  H11X 7305   2.691   3.671   4.991  1.2169  0.8878  0.2104
   80SOPE  H11Y 7306   2.701   3.840   4.980  0.4595 -0.3338  2.1966
   80SOPE  C312 7307   2.534   3.746   4.868  0.2057 -0.2131  0.1512
   80SOPE  H12X 7308   2.460   3.828   4.865 -1.7013 -1.8577 -0.9656
   80SOPE  H12Y 7309   2.475   3.653   4.885  1.1735 -0.6761  1.0083
   80SOPE  C313 7310   2.599   3.738   4.734  0.1104 -0.1954  0.4275
   80SOPE  H13X 7311   2.675   3.657   4.742  0.9866  0.6271  0.5583
   80SOPE  H13Y 7312   2.654   3.833   4.717 -3.0208  2.2092  2.5247
   80SOPE  C314 7313   2.511   3.710   4.615  0.1235  0.3210  0.0189
   80SOPE  H14X 7314   2.576   3.680   4.530  0.2586  0.7051 -0.0161
   80SOPE  H14Y 7315   2.443   3.793   4.586 -2.3205 -2.4639 -3.0504
   80SOPE  C315 7316   2.430   3.577   4.626  0.1660  0.2163  0.2702
   80SOPE  H15X 7317   2.371   3.582   4.532  1.6276  0.9978 -0.6466
   80SOPE  H15Y 7318   2.361   3.586   4.712 -1.0536 -1.3738 -0.4751
   80SOPE  C316 7319   2.506   3.442   4.627 -1.0207  0.2360 -0.1415
   80SOPE  H16X 7320   2.441   3.368   4.679 -1.8424 -0.1753 -1.7048
   80SOPE  H16Y 7321   2.599   3.450   4.688 -0.7601 -2.6945  0.0158
   80SOPE  C317 7322   2.534   3.392   4.482  0.6890  0.2103  0.1168
   80SOPE  H17X 7323   2.625   3.328   4.489 -1.2248 -2.7454 -0.4669
   80SOPE  H17Y 7324   2.546   3.481   4.417  0.3604  0.6521  0.6565
   80SOPE  C318 7325   2.430   3.306   4.413  0.2247 -0.4932  0.4080
   80SOPE  H18X 7326   2.437   3.287   4.304 -1.0870  0.0421  0.2193
   80SOPE  H18Y 7327   2.330   3.350   4.435  0.1041  1.8005 -3.8076
   80SOPE  H18Z 7328   2.433   3.204   4.459  0.4517 -1.3723 -1.4519
   81SOPE     N 7329   6.556   5.562   7.024  0.0003  0.7338  0.4784
   81SOPE   HN1 7330   6.612   5.612   6.952  0.2816  0.8352  0.7643
   81SOPE   HN2 7331   6.487   5.624   7.070 -0.3126 -0.7703  2.1820
   81SOPE   HN3 7332   6.624   5.535   7.099 -1.3577 -1.1977  1.0875
   81SOPE   C12 7333   6.481   5.437   6.970 -0.5370 -0.2595  0.4254
   81SOPE  H12A 7334   6.401   5.410   7.042 -0.4314  0.6819  0.9108
   81SOPE  H12B 7335   6.554   5.355   6.953 -0.3816 -0.1618  0.6085
   81SOPE   C11 7336   6.415   5.478   6.842 -0.8465  0.5246  0.9466
   81SOPE  H11A 7337   6.492   5.497   6.763 -3.0760  0.7434 -1.2975
   81SOPE  H11B 7338   6.357   5.573   6.842 -2.5017 -0.4338 -0.2199
   81SOPE     P 7339   6.360   5.247   6.720 -0.0596  0.3330 -0.2005
   81SOPE   O13 7340   6.244   5.159   6.698 -0.4277 -0.1225 -0.3752
   81SOPE   O14 7341   6.476   5.181   6.786 -0.2427 -0.1694 -0.2810
   81SOPE   O12 7342   6.319   5.378   6.809  0.3323 -0.1968 -0.0440
   81SOPE   O11 7343   6.411   5.307   6.586  1.0097  0.2676  0.3690
   81SOPE    C1 7344   6.319   5.376   6.498 -0.1249  0.4398  0.2970
   81SOPE    HA 7345   6.370   5.444   6.425 -2.0000 -1.6689 -3.2429
   81SOPE    HB 7346   6.250   5.439   6.558 -0.4516  1.2941 -0.9345
   81SOPE    C2 7347   6.256   5.277   6.392 -0.1372 -0.1050 -1.4171
   81SOPE    HS 7348   6.196   5.209   6.455  1.5385 -1.4955 -1.2475
   81SOPE   O21 7349   6.369   5.211   6.331 -0.5318  0.1452  0.1690
   81SOPE   C21 7350   6.355   5.083   6.304 -0.1763  0.0412  0.0339
   81SOPE   O22 7351   6.262   5.011   6.347 -0.3776  0.6330 -0.3370
   81SOPE   C22 7352   6.479   5.042   6.218  0.1970 -0.2335  0.6464
   81SOPE   H2R 7353   6.509   4.944   6.261  0.2602  0.2322  1.7228
   81SOPE   H2S 7354   6.553   5.125   6.233 -0.0854 -0.0752  1.1994
   81SOPE    C3 7355   6.167   5.349   6.290  0.9334 -0.2036  0.2929
   81SOPE    HX 7356   6.218   5.436   6.243 -1.0502  1.3046  0.7976
   81SOPE    HY 7357   6.082   5.404   6.336  2.4182  1.5087  1.1476
   81SOPE   O31 7358   6.125   5.267   6.183 -0.3712  0.0281  0.2297
   81SOPE   C31 7359   6.030   5.174   6.193  0.1071 -0.5088  0.5255
   81SOPE   O32 7360   5.948   5.161   6.283 -0.3686  0.0740 -0.2063
   81SOPE   C32 7361   6.026   5.102   6.062  0.0032  0.1655  0.0628
   81SOPE   H2X 7362   5.977   5.008   6.098  0.8886 -0.5393 -0.5131
   81SOPE   H2Y 7363   6.126   5.076   6.022 -0.3760  0.3466 -1.0338
   81SOPE   C23 7364   6.441   5.038   6.068  0.4517 -0.8846  0.2609
   81SOPE   H3R 7365   6.536   5.042   6.009  1.3630  0.3816  1.7233
   81SOPE   H3S 7366   6.384   5.127   6.032  3.1124  0.0543 -2.0083
   81SOPE   C24 7367   6.362   4.910   6.033  0.5096 -0.2702 -0.4883
   81SOPE   H4R 7368   6.429   4.826   6.061  0.2372 -0.0925  0.7539
   81SOPE   H4S 7369   6.270   4.892   6.094 -0.2759 -1.1284 -1.8770
   81SOPE   C25 7370   6.330   4.895   5.883  0.5267  0.9029  0.6745
   81SOPE   H5R 7371   6.234   4.845   5.858  0.8027  0.5669  0.2576
   81SOPE   H5S 7372   6.324   4.990   5.826 -0.2561 -0.0423 -0.9243
   81SOPE   C26 7373   6.439   4.817   5.803  0.2283  0.8543  0.3112
   81SOPE   H6R 7374   6.540   4.854   5.831 -0.1816  4.3914 -2.2376
   81SOPE   H6S 7375   6.436   4.708   5.824  0.6783  0.2856 -2.2083
   81SOPE   C27 7376   6.416   4.827   5.653  0.6597 -0.1289  0.3265
   81SOPE   H7R 7377   6.331   4.759   5.634 -0.5996  0.9587  1.8199
   81SOPE   H7S 7378   6.388   4.929   5.618  2.4009 -0.1228 -1.2582
   81SOPE   C28 7379   6.527   4.788   5.562 -0.4651 -0.6756  0.4199
   81SOPE   H8R 7380   6.499   4.786   5.454  2.9187 -2.7682 -0.5800
   81SOPE   H8S 7381   6.619   4.848   5.576  0.5282 -2.2823  1.0267
   81SOPE   C29 7382   6.575   4.653   5.596  0.3535 -0.0333  0.1510
   81SOPE   H91 7383   6.625   4.638   5.694  1.6735 -1.5527 -0.6866
   81SOPE  C210 7384   6.574   4.542   5.522 -0.7855 -0.7696 -0.4584
   81SOPE  H101 7385   6.606   4.453   5.579 -0.5951 -0.1142  0.4694
   81SOPE  C211 7386   6.516   4.530   5.386  0.1264 -0.4603  0.4307
   81SOPE  H11R 7387   6.474   4.626   5.348  0.5838 -0.2816  0.3691
   81SOPE  H11S 7388   6.437   4.453   5.387 -1.8983  1.4948  1.7527
   81SOPE  C212 7389   6.632   4.505   5.287  0.2769  0.0657  0.6501
   81SOPE  H12R 7390   6.685   4.409   5.307  0.0887  0.3294  2.5615
   81SOPE  H12S 7391   6.706   4.587   5.301 -0.9766  1.2215  0.6944
   81SOPE  C213 7392   6.586   4.501   5.141  0.2210 -0.1774  0.0392
   81SOPE  H13R 7393   6.540   4.600   5.124  0.5700  0.5292  2.7909
   81SOPE  H13S 7394   6.498   4.433   5.129  0.7586 -0.7469 -0.7966
   81SOPE  C214 7395   6.693   4.453   5.042 -0.8237  0.0719  0.0801
   81SOPE  H14R 7396   6.725   4.353   5.075 -0.0368  0.6094  0.9864
   81SOPE  H14S 7397   6.767   4.536   5.039 -0.6876 -0.0446 -2.1687
   81SOPE  C215 7398   6.635   4.419   4.899 -0.2137 -0.4554 -0.0081
   81SOPE  H15R 7399   6.578   4.507   4.863  0.5994  0.5536  1.0844
   81SOPE  H15S 7400   6.557   4.344   4.924 -1.7586  1.3610  0.8294
   81SOPE  C216 7401   6.738   4.358   4.808 -0.2997  0.3052 -0.9010
   81SOPE  H16R 7402   6.803   4.284   4.860  0.0825 -0.5567 -2.5323
   81SOPE  H16S 7403   6.810   4.442   4.792  1.1684 -0.7111  0.1182
   81SOPE  C217 7404   6.669   4.311   4.679  0.4171 -0.3034  0.1655
   81SOPE  H17R 7405   6.592   4.237   4.709 -0.5733 -0.1507 -1.8495
   81SOPE  H17S 7406   6.744   4.264   4.612 -0.7746  0.1461 -1.5270
   81SOPE  C218 7407   6.595   4.417   4.600 -0.3401 -0.3349  0.1620
   81SOPE  H18R 7408   6.500   4.460   4.640 -0.8766 -1.7880  0.5434
   81SOPE  H18S 7409   6.566   4.358   4.511  3.2268 -0.3176 -1.1531
   81SOPE  H18T 7410   6.671   4.488   4.562 -1.1775  0.9012  0.7418
   81SOPE   C33 7411   5.947   5.180   5.949  0.1873  0.0745 -0.3203
   81SOPE   H3X 7412   5.971   5.288   5.958  1.3077 -0.0601 -1.4068
   81SOPE   H3Y 7413   5.839   5.163   5.967  0.6410 -0.3768  2.3011
   81SOPE   C34 7414   6.002   5.153   5.808  0.1057  0.2306 -0.1124
   81SOPE   H4X 7415   6.003   5.043   5.791 -2.0743 -0.1985  1.9290
   81SOPE   H4Y 7416   6.108   5.187   5.808 -0.2229  1.3924 -2.1252
   81SOPE   C35 7417   5.923   5.203   5.686 -0.4496 -0.5386  0.1930
   81SOPE   H5X 7418   5.834   5.143   5.659 -0.4780 -0.5140  0.2335
   81SOPE   H5Y 7419   5.990   5.172   5.602  1.0173 -1.2572  1.5673
   81SOPE   C36 7420   5.901   5.352   5.693 -0.0960 -0.5408  0.0798
   81SOPE   H6X 7421   5.999   5.402   5.714  0.1376 -0.6741 -0.6635
   81SOPE   H6Y 7422   5.821   5.370   5.768 -0.5639  0.1454 -0.5703
   81SOPE   C37 7423   5.875   5.402   5.549  0.0638 -0.1290  0.1071
   81SOPE   H7X 7424   5.787   5.347   5.512 -2.8872  1.7788  3.6172
   81SOPE   H7Y 7425   5.968   5.369   5.498 -0.1132  0.3268 -0.5143
   81SOPE   C38 7426   5.866   5.553   5.543  0.1819 -0.3965 -0.2083
   81SOPE   H8X 7427   5.964   5.600   5.568  1.0241 -1.3914 -1.4612
   81SOPE   H8Y 7428   5.789   5.591   5.613  0.5609  1.9825 -0.9831
   81SOPE   C39 7429   5.821   5.599   5.405  0.2902  0.1162  0.3564
   81SOPE   H9X 7430   5.768   5.696   5.416  2.1275  1.0338  1.7963
   81SOPE   H9Y 7431   5.757   5.518   5.365  1.4505 -2.6518  3.5873
   81SOPE  C310 7432   5.933   5.627   5.306 -0.9021  0.2506 -0.1412
   81SOPE  H10X 7433   6.024   5.563   5.312  0.7232  2.5772  1.7120
   81SOPE  H10Y 7434   5.976   5.728   5.325 -0.1700 -0.2531  0.9801
   81SOPE  C311 7435   5.874   5.633   5.167  0.2609  0.2108  0.6456
   81SOPE  H11X 7436   5.769   5.668   5.181  0.1073 -0.1029  0.3042
   81SOPE  H11Y 7437   5.866   5.536   5.114  1.3268  0.5387 -0.1306
   81SOPE  C312 7438   5.954   5.718   5.071 -0.1879 -0.5702  0.1995
   81SOPE  H12X 7439   6.057   5.678   5.054  0.1491  0.5523 -0.4772
   81SOPE  H12Y 7440   5.965   5.819   5.115 -0.9693  0.0030 -0.9015
   81SOPE  C313 7441   5.883   5.737   4.932 -0.8162 -0.2960 -0.1178
   81SOPE  H13X 7442   5.932   5.827   4.890 -2.8408  1.0648  0.2953
   81SOPE  H13Y 7443   5.778   5.766   4.952 -1.5459 -1.6803 -1.7467
   81SOPE  C314 7444   5.899   5.609   4.844  0.3740 -0.7796  0.9333
   81SOPE  H14X 7445   5.835   5.536   4.899 -0.6285 -0.3496  0.3576
   81SOPE  H14Y 7446   6.007   5.584   4.850  0.5780 -0.6565 -1.2707
   81SOPE  C315 7447   5.862   5.641   4.693  0.3747 -0.0129 -0.2625
   81SOPE  H15X 7448   5.915   5.733   4.659  2.4609 -1.0764 -0.0886
   81SOPE  H15Y 7449   5.753   5.661   4.701  0.4572  0.8814 -1.1644
   81SOPE  C316 7450   5.891   5.527   4.587 -0.3123  0.0295  0.6564
   81SOPE  H16X 7451   5.993   5.486   4.598  0.1401  1.3678  1.6977
   81SOPE  H16Y 7452   5.897   5.574   4.486 -2.4707 -0.5543  0.1941
   81SOPE  C317 7453   5.791   5.416   4.586 -0.9682 -0.1137 -0.0331
   81SOPE  H17X 7454   5.760   5.400   4.692  0.5243  0.4676  0.5066
   81SOPE  H17Y 7455   5.836   5.324   4.543  0.8938  0.7891 -0.1067
   81SOPE  C318 7456   5.657   5.438   4.515  0.3105 -0.1363  0.3415
   81SOPE  H18X 7457   5.676   5.465   4.409 -1.5621 -0.5881 -0.1564
   81SOPE  H18Y 7458   5.603   5.518   4.571  0.7804  0.7746 -0.4791
   81SOPE  H18Z 7459   5.600   5.343   4.521  0.1489 -0.3335 -2.6346
   82SOPE     N 7460   2.973   0.110   6.530  0.1926  0.1169  0.0193
   82SOPE   HN1 7461   2.898   0.182   6.523  1.1417  1.1458  0.3525
   82SOPE   HN2 7462   2.998   0.093   6.431 -2.6266 -0.4771 -0.6752
   82SOPE   HN3 7463   2.937   0.022   6.573  2.3086  0.3998  2.6369
   82SOPE   C12 7464   3.092   0.167   6.607  0.0782  0.0334 -0.5299
   82SOPE  H12A 7465   3.174   0.093   6.595 -0.0732 -0.3025  0.4280
   82SOPE  H12B 7466   3.054   0.182   6.711  1.3130  0.6228 -0.1516
   82SOPE   C11 7467   3.152   0.302   6.557 -0.0049  0.4058  1.0357
   82SOPE  H11A 7468   3.185   0.280   6.454  2.2605 -6.0921  2.6670
   82SOPE  H11B 7469   3.231   0.324   6.632 -0.7558  1.9845  1.4114
   82SOPE     P 7470   3.055   0.528   6.659 -0.0551 -0.0080 -0.1367
   82SOPE   O13 7471   3.130   0.494   6.780  0.4076 -0.0513 -0.6001
   82SOPE   O14 7472   2.915   0.571   6.682 -0.0463 -0.2205 -0.4116
   82SOPE   O12 7473   3.056   0.406   6.552  0.2197 -0.3510  0.4056
   82SOPE   O11 7474   3.128   0.644   6.584 -0.3979 -0.3298  0.3652
   82SOPE    C1 7475   3.252   0.635   6.520 -0.1934  0.0281  0.1918
   82SOPE    HA 7476   3.302   0.537   6.535  0.6497  0.3408 -0.4446
   82SOPE    HB 7477   3.315   0.715   6.567 -1.3768  0.4867  1.0538
   82SOPE    C2 7478   3.241   0.677   6.376 -0.4340  0.2191 -0.3889
   82SOPE    HS 7479   3.185   0.774   6.371 -1.5482 -0.2925  1.3460
   82SOPE   O21 7480   3.178   0.571   6.312  0.2045  0.2254  0.2207
   82SOPE   C21 7481   3.044   0.589   6.282 -0.1505  0.4454  0.5079
   82SOPE   O22 7482   2.989   0.698   6.292  0.1432  0.3525 -0.0533
   82SOPE   C22 7483   2.987   0.461   6.216 -0.2683 -0.1724  0.0918
   82SOPE   H2R 7484   2.887   0.450   6.263  0.4933 -0.5530  1.6944
   82SOPE   H2S 7485   3.060   0.382   6.241  1.1288  0.1245 -2.7166
   82SOPE    C3 7486   3.386   0.685   6.313  0.0273  0.3010  0.1693
   82SOPE    HX 7487   3.446   0.593   6.328 -1.3170 -0.9334 -1.6043
   82SOPE    HY 7488   3.436   0.764   6.373 -0.9099  0.7646  0.3587
   82SOPE   O31 7489   3.384   0.722   6.170  0.0927 -0.0439  0.1104
   82SOPE   C31 7490   3.423   0.638   6.082 -0.3916 -0.0720  0.0125
   82SOPE   O32 7491   3.456   0.524   6.107  0.0305 -0.1207 -0.2994
   82SOPE   C32 7492   3.412   0.696   5.940  0.4384 -0.3038 -0.3732
   82SOPE   H2X 7493   3.473   0.789   5.935 -0.4329  0.2435 -0.9382
   82SOPE   H2Y 7494   3.311   0.740   5.934  0.4356 -0.1493  0.5699
   82SOPE   C23 7495   2.964   0.481   6.066 -0.6291 -0.0297  0.1216
   82SOPE   H3R 7496   2.910   0.578   6.071  2.0163  1.4858  1.0494
   82SOPE   H3S 7497   2.892   0.398   6.048  0.5244 -0.9851 -0.2121
   82SOPE   C24 7498   3.083   0.494   5.985 -0.1148 -0.8592  1.2726
   82SOPE   H4R 7499   3.141   0.579   6.026  0.3035 -1.0089  0.9977
   82SOPE   H4S 7500   3.148   0.403   5.983  0.9107 -0.1458 -1.5700
   82SOPE   C25 7501   3.056   0.513   5.832  0.3140 -0.5230 -0.6243
   82SOPE   H5R 7502   2.978   0.590   5.816  0.3959 -0.7157 -2.1093
   82SOPE   H5S 7503   3.143   0.545   5.771  1.0356 -0.4385  0.4237
   82SOPE   C26 7504   2.999   0.391   5.766  1.0209 -0.0578 -0.2331
   82SOPE   H6R 7505   2.892   0.372   5.787  0.5812  1.6328 -0.7878
   82SOPE   H6S 7506   3.002   0.414   5.657  2.9685  0.9416 -0.0141
   82SOPE   C27 7507   3.093   0.269   5.765  0.4186  0.3038  0.4569
   82SOPE   H7R 7508   3.198   0.299   5.744  0.1504  0.1739 -1.1938
   82SOPE   H7S 7509   3.093   0.216   5.863 -2.0736 -1.1972 -0.2676
   82SOPE   C28 7510   3.059   0.162   5.653 -0.1992 -0.3471  0.6080
   82SOPE   H8R 7511   3.030   0.211   5.558 -2.6691 -0.5657  1.1907
   82SOPE   H8S 7512   3.147   0.099   5.631 -1.4382 -2.0776  0.4371
   82SOPE   C29 7513   2.938   0.077   5.690 -0.2951 -0.4758  0.4205
   82SOPE   H91 7514   2.866   0.115   5.764 -2.2455 -0.7027 -1.2623
   82SOPE  C210 7515   2.918  -0.043   5.633  0.4801  0.0256  1.2347
   82SOPE  H101 7516   2.828  -0.100   5.657  0.6460 -1.4070 -1.2074
   82SOPE  C211 7517   2.994  -0.123   5.527  0.1995 -0.0904 -0.3820
   82SOPE  H11R 7518   2.977  -0.232   5.537  0.5849 -0.0471  1.0102
   82SOPE  H11S 7519   3.102  -0.100   5.540  0.0318 -0.0073  1.0162
   82SOPE  C212 7520   2.974  -0.088   5.383 -0.2690  0.2748  0.2972
   82SOPE  H12R 7521   3.062  -0.117   5.321 -1.5845  1.3543 -2.2195
   82SOPE  H12S 7522   2.954   0.019   5.365  2.4659  0.9297  0.7377
   82SOPE  C213 7523   2.855  -0.170   5.325  0.2591  0.4996 -0.1734
   82SOPE  H13R 7524   2.762  -0.152   5.382 -0.3587  0.9415 -1.2830
   82SOPE  H13S 7525   2.881  -0.278   5.335 -2.4321 -0.1700  0.4503
   82SOPE  C214 7526   2.826  -0.137   5.184  0.2115 -0.4930 -0.0899
   82SOPE  H14R 7527   2.788  -0.035   5.162 -2.1501 -1.7416 -2.2713
   82SOPE  H14S 7528   2.738  -0.196   5.152  0.1938  0.2372 -1.4913
   82SOPE  C215 7529   2.944  -0.169   5.093 -0.5539  0.0539  0.3552
   82SOPE  H15R 7530   2.979  -0.273   5.113  0.1696  0.6057  2.1062
   82SOPE  H15S 7531   3.030  -0.104   5.120  0.4429 -0.2993 -1.7275
   82SOPE  C216 7532   2.915  -0.143   4.948 -0.0021  0.3010  0.4003
   82SOPE  H16R 7533   2.912  -0.034   4.928 -0.6109  0.3423  0.7069
   82SOPE  H16S 7534   2.811  -0.181   4.935  0.0088  0.7623 -1.4235
   82SOPE  C217 7535   3.017  -0.216   4.860 -0.8313  0.1734 -0.5310
   82SOPE  H17R 7536   3.009  -0.320   4.898  2.4517  0.2285  0.5841
   82SOPE  H17S 7537   3.122  -0.181   4.865  0.1121 -2.5158  0.4753
   82SOPE  C218 7538   2.987  -0.218   4.704 -0.6142 -0.1574  0.3350
   82SOPE  H18R 7539   2.983  -0.119   4.653 -1.1252  1.3613  3.0787
   82SOPE  H18S 7540   2.885  -0.255   4.682 -0.1723 -0.3749 -1.4821
   82SOPE  H18T 7541   3.056  -0.287   4.652 -0.0723  0.0427  0.7664
   82SOPE   C33 7542   3.439   0.593   5.842 -0.4970 -0.0259 -0.1078
   82SOPE   H3X 7543   3.363   0.513   5.855 -1.2386  0.2032 -2.5635
   82SOPE   H3Y 7544   3.542   0.555   5.857 -1.2026 -1.6380  0.8716
   82SOPE   C34 7545   3.417   0.641   5.693  0.1294 -0.6770 -0.0583
   82SOPE   H4X 7546   3.470   0.738   5.676 -1.1749 -0.0034 -0.3787
   82SOPE   H4Y 7547   3.310   0.667   5.683  0.3843  0.5158  0.1735
   82SOPE   C35 7548   3.468   0.535   5.593 -0.3285  0.5710 -0.0145
   82SOPE   H5X 7549   3.421   0.441   5.627  2.2927 -0.8803 -0.1490
   82SOPE   H5Y 7550   3.577   0.533   5.613 -0.7928  2.1675  3.3689
   82SOPE   C36 7551   3.434   0.576   5.450  0.1359 -0.1760  0.1677
   82SOPE   H6X 7552   3.504   0.659   5.424  1.0901 -0.1797  2.4466
   82SOPE   H6Y 7553   3.327   0.605   5.441  0.4526  2.3868  3.0029
   82SOPE   C37 7554   3.463   0.466   5.340  0.3658 -0.2156 -0.5276
   82SOPE   H7X 7555   3.562   0.418   5.356  0.8441  1.3090  1.5664
   82SOPE   H7Y 7556   3.456   0.510   5.239 -1.4802 -0.3897 -0.5114
   82SOPE   C38 7557   3.359   0.347   5.349 -0.4997  0.2906 -0.5477
   82SOPE   H8X 7558   3.256   0.386   5.335 -1.1838 -2.2272 -3.6112
   82SOPE   H8Y 7559   3.386   0.299   5.445  4.2404 -1.0789 -2.2386
   82SOPE   C39 7560   3.392   0.235   5.246  0.1449 -1.1171 -0.1713
   82SOPE   H9X 7561   3.329   0.149   5.280  0.2448 -1.5127 -0.9590
   82SOPE   H9Y 7562   3.501   0.214   5.241  0.1106 -1.0676 -1.8758
   82SOPE  C310 7563   3.341   0.268   5.109 -0.2668  0.0040 -1.4406
   82SOPE  H10X 7564   3.392   0.351   5.055 -1.6640  1.6785 -0.3195
   82SOPE  H10Y 7565   3.237   0.306   5.116 -0.2002 -0.0339  0.3479
   82SOPE  C311 7566   3.325   0.145   5.019  0.5387  0.8880 -0.5398
   82SOPE  H11X 7567   3.259   0.067   5.062 -1.7151  2.2075 -1.4613
   82SOPE  H11Y 7568   3.430   0.112   5.002  0.7191  1.1770 -0.0163
   82SOPE  C312 7569   3.263   0.187   4.884 -0.0070 -0.2144  0.1154
   82SOPE  H12X 7570   3.322   0.274   4.847 -0.6064 -0.5057 -1.6238
   82SOPE  H12Y 7571   3.161   0.228   4.901  0.1261 -0.1090  0.6685
   82SOPE  C313 7572   3.248   0.086   4.766  0.9196 -0.4387 -0.0144
   82SOPE  H13X 7573   3.213  -0.008   4.814 -0.0906  1.8461  4.2953
   82SOPE  H13Y 7574   3.350   0.066   4.727  1.0302  0.9484 -0.4883
   82SOPE  C314 7575   3.154   0.147   4.654  0.2542 -0.2442  0.2107
   82SOPE  H14X 7576   3.050   0.166   4.689  0.3085  0.2080  0.1246
   82SOPE  H14Y 7577   3.149   0.080   4.565  2.5735  1.4580 -1.3119
   82SOPE  C315 7578   3.217   0.269   4.579  0.3544  0.3531 -0.5502
   82SOPE  H15X 7579   3.218   0.351   4.654  0.3575  0.7201 -0.9493
   82SOPE  H15Y 7580   3.151   0.297   4.494  2.0893 -0.7657 -2.3613
   82SOPE  C316 7581   3.361   0.252   4.511 -0.4710 -0.1389  0.0243
   82SOPE  H16X 7582   3.445   0.258   4.583  0.4868 -0.8121 -0.9959
   82SOPE  H16Y 7583   3.364   0.331   4.433  1.4332  0.3360  0.5297
   82SOPE  C317 7584   3.374   0.119   4.434 -0.5982 -0.2046  1.0112
   82SOPE  H17X 7585   3.305   0.110   4.347  0.8854 -1.0436 -0.1158
   82SOPE  H17Y 7586   3.364   0.033   4.504  1.0662 -1.0921  0.2140
   82SOPE  C318 7587   3.518   0.107   4.376  0.1387 -0.3670  0.2738
   82SOPE  H18X 7588   3.528   0.009   4.326  0.4803 -0.3362  0.2815
   82SOPE  H18Y 7589   3.593   0.104   4.458 -1.0445  2.6936  1.6552
   82SOPE  H18Z 7590   3.536   0.198   4.315  1.4076  0.4216  1.7479
   83SOPE     N 7591   0.956   5.498   2.096 -0.0759  0.0115  0.2502
   83SOPE   HN1 7592   0.959   5.396   2.116  1.4521 -0.3964 -1.7274
   83SOPE   HN2 7593   0.990   5.547   2.181  2.8132  1.0154 -1.3558
   83SOPE   HN3 7594   0.858   5.520   2.069  0.0030 -2.2131 -2.3521
   83SOPE   C12 7595   1.049   5.523   1.983  0.2720 -0.5304 -0.0881
   83SOPE  H12A 7596   1.019   5.619   1.935 -1.3517 -0.7222  0.4998
   83SOPE  H12B 7597   1.033   5.441   1.910  1.4963  0.3127 -1.3830
   83SOPE   C11 7598   1.194   5.530   2.030 -0.4643 -0.4634 -0.1295
   83SOPE  H11A 7599   1.265   5.546   1.946  1.6328 -2.3714  1.1577
   83SOPE  H11B 7600   1.234   5.442   2.085  0.5220  0.5732  0.8653
   83SOPE     P 7601   1.263   5.779   2.104  0.1192  0.4682 -0.3242
   83SOPE   O13 7602   1.152   5.868   2.068 -0.8164  0.2012  0.0960
   83SOPE   O14 7603   1.380   5.758   2.017  0.1993  0.4025 -0.4003
   83SOPE   O12 7604   1.200   5.635   2.126 -0.2875  0.2193 -0.1422
   83SOPE   O11 7605   1.309   5.828   2.246 -0.4401 -0.1488  0.0826
   83SOPE    C1 7606   1.285   5.758   2.365 -0.0347  0.8030 -0.2208
   83SOPE    HA 7607   1.371   5.781   2.432  0.0861  0.5488 -0.2884
   83SOPE    HB 7608   1.288   5.648   2.354 -1.8019  0.9012 -2.5464
   83SOPE    C2 7609   1.155   5.788   2.450 -0.3952  0.2571  1.3583
   83SOPE    HS 7610   1.167   5.898   2.461  3.7784  0.5117 -2.6121
   83SOPE   O21 7611   1.164   5.716   2.578 -0.2364 -0.5261  0.5696
   83SOPE   C21 7612   1.074   5.766   2.665  0.3859 -0.8587 -0.3854
   83SOPE   O22 7613   1.018   5.878   2.651 -0.2508  0.5012 -0.3083
   83SOPE   C22 7614   1.051   5.671   2.787 -0.1849  0.1544 -0.1004
   83SOPE   H2R 7615   1.139   5.687   2.854  0.4755  0.0526 -0.9241
   83SOPE   H2S 7616   1.061   5.568   2.745  1.6822  0.7420 -1.2410
   83SOPE    C3 7617   1.022   5.761   2.372 -0.1791 -0.4367  0.5883
   83SOPE    HX 7618   1.019   5.816   2.276 -1.9245 -1.6020 -0.0744
   83SOPE    HY 7619   0.927   5.808   2.404  0.0393  1.1198 -0.9434
   83SOPE   O31 7620   1.005   5.619   2.351 -0.5267  0.0675  0.6941
   83SOPE   C31 7621   0.937   5.556   2.441 -0.2099 -0.0482  0.1468
   83SOPE   O32 7622   0.876   5.610   2.533  0.4965  0.6136  0.3464
   83SOPE   C32 7623   0.971   5.409   2.430  0.4225 -0.4410  0.0443
   83SOPE   H2X 7624   1.077   5.389   2.457  0.1146 -0.8673  1.0053
   83SOPE   H2Y 7625   0.970   5.384   2.322 -0.3069  0.6736 -0.2230
   83SOPE   C23 7626   0.916   5.697   2.858  0.3189  0.8153 -0.2599
   83SOPE   H3R 7627   0.835   5.676   2.785 -0.5147 -2.9719  1.5149
   83SOPE   H3S 7628   0.919   5.799   2.901  3.3412  0.1135  1.4582
   83SOPE   C24 7629   0.892   5.592   2.975 -0.0727 -0.3085 -0.3999
   83SOPE   H4R 7630   0.786   5.586   3.007  0.4383 -0.4564  1.3438
   83SOPE   H4S 7631   0.909   5.491   2.932  2.0937 -1.3835  2.5999
   83SOPE   C25 7632   0.978   5.608   3.106  0.2364 -0.0643 -0.6246
   83SOPE   H5R 7633   0.955   5.519   3.169  0.7963 -0.7097 -1.3001
   83SOPE   H5S 7634   1.087   5.614   3.083  0.3921 -0.0755  0.0908
   83SOPE   C26 7635   0.931   5.738   3.181 -0.1520  0.3632  0.3330
   83SOPE   H6R 7636   1.001   5.822   3.164  0.6968 -0.5139 -0.6877
   83SOPE   H6S 7637   0.828   5.771   3.155 -0.5961 -0.7100  0.6601
   83SOPE   C27 7638   0.937   5.722   3.331  0.3756 -0.2518  0.4630
   83SOPE   H7R 7639   0.867   5.640   3.359 -0.7017  0.0043 -1.2937
   83SOPE   H7S 7640   1.040   5.692   3.358  0.4514  1.0561  1.7809
   83SOPE   C28 7641   0.891   5.834   3.424 -0.2023  0.6818  0.4127
   83SOPE   H8R 7642   0.781   5.847   3.425 -0.2834  0.7251 -2.4251
   83SOPE   H8S 7643   0.902   5.781   3.521 -2.3823 -1.6530 -0.5031
   83SOPE   C29 7644   0.959   5.967   3.425  0.4459 -0.2105  1.1316
   83SOPE   H91 7645   0.996   6.013   3.332 -2.1987  0.7179  0.4561
   83SOPE  C210 7646   0.987   6.028   3.546 -0.0834 -0.0131  0.0670
   83SOPE  H101 7647   1.044   6.121   3.533  0.9047 -0.6461 -0.2769
   83SOPE  C211 7648   0.949   5.988   3.681  0.1446 -0.1072 -0.0604
   83SOPE  H11R 7649   0.943   5.879   3.702 -2.6848  0.3643  2.1346
   83SOPE  H11S 7650   0.848   6.024   3.708  0.0718 -1.0345  0.9550
   83SOPE  C212 7651   1.045   6.050   3.785  0.7278 -1.1052 -0.6001
   83SOPE  H12R 7652   1.041   6.161   3.781  0.2662 -1.0646  0.5685
   83SOPE  H12S 7653   1.149   6.018   3.765  0.2503 -2.6115 -0.8394
   83SOPE  C213 7654   1.002   6.024   3.930 -0.0635  0.3078 -1.5498
   83SOPE  H13R 7655   0.958   5.923   3.934 -1.0965  0.7550  2.5815
   83SOPE  H13S 7656   0.918   6.096   3.943  0.3529  0.4974  0.4011
   83SOPE  C214 7657   1.124   6.043   4.023 -0.1593  0.1866  0.0739
   83SOPE  H14R 7658   1.155   6.144   3.989 -2.3747  0.7696 -0.3376
   83SOPE  H14S 7659   1.195   5.959   4.008 -0.8239 -0.2845 -0.4930
   83SOPE  C215 7660   1.086   6.024   4.171 -0.3107 -0.6511  1.2852
   83SOPE  H15R 7661   1.023   5.932   4.177 -1.1556 -0.1133  0.8264
   83SOPE  H15S 7662   1.022   6.113   4.189 -0.2035 -0.2487 -0.2248
   83SOPE  C216 7663   1.201   6.040   4.280 -0.2620  0.1238  0.8146
   83SOPE  H16R 7664   1.290   5.978   4.257 -0.4643  0.0994  0.0682
   83SOPE  H16S 7665   1.164   6.009   4.380  3.0996  0.3999  2.2820
   83SOPE  C217 7666   1.251   6.182   4.303 -0.2327  0.0958 -0.4250
   83SOPE  H17R 7667   1.162   6.247   4.319  0.1059  0.7132 -0.9919
   83SOPE  H17S 7668   1.303   6.238   4.223  0.7197  2.1809  1.5408
   83SOPE  C218 7669   1.342   6.193   4.430  0.0500 -0.0961  0.1021
   83SOPE  H18R 7670   1.366   6.301   4.435 -1.4992  0.3345 -0.7890
   83SOPE  H18S 7671   1.429   6.125   4.421 -1.9385 -2.9775  1.0479
   83SOPE  H18T 7672   1.284   6.176   4.523  2.9450 -0.9958  1.8498
   83SOPE   C33 7673   0.868   5.321   2.508 -0.4483  0.2772 -0.4604
   83SOPE   H3X 7674   0.764   5.359   2.499  0.3720  2.4192 -1.3042
   83SOPE   H3Y 7675   0.903   5.329   2.613 -0.5564  0.8759 -0.4667
   83SOPE   C34 7676   0.868   5.169   2.471  0.7417 -0.1450 -0.5793
   83SOPE   H4X 7677   0.965   5.148   2.420  1.4961  0.4048  0.5785
   83SOPE   H4Y 7678   0.785   5.159   2.398  0.1929 -0.3902  0.0718
   83SOPE   C35 7679   0.848   5.071   2.586  0.4805  0.0525  1.3093
   83SOPE   H5X 7680   0.831   4.971   2.542 -0.0335  0.4785  0.5214
   83SOPE   H5Y 7681   0.759   5.096   2.647 -0.5019  0.7954 -0.3552
   83SOPE   C36 7682   0.967   5.062   2.687 -0.0397 -0.0832 -0.0546
   83SOPE   H6X 7683   0.964   5.154   2.749 -0.0233 -0.0273 -0.1369
   83SOPE   H6Y 7684   1.064   5.058   2.633  0.4518 -0.0790  0.8161
   83SOPE   C37 7685   0.966   4.935   2.778 -0.3702  0.7915 -0.6084
   83SOPE   H7X 7686   0.983   4.843   2.718 -0.5176 -0.2289  0.8711
   83SOPE   H7Y 7687   0.866   4.927   2.825 -1.2241  2.8005 -1.9419
   83SOPE   C38 7688   1.088   4.927   2.873 -0.1799 -0.3821 -0.4361
   83SOPE   H8X 7689   1.102   5.020   2.932 -2.4949 -1.0698  1.3689
   83SOPE   H8Y 7690   1.179   4.900   2.815  0.9446  0.1890  1.0023
   83SOPE   C39 7691   1.090   4.819   2.983 -0.5904  0.0903 -0.1537
   83SOPE   H9X 7692   1.190   4.827   3.031 -0.8446  4.9703  0.1177
   83SOPE   H9Y 7693   1.071   4.718   2.940 -0.8132 -0.0922  0.3665
   83SOPE  C310 7694   0.987   4.848   3.095 -0.1521  0.5081  1.0971
   83SOPE  H10X 7695   0.889   4.818   3.053  0.6538  0.3013 -0.7350
   83SOPE  H10Y 7696   0.981   4.954   3.130  2.6143  2.0501 -2.5221
   83SOPE  C311 7697   1.020   4.760   3.215  0.1820  0.6343  0.6372
   83SOPE  H11X 7698   1.110   4.786   3.273 -0.4601 -1.6343  2.7943
   83SOPE  H11Y 7699   1.037   4.657   3.175 -1.0519  0.9738 -0.8833
   83SOPE  C312 7700   0.904   4.747   3.309 -0.1326 -0.2000  0.0465
   83SOPE  H12X 7701   0.924   4.675   3.391  1.4974 -0.0844 -0.2153
   83SOPE  H12Y 7702   0.810   4.720   3.256 -0.4601  1.6802 -0.4107
   83SOPE  C313 7703   0.859   4.884   3.377 -0.4576  0.7151  0.6200
   83SOPE  H13X 7704   0.804   4.943   3.301 -2.0177 -0.6037  0.6529
   83SOPE  H13Y 7705   0.950   4.935   3.415 -0.4308 -0.6601  2.6122
   83SOPE  C314 7706   0.756   4.860   3.496  0.2225  0.0213 -0.0043
   83SOPE  H14X 7707   0.812   4.806   3.575  1.4686 -0.1604 -0.9900
   83SOPE  H14Y 7708   0.675   4.794   3.458  0.4465  0.1893 -0.7954
   83SOPE  C315 7709   0.718   4.992   3.560 -0.8556  0.2468  0.5181
   83SOPE  H15X 7710   0.651   5.048   3.491 -1.6228  0.6847  1.5791
   83SOPE  H15Y 7711   0.800   5.065   3.578 -0.3304 -0.4435  0.9770
   83SOPE  C316 7712   0.642   4.974   3.703 -0.6556 -0.7963  1.0749
   83SOPE  H16X 7713   0.550   4.913   3.686 -0.4933 -1.4372  2.3064
   83SOPE  H16Y 7714   0.618   5.079   3.728  1.0041 -0.6314  2.1066
   83SOPE  C317 7715   0.728   4.917   3.810  0.1540 -0.0784 -1.1792
   83SOPE  H17X 7716   0.828   4.963   3.798 -0.1190  0.5900 -0.9094
   83SOPE  H17Y 7717   0.735   4.806   3.804 -0.5056 -0.2818  1.0399
   83SOPE  C318 7718   0.676   4.953   3.946  0.0916 -0.5851  0.0658
   83SOPE  H18X 7719   0.677   5.064   3.957  1.6021 -0.7035  1.3811
   83SOPE  H18Y 7720   0.736   4.922   4.034  0.0166  1.4619  0.9003
   83SOPE  H18Z 7721   0.577   4.905   3.964  0.2454 -0.1849  2.2895
   84SOPE     N 7722   1.426   1.762   1.981  0.3767 -0.0067  0.1483
   84SOPE   HN1 7723   1.450   1.816   1.895  0.9424  0.0926  0.3590
   84SOPE   HN2 7724   1.419   1.663   1.950  1.5121 -0.8489  2.4037
   84SOPE   HN3 7725   1.336   1.802   2.012  1.7752  2.9590  0.7637
   84SOPE   C12 7726   1.521   1.769   2.089  0.3802 -0.5061 -0.6020
   84SOPE  H12A 7727   1.497   1.702   2.174  1.4678 -0.6144 -0.3671
   84SOPE  H12B 7728   1.529   1.873   2.128  2.7223 -1.1661  0.8576
   84SOPE   C11 7729   1.656   1.731   2.041 -0.1124 -0.2646  0.8554
   84SOPE  H11A 7730   1.722   1.736   2.130 -0.1662 -2.0968  1.0420
   84SOPE  H11B 7731   1.693   1.793   1.956 -0.1044  1.1940  1.8900
   84SOPE     P 7732   1.732   1.482   2.062  0.3455  0.2239  0.2796
   84SOPE   O13 7733   1.872   1.512   2.052 -0.0347 -0.1171  0.0574
   84SOPE   O14 7734   1.684   1.352   2.000  0.4730  0.2245 -0.3101
   84SOPE   O12 7735   1.652   1.594   1.995 -0.1588  0.2386 -0.3368
   84SOPE   O11 7736   1.680   1.496   2.218 -0.0418 -0.5507  0.2809
   84SOPE    C1 7737   1.771   1.526   2.321  0.1361 -0.8654  0.9037
   84SOPE    HA 7738   1.715   1.554   2.412  0.6366  0.0115  0.9546
   84SOPE    HB 7739   1.839   1.612   2.301  1.3131 -1.8252  0.5986
   84SOPE    C2 7740   1.851   1.406   2.389  0.5881  0.6499  0.4157
   84SOPE    HS 7741   1.923   1.367   2.314  1.4028  0.2738  1.3705
   84SOPE   O21 7742   1.755   1.300   2.415  0.0266 -1.0162  0.1898
   84SOPE   C21 7743   1.790   1.186   2.474  0.4069 -0.5100 -0.4432
   84SOPE   O22 7744   1.905   1.157   2.502 -0.0181 -0.3357  0.2494
   84SOPE   C22 7745   1.665   1.112   2.507  0.3015  0.2913  0.0419
   84SOPE   H2R 7746   1.657   1.021   2.445 -1.2884  1.0352 -0.9263
   84SOPE   H2S 7747   1.570   1.169   2.496  1.0190  1.6204  0.4252
   84SOPE    C3 7748   1.936   1.447   2.519 -0.0786 -0.4013 -0.3161
   84SOPE    HX 7749   1.976   1.542   2.477 -0.2978  1.0260  2.4694
   84SOPE    HY 7750   2.021   1.379   2.540  1.1745  1.0825 -0.4548
   84SOPE   O31 7751   1.849   1.472   2.632 -0.4980  0.0253 -0.2089
   84SOPE   C31 7752   1.923   1.526   2.734  0.5894 -0.0195 -0.1345
   84SOPE   O32 7753   2.045   1.543   2.722  0.1760  0.4393  0.2007
   84SOPE   C32 7754   1.824   1.569   2.848 -0.0652  1.1278 -0.9471
   84SOPE   H2X 7755   1.759   1.481   2.866  0.9270  0.3246 -1.1930
   84SOPE   H2Y 7756   1.758   1.651   2.812  1.0520  3.1649  1.3504
   84SOPE   C23 7757   1.658   1.069   2.657 -0.3316  0.1742  0.3223
   84SOPE   H3R 7758   1.749   1.010   2.678 -1.3852 -1.1637  1.2310
   84SOPE   H3S 7759   1.570   1.003   2.673 -0.1582  0.3001  1.8496
   84SOPE   C24 7760   1.655   1.190   2.757 -1.0596 -0.6371  0.4284
   84SOPE   H4R 7761   1.748   1.250   2.749 -1.1274 -0.6018 -0.1553
   84SOPE   H4S 7762   1.568   1.256   2.738 -0.5425 -0.5467 -1.9481
   84SOPE   C25 7763   1.643   1.147   2.899 -0.0612  0.0518 -0.4174
   84SOPE   H5R 7764   1.732   1.084   2.921 -0.6165  0.1876  2.7577
   84SOPE   H5S 7765   1.644   1.237   2.965 -0.5331  1.5880 -2.3904
   84SOPE   C26 7766   1.511   1.076   2.922 -0.0287 -0.1512 -0.3615
   84SOPE   H6R 7767   1.433   1.152   2.898  2.0176  2.0722 -0.4317
   84SOPE   H6S 7768   1.508   0.985   2.859 -1.1355 -0.3119 -0.0971
   84SOPE   C27 7769   1.505   1.013   3.057  0.0415  0.5145 -0.4230
   84SOPE   H7R 7770   1.407   0.960   3.061  0.1643  0.3668  1.7720
   84SOPE   H7S 7771   1.583   0.935   3.067  0.6542  1.2742  0.8563
   84SOPE   C28 7772   1.510   1.106   3.185 -0.4229  0.0822 -0.3404
   84SOPE   H8R 7773   1.495   1.040   3.273  0.9393  0.7025  0.3890
   84SOPE   H8S 7774   1.608   1.157   3.195 -1.1322  1.2782  0.6440
   84SOPE   C29 7775   1.395   1.202   3.192  0.7792 -0.1180 -0.4201
   84SOPE   H91 7776   1.325   1.192   3.109  2.1068 -4.5053 -1.2508
   84SOPE  C210 7777   1.378   1.289   3.294  0.0269  0.3871 -0.4531
   84SOPE  H101 7778   1.285   1.348   3.289 -1.7721 -2.3201 -2.0353
   84SOPE  C211 7779   1.469   1.294   3.416  0.3233  0.1803  0.6317
   84SOPE  H11R 7780   1.558   1.354   3.387 -1.3295  2.6385  0.3835
   84SOPE  H11S 7781   1.510   1.192   3.435 -1.6456 -0.5198  1.3270
   84SOPE  C212 7782   1.405   1.350   3.550  0.2051  0.0029  0.1852
   84SOPE  H12R 7783   1.476   1.328   3.632 -1.4786 -1.1096  1.3982
   84SOPE  H12S 7784   1.311   1.292   3.564 -1.4288  2.1803 -1.1335
   84SOPE  C213 7785   1.362   1.495   3.538  0.1698  0.1605 -0.0096
   84SOPE  H13R 7786   1.308   1.509   3.441  0.3323  4.0797  0.3008
   84SOPE  H13S 7787   1.452   1.560   3.535  0.4164 -0.1983 -2.3032
   84SOPE  C214 7788   1.278   1.542   3.655  0.1427  0.6288 -0.4428
   84SOPE  H14R 7789   1.189   1.475   3.663  1.3208 -0.9444  0.0603
   84SOPE  H14S 7790   1.256   1.649   3.634 -0.2179  0.4143 -1.1727
   84SOPE  C215 7791   1.357   1.529   3.792 -0.2159  0.7465 -0.7332
   84SOPE  H15R 7792   1.448   1.592   3.778 -0.1845  1.4642  2.0279
   84SOPE  H15S 7793   1.391   1.425   3.812  1.9813  1.6292  0.5726
   84SOPE  C216 7794   1.277   1.563   3.912 -0.3038  1.0473 -0.7719
   84SOPE  H16R 7795   1.190   1.495   3.923  0.6143 -0.2770 -1.5404
   84SOPE  H16S 7796   1.236   1.666   3.912 -1.4210  0.6191 -0.6676
   84SOPE  C217 7797   1.367   1.540   4.039  0.6912  0.1242 -0.1170
   84SOPE  H17R 7798   1.417   1.441   4.035 -3.6989 -2.3346 -0.4706
   84SOPE  H17S 7799   1.290   1.533   4.120 -2.1025  0.1332 -2.6044
   84SOPE  C218 7800   1.470   1.649   4.061 -0.3933  0.5557  0.0595
   84SOPE  H18R 7801   1.538   1.658   3.974 -0.3855 -0.6802 -0.0822
   84SOPE  H18S 7802   1.516   1.609   4.154 -3.2176 -2.5510  0.3214
   84SOPE  H18T 7803   1.424   1.748   4.077  0.5455  0.6967  2.2426
   84SOPE   C33 7804   1.893   1.612   2.983  0.5513  0.3919  0.1327
   84SOPE   H3X 7805   1.947   1.704   2.952 -2.4370  1.9582 -0.7459
   84SOPE   H3Y 7806   1.959   1.527   3.013 -0.2745  0.2161  1.4966
   84SOPE   C34 7807   1.785   1.637   3.085  0.0986 -0.7067  0.0868
   84SOPE   H4X 7808   1.729   1.545   3.112 -2.0878  0.2265 -0.9701
   84SOPE   H4Y 7809   1.715   1.716   3.048 -1.3115 -0.9492  2.0137
   84SOPE   C35 7810   1.853   1.687   3.216  0.5362 -0.4465 -0.2699
   84SOPE   H5X 7811   1.914   1.778   3.197  1.0654 -0.2052  2.1773
   84SOPE   H5Y 7812   1.924   1.611   3.254  0.4630 -0.7910 -0.8253
   84SOPE   C36 7813   1.764   1.723   3.332  0.2401 -0.7684 -0.3336
   84SOPE   H6X 7814   1.700   1.637   3.363 -2.8865  0.9783 -1.4799
   84SOPE   H6Y 7815   1.690   1.798   3.296  0.5270  1.6002  3.4588
   84SOPE   C37 7816   1.854   1.775   3.445  0.3137 -0.1512 -0.3290
   84SOPE   H7X 7817   1.943   1.824   3.401  0.3438 -0.9661 -1.2244
   84SOPE   H7Y 7818   1.902   1.698   3.508 -0.9306  1.0838  2.2705
   84SOPE   C38 7819   1.781   1.874   3.545 -0.5069 -0.2908  1.1537
   84SOPE   H8X 7820   1.686   1.827   3.579 -1.7481  0.3867 -1.1573
   84SOPE   H8Y 7821   1.778   1.964   3.480 -0.6168  0.5463  2.2854
   84SOPE   C39 7822   1.867   1.913   3.666  0.5359  0.7270  0.2001
   84SOPE   H9X 7823   1.961   1.952   3.621  2.1437 -0.2175  2.5631
   84SOPE   H9Y 7824   1.894   1.837   3.742  1.0701  1.4420  0.7307
   84SOPE  C310 7825   1.795   2.022   3.741 -0.3241  0.4556  0.7185
   84SOPE  H10X 7826   1.700   1.967   3.759 -0.4356  0.3458 -0.1255
   84SOPE  H10Y 7827   1.759   2.100   3.670  1.9167  1.3481  0.4786
   84SOPE  C311 7828   1.859   2.088   3.860 -0.1722  0.0232  0.7048
   84SOPE  H11X 7829   1.947   2.141   3.818 -0.7921  0.5446  0.0464
   84SOPE  H11Y 7830   1.900   2.005   3.922  0.5684 -0.0231  0.1683
   84SOPE  C312 7831   1.759   2.184   3.929 -0.7896  0.7264 -0.3522
   84SOPE  H12X 7832   1.667   2.122   3.930 -0.7898  0.7185 -0.6592
   84SOPE  H12Y 7833   1.740   2.281   3.877 -1.1489  1.7521  1.5985
   84SOPE  C313 7834   1.808   2.208   4.069  0.3495 -0.6454 -0.6359
   84SOPE  H13X 7835   1.901   2.269   4.061 -2.1012  3.3222 -2.0797
   84SOPE  H13Y 7836   1.819   2.115   4.128 -0.8591 -0.8701 -0.7439
   84SOPE  C314 7837   1.708   2.298   4.138 -0.4094  0.0362 -0.3455
   84SOPE  H14X 7838   1.631   2.222   4.164 -0.3913  0.1590  0.0796
   84SOPE  H14Y 7839   1.650   2.364   4.070 -2.5155 -0.0181  1.2921
   84SOPE  C315 7840   1.764   2.384   4.251 -0.1838  0.1300 -0.4996
   84SOPE  H15X 7841   1.863   2.419   4.215  0.4941  1.5886  2.4542
   84SOPE  H15Y 7842   1.798   2.323   4.337 -0.6183 -1.5605 -1.4827
   84SOPE  C316 7843   1.678   2.502   4.292  0.1882  0.3211  0.1791
   84SOPE  H16X 7844   1.594   2.453   4.345  0.8691 -1.0240  0.0712
   84SOPE  H16Y 7845   1.644   2.554   4.200 -1.6048  0.7394  1.0511
   84SOPE  C317 7846   1.758   2.593   4.379  0.0698  0.3940  0.3434
   84SOPE  H17X 7847   1.677   2.667   4.401 -0.0031 -0.0815  1.8163
   84SOPE  H17Y 7848   1.823   2.665   4.324 -0.8074  0.1731 -1.0329
   84SOPE  C318 7849   1.825   2.556   4.520 -0.0100 -0.4319 -0.1421
   84SOPE  H18X 7850   1.871   2.640   4.577 -0.3102 -1.6802  2.0935
   84SOPE  H18Y 7851   1.888   2.466   4.501 -1.7353 -1.5935 -0.6164
   84SOPE  H18Z 7852   1.744   2.511   4.582  0.0818 -1.5394 -0.8023
   85SOPE     N 7853   3.148   4.638   2.024 -0.0785  0.1701  0.4579
   85SOPE   HN1 7854   3.108   4.697   2.099  1.5151  3.4177 -1.0260
   85SOPE   HN2 7855   3.251   4.642   2.036 -0.2350  0.4822  1.9063
   85SOPE   HN3 7856   3.121   4.694   1.940 -1.6694  1.2288  1.6282
   85SOPE   C12 7857   3.096   4.493   2.009 -0.1445 -0.0009  0.0807
   85SOPE  H12A 7858   3.112   4.471   1.902 -1.8209  0.7067 -0.3456
   85SOPE  H12B 7859   2.987   4.496   2.033 -0.2053 -0.5935 -0.0999
   85SOPE   C11 7860   3.180   4.394   2.087 -0.3454  0.3467  0.3407
   85SOPE  H11A 7861   3.156   4.294   2.044 -1.1673  1.4541 -1.9125
   85SOPE  H11B 7862   3.147   4.389   2.193  2.4975  1.2076  1.3373
   85SOPE     P 7863   3.427   4.379   1.972  0.4050 -0.3949 -0.0277
   85SOPE   O13 7864   3.460   4.510   1.907  0.1909 -0.3561 -0.5743
   85SOPE   O14 7865   3.383   4.269   1.889  0.4399  0.0602  0.3718
   85SOPE   O12 7866   3.322   4.416   2.088  0.2181  0.5418 -0.2298
   85SOPE   O11 7867   3.564   4.334   2.047  0.6695 -0.3513  0.1019
   85SOPE    C1 7868   3.612   4.414   2.148  0.4010  0.2279  0.1828
   85SOPE    HA 7869   3.551   4.507   2.155 -1.0133 -0.6998  0.6503
   85SOPE    HB 7870   3.707   4.456   2.110  1.5574 -1.3295  1.2179
   85SOPE    C2 7871   3.637   4.353   2.290 -0.2024  0.0013 -0.2766
   85SOPE    HS 7872   3.721   4.280   2.292 -1.2606 -1.2525 -0.1990
   85SOPE   O21 7873   3.518   4.286   2.342 -0.5926  0.0964  0.1020
   85SOPE   C21 7874   3.498   4.169   2.284  0.0655 -0.0703 -0.2240
   85SOPE   O22 7875   3.582   4.104   2.230 -0.0564 -0.2795  0.3373
   85SOPE   C22 7876   3.353   4.125   2.298 -1.0818 -0.1813 -0.1005
   85SOPE   H2R 7877   3.326   4.065   2.208 -0.3195  1.8168 -1.7596
   85SOPE   H2S 7878   3.285   4.213   2.305 -2.6995 -1.4861  1.3987
   85SOPE    C3 7879   3.689   4.456   2.396  0.1003 -0.0543  0.6406
   85SOPE    HX 7880   3.614   4.536   2.414  1.3110  1.4531 -0.7041
   85SOPE    HY 7881   3.774   4.505   2.345  1.6079 -3.3485 -0.3020
   85SOPE   O31 7882   3.741   4.398   2.512 -0.4691 -0.6598  0.3338
   85SOPE   C31 7883   3.657   4.402   2.613 -0.3040 -0.1985  0.0541
   85SOPE   O32 7884   3.559   4.469   2.621 -0.0333 -0.4580  0.3265
   85SOPE   C32 7885   3.708   4.311   2.724 -1.1357  0.2939  0.4189
   85SOPE   H2X 7886   3.807   4.358   2.745 -0.1785 -1.5100  0.1073
   85SOPE   H2Y 7887   3.737   4.218   2.670 -0.9291  0.9668 -0.6629
   85SOPE   C23 7888   3.331   4.047   2.425 -0.3005  0.0622  0.5215
   85SOPE   H3R 7889   3.407   3.967   2.441 -1.5456 -1.3257 -0.2483
   85SOPE   H3S 7890   3.239   3.985   2.416  0.3167 -1.0361  1.4299
   85SOPE   C24 7891   3.312   4.136   2.553 -0.0292 -0.0467  0.6877
   85SOPE   H4R 7892   3.380   4.224   2.553  0.7928 -0.6619  1.8281
   85SOPE   H4S 7893   3.216   4.191   2.543  1.6501  2.7577 -1.7863
   85SOPE   C25 7894   3.334   4.060   2.686 -0.2001 -0.8177  0.4144
   85SOPE   H5R 7895   3.284   3.961   2.677 -2.2864  0.1807  0.5061
   85SOPE   H5S 7896   3.443   4.058   2.708 -0.1613 -0.0623  0.3121
   85SOPE   C26 7897   3.266   4.129   2.811  0.0546 -0.0132  0.4276
   85SOPE   H6R 7898   3.278   4.240   2.805  0.7865 -0.1458 -0.9346
   85SOPE   H6S 7899   3.157   4.120   2.790 -0.0052 -1.4820  1.2901
   85SOPE   C27 7900   3.306   4.052   2.936 -0.1081  0.6478  0.1589
   85SOPE   H7R 7901   3.278   3.945   2.929  0.7115  0.5338 -3.1245
   85SOPE   H7S 7902   3.417   4.054   2.934 -0.0828 -0.3086 -1.7251
   85SOPE   C28 7903   3.259   4.105   3.073  0.1360 -0.0414  0.1960
   85SOPE   H8R 7904   3.152   4.081   3.093  0.1196 -0.5024 -0.4063
   85SOPE   H8S 7905   3.305   4.046   3.155 -2.5113 -2.0633  0.3752
   85SOPE   C29 7906   3.274   4.253   3.100  0.2853  0.3829  0.6504
   85SOPE   H91 7907   3.221   4.317   3.028  0.2698  0.1998  0.4987
   85SOPE  C210 7908   3.348   4.310   3.187  0.0062  0.0574  0.1489
   85SOPE  H101 7909   3.334   4.418   3.204  1.6023  0.5862 -1.4993
   85SOPE  C211 7910   3.431   4.243   3.303  0.5402 -0.1281 -0.0254
   85SOPE  H11R 7911   3.501   4.315   3.348  0.9594  0.3663 -1.4165
   85SOPE  H11S 7912   3.496   4.162   3.262 -0.4106 -0.6413 -0.5742
   85SOPE  C212 7913   3.353   4.185   3.426 -0.3148 -0.0364 -0.0780
   85SOPE  H12R 7914   3.425   4.181   3.510 -1.2663  0.3534  0.7757
   85SOPE  H12S 7915   3.308   4.084   3.416 -1.6491  0.5159  0.1423
   85SOPE  C213 7916   3.234   4.269   3.472 -0.8613  0.1266 -0.1050
   85SOPE  H13R 7917   3.182   4.219   3.556  0.9585 -2.0718 -0.2052
   85SOPE  H13S 7918   3.156   4.286   3.395 -0.9177  2.4694  0.4087
   85SOPE  C214 7919   3.274   4.410   3.530  0.0538 -0.2851 -0.2596
   85SOPE  H14R 7920   3.265   4.469   3.436  1.4373 -1.2525 -1.0318
   85SOPE  H14S 7921   3.384   4.412   3.549 -0.2082  1.9022  1.4319
   85SOPE  C215 7922   3.200   4.476   3.641  0.0258 -0.1026  0.1395
   85SOPE  H15R 7923   3.237   4.446   3.741 -0.0792  0.8304  0.4722
   85SOPE  H15S 7924   3.093   4.448   3.645  0.2812 -0.9144  2.7364
   85SOPE  C216 7925   3.216   4.628   3.643 -0.1675  0.5505  0.3910
   85SOPE  H16R 7926   3.165   4.654   3.738  0.0361 -0.8539  0.9029
   85SOPE  H16S 7927   3.151   4.652   3.556  0.1941  0.5762  0.1271
   85SOPE  C217 7928   3.355   4.679   3.636 -0.2173 -0.4229 -0.3879
   85SOPE  H17R 7929   3.348   4.787   3.614  1.8443 -0.1534  0.0715
   85SOPE  H17S 7930   3.422   4.636   3.558  1.5788 -0.7033  1.2207
   85SOPE  C218 7931   3.437   4.660   3.765 -0.0415  0.0779 -0.2365
   85SOPE  H18R 7932   3.534   4.715   3.774 -0.4624  1.5336 -3.2380
   85SOPE  H18S 7933   3.449   4.549   3.768  1.1331  0.1907 -0.0916
   85SOPE  H18T 7934   3.376   4.701   3.848 -0.5206 -0.7030 -0.1963
   85SOPE   C33 7935   3.617   4.286   2.848 -0.1012 -0.0368  0.0745
   85SOPE   H3X 7936   3.517   4.250   2.817  0.8020 -3.5603  0.7906
   85SOPE   H3Y 7937   3.608   4.382   2.903  0.4862  0.8878 -1.3866
   85SOPE   C34 7938   3.673   4.185   2.951  0.1397  0.3129 -0.1136
   85SOPE   H4X 7939   3.676   4.090   2.893  0.7995  1.1020 -1.4048
   85SOPE   H4Y 7940   3.600   4.162   3.032  2.2628 -1.6757  1.3579
   85SOPE   C35 7941   3.818   4.204   2.999  0.7190 -0.6920  0.2979
   85SOPE   H5X 7942   3.885   4.204   2.911 -0.6081 -0.7649 -0.7343
   85SOPE   H5Y 7943   3.850   4.111   3.052  1.8079 -2.3464 -2.9986
   85SOPE   C36 7944   3.843   4.339   3.074 -0.4948  0.3153 -1.0673
   85SOPE   H6X 7945   3.801   4.428   3.021 -0.6669  0.4727 -0.6713
   85SOPE   H6Y 7946   3.953   4.350   3.087 -0.7687 -0.5624  3.6579
   85SOPE   C37 7947   3.776   4.341   3.216 -0.2404 -0.5911  0.0520
   85SOPE   H7X 7948   3.665   4.340   3.205 -0.2551 -1.7263  0.1955
   85SOPE   H7Y 7949   3.799   4.439   3.262  0.0900 -0.8180  0.3752
   85SOPE   C38 7950   3.829   4.235   3.306  0.3451  0.4669  0.5666
   85SOPE   H8X 7951   3.940   4.241   3.300  0.3133  2.2947  1.1298
   85SOPE   H8Y 7952   3.802   4.129   3.290  0.2442  0.5544  0.1507
   85SOPE   C39 7953   3.818   4.257   3.462  0.0333 -0.4479  0.1067
   85SOPE   H9X 7954   3.711   4.281   3.481  0.1030 -1.0756  1.4014
   85SOPE   H9Y 7955   3.868   4.353   3.487  0.9386 -0.4934 -1.3910
   85SOPE  C310 7956   3.857   4.139   3.549 -0.3612 -0.4166 -0.2448
   85SOPE  H10X 7957   3.966   4.136   3.573 -0.4427 -0.8352  0.0679
   85SOPE  H10Y 7958   3.837   4.046   3.492  1.0541 -0.8025 -0.1590
   85SOPE  C311 7959   3.779   4.128   3.682 -0.7489  0.0435 -0.5562
   85SOPE  H11X 7960   3.785   4.037   3.745  1.8537  2.3130  2.8932
   85SOPE  H11Y 7961   3.673   4.133   3.651 -0.6367  1.8439 -0.7910
   85SOPE  C312 7962   3.809   4.247   3.776  0.1744  0.4389  0.7401
   85SOPE  H12X 7963   3.783   4.342   3.723  0.5907 -0.0860 -0.4481
   85SOPE  H12Y 7964   3.918   4.249   3.798  1.1106 -2.2216 -2.6877
   85SOPE  C313 7965   3.732   4.227   3.906 -0.9506  0.1724 -0.3640
   85SOPE  H13X 7966   3.798   4.175   3.979 -1.5848 -0.5781 -0.3148
   85SOPE  H13Y 7967   3.655   4.150   3.890 -2.5719  1.0136  2.5722
   85SOPE  C314 7968   3.675   4.357   3.956 -0.4778  0.6375  0.6443
   85SOPE  H14X 7969   3.643   4.330   4.058  0.0036 -0.4463  0.5210
   85SOPE  H14Y 7970   3.584   4.392   3.902 -1.3115  1.6195  2.5814
   85SOPE  C315 7971   3.776   4.473   3.973 -0.5947 -0.2104 -0.0207
   85SOPE  H15X 7972   3.742   4.570   4.014 -0.8043  0.3502 -1.4628
   85SOPE  H15Y 7973   3.811   4.501   3.872 -0.0714 -0.2879  0.1350
   85SOPE  C316 7974   3.902   4.436   4.055 -0.3186  0.1669  0.3207
   85SOPE  H16X 7975   3.944   4.349   4.000  0.5671  0.4220  0.5794
   85SOPE  H16Y 7976   3.875   4.414   4.161 -1.2740 -0.5742 -0.0531
   85SOPE  C317 7977   4.011   4.538   4.062 -0.2435 -0.3393 -0.3857
   85SOPE  H17X 7978   3.959   4.633   4.087  1.2169  1.0189 -2.2638
   85SOPE  H17Y 7979   4.061   4.558   3.965 -0.0390 -0.8543 -0.3881
   85SOPE  C318 7980   4.122   4.525   4.171 -0.2529  0.7363  0.1357
   85SOPE  H18X 7981   4.191   4.439   4.160 -0.6788  0.3262  0.6062
   85SOPE  H18Y 7982   4.088   4.512   4.275  1.6424  1.7821  0.9366
   85SOPE  H18Z 7983   4.193   4.610   4.179  2.2866 -0.9212 -2.5910
   86SOPE     N 7984   5.295   2.711   1.799  0.1267  0.1428 -0.5792
   86SOPE   HN1 7985   5.222   2.644   1.831 -1.3467  0.8720 -2.2286
   86SOPE   HN2 7986   5.347   2.664   1.722 -0.8305 -1.1287 -0.4902
   86SOPE   HN3 7987   5.358   2.702   1.881 -0.4268  1.0947 -0.0281
   86SOPE   C12 7988   5.248   2.851   1.778  0.2114 -0.5567  0.6807
   86SOPE  H12A 7989   5.205   2.880   1.876  0.6380 -0.1598  0.7541
   86SOPE  H12B 7990   5.174   2.845   1.695  0.9587  1.2797 -0.1875
   86SOPE   C11 7991   5.362   2.933   1.736 -0.5054  0.3011 -0.9466
   86SOPE  H11A 7992   5.326   3.038   1.742 -0.6365  0.1861  1.7528
   86SOPE  H11B 7993   5.388   2.902   1.633  1.2329 -0.2286 -0.3801
   86SOPE     P 7994   5.508   2.986   1.955  0.1309  0.2466  0.0275
   86SOPE   O13 7995   5.378   3.016   2.014  0.1953 -0.5197  0.2165
   86SOPE   O14 7996   5.602   3.101   1.960 -0.0882  0.5212 -0.3322
   86SOPE   O12 7997   5.485   2.920   1.808 -0.8534 -0.2868  0.0299
   86SOPE   O11 7998   5.568   2.856   2.031  0.0422 -0.2658 -0.6441
   86SOPE    C1 7999   5.686   2.855   2.106  0.0959 -0.4821  0.2147
   86SOPE    HA 8000   5.757   2.936   2.075  0.1704 -0.7739 -0.3888
   86SOPE    HB 8001   5.741   2.761   2.083  0.5377  0.4323 -2.9269
   86SOPE    C2 8002   5.662   2.876   2.262  0.6883  0.3333 -0.3688
   86SOPE    HS 8003   5.759   2.854   2.311  1.0270 -1.0725 -1.6062
   86SOPE   O21 8004   5.548   2.789   2.295 -0.1810  0.3602  0.6586
   86SOPE   C21 8005   5.553   2.739   2.422  0.4935 -0.0237  0.6174
   86SOPE   O22 8006   5.637   2.765   2.505 -0.4547 -0.1571  0.6469
   86SOPE   C22 8007   5.439   2.642   2.431  0.8712  0.7092  0.0146
   86SOPE   H2R 8008   5.453   2.569   2.349  3.0798 -0.4099  1.3129
   86SOPE   H2S 8009   5.340   2.691   2.413  0.9565  0.5321 -0.9960
   86SOPE    C3 8010   5.627   3.022   2.293 -0.6200  0.0028 -0.9020
   86SOPE    HX 8011   5.531   3.054   2.247 -1.2361 -0.9379 -0.2920
   86SOPE    HY 8012   5.714   3.080   2.255  0.2337 -1.1993 -0.8487
   86SOPE   O31 8013   5.613   3.050   2.433 -0.0398  0.0770 -0.2089
   86SOPE   C31 8014   5.732   3.074   2.495 -0.0276 -0.4804 -0.1163
   86SOPE   O32 8015   5.842   3.043   2.459  0.1154 -0.2883  0.1249
   86SOPE   C32 8016   5.697   3.134   2.640 -0.3796  0.3278  0.3410
   86SOPE   H2X 8017   5.699   3.048   2.711  0.1205 -0.0169 -0.0782
   86SOPE   H2Y 8018   5.593   3.173   2.636 -0.3502  0.3353 -0.6567
   86SOPE   C23 8019   5.438   2.565   2.572  0.5543  0.0170  0.2230
   86SOPE   H3R 8020   5.432   2.642   2.652  1.3934  1.3302 -0.9347
   86SOPE   H3S 8021   5.535   2.512   2.577  1.8442  2.3279  0.6858
   86SOPE   C24 8022   5.319   2.471   2.572  0.9895  1.4053 -0.5736
   86SOPE   H4R 8023   5.222   2.523   2.588  0.6419  0.6796 -0.2748
   86SOPE   H4S 8024   5.320   2.411   2.479 -0.6017  2.4525 -1.3023
   86SOPE   C25 8025   5.331   2.365   2.689 -0.1896 -0.0994 -0.0381
   86SOPE   H5R 8026   5.263   2.280   2.668 -0.9237  0.3385  0.5646
   86SOPE   H5S 8027   5.432   2.317   2.689  0.1776  0.6451  0.5828
   86SOPE   C26 8028   5.313   2.433   2.821  0.1698  0.1852  0.0561
   86SOPE   H6R 8029   5.387   2.515   2.832 -0.2031  0.4997  0.2317
   86SOPE   H6S 8030   5.213   2.481   2.815  0.8022  1.3715 -1.4634
   86SOPE   C27 8031   5.308   2.333   2.941  0.1169  0.5928 -0.3642
   86SOPE   H7R 8032   5.254   2.242   2.908  1.5458  0.1555 -1.5944
   86SOPE   H7S 8033   5.407   2.284   2.955  0.1466  0.9777  0.8812
   86SOPE   C28 8034   5.251   2.382   3.076 -0.0881 -0.6227  0.0657
   86SOPE   H8R 8035   5.308   2.470   3.112 -0.3957 -0.4779  0.2028
   86SOPE   H8S 8036   5.145   2.413   3.067  0.0224 -0.5308 -1.0720
   86SOPE   C29 8037   5.270   2.270   3.179  0.1712  0.1839  0.0137
   86SOPE   H91 8038   5.354   2.202   3.166 -0.2887 -0.6721  1.3376
   86SOPE  C210 8039   5.175   2.232   3.269  0.1960  0.4403  0.3596
   86SOPE  H101 8040   5.205   2.163   3.349 -4.9864 -0.5996  1.7973
   86SOPE  C211 8041   5.039   2.295   3.295 -0.8281  0.3773  0.6898
   86SOPE  H11R 8042   4.980   2.242   3.374 -0.3785  1.4453  1.7769
   86SOPE  H11S 8043   4.973   2.291   3.206  0.5494  1.8969 -0.4649
   86SOPE  C212 8044   5.054   2.434   3.353 -0.1725  0.1338  1.1000
   86SOPE  H12R 8045   4.957   2.488   3.354 -0.2473  0.0531 -0.3622
   86SOPE  H12S 8046   5.110   2.505   3.287  1.1443 -2.1319 -0.3446
   86SOPE  C213 8047   5.118   2.446   3.499  0.9079 -0.1449  0.6420
   86SOPE  H13R 8048   5.225   2.419   3.491  0.4817 -2.0928  0.9401
   86SOPE  H13S 8049   5.078   2.362   3.561  0.2800 -1.3373 -1.2757
   86SOPE  C214 8050   5.098   2.576   3.577 -0.4179 -0.0588  0.1871
   86SOPE  H14R 8051   5.126   2.665   3.517  1.4722 -0.3131  0.6492
   86SOPE  H14S 8052   5.158   2.571   3.670  0.3554 -2.1252 -0.3870
   86SOPE  C215 8053   4.945   2.585   3.618  0.2250 -0.7133 -0.2159
   86SOPE  H15R 8054   4.916   2.497   3.678 -0.0625  0.9356  2.1914
   86SOPE  H15S 8055   4.879   2.601   3.530  0.1779  0.1966 -0.0279
   86SOPE  C216 8056   4.930   2.699   3.721 -0.2592 -0.1801  0.2869
   86SOPE  H16R 8057   4.963   2.787   3.661 -0.9997  0.2988  0.5679
   86SOPE  H16S 8058   5.001   2.689   3.806 -0.1654 -0.2467  0.2011
   86SOPE  C217 8059   4.792   2.700   3.777 -0.1353  0.1701  0.3595
   86SOPE  H17R 8060   4.781   2.607   3.836 -0.4141 -0.7475 -1.0941
   86SOPE  H17S 8061   4.716   2.704   3.696 -0.0266  3.2043  0.2639
   86SOPE  C218 8062   4.785   2.825   3.858 -0.2707  0.0806 -0.6451
   86SOPE  H18R 8063   4.858   2.811   3.941 -0.3614 -0.2408 -0.6190
   86SOPE  H18S 8064   4.685   2.831   3.906 -0.7381 -1.0877 -1.4309
   86SOPE  H18T 8065   4.803   2.919   3.802 -2.6068  1.2951  0.5040
   86SOPE   C33 8066   5.797   3.247   2.667 -0.3943  0.5716 -0.3430
   86SOPE   H3X 8067   5.797   3.320   2.583  0.3855  0.9111 -0.0533
   86SOPE   H3Y 8068   5.900   3.205   2.671  0.1598  1.9204 -0.0125
   86SOPE   C34 8069   5.777   3.332   2.797 -0.1041 -0.8773  0.1878
   86SOPE   H4X 8070   5.756   3.276   2.890 -2.1874 -0.4624  0.0322
   86SOPE   H4Y 8071   5.687   3.397   2.791  0.1500 -0.1569  2.9153
   86SOPE   C35 8072   5.904   3.416   2.804 -0.6030 -0.1027  0.0786
   86SOPE   H5X 8073   5.901   3.481   2.714 -1.6739 -0.1897  0.0411
   86SOPE   H5Y 8074   5.989   3.345   2.795  0.0066  0.4124  1.4820
   86SOPE   C36 8075   5.927   3.511   2.928 -0.2207 -0.0591 -0.7236
   86SOPE   H6X 8076   5.848   3.589   2.930  0.9437  1.2457 -2.2829
   86SOPE   H6Y 8077   6.031   3.547   2.914 -0.5426  1.5011  0.6412
   86SOPE   C37 8078   5.915   3.443   3.068 -0.8542  0.5383  0.4372
   86SOPE   H7X 8079   5.979   3.352   3.073  0.5549  1.3030 -1.8216
   86SOPE   H7Y 8080   5.809   3.414   3.085 -1.1998  1.8086  0.5261
   86SOPE   C38 8081   5.953   3.532   3.184 -0.0797 -0.7070 -0.6263
   86SOPE   H8X 8082   5.882   3.618   3.182  0.9685  0.1759 -2.5656
   86SOPE   H8Y 8083   6.050   3.580   3.160 -0.4820  0.1289 -0.6169
   86SOPE   C39 8084   5.955   3.464   3.319  0.0975 -0.0723 -0.4446
   86SOPE   H9X 8085   6.030   3.384   3.307  0.9581  0.9661 -2.4303
   86SOPE   H9Y 8086   5.853   3.420   3.326  0.0151 -0.1510 -1.9434
   86SOPE  C310 8087   5.989   3.554   3.436  0.5134  0.1678  0.2183
   86SOPE  H10X 8088   5.921   3.641   3.454  2.0134  1.6577 -0.9514
   86SOPE  H10Y 8089   6.081   3.611   3.411  0.7275  0.3333  1.3223
   86SOPE  C311 8090   6.002   3.471   3.563  0.3552  0.1907  0.1636
   86SOPE  H11X 8091   6.070   3.386   3.542  0.8650  0.2975  1.2883
   86SOPE  H11Y 8092   5.907   3.418   3.585 -0.1821  0.2345 -1.8857
   86SOPE  C312 8093   6.048   3.545   3.686  0.2371  0.2731 -0.0880
   86SOPE  H12X 8094   5.990   3.640   3.692  1.2649  1.0131 -1.2785
   86SOPE  H12Y 8095   6.156   3.568   3.671  0.7350 -1.1655  1.0812
   86SOPE  C313 8096   6.041   3.465   3.813  0.0637 -0.6799 -0.5899
   86SOPE  H13X 8097   6.110   3.380   3.794  1.5408 -0.2179  2.2394
   86SOPE  H13Y 8098   5.939   3.427   3.835  0.6412 -0.7228  2.4042
   86SOPE  C314 8099   6.099   3.534   3.940 -0.2725 -0.2940 -0.2924
   86SOPE  H14X 8100   6.039   3.625   3.960 -0.9008 -0.8372  0.3336
   86SOPE  H14Y 8101   6.203   3.564   3.914 -0.2094 -1.4730 -1.5132
   86SOPE  C315 8102   6.102   3.438   4.060 -0.6299 -0.4261  0.2819
   86SOPE  H15X 8103   6.005   3.383   4.064 -1.0625  0.3113  0.1361
   86SOPE  H15Y 8104   6.103   3.508   4.147  0.0706  1.4656 -1.1897
   86SOPE  C316 8105   6.225   3.341   4.064  0.0502 -0.0215  0.3894
   86SOPE  H16X 8106   6.322   3.392   4.085  1.4890 -2.3832 -0.2149
   86SOPE  H16Y 8107   6.245   3.299   3.963  0.8572  1.1334  0.0358
   86SOPE  C317 8108   6.221   3.225   4.163 -0.6461 -0.2987  0.0884
   86SOPE  H17X 8109   6.143   3.153   4.130  0.0187  0.3538 -3.2025
   86SOPE  H17Y 8110   6.201   3.252   4.269  1.7015 -1.0180  0.7619
   86SOPE  C318 8111   6.353   3.148   4.164 -0.2400 -0.3749 -0.3248
   86SOPE  H18X 8112   6.331   3.054   4.219 -0.3529 -0.3943 -0.4016
   86SOPE  H18Y 8113   6.429   3.204   4.223 -2.4413  2.8749 -0.3450
   86SOPE  H18Z 8114   6.390   3.118   4.063 -0.6289  1.3281 -1.0092
   87SOPE     N 8115   5.609   0.224   2.250 -0.1457  0.2332 -0.5017
   87SOPE   HN1 8116   5.692   0.286   2.259 -0.5145  0.5985  0.5554
   87SOPE   HN2 8117   5.597   0.198   2.150  1.0677 -2.0969 -0.1146
   87SOPE   HN3 8118   5.524   0.279   2.276  0.2574  0.7385 -0.2418
   87SOPE   C12 8119   5.640   0.092   2.320 -0.2452 -0.2100 -1.2510
   87SOPE  H12A 8120   5.582   0.016   2.265 -3.0189  1.4617 -0.8399
   87SOPE  H12B 8121   5.602   0.096   2.424  2.1282 -0.9180 -0.2854
   87SOPE   C11 8122   5.785   0.061   2.339  0.0082  0.1941 -0.1997
   87SOPE  H11A 8123   5.838   0.057   2.242  2.8109  0.0010  1.2393
   87SOPE  H11B 8124   5.792  -0.042   2.380 -1.6347 -0.3490 -1.1642
   87SOPE     P 8125   5.925   0.287   2.380  0.0865 -0.2601 -0.2803
   87SOPE   O13 8126   5.841   0.359   2.281  0.6969  0.7786 -0.4782
   87SOPE   O14 8127   6.068   0.280   2.344 -0.1579  0.2816  0.0617
   87SOPE   O12 8128   5.853   0.152   2.425 -0.0771 -0.1336 -0.2309
   87SOPE   O11 8129   5.918   0.374   2.513 -0.1483 -0.2164 -0.4583
   87SOPE    C1 8130   5.997   0.326   2.625 -0.2132  0.3988  0.2856
   87SOPE    HA 8131   6.106   0.310   2.607 -0.3407 -0.3277  0.1263
   87SOPE    HB 8132   5.949   0.238   2.672 -0.4242  0.6926  0.6193
   87SOPE    C2 8133   5.997   0.436   2.735 -0.4558 -0.0974  0.8786
   87SOPE    HS 8134   6.047   0.519   2.680  3.4445 -3.2418 -0.8301
   87SOPE   O21 8135   6.080   0.391   2.844  0.1005 -0.4288 -0.1093
   87SOPE   C21 8136   6.201   0.440   2.849 -0.6014 -1.1029  0.0350
   87SOPE   O22 8137   6.256   0.518   2.775 -0.0733 -0.2455 -0.0459
   87SOPE   C22 8138   6.274   0.377   2.964 -0.6933  0.2989  0.0153
   87SOPE   H2R 8139   6.329   0.295   2.913 -1.5318 -0.4548  0.2926
   87SOPE   H2S 8140   6.199   0.329   3.031 -1.4161  2.3641  0.7614
   87SOPE    C3 8141   5.857   0.487   2.768  0.4197  0.2433 -0.0880
   87SOPE    HX 8142   5.792   0.398   2.780  1.5231 -0.6548 -0.6657
   87SOPE    HY 8143   5.829   0.549   2.680 -0.0689 -0.4660 -0.4338
   87SOPE   O31 8144   5.856   0.547   2.897  0.3467 -0.4507 -0.0098
   87SOPE   C31 8145   5.917   0.664   2.913  0.5854  0.4671  0.6299
   87SOPE   O32 8146   5.958   0.734   2.822  0.1877 -0.6175  0.2362
   87SOPE   C32 8147   5.906   0.714   3.061 -1.2795  0.1943  0.1272
   87SOPE   H2X 8148   5.797   0.712   3.083 -1.5308 -0.1690 -1.0823
   87SOPE   H2Y 8149   5.946   0.818   3.065 -1.6152  0.4721 -2.1646
   87SOPE   C23 8150   6.369   0.462   3.054  0.4073 -0.3440 -0.5569
   87SOPE   H3R 8151   6.329   0.555   3.099 -0.6836 -0.6927 -0.7648
   87SOPE   H3S 8152   6.467   0.474   3.003  1.4714  0.3810  1.5619
   87SOPE   C24 8153   6.408   0.396   3.194  0.2806  0.3085  0.0655
   87SOPE   H4R 8154   6.308   0.398   3.243 -0.1822  1.5503 -0.8912
   87SOPE   H4S 8155   6.462   0.301   3.173  0.4252  0.5559 -0.7149
   87SOPE   C25 8156   6.507   0.490   3.277 -0.1624  1.0311 -0.4846
   87SOPE   H5R 8157   6.588   0.498   3.202  1.2358  0.7500  0.9329
   87SOPE   H5S 8158   6.466   0.591   3.297 -0.3527  1.1080 -1.2232
   87SOPE   C26 8159   6.549   0.411   3.404 -0.7587  0.1891  0.1667
   87SOPE   H6R 8160   6.564   0.307   3.369 -0.0231 -0.0019  1.0161
   87SOPE   H6S 8161   6.640   0.454   3.451  0.2720 -1.7874  0.0573
   87SOPE   C27 8162   6.437   0.421   3.510 -0.6908 -0.4533  0.4675
   87SOPE   H7R 8163   6.417   0.530   3.517  0.5120 -0.2250  0.7194
   87SOPE   H7S 8164   6.351   0.359   3.477 -0.4461 -0.9156  0.6823
   87SOPE   C28 8165   6.497   0.385   3.648 -0.9728  0.2059  0.5384
   87SOPE   H8R 8166   6.530   0.279   3.642  2.3652  1.1127  0.7107
   87SOPE   H8S 8167   6.594   0.439   3.656 -1.0737  0.2448  1.7358
   87SOPE   C29 8168   6.411   0.411   3.766 -0.1657 -0.1430 -0.3415
   87SOPE   H91 8169   6.326   0.478   3.751 -0.3361 -0.4282 -0.6595
   87SOPE  C210 8170   6.425   0.348   3.891  0.2386 -0.3365  0.0015
   87SOPE  H101 8171   6.364   0.381   3.977  1.1419 -0.0886  0.5641
   87SOPE  C211 8172   6.543   0.253   3.927  0.5102 -0.0891  0.0667
   87SOPE  H11R 8173   6.626   0.325   3.942 -0.0930  0.8725 -1.0184
   87SOPE  H11S 8174   6.578   0.194   3.840 -0.0078  0.3804 -0.4759
   87SOPE  C212 8175   6.514   0.147   4.028  0.1615 -0.0089  0.6257
   87SOPE  H12R 8176   6.487   0.188   4.127  1.9769  1.1504  0.6891
   87SOPE  H12S 8177   6.614   0.103   4.048  0.2878  0.3595  0.8081
   87SOPE  C213 8178   6.406   0.048   3.982  0.5350 -0.4419  0.0758
   87SOPE  H13R 8179   6.432   0.031   3.876 -2.1852 -1.4246 -0.5021
   87SOPE  H13S 8180   6.304   0.091   3.973  0.2907 -0.8675  0.7700
   87SOPE  C214 8181   6.397  -0.092   4.049  0.4947  0.1147  0.0157
   87SOPE  H14R 8182   6.485  -0.157   4.029  0.7900  0.9755 -1.6148
   87SOPE  H14S 8183   6.301  -0.133   4.010 -1.3278  2.7600  1.4406
   87SOPE  C215 8184   6.400  -0.087   4.202  0.8181  0.7029 -0.5033
   87SOPE  H15R 8185   6.332  -0.007   4.238 -1.5503 -1.5501  0.3014
   87SOPE  H15S 8186   6.504  -0.059   4.231  0.1611  1.8666  0.9027
   87SOPE  C216 8187   6.364  -0.223   4.265 -0.6382  0.6344  0.3845
   87SOPE  H16R 8188   6.393  -0.294   4.184  1.3274  3.0350 -1.1519
   87SOPE  H16S 8189   6.253  -0.224   4.255 -0.4550 -1.4016 -3.2821
   87SOPE  C217 8190   6.404  -0.247   4.415  0.2474  0.3494 -0.1162
   87SOPE  H17R 8191   6.495  -0.189   4.443 -1.3253  1.9977  1.8270
   87SOPE  H17S 8192   6.411  -0.356   4.435  1.7936  0.3357 -0.5659
   87SOPE  C218 8193   6.298  -0.187   4.503 -0.3644 -0.6349 -0.3765
   87SOPE  H18R 8194   6.314  -0.078   4.510  0.3736 -0.6080 -2.0963
   87SOPE  H18S 8195   6.324  -0.227   4.604  0.2755  0.7899  0.0402
   87SOPE  H18T 8196   6.199  -0.218   4.463  0.1867 -2.4755 -0.4113
   87SOPE   C33 8197   5.981   0.626   3.158  0.1748 -0.2390 -0.0138
   87SOPE   H3X 8198   6.091   0.629   3.143  0.3105 -0.4697  0.8575
   87SOPE   H3Y 8199   5.947   0.521   3.141 -0.2187 -0.4632  1.8982
   87SOPE   C34 8200   5.949   0.665   3.301  0.7364 -0.1572  0.2226
   87SOPE   H4X 8201   5.841   0.662   3.326  0.5695 -0.4076 -0.5083
   87SOPE   H4Y 8202   5.989   0.766   3.323  2.5127 -0.5428 -1.0228
   87SOPE   C35 8203   6.012   0.574   3.402 -0.2685  0.6457  0.2312
   87SOPE   H5X 8204   6.121   0.573   3.377 -0.1888 -0.7459  0.5330
   87SOPE   H5Y 8205   5.984   0.467   3.390  0.5826  0.6825 -2.8399
   87SOPE   C36 8206   5.985   0.606   3.549 -0.2402 -0.7188 -0.3215
   87SOPE   H6X 8207   5.875   0.600   3.562 -0.6310 -2.2610 -3.3939
   87SOPE   H6Y 8208   6.017   0.710   3.569  0.4630 -1.0809  0.4914
   87SOPE   C37 8209   6.052   0.508   3.641  0.2051  0.3140 -0.2287
   87SOPE   H7X 8210   6.160   0.498   3.620  0.1299  0.8733 -0.8823
   87SOPE   H7Y 8211   5.995   0.413   3.630  1.7973 -1.0680  2.5176
   87SOPE   C38 8212   6.046   0.555   3.787 -0.9917 -0.2932 -0.2405
   87SOPE   H8X 8213   5.949   0.603   3.813  0.4920  2.6897  0.1349
   87SOPE   H8Y 8214   6.125   0.629   3.809 -1.2062 -0.3303  0.6890
   87SOPE   C39 8215   6.054   0.449   3.903  0.0794  0.3322 -0.1614
   87SOPE   H9X 8216   6.120   0.367   3.869 -1.4668 -0.3790 -1.5907
   87SOPE   H9Y 8217   5.950   0.410   3.914 -0.1564  0.9201 -0.2122
   87SOPE  C310 8218   6.106   0.507   4.036  0.3137  0.4151 -0.0017
   87SOPE  H10X 8219   6.044   0.591   4.075  2.1163  0.6247  2.7486
   87SOPE  H10Y 8220   6.210   0.544   4.020 -0.4104  2.2036 -0.8761
   87SOPE  C311 8221   6.106   0.412   4.148 -0.4602  0.0355 -0.6022
   87SOPE  H11X 8222   6.162   0.461   4.230 -0.9275  0.4508 -0.5178
   87SOPE  H11Y 8223   6.150   0.314   4.123  0.6481  0.4204 -0.2020
   87SOPE  C312 8224   5.962   0.385   4.202  0.1256 -0.2595 -0.0366
   87SOPE  H12X 8225   5.903   0.342   4.118 -0.6258  0.9102 -0.1381
   87SOPE  H12Y 8226   5.909   0.474   4.243  2.9780  0.1378  3.1552
   87SOPE  C313 8227   5.971   0.291   4.323 -0.1849  0.2653 -0.5078
   87SOPE  H13X 8228   6.054   0.321   4.390  2.2144  0.1442 -3.2237
   87SOPE  H13Y 8229   6.001   0.189   4.292 -0.4158 -0.6248  1.9722
   87SOPE  C314 8230   5.835   0.278   4.397 -0.7353  0.4911 -0.0733
   87SOPE  H14X 8231   5.741   0.253   4.344 -1.1300  1.5258  0.1099
   87SOPE  H14Y 8232   5.816   0.382   4.432  2.2790  0.4519  2.0589
   87SOPE  C315 8233   5.853   0.183   4.516 -0.3998  0.2845  0.5089
   87SOPE  H15X 8234   5.755   0.200   4.566 -0.4545  0.7552  0.2470
   87SOPE  H15Y 8235   5.938   0.220   4.577  1.1145  1.8287 -2.3270
   87SOPE  C316 8236   5.889   0.043   4.479 -0.2350 -0.2161  1.1004
   87SOPE  H16X 8237   5.996   0.028   4.452 -0.5218  0.3252 -0.4135
   87SOPE  H16Y 8238   5.839   0.029   4.381  1.0300  0.3598  0.3542
   87SOPE  C317 8239   5.852  -0.073   4.572 -0.9951  0.0568  0.6196
   87SOPE  H17X 8240   5.870  -0.173   4.526 -2.1913  0.4018 -0.6657
   87SOPE  H17Y 8241   5.744  -0.074   4.599 -1.0509 -1.7714  0.4662
   87SOPE  C318 8242   5.943  -0.075   4.697  0.0046 -0.2433 -0.4975
   87SOPE  H18X 8243   5.916  -0.163   4.759 -1.3093  2.5468  3.2795
   87SOPE  H18Y 8244   5.926   0.008   4.768 -0.2381 -1.1368  0.5037
   87SOPE  H18Z 8245   6.053  -0.079   4.679  0.3080  3.0347  0.0756
   88SOPE     N 8246   0.019   1.512   2.234 -0.2561  0.4129  0.6040
   88SOPE   HN1 8247   0.039   1.595   2.174 -1.2152 -0.7388 -1.4113
   88SOPE   HN2 8248   0.040   1.428   2.177  0.4921 -1.9215  4.0201
   88SOPE   HN3 8249  -0.082   1.509   2.261 -0.4957  3.2474  0.3829
   88SOPE   C12 8250   0.117   1.526   2.344 -0.0333  0.0110 -0.1129
   88SOPE  H12A 8251   0.213   1.477   2.315  0.2851  0.5899 -0.0439
   88SOPE  H12B 8252   0.078   1.463   2.427  0.2932 -1.1216 -0.7882
   88SOPE   C11 8253   0.123   1.670   2.401 -0.0174  0.3787  0.5883
   88SOPE  H11A 8254   0.208   1.663   2.473 -0.2710 -0.5219  0.8158
   88SOPE  H11B 8255   0.032   1.695   2.460  1.2656  6.1296  0.6855
   88SOPE     P 8256   0.273   1.837   2.266  0.0808 -0.3578  0.0060
   88SOPE   O13 8257   0.236   1.946   2.170 -0.7884  0.2835 -0.4088
   88SOPE   O14 8258   0.371   1.740   2.220  0.0075 -0.1347  0.0738
   88SOPE   O12 8259   0.132   1.771   2.295 -0.2052 -0.0823 -0.0758
   88SOPE   O11 8260   0.295   1.896   2.415 -0.1513 -0.2050 -0.2668
   88SOPE    C1 8261   0.267   2.037   2.427 -0.3204  0.0270  0.3587
   88SOPE    HA 8262   0.169   2.056   2.379  1.4883  2.2192 -2.9092
   88SOPE    HB 8263   0.350   2.101   2.389  0.7466  0.2759  2.8922
   88SOPE    C2 8264   0.242   2.071   2.579  1.0143  0.2134 -0.5846
   88SOPE    HS 8265   0.215   2.178   2.586 -0.7254 -0.2166 -0.1064
   88SOPE   O21 8266   0.359   2.030   2.658  0.5727 -0.2473 -0.2815
   88SOPE   C21 8267   0.372   2.098   2.765  0.2983 -1.0816 -0.0171
   88SOPE   O22 8268   0.300   2.190   2.813 -0.8188 -0.0191  0.0800
   88SOPE   C22 8269   0.489   2.040   2.841  0.5011  0.3959  0.0586
   88SOPE   H2R 8270   0.526   2.123   2.905 -1.7349  1.2563  0.3490
   88SOPE   H2S 8271   0.567   2.025   2.764  0.7519  2.2662 -0.0966
   88SOPE    C3 8272   0.119   1.982   2.635  0.5351 -0.5299 -0.6825
   88SOPE    HX 8273   0.181   1.890   2.640 -1.1080 -1.6422 -0.0534
   88SOPE    HY 8274   0.031   1.974   2.567 -0.0810  1.2301 -0.1396
   88SOPE   O31 8275   0.081   2.012   2.771  0.3755 -0.5000 -0.4006
   88SOPE   C31 8276  -0.019   2.098   2.770  0.1837 -0.1719 -0.5683
   88SOPE   O32 8277  -0.075   2.134   2.669 -0.1691  0.1831  0.9951
   88SOPE   C32 8278  -0.064   2.131   2.910 -0.1337 -0.6434  1.1267
   88SOPE   H2X 8279   0.026   2.158   2.969  0.2273  0.4325  0.1254
   88SOPE   H2Y 8280  -0.109   2.040   2.954  0.1754 -1.0170  0.6837
   88SOPE   C23 8281   0.465   1.917   2.923 -0.2824  1.0082 -0.3279
   88SOPE   H3R 8282   0.564   1.885   2.964  0.5713  1.2806 -2.1019
   88SOPE   H3S 8283   0.420   1.835   2.864  0.2018  0.8506 -0.4787
   88SOPE   C24 8284   0.364   1.928   3.044 -0.0905 -0.0968  0.6599
   88SOPE   H4R 8285   0.272   1.970   2.999 -0.2397  0.4776  1.4649
   88SOPE   H4S 8286   0.339   1.826   3.082 -1.8246  0.4013  0.9173
   88SOPE   C25 8287   0.413   2.038   3.145  0.3205  0.3615  0.0347
   88SOPE   H5R 8288   0.497   2.005   3.209  0.1886  0.2004  0.1257
   88SOPE   H5S 8289   0.433   2.140   3.106  1.7323  1.2453  2.8012
   88SOPE   C26 8290   0.312   2.051   3.268 -0.3509 -1.0349  0.0917
   88SOPE   H6R 8291   0.300   1.950   3.314 -1.6267 -1.5807 -1.3393
   88SOPE   H6S 8292   0.347   2.126   3.342 -3.6464  0.5919  0.1680
   88SOPE   C27 8293   0.171   2.093   3.235 -0.2607  0.0399  0.4149
   88SOPE   H7R 8294   0.180   2.195   3.192  0.3312 -0.2582 -0.1724
   88SOPE   H7S 8295   0.118   2.022   3.167  0.2638 -1.7599  1.8080
   88SOPE   C28 8296   0.080   2.098   3.350 -0.0952  0.8061  0.0099
   88SOPE   H8R 8297  -0.027   2.105   3.319 -0.1699 -0.5486 -0.0909
   88SOPE   H8S 8298   0.088   2.003   3.406  0.6600  0.1916 -1.1146
   88SOPE   C29 8299   0.109   2.217   3.441  0.1287  0.1482 -0.2456
   88SOPE   H91 8300   0.151   2.310   3.400  0.9486  0.0885  0.4106
   88SOPE  C210 8301   0.097   2.214   3.576  0.2846 -0.7117 -0.2146
   88SOPE  H101 8302   0.106   2.311   3.627 -2.7903 -0.7968  0.6639
   88SOPE  C211 8303   0.053   2.098   3.657 -0.5814  0.0631 -0.1616
   88SOPE  H11R 8304  -0.026   2.032   3.616  1.2811 -1.8976 -0.7825
   88SOPE  H11S 8305   0.007   2.137   3.750  0.2574  2.4043 -0.6529
   88SOPE  C212 8306   0.172   2.020   3.698  0.3299  0.0788 -0.4057
   88SOPE  H12R 8307   0.234   1.999   3.608 -0.7485  0.1308 -1.1835
   88SOPE  H12S 8308   0.126   1.923   3.726 -3.4339  1.4322 -1.3401
   88SOPE  C213 8309   0.246   2.076   3.819 -0.4898 -0.3040  0.1582
   88SOPE  H13R 8310   0.172   2.070   3.902  0.0285  0.9119  0.7346
   88SOPE  H13S 8311   0.276   2.182   3.803  1.1683 -0.6664  0.6890
   88SOPE  C214 8312   0.360   1.982   3.855  0.0591 -0.4627  0.0216
   88SOPE  H14R 8313   0.450   1.983   3.790  0.1475 -0.3656  0.1451
   88SOPE  H14S 8314   0.316   1.880   3.851  1.8294 -1.2574 -0.1921
   88SOPE  C215 8315   0.412   2.002   4.003 -0.0281  0.2397  0.0580
   88SOPE  H15R 8316   0.322   2.016   4.065 -2.3581  0.0185 -3.0091
   88SOPE  H15S 8317   0.467   2.099   4.007  2.9071 -1.3566  1.2990
   88SOPE  C216 8318   0.518   1.895   4.048 -0.3620  0.2510 -0.1327
   88SOPE  H16R 8319   0.559   1.930   4.145  0.9511 -1.3588 -0.0727
   88SOPE  H16S 8320   0.600   1.881   3.974  2.4520  0.9548  2.6225
   88SOPE  C217 8321   0.462   1.752   4.083 -0.1410 -0.4662 -0.5480
   88SOPE  H17R 8322   0.546   1.701   4.135  0.5704  0.0283 -1.1846
   88SOPE  H17S 8323   0.444   1.692   3.991  0.3141 -1.1516 -0.2043
   88SOPE  C218 8324   0.333   1.737   4.172 -0.0434  0.3093  1.1941
   88SOPE  H18R 8325   0.244   1.727   4.106  1.3232  1.0768 -0.8941
   88SOPE  H18S 8326   0.322   1.824   4.240  0.7728 -0.7074  2.6911
   88SOPE  H18T 8327   0.337   1.647   4.237  0.2846 -1.0762 -0.6250
   88SOPE   C33 8328  -0.170   2.255   2.923  0.4109  0.7716 -0.0150
   88SOPE   H3X 8329  -0.226   2.268   2.828  2.4368  2.0394 -1.1341
   88SOPE   H3Y 8330  -0.108   2.347   2.936  1.4070  0.3153 -1.2472
   88SOPE   C34 8331  -0.252   2.219   3.050 -0.1687 -0.7928  0.6673
   88SOPE   H4X 8332  -0.184   2.215   3.138  1.9027  0.4778 -0.8034
   88SOPE   H4Y 8333  -0.304   2.123   3.031  1.1573 -1.5037  0.5558
   88SOPE   C35 8334  -0.356   2.328   3.091 -0.2956  0.2167 -0.1570
   88SOPE   H5X 8335  -0.430   2.339   3.009 -0.5983  0.2123  0.1092
   88SOPE   H5Y 8336  -0.313   2.430   3.092 -0.2677  0.2599 -2.2781
   88SOPE   C36 8337  -0.438   2.294   3.214  0.6262  0.3361 -0.0189
   88SOPE   H6X 8338  -0.484   2.194   3.202  0.3253  0.3736  0.7649
   88SOPE   H6Y 8339  -0.525   2.361   3.232 -0.4105 -0.7767 -0.7613
   88SOPE   C37 8340  -0.356   2.297   3.344 -0.0241 -0.0661  0.3910
   88SOPE   H7X 8341  -0.299   2.392   3.356  0.3127 -0.4118  1.7731
   88SOPE   H7Y 8342  -0.280   2.216   3.339  1.2467  1.1014  0.2045
   88SOPE   C38 8343  -0.425   2.271   3.478 -0.2020 -0.0574 -0.3857
   88SOPE   H8X 8344  -0.345   2.261   3.553  0.0547 -1.1411 -0.7791
   88SOPE   H8Y 8345  -0.479   2.175   3.460 -2.0181  1.1065 -1.6064
   88SOPE   C39 8346  -0.531   2.370   3.532  0.1181 -0.1807  0.4272
   88SOPE   H9X 8347  -0.620   2.372   3.466  0.2527 -0.6101  0.2306
   88SOPE   H9Y 8348  -0.490   2.474   3.533  1.3426 -0.6310  2.2065
   88SOPE  C310 8349  -0.586   2.330   3.672  0.0094 -0.3734 -0.3767
   88SOPE  H10X 8350  -0.502   2.281   3.726  0.0551  1.2807  1.1675
   88SOPE  H10Y 8351  -0.669   2.257   3.663  1.1963 -1.6823 -1.2365
   88SOPE  C311 8352  -0.629   2.454   3.752 -0.2082 -0.2729  0.3391
   88SOPE  H11X 8353  -0.694   2.514   3.685  1.6365  1.0735 -0.3473
   88SOPE  H11Y 8354  -0.549   2.524   3.783 -0.4937  0.4305 -0.4847
   88SOPE  C312 8355  -0.707   2.417   3.872 -0.3862 -0.6787 -0.1308
   88SOPE  H12X 8356  -0.643   2.355   3.938  1.4269 -1.0190 -2.1110
   88SOPE  H12Y 8357  -0.792   2.350   3.846 -2.1109  1.9961 -2.0187
   88SOPE  C313 8358  -0.748   2.530   3.968  0.3451  0.6854  0.3484
   88SOPE  H13X 8359  -0.805   2.605   3.909  3.2745  3.7511  1.0863
   88SOPE  H13Y 8360  -0.653   2.583   3.991  1.7709 -2.5149  2.5710
   88SOPE  C314 8361  -0.804   2.488   4.102  0.8940  0.1052 -0.3854
   88SOPE  H14X 8362  -0.736   2.425   4.163 -1.5156 -2.1851  0.1117
   88SOPE  H14Y 8363  -0.897   2.428   4.096 -0.1861  1.5739  0.8704
   88SOPE  C315 8364  -0.847   2.600   4.199 -0.1784 -0.4344 -0.0600
   88SOPE  H15X 8365  -0.760   2.669   4.193  0.1216 -0.6774  1.2750
   88SOPE  H15Y 8366  -0.851   2.561   4.303 -1.6115  0.4580  0.2457
   88SOPE  C316 8367  -0.986   2.662   4.172 -0.5149 -0.6742  0.1045
   88SOPE  H16X 8368  -1.070   2.590   4.185 -3.0934  2.3182  1.4398
   88SOPE  H16Y 8369  -0.988   2.704   4.069  0.9768  0.0054  0.3281
   88SOPE  C317 8370  -1.023   2.774   4.274 -0.2191 -0.8611 -0.3862
   88SOPE  H17X 8371  -1.049   2.733   4.374 -1.3447  2.7811  0.9400
   88SOPE  H17Y 8372  -1.110   2.830   4.234 -0.2562  1.1816  2.2807
   88SOPE  C318 8373  -0.910   2.872   4.301  0.2390  0.3884 -0.5718
   88SOPE  H18X 8374  -0.883   2.921   4.204 -1.9936 -0.0229 -1.4643
   88SOPE  H18Y 8375  -0.822   2.827   4.351 -0.0505  1.8772  1.3861
   88SOPE  H18Z 8376  -0.954   2.957   4.358 -2.2923  1.3240 -3.6300
   89SAPC     N 8377   4.577   1.921   6.251 -0.2115  0.0270 -0.4061
   89SAPC   C12 8378   4.606   1.777   6.239  0.0952  0.0316 -0.0295
   89SAPC  H12A 8379   4.522   1.719   6.273  1.0010 -0.8582  0.7835
   89SAPC  H12B 8380   4.690   1.751   6.302  1.8059  2.7695 -0.9862
   89SAPC   C13 8381   4.562   1.961   6.387 -0.0595  0.5030 -0.9469
   89SAPC  H13A 8382   4.657   1.954   6.439  1.7822 -3.0257 -4.2877
   89SAPC  H13B 8383   4.545   2.067   6.397  3.3199  1.3042 -2.1485
   89SAPC  H13C 8384   4.490   1.912   6.450 -1.0163 -0.6266 -2.8494
   89SAPC   C14 8385   4.689   2.002   6.191  0.0405  0.1606  0.3194
   89SAPC  H14A 8386   4.782   1.995   6.246  0.5058  1.1402 -0.3201
   89SAPC  H14B 8387   4.715   1.962   6.094  2.7298  2.7076 -0.1495
   89SAPC  H14C 8388   4.656   2.103   6.171 -2.9241 -0.9205 -0.8441
   89SAPC   C15 8389   4.456   1.949   6.170 -0.1991  0.1767  0.5180
   89SAPC  H15A 8390   4.473   1.892   6.080  0.2901 -0.2320  0.8637
   89SAPC  H15B 8391   4.368   1.917   6.224 -0.7377  2.2058  0.9205
   89SAPC  H15C 8392   4.451   2.050   6.131  0.0806  0.0337  0.1038
   89SAPC   C11 8393   4.642   1.719   6.093 -0.3471 -0.4207 -0.6612
   89SAPC  H11A 8394   4.567   1.755   6.019 -0.6842  1.7304  0.6453
   89SAPC  H11B 8395   4.640   1.608   6.097  4.0479 -0.6497  1.4746
   89SAPC     P 8396   4.900   1.700   6.128 -0.2871  0.1739  0.0355
   89SAPC   O13 8397   4.997   1.808   6.152  0.0712  1.1127  0.1226
   89SAPC   O14 8398   4.854   1.621   6.242 -0.6145 -0.3623  0.0511
   89SAPC   O12 8399   4.776   1.763   6.042 -0.4850  0.4083 -0.5799
   89SAPC   O11 8400   4.962   1.593   6.027 -0.2371 -0.2159 -0.0432
   89SAPC    C1 8401   4.891   1.530   5.924 -0.2178  0.2145 -0.1947
   89SAPC    HA 8402   4.790   1.504   5.961  0.2606  1.7560  2.5124
   89SAPC    HB 8403   4.867   1.595   5.838  0.3084  0.6350 -0.0332
   89SAPC    C2 8404   4.951   1.393   5.888  1.0215  0.5186 -0.5602
   89SAPC    HS 8405   4.979   1.349   5.986 -2.0112  1.2047  0.7275
   89SAPC   O21 8406   5.065   1.431   5.812  1.2770  0.3646 -0.1444
   89SAPC   C21 8407   5.168   1.472   5.879 -0.4485  0.2224  0.4851
   89SAPC   O22 8408   5.196   1.449   5.996 -0.1090  0.1133 -0.0458
   89SAPC   C22 8409   5.252   1.567   5.783  0.4529 -0.4871  0.0430
   89SAPC   H2R 8410   5.328   1.495   5.744 -1.2547 -2.6319  0.4827
   89SAPC   H2S 8411   5.191   1.594   5.694  2.6579  1.5104 -0.9847
   89SAPC    C3 8412   4.853   1.308   5.800 -0.5347  0.3101 -0.3035
   89SAPC    HX 8413   4.765   1.282   5.863  1.1008 -2.2307  1.0965
   89SAPC    HY 8414   4.910   1.218   5.770  2.1173  1.3723  1.2112
   89SAPC   O31 8415   4.791   1.385   5.692 -0.4529 -0.2190  0.2957
   89SAPC   C31 8416   4.763   1.314   5.582  0.4349  0.2277  0.0878
   89SAPC   O32 8417   4.785   1.197   5.568  0.2480 -0.3554 -0.5593
   89SAPC   C32 8418   4.732   1.403   5.467  0.1930  0.0288  0.2307
   89SAPC   H2X 8419   4.829   1.435   5.425  0.2774 -0.1954  0.2556
   89SAPC   H2Y 8420   4.687   1.497   5.506  0.3034 -0.1576  0.8146
   89SAPC   C23 8421   5.322   1.695   5.835 -0.9191  0.0202 -0.3386
   89SAPC   H3R 8422   5.393   1.733   5.759 -0.4630 -0.2733 -0.0722
   89SAPC   H3S 8423   5.388   1.664   5.919  1.7054  1.0895 -1.8998
   89SAPC   C24 8424   5.229   1.799   5.903 -0.3222 -0.1555 -0.1472
   89SAPC   H4R 8425   5.298   1.847   5.976 -0.2744  1.7369 -1.3611
   89SAPC   H4S 8426   5.146   1.743   5.951 -0.3063  1.3943  1.8403
   89SAPC   C25 8427   5.184   1.903   5.806  0.0286 -0.4178 -0.6739
   89SAPC   H5R 8428   5.268   1.970   5.780  0.2860  0.5094  2.1502
   89SAPC   C26 8429   5.065   1.935   5.744 -0.5167 -0.0760 -0.1463
   89SAPC   H6R 8430   5.070   2.012   5.667  0.1868 -2.3141 -2.4761
   89SAPC   C27 8431   4.938   1.861   5.781  0.2466 -0.2880  0.4965
   89SAPC   H7R 8432   4.856   1.927   5.815  1.0382  0.8814  0.2004
   89SAPC   H7S 8433   4.943   1.788   5.865  0.5987 -1.6165 -0.6284
   89SAPC   C28 8434   4.887   1.794   5.656  0.6197  0.5902  1.0766
   89SAPC   H8R 8435   4.912   1.688   5.644  0.6556  0.8828 -3.5525
   89SAPC   C29 8436   4.823   1.860   5.550 -0.4328 -0.0986  0.2687
   89SAPC   H9R 8437   4.790   1.808   5.460  1.2587  2.6859 -2.1355
   89SAPC  C210 8438   4.795   2.004   5.538 -0.0363 -0.3087  0.7736
   89SAPC  H10R 8439   4.875   2.053   5.479 -1.5500  1.4252  0.0693
   89SAPC  H10S 8440   4.804   2.047   5.639  1.4124  0.0573  0.5119
   89SAPC  C211 8441   4.660   2.029   5.465 -0.1491  0.6899 -0.3562
   89SAPC  H11R 8442   4.578   2.056   5.533  0.7329  0.0243  1.0210
   89SAPC  C212 8443   4.635   2.014   5.330 -0.2416 -0.1618  0.1536
   89SAPC  H12R 8444   4.535   2.040   5.292 -0.7135 -1.0144  0.7687
   89SAPC  C213 8445   4.736   1.971   5.225 -0.8012 -0.0625 -0.2035
   89SAPC  H13R 8446   4.838   1.961   5.267 -0.0327  1.1916 -1.6565
   89SAPC  H13S 8447   4.751   2.053   5.151 -1.0820 -1.5087 -1.9110
   89SAPC  C214 8448   4.694   1.851   5.149  0.0589 -0.1140  0.0941
   89SAPC  H14R 8449   4.670   1.758   5.203  1.3036  1.1838  3.0982
   89SAPC  C215 8450   4.695   1.844   5.015 -0.4499  0.3723 -0.5686
   89SAPC  H15R 8451   4.646   1.758   4.967 -0.6271  0.7544 -1.0735
   89SAPC  C216 8452   4.725   1.952   4.910  0.1025 -0.9342  0.0095
   89SAPC  H16R 8453   4.814   1.930   4.846  0.0858 -1.1855  0.0714
   89SAPC  H16S 8454   4.744   2.051   4.957  0.7968 -0.3957 -1.3468
   89SAPC  C217 8455   4.595   1.958   4.818  0.4916 -0.3906 -0.6755
   89SAPC  H17R 8456   4.504   1.938   4.879 -0.5968  2.1269 -1.3589
   89SAPC  H17S 8457   4.605   1.890   4.731  0.9577 -3.8537  1.8800
   89SAPC  C218 8458   4.575   2.100   4.756  0.0611  0.5977 -0.0356
   89SAPC  H18R 8459   4.656   2.112   4.681 -0.2530 -1.5926 -0.7844
   89SAPC  H18S 8460   4.598   2.179   4.831  1.7492  2.0169 -1.9093
   89SAPC  C219 8461   4.440   2.125   4.685  0.5301  0.3053 -0.5189
   89SAPC  H19R 8462   4.351   2.090   4.742  1.1022 -1.9869 -0.9490
   89SAPC  H19S 8463   4.434   2.062   4.594 -1.4347 -0.9789  0.4280
   89SAPC  C220 8464   4.437   2.271   4.647 -0.1400 -0.1719  0.3269
   89SAPC  H20R 8465   4.537   2.318   4.651 -0.4044  0.4025  0.2328
   89SAPC  H20S 8466   4.373   2.322   4.722  0.8240  0.0411  1.0212
   89SAPC  H20T 8467   4.393   2.305   4.550 -0.0759  0.6185  0.5720
   89SAPC   C33 8468   4.658   1.328   5.359  0.3134 -0.5313 -0.4717
   89SAPC   H3X 8469   4.567   1.283   5.404  0.3008 -0.6372 -0.6030
   89SAPC   H3Y 8470   4.722   1.242   5.329 -0.4455 -1.1599 -0.3326
   89SAPC   C34 8471   4.629   1.417   5.235 -0.1126  0.1568 -0.2921
   89SAPC   H4X 8472   4.712   1.479   5.195  0.7615 -0.3338  0.7031
   89SAPC   H4Y 8473   4.548   1.483   5.272 -0.3050 -0.0596 -0.3241
   89SAPC   C35 8474   4.602   1.344   5.113  0.3954  0.5290 -0.1984
   89SAPC   H5X 8475   4.678   1.268   5.089  0.3819 -0.1499  1.7932
   89SAPC   H5Y 8476   4.600   1.427   5.038 -1.7371  1.0795  0.3855
   89SAPC   C36 8477   4.474   1.267   5.122  0.3503  0.0826 -0.3181
   89SAPC   H6X 8478   4.388   1.324   5.163 -0.5083 -0.5946 -1.1335
   89SAPC   H6Y 8479   4.491   1.180   5.190 -2.8948  0.1342  0.7359
   89SAPC   C37 8480   4.437   1.213   4.984  0.5913 -0.0773  0.0567
   89SAPC   H7X 8481   4.363   1.133   5.005  1.1540 -0.3886  0.9165
   89SAPC   H7Y 8482   4.529   1.167   4.944 -0.4681 -2.0161 -0.2928
   89SAPC   C38 8483   4.379   1.326   4.894 -0.5279 -0.2664  0.3017
   89SAPC   H8X 8484   4.463   1.399   4.895 -2.6826  2.3811 -0.2856
   89SAPC   H8Y 8485   4.288   1.370   4.938 -0.1856 -0.0304  0.7779
   89SAPC   C39 8486   4.359   1.289   4.742  0.7099 -0.2843  0.4526
   89SAPC   H9X 8487   4.249   1.283   4.728  0.9799 -1.7862 -1.5905
   89SAPC   H9Y 8488   4.392   1.185   4.717  0.0242 -0.4427  0.1902
   89SAPC  C310 8489   4.413   1.394   4.650 -0.1556 -0.6888  0.9721
   89SAPC  H10X 8490   4.519   1.369   4.628  1.1882  3.2514  2.2542
   89SAPC  H10Y 8491   4.419   1.495   4.696  0.3629 -0.4145  0.3196
   89SAPC  C311 8492   4.339   1.407   4.515 -0.3866  0.1816  0.2151
   89SAPC  H11X 8493   4.249   1.470   4.532  0.3399  1.4624 -0.4821
   89SAPC  H11Y 8494   4.302   1.307   4.484 -0.4460  0.6950 -1.4581
   89SAPC  C312 8495   4.414   1.474   4.395 -0.7383  0.0434  0.1424
   89SAPC  H12X 8496   4.363   1.442   4.302 -0.8443 -0.9962  0.5472
   89SAPC  H12Y 8497   4.516   1.433   4.379 -0.3828  1.0308 -0.2253
   89SAPC  C313 8498   4.434   1.630   4.399  0.6551  0.1584 -0.4033
   89SAPC  H13X 8499   4.498   1.654   4.486 -0.2669 -0.6553  0.5419
   89SAPC  H13Y 8500   4.337   1.683   4.405  0.7265  0.1966  0.4267
   89SAPC  C314 8501   4.496   1.668   4.265 -0.6143  0.3491  0.8755
   89SAPC  H14X 8502   4.420   1.667   4.184 -0.0942  1.4782  0.3511
   89SAPC  H14Y 8503   4.579   1.596   4.250 -0.9576 -0.1069  1.1194
   89SAPC  C315 8504   4.573   1.806   4.277 -0.2819  0.4115 -0.7509
   89SAPC  H15X 8505   4.621   1.815   4.177  0.6579 -1.1349 -0.4734
   89SAPC  H15Y 8506   4.655   1.790   4.350  0.6614 -1.4053 -2.1159
   89SAPC  C316 8507   4.492   1.925   4.321 -0.1791 -0.8529  0.3284
   89SAPC  H16X 8508   4.557   2.015   4.321 -0.8291 -0.3232 -1.6516
   89SAPC  H16Y 8509   4.443   1.912   4.420 -0.2033  0.6391  0.5347
   89SAPC  C317 8510   4.378   1.951   4.208  0.1678 -0.6366  0.2654
   89SAPC  H17X 8511   4.302   1.870   4.199  0.5182 -0.7635 -2.8103
   89SAPC  H17Y 8512   4.451   1.945   4.124  0.3718 -3.9319  0.5561
   89SAPC  C318 8513   4.310   2.084   4.226  1.1847  0.5967 -0.1248
   89SAPC  H18X 8514   4.250   2.105   4.135 -0.8294 -0.8609  0.8080
   89SAPC  H18Y 8515   4.377   2.169   4.252  0.4553  1.3927 -0.7888
   89SAPC  H18Z 8516   4.245   2.085   4.316  3.8871  0.7669  1.9595
   90SAPC     N 8517   2.609   0.825   6.232  0.1069 -0.2018 -0.1750
   90SAPC   C12 8518   2.473   0.889   6.204 -0.4102 -0.2541 -0.1373
   90SAPC  H12A 8519   2.498   0.987   6.166  2.1397  0.3836  2.7868
   90SAPC  H12B 8520   2.425   0.913   6.298 -0.2420 -0.6423  0.0469
   90SAPC   C13 8521   2.580   0.689   6.286  0.2968 -0.2260 -0.4089
   90SAPC  H13A 8522   2.492   0.654   6.233 -0.6366  1.0619  0.2417
   90SAPC  H13B 8523   2.669   0.627   6.282  2.0140  1.9934  0.8633
   90SAPC  H13C 8524   2.536   0.696   6.385  0.6676  0.6596 -0.3009
   90SAPC   C14 8525   2.686   0.811   6.102  0.0920  0.6332  0.6778
   90SAPC  H14A 8526   2.684   0.905   6.048 -0.2051  0.0129 -0.4124
   90SAPC  H14B 8527   2.788   0.779   6.116  0.5550  1.5911 -0.3117
   90SAPC  H14C 8528   2.631   0.738   6.045  1.8902 -1.1929  1.1770
   90SAPC   C15 8529   2.687   0.907   6.326 -0.4831  1.1650 -0.0465
   90SAPC  H15A 8530   2.709   1.003   6.282 -1.3634  1.6712  0.5839
   90SAPC  H15B 8531   2.648   0.922   6.426 -0.2229  0.0580  0.2338
   90SAPC  H15C 8532   2.779   0.855   6.351 -0.2697  2.2041  1.5028
   90SAPC   C11 8533   2.367   0.831   6.100 -0.1286 -0.5712 -0.1204
   90SAPC  H11A 8534   2.422   0.840   6.003 -0.1159 -0.9877 -0.1512
   90SAPC  H11B 8535   2.290   0.911   6.091 -0.1649 -0.7540 -1.8321
   90SAPC     P 8536   2.218   0.659   6.217  0.3472  0.2731  0.0528
   90SAPC   O13 8537   2.188   0.513   6.207  0.4372  0.0731  0.0140
   90SAPC   O14 8538   2.238   0.723   6.345  0.2570  0.0879 -0.2751
   90SAPC   O12 8539   2.333   0.692   6.116  0.1474 -0.3519 -0.0087
   90SAPC   O11 8540   2.112   0.742   6.133 -0.3576  0.2778 -0.1605
   90SAPC    C1 8541   1.990   0.701   6.084  0.4617  0.1194 -0.2779
   90SAPC    HA 8542   1.967   0.594   6.104 -0.3311 -0.0289 -1.8231
   90SAPC    HB 8543   1.907   0.764   6.122  1.0664 -0.0100  1.3208
   90SAPC    C2 8544   1.980   0.727   5.933 -0.0322 -0.1584 -0.0744
   90SAPC    HS 8545   1.873   0.753   5.915  0.3568 -0.1226 -2.6109
   90SAPC   O21 8546   2.018   0.616   5.850 -0.1866 -0.0948 -0.4936
   90SAPC   C21 8547   1.921   0.524   5.843  0.5208 -0.0107 -0.2205
   90SAPC   O22 8548   1.807   0.531   5.894 -0.1249  0.1325 -0.1656
   90SAPC   C22 8549   1.951   0.413   5.739 -0.2694 -0.1104 -0.7313
   90SAPC   H2R 8550   2.058   0.386   5.754 -0.4014  0.4066  1.4216
   90SAPC   H2S 8551   1.894   0.322   5.768 -1.5512  1.3106  1.5310
   90SAPC    C3 8552   2.055   0.856   5.891 -0.0023 -0.3634  0.3191
   90SAPC    HX 8553   2.163   0.854   5.917  0.2151 -0.7473 -0.5971
   90SAPC    HY 8554   2.024   0.945   5.951  0.0925  0.3024 -0.6035
   90SAPC   O31 8555   2.045   0.885   5.750  0.1658 -0.1221  0.2711
   90SAPC   C31 8556   2.137   0.825   5.673 -0.5024 -0.0214  0.1232
   90SAPC   O32 8557   2.235   0.765   5.711 -0.2070  0.1157 -0.1263
   90SAPC   C32 8558   2.111   0.843   5.525 -0.2046  0.4711  0.7419
   90SAPC   H2X 8559   2.113   0.952   5.500  2.4297  0.4469  0.5965
   90SAPC   H2Y 8560   2.014   0.796   5.499 -0.9429  1.6597  1.2302
   90SAPC   C23 8561   1.937   0.458   5.596  0.3278  0.3979  0.2812
   90SAPC   H3R 8562   1.990   0.554   5.579  0.2699  0.5720  1.0381
   90SAPC   H3S 8563   1.828   0.478   5.580  0.5004 -0.0305 -1.6624
   90SAPC   C24 8564   1.978   0.351   5.497 -0.1482  0.0068 -0.0836
   90SAPC   H4R 8565   1.949   0.379   5.393  0.7064 -2.4344 -1.0545
   90SAPC   H4S 8566   1.921   0.260   5.528 -0.1362  0.2437  0.6615
   90SAPC   C25 8567   2.128   0.335   5.503  0.1808  0.0404  0.6268
   90SAPC   H5R 8568   2.178   0.310   5.597  1.0330 -0.7829 -0.0293
   90SAPC   C26 8569   2.203   0.327   5.394 -0.5344  0.2411 -0.0679
   90SAPC   H6R 8570   2.312   0.324   5.403 -0.4439  0.4972 -0.9635
   90SAPC   C27 8571   2.156   0.348   5.250 -0.3116  0.1712 -0.8945
   90SAPC   H7R 8572   2.107   0.448   5.247 -0.9930  0.1445  3.4759
   90SAPC   H7S 8573   2.071   0.279   5.232 -1.3158  0.3426  2.6146
   90SAPC   C28 8574   2.257   0.353   5.137 -0.4513 -0.1732  0.2574
   90SAPC   H8R 8575   2.356   0.394   5.163 -0.4067  0.0860 -0.3240
   90SAPC   C29 8576   2.243   0.307   5.013  0.4724 -0.3125 -1.2044
   90SAPC   H9R 8577   2.322   0.316   4.937  0.9916 -1.4522 -0.8189
   90SAPC  C210 8578   2.118   0.250   4.950 -0.1216 -0.3571  0.8681
   90SAPC  H10R 8579   2.078   0.321   4.874 -1.0945 -0.7435  0.9964
   90SAPC  H10S 8580   2.033   0.227   5.018  0.4002  0.4985  1.8413
   90SAPC  C211 8581   2.148   0.122   4.888  0.1283 -0.9802  0.4701
   90SAPC  H11R 8582   2.162   0.040   4.959 -0.2299 -0.7714  0.7811
   90SAPC  C212 8583   2.163   0.089   4.752 -0.8460 -0.0358 -0.0628
   90SAPC  H12R 8584   2.191  -0.015   4.734  0.8825  0.2802  0.5777
   90SAPC  C213 8585   2.156   0.180   4.639  0.1112  0.5494  0.7916
   90SAPC  H13R 8586   2.262   0.194   4.610  0.0005 -1.2934 -0.7603
   90SAPC  H13S 8587   2.115   0.280   4.662  2.4542  2.2091 -1.6435
   90SAPC  C214 8588   2.088   0.125   4.512  0.4994 -0.3178 -0.1007
   90SAPC  H14R 8589   1.987   0.158   4.482  0.4832 -2.5162 -2.9086
   90SAPC  C215 8590   2.158   0.056   4.415 -0.8101  0.1293 -0.3881
   90SAPC  H15R 8591   2.104   0.036   4.321  1.3288  0.4174 -1.7732
   90SAPC  C216 8592   2.307   0.012   4.425  0.5460  0.1346  0.3796
   90SAPC  H16R 8593   2.325  -0.065   4.502  0.4104  0.9716  1.2638
   90SAPC  H16S 8594   2.373   0.094   4.459  0.0955  1.0429 -0.8591
   90SAPC  C217 8595   2.371  -0.048   4.292 -0.8581 -0.5618  0.1585
   90SAPC  H17R 8596   2.294  -0.112   4.243  1.1721 -1.3433 -2.2137
   90SAPC  H17S 8597   2.461  -0.111   4.310 -0.8524 -0.6512 -0.1703
   90SAPC  C218 8598   2.401   0.066   4.186 -0.0476  0.4652  0.5537
   90SAPC  H18R 8599   2.481   0.138   4.212  2.0590 -2.4466  2.7941
   90SAPC  H18S 8600   2.306   0.124   4.181 -1.0311 -1.1638 -1.3697
   90SAPC  C219 8601   2.429   0.003   4.055  0.2522  0.0865  0.6057
   90SAPC  H19R 8602   2.431   0.085   3.979 -1.5673  0.3529  0.7851
   90SAPC  H19S 8603   2.349  -0.067   4.022  0.2748 -0.3784  1.5169
   90SAPC  C220 8604   2.550  -0.087   4.048  0.7063 -0.1111 -0.0695
   90SAPC  H20R 8605   2.646  -0.034   4.065 -0.0012  0.4616  2.5671
   90SAPC  H20S 8606   2.549  -0.145   3.953 -1.3493 -1.0721  0.4886
   90SAPC  H20T 8607   2.550  -0.170   4.122 -0.9317 -0.9091 -0.9115
   90SAPC   C33 8608   2.227   0.773   5.449  0.1333  0.5851 -0.2665
   90SAPC   H3X 8609   2.248   0.670   5.484 -0.6268  1.3808  2.7938
   90SAPC   H3Y 8610   2.322   0.830   5.447 -0.6809  2.3401  3.3597
   90SAPC   C34 8611   2.186   0.768   5.301  0.1908 -0.3083 -0.1049
   90SAPC   H4X 8612   2.148   0.870   5.275 -0.8839 -0.4416  0.8333
   90SAPC   H4Y 8613   2.096   0.703   5.296 -2.2148  2.8051 -1.3875
   90SAPC   C35 8614   2.292   0.722   5.204 -0.3071  0.0533 -0.3214
   90SAPC   H5X 8615   2.329   0.620   5.226 -2.8168 -1.2122 -1.5782
   90SAPC   H5Y 8616   2.384   0.786   5.210  1.5667 -2.4964 -0.3472
   90SAPC   C36 8617   2.241   0.709   5.059 -0.2689 -0.1095  1.3666
   90SAPC   H6X 8618   2.185   0.796   5.016 -2.5247 -3.1059 -2.3712
   90SAPC   H6Y 8619   2.169   0.626   5.041  0.2722 -0.5048  1.0004
   90SAPC   C37 8620   2.373   0.687   4.977 -0.0838  0.3320  0.6751
   90SAPC   H7X 8621   2.400   0.579   4.977 -0.2108  0.2973  1.4592
   90SAPC   H7Y 8622   2.458   0.750   5.012 -0.6722  0.9611  0.9821
   90SAPC   C38 8623   2.356   0.726   4.820  0.0273 -0.5811 -0.3341
   90SAPC   H8X 8624   2.459   0.759   4.793  0.6475  0.0962  2.5467
   90SAPC   H8Y 8625   2.283   0.809   4.808 -0.5046 -0.8202  1.0934
   90SAPC   C39 8626   2.321   0.601   4.735 -0.2580 -0.9185  0.4173
   90SAPC   H9X 8627   2.219   0.564   4.760 -0.3625 -1.6716 -0.9887
   90SAPC   H9Y 8628   2.402   0.525   4.733 -0.9011 -1.7916 -4.4006
   90SAPC  C310 8629   2.321   0.635   4.585  0.3345  0.0217 -0.5948
   90SAPC  H10X 8630   2.418   0.681   4.556  0.7948 -0.4182  0.2169
   90SAPC  H10Y 8631   2.255   0.720   4.559  2.9628  2.1993 -0.6575
   90SAPC  C311 8632   2.279   0.519   4.502 -0.0891 -0.8539 -0.0529
   90SAPC  H11X 8633   2.170   0.504   4.518 -0.6452  3.8052  2.1688
   90SAPC  H11Y 8634   2.332   0.430   4.542 -1.7728 -2.6814 -1.6585
   90SAPC  C312 8635   2.313   0.536   4.354 -0.0115 -0.1948  0.7152
   90SAPC  H12X 8636   2.272   0.635   4.323  0.8155  1.1495  3.6066
   90SAPC  H12Y 8637   2.251   0.467   4.294 -0.0648  0.3961  0.0702
   90SAPC  C313 8638   2.465   0.540   4.312 -0.2046 -0.0808 -0.4554
   90SAPC  H13X 8639   2.536   0.505   4.390  1.1414  3.9074  0.3687
   90SAPC  H13Y 8640   2.488   0.647   4.294  1.9285 -0.2880  0.7148
   90SAPC  C314 8641   2.496   0.468   4.176 -0.1377  0.0209  0.9979
   90SAPC  H14X 8642   2.405   0.464   4.112  1.1930  0.0319 -0.9704
   90SAPC  H14Y 8643   2.533   0.365   4.194  0.8466 -0.0512 -1.1342
   90SAPC  C315 8644   2.617   0.533   4.104  0.4145 -0.5908 -0.7323
   90SAPC  H15X 8645   2.704   0.519   4.171 -0.7685  1.3337  1.3436
   90SAPC  H15Y 8646   2.578   0.637   4.091 -2.1886 -1.2848  0.7405
   90SAPC  C316 8647   2.634   0.486   3.963 -0.4421  0.0699 -0.3099
   90SAPC  H16X 8648   2.540   0.499   3.904 -0.3990 -0.6377 -0.5467
   90SAPC  H16Y 8649   2.659   0.378   3.968  0.4459  0.3340  1.6982
   90SAPC  C317 8650   2.739   0.562   3.872  0.0980  0.1992 -0.3151
   90SAPC  H17X 8651   2.718   0.670   3.884 -2.2953 -0.0877 -1.2110
   90SAPC  H17Y 8652   2.722   0.525   3.768  1.7618 -2.3145  0.2253
   90SAPC  C318 8653   2.881   0.531   3.912  0.0982  0.2573 -0.1999
   90SAPC  H18X 8654   2.886   0.423   3.939 -0.3474 -0.0845 -1.4115
   90SAPC  H18Y 8655   2.895   0.590   4.004 -0.3666  0.9923 -0.5929
   90SAPC  H18Z 8656   2.953   0.564   3.834  0.1873  0.0233 -0.2173
   91SAPC     N 8657   0.922   1.181   6.431  0.1363  0.3802  0.4932
   91SAPC   C12 8658   0.902   1.033   6.411  0.0896  0.0777  0.3372
   91SAPC  H12A 8659   0.982   0.992   6.352  1.0990 -1.8219  2.8707
   91SAPC  H12B 8660   0.815   1.005   6.353  0.3576 -1.9498  0.8560
   91SAPC   C13 8661   0.838   1.231   6.539  0.2624  0.0412 -0.1087
   91SAPC  H13A 8662   0.837   1.166   6.625  0.3825 -0.3330 -0.3854
   91SAPC  H13B 8663   0.879   1.323   6.577  2.6977 -0.7639 -0.5943
   91SAPC  H13C 8664   0.735   1.240   6.506  0.5005  1.4195 -0.5368
   91SAPC   C14 8665   1.062   1.199   6.471 -0.0254  0.3364 -0.2433
   91SAPC  H14A 8666   1.083   1.175   6.574 -0.6640  0.4382 -0.0879
   91SAPC  H14B 8667   1.124   1.141   6.404  0.6663  2.0163 -1.1281
   91SAPC  H14C 8668   1.097   1.300   6.454  0.1715  0.0975 -1.3465
   91SAPC   C15 8669   0.916   1.263   6.305  1.2332 -0.5394 -0.1280
   91SAPC  H15A 8670   0.955   1.362   6.322 -1.9291  1.2738 -2.3092
   91SAPC  H15B 8671   0.963   1.216   6.220  1.1128 -0.7324 -0.0879
   91SAPC  H15C 8672   0.812   1.280   6.279  1.5150 -1.6180 -2.1593
   91SAPC   C11 8673   0.901   0.950   6.543 -0.3733  0.7389 -0.1725
   91SAPC  H11A 8674   0.973   0.989   6.618  0.4711  3.3883 -2.1872
   91SAPC  H11B 8675   0.922   0.844   6.518  0.0587 -0.5676  4.7714
   91SAPC     P 8676   0.628   0.915   6.564  0.2100  0.0185  0.6149
   91SAPC   O13 8677   0.616   0.782   6.629 -0.5614 -0.1345 -0.2491
   91SAPC   O14 8678   0.528   1.025   6.599  0.2182  0.1124  0.2793
   91SAPC   O12 8679   0.776   0.968   6.601 -0.1345 -0.1379  0.7789
   91SAPC   O11 8680   0.619   0.894   6.407 -0.2530 -0.0154 -0.3097
   91SAPC    C1 8681   0.583   1.011   6.325  0.6453 -0.9203  0.1929
   91SAPC    HA 8682   0.474   1.027   6.333  0.2947 -3.1979  0.5653
   91SAPC    HB 8683   0.638   1.104   6.351  0.1052 -0.7536  0.7579
   91SAPC    C2 8684   0.597   0.973   6.181 -0.5265 -0.6413 -0.1575
   91SAPC    HS 8685   0.525   0.890   6.162  0.4071 -1.0558 -2.0570
   91SAPC   O21 8686   0.735   0.932   6.159 -0.3741 -0.2878 -0.6777
   91SAPC   C21 8687   0.754   0.823   6.086 -0.3057 -0.2587  0.1027
   91SAPC   O22 8688   0.672   0.753   6.034  0.0007 -0.1357 -0.6508
   91SAPC   C22 8689   0.908   0.787   6.084  0.7875 -0.2820 -0.0325
   91SAPC   H2R 8690   0.965   0.876   6.119 -1.3827  0.7960  1.0170
   91SAPC   H2S 8691   0.919   0.698   6.149 -2.6018 -0.9528 -0.1740
   91SAPC    C3 8692   0.566   1.093   6.088 -0.2770 -0.0303  0.3535
   91SAPC    HX 8693   0.636   1.177   6.112  2.7728 -1.7685 -1.6938
   91SAPC    HY 8694   0.465   1.133   6.111 -0.3327  1.7465 -2.4077
   91SAPC   O31 8695   0.582   1.067   5.947  0.3821  0.3184 -0.0587
   91SAPC   C31 8696   0.496   0.991   5.881 -0.0105  0.0263  1.0898
   91SAPC   O32 8697   0.385   0.970   5.927  0.5762  0.7778  0.1193
   91SAPC   C32 8698   0.550   0.938   5.747 -0.7116  0.4096  0.5140
   91SAPC   H2X 8699   0.606   0.843   5.763 -0.9594  0.3685  1.1704
   91SAPC   H2Y 8700   0.618   1.005   5.690 -0.9430 -1.6910 -2.4342
   91SAPC   C23 8701   0.945   0.765   5.934 -0.2927  0.0405  0.3018
   91SAPC   H3R 8702   0.856   0.748   5.871  0.1508  1.1779 -0.6655
   91SAPC   H3S 8703   1.018   0.681   5.927 -1.9028 -1.3937  0.0047
   91SAPC   C24 8704   1.016   0.887   5.877  0.1102 -0.0901  0.2680
   91SAPC   H4R 8705   1.068   0.846   5.788 -1.5260 -0.7744 -0.4089
   91SAPC   H4S 8706   1.103   0.903   5.944 -0.7938 -3.3646  2.4557
   91SAPC   C25 8707   0.933   1.012   5.834 -1.2900  0.2251  0.6444
   91SAPC   H5R 8708   0.929   1.090   5.911 -1.6027  1.2160 -0.3428
   91SAPC   C26 8709   0.894   1.044   5.703 -0.2779 -0.1017  0.5169
   91SAPC   H6R 8710   0.847   1.143   5.693 -0.3408  0.0867  2.2969
   91SAPC   C27 8711   0.920   0.958   5.585  0.1367  0.0565  0.4021
   91SAPC   H7R 8712   0.827   0.909   5.549  1.8502 -2.8738 -0.3632
   91SAPC   H7S 8713   0.972   0.863   5.610  0.4852 -0.0136 -0.5398
   91SAPC   C28 8714   1.003   1.021   5.475 -0.1911  0.3949 -0.0949
   91SAPC   H8R 8715   1.055   1.116   5.495 -1.4366  0.8795  0.9219
   91SAPC   C29 8716   1.017   0.971   5.349  0.2282 -0.1610  0.0071
   91SAPC   H9R 8717   1.059   1.032   5.268  0.1607 -1.3667 -0.9641
   91SAPC  C210 8718   0.949   0.843   5.298 -0.2350  0.3448 -1.1885
   91SAPC  H10R 8719   0.924   0.772   5.380 -1.5755  1.0953 -0.9280
   91SAPC  H10S 8720   1.026   0.792   5.236 -0.2236  1.6577 -2.2717
   91SAPC  C211 8721   0.830   0.869   5.215 -0.4463  0.4439  0.6036
   91SAPC  H11R 8722   0.741   0.906   5.269 -0.5313 -1.6540  2.0518
   91SAPC  C212 8723   0.813   0.848   5.080 -0.5491  0.5724 -0.4096
   91SAPC  H12R 8724   0.718   0.869   5.030 -1.7986 -0.7535  1.2759
   91SAPC  C213 8725   0.901   0.775   4.982 -0.4047 -1.1300  0.4545
   91SAPC  H13R 8726   0.836   0.711   4.919 -2.0754 -1.3918  2.3140
   91SAPC  H13S 8727   0.979   0.708   5.024 -0.7054 -1.2156  0.8913
   91SAPC  C214 8728   0.984   0.869   4.901 -0.5091  0.4242 -0.2604
   91SAPC  H14R 8729   1.031   0.951   4.956 -0.1203 -0.6998  1.1377
   91SAPC  C215 8730   1.004   0.871   4.762  0.1803 -0.1076 -0.2759
   91SAPC  H15R 8731   1.065   0.954   4.723 -1.1640  0.9319 -0.2437
   91SAPC  C216 8732   0.959   0.761   4.671 -0.4240  0.1377 -0.2753
   91SAPC  H16R 8733   0.856   0.730   4.698 -1.2570  2.5736 -0.4266
   91SAPC  H16S 8734   1.026   0.674   4.690 -0.1097  0.3026 -0.6216
   91SAPC  C217 8735   0.966   0.805   4.527 -0.0853  0.9049  0.3049
   91SAPC  H17R 8736   1.069   0.801   4.487 -1.1875  0.9696 -2.8438
   91SAPC  H17S 8737   0.927   0.909   4.512 -0.2231  0.8275  0.1211
   91SAPC  C218 8738   0.889   0.707   4.432 -0.4464  0.2716 -0.4122
   91SAPC  H18R 8739   0.786   0.688   4.470 -0.5797  1.5696 -0.0675
   91SAPC  H18S 8740   0.934   0.609   4.457 -0.4737  1.1447  3.6814
   91SAPC  C219 8741   0.890   0.749   4.287  0.1368 -0.2578 -0.4121
   91SAPC  H19R 8742   0.840   0.847   4.272 -2.8335 -1.3204  1.5044
   91SAPC  H19S 8743   0.825   0.666   4.252 -0.5406 -0.4319  1.1570
   91SAPC  C220 8744   1.022   0.758   4.222  0.5684  0.1595  0.3112
   91SAPC  H20R 8745   1.086   0.668   4.236  2.8951  2.0126  2.7761
   91SAPC  H20S 8746   1.078   0.840   4.273  0.8754 -0.6663  1.3478
   91SAPC  H20T 8747   1.012   0.767   4.112  1.2686  1.4133  0.3288
   91SAPC   C33 8748   0.430   0.904   5.646  0.5017 -0.0206 -0.2953
   91SAPC   H3X 8749   0.360   0.989   5.632 -0.6487 -0.5662  1.8610
   91SAPC   H3Y 8750   0.373   0.823   5.695  0.2209 -0.0049 -0.5916
   91SAPC   C34 8751   0.482   0.846   5.508  0.6650 -0.1104  0.5728
   91SAPC   H4X 8752   0.520   0.742   5.520 -0.5577 -0.6063  0.2975
   91SAPC   H4Y 8753   0.563   0.910   5.466  0.0586  0.4665  0.2593
   91SAPC   C35 8754   0.369   0.830   5.399  0.8005 -0.0917  0.2014
   91SAPC   H5X 8755   0.337   0.926   5.354  1.0566  1.3638  2.8679
   91SAPC   H5Y 8756   0.291   0.781   5.461  0.7799  0.5827  0.7162
   91SAPC   C36 8757   0.412   0.721   5.293 -0.0670 -0.6718 -0.0927
   91SAPC   H6X 8758   0.323   0.656   5.278  1.5344 -2.3978 -2.8444
   91SAPC   H6Y 8759   0.495   0.662   5.337  0.1122 -0.8503 -0.6672
   91SAPC   C37 8760   0.435   0.767   5.147 -0.1897  0.1817  0.0929
   91SAPC   H7X 8761   0.504   0.855   5.154 -0.3419  0.5769 -2.3779
   91SAPC   H7Y 8762   0.340   0.801   5.100  1.8185  0.1249 -4.5389
   91SAPC   C38 8763   0.494   0.660   5.056  0.0470  0.7378  0.6879
   91SAPC   H8X 8764   0.457   0.559   5.084  1.1279  0.4757  1.2304
   91SAPC   H8Y 8765   0.604   0.652   5.068  0.0783 -1.1229 -0.3485
   91SAPC   C39 8766   0.473   0.697   4.899  0.1753 -0.2632 -0.2430
   91SAPC   H9X 8767   0.500   0.803   4.883 -1.7555 -0.0333 -2.4609
   91SAPC   H9Y 8768   0.366   0.702   4.869  0.5406  2.0030 -1.3466
   91SAPC  C310 8769   0.549   0.605   4.800  0.0134  0.2008 -0.4014
   91SAPC  H10X 8770   0.539   0.498   4.829 -1.3053  0.9437  2.1845
   91SAPC  H10Y 8771   0.656   0.634   4.797 -0.3587  1.9725 -5.0830
   91SAPC  C311 8772   0.494   0.622   4.661  0.1943  0.0628  0.6204
   91SAPC  H11X 8773   0.523   0.728   4.641 -1.4554 -0.0085 -2.8627
   91SAPC  H11Y 8774   0.383   0.622   4.655  0.2343  0.2030 -0.2427
   91SAPC  C312 8775   0.550   0.526   4.554 -0.2365  0.7429  0.4497
   91SAPC  H12X 8776   0.525   0.429   4.602  0.4341  1.1954  1.7685
   91SAPC  H12Y 8777   0.660   0.539   4.559 -0.0496 -0.3648 -0.4144
   91SAPC  C313 8778   0.485   0.538   4.422  0.0529 -0.3500  0.7000
   91SAPC  H13X 8779   0.481   0.649   4.409 -0.0870 -0.2482  1.5802
   91SAPC  H13Y 8780   0.381   0.498   4.423  0.3122 -1.1375 -0.7891
   91SAPC  C314 8781   0.564   0.469   4.312 -0.2376 -0.1455 -0.3616
   91SAPC  H14X 8782   0.591   0.366   4.344 -0.5276 -0.5892 -1.5121
   91SAPC  H14Y 8783   0.663   0.516   4.298 -0.1630 -0.8911 -2.6862
   91SAPC  C315 8784   0.490   0.452   4.177 -0.0535 -0.2950  0.0625
   91SAPC  H15X 8785   0.415   0.370   4.171  0.0459 -0.3051 -1.8142
   91SAPC  H15Y 8786   0.576   0.444   4.106 -0.2391  2.5555 -0.6003
   91SAPC  C316 8787   0.427   0.589   4.135  0.3385  0.0649 -0.4162
   91SAPC  H16X 8788   0.498   0.674   4.133 -0.8436  1.0984 -0.0353
   91SAPC  H16Y 8789   0.352   0.613   4.214  1.2368  0.3160  0.3836
   91SAPC  C317 8790   0.371   0.572   3.996  0.1537 -0.3203 -0.2520
   91SAPC  H17X 8791   0.318   0.666   3.972  1.6963  0.9667  1.1996
   91SAPC  H17Y 8792   0.293   0.493   4.003  0.4057 -0.6153 -0.7330
   91SAPC  C318 8793   0.482   0.551   3.884 -0.0234 -0.1375  0.3065
   91SAPC  H18X 8794   0.568   0.621   3.889 -0.4419  0.2905  2.1610
   91SAPC  H18Y 8795   0.433   0.571   3.786  0.0871  2.1489  0.6450
   91SAPC  H18Z 8796   0.516   0.447   3.900 -2.9166 -1.4485 -1.2924
   92SAPC     N 8797   1.718   5.016   6.344  0.1410  0.5069 -0.3374
   92SAPC   C12 8798   1.775   5.116   6.241 -0.6987  0.1085 -0.1619
   92SAPC  H12A 8799   1.870   5.085   6.199  1.0495  0.2583  3.2610
   92SAPC  H12B 8800   1.798   5.200   6.305 -2.5669 -0.2886  1.0928
   92SAPC   C13 8801   1.809   4.996   6.467 -0.0099 -0.4315 -0.5033
   92SAPC  H13A 8802   1.815   5.089   6.521 -1.2911 -0.2273 -0.6712
   92SAPC  H13B 8803   1.760   4.931   6.538 -1.2510  0.2723 -0.6827
   92SAPC  H13C 8804   1.910   4.961   6.452  0.1905 -0.1190  0.0881
   92SAPC   C14 8805   1.594   5.070   6.401  0.0017 -0.1042 -1.0220
   92SAPC  H14A 8806   1.548   4.998   6.467 -1.0051 -0.6213 -2.2474
   92SAPC  H14B 8807   1.597   5.167   6.451 -0.5269 -0.8375  0.5090
   92SAPC  H14C 8808   1.512   5.088   6.334 -0.8400  2.8491  0.5832
   92SAPC   C15 8809   1.709   4.877   6.285 -0.3678 -0.0496 -0.6911
   92SAPC  H15A 8810   1.802   4.836   6.249 -0.4758  0.8246 -2.0367
   92SAPC  H15B 8811   1.679   4.804   6.358  0.7706  0.7362  0.5963
   92SAPC  H15C 8812   1.640   4.871   6.201 -1.2182  0.2388 -0.0214
   92SAPC   C11 8813   1.685   5.186   6.132 -0.4430  0.0550 -0.4453
   92SAPC  H11A 8814   1.645   5.099   6.075  2.1616 -0.9074 -0.9577
   92SAPC  H11B 8815   1.734   5.246   6.052 -0.9642 -0.8380 -1.4609
   92SAPC     P 8816   1.606   5.396   6.254  0.7553  0.1852  0.0085
   92SAPC   O13 8817   1.486   5.440   6.319 -0.1132  0.0640  0.0220
   92SAPC   O14 8818   1.726   5.376   6.339 -0.3688 -0.0693 -0.4290
   92SAPC   O12 8819   1.580   5.253   6.190  0.3682  0.3447 -0.5145
   92SAPC   O11 8820   1.628   5.482   6.124 -0.0577 -0.2378 -0.1648
   92SAPC    C1 8821   1.516   5.490   6.028 -0.2210  0.1958 -0.3226
   92SAPC    HA 8822   1.442   5.408   6.038  0.2134 -0.0412  1.0692
   92SAPC    HB 8823   1.451   5.577   6.049 -0.8150 -0.2384 -0.3453
   92SAPC    C2 8824   1.560   5.470   5.880 -1.0944 -0.0372  0.0842
   92SAPC    HS 8825   1.603   5.368   5.870  0.9425  0.6669  1.0641
   92SAPC   O21 8826   1.664   5.568   5.866 -0.1656 -0.6154 -0.1626
   92SAPC   C21 8827   1.762   5.537   5.784  0.1731 -0.5840 -0.5575
   92SAPC   O22 8828   1.757   5.451   5.699  0.1649 -0.1576 -0.1113
   92SAPC   C22 8829   1.883   5.633   5.809  0.0237  0.5748  0.3056
   92SAPC   H2R 8830   1.913   5.660   5.705 -2.8416 -3.5480 -1.9173
   92SAPC   H2S 8831   1.865   5.721   5.874 -1.1457  0.5797  0.0125
   92SAPC    C3 8832   1.440   5.480   5.787 -0.3803 -0.5355 -0.1351
   92SAPC    HX 8833   1.375   5.391   5.795 -0.8426 -0.7707 -4.3792
   92SAPC    HY 8834   1.478   5.489   5.684 -0.0144  2.4360  0.1618
   92SAPC   O31 8835   1.374   5.607   5.813 -0.2014 -0.5647  0.0983
   92SAPC   C31 8836   1.242   5.600   5.798  0.4010  0.4771 -0.0916
   92SAPC   O32 8837   1.180   5.509   5.747  0.1842  0.1390 -0.5711
   92SAPC   C32 8838   1.180   5.736   5.837 -1.3885  0.2006  0.0937
   92SAPC   H2X 8839   1.212   5.763   5.939 -0.6469 -0.0294 -0.0713
   92SAPC   H2Y 8840   1.075   5.710   5.863 -1.2137 -0.2631  0.3470
   92SAPC   C23 8841   2.011   5.566   5.872 -0.6907 -1.5082 -0.2429
   92SAPC   H3R 8842   2.053   5.486   5.807  0.6017 -0.8288 -0.2895
   92SAPC   H3S 8843   1.988   5.525   5.973  5.2371 -0.6330  1.8996
   92SAPC   C24 8844   2.126   5.661   5.910 -0.0571 -0.8272  0.2891
   92SAPC   H4R 8845   2.188   5.696   5.825 -0.4140  0.7026  0.6215
   92SAPC   H4S 8846   2.199   5.608   5.975  2.6568  3.5593  1.2642
   92SAPC   C25 8847   2.087   5.780   5.992  0.5225  0.0763 -0.1746
   92SAPC   H5R 8848   2.023   5.755   6.077  3.8202 -2.4295  1.8465
   92SAPC   C26 8849   2.097   5.906   5.957 -0.6265 -0.6230 -0.6322
   92SAPC   H6R 8850   2.071   5.987   6.027 -2.1111 -1.3389 -0.3034
   92SAPC   C27 8851   2.158   5.960   5.831 -0.1494 -0.1508  0.0705
   92SAPC   H7R 8852   2.116   6.058   5.798  0.6163 -0.2062 -1.1368
   92SAPC   H7S 8853   2.126   5.898   5.744  2.8699  0.2038 -1.4292
   92SAPC   C28 8854   2.306   5.981   5.835 -0.0434  0.4091  0.0171
   92SAPC   H8R 8855   2.359   5.982   5.932  0.6199  0.2257 -0.3348
   92SAPC   C29 8856   2.374   5.982   5.716  0.9145 -0.6731 -0.4502
   92SAPC   H9R 8857   2.482   6.002   5.718  0.9174 -0.7436  0.8878
   92SAPC  C210 8858   2.308   5.979   5.578 -0.0406 -0.6115 -0.4682
   92SAPC  H10R 8859   2.366   6.050   5.515  0.0444  0.1876  0.4702
   92SAPC  H10S 8860   2.205   6.021   5.574  0.6756  1.9173  2.6534
   92SAPC  C211 8861   2.313   5.841   5.517 -0.2540  0.5457  0.9091
   92SAPC  H11R 8862   2.302   5.755   5.585 -0.6638  0.3894  0.6534
   92SAPC  C212 8863   2.336   5.817   5.382  0.1425  0.1552  0.2476
   92SAPC  H12R 8864   2.342   5.713   5.347 -0.4436 -0.3878  1.6714
   92SAPC  C213 8865   2.342   5.919   5.269  1.1210 -0.1312  0.3401
   92SAPC  H13R 8866   2.318   6.022   5.303 -0.1395  0.4896 -2.2144
   92SAPC  H13S 8867   2.261   5.893   5.198  1.1142 -0.3686  0.4353
   92SAPC  C214 8868   2.467   5.913   5.181  0.3279 -0.1320  0.9630
   92SAPC  H14R 8869   2.560   5.929   5.237  1.6701  0.4157 -1.3315
   92SAPC  C215 8870   2.470   5.903   5.045  0.0498  0.6422  0.3798
   92SAPC  H15R 8871   2.571   5.909   5.001  0.6758  1.7484  1.8660
   92SAPC  C216 8872   2.356   5.899   4.949  0.4787 -0.6369 -0.0521
   92SAPC  H16R 8873   2.268   5.949   4.995  0.9184 -0.0842  0.1885
   92SAPC  H16S 8874   2.319   5.796   4.932  0.6530 -0.4449 -1.8228
   92SAPC  C217 8875   2.401   5.940   4.804  0.5172  0.8072 -0.2481
   92SAPC  H17R 8876   2.459   6.035   4.801 -1.5085  2.1201 -0.0686
   92SAPC  H17S 8877   2.306   5.951   4.748 -0.6018 -1.3465  1.0685
   92SAPC  C218 8878   2.467   5.828   4.721 -0.4839  0.0823 -0.6790
   92SAPC  H18R 8879   2.408   5.734   4.721 -0.7139  0.2263 -1.5451
   92SAPC  H18S 8880   2.573   5.824   4.754 -0.8174 -1.6979  0.3516
   92SAPC  C219 8881   2.467   5.861   4.573 -0.2490  0.3430  0.2999
   92SAPC  H19R 8882   2.528   5.951   4.552  1.1007 -0.8019 -0.9330
   92SAPC  H19S 8883   2.363   5.892   4.553 -1.0610 -2.5008 -0.3999
   92SAPC  C220 8884   2.502   5.735   4.486  0.2564  0.2799 -0.1102
   92SAPC  H20R 8885   2.490   5.753   4.377  2.9232 -1.9544 -0.8946
   92SAPC  H20S 8886   2.441   5.650   4.522 -0.1116 -0.2221 -1.7933
   92SAPC  H20T 8887   2.605   5.708   4.517  0.8012  2.0035 -0.3322
   92SAPC   C33 8888   1.181   5.842   5.726 -0.7010 -0.2171  0.5297
   92SAPC   H3X 8889   1.132   5.805   5.633  2.3777 -1.2812 -0.7762
   92SAPC   H3Y 8890   1.287   5.870   5.709 -0.1446 -2.8016 -0.8169
   92SAPC   C34 8891   1.111   5.972   5.768 -0.2932 -0.1031 -0.4360
   92SAPC   H4X 8892   1.164   6.016   5.855  0.4857  0.0018 -0.9529
   92SAPC   H4Y 8893   1.010   5.937   5.796  0.8459 -2.0881  1.4602
   92SAPC   C35 8894   1.128   6.080   5.660  0.5460  0.1955  0.2213
   92SAPC   H5X 8895   1.054   6.159   5.683 -1.0111 -1.0685 -0.2700
   92SAPC   H5Y 8896   1.099   6.050   5.557 -0.9004  1.2151  0.3084
   92SAPC   C36 8897   1.272   6.137   5.642 -0.2270 -0.3168  0.7729
   92SAPC   H6X 8898   1.336   6.056   5.602 -0.7077 -0.2123 -0.2397
   92SAPC   H6Y 8899   1.294   6.162   5.748  1.0951  1.9283  0.0345
   92SAPC   C37 8900   1.290   6.268   5.560  0.3535 -0.1895  0.0666
   92SAPC   H7X 8901   1.393   6.303   5.579  0.3391 -0.6368  1.0656
   92SAPC   H7Y 8902   1.216   6.341   5.598 -0.0366 -1.0327  0.9896
   92SAPC   C38 8903   1.257   6.265   5.413  0.4358 -0.4214  0.2475
   92SAPC   H8X 8904   1.261   6.366   5.366  0.1554 -0.7503 -0.5020
   92SAPC   H8Y 8905   1.158   6.217   5.396  0.3049  0.1675 -0.7528
   92SAPC   C39 8906   1.352   6.180   5.328  0.0117  0.5746  0.3016
   92SAPC   H9X 8907   1.317   6.191   5.224 -0.2360  2.1919  0.5304
   92SAPC   H9Y 8908   1.352   6.072   5.351  1.0944  0.1599 -1.5022
   92SAPC  C310 8909   1.497   6.243   5.333  0.1746 -0.2925 -1.1330
   92SAPC  H10X 8910   1.554   6.215   5.423  0.5955 -3.3474 -2.2531
   92SAPC  H10Y 8911   1.490   6.354   5.336 -2.1177 -0.4254  0.7143
   92SAPC  C311 8912   1.577   6.201   5.209  0.0715 -0.9240 -0.2322
   92SAPC  H11X 8913   1.527   6.226   5.114 -0.7264 -0.6850  0.2387
   92SAPC  H11Y 8914   1.579   6.090   5.220  0.0664 -0.8171  1.0237
   92SAPC  C312 8915   1.723   6.250   5.213  0.3314  0.4347 -0.0965
   92SAPC  H12X 8916   1.761   6.239   5.317  0.9257  1.3024 -0.2124
   92SAPC  H12Y 8917   1.725   6.359   5.191  0.0776  0.0995 -1.9287
   92SAPC  C313 8918   1.813   6.189   5.111 -1.1727  0.0020  0.0336
   92SAPC  H13X 8919   1.836   6.084   5.141 -1.0724 -0.1842 -0.6860
   92SAPC  H13Y 8920   1.909   6.245   5.109  0.4327 -2.5720  0.0060
   92SAPC  C314 8921   1.759   6.198   4.970  0.1028  0.2780  0.2034
   92SAPC  H14X 8922   1.718   6.298   4.944 -1.5847 -0.8833 -1.9572
   92SAPC  H14Y 8923   1.666   6.137   4.973 -0.0506  0.4307 -1.1903
   92SAPC  C315 8924   1.867   6.163   4.863  0.4051  0.5708  0.0252
   92SAPC  H15X 8925   1.898   6.057   4.865  0.6406  0.6509  0.5787
   92SAPC  H15Y 8926   1.957   6.226   4.878  1.7942 -1.2483 -0.3010
   92SAPC  C316 8927   1.831   6.192   4.716  0.5273 -1.2484 -0.3368
   92SAPC  H16X 8928   1.927   6.177   4.663  0.5885  0.0679 -0.6275
   92SAPC  H16Y 8929   1.781   6.290   4.707 -0.9530 -1.9399  0.0076
   92SAPC  C317 8930   1.745   6.092   4.642 -0.2198 -0.4178  0.9247
   92SAPC  H17X 8931   1.783   5.991   4.667  0.5681 -0.0044  1.4161
   92SAPC  H17Y 8932   1.754   6.106   4.532 -1.1610  0.7966  0.9706
   92SAPC  C318 8933   1.600   6.111   4.673 -0.7286 -0.3588  0.1894
   92SAPC  H18X 8934   1.568   6.215   4.652  0.4903 -0.1835 -0.9344
   92SAPC  H18Y 8935   1.587   6.081   4.779  1.2829  1.4967  1.0447
   92SAPC  H18Z 8936   1.545   6.037   4.610 -1.9273  1.9838 -1.6761
   93SAPC     N 8937   3.971   0.903   6.686 -1.4493  0.1386  0.3184
   93SAPC   C12 8938   3.998   1.027   6.601 -0.1820 -0.2466  0.1667
   93SAPC  H12A 8939   4.102   1.056   6.597 -0.5941  1.2176 -0.6318
   93SAPC  H12B 8940   3.944   1.111   6.641 -0.6223 -0.0236 -0.8683
   93SAPC   C13 8941   4.035   0.929   6.824  0.5465 -0.0121  0.1566
   93SAPC  H13A 8942   3.974   0.996   6.883 -2.0624  0.1596 -2.5209
   93SAPC  H13B 8943   4.044   0.835   6.875  4.3971 -0.6241 -1.3243
   93SAPC  H13C 8944   4.137   0.964   6.819  0.3371  0.5479 -0.4326
   93SAPC   C14 8945   3.829   0.874   6.703 -0.3461 -0.3399  0.3702
   93SAPC  H14A 8946   3.782   0.867   6.606 -0.9276  0.0213  0.6144
   93SAPC  H14B 8947   3.819   0.784   6.762  0.0076 -0.2301  0.6013
   93SAPC  H14C 8948   3.775   0.950   6.758  1.4078  0.7180  0.7205
   93SAPC   C15 8949   4.048   0.790   6.627  0.4494  0.5302 -0.0412
   93SAPC  H15A 8950   4.041   0.699   6.684  0.8307  0.2706 -0.4035
   93SAPC  H15B 8951   4.014   0.771   6.526 -1.4437  0.5805  0.5375
   93SAPC  H15C 8952   4.152   0.812   6.641  0.2576  0.2774  2.0817
   93SAPC   C11 8953   3.944   1.015   6.450 -0.1378  0.6231  0.1116
   93SAPC  H11A 8954   3.980   0.927   6.393 -2.9446  0.1761 -1.1632
   93SAPC  H11B 8955   3.984   1.102   6.393 -1.8841  0.5144 -1.3759
   93SAPC     P 8956   3.717   1.134   6.488 -0.0213 -0.2242 -0.2550
   93SAPC   O13 8957   3.659   1.110   6.616  0.1267  0.3792  0.2888
   93SAPC   O14 8958   3.790   1.265   6.479  0.5705  0.2003 -0.0179
   93SAPC   O12 8959   3.800   1.010   6.441  0.2457 -0.4303  0.8171
   93SAPC   O11 8960   3.590   1.137   6.386 -0.3943 -0.3595 -0.2737
   93SAPC    C1 8961   3.615   1.075   6.254 -0.2478  0.5799 -0.0226
   93SAPC    HA 8962   3.721   1.086   6.222 -0.0425  2.0426  1.0967
   93SAPC    HB 8963   3.588   0.967   6.260 -0.5559  0.4397 -2.6911
   93SAPC    C2 8964   3.529   1.129   6.137 -0.3148 -0.0112  0.4915
   93SAPC    HS 8965   3.534   1.240   6.144  1.6259  0.1127 -1.7048
   93SAPC   O21 8966   3.404   1.075   6.154  0.1075 -0.1469  0.2245
   93SAPC   C21 8967   3.295   1.152   6.138 -0.5907 -0.5837 -0.6317
   93SAPC   O22 8968   3.292   1.272   6.136  0.1403 -0.2285 -0.4611
   93SAPC   C22 8969   3.174   1.054   6.138 -1.1008 -0.8191 -0.0269
   93SAPC   H2R 8970   3.208   0.951   6.159  1.6933  0.2453  1.1879
   93SAPC   H2S 8971   3.114   1.084   6.227  1.6589  2.4550  0.9466
   93SAPC    C3 8972   3.587   1.082   6.004  0.0585 -0.2218 -0.5760
   93SAPC    HX 8973   3.589   0.971   6.002 -0.7983 -0.2709  0.6016
   93SAPC    HY 8974   3.692   1.114   5.988  0.6039 -1.2919  0.7208
   93SAPC   O31 8975   3.504   1.127   5.898 -0.6720 -0.1704 -0.8997
   93SAPC   C31 8976   3.509   1.251   5.864 -0.2927 -0.2830 -0.4097
   93SAPC   O32 8977   3.593   1.334   5.892 -0.1175  0.3244 -0.1239
   93SAPC   C32 8978   3.387   1.275   5.767 -0.4251  0.1842  0.1285
   93SAPC   H2X 8979   3.290   1.253   5.817 -2.3055  2.4824 -2.2017
   93SAPC   H2Y 8980   3.390   1.197   5.689 -1.6903  0.6392 -0.4131
   93SAPC   C23 8981   3.078   1.063   6.015 -0.6175  0.7927  0.5041
   93SAPC   H3R 8982   3.065   1.162   5.966 -0.4449  0.6995  0.2706
   93SAPC   H3S 8983   2.975   1.030   6.042 -0.4134 -1.2138 -0.9978
   93SAPC   C24 8984   3.141   0.970   5.908  0.0779  0.3927 -0.0773
   93SAPC   H4R 8985   3.161   0.874   5.959  1.4068 -1.7410 -4.1890
   93SAPC   H4S 8986   3.235   1.009   5.864  0.0224 -0.0606 -0.5963
   93SAPC   C25 8987   3.047   0.940   5.798  0.2335 -0.1566  0.1686
   93SAPC   H5R 8988   2.954   0.897   5.837  1.1350  0.0028  2.7367
   93SAPC   C26 8989   3.073   0.939   5.666  0.0110  0.8080 -0.0080
   93SAPC   H6R 8990   2.999   0.882   5.607 -1.0496 -0.4189  2.3506
   93SAPC   C27 8991   3.197   0.969   5.588  0.3626 -0.1437  0.5608
   93SAPC   H7R 8992   3.239   0.870   5.559  0.5944 -0.6267  2.4196
   93SAPC   H7S 8993   3.280   1.014   5.646  1.1259 -1.4411  0.5127
   93SAPC   C28 8994   3.162   1.066   5.476 -0.1907  0.1877  0.2766
   93SAPC   H8R 8995   3.154   1.169   5.513 -0.7037  0.3743 -0.3243
   93SAPC   C29 8996   3.146   1.038   5.346  0.0307 -0.3933  0.5631
   93SAPC   H9R 8997   3.124   1.118   5.274 -2.0521 -1.1557  0.2820
   93SAPC  C210 8998   3.153   0.906   5.274 -0.4687  0.2957 -0.3447
   93SAPC  H10R 8999   3.067   0.897   5.205 -1.1712  1.9176  0.2810
   93SAPC  H10S 9000   3.138   0.821   5.345 -0.4960  0.9612  0.4615
   93SAPC  C211 9001   3.290   0.880   5.207 -0.4484 -0.4252 -0.5474
   93SAPC  H11R 9002   3.376   0.915   5.267 -1.7130  1.2182  0.3686
   93SAPC  C212 9003   3.316   0.829   5.082 -0.0948 -0.0188  0.3455
   93SAPC  H12R 9004   3.422   0.810   5.059  0.7761  1.7824  2.4860
   93SAPC  C213 9005   3.212   0.775   4.984 -0.3803 -0.4669  0.1390
   93SAPC  H13R 9006   3.225   0.826   4.886  0.0106 -1.8962 -0.5819
   93SAPC  H13S 9007   3.112   0.813   5.013 -0.0094 -0.6256  1.6736
   93SAPC  C214 9008   3.228   0.623   4.970 -0.3186  0.6240 -0.6126
   93SAPC  H14R 9009   3.196   0.565   5.058 -2.7095  1.6517 -0.7032
   93SAPC  C215 9010   3.269   0.570   4.851 -0.2890 -0.4031 -0.3155
   93SAPC  H15R 9011   3.266   0.460   4.840  0.0215 -0.1973 -3.2677
   93SAPC  C216 9012   3.293   0.638   4.715 -0.2161  0.7154 -0.0502
   93SAPC  H16R 9013   3.261   0.745   4.720 -0.7606  0.5556 -0.0346
   93SAPC  H16S 9014   3.219   0.587   4.649  0.8095 -1.1485  0.2079
   93SAPC  C217 9015   3.442   0.634   4.676 -0.0046  0.1238  0.2409
   93SAPC  H17R 9016   3.496   0.537   4.681 -0.0585  0.0740 -0.1279
   93SAPC  H17S 9017   3.499   0.712   4.730 -0.1142  0.9366 -0.7775
   93SAPC  C218 9018   3.452   0.674   4.526  0.3234  0.0017 -0.2933
   93SAPC  H18R 9019   3.381   0.758   4.513  0.0725  0.8368  4.4199
   93SAPC  H18S 9020   3.413   0.585   4.473  0.4250  0.9135 -1.9666
   93SAPC  C219 9021   3.595   0.720   4.480  0.3412 -0.2335  0.3455
   93SAPC  H19R 9022   3.600   0.821   4.526  1.2422  0.7648 -1.8161
   93SAPC  H19S 9023   3.575   0.746   4.374 -2.9370  1.4481  1.2333
   93SAPC  C220 9024   3.717   0.628   4.502 -0.0450 -0.0363  0.4217
   93SAPC  H20R 9025   3.760   0.624   4.604  0.2729  0.7119  0.3208
   93SAPC  H20S 9026   3.799   0.657   4.433  0.1293 -2.2152 -0.3505
   93SAPC  H20T 9027   3.678   0.528   4.472  0.1625  0.1814 -0.5963
   93SAPC   C33 9028   3.403   1.414   5.704  0.2904 -0.0773 -0.5035
   93SAPC   H3X 9029   3.502   1.410   5.654  0.4717  1.5612 -0.3325
   93SAPC   H3Y 9030   3.410   1.492   5.783 -0.4059 -1.2950  0.8238
   93SAPC   C34 9031   3.296   1.449   5.606 -0.0374  0.1939 -0.1399
   93SAPC   H4X 9032   3.283   1.559   5.617 -2.7864 -0.0480 -0.1837
   93SAPC   H4Y 9033   3.202   1.401   5.641 -0.2535  2.3939  2.7567
   93SAPC   C35 9034   3.341   1.424   5.456  0.5623  0.0412 -1.1099
   93SAPC   H5X 9035   3.389   1.325   5.440  0.5215 -0.7348  2.6243
   93SAPC   H5Y 9036   3.415   1.500   5.425  1.5241  0.7018  2.3705
   93SAPC   C36 9037   3.216   1.431   5.362 -0.3026  0.9276  0.0221
   93SAPC   H6X 9038   3.171   1.531   5.379 -0.9288  0.3405  2.2221
   93SAPC   H6Y 9039   3.156   1.343   5.391  1.9739 -0.6116  0.3298
   93SAPC   C37 9040   3.255   1.419   5.208 -0.6509  0.1534 -0.3200
   93SAPC   H7X 9041   3.292   1.317   5.188 -0.7939  0.0514 -0.0730
   93SAPC   H7Y 9042   3.343   1.484   5.186  0.5865 -0.0684  3.2476
   93SAPC   C38 9043   3.131   1.462   5.131  0.2166  1.1097 -0.5167
   93SAPC   H8X 9044   3.110   1.570   5.149 -1.2729  0.8150 -0.3016
   93SAPC   H8Y 9045   3.040   1.404   5.158 -0.9384  0.7394 -4.5279
   93SAPC   C39 9046   3.156   1.441   4.980  0.0344  0.6126 -0.9628
   93SAPC   H9X 9047   3.149   1.331   4.965  0.5618  0.4341  0.0338
   93SAPC   H9Y 9048   3.253   1.475   4.939  0.4984  0.4445 -0.0165
   93SAPC  C310 9049   3.041   1.485   4.878  0.3264 -0.0621 -0.5521
   93SAPC  H10X 9050   2.945   1.463   4.930 -1.2204 -1.3309 -3.6723
   93SAPC  H10Y 9051   3.048   1.422   4.787  0.2468  0.9172 -1.2556
   93SAPC  C311 9052   3.052   1.629   4.842  0.1119 -0.3827 -0.3575
   93SAPC  H11X 9053   3.157   1.649   4.811  0.2335 -2.0099 -1.1379
   93SAPC  H11Y 9054   3.038   1.689   4.935  0.2383  0.7358 -1.0461
   93SAPC  C312 9055   2.952   1.665   4.729  0.2042  0.4610 -0.6867
   93SAPC  H12X 9056   2.852   1.634   4.766  1.5583 -2.2393  0.9806
   93SAPC  H12Y 9057   2.963   1.599   4.641  0.1365 -0.5229  0.0239
   93SAPC  C313 9058   2.965   1.813   4.699  0.7764 -0.6043 -0.6459
   93SAPC  H13X 9059   3.043   1.837   4.624  0.8080  2.8291  0.2845
   93SAPC  H13Y 9060   3.004   1.862   4.791  1.0567 -1.1515 -0.4661
   93SAPC  C314 9061   2.837   1.869   4.643 -0.4783  0.1966  0.2881
   93SAPC  H14X 9062   2.805   1.803   4.560  0.7980  1.1995 -1.0489
   93SAPC  H14Y 9063   2.861   1.966   4.595 -1.9321  0.4443  0.0383
   93SAPC  C315 9064   2.726   1.902   4.745  0.4102  0.0404  0.2844
   93SAPC  H15X 9065   2.751   2.007   4.773  1.5051 -0.2223  0.3199
   93SAPC  H15Y 9066   2.729   1.853   4.845  1.1997 -0.4580  0.0218
   93SAPC  C316 9067   2.593   1.878   4.668  0.3503 -0.2507  0.2390
   93SAPC  H16X 9068   2.580   1.773   4.635  0.6063  0.7994 -3.6839
   93SAPC  H16Y 9069   2.586   1.948   4.582  0.8131 -0.1650  0.2706
   93SAPC  C317 9070   2.476   1.922   4.758  0.2454 -0.0279  1.0055
   93SAPC  H17X 9071   2.383   1.901   4.700  2.2063 -2.3752 -1.5341
   93SAPC  H17Y 9072   2.484   2.032   4.769 -0.2407  0.3165 -1.5040
   93SAPC  C318 9073   2.465   1.850   4.893 -0.5721  0.3030 -0.1519
   93SAPC  H18X 9074   2.553   1.857   4.960 -0.9643 -2.5903  0.7997
   93SAPC  H18Y 9075   2.443   1.742   4.877 -1.6154  0.1865  1.7396
   93SAPC  H18Z 9076   2.383   1.898   4.950 -0.1165 -0.3596  1.1075
   94SAPC     N 9077   2.663   5.662   6.683  0.8765 -0.4575 -0.2135
   94SAPC   C12 9078   2.556   5.711   6.587  0.2704  0.0122 -0.1214
   94SAPC  H12A 9079   2.481   5.765   6.643 -0.7130 -2.4667  1.0921
   94SAPC  H12B 9080   2.510   5.626   6.539  1.8151 -0.8766 -0.1028
   94SAPC   C13 9081   2.759   5.579   6.611  0.4238 -0.2658 -0.0727
   94SAPC  H13A 9082   2.822   5.527   6.682 -1.2390  0.7619  2.2827
   94SAPC  H13B 9083   2.712   5.501   6.552  0.7592 -0.4118 -0.1521
   94SAPC  H13C 9084   2.826   5.637   6.549  0.0378  0.3096  0.0436
   94SAPC   C14 9085   2.720   5.786   6.737  0.1038  0.1102 -0.3495
   94SAPC  H14A 9086   2.736   5.866   6.667  0.2999  0.5889  0.2295
   94SAPC  H14B 9087   2.645   5.838   6.795  0.6633  0.0870  0.4118
   94SAPC  H14C 9088   2.808   5.752   6.791  0.5371 -0.7908 -1.5792
   94SAPC   C15 9089   2.599   5.581   6.790 -0.1887  0.8027 -1.0266
   94SAPC  H15A 9090   2.547   5.497   6.747 -2.0009  0.8684  0.9286
   94SAPC  H15B 9091   2.676   5.552   6.861 -0.8556  2.3987  0.4130
   94SAPC  H15C 9092   2.528   5.641   6.845  0.0173  0.7303 -0.6819
   94SAPC   C11 9093   2.593   5.800   6.465  0.1792  0.2324 -0.3367
   94SAPC  H11A 9094   2.493   5.830   6.427  1.0472  1.1598 -1.9925
   94SAPC  H11B 9095   2.639   5.732   6.390  0.9011  0.2301  0.0898
   94SAPC     P 9096   2.793   5.944   6.419 -0.2911  0.0217  0.2726
   94SAPC   O13 9097   2.847   6.079   6.433 -0.3351  0.1339 -0.0193
   94SAPC   O14 9098   2.881   5.836   6.470  0.3873  0.0924  0.3297
   94SAPC   O12 9099   2.655   5.928   6.490 -0.1359 -0.1460  0.1251
   94SAPC   O11 9100   2.764   5.923   6.265 -0.1885  0.0961 -0.0397
   94SAPC    C1 9101   2.803   5.807   6.195 -0.3179  0.8215  0.0589
   94SAPC    HA 9102   2.898   5.759   6.228  0.2409  2.4745  0.9707
   94SAPC    HB 9103   2.727   5.727   6.209 -0.0287  0.8836  2.3200
   94SAPC    C2 9104   2.826   5.834   6.045 -0.2921  0.6325  1.0854
   94SAPC    HS 9105   2.843   5.734   6.000  1.6927  0.3725  2.2780
   94SAPC   O21 9106   2.933   5.928   6.025  1.0700 -0.3759 -0.8416
   94SAPC   C21 9107   3.010   5.906   5.921 -0.0281 -0.1815 -0.8076
   94SAPC   O22 9108   3.001   5.806   5.851  0.8820 -0.3719 -0.2983
   94SAPC   C22 9109   3.116   6.014   5.903  0.1492 -0.8095 -0.1071
   94SAPC   H2R 9110   3.107   6.090   5.984 -2.8203  0.6521 -1.6474
   94SAPC   H2S 9111   3.215   5.965   5.921  0.9707 -0.8543 -3.8726
   94SAPC    C3 9112   2.696   5.889   5.979 -0.0138  0.4441  0.1743
   94SAPC    HX 9113   2.678   5.985   6.032 -0.9717 -0.5224  1.6846
   94SAPC    HY 9114   2.617   5.819   6.013 -1.0768  1.5773  0.1165
   94SAPC   O31 9115   2.703   5.908   5.834  0.2079  0.1028  0.3176
   94SAPC   C31 9116   2.664   5.800   5.767 -0.1649 -0.5009 -0.2477
   94SAPC   O32 9117   2.626   5.695   5.816  0.0438 -0.0718  0.2268
   94SAPC   C32 9118   2.692   5.822   5.609  0.1811  0.0991 -0.1291
   94SAPC   H2X 9119   2.628   5.907   5.576 -1.7377 -0.5495  1.7336
   94SAPC   H2Y 9120   2.659   5.728   5.560  1.9731 -0.1226 -0.9923
   94SAPC   C23 9121   3.118   6.085   5.766  0.3148  0.2333  0.1242
   94SAPC   H3R 9122   3.016   6.122   5.744 -0.3479 -1.1234  0.7940
   94SAPC   H3S 9123   3.153   6.022   5.681 -0.1290 -0.7691  0.6557
   94SAPC   C24 9124   3.210   6.211   5.769  0.3290 -0.5503  0.3738
   94SAPC   H4R 9125   3.166   6.279   5.845  1.2401  0.9325 -0.4016
   94SAPC   H4S 9126   3.205   6.263   5.671  2.8715 -0.1737  0.3776
   94SAPC   C25 9127   3.350   6.176   5.812 -0.0460 -0.2978  1.1068
   94SAPC   H5R 9128   3.380   6.226   5.905  1.2718  1.8885 -0.3722
   94SAPC   C26 9129   3.441   6.112   5.735  0.4689 -0.2987  1.2007
   94SAPC   H6R 9130   3.543   6.095   5.772  0.8443 -3.0179 -0.8483
   94SAPC   C27 9131   3.408   6.084   5.589 -0.4610 -0.4281 -0.4614
   94SAPC   H7R 9132   3.374   6.173   5.533  0.4423 -0.9421 -1.8936
   94SAPC   H7S 9133   3.316   6.023   5.576 -0.6741  0.0287 -1.1349
   94SAPC   C28 9134   3.527   6.022   5.518 -0.2869  0.0926  0.4814
   94SAPC   H8R 9135   3.576   5.940   5.573  0.0263 -1.4831 -1.9814
   94SAPC   C29 9136   3.570   6.059   5.392 -0.0691 -0.2070 -0.3664
   94SAPC   H9R 9137   3.663   6.013   5.357 -0.6208 -0.6558 -1.2846
   94SAPC  C210 9138   3.518   6.169   5.305  0.3926  0.4111  0.9798
   94SAPC  H10R 9139   3.413   6.195   5.328  0.2431  1.4630 -0.7134
   94SAPC  H10S 9140   3.520   6.140   5.198 -1.3915  4.0972 -0.1941
   94SAPC  C211 9141   3.615   6.288   5.317  0.3647  0.0880  0.1089
   94SAPC  H11R 9142   3.599   6.339   5.413 -0.4822 -1.1919  0.6908
   94SAPC  C212 9143   3.697   6.340   5.227  0.1044  0.0912 -0.3864
   94SAPC  H12R 9144   3.747   6.435   5.249 -0.0489  0.7594 -2.6317
   94SAPC  C213 9145   3.717   6.285   5.089  0.4894 -0.4988  0.1398
   94SAPC  H13R 9146   3.652   6.338   5.016 -0.8693 -0.3952  1.3711
   94SAPC  H13S 9147   3.679   6.182   5.100 -2.1679  0.5551  1.6275
   94SAPC  C214 9148   3.860   6.278   5.035  0.2500 -0.5039  0.5665
   94SAPC  H14R 9149   3.912   6.188   5.071 -0.3973 -0.1549  2.5435
   94SAPC  C215 9150   3.932   6.368   4.970 -0.3516 -0.1073 -0.1264
   94SAPC  H15R 9151   4.034   6.344   4.938 -0.8688 -0.8102 -1.3455
   94SAPC  C216 9152   3.891   6.508   4.944 -0.6910 -0.2394 -0.5789
   94SAPC  H16R 9153   3.944   6.569   5.021 -0.8095 -0.4264 -0.3486
   94SAPC  H16S 9154   3.781   6.517   4.959 -1.1221 -3.6252 -1.0201
   94SAPC  C217 9155   3.950   6.548   4.803  0.2209  0.8496  0.0642
   94SAPC  H17R 9156   3.911   6.469   4.736 -1.3366 -0.0183  1.9071
   94SAPC  H17S 9157   4.061   6.536   4.811  0.0587 -0.2134  1.0685
   94SAPC  C218 9158   3.920   6.693   4.766  0.2974 -0.1747  0.3052
   94SAPC  H18R 9159   3.994   6.753   4.823  4.7454 -4.6080 -0.1169
   94SAPC  H18S 9160   3.825   6.733   4.809  1.3111  3.3594 -0.4347
   94SAPC  C219 9161   3.926   6.740   4.618  0.0215  0.9459 -0.0690
   94SAPC  H19R 9162   3.849   6.682   4.564 -0.6914  1.7263  0.0929
   94SAPC  H19S 9163   4.030   6.719   4.585 -0.1307 -0.3916  0.2509
   94SAPC  C220 9164   3.899   6.889   4.591  0.0045 -0.3395 -0.3642
   94SAPC  H20R 9165   3.920   6.911   4.484 -0.3427 -1.1497 -0.6075
   94SAPC  H20S 9166   3.970   6.943   4.657  1.4280  1.2020 -3.0166
   94SAPC  H20T 9167   3.793   6.920   4.605  0.2690 -0.2028  1.6342
   94SAPC   C33 9168   2.835   5.848   5.565 -0.8282 -0.1124 -0.3412
   94SAPC   H3X 9169   2.909   5.782   5.616 -0.5493  0.2074 -0.3333
   94SAPC   H3Y 9170   2.866   5.949   5.597  0.9306 -0.2702 -1.4664
   94SAPC   C34 9171   2.851   5.833   5.416  0.6100 -0.2088  0.2747
   94SAPC   H4X 9172   2.787   5.912   5.370  0.7530 -0.4653 -0.3674
   94SAPC   H4Y 9173   2.834   5.730   5.378  2.4405 -1.1493  1.8021
   94SAPC   C35 9174   2.999   5.867   5.378 -0.2895 -0.4515  0.4785
   94SAPC   H5X 9175   3.010   5.813   5.282 -1.3191  1.0562 -0.5431
   94SAPC   H5Y 9176   3.066   5.823   5.455  1.5521  2.4587  0.6775
   94SAPC   C36 9177   3.021   6.015   5.345  0.1691 -0.2192 -0.9757
   94SAPC   H6X 9178   3.006   6.069   5.440 -0.4049  0.3859 -1.4006
   94SAPC   H6Y 9179   2.948   6.052   5.269 -1.1618 -0.6147  0.0772
   94SAPC   C37 9180   3.161   6.060   5.290  0.2698 -0.0364 -0.1676
   94SAPC   H7X 9181   3.235   6.027   5.367 -0.5114  1.9185  1.5279
   94SAPC   H7Y 9182   3.147   6.170   5.282  0.3076  0.1716  1.8976
   94SAPC   C38 9183   3.190   5.997   5.154 -0.5034  0.2743  0.2955
   94SAPC   H8X 9184   3.168   5.889   5.166 -0.2918  0.2621  0.5874
   94SAPC   H8Y 9185   3.299   6.001   5.130 -0.3420  0.0896  0.9624
   94SAPC   C39 9186   3.107   6.050   5.036  0.2562 -0.7263 -0.6531
   94SAPC   H9X 9187   3.000   6.063   5.064  0.6999 -1.3026  1.4865
   94SAPC   H9Y 9188   3.125   5.976   4.955  1.3838 -1.8506  0.5752
   94SAPC  C310 9189   3.150   6.191   4.980 -0.0968  0.6151 -0.4477
   94SAPC  H10X 9190   3.139   6.270   5.057 -0.8183 -0.6463  0.8019
   94SAPC  H10Y 9191   3.083   6.199   4.892 -0.0423 -1.0146 -0.6683
   94SAPC  C311 9192   3.294   6.203   4.920  0.0940 -0.6365 -0.1669
   94SAPC  H11X 9193   3.369   6.198   5.002 -2.5412 -1.1344  2.3725
   94SAPC  H11Y 9194   3.310   6.294   4.860 -1.1110  0.2408  0.8027
   94SAPC  C312 9195   3.337   6.099   4.820 -0.0715 -0.2187 -0.1089
   94SAPC  H12X 9196   3.310   5.995   4.849  0.0974 -0.1793  0.1860
   94SAPC  H12Y 9197   3.448   6.106   4.820 -0.0451 -0.5841  0.6798
   94SAPC  C313 9198   3.283   6.133   4.679 -0.0554  0.9487 -0.6606
   94SAPC  H13X 9199   3.303   6.240   4.659  2.1288  0.6801 -0.1569
   94SAPC  H13Y 9200   3.175   6.110   4.687  0.3004 -0.2813  1.4691
   94SAPC  C314 9201   3.346   6.054   4.567  0.2421  0.3736 -0.7910
   94SAPC  H14X 9202   3.337   5.948   4.599  1.3981  0.4690 -0.0569
   94SAPC  H14Y 9203   3.456   6.071   4.561  0.4986 -0.9187 -0.2017
   94SAPC  C315 9204   3.270   6.070   4.433 -0.0865 -0.1555 -0.7335
   94SAPC  H15X 9205   3.283   6.176   4.400  0.2679  0.2373  0.6158
   94SAPC  H15Y 9206   3.163   6.064   4.463 -0.4774 -0.6299 -2.1357
   94SAPC  C316 9207   3.315   5.971   4.319 -0.5610 -0.3411 -0.6951
   94SAPC  H16X 9208   3.359   5.883   4.370 -0.0772 -0.1736 -0.8224
   94SAPC  H16Y 9209   3.391   6.022   4.257 -0.1346  2.5960  1.9876
   94SAPC  C317 9210   3.188   5.942   4.236  0.5793  1.2574  0.0552
   94SAPC  H17X 9211   3.156   6.039   4.193 -1.9434  0.3768 -0.2118
   94SAPC  H17Y 9212   3.102   5.903   4.295  0.8431  0.1072 -0.2995
   94SAPC  C318 9213   3.216   5.851   4.120 -0.1153  0.8975  0.3215
   94SAPC  H18X 9214   3.285   5.768   4.147  0.0615  1.0221  0.2545
   94SAPC  H18Y 9215   3.261   5.912   4.039  0.4618  0.4616  0.3093
   94SAPC  H18Z 9216   3.125   5.795   4.089 -1.1817  1.2410  2.6519
   95SAPC     N 9217   3.589   3.616   1.774  0.0235 -0.6785  0.0351
   95SAPC   C12 9218   3.476   3.517   1.798  0.8579 -0.5217  0.2977
   95SAPC  H12A 9219   3.396   3.561   1.740  0.4229 -0.1399  1.1595
   95SAPC  H12B 9220   3.431   3.522   1.896 -0.8941 -0.1524 -0.4842
   95SAPC   C13 9221   3.638   3.635   1.631  0.2847  0.3726  0.1905
   95SAPC  H13A 9222   3.568   3.684   1.565  1.0501  1.9708  0.5020
   95SAPC  H13B 9223   3.725   3.699   1.630  0.1288  0.5861  0.2207
   95SAPC  H13C 9224   3.671   3.539   1.594 -1.2032  0.4076 -1.3186
   95SAPC   C14 9225   3.544   3.749   1.823  0.3016 -0.1332 -0.1513
   95SAPC  H14A 9226   3.606   3.835   1.802 -1.9200  2.0565  1.6110
   95SAPC  H14B 9227   3.448   3.777   1.781  0.4877 -2.3742 -2.2964
   95SAPC  H14C 9228   3.531   3.744   1.930 -0.5253 -0.4960 -0.2571
   95SAPC   C15 9229   3.698   3.570   1.861  0.3899 -0.0940 -1.3788
   95SAPC  H15A 9230   3.713   3.465   1.837  2.6319 -0.8432  2.4266
   95SAPC  H15B 9231   3.794   3.616   1.840  1.1923 -1.7850 -1.6743
   95SAPC  H15C 9232   3.680   3.576   1.967  0.0789  0.7592 -1.4778
   95SAPC   C11 9233   3.500   3.358   1.763  0.3901 -0.0079 -0.0715
   95SAPC  H11A 9234   3.502   3.337   1.653 -3.0019 -0.9920 -0.0561
   95SAPC  H11B 9235   3.403   3.315   1.796  0.9738 -1.1058  0.2530
   95SAPC     P 9236   3.597   3.137   1.874  0.0005  0.1630  0.0071
   95SAPC   O13 9237   3.487   3.113   1.971  0.0948  0.3032 -0.0704
   95SAPC   O14 9238   3.592   3.057   1.747  0.6455 -0.0298  0.4069
   95SAPC   O12 9239   3.609   3.295   1.832  0.0736 -0.0257 -0.1782
   95SAPC   O11 9240   3.729   3.106   1.947 -0.6587 -0.1695  0.0547
   95SAPC    C1 9241   3.773   3.184   2.060 -0.2553  0.3371  0.3033
   95SAPC    HA 9242   3.884   3.188   2.057 -0.3070  1.8482 -0.3391
   95SAPC    HB 9243   3.728   3.286   2.055 -1.8465 -0.3472 -0.3209
   95SAPC    C2 9244   3.737   3.121   2.199  0.5719  0.2390 -0.3507
   95SAPC    HS 9245   3.631   3.138   2.228  0.4361 -1.1034  0.0071
   95SAPC   O21 9246   3.831   3.157   2.299 -0.2208 -0.4720 -0.3544
   95SAPC   C21 9247   3.820   3.280   2.339 -0.4648 -0.6145  0.1896
   95SAPC   O22 9248   3.738   3.361   2.298 -0.0028  0.1926 -0.2104
   95SAPC   C22 9249   3.918   3.306   2.451  0.2357 -0.2767 -0.2241
   95SAPC   H2R 9250   4.010   3.254   2.417  0.3665  1.5552 -3.0289
   95SAPC   H2S 9251   3.936   3.415   2.457 -0.3765 -0.2291  0.8070
   95SAPC    C3 9252   3.742   2.963   2.208  0.2995  0.1669 -0.0877
   95SAPC    HX 9253   3.847   2.927   2.201  0.8126  1.7793 -1.3247
   95SAPC    HY 9254   3.685   2.917   2.125  0.4297 -3.6144  1.7033
   95SAPC   O31 9255   3.677   2.925   2.331  0.7551 -0.1400  0.0131
   95SAPC   C31 9256   3.743   2.842   2.420  0.6362 -0.3725  0.1701
   95SAPC   O32 9257   3.846   2.788   2.394 -0.3766 -0.0713 -0.7447
   95SAPC   C32 9258   3.669   2.836   2.555  0.0339  0.5049 -0.7742
   95SAPC   H2X 9259   3.561   2.813   2.549  0.4926 -2.0568 -0.1739
   95SAPC   H2Y 9260   3.688   2.940   2.588  0.0347  1.0889 -2.5147
   95SAPC   C23 9261   3.877   3.249   2.583 -0.1331  0.3605 -0.5745
   95SAPC   H3R 9262   3.946   3.165   2.609 -1.5598 -0.8485 -0.5361
   95SAPC   H3S 9263   3.775   3.208   2.572 -0.3307  0.4723  0.7272
   95SAPC   C24 9264   3.875   3.350   2.700  0.1556  0.2499  0.1620
   95SAPC   H4R 9265   3.850   3.276   2.780 -1.1609  0.2585 -0.2150
   95SAPC   H4S 9266   3.789   3.417   2.679 -0.1315 -0.2141 -0.1948
   95SAPC   C25 9267   4.007   3.412   2.729  0.0532  0.0265  0.2198
   95SAPC   H5R 9268   4.049   3.468   2.644 -1.1023 -0.8685 -0.9704
   95SAPC   C26 9269   4.087   3.389   2.841 -0.1320 -0.0983  0.2438
   95SAPC   H6R 9270   4.188   3.431   2.849 -0.2217  0.5501 -1.5861
   95SAPC   C27 9271   4.053   3.303   2.961 -0.1568 -0.1643 -0.2398
   95SAPC   H7R 9272   4.139   3.314   3.031  0.5301  3.0646 -1.4171
   95SAPC   H7S 9273   4.038   3.196   2.936  0.7167 -0.5714  0.8897
   95SAPC   C28 9274   3.924   3.359   3.030 -0.3786 -0.0857  0.2911
   95SAPC   H8R 9275   3.840   3.383   2.964 -0.8828 -1.9966  0.1868
   95SAPC   C29 9276   3.895   3.372   3.159  0.3810  0.1633  0.3157
   95SAPC   H9R 9277   3.791   3.398   3.183  0.2190  1.2296 -1.3556
   95SAPC  C210 9278   3.986   3.331   3.271 -0.2326  0.0696  0.0200
   95SAPC  H10R 9279   4.087   3.319   3.226  0.0724 -0.9040  0.8981
   95SAPC  H10S 9280   3.944   3.235   3.310  0.7179 -0.2457  0.3048
   95SAPC  C211 9281   3.978   3.438   3.381 -0.0046 -0.0136  0.1822
   95SAPC  H11R 9282   4.013   3.534   3.341  1.8912 -0.7795 -0.1017
   95SAPC  C212 9283   3.935   3.420   3.506  0.6969  0.1376  0.2109
   95SAPC  H12R 9284   3.937   3.503   3.578  4.5689  0.0240  0.4294
   95SAPC  C213 9285   3.883   3.288   3.562 -1.0718  0.0589  0.3803
   95SAPC  H13R 9286   3.814   3.247   3.485 -0.7667 -0.5789  0.4348
   95SAPC  H13S 9287   3.842   3.314   3.662 -0.6290  2.1410  0.0542
   95SAPC  C214 9288   3.992   3.194   3.583 -1.0079  0.0241 -0.3485
   95SAPC  H14R 9289   4.095   3.232   3.587 -0.2523 -1.2042 -4.0431
   95SAPC  C215 9290   3.977   3.060   3.583  0.0645 -0.4409  0.5400
   95SAPC  H15R 9291   4.068   3.000   3.600  0.1351 -0.1883  1.0852
   95SAPC  C216 9292   3.856   2.979   3.539 -0.0485 -0.3077  0.2147
   95SAPC  H16R 9293   3.863   2.939   3.435 -3.2621 -2.9856  0.8563
   95SAPC  H16S 9294   3.764   3.040   3.535 -0.8497 -1.4488  0.7732
   95SAPC  C217 9295   3.833   2.857   3.625 -0.6026  0.3585 -0.6425
   95SAPC  H17R 9296   3.827   2.883   3.733  1.6728  0.7512 -0.5554
   95SAPC  H17S 9297   3.923   2.793   3.615 -0.4044  0.8392 -2.2555
   95SAPC  C218 9298   3.702   2.775   3.597 -0.2494 -0.1056 -0.9134
   95SAPC  H18R 9299   3.714   2.754   3.488  2.7879 -2.7045 -0.2338
   95SAPC  H18S 9300   3.608   2.834   3.604  0.1318  0.2834  2.5769
   95SAPC  C219 9301   3.691   2.646   3.678  0.2201  0.4332  0.1442
   95SAPC  H19R 9302   3.653   2.674   3.779 -2.6714  1.7184 -1.1942
   95SAPC  H19S 9303   3.792   2.604   3.698 -0.0857  0.2376  1.3987
   95SAPC  C220 9304   3.605   2.534   3.618 -0.8399 -0.0325  0.0557
   95SAPC  H20R 9305   3.606   2.447   3.688 -1.2943 -0.3692 -0.3543
   95SAPC  H20S 9306   3.659   2.500   3.527 -0.3148 -0.0689  0.3753
   95SAPC  H20T 9307   3.504   2.576   3.603 -0.2310  2.2822  1.7778
   95SAPC   C33 9308   3.743   2.746   2.661  0.4043 -0.5381 -0.4496
   95SAPC   H3X 9309   3.711   2.759   2.766 -0.7680 -1.5921 -0.6451
   95SAPC   H3Y 9310   3.852   2.768   2.657  0.2951  0.6420  1.7662
   95SAPC   C34 9311   3.726   2.594   2.621  1.0668 -0.8448  0.4087
   95SAPC   H4X 9312   3.792   2.524   2.677 -0.4139 -1.5264  1.3574
   95SAPC   H4Y 9313   3.761   2.590   2.516  0.7959 -1.3947  0.3374
   95SAPC   C35 9314   3.578   2.532   2.624 -0.2664 -0.5074 -0.2123
   95SAPC   H5X 9315   3.587   2.432   2.576  1.0366 -0.9638  0.9125
   95SAPC   H5Y 9316   3.511   2.592   2.559  0.7136  0.3096 -0.5052
   95SAPC   C36 9317   3.521   2.535   2.765 -0.3295 -0.4606 -0.5519
   95SAPC   H6X 9318   3.545   2.639   2.795  1.2153 -0.6922 -0.8949
   95SAPC   H6Y 9319   3.573   2.462   2.831  1.7690 -1.6692 -3.3325
   95SAPC   C37 9320   3.372   2.512   2.781  0.3271 -0.6478  0.4924
   95SAPC   H7X 9321   3.320   2.559   2.695  0.4537 -1.5685 -0.0932
   95SAPC   H7Y 9322   3.332   2.573   2.865  0.5738 -0.6449  0.6075
   95SAPC   C38 9323   3.347   2.367   2.819 -0.2618  0.1081  0.2480
   95SAPC   H8X 9324   3.412   2.306   2.752 -2.0995 -1.4307 -0.2141
   95SAPC   H8Y 9325   3.242   2.337   2.801 -0.6404  1.8091 -0.6443
   95SAPC   C39 9326   3.393   2.317   2.961  0.0119 -0.9731  0.0048
   95SAPC   H9X 9327   3.500   2.302   2.985  0.0473  0.1613  0.6162
   95SAPC   H9Y 9328   3.347   2.216   2.972 -0.2914 -0.7767  0.6200
   95SAPC  C310 9329   3.333   2.405   3.077 -0.5593 -0.2545 -0.3115
   95SAPC  H10X 9330   3.223   2.401   3.062 -1.0919  1.0083  2.5651
   95SAPC  H10Y 9331   3.362   2.512   3.070  0.3337 -0.2525  2.3665
   95SAPC  C311 9332   3.368   2.350   3.216  0.3429 -0.4366  0.0331
   95SAPC  H11X 9333   3.475   2.356   3.243  1.0809 -0.0245 -2.7326
   95SAPC  H11Y 9334   3.351   2.240   3.223 -0.1601 -0.2645  2.1905
   95SAPC  C312 9335   3.292   2.412   3.341 -0.6780  0.1044 -0.5068
   95SAPC  H12X 9336   3.183   2.428   3.326 -0.5930  2.2698  0.8003
   95SAPC  H12Y 9337   3.330   2.516   3.357 -3.7928  1.4639 -1.1091
   95SAPC  C313 9338   3.313   2.329   3.472 -0.2708 -1.0686  0.0412
   95SAPC  H13X 9339   3.423   2.316   3.478  0.7177  4.8247  1.6351
   95SAPC  H13Y 9340   3.265   2.230   3.459 -3.1046 -0.0364  1.6660
   95SAPC  C314 9341   3.261   2.403   3.600 -0.0113 -0.0243  0.2716
   95SAPC  H14X 9342   3.323   2.494   3.616  0.8234 -0.4629 -0.3619
   95SAPC  H14Y 9343   3.279   2.328   3.679 -0.1174 -0.4615 -0.1124
   95SAPC  C315 9344   3.106   2.441   3.586 -0.5831 -0.2437  0.2359
   95SAPC  H15X 9345   3.056   2.348   3.550 -2.2366  0.4782  0.5811
   95SAPC  H15Y 9346   3.086   2.524   3.515  1.3737 -0.9007 -1.1850
   95SAPC  C316 9347   3.043   2.478   3.721 -0.4576  0.3176 -0.8529
   95SAPC  H16X 9348   3.050   2.388   3.786 -0.4681  0.4349 -0.6912
   95SAPC  H16Y 9349   2.936   2.495   3.696 -1.3721  1.5849  3.2096
   95SAPC  C317 9350   3.113   2.604   3.778  0.5065  0.2696 -0.1681
   95SAPC  H17X 9351   3.155   2.653   3.687  0.2446  0.6195 -0.1038
   95SAPC  H17Y 9352   3.196   2.590   3.851  0.3053 -1.7195 -0.2731
   95SAPC  C318 9353   3.018   2.693   3.860 -0.0503  0.6710 -0.5009
   95SAPC  H18X 9354   2.989   2.644   3.955 -0.6789 -0.5391 -1.2877
   95SAPC  H18Y 9355   2.929   2.724   3.801 -0.1167 -1.0422 -1.3564
   95SAPC  H18Z 9356   3.076   2.782   3.892  2.5500 -1.4076  0.9070
   96SAPC     N 9357   4.985   4.263   1.576  0.0915  0.3673  0.1833
   96SAPC   C12 9358   4.886   4.308   1.469 -0.3986 -0.3466  0.4295
   96SAPC  H12A 9359   4.948   4.316   1.381 -0.1569  3.2438  0.7779
   96SAPC  H12B 9360   4.831   4.401   1.480 -0.4311  0.4184 -4.1685
   96SAPC   C13 9361   5.040   4.133   1.533 -0.7765 -0.7528 -0.3290
   96SAPC  H13A 9362   5.113   4.157   1.457 -0.7448  0.0809 -0.0505
   96SAPC  H13B 9363   5.088   4.096   1.622  2.0522  0.8479 -1.0537
   96SAPC  H13C 9364   4.966   4.067   1.491 -0.5994 -1.6998  0.8088
   96SAPC   C14 9365   5.106   4.357   1.587  0.0460  0.5913 -1.1564
   96SAPC  H14A 9366   5.159   4.367   1.493  1.5193 -1.9103 -0.6872
   96SAPC  H14B 9367   5.078   4.450   1.633 -1.1356 -1.0657  1.7942
   96SAPC  H14C 9368   5.166   4.319   1.669 -0.6003  2.7857  0.4241
   96SAPC   C15 9369   4.917   4.251   1.703  0.5886 -0.2546 -0.1545
   96SAPC  H15A 9370   4.840   4.176   1.702 -1.5615  1.8492 -0.4004
   96SAPC  H15B 9371   4.983   4.224   1.785  0.3153 -2.1161 -0.5056
   96SAPC  H15C 9372   4.866   4.345   1.721 -2.9198 -1.5212 -2.4618
   96SAPC   C11 9373   4.765   4.216   1.451  0.2289 -0.2693 -0.2132
   96SAPC  H11A 9374   4.797   4.116   1.416  2.1812  0.3164 -0.2378
   96SAPC  H11B 9375   4.701   4.243   1.365 -1.6243 -1.3180  0.7740
   96SAPC     P 9376   4.573   4.324   1.590  0.3687 -0.3833  0.0566
   96SAPC   O13 9377   4.645   4.451   1.613  0.1629 -0.2402  0.1942
   96SAPC   O14 9378   4.482   4.323   1.473 -0.1245  1.3079 -0.0566
   96SAPC   O12 9379   4.675   4.210   1.560  0.3216 -0.4712 -0.5057
   96SAPC   O11 9380   4.500   4.291   1.722  0.0261  0.0367 -0.1808
   96SAPC    C1 9381   4.492   4.150   1.763  0.8489 -0.5088 -0.5209
   96SAPC    HA 9382   4.407   4.104   1.709  0.3226  2.1224 -2.0898
   96SAPC    HB 9383   4.591   4.099   1.756  0.8175 -0.5713 -0.4993
   96SAPC    C2 9384   4.470   4.145   1.920  0.1071 -0.4176  0.4880
   96SAPC    HS 9385   4.483   4.042   1.958 -0.4828 -0.3703  0.8289
   96SAPC   O21 9386   4.340   4.204   1.949 -0.1822 -0.6524 -0.0415
   96SAPC   C21 9387   4.270   4.137   2.035  0.3891 -0.0197 -0.7493
   96SAPC   O22 9388   4.291   4.030   2.077  0.6552  0.3372 -0.2264
   96SAPC   C22 9389   4.168   4.232   2.094 -0.1949  0.2498  1.0762
   96SAPC   H2R 9390   4.218   4.319   2.143 -0.8573 -0.0576  2.3470
   96SAPC   H2S 9391   4.107   4.269   2.009 -0.2184 -3.5374 -0.7206
   96SAPC    C3 9392   4.580   4.222   1.993  0.9873  0.2229  0.1809
   96SAPC    HX 9393   4.585   4.322   1.945  1.6234  0.6091  1.0220
   96SAPC    HY 9394   4.672   4.169   1.959  0.6445  1.4519 -3.0456
   96SAPC   O31 9395   4.565   4.217   2.136 -0.6308 -0.1590 -0.6438
   96SAPC   C31 9396   4.494   4.329   2.185 -0.5916 -0.3401 -0.5787
   96SAPC   O32 9397   4.452   4.420   2.122 -0.6575 -0.3028 -0.0610
   96SAPC   C32 9398   4.498   4.328   2.331  0.1507  0.3262 -0.3198
   96SAPC   H2X 9399   4.398   4.350   2.374  0.2572 -1.4193  0.9076
   96SAPC   H2Y 9400   4.567   4.411   2.359 -2.6987  2.4247  0.9228
   96SAPC   C23 9401   4.078   4.168   2.200  0.1284  0.0410 -0.3332
   96SAPC   H3R 9402   4.025   4.078   2.163  2.4045 -1.0242 -1.1613
   96SAPC   H3S 9403   3.994   4.241   2.204 -0.4274 -0.5384 -1.1135
   96SAPC   C24 9404   4.134   4.149   2.342  0.8030  1.1214 -0.2387
   96SAPC   H4R 9405   4.162   4.246   2.389  0.6650  0.7866  0.5395
   96SAPC   H4S 9406   4.222   4.080   2.338 -1.0429 -1.3223 -0.7056
   96SAPC   C25 9407   4.023   4.085   2.422  0.8133  0.0576 -0.4106
   96SAPC   H5R 9408   3.930   4.063   2.367  0.0532 -0.7535  1.1268
   96SAPC   C26 9409   4.040   4.034   2.548 -0.5897 -0.2360  0.1082
   96SAPC   H6R 9410   3.949   3.994   2.594 -0.7131  0.2550  0.2979
   96SAPC   C27 9411   4.165   4.045   2.640  1.0804 -0.2612  0.2562
   96SAPC   H7R 9412   4.144   4.114   2.724 -0.1122  0.8810 -0.9302
   96SAPC   H7S 9413   4.253   4.093   2.593 -1.2522  2.5136 -1.6247
   96SAPC   C28 9414   4.197   3.901   2.676  0.4876  0.3694  0.6851
   96SAPC   H8R 9415   4.261   3.856   2.599 -0.8493  2.0494 -1.5311
   96SAPC   C29 9416   4.166   3.829   2.795 -0.5792 -0.2040  0.5422
   96SAPC   H9R 9417   4.201   3.725   2.803  1.2588  0.1277 -1.8864
   96SAPC  C210 9418   4.082   3.895   2.901 -1.4409 -0.3178 -0.6285
   96SAPC  H10R 9419   4.023   3.980   2.860  1.2680  1.2895 -1.4971
   96SAPC  H10S 9420   4.152   3.948   2.969 -0.3450 -0.9328 -1.2395
   96SAPC  C211 9421   4.009   3.786   2.985 -0.1372 -0.6693 -0.7645
   96SAPC  H11R 9422   3.924   3.745   2.929 -0.5531  0.2436 -0.8202
   96SAPC  C212 9423   4.035   3.752   3.112 -0.7377 -1.8398 -0.5969
   96SAPC  H12R 9424   3.968   3.684   3.167  0.1371 -0.6150  2.1420
   96SAPC  C213 9425   4.152   3.802   3.192  0.0585 -0.0686  0.1352
   96SAPC  H13R 9426   4.240   3.814   3.126  0.5338 -0.0089  0.7681
   96SAPC  H13S 9427   4.190   3.718   3.253  4.0981  1.8877  0.6395
   96SAPC  C214 9428   4.131   3.934   3.272 -0.0816  0.2059 -0.0253
   96SAPC  H14R 9429   4.084   4.015   3.214  0.5068 -0.3965 -1.3932
   96SAPC  C215 9430   4.175   3.951   3.398  0.4361  0.0969 -0.1932
   96SAPC  H15R 9431   4.156   4.050   3.442 -2.6487  1.2614 -3.5959
   96SAPC  C216 9432   4.250   3.854   3.485  0.4227  0.2096  0.0668
   96SAPC  H16R 9433   4.313   3.904   3.562 -1.3138  0.9673  1.0533
   96SAPC  H16S 9434   4.330   3.795   3.434 -0.3479 -1.0942  0.3024
   96SAPC  C217 9435   4.164   3.741   3.541  0.3334 -0.4085  0.4202
   96SAPC  H17R 9436   4.232   3.663   3.581  0.1699  0.3202  2.1838
   96SAPC  H17S 9437   4.102   3.693   3.462 -0.1246 -1.5782  1.4576
   96SAPC  C218 9438   4.068   3.797   3.652 -0.2145  0.3410  0.3795
   96SAPC  H18R 9439   4.002   3.712   3.681 -2.3630  1.5389 -0.8408
   96SAPC  H18S 9440   3.992   3.863   3.607 -0.6768 -0.2287  0.3123
   96SAPC  C219 9441   4.146   3.845   3.777  0.1342  0.2387 -0.2017
   96SAPC  H19R 9442   4.072   3.862   3.858 -0.0174  0.0351 -0.2957
   96SAPC  H19S 9443   4.192   3.944   3.756  0.0846  0.3938  0.3893
   96SAPC  C220 9444   4.254   3.754   3.829 -0.1377 -0.5874  0.6084
   96SAPC  H20R 9445   4.212   3.653   3.849  0.4694 -0.6721  1.5259
   96SAPC  H20S 9446   4.290   3.795   3.925 -0.1611  2.5010 -0.5986
   96SAPC  H20T 9447   4.339   3.742   3.758 -1.0097 -1.0713 -0.3917
   96SAPC   C33 9448   4.540   4.193   2.386 -0.3839  0.6428  0.4397
   96SAPC   H3X 9449   4.649   4.175   2.369 -0.6809 -1.2533  0.2433
   96SAPC   H3Y 9450   4.489   4.105   2.341 -1.4749  0.1089  2.6015
   96SAPC   C34 9451   4.532   4.173   2.541  0.1601 -0.1888 -0.3124
   96SAPC   H4X 9452   4.429   4.202   2.571  0.2559 -0.8283  0.6856
   96SAPC   H4Y 9453   4.599   4.247   2.591  2.9772 -1.3965 -2.0293
   96SAPC   C35 9454   4.566   4.031   2.582 -0.2290  0.9804  0.1613
   96SAPC   H5X 9455   4.647   3.990   2.517  0.3808 -1.2934  2.1963
   96SAPC   H5Y 9456   4.475   3.973   2.558  1.1430 -1.6286  0.8805
   96SAPC   C36 9457   4.587   4.018   2.734  0.0484  0.0123  0.2117
   96SAPC   H6X 9458   4.694   4.031   2.763 -0.3859 -0.4030  2.1151
   96SAPC   H6Y 9459   4.575   3.911   2.763  2.5525 -0.1331  0.9786
   96SAPC   C37 9460   4.486   4.098   2.824 -0.4197 -0.6924 -0.3366
   96SAPC   H7X 9461   4.388   4.112   2.774 -0.2007  0.6240 -0.4319
   96SAPC   H7Y 9462   4.540   4.195   2.837  3.1539 -2.3488 -1.4344
   96SAPC   C38 9463   4.458   4.032   2.962 -0.0499 -0.4890  0.3086
   96SAPC   H8X 9464   4.438   3.926   2.937 -0.1598 -0.2928 -0.4548
   96SAPC   H8Y 9465   4.363   4.075   3.002 -0.7236 -0.2965 -1.4247
   96SAPC   C39 9466   4.578   4.036   3.063  0.5266  0.1640  0.0423
   96SAPC   H9X 9467   4.612   4.141   3.064  1.2797  0.0392 -2.9974
   96SAPC   H9Y 9468   4.661   3.976   3.020 -1.4687 -1.7432 -1.3883
   96SAPC  C310 9469   4.535   3.997   3.200  0.5276  0.0748 -0.2600
   96SAPC  H10X 9470   4.492   3.895   3.192  2.5213 -0.6809 -3.0080
   96SAPC  H10Y 9471   4.470   4.068   3.256 -0.7262 -3.9632  4.0823
   96SAPC  C311 9472   4.662   3.982   3.292 -0.4558 -0.4565 -0.5080
   96SAPC  H11X 9473   4.732   4.068   3.293  0.8360 -1.4665 -1.3020
   96SAPC  H11Y 9474   4.717   3.892   3.259 -0.3988 -0.3670 -0.6589
   96SAPC  C312 9475   4.625   3.945   3.437  0.3829 -0.1667  0.1621
   96SAPC  H12X 9476   4.552   3.862   3.428  2.7516 -2.3288 -0.3215
   96SAPC  H12Y 9477   4.567   4.025   3.488 -2.3606 -2.5511  1.0242
   96SAPC  C313 9478   4.745   3.907   3.521  0.4925 -0.0691 -0.2488
   96SAPC  H13X 9479   4.818   3.990   3.524 -2.4055  2.6497 -0.3432
   96SAPC  H13Y 9480   4.796   3.820   3.474 -0.3566 -0.4293 -0.5108
   96SAPC  C314 9481   4.708   3.869   3.666 -0.7257 -0.0511  0.1117
   96SAPC  H14X 9482   4.633   3.786   3.666 -1.7973  0.8922  0.9039
   96SAPC  H14Y 9483   4.662   3.956   3.717  1.1851  0.4691  1.0542
   96SAPC  C315 9484   4.834   3.821   3.743  0.6868 -0.4936  0.0538
   96SAPC  H15X 9485   4.899   3.910   3.763  0.0561 -0.0255  0.0580
   96SAPC  H15Y 9486   4.897   3.748   3.688  1.9035  1.6931 -1.6406
   96SAPC  C316 9487   4.794   3.783   3.889 -0.7303  0.4816  0.5162
   96SAPC  H16X 9488   4.739   3.686   3.896  1.5071 -0.8710  0.3295
   96SAPC  H16Y 9489   4.721   3.859   3.923 -2.6343 -1.1290  0.2776
   96SAPC  C317 9490   4.916   3.764   3.968  0.2937 -0.1923 -0.3627
   96SAPC  H17X 9491   4.987   3.848   3.953  1.4475 -0.8890  1.0109
   96SAPC  H17Y 9492   4.966   3.670   3.938  0.3751  0.3682 -2.1188
   96SAPC  C318 9493   4.899   3.778   4.120  0.1574 -0.5424  0.1802
   96SAPC  H18X 9494   4.846   3.870   4.152  2.8971  1.6674 -1.0851
   96SAPC  H18Y 9495   4.982   3.770   4.194 -0.9189  0.7375  1.5843
   96SAPC  H18Z 9496   4.842   3.685   4.138  3.0421 -2.3246  0.8752
   97SAPC     N 9497   2.597   3.054   1.647  0.9986 -0.2152 -0.2120
   97SAPC   C12 9498   2.723   3.052   1.731  0.5482 -0.6595 -0.5691
   97SAPC  H12A 9499   2.768   2.954   1.736  0.3265 -0.7187  0.4838
   97SAPC  H12B 9500   2.689   3.066   1.833  0.3901  1.7276 -0.8882
   97SAPC   C13 9501   2.538   2.917   1.649  0.0588  0.6733 -0.7149
   97SAPC  H13A 9502   2.516   2.893   1.752 -0.3796  0.3257 -0.8848
   97SAPC  H13B 9503   2.450   2.910   1.586  0.2007 -0.6350 -0.8004
   97SAPC  H13C 9504   2.615   2.847   1.618 -0.0613  0.0775  0.2858
   97SAPC   C14 9505   2.503   3.164   1.690  0.1383  0.2555 -0.3014
   97SAPC  H14A 9506   2.470   3.152   1.792 -1.9235 -0.3578 -0.9738
   97SAPC  H14B 9507   2.537   3.265   1.674 -0.1878  0.3478 -0.4331
   97SAPC  H14C 9508   2.409   3.171   1.636  0.2436  1.9827 -0.3117
   97SAPC   C15 9509   2.625   3.078   1.496  0.1668 -0.1232  0.1313
   97SAPC  H15A 9510   2.536   3.076   1.435 -0.5675 -3.3834  1.1363
   97SAPC  H15B 9511   2.671   3.173   1.473 -3.7253  1.6727 -1.2063
   97SAPC  H15C 9512   2.680   2.995   1.454  1.3593  1.1422 -0.8988
   97SAPC   C11 9513   2.819   3.165   1.703 -0.7600  0.0453 -0.1712
   97SAPC  H11A 9514   2.840   3.175   1.594 -2.2024  3.4772 -0.2752
   97SAPC  H11B 9515   2.923   3.160   1.741 -1.0190  0.6185  0.6317
   97SAPC     P 9516   2.762   3.329   1.894  0.1378  0.1583 -0.1651
   97SAPC   O13 9517   2.773   3.478   1.905  0.5239  0.0307  0.2704
   97SAPC   O14 9518   2.635   3.274   1.957 -0.0653  0.0669 -0.2103
   97SAPC   O12 9519   2.774   3.291   1.745 -0.7674  0.4462  0.3487
   97SAPC   O11 9520   2.899   3.257   1.952  0.1381 -0.6405  0.4446
   97SAPC    C1 9521   2.877   3.195   2.078  0.4942 -0.5149  0.1046
   97SAPC    HA 9522   2.800   3.116   2.064 -0.0037 -0.4120  2.0871
   97SAPC    HB 9523   2.964   3.136   2.111  0.1226 -0.6006  0.9574
   97SAPC    C2 9524   2.848   3.286   2.201  0.2318 -0.7516 -0.5745
   97SAPC    HS 9525   2.739   3.311   2.194 -0.1638 -0.6875  3.6277
   97SAPC   O21 9526   2.936   3.397   2.191  0.8869 -0.3788 -0.0930
   97SAPC   C21 9527   2.883   3.511   2.223  0.6169 -0.0114  0.0951
   97SAPC   O22 9528   2.765   3.532   2.251  0.3290  0.1939 -0.5034
   97SAPC   C22 9529   2.993   3.623   2.246  0.3131 -0.2464 -0.1935
   97SAPC   H2R 9530   3.079   3.588   2.185  0.5244 -1.4180  0.7531
   97SAPC   H2S 9531   2.952   3.723   2.219  2.6144  0.6630 -0.5859
   97SAPC    C3 9532   2.874   3.215   2.337  0.3875 -0.2442  0.5054
   97SAPC    HX 9533   2.984   3.202   2.341  0.3995 -2.0970 -2.5650
   97SAPC    HY 9534   2.839   3.109   2.341  0.1530 -0.3752 -2.7642
   97SAPC   O31 9535   2.829   3.296   2.449  0.1846  0.3242 -0.1385
   97SAPC   C31 9536   2.701   3.272   2.478  0.3201 -0.7281  0.9051
   97SAPC   O32 9537   2.626   3.191   2.422  0.3538 -0.0080 -0.0134
   97SAPC   C32 9538   2.677   3.338   2.606 -0.1151  0.2811 -0.0675
   97SAPC   H2X 9539   2.742   3.290   2.682 -0.8228 -1.6136 -0.6126
   97SAPC   H2Y 9540   2.569   3.332   2.629  0.0570  2.9436  1.8906
   97SAPC   C23 9541   3.037   3.630   2.393  0.8033 -0.1570 -0.0494
   97SAPC   H3R 9542   2.943   3.631   2.452  0.5781 -0.6690 -0.3979
   97SAPC   H3S 9543   3.097   3.723   2.407  1.2764 -0.8046  2.9054
   97SAPC   C24 9544   3.122   3.512   2.448 -0.3422 -0.4923 -0.2918
   97SAPC   H4R 9545   3.188   3.479   2.365  0.0755  2.6137 -1.3286
   97SAPC   H4S 9546   3.047   3.433   2.471 -0.6697 -0.8696 -2.4477
   97SAPC   C25 9547   3.198   3.549   2.577  0.3164  0.4396  0.7201
   97SAPC   H5R 9548   3.286   3.613   2.561  0.1475  0.5946  0.4024
   97SAPC   C26 9549   3.167   3.519   2.706 -0.2732  0.8290  0.4449
   97SAPC   H6R 9550   3.228   3.564   2.786  1.5669 -1.7525  0.6398
   97SAPC   C27 9551   3.051   3.448   2.758  0.0930 -0.1040 -0.2788
   97SAPC   H7R 9552   2.969   3.438   2.684 -0.5777 -0.6092  0.5175
   97SAPC   H7S 9553   3.004   3.502   2.844 -3.4391 -2.2088 -0.6741
   97SAPC   C28 9554   3.098   3.314   2.802 -0.3289 -0.6316  0.2857
   97SAPC   H8R 9555   3.172   3.266   2.736 -0.4998  0.5873 -0.8376
   97SAPC   C29 9556   3.061   3.249   2.907  0.7672  0.5161 -0.1367
   97SAPC   H9R 9557   3.102   3.150   2.929 -0.4283 -0.1726 -0.9059
   97SAPC  C210 9558   2.942   3.279   2.992 -0.1082 -0.2252  0.0058
   97SAPC  H10R 9559   2.872   3.199   2.958  1.8891 -2.6018  1.1143
   97SAPC  H10S 9560   2.898   3.378   2.972  1.8314  0.5959 -0.4500
   97SAPC  C211 9561   2.975   3.272   3.143  0.1823 -0.0936  0.0274
   97SAPC  H11R 9562   2.977   3.171   3.187 -1.8672 -0.7063 -1.1824
   97SAPC  C212 9563   3.012   3.373   3.221 -0.4288  0.0021  0.4424
   97SAPC  H12R 9564   3.033   3.354   3.327  1.3949 -0.4359  0.0445
   97SAPC  C213 9565   3.035   3.514   3.176 -0.4297  0.6668  0.1155
   97SAPC  H13R 9566   2.946   3.577   3.196 -0.3492  1.7874 -2.6274
   97SAPC  H13S 9567   3.041   3.513   3.065 -1.8068  0.3431  0.0187
   97SAPC  C214 9568   3.157   3.578   3.223 -0.3852  0.4512  0.0598
   97SAPC  H14R 9569   3.232   3.581   3.143 -1.5155 -0.1786 -1.0746
   97SAPC  C215 9570   3.172   3.639   3.346  0.6350  1.0654 -0.0534
   97SAPC  H15R 9571   3.266   3.694   3.366  1.3196 -0.2051  0.3254
   97SAPC  C216 9572   3.058   3.654   3.449 -0.1667  0.1161 -0.3858
   97SAPC  H16R 9573   2.973   3.589   3.419  0.5542  0.6170 -4.0316
   97SAPC  H16S 9574   3.013   3.755   3.455  2.8191  1.5631 -0.3411
   97SAPC  C217 9575   3.097   3.609   3.595 -0.3794 -0.3543  0.2207
   97SAPC  H17R 9576   3.160   3.517   3.590  2.5811  1.6557 -2.6738
   97SAPC  H17S 9577   3.005   3.593   3.657 -0.4159  2.2237  0.9193
   97SAPC  C218 9578   3.190   3.713   3.675 -0.5337  0.4100  0.4918
   97SAPC  H18R 9579   3.164   3.821   3.665  0.3652  0.6579  0.7008
   97SAPC  H18S 9580   3.289   3.706   3.624 -2.2020  2.2352 -3.3822
   97SAPC  C219 9581   3.213   3.678   3.822 -0.1663  0.2226  0.0478
   97SAPC  H19R 9582   3.301   3.727   3.869 -0.4439  2.3767 -1.4984
   97SAPC  H19S 9583   3.230   3.569   3.813 -1.2879 -0.0466  0.9820
   97SAPC  C220 9584   3.085   3.708   3.901  0.1127 -0.3140  0.0903
   97SAPC  H20R 9585   3.046   3.813   3.904 -1.7259 -0.9329 -0.7992
   97SAPC  H20S 9586   3.106   3.683   4.007 -0.1925  1.3007  0.5653
   97SAPC  H20T 9587   3.007   3.642   3.858  0.8779 -0.1794 -1.5787
   97SAPC   C33 9588   2.695   3.484   2.595  0.2112  0.0135 -0.5272
   97SAPC   H3X 9589   2.653   3.524   2.500 -0.7288 -1.4885 -0.7858
   97SAPC   H3Y 9590   2.798   3.525   2.600  0.8763 -1.6081 -0.4297
   97SAPC   C34 9591   2.616   3.556   2.710  0.4590 -0.4812  0.7850
   97SAPC   H4X 9592   2.514   3.511   2.713  0.3588 -0.2051  1.7219
   97SAPC   H4Y 9593   2.605   3.661   2.676 -0.9548 -0.1393  2.2016
   97SAPC   C35 9594   2.683   3.535   2.842  0.0754  0.5363  0.2244
   97SAPC   H5X 9595   2.788   3.570   2.836  0.7710 -1.3155  0.8729
   97SAPC   H5Y 9596   2.688   3.425   2.857  1.5419  0.5929  0.2663
   97SAPC   C36 9597   2.607   3.594   2.965  0.5306  0.5993  0.9940
   97SAPC   H6X 9598   2.514   3.533   2.964  0.5508  0.5393  1.9371
   97SAPC   H6Y 9599   2.573   3.699   2.955 -1.5086 -0.0219  1.0213
   97SAPC   C37 9600   2.677   3.563   3.096  0.1355  0.2036 -0.9850
   97SAPC   H7X 9601   2.773   3.619   3.098  0.0739  0.2976 -0.5815
   97SAPC   H7Y 9602   2.697   3.454   3.103 -0.2052  0.1875 -0.0400
   97SAPC   C38 9603   2.603   3.610   3.220  0.1745  0.7856  1.0716
   97SAPC   H8X 9604   2.505   3.559   3.232  0.3663  0.2233  0.3491
   97SAPC   H8Y 9605   2.582   3.719   3.215  1.1520  1.0035  1.3722
   97SAPC   C39 9606   2.688   3.599   3.342 -0.2518 -0.2962 -0.3408
   97SAPC   H9X 9607   2.779   3.663   3.339 -0.1267 -0.4569 -0.0345
   97SAPC   H9Y 9608   2.725   3.496   3.358  0.2886 -0.1869 -0.8230
   97SAPC  C310 9609   2.598   3.630   3.464  0.6601  0.3999 -0.4355
   97SAPC  H10X 9610   2.494   3.591   3.457  0.9223 -0.2647 -0.7053
   97SAPC  H10Y 9611   2.590   3.741   3.456 -0.4964  0.3266 -0.5278
   97SAPC  C311 9612   2.663   3.599   3.598 -0.3473  0.4649  0.0085
   97SAPC  H11X 9613   2.769   3.634   3.596  0.4078 -1.5263  1.5995
   97SAPC  H11Y 9614   2.667   3.488   3.604 -1.9432  0.4396  1.5114
   97SAPC  C312 9615   2.582   3.659   3.718  0.2417  0.8660  0.2842
   97SAPC  H12X 9616   2.475   3.628   3.718 -0.0910  1.9481  1.1491
   97SAPC  H12Y 9617   2.594   3.769   3.709 -1.4128  1.0176 -0.4120
   97SAPC  C313 9618   2.646   3.621   3.851  0.3545 -0.5038  0.1324
   97SAPC  H13X 9619   2.749   3.661   3.862 -0.2974  1.1042  0.6726
   97SAPC  H13Y 9620   2.647   3.510   3.851 -0.8963 -0.5359  0.6684
   97SAPC  C314 9621   2.569   3.665   3.974  0.4960 -0.0844  0.7067
   97SAPC  H14X 9622   2.477   3.603   3.964  0.6478 -0.3024  0.6549
   97SAPC  H14Y 9623   2.546   3.773   3.966  0.7879 -0.0410  0.4164
   97SAPC  C315 9624   2.633   3.632   4.110 -0.5439  0.1694 -0.2523
   97SAPC  H15X 9625   2.742   3.653   4.100 -0.0183 -1.5326  1.3553
   97SAPC  H15Y 9626   2.618   3.524   4.130 -0.0095 -0.0525 -0.9686
   97SAPC  C316 9627   2.575   3.730   4.216 -0.8504  0.3347 -0.3999
   97SAPC  H16X 9628   2.593   3.700   4.321 -2.2190 -0.8612 -0.4826
   97SAPC  H16Y 9629   2.466   3.735   4.197 -0.6170 -0.0740 -2.0310
   97SAPC  C317 9630   2.634   3.871   4.208 -0.2579 -0.4737 -0.4414
   97SAPC  H17X 9631   2.613   3.928   4.115 -1.0565  1.6208  0.9405
   97SAPC  H17Y 9632   2.744   3.859   4.218 -0.4539 -0.5497  2.8060
   97SAPC  C318 9633   2.594   3.961   4.326 -0.0156 -0.4058  0.6563
   97SAPC  H18X 9634   2.603   3.912   4.425 -2.2616 -0.9845  0.6443
   97SAPC  H18Y 9635   2.489   3.992   4.306  0.7723  0.9635 -1.8368
   97SAPC  H18Z 9636   2.652   4.056   4.328 -2.1272  1.2044 -2.8703
   98SAPC     N 9637   6.477   2.670   1.943  0.7918  0.4659 -0.3316
   98SAPC   C12 9638   6.401   2.657   2.074 -0.2959  0.1959 -0.6205
   98SAPC  H12A 9639   6.341   2.567   2.067 -0.1034  0.1734 -2.4275
   98SAPC  H12B 9640   6.327   2.733   2.094 -0.6495 -0.5545  1.0891
   98SAPC   C13 9641   6.372   2.696   1.837 -0.1918 -0.3386  0.4474
   98SAPC  H13A 9642   6.426   2.687   1.744 -2.3223  1.7029 -1.1159
   98SAPC  H13B 9643   6.306   2.611   1.847  0.3495 -0.7600  0.4964
   98SAPC  H13C 9644   6.329   2.795   1.829 -1.7336 -1.0487 -0.4864
   98SAPC   C14 9645   6.564   2.796   1.942 -0.3761 -1.1637  0.1381
   98SAPC  H14A 9646   6.616   2.812   1.848  0.6087  0.8675  0.9686
   98SAPC  H14B 9647   6.506   2.883   1.968  0.2261 -0.5769 -0.4688
   98SAPC  H14C 9648   6.635   2.791   2.023 -1.0878 -0.3189  0.8306
   98SAPC   C15 9649   6.554   2.549   1.903 -0.3747 -0.0711  0.5415
   98SAPC  H15A 9650   6.612   2.527   1.992 -1.0976 -0.7878  0.8492
   98SAPC  H15B 9651   6.489   2.464   1.886  0.6323 -0.6309 -0.6509
   98SAPC  H15C 9652   6.615   2.557   1.815  0.7725 -1.1731  1.1948
   98SAPC   C11 9653   6.480   2.638   2.205 -0.6667  0.5471  0.2976
   98SAPC  H11A 9654   6.408   2.651   2.288  0.5483  0.8681  1.3256
   98SAPC  H11B 9655   6.557   2.719   2.207 -1.8763  1.8044 -1.0476
   98SAPC     P 9656   6.482   2.373   2.256 -0.0920  0.1104  0.0976
   98SAPC   O13 9657   6.426   2.299   2.145 -0.4804 -0.1076 -0.1177
   98SAPC   O14 9658   6.567   2.293   2.346  0.5789 -0.2736  0.3547
   98SAPC   O12 9659   6.554   2.509   2.200  0.4535  0.2180  0.1959
   98SAPC   O11 9660   6.359   2.433   2.333  0.2197 -0.0201  0.0484
   98SAPC    C1 9661   6.346   2.404   2.478 -0.0102  0.0889 -0.3879
   98SAPC    HA 9662   6.239   2.415   2.506 -0.0839 -1.7221  0.1651
   98SAPC    HB 9663   6.367   2.299   2.506  0.0819  0.7224  2.2150
   98SAPC    C2 9664   6.422   2.496   2.586  0.5785  0.4100 -0.0120
   98SAPC    HS 9665   6.382   2.599   2.581  0.6518  0.4290 -0.1985
   98SAPC   O21 9666   6.556   2.509   2.542  0.4108 -0.5954  0.0650
   98SAPC   C21 9667   6.634   2.600   2.596  0.3053 -0.3557  0.8178
   98SAPC   O22 9668   6.608   2.682   2.683 -0.2429  0.2370  0.1099
   98SAPC   C22 9669   6.769   2.589   2.525 -0.1235 -0.1633 -0.3160
   98SAPC   H2R 9670   6.772   2.507   2.450 -0.4174 -0.6040  0.1547
   98SAPC   H2S 9671   6.790   2.685   2.472  2.0215 -0.4212 -0.0499
   98SAPC    C3 9672   6.396   2.444   2.732  0.4395 -0.1925  0.6419
   98SAPC    HX 9673   6.439   2.342   2.737  1.0200  0.0685  1.2217
   98SAPC    HY 9674   6.286   2.443   2.742 -0.0468  1.7500 -2.8218
   98SAPC   O31 9675   6.463   2.530   2.834  0.0749  0.4632 -0.1180
   98SAPC   C31 9676   6.390   2.633   2.877 -0.1967  0.1473  0.0925
   98SAPC   O32 9677   6.273   2.653   2.846 -0.3398 -0.6304  0.2311
   98SAPC   C32 9678   6.481   2.717   2.973 -0.5975 -0.6282 -0.0964
   98SAPC   H2X 9679   6.561   2.758   2.908 -1.2659  0.1420 -0.4496
   98SAPC   H2Y 9680   6.510   2.645   3.053 -2.9499 -1.7356 -0.1650
   98SAPC   C23 9681   6.884   2.579   2.624  0.6002  0.2555 -0.2443
   98SAPC   H3R 9682   6.901   2.679   2.669 -0.9007  2.2898 -3.7649
   98SAPC   H3S 9683   6.973   2.560   2.560 -0.4857  1.2628 -2.1508
   98SAPC   C24 9684   6.872   2.478   2.745 -0.4428 -0.2420 -0.3427
   98SAPC   H4R 9685   6.844   2.379   2.701  0.6102 -0.9304  0.4769
   98SAPC   H4S 9686   6.789   2.508   2.812  0.6456 -0.5301  1.1792
   98SAPC   C25 9687   7.003   2.468   2.822  0.1700  0.4674 -0.2759
   98SAPC   H5R 9688   7.078   2.391   2.797  0.8081  0.2012  2.2335
   98SAPC   C26 9689   7.029   2.546   2.927 -0.3893 -0.8532  0.1994
   98SAPC   H6R 9690   7.132   2.538   2.965  0.8271  0.2704 -2.5782
   98SAPC   C27 9691   6.946   2.665   2.978 -0.3076  0.2254 -0.9041
   98SAPC   H7R 9692   6.864   2.621   3.039  0.0949  0.6714 -0.0275
   98SAPC   H7S 9693   6.901   2.727   2.897 -0.2880  1.7640  0.2190
   98SAPC   C28 9694   7.030   2.767   3.058 -0.9969 -0.4016 -0.3331
   98SAPC   H8R 9695   7.097   2.841   3.011  0.7122 -0.9297  1.1433
   98SAPC   C29 9696   7.036   2.769   3.194  0.7051 -0.0242  0.0941
   98SAPC   H9R 9697   7.101   2.838   3.250 -0.1419  0.2760  0.7356
   98SAPC  C210 9698   6.951   2.674   3.287 -0.6922  0.1648  0.5436
   98SAPC  H10R 9699   6.999   2.653   3.385  0.3832  2.8993  0.7137
   98SAPC  H10S 9700   6.946   2.572   3.244 -2.3583  0.8403 -0.9944
   98SAPC  C211 9701   6.820   2.732   3.313 -0.2595  0.6678  0.3734
   98SAPC  H11R 9702   6.785   2.814   3.248 -1.3219  1.4185  1.8269
   98SAPC  C212 9703   6.729   2.689   3.403 -0.0412  0.4533 -0.2163
   98SAPC  H12R 9704   6.645   2.759   3.413  0.9311  1.5212  0.7617
   98SAPC  C213 9705   6.748   2.581   3.508 -0.6628  0.1303 -0.1655
   98SAPC  H13R 9706   6.818   2.505   3.468 -0.9880 -0.4958  0.4287
   98SAPC  H13S 9707   6.650   2.530   3.523 -0.7941 -0.2838 -2.1740
   98SAPC  C214 9708   6.810   2.621   3.643 -0.0858  0.0028 -0.0906
   98SAPC  H14R 9709   6.906   2.673   3.635  0.4968 -0.9373  0.6357
   98SAPC  C215 9710   6.764   2.587   3.765 -0.3017  0.4911 -0.6074
   98SAPC  H15R 9711   6.812   2.627   3.856  0.2746 -1.1393 -0.1375
   98SAPC  C216 9712   6.643   2.502   3.805  0.4580 -0.9947  0.2408
   98SAPC  H16R 9713   6.567   2.484   3.726 -1.9341 -1.2889  2.4587
   98SAPC  H16S 9714   6.585   2.551   3.887 -1.3376 -1.0425 -0.9487
   98SAPC  C217 9715   6.683   2.363   3.860  0.6553  0.2601 -0.0151
   98SAPC  H17R 9716   6.737   2.314   3.776  1.1948 -0.6903  0.8557
   98SAPC  H17S 9717   6.589   2.304   3.876  0.1324  1.3420  1.0769
   98SAPC  C218 9718   6.764   2.373   3.982 -0.0829  0.1964 -0.0155
   98SAPC  H18R 9719   6.701   2.422   4.059 -1.8537  1.3236 -2.0752
   98SAPC  H18S 9720   6.844   2.448   3.961  0.9678 -0.6060  0.9996
   98SAPC  C219 9721   6.826   2.244   4.035 -0.4728  0.3353 -0.3878
   98SAPC  H19R 9722   6.917   2.263   4.096 -0.5958 -0.3764  0.0274
   98SAPC  H19S 9723   6.852   2.177   3.951  2.4666 -1.0842  1.4893
   98SAPC  C220 9724   6.736   2.169   4.136  0.1363 -0.8822  0.1119
   98SAPC  H20R 9725   6.649   2.138   4.075  0.2686  1.5047 -1.4022
   98SAPC  H20S 9726   6.707   2.247   4.209 -0.3992  0.4792 -1.5212
   98SAPC  H20T 9727   6.789   2.085   4.186  1.1052 -0.5835 -0.3730
   98SAPC   C33 9728   6.408   2.839   3.029 -0.5330 -0.3976  0.5395
   98SAPC   H3X 9729   6.350   2.881   2.944 -0.9216 -1.4099  0.2860
   98SAPC   H3Y 9730   6.481   2.915   3.065  1.1445 -1.2427 -0.9170
   98SAPC   C34 9731   6.314   2.817   3.148 -0.3972 -0.3178 -0.3637
   98SAPC   H4X 9732   6.224   2.768   3.104  0.8108 -1.2653 -1.9201
   98SAPC   H4Y 9733   6.280   2.910   3.197  1.3129 -0.2830  0.8084
   98SAPC   C35 9734   6.354   2.727   3.265 -0.4118  0.3374 -0.2097
   98SAPC   H5X 9735   6.451   2.764   3.304  0.3257  1.5146 -2.9138
   98SAPC   H5Y 9736   6.363   2.624   3.222 -1.9763 -0.4852  1.3097
   98SAPC   C36 9737   6.243   2.740   3.376 -0.1970  0.9147  0.7194
   98SAPC   H6X 9738   6.252   2.653   3.444 -2.9331 -0.3964 -0.4493
   98SAPC   H6Y 9739   6.142   2.738   3.329  0.3186  0.2223 -0.3935
   98SAPC   C37 9740   6.250   2.870   3.451  0.2620  0.7903 -0.6485
   98SAPC   H7X 9741   6.155   2.882   3.506 -1.3575  1.2709 -3.3768
   98SAPC   H7Y 9742   6.244   2.956   3.381 -0.2946  0.7323 -0.6769
   98SAPC   C38 9743   6.365   2.883   3.549 -0.0348  0.1454  0.8117
   98SAPC   H8X 9744   6.399   2.989   3.550 -0.8233  0.4524 -0.9355
   98SAPC   H8Y 9745   6.457   2.839   3.504  1.1758  0.7387  2.5807
   98SAPC   C39 9746   6.334   2.820   3.682 -0.0492 -0.1503  0.3578
   98SAPC   H9X 9747   6.292   2.721   3.655  0.6170  0.0384 -1.5989
   98SAPC   H9Y 9748   6.266   2.880   3.746 -0.4149  1.2992 -1.2933
   98SAPC  C310 9749   6.467   2.808   3.751  0.3582 -0.4849  0.6861
   98SAPC  H10X 9750   6.545   2.749   3.697  0.9587 -0.3489  1.3802
   98SAPC  H10Y 9751   6.441   2.763   3.849  1.2932  1.4567  1.8926
   98SAPC  C311 9752   6.546   2.933   3.775  0.2317  0.9700 -0.5140
   98SAPC  H11X 9753   6.476   3.017   3.794  2.4047  2.6740  0.3843
   98SAPC  H11Y 9754   6.617   2.972   3.700  0.5744  3.2495  0.8977
   98SAPC  C312 9755   6.608   2.915   3.913  0.5302  0.0190 -0.7388
   98SAPC  H12X 9756   6.681   2.831   3.917 -0.4143 -0.7686  1.2175
   98SAPC  H12Y 9757   6.531   2.896   3.991  2.1499 -0.5835  0.7775
   98SAPC  C313 9758   6.678   3.046   3.957  0.2095  1.1945  0.2159
   98SAPC  H13X 9759   6.608   3.132   3.960  0.2426  1.2031  0.7745
   98SAPC  H13Y 9760   6.756   3.063   3.880  0.0163 -0.6857 -0.4556
   98SAPC  C314 9761   6.753   3.032   4.091 -0.6040 -0.3757  0.7125
   98SAPC  H14X 9762   6.804   2.935   4.078  2.5582  1.3005 -0.4293
   98SAPC  H14Y 9763   6.680   3.028   4.174 -0.6272 -1.1023  0.6599
   98SAPC  C315 9764   6.863   3.139   4.123  0.5216  0.8251 -0.7006
   98SAPC  H15X 9765   6.877   3.139   4.233 -1.4344 -1.0199 -0.3745
   98SAPC  H15Y 9766   6.824   3.241   4.105 -0.5736  1.0437  2.3957
   98SAPC  C316 9767   6.996   3.114   4.045  0.2402 -0.4569  0.6160
   98SAPC  H16X 9768   6.970   3.144   3.941 -0.5008  0.2768  1.0089
   98SAPC  H16Y 9769   7.030   3.008   4.045  0.3057 -0.4680 -1.1560
   98SAPC  C317 9770   7.114   3.209   4.086  0.5667  0.2592  0.7386
   98SAPC  H17X 9771   7.128   3.216   4.196 -0.5748  0.5132  0.8799
   98SAPC  H17Y 9772   7.087   3.313   4.059  3.2159  0.4048 -2.0406
   98SAPC  C318 9773   7.242   3.173   4.009 -0.0535  0.2897 -0.1112
   98SAPC  H18X 9774   7.228   3.206   3.903  0.7358  1.4110  0.1181
   98SAPC  H18Y 9775   7.254   3.063   4.014  0.3547  0.1358 -2.7601
   98SAPC  H18Z 9776   7.328   3.228   4.053 -1.7360  3.0534 -0.0010
   99SAPC     N 9777   3.382   2.108   2.072 -0.0107 -0.0333 -0.5908
   99SAPC   C12 9778   3.415   2.009   1.964  0.0411 -0.1240 -0.0838
   99SAPC  H12A 9779   3.494   2.041   1.897 -1.1847  0.9567 -1.0500
   99SAPC  H12B 9780   3.337   2.000   1.890  0.9388 -1.8353 -0.8971
   99SAPC   C13 9781   3.346   2.239   2.007 -0.7123  0.9674  0.0052
   99SAPC  H13A 9782   3.321   2.313   2.082  0.4923  0.1318  1.2772
   99SAPC  H13B 9783   3.428   2.281   1.951  0.1848 -0.2372  0.3686
   99SAPC  H13C 9784   3.260   2.229   1.943 -1.7237  3.4501  0.8306
   99SAPC   C14 9785   3.265   2.054   2.157 -0.0330 -0.1031  0.7435
   99SAPC  H14A 9786   3.236   2.128   2.231  0.4021  0.0089  0.8037
   99SAPC  H14B 9787   3.181   2.037   2.092 -0.7104  0.7886  1.3638
   99SAPC  H14C 9788   3.300   1.964   2.206  1.4847  0.0448 -0.0260
   99SAPC   C15 9789   3.502   2.124   2.166 -0.2451 -0.0497  0.9113
   99SAPC  H15A 9790   3.570   2.181   2.106 -0.6042 -0.2931  0.2639
   99SAPC  H15B 9791   3.484   2.192   2.249 -0.2763  1.7933 -0.5508
   99SAPC  H15C 9792   3.538   2.025   2.190  0.5352 -0.7104 -2.5125
   99SAPC   C11 9793   3.464   1.869   2.023 -0.1551 -0.5257  0.0996
   99SAPC  H11A 9794   3.559   1.888   2.077  0.8555 -0.2404 -1.7160
   99SAPC  H11B 9795   3.494   1.810   1.934 -0.6842  1.8546 -1.7493
   99SAPC     P 9796   3.427   1.678   2.189 -0.4717 -0.3162  0.1249
   99SAPC   O13 9797   3.519   1.605   2.103 -0.5425 -0.2869 -0.1390
   99SAPC   O14 9798   3.481   1.745   2.304  0.6958 -0.3552  0.0230
   99SAPC   O12 9799   3.365   1.795   2.093 -0.2949  0.2788  0.1897
   99SAPC   O11 9800   3.307   1.590   2.241  0.0019  0.0385 -0.0298
   99SAPC    C1 9801   3.219   1.641   2.345 -0.3171 -0.6389 -0.2331
   99SAPC    HA 9802   3.225   1.750   2.366 -3.9237 -0.4055  0.1038
   99SAPC    HB 9803   3.119   1.637   2.297 -0.2791  2.6775 -0.7944
   99SAPC    C2 9804   3.237   1.561   2.477 -0.3653  0.2197  0.6267
   99SAPC    HS 9805   3.245   1.461   2.430  2.0634  0.3186  0.7031
   99SAPC   O21 9806   3.120   1.591   2.565 -0.0212 -0.3496 -0.0663
   99SAPC   C21 9807   3.007   1.540   2.519 -0.0354 -0.3938 -0.0148
   99SAPC   O22 9808   2.993   1.468   2.420 -0.5449 -0.5520  0.4086
   99SAPC   C22 9809   2.886   1.573   2.611  0.2920  0.2594  0.1957
   99SAPC   H2R 9810   2.871   1.682   2.622 -1.8159 -0.0519  0.9799
   99SAPC   H2S 9811   2.805   1.520   2.558  0.2139  2.3033 -1.8471
   99SAPC    C3 9812   3.375   1.594   2.553  0.2265 -0.1478 -0.7171
   99SAPC    HX 9813   3.366   1.704   2.569 -1.4790 -0.3183 -0.3156
   99SAPC    HY 9814   3.458   1.560   2.488  1.1452  1.9399 -0.7248
   99SAPC   O31 9815   3.384   1.544   2.692  0.4072  0.0345  0.1996
   99SAPC   C31 9816   3.350   1.418   2.703  0.1706 -0.1397  0.3542
   99SAPC   O32 9817   3.321   1.337   2.616  0.2301 -0.4733 -0.0467
   99SAPC   C32 9818   3.351   1.382   2.849 -0.1478 -0.1466  0.8117
   99SAPC   H2X 9819   3.413   1.461   2.897 -1.3434  1.7329 -0.5815
   99SAPC   H2Y 9820   3.410   1.288   2.848  1.1812  0.6588  1.1156
   99SAPC   C23 9821   2.905   1.501   2.747  0.2747 -0.4501  0.3272
   99SAPC   H3R 9822   2.975   1.566   2.805  0.0909  1.5307 -1.5390
   99SAPC   H3S 9823   2.959   1.405   2.736 -0.8837 -1.0045 -0.8398
   99SAPC   C24 9824   2.775   1.469   2.821 -0.5326  0.2082  0.1900
   99SAPC   H4R 9825   2.787   1.383   2.891 -1.2022  1.0371  1.3577
   99SAPC   H4S 9826   2.696   1.449   2.746 -0.7610  1.1655  0.1667
   99SAPC   C25 9827   2.709   1.586   2.896  0.3621 -0.1073 -0.4495
   99SAPC   H5R 9828   2.673   1.668   2.832  1.7579  0.0483 -1.0705
   99SAPC   C26 9829   2.693   1.584   3.023 -0.1656  0.2747  0.2008
   99SAPC   H6R 9830   2.659   1.674   3.076  1.0272  0.7613  0.1693
   99SAPC   C27 9831   2.725   1.469   3.111 -0.5118  0.6612  0.7498
   99SAPC   H7R 9832   2.743   1.515   3.211  0.5201  1.5548  0.1703
   99SAPC   H7S 9833   2.825   1.423   3.092  0.0145  1.0533  2.3502
   99SAPC   C28 9834   2.623   1.361   3.111  0.8311 -0.0120  0.4739
   99SAPC   H8R 9835   2.606   1.308   3.016  1.3673  2.2631 -0.9653
   99SAPC   C29 9836   2.572   1.304   3.223 -0.7697  0.3742 -1.0218
   99SAPC   H9R 9837   2.510   1.214   3.212  2.5933 -1.8920 -3.5860
   99SAPC  C210 9838   2.600   1.341   3.370 -0.8357  0.1815 -0.5271
   99SAPC  H10R 9839   2.635   1.447   3.375  0.8849 -0.2149 -2.7202
   99SAPC  H10S 9840   2.692   1.288   3.401 -1.0000 -0.0020 -0.3484
   99SAPC  C211 9841   2.482   1.324   3.464  0.0353  0.3540 -0.1363
   99SAPC  H11R 9842   2.386   1.343   3.413 -1.4989 -0.0998  2.3993
   99SAPC  C212 9843   2.475   1.292   3.592  0.4519  0.3758  0.3967
   99SAPC  H12R 9844   2.377   1.297   3.642  0.3803  1.8443  0.1416
   99SAPC  C213 9845   2.597   1.266   3.679 -0.7359  0.5897  0.3475
   99SAPC  H13R 9846   2.680   1.339   3.673 -0.6783  0.4349 -0.9488
   99SAPC  H13S 9847   2.629   1.162   3.657  0.0863  0.4446  2.0408
   99SAPC  C214 9848   2.543   1.268   3.814 -0.1543  0.1612 -0.1411
   99SAPC  H14R 9849   2.442   1.226   3.827  0.2128 -0.2826  1.5413
   99SAPC  C215 9850   2.600   1.315   3.926 -0.0585 -0.1542 -0.2470
   99SAPC  H15R 9851   2.536   1.291   4.013  0.4659 -0.3335  0.0949
   99SAPC  C216 9852   2.738   1.371   3.946  0.5646  0.9129  0.1512
   99SAPC  H16R 9853   2.798   1.342   3.858 -0.8659  0.9527 -0.8778
   99SAPC  H16S 9854   2.791   1.323   4.031 -0.8751  1.4844  1.4142
   99SAPC  C217 9855   2.744   1.528   3.950  0.0676 -0.4256 -0.3617
   99SAPC  H17R 9856   2.676   1.581   3.880  0.2695 -0.1386 -0.3438
   99SAPC  H17S 9857   2.849   1.549   3.920 -0.2420 -2.6142 -3.6000
   99SAPC  C218 9858   2.710   1.584   4.086  0.2347  0.2660 -0.1760
   99SAPC  H18R 9859   2.617   1.534   4.118  1.0224 -1.4588 -0.4788
   99SAPC  H18S 9860   2.686   1.692   4.082 -2.4196 -0.2648 -0.0614
   99SAPC  C219 9861   2.812   1.559   4.202  0.0992 -0.6098 -0.2906
   99SAPC  H19R 9862   2.883   1.641   4.180  0.4184 -1.6961 -4.0771
   99SAPC  H19S 9863   2.870   1.466   4.181 -0.0074 -0.8661  0.5118
   99SAPC  C220 9864   2.758   1.569   4.342 -0.3066 -0.1775  0.1305
   99SAPC  H20R 9865   2.843   1.572   4.414 -0.0251 -1.0871 -0.1464
   99SAPC  H20S 9866   2.692   1.484   4.371 -0.7200  0.1500  0.1575
   99SAPC  H20T 9867   2.697   1.661   4.351  2.0324  1.4651 -0.1975
   99SAPC   C33 9868   3.205   1.350   2.910  0.1574 -0.1255  0.0068
   99SAPC   H3X 9869   3.146   1.270   2.860  1.8674 -1.9926  0.8039
   99SAPC   H3Y 9870   3.155   1.448   2.920 -1.7907 -0.9037 -1.4515
   99SAPC   C34 9871   3.212   1.317   3.058 -1.4547  0.6207 -0.5996
   99SAPC   H4X 9872   3.277   1.395   3.104  0.5210 -2.2939  1.9942
   99SAPC   H4Y 9873   3.279   1.229   3.055 -0.2115  1.5592 -1.9357
   99SAPC   C35 9874   3.082   1.309   3.134  0.1750 -0.4078  0.7661
   99SAPC   H5X 9875   3.015   1.235   3.085  1.1885 -0.8540  0.0235
   99SAPC   H5Y 9876   3.028   1.407   3.134  1.5991  0.4035  0.1499
   99SAPC   C36 9877   3.116   1.271   3.278  0.2173 -0.1160  0.2687
   99SAPC   H6X 9878   3.209   1.323   3.310 -1.0474  1.0855  2.1489
   99SAPC   H6Y 9879   3.133   1.161   3.277 -0.1561 -0.1971  1.5087
   99SAPC   C37 9880   3.005   1.290   3.379 -0.2760  0.1073  0.5064
   99SAPC   H7X 9881   2.919   1.221   3.368  0.4964 -0.6391 -1.2794
   99SAPC   H7Y 9882   2.961   1.392   3.376 -1.7255 -0.5023 -0.1667
   99SAPC   C38 9883   3.066   1.270   3.515 -0.5673  0.3549  0.2433
   99SAPC   H8X 9884   3.002   1.331   3.583 -1.0292  0.2364 -0.0819
   99SAPC   H8Y 9885   3.160   1.329   3.517  0.7528 -1.5829 -0.9987
   99SAPC   C39 9886   3.085   1.128   3.568  0.4666  0.1043 -0.8393
   99SAPC   H9X 9887   3.145   1.069   3.495  0.7884 -0.5202 -0.0822
   99SAPC   H9Y 9888   2.981   1.091   3.571  0.3661  0.2592 -1.8914
   99SAPC  C310 9889   3.147   1.117   3.713  0.0305  0.2305  0.3094
   99SAPC  H10X 9890   3.240   1.177   3.710  0.0243  0.6621  3.9787
   99SAPC  H10Y 9891   3.170   1.010   3.732 -2.4325 -0.1386  1.7230
   99SAPC  C311 9892   3.062   1.157   3.836  0.6181 -0.8754  0.0505
   99SAPC  H11X 9893   2.975   1.088   3.833 -0.3422  0.3151 -2.5044
   99SAPC  H11Y 9894   3.037   1.265   3.827  1.8672 -0.6441 -1.1209
   99SAPC  C312 9895   3.132   1.129   3.965  0.3163  0.1884  0.1879
   99SAPC  H12X 9896   3.237   1.165   3.956  0.9213 -1.1123  1.5870
   99SAPC  H12Y 9897   3.151   1.021   3.981 -1.8035 -0.3726 -0.6714
   99SAPC  C313 9898   3.069   1.199   4.089 -0.5527  0.6169 -0.1475
   99SAPC  H13X 9899   3.035   1.295   4.046  0.8553  1.5057  0.6295
   99SAPC  H13Y 9900   3.153   1.240   4.150 -1.6165  1.3411  0.8701
   99SAPC  C314 9901   2.962   1.124   4.164 -0.2459 -0.1455 -0.6017
   99SAPC  H14X 9902   2.887   1.105   4.084  0.8678  0.7880 -1.9010
   99SAPC  H14Y 9903   2.926   1.195   4.242 -0.7636  1.8619 -2.5755
   99SAPC  C315 9904   3.009   0.991   4.223  0.3923  0.1241  1.3154
   99SAPC  H15X 9905   3.089   1.002   4.299  0.5538 -1.7740  1.4654
   99SAPC  H15Y 9906   3.043   0.918   4.146 -0.5327 -0.8729  1.8215
   99SAPC  C316 9907   2.900   0.925   4.304 -0.3629  0.5408 -0.1118
   99SAPC  H16X 9908   2.822   0.886   4.236  0.6821 -1.8253 -0.0577
   99SAPC  H16Y 9909   2.863   1.000   4.377 -0.6706  0.8646 -0.6004
   99SAPC  C317 9910   2.950   0.804   4.381 -0.1501  0.4840 -1.0123
   99SAPC  H17X 9911   2.879   0.787   4.465 -1.2715 -1.3014 -2.2459
   99SAPC  H17Y 9912   3.049   0.825   4.426 -2.2466  2.1102  3.4058
   99SAPC  C318 9913   2.951   0.675   4.306  0.2065  0.2508 -0.1975
   99SAPC  H18X 9914   2.970   0.589   4.374 -1.4355  0.7953  0.9993
   99SAPC  H18Y 9915   3.037   0.681   4.236  2.0084  0.7115  1.9305
   99SAPC  H18Z 9916   2.858   0.655   4.248  1.3879 -0.4975 -1.8973
  100SAPC     N 9917   1.344   3.763   1.976 -0.2663  0.2688 -0.7348
  100SAPC   C12 9918   1.315   3.881   2.065 -0.2271 -0.5976  0.1698
  100SAPC  H12A 9919   1.360   3.965   2.014 -1.5598 -0.6958 -1.2275
  100SAPC  H12B 9920   1.373   3.884   2.157 -0.6583  1.1833  0.4111
  100SAPC   C13 9921   1.272   3.770   1.847 -0.4808  0.0239  0.2649
  100SAPC  H13A 9922   1.296   3.686   1.784 -2.6852 -1.5482  1.3771
  100SAPC  H13B 9923   1.167   3.786   1.867 -0.3138  0.8558  0.5445
  100SAPC  H13C 9924   1.294   3.856   1.785 -1.0945  0.5967  0.8277
  100SAPC   C14 9925   1.490   3.756   1.952 -0.2580  0.1916 -0.0055
  100SAPC  H14A 9926   1.530   3.836   1.892  1.7416 -0.2777  0.6438
  100SAPC  H14B 9927   1.545   3.752   2.045  0.7527  2.8007 -0.4195
  100SAPC  H14C 9928   1.521   3.669   1.895  1.3602  1.2776 -0.8531
  100SAPC   C15 9929   1.304   3.632   2.035 -0.5427  0.1066  0.4800
  100SAPC  H15A 9930   1.335   3.556   1.965 -0.5669  2.6524 -2.5608
  100SAPC  H15B 9931   1.348   3.616   2.132 -1.6869  0.5321  1.1034
  100SAPC  H15C 9932   1.196   3.621   2.038 -0.3452 -1.8867  1.9833
  100SAPC   C11 9933   1.173   3.919   2.113  0.5008 -0.5845  0.3341
  100SAPC  H11A 9934   1.174   4.003   2.186 -0.0212 -1.2520  1.1325
  100SAPC  H11B 9935   1.140   3.823   2.158 -0.6771  0.3804  1.5923
  100SAPC     P 9936   0.945   3.932   1.977  0.2033 -0.2912 -0.0866
  100SAPC   O13 9937   0.894   4.010   1.863 -0.6942  0.6672  0.1835
  100SAPC   O14 9938   0.924   3.789   1.975 -0.1463  0.0844  0.1962
  100SAPC   O12 9939   1.093   3.973   2.006  0.2734 -0.4734  0.4758
  100SAPC   O11 9940   0.868   3.984   2.106  0.2834 -0.0339 -0.1238
  100SAPC    C1 9941   0.760   3.899   2.160 -0.1629 -0.3989 -0.7913
  100SAPC    HA 9942   0.661   3.923   2.115 -0.7720  0.2227  0.8094
  100SAPC    HB 9943   0.776   3.789   2.154 -3.3734 -1.1414  1.3921
  100SAPC    C2 9944   0.743   3.937   2.306  0.6450 -0.1163  0.1900
  100SAPC    HS 9945   0.654   3.879   2.338  0.8507 -0.8594 -0.5356
  100SAPC   O21 9946   0.723   4.079   2.322 -0.2465 -0.0458  0.8340
  100SAPC   C21 9947   0.617   4.128   2.288  0.3347 -0.0364  0.0817
  100SAPC   O22 9948   0.521   4.077   2.237 -0.2343  0.6583  0.2066
  100SAPC   C22 9949   0.626   4.273   2.317 -0.0605 -1.3112  0.0424
  100SAPC   H2R 9950   0.728   4.308   2.291  0.1128 -2.0030 -0.2379
  100SAPC   H2S 9951   0.567   4.339   2.250  1.0879 -1.2054 -0.9032
  100SAPC    C3 9952   0.862   3.902   2.395 -0.4102 -0.4254  0.2195
  100SAPC    HX 9953   0.944   3.977   2.384  0.5015 -1.4980 -0.5949
  100SAPC    HY 9954   0.894   3.804   2.352  0.0625  1.3067 -3.8657
  100SAPC   O31 9955   0.811   3.892   2.529  0.1082 -0.1477  0.5388
  100SAPC   C31 9956   0.910   3.877   2.614  0.4258 -0.5638 -0.9110
  100SAPC   O32 9957   1.026   3.863   2.581  0.3448 -0.6506  0.3311
  100SAPC   C32 9958   0.858   3.866   2.757  1.1807  0.2501  0.3688
  100SAPC   H2X 9959   0.802   3.771   2.772  1.1469 -0.2602 -2.3699
  100SAPC   H2Y 9960   0.780   3.944   2.770  0.3709 -0.2101 -1.4431
  100SAPC   C23 9961   0.582   4.322   2.464 -0.3046 -0.8784 -0.1547
  100SAPC   H3R 9962   0.475   4.298   2.484 -0.1154 -0.9278  0.8096
  100SAPC   H3S 9963   0.590   4.431   2.480 -0.1166 -1.2198  2.5165
  100SAPC   C24 9964   0.669   4.267   2.572  0.3013  0.5159  0.7653
  100SAPC   H4R 9965   0.763   4.326   2.574  1.0009 -0.5663  0.3244
  100SAPC   H4S 9966   0.697   4.161   2.555  1.8065  0.7454  1.6036
  100SAPC   C25 9967   0.605   4.285   2.709 -0.0406  0.2561 -0.5906
  100SAPC   H5R 9968   0.505   4.239   2.706 -0.4863  1.2436 -2.5406
  100SAPC   C26 9969   0.652   4.335   2.826 -0.3811  0.5448 -0.0069
  100SAPC   H6R 9970   0.587   4.356   2.912  0.4945  1.2671  0.4978
  100SAPC   C27 9971   0.794   4.396   2.831 -0.4316  0.0344  0.8233
  100SAPC   H7R 9972   0.809   4.474   2.908  1.9523  1.2251 -0.7310
  100SAPC   H7S 9973   0.823   4.456   2.742  0.5856 -2.3572 -0.5608
  100SAPC   C28 9974   0.899   4.288   2.841  0.2973  0.6647 -0.2759
  100SAPC   H8R 9975   0.893   4.217   2.758  0.7168 -0.0815  0.3125
  100SAPC   C29 9976   0.991   4.258   2.939  0.1882 -0.1197 -0.3771
  100SAPC   H9R 9977   1.048   4.163   2.934 -0.8445 -0.7942  0.3087
  100SAPC  C210 9978   1.024   4.345   3.061 -0.3510 -1.0688  0.1440
  100SAPC  H10R 9979   0.979   4.306   3.155 -1.4672  0.5695  0.3308
  100SAPC  H10S 9980   0.976   4.442   3.039  2.0396  0.1858  0.1747
  100SAPC  C211 9981   1.176   4.357   3.065 -0.5747 -0.4822 -0.5431
  100SAPC  H11R 9982   1.235   4.353   2.972  0.2084 -1.3201 -0.0187
  100SAPC  C212 9983   1.253   4.373   3.180  0.1072  0.6049 -0.2283
  100SAPC  H12R 9984   1.362   4.381   3.162  0.1922 -0.2509 -0.1773
  100SAPC  C213 9985   1.204   4.364   3.326 -0.3038 -0.6635 -0.3309
  100SAPC  H13R 9986   1.272   4.294   3.379 -0.7213 -2.6603 -2.2556
  100SAPC  H13S 9987   1.103   4.318   3.330 -0.4169 -0.3221  1.1929
  100SAPC  C214 9988   1.179   4.491   3.403 -0.3731  0.6240 -0.7462
  100SAPC  H14R 9989   1.197   4.586   3.351  2.0530  0.3953 -0.4698
  100SAPC  C215 9990   1.140   4.488   3.529  0.6550  0.3039  0.4239
  100SAPC  H15R 9991   1.123   4.584   3.582  4.3066  2.9824 -2.7364
  100SAPC  C216 9992   1.102   4.361   3.601 -1.2348 -1.0133 -0.1336
  100SAPC  H16R 9993   1.135   4.380   3.706 -0.3141  1.8038 -0.8428
  100SAPC  H16S 9994   1.158   4.273   3.564 -0.6006 -0.1213 -1.3475
  100SAPC  C217 9995   0.947   4.327   3.595  0.4372  0.1711  0.7559
  100SAPC  H17R 9996   0.922   4.224   3.628 -3.0311  1.5499  2.9612
  100SAPC  H17S 9997   0.917   4.325   3.488 -0.5323 -2.5477  1.0236
  100SAPC  C218 9998   0.856   4.426   3.674  0.2796  0.2935 -0.1711
  100SAPC  H18R 9999   0.906   4.526   3.673  3.2562 -1.0700 -0.6653
  100SAPC  H18S10000   0.860   4.391   3.779 -0.7609  0.7619  0.0362
  100SAPC  C21910001   0.711   4.427   3.626 -0.4100  0.6018  0.1535
  100SAPC  H19R10002   0.663   4.327   3.621 -2.6130  1.6594 -1.1742
  100SAPC  H19S10003   0.713   4.465   3.521 -2.0093 -0.6600 -0.3773
  100SAPC  C22010004   0.615   4.509   3.707 -0.4496 -0.8389 -0.7020
  100SAPC  H20R10005   0.511   4.522   3.672 -0.1199 -0.1908 -1.4857
  100SAPC  H20S10006   0.657   4.612   3.709 -1.0620 -0.5801  1.5468
  100SAPC  H20T10007   0.611   4.488   3.816 -0.6356 -0.0975 -0.5594
  100SAPC   C3310008   0.972   3.881   2.865  0.3795 -0.4214  0.0736
  100SAPC   H3X10009   1.026   3.976   2.845  2.1751 -1.8271 -2.1992
  100SAPC   H3Y10010   1.042   3.796   2.864 -0.7282 -1.3686  0.2408
  100SAPC   C3410011   0.924   3.878   3.009  0.3171 -0.1940 -0.0627
  100SAPC   H4X10012   0.879   3.781   3.042  1.2632 -0.2971  0.9853
  100SAPC   H4Y10013   0.852   3.961   3.024  1.2844  0.7070 -0.3773
  100SAPC   C3510014   1.043   3.908   3.103 -0.3340 -0.1659 -0.3527
  100SAPC   H5X10015   1.092   3.993   3.052 -0.4004 -1.1495 -2.1192
  100SAPC   H5Y10016   1.119   3.827   3.104 -0.5737 -0.4663 -2.4434
  100SAPC   C3610017   1.008   3.970   3.242 -0.3248  0.3074 -0.1011
  100SAPC   H6X10018   0.934   4.051   3.227 -0.4873 -0.0329 -1.3181
  100SAPC   H6Y10019   1.093   4.022   3.291  0.4275 -1.9299  1.1238
  100SAPC   C3710020   0.961   3.866   3.340  0.0695  0.1941 -0.7051
  100SAPC   H7X10021   1.030   3.780   3.352 -1.0068 -1.0891 -3.0020
  100SAPC   H7Y10022   0.870   3.813   3.306  1.1156 -1.4678 -1.0589
  100SAPC   C3810023   0.934   3.923   3.481  0.3735 -0.5955  0.1136
  100SAPC   H8X10024   0.856   4.002   3.476 -0.5235 -1.3247  1.9145
  100SAPC   H8Y10025   1.032   3.963   3.514 -0.5397  1.1546  0.8085
  100SAPC   C3910026   0.869   3.822   3.573  0.8978 -0.4633 -0.6166
  100SAPC   H9X10027   0.768   3.787   3.541  0.1960  0.0734  0.9081
  100SAPC   H9Y10028   0.839   3.883   3.660  1.4897 -0.8339 -0.1414
  100SAPC  C31010029   0.964   3.716   3.619 -0.4053  1.1059 -0.9749
  100SAPC  H10X10030   1.070   3.750   3.610  1.1198 -2.0648  2.3269
  100SAPC  H10Y10031   0.961   3.629   3.550  1.2171 -1.9137  2.4223
  100SAPC  C31110032   0.925   3.669   3.765  0.8000 -0.4809  0.3241
  100SAPC  H11X10033   0.882   3.567   3.761  0.7945 -0.4876  0.5335
  100SAPC  H11Y10034   0.843   3.737   3.797  0.6391 -1.0278  1.1327
  100SAPC  C31210035   1.031   3.683   3.864 -0.1727 -0.4951 -0.1477
  100SAPC  H12X10036   1.043   3.792   3.881  0.0387 -0.5736  0.2281
  100SAPC  H12Y10037   1.124   3.643   3.817 -0.1384  0.9304 -1.3480
  100SAPC  C31310038   1.006   3.611   3.988 -0.2034  0.5271 -0.0136
  100SAPC  H13X10039   1.013   3.502   3.965  0.2926  0.5540 -0.0093
  100SAPC  H13Y10040   0.900   3.623   4.020 -1.2030 -2.1244 -1.9091
  100SAPC  C31410041   1.108   3.645   4.093 -0.0548  0.7053 -0.2813
  100SAPC  H14X10042   1.209   3.645   4.046  0.8264  0.0458  1.4815
  100SAPC  H14Y10043   1.109   3.561   4.166 -1.8706  1.3678  0.5715
  100SAPC  C31510044   1.068   3.774   4.159  0.2769 -0.1679  0.4133
  100SAPC  H15X10045   0.961   3.774   4.192 -0.0159  0.0155 -0.5183
  100SAPC  H15Y10046   1.064   3.855   4.083  0.1038 -0.2178  0.3673
  100SAPC  C31610047   1.154   3.816   4.280 -0.7670 -0.2367 -0.4375
  100SAPC  H16X10048   1.264   3.818   4.265 -0.6119 -1.4994  0.3535
  100SAPC  H16Y10049   1.154   3.737   4.358 -1.0767 -0.6638 -0.8607
  100SAPC  C31710050   1.113   3.946   4.348  0.8247  0.0691 -0.3681
  100SAPC  H17X10051   1.007   3.938   4.380  1.4687  0.5427  2.1440
  100SAPC  H17Y10052   1.116   4.021   4.267 -0.7062 -0.0612 -0.5599
  100SAPC  C31810053   1.197   3.981   4.469  0.1026  0.7689 -0.2202
  100SAPC  H18X10054   1.220   3.882   4.514  2.0750 -0.1150 -2.9231
  100SAPC  H18Y10055   1.139   4.041   4.542 -0.8990  0.0578 -0.4050
  100SAPC  H18Z10056   1.292   4.032   4.441  0.2656  0.0328 -1.0801
  101OSM      N10057   5.933   3.548   6.616 -0.2079  0.1243  0.3559
  101OSM    C1510058   6.000   3.579   6.750  0.4801 -0.6058 -0.3778
  101OSM   H15A10059   5.993   3.685   6.766 -1.7522 -0.8728  0.9669
  101OSM   H15B10060   6.102   3.543   6.749  0.1198 -1.8297 -3.1969
  101OSM   H15C10061   5.940   3.548   6.835 -2.3736  2.1612 -1.1841
  101OSM    C1410062   5.792   3.603   6.608 -0.4959 -0.7330 -0.4092
  101OSM   H14A10063   5.794   3.710   6.624 -0.0913 -0.7788 -0.1253
  101OSM   H14B10064   5.735   3.575   6.695  0.0325  0.5199  0.3776
  101OSM   H14C10065   5.737   3.580   6.518 -1.4991  1.9573 -0.5763
  101OSM    C1310066   6.014   3.617   6.514  0.8601 -0.0603  0.6955
  101OSM   H13A10067   6.007   3.723   6.533  2.9001  0.3204 -0.3863
  101OSM   H13B10068   5.979   3.589   6.415 -0.5061  1.9508  0.5568
  101OSM   H13C10069   6.119   3.594   6.529  0.6997 -0.5844  1.0551
  101OSM    C1210070   5.923   3.397   6.602 -0.3625 -0.4893 -0.3585
  101OSM   H12A10071   6.023   3.357   6.590 -0.2324  0.2303 -2.0528
  101OSM   H12B10072   5.883   3.376   6.504 -1.0759  0.2609 -0.2415
  101OSM    C1110073   5.848   3.326   6.711 -0.3518 -0.4360 -0.1692
  101OSM   H11A10074   5.901   3.328   6.808  2.6575  0.2491 -1.7274
  101OSM   H11B10075   5.856   3.217   6.688  0.5803 -0.8561  1.9717
  101OSM      P10076   5.591   3.285   6.674 -0.3634  0.4221 -0.1051
  101OSM    O1310077   5.590   3.148   6.732 -0.1434  0.7811 -0.6735
  101OSM    O1410078   5.462   3.359   6.674  0.0024  0.1878  0.1534
  101OSM    O1110079   5.628   3.279   6.524 -0.5617 -0.0813  0.3831
  101OSM    O1210080   5.713   3.374   6.731  0.6091 -0.0555  0.0216
  101OSM    C1S10081   5.670   3.171   6.448 -0.5710 -0.0725 -0.0998
  101OSM    H1S10082   5.602   3.083   6.448  0.4543 -1.0091 -3.0380
  101OSM    H1T10083   5.771   3.147   6.488 -0.6067  1.6082  1.0680
  101OSM     NF10084   5.749   3.085   6.233 -1.0206  0.3193  0.3875
  101OSM    HNF10085   5.848   3.079   6.229 -1.1298 -1.4457 -1.3084
  101OSM    C2S10086   5.701   3.206   6.301 -0.3760  0.1618  0.2197
  101OSM    H2S10087   5.607   3.238   6.251  0.9830  2.8130 -0.8423
  101OSM    C3S10088   5.796   3.330   6.283  0.5139  1.0145  0.4636
  101OSM    H3S10089   5.894   3.299   6.323  1.5366  2.3180 -0.9235
  101OSM     O310090   5.768   3.452   6.351 -0.9827 -0.2755 -0.1854
  101OSM    HO310091   5.698   3.425   6.411  0.4900 -1.9044  0.8761
  101OSM    C4S10092   5.832   3.350   6.132  0.1640  0.2062 -0.1959
  101OSM    H4S10093   5.916   3.288   6.098  0.2559 -0.0869  0.5434
  101OSM    C5S10094   5.785   3.442   6.055 -0.4944  0.0681  0.1021
  101OSM    H5S10095   5.715   3.517   6.095  1.2658  1.7113  0.2489
  101OSM    C6S10096   5.837   3.462   5.916  0.2248 -0.7267 -0.0597
  101OSM    H6S10097   5.894   3.557   5.908 -0.8012 -0.0040  0.9368
  101OSM    H6T10098   5.755   3.478   5.843 -2.5375  2.5535  3.3565
  101OSM    C7S10099   5.933   3.359   5.849  0.2811  0.2370  0.3164
  101OSM    H7S10100   5.906   3.251   5.852  2.2277 -0.3045 -0.0587
  101OSM    H7T10101   6.020   3.364   5.918 -0.4425 -1.6187  1.4222
  101OSM    C8S10102   5.965   3.386   5.708  0.5038  0.8749 -0.7153
  101OSM    H8S10103   5.871   3.390   5.650 -1.1066 -1.3791  1.5482
  101OSM    H8T10104   6.028   3.300   5.676  1.0343  1.4527 -1.2646
  101OSM    C9S10105   6.064   3.499   5.669 -0.1510  0.4869 -0.9376
  101OSM    H9S10106   6.157   3.473   5.723 -0.4038  0.4251 -0.5240
  101OSM    H9T10107   6.029   3.593   5.717  2.0488  0.9322 -0.1039
  101OSM   C10S10108   6.082   3.518   5.514 -0.5733  0.0234 -0.1783
  101OSM   H10S10109   6.101   3.627   5.502  0.2807  0.3276  2.8714
  101OSM   H10T10110   5.985   3.494   5.465 -2.0358  0.0743  2.4802
  101OSM   C11S10111   6.193   3.443   5.446 -0.1565  0.1867 -0.4947
  101OSM   H11S10112   6.167   3.335   5.445 -2.4782  0.6434  1.0578
  101OSM   H11T10113   6.281   3.447   5.514  0.2636 -0.4007 -0.9930
  101OSM   C12S10114   6.228   3.499   5.308  0.6780 -0.1971 -0.6054
  101OSM   H12S10115   6.243   3.607   5.328  0.5747 -0.2225 -0.3967
  101OSM   H12T10116   6.139   3.490   5.242  0.0878 -2.7399  0.4137
  101OSM   C13S10117   6.348   3.424   5.248 -0.8653  0.1033  0.4716
  101OSM   H13S10118   6.323   3.318   5.270 -1.2081 -0.2681 -1.4724
  101OSM   H13T10119   6.445   3.443   5.297  0.1298 -1.0681 -0.9450
  101OSM   C14S10120   6.367   3.445   5.101 -0.2138  0.8111 -0.2148
  101OSM   H14S10121   6.280   3.401   5.046 -0.4588  2.2835 -1.0392
  101OSM   H14T10122   6.458   3.390   5.069 -0.8265 -0.3492 -0.0520
  101OSM   C15S10123   6.385   3.588   5.045 -0.8427  0.1704  0.0332
  101OSM   H15S10124   6.462   3.646   5.101 -1.3776 -0.0349  1.0076
  101OSM   H15T10125   6.288   3.639   5.060 -0.4485  0.5108  1.6560
  101OSM   C16S10126   6.410   3.585   4.899  0.6179  0.3116  0.6385
  101OSM   H16S10127   6.380   3.676   4.842  0.4988  0.6671  1.2622
  101OSM   H16T10128   6.338   3.509   4.862  1.7657  0.0414 -1.1376
  101OSM   C17S10129   6.548   3.550   4.864  1.0980  0.1044 -0.1073
  101OSM   H17S10130   6.590   3.463   4.918  0.3088  0.2037  0.6840
  101OSM   H17T10131   6.598   3.643   4.899  0.7387  0.3370 -0.2112
  101OSM   C18S10132   6.572   3.522   4.724  0.0377 -0.1206 -0.1976
  101OSM   H18S10133   6.668   3.466   4.718  1.0004  1.0212  2.5313
  101OSM   H18T10134   6.588   3.620   4.675  1.7620 -0.3341 -0.1033
  101OSM   H18U10135   6.487   3.471   4.674  0.2435 -0.2357 -0.4290
  101OSM    C1F10136   5.670   2.982   6.198 -0.1361 -0.6896  0.3462
  101OSM     OF10137   5.550   2.991   6.225 -0.1290 -0.5834 -0.0280
  101OSM    C2F10138   5.722   2.861   6.134 -0.2332 -0.3254 -0.2913
  101OSM    H2F10139   5.697   2.763   6.181  1.0837 -0.6549 -0.2291
  101OSM    H2G10140   5.832   2.877   6.139 -0.5622  1.9743  1.2243
  101OSM    C3F10141   5.669   2.847   5.985  0.8107 -0.1202 -0.2149
  101OSM    H3F10142   5.559   2.861   5.977  0.7827 -0.1933  0.0376
  101OSM    H3G10143   5.692   2.746   5.945 -1.7465 -0.2777 -1.4638
  101OSM    C4F10144   5.742   2.954   5.898  0.0219 -0.0133  0.0613
  101OSM    H4F10145   5.853   2.945   5.909  0.0766  0.7859  0.2420
  101OSM    H4G10146   5.708   3.056   5.926  0.7228 -0.1252  1.3974
  101OSM    C5F10147   5.718   2.933   5.750 -0.3005  0.5109 -0.0375
  101OSM    H5F10148   5.617   2.963   5.716 -0.6652  0.0241  0.6010
  101OSM    H5G10149   5.714   2.824   5.726  1.9504 -0.2409  2.5499
  101OSM    C6F10150   5.832   2.986   5.651  0.5774  0.2560 -0.2294
  101OSM    H6F10151   5.904   2.902   5.640  0.1681 -0.0843 -0.3168
  101OSM    H6G10152   5.882   3.071   5.703  0.7811  0.0345 -0.0673
  101OSM    C7F10153   5.776   3.027   5.519  0.3001  0.2418  0.8206
  101OSM    H7F10154   5.707   3.115   5.514 -0.3560 -0.2904  0.2979
  101OSM    H7G10155   5.713   2.948   5.473  0.7802  2.3893 -4.1271
  101OSM    C8F10156   5.888   3.051   5.410  0.0761  0.2593  0.2163
  101OSM    H8F10157   5.944   2.954   5.410  0.0375  0.2365 -0.5177
  101OSM    H8G10158   5.958   3.126   5.452  1.4542 -2.1048  2.5039
  101OSM    C9F10159   5.816   3.085   5.278  0.2392  0.0049 -0.3613
  101OSM    H9F10160   5.756   3.006   5.232  0.7052 -0.1603 -0.6839
  101OSM   C10F10161   5.833   3.193   5.199 -0.2951  0.2547  0.2642
  101OSM   H10F10162   5.779   3.210   5.105  0.3121  1.1348  0.0567
  101OSM   C11F10163   5.933   3.303   5.223  0.2491 -0.0970  0.1056
  101OSM   H11F10164   6.020   3.302   5.155 -0.9023 -2.4020 -1.4257
  101OSM   H11G10165   5.976   3.296   5.326  1.5957  3.2488 -0.0974
  101OSM   C12F10166   5.877   3.447   5.224  1.0494  0.2700 -0.1848
  101OSM   H12F10167   5.938   3.521   5.280 -2.2231  1.4725  2.0999
  101OSM   H12G10168   5.780   3.450   5.279  1.5910 -0.0377  0.8109
  101OSM   C13F10169   5.847   3.516   5.093 -0.7967  0.1599  0.1530
  101OSM   H13F10170   5.792   3.611   5.112 -0.9770 -0.0348  0.6361
  101OSM   H13G10171   5.775   3.446   5.045  1.5318 -2.2733  0.0391
  101OSM   C14F10172   5.965   3.523   4.995  0.0792  0.7311 -0.3350
  101OSM   H14F10173   6.011   3.422   4.991 -1.0335  0.1214  1.5365
  101OSM   H14G10174   6.040   3.594   5.036  0.6759 -0.7659  1.2785
  101OSM   C15F10175   5.923   3.571   4.853 -0.9577  0.4723  0.1221
  101OSM   H15F10176   5.894   3.678   4.860  0.7902  0.9540  0.7013
  101OSM   H15G10177   5.834   3.516   4.816  1.1493 -2.3679 -1.1128
  101OSM   C16F10178   6.030   3.559   4.745 -0.7814  0.3527  0.7458
  101OSM   H16F10179   6.018   3.453   4.713  1.3889 -0.2274  1.6624
  101OSM   H16G10180   6.131   3.585   4.783 -0.6477 -0.9310  1.3409
  101OSM   C17F10181   6.008   3.650   4.632  0.0511 -0.5352  0.6814
  101OSM   H17F10182   6.103   3.657   4.575 -1.1462 -1.6288 -1.6066
  101OSM   H17G10183   5.979   3.751   4.669 -0.3842 -0.9037  1.3541
  101OSM   C18F10184   5.890   3.613   4.542  1.0370  0.1175  0.1409
  101OSM   H18F10185   5.883   3.684   4.457  0.8001  1.5257  1.2862
  101OSM   H18G10186   5.803   3.622   4.610  0.7289  0.1563 -0.2603
  101OSM   H18H10187   5.912   3.508   4.514 -0.8095  0.1256 -1.4915
  102OSM      N10188   5.388   1.392   6.349  0.1882  0.1905 -0.5479
  102OSM    C1510189   5.458   1.512   6.298 -0.6897 -0.7207 -0.0069
  102OSM   H15A10190   5.544   1.543   6.355  0.6887 -3.1728 -0.6151
  102OSM   H15B10191   5.391   1.596   6.297  1.0730  0.7495  0.1922
  102OSM   H15C10192   5.498   1.502   6.198  0.4493  0.8460  0.2465
  102OSM    C1410193   5.499   1.289   6.373  1.0693 -0.1146 -0.3055
  102OSM   H14A10194   5.581   1.329   6.432  1.7536 -1.1815 -0.5010
  102OSM   H14B10195   5.534   1.248   6.280  0.2504 -0.6188 -0.3999
  102OSM   H14C10196   5.446   1.213   6.427 -0.7101  0.7528 -0.7642
  102OSM    C1310197   5.335   1.421   6.483  0.2329  0.4380 -0.1130
  102OSM   H13A10198   5.277   1.340   6.524  0.7505  0.1082 -0.0241
  102OSM   H13B10199   5.286   1.517   6.470 -2.5052 -0.8932 -0.2302
  102OSM   H13C10200   5.424   1.426   6.545  0.4688  1.4301 -0.5127
  102OSM    C1210201   5.276   1.330   6.259 -0.1957 -0.4499  0.2213
  102OSM   H12A10202   5.301   1.350   6.155 -0.0764 -0.9566  0.1521
  102OSM   H12B10203   5.177   1.373   6.271 -0.6521 -1.1879 -0.7283
  102OSM    C1110204   5.251   1.181   6.273 -0.6206 -0.9070  0.1864
  102OSM   H11A10205   5.352   1.135   6.273  0.5721  1.5281  1.3646
  102OSM   H11B10206   5.203   1.137   6.183  0.2907 -0.6557 -0.4305
  102OSM      P10207   5.035   1.176   6.412  0.1510  0.3194  0.0242
  102OSM    O1310208   4.982   1.122   6.537 -0.7384  0.0186  0.1468
  102OSM    O1410209   5.010   1.320   6.380  0.1369  1.3673  0.5178
  102OSM    O1110210   4.967   1.085   6.304  0.3169 -0.2486  0.0293
  102OSM    O1210211   5.192   1.140   6.399 -0.3192  0.2354 -0.1026
  102OSM    C1S10212   5.011   0.947   6.292  0.1228 -0.4511 -0.3150
  102OSM    H1S10213   5.003   0.890   6.386  1.2218  1.1921  0.8356
  102OSM    H1T10214   5.113   0.934   6.249 -1.1580 -2.2891 -3.0841
  102OSM     NF10215   4.930   0.751   6.160  0.8402  0.3857  0.0754
  102OSM    HNF10216   4.979   0.716   6.081  0.0277 -1.6300  0.4044
  102OSM    C2S10217   4.906   0.889   6.183 -0.1231 -0.4299 -0.4374
  102OSM    H2S10218   4.803   0.911   6.219 -0.6276  1.0191 -2.5713
  102OSM    C3S10219   4.931   0.965   6.046 -0.2453 -0.2527 -0.3364
  102OSM    H3S10220   5.037   0.981   6.019  0.1932  1.0886  1.8780
  102OSM     O310221   4.886   1.099   6.055  0.4881 -0.5853  0.1400
  102OSM    HO310222   4.876   1.117   6.148  2.7025 -3.1879  0.9942
  102OSM    C4S10223   4.845   0.904   5.931  0.3664 -0.0679 -0.1803
  102OSM    H4S10224   4.738   0.901   5.954  0.6746  0.4877  1.5099
  102OSM    C5S10225   4.897   0.856   5.816 -0.3716  1.0768  0.6391
  102OSM    H5S10226   4.998   0.886   5.783  0.0178  0.9282  1.6494
  102OSM    C6S10227   4.811   0.795   5.708 -0.3173 -0.3486  0.3260
  102OSM    H6S10228   4.711   0.761   5.740 -0.1266 -0.3990  0.8902
  102OSM    H6T10229   4.872   0.710   5.670 -0.7368  0.2319 -1.7686
  102OSM    C7S10230   4.792   0.876   5.579  0.4227  0.1736 -0.9699
  102OSM    H7S10231   4.888   0.905   5.531  1.4952  3.2067  2.5293
  102OSM    H7T10232   4.748   0.978   5.586 -0.9764 -0.3856 -1.2463
  102OSM    C8S10233   4.704   0.795   5.476  0.3824 -0.7091 -0.6058
  102OSM    H8S10234   4.605   0.766   5.519  0.4299  0.5099  0.3632
  102OSM    H8T10235   4.760   0.703   5.449  0.1657 -0.7832 -0.8091
  102OSM    C9S10236   4.682   0.876   5.342  0.0332 -0.4755  0.2619
  102OSM    H9S10237   4.787   0.884   5.305 -0.6698 -2.0246 -2.3391
  102OSM    H9T10238   4.621   0.969   5.346  0.8161  0.0970 -0.5011
  102OSM   C10S10239   4.606   0.797   5.233 -0.3911 -0.4285  0.1340
  102OSM   H10S10240   4.499   0.782   5.257 -0.7440 -1.4930 -1.8419
  102OSM   H10T10241   4.644   0.692   5.236  3.7070  0.8104 -1.0383
  102OSM   C11S10242   4.634   0.851   5.086 -0.3041  0.8164 -0.3414
  102OSM   H11S10243   4.742   0.840   5.062 -0.5397 -2.0493 -0.4274
  102OSM   H11T10244   4.622   0.962   5.081  2.4702  1.4175  2.6010
  102OSM   C12S10245   4.557   0.772   4.986  0.1088 -0.1000 -0.4881
  102OSM   H12S10246   4.466   0.733   5.036  0.3704  1.5653  1.4306
  102OSM   H12T10247   4.617   0.683   4.960 -1.3827 -0.6885 -2.1486
  102OSM   C13S10248   4.516   0.852   4.861 -0.1003 -0.5501 -0.2493
  102OSM   H13S10249   4.609   0.899   4.824 -0.5420 -0.5605 -1.4131
  102OSM   H13T10250   4.438   0.930   4.879 -1.4644 -2.1524  1.1345
  102OSM   C14S10251   4.456   0.756   4.763  0.7958 -0.0820  0.4003
  102OSM   H14S10252   4.419   0.812   4.675  0.9751 -0.0024  0.3734
  102OSM   H14T10253   4.376   0.701   4.816 -0.1197  0.0425 -0.8163
  102OSM   C15S10254   4.552   0.648   4.704 -0.0922  0.6470 -0.2202
  102OSM   H15S10255   4.489   0.571   4.654  1.9891 -1.5246  0.3365
  102OSM   H15T10256   4.598   0.587   4.784  1.8199 -1.4384 -2.7324
  102OSM   C16S10257   4.651   0.707   4.615  0.0105 -0.3795 -0.0679
  102OSM   H16S10258   4.716   0.626   4.577 -0.4414 -0.7016 -0.1649
  102OSM   H16T10259   4.723   0.772   4.669  1.1648  0.3311 -2.3675
  102OSM   C17S10260   4.588   0.766   4.491 -0.2539 -0.3916  0.5029
  102OSM   H17S10261   4.525   0.856   4.508 -2.4619 -1.0476 -3.0067
  102OSM   H17T10262   4.527   0.685   4.444  0.2340  0.7858 -2.3832
  102OSM   C18S10263   4.697   0.786   4.393  0.3044  0.0708 -0.0723
  102OSM   H18S10264   4.695   0.707   4.315  1.5632 -1.3733  1.2734
  102OSM   H18T10265   4.796   0.776   4.444  0.4675 -1.2708 -0.5965
  102OSM   H18U10266   4.685   0.887   4.350 -2.0896 -1.0465 -2.2750
  102OSM    C1F10267   4.897   0.667   6.259  0.4674  0.2990 -0.2864
  102OSM     OF10268   4.840   0.711   6.360  0.2450  0.7005 -0.3009
  102OSM    C2F10269   4.937   0.521   6.242 -0.2205 -0.5655 -0.7131
  102OSM    H2F10270   4.855   0.464   6.289 -0.1074  0.8071  1.2636
  102OSM    H2G10271   5.017   0.497   6.315  0.7401 -3.5718 -2.5670
  102OSM    C3F10272   4.980   0.488   6.099 -0.4814 -0.0392  0.8434
  102OSM    H3F10273   5.063   0.551   6.062 -0.7120 -0.5611 -0.6087
  102OSM    H3G10274   4.893   0.510   6.034  0.7089  2.2833 -0.0863
  102OSM    C4F10275   5.023   0.345   6.084  0.1093 -0.5042 -0.4072
  102OSM    H4F10276   4.950   0.271   6.124 -0.5229  0.5968  0.5086
  102OSM    H4G10277   5.114   0.331   6.144  0.7298 -0.3702 -1.2943
  102OSM    C5F10278   5.055   0.306   5.940  0.5361 -0.0544  0.3731
  102OSM    H5F10279   5.118   0.383   5.892 -0.6324  0.5042 -0.3122
  102OSM    H5G10280   4.966   0.306   5.874  1.7814  0.8550 -1.3844
  102OSM    C6F10281   5.133   0.175   5.918  0.1418  0.0597 -0.3999
  102OSM    H6F10282   5.225   0.184   5.981  0.0393 -1.6519  0.0402
  102OSM    H6G10283   5.169   0.166   5.814  2.3547  0.4367  0.2715
  102OSM    C7F10284   5.065   0.047   5.956  0.6810  0.3888  0.1634
  102OSM    H7F10285   4.965   0.044   5.906 -0.0733 -0.1706  1.6476
  102OSM    H7G10286   5.041   0.055   6.064 -1.4386  1.5527 -0.3422
  102OSM    C8F10287   5.144  -0.081   5.925 -0.5418 -0.3660  0.5895
  102OSM    H8F10288   5.089  -0.171   5.960 -1.1698 -0.3588 -0.3419
  102OSM    H8G10289   5.242  -0.088   5.976  0.0408  0.5823 -0.3449
  102OSM    C9F10290   5.148  -0.104   5.775  0.6573 -0.6999 -0.5612
  102OSM    H9F10291   5.046  -0.124   5.739 -0.5117 -1.2949  2.7262
  102OSM   C10F10292   5.247  -0.124   5.682 -0.1303 -0.1486 -0.1075
  102OSM   H10F10293   5.224  -0.138   5.576  1.2052 -0.9861 -0.3052
  102OSM   C11F10294   5.393  -0.110   5.718  0.0813 -0.0806 -0.0368
  102OSM   H11F10295   5.454  -0.176   5.651 -0.3490 -0.0048 -0.5079
  102OSM   H11G10296   5.416  -0.124   5.826 -2.0316  1.6991  0.7097
  102OSM   C12F10297   5.440   0.030   5.689  0.4545 -0.5405 -0.1638
  102OSM   H12F10298   5.551   0.031   5.681  0.4220  3.0085 -2.3767
  102OSM   H12G10299   5.407   0.098   5.770  1.5140 -0.1433 -0.0551
  102OSM   C13F10300   5.396   0.094   5.554 -0.3823  0.6642  0.1734
  102OSM   H13F10301   5.286   0.106   5.546 -0.4719  0.6940  1.2920
  102OSM   H13G10302   5.426   0.034   5.465  2.9485  1.5693  0.5585
  102OSM   C14F10303   5.450   0.231   5.535 -1.0610 -0.1431  0.5878
  102OSM   H14F10304   5.560   0.212   5.535 -1.0608 -1.5629 -4.0255
  102OSM   H14G10305   5.424   0.303   5.616  1.1210 -1.0381  2.1669
  102OSM   C15F10306   5.427   0.301   5.399 -0.0962  0.4103  0.5985
  102OSM   H15F10307   5.316   0.293   5.393 -0.1430 -0.4057  2.0249
  102OSM   H15G10308   5.468   0.244   5.313 -1.0076 -0.0731  0.4659
  102OSM   C16F10309   5.488   0.442   5.401 -0.1961  0.3575  0.4300
  102OSM   H16F10310   5.598   0.446   5.388 -0.4010  1.5123 -1.4044
  102OSM   H16G10311   5.474   0.494   5.498 -1.1852 -1.3380  1.2354
  102OSM   C17F10312   5.435   0.526   5.281  0.0366 -0.9098  0.2842
  102OSM   H17F10313   5.465   0.632   5.299 -2.5759  0.1708 -1.2202
  102OSM   H17G10314   5.325   0.523   5.268 -0.0321  0.6309  0.3207
  102OSM   C18F10315   5.500   0.493   5.151 -0.4439  1.5886  0.8899
  102OSM   H18F10316   5.604   0.531   5.164  0.3220 -0.1632  0.0991
  102OSM   H18G10317   5.451   0.553   5.071 -1.5808 -0.4519  0.0035
  102OSM   H18H10318   5.495   0.386   5.122  0.9191  0.7397  3.4151
  103OSM      N10319   4.853   3.281   6.379  0.3454  0.7283 -0.1419
  103OSM    C1510320   4.817   3.136   6.369  0.4683  0.4714 -0.0736
  103OSM   H15A10321   4.897   3.085   6.420 -0.5249  1.7440  3.0537
  103OSM   H15B10322   4.803   3.101   6.268 -1.8676 -0.4286  0.4805
  103OSM   H15C10323   4.737   3.094   6.429  1.3365 -2.9896 -1.1450
  103OSM    C1410324   4.748   3.368   6.328  0.6592  0.1650 -0.3931
  103OSM   H14A10325   4.769   3.473   6.344 -0.2515  0.2118  0.6782
  103OSM   H14B10326   4.651   3.348   6.372  0.2274  2.7598  0.0379
  103OSM   H14C10327   4.733   3.366   6.222  0.1054  0.1287 -0.3182
  103OSM    C1310328   4.875   3.306   6.526  0.9779 -0.3038 -0.5012
  103OSM   H13A10329   4.893   3.410   6.551 -0.3121 -0.5641  1.9246
  103OSM   H13B10330   4.958   3.247   6.562  1.7613  1.4300  0.7209
  103OSM   H13C10331   4.779   3.285   6.571 -0.1489  0.1961 -2.5768
  103OSM    C1210332   4.988   3.310   6.310  0.2248 -0.3431 -0.2032
  103OSM   H12A10333   5.070   3.259   6.359  1.6530  0.3821 -1.7185
  103OSM   H12B10334   5.009   3.415   6.326 -1.0117  0.0001 -0.7122
  103OSM    C1110335   4.997   3.275   6.157  0.0621  0.2292  0.1942
  103OSM   H11A10336   5.085   3.313   6.100  1.4727  0.2901  2.2826
  103OSM   H11B10337   4.923   3.331   6.096 -0.2746 -0.4616 -0.0350
  103OSM      P10338   5.086   3.036   6.123  0.3808 -0.3229  0.3476
  103OSM    O1310339   5.159   3.032   6.252 -0.2598  0.1473  0.0838
  103OSM    O1410340   5.018   2.907   6.080 -0.3323  0.0648  0.3050
  103OSM    O1110341   5.167   3.102   6.000  0.2361  0.7409  0.0634
  103OSM    O1210342   4.966   3.139   6.136 -0.6001  0.2447 -0.2506
  103OSM    C1S10343   5.223   3.015   5.904  0.8952 -0.1832  0.2588
  103OSM    H1S10344   5.159   2.929   5.875  0.1315  0.4240  0.1201
  103OSM    H1T10345   5.322   2.970   5.929  2.0399  2.2594  0.4468
  103OSM     NF10346   5.258   3.008   5.655 -0.4190  0.0363 -0.3362
  103OSM    HNF10347   5.347   2.991   5.613 -0.4138 -0.8556  0.0123
  103OSM    C2S10348   5.246   3.098   5.767 -0.7890 -0.5442 -0.5177
  103OSM    H2S10349   5.160   3.166   5.753 -1.3949 -1.7352 -2.9400
  103OSM    C3S10350   5.371   3.189   5.785  0.3925  0.5208 -0.1881
  103OSM    H3S10351   5.470   3.138   5.793  0.5735  0.9049  0.0420
  103OSM     O310352   5.372   3.257   5.908 -0.0021 -1.1573 -0.3613
  103OSM    HO310353   5.299   3.214   5.955  0.3104  0.1919  1.4714
  103OSM    C4S10354   5.381   3.289   5.675  0.6997  0.4078  0.0279
  103OSM    H4S10355   5.286   3.342   5.659  1.2461  0.6530 -2.9802
  103OSM    C5S10356   5.481   3.323   5.601  0.4617 -0.1763 -0.2699
  103OSM    H5S10357   5.577   3.269   5.604 -0.0241 -1.0726 -0.1982
  103OSM    C6S10358   5.479   3.441   5.504 -0.3372 -0.8998  0.6171
  103OSM    H6S10359   5.560   3.512   5.532 -1.1347  0.9287 -1.4560
  103OSM    H6T10360   5.389   3.506   5.504  1.1342  1.3647  3.0674
  103OSM    C7S10361   5.523   3.392   5.364 -0.9039 -0.0440  0.0953
  103OSM    H7S10362   5.473   3.302   5.324 -0.6198 -0.2022  0.0941
  103OSM    H7T10363   5.628   3.358   5.374 -0.3760  1.1363 -0.9518
  103OSM    C8S10364   5.524   3.509   5.265  0.1428 -0.6059  0.6811
  103OSM    H8S10365   5.573   3.473   5.172  1.2150  0.6199  0.7519
  103OSM    H8T10366   5.595   3.588   5.296 -0.7949  0.6715 -0.3405
  103OSM    C9S10367   5.387   3.581   5.235 -0.0193  0.5099  0.3973
  103OSM    H9S10368   5.347   3.640   5.320  1.6285 -0.7969  2.1702
  103OSM    H9T10369   5.308   3.514   5.197 -1.8724  2.2777  0.9577
  103OSM   C10S10370   5.384   3.683   5.113  0.0526  0.0283  0.5369
  103OSM   H10S10371   5.455   3.764   5.140 -1.0487  0.8717  0.9732
  103OSM   H10T10372   5.280   3.721   5.118 -0.4749 -1.5115  2.0872
  103OSM   C11S10373   5.401   3.612   4.979  0.4957  0.5201 -0.2155
  103OSM   H11S10374   5.312   3.547   4.966  0.9134  0.1010 -1.0455
  103OSM   H11T10375   5.495   3.553   4.983  0.3297  0.1167 -1.6913
  103OSM   C12S10376   5.412   3.709   4.862  0.2961  0.9756 -0.5640
  103OSM   H12S10377   5.515   3.750   4.868  0.4456  0.4361  1.0325
  103OSM   H12T10378   5.341   3.791   4.886 -0.4622  0.0392  0.5135
  103OSM   C13S10379   5.393   3.653   4.723  0.7692 -0.9005 -0.4401
  103OSM   H13S10380   5.459   3.564   4.709  2.5838  0.2259  0.6038
  103OSM   H13T10381   5.423   3.728   4.646  2.6096 -0.3566  0.7433
  103OSM   C14S10382   5.243   3.630   4.676 -0.4050  0.9879 -0.2071
  103OSM   H14S10383   5.204   3.731   4.700  0.1602  1.1039  0.2524
  103OSM   H14T10384   5.199   3.548   4.737 -0.9810  1.1337 -0.4223
  103OSM   C15S10385   5.229   3.608   4.527  0.4702 -0.4964  0.0781
  103OSM   H15S10386   5.281   3.687   4.469 -0.5882  1.6936  1.9657
  103OSM   H15T10387   5.121   3.625   4.506  0.1443 -0.3161  1.7272
  103OSM   C16S10388   5.268   3.464   4.482 -0.1338  0.3232  0.1727
  103OSM   H16S10389   5.252   3.387   4.561  0.1190 -0.7168 -0.7627
  103OSM   H16T10390   5.377   3.455   4.466 -0.3027 -1.2628 -0.2990
  103OSM   C17S10391   5.214   3.409   4.343 -0.2741 -0.7563  0.0475
  103OSM   H17S10392   5.103   3.408   4.348 -0.2541 -1.8944  0.4491
  103OSM   H17T10393   5.257   3.308   4.333 -1.3677 -1.2470  0.1072
  103OSM   C18S10394   5.255   3.490   4.222 -0.3594  0.1562  0.7232
  103OSM   H18S10395   5.365   3.482   4.214 -0.4851  0.3826 -1.9667
  103OSM   H18T10396   5.229   3.596   4.239  1.5732  0.7458  0.2507
  103OSM   H18U10397   5.203   3.454   4.131  0.7390 -0.3904  0.2888
  103OSM    C1F10398   5.158   2.937   5.606  0.3565  0.8048 -0.0783
  103OSM     OF10399   5.041   2.960   5.648  0.3635  0.5499  0.6426
  103OSM    C2F10400   5.190   2.842   5.494  0.0384 -0.4206  0.0589
  103OSM    H2F10401   5.122   2.754   5.486  1.7670 -1.8637  0.5293
  103OSM    H2G10402   5.288   2.799   5.524  0.7583  0.8380 -0.4260
  103OSM    C3F10403   5.191   2.896   5.344 -0.4089 -0.4569 -0.1498
  103OSM    H3F10404   5.091   2.929   5.308 -0.2797  1.0912  0.8130
  103OSM    H3G10405   5.218   2.812   5.276 -0.9480  0.0558 -1.0128
  103OSM    C4F10406   5.286   3.011   5.339 -0.2464  0.0876  0.7315
  103OSM    H4F10407   5.383   2.981   5.383 -0.3564 -1.6345 -0.1468
  103OSM    H4G10408   5.234   3.096   5.388 -0.6183  0.0093  0.4719
  103OSM    C5F10409   5.343   3.043   5.194  0.1650  0.1410 -1.2524
  103OSM    H5F10410   5.422   3.122   5.197 -0.2152  0.6464 -3.5243
  103OSM    H5G10411   5.256   3.075   5.134 -2.3153 -0.6290  1.6969
  103OSM    C6F10412   5.400   2.912   5.132 -0.7670 -0.0061 -0.3681
  103OSM    H6F10413   5.445   2.839   5.203 -0.8953 -0.5808 -0.8749
  103OSM    H6G10414   5.489   2.925   5.066  0.5534 -0.7417  1.1734
  103OSM    C7F10415   5.298   2.837   5.032 -0.2386  0.1214  0.4429
  103OSM    H7F10416   5.196   2.865   5.066 -0.5007  1.5617 -1.3691
  103OSM    H7G10417   5.307   2.726   5.037  2.4494  0.2171 -0.7057
  103OSM    C8F10418   5.310   2.892   4.879 -0.3910 -0.5735 -0.4171
  103OSM    H8F10419   5.264   2.806   4.826 -0.5836 -0.1000 -1.0279
  103OSM    H8G10420   5.417   2.891   4.848 -0.4756  1.6533 -1.0087
  103OSM    C9F10421   5.234   3.019   4.850 -0.9737 -0.3673 -0.8025
  103OSM    H9F10422   5.126   3.013   4.871 -1.3799  0.8518 -2.3339
  103OSM   C10F10423   5.289   3.128   4.801 -0.8301 -0.8656 -0.1185
  103OSM   H10F10424   5.230   3.219   4.790  0.6685  0.4094  1.7701
  103OSM   C11F10425   5.432   3.154   4.759  0.3046 -0.1526  1.1524
  103OSM   H11F10426   5.439   3.193   4.655  1.3982 -0.5201  1.0687
  103OSM   H11G10427   5.483   3.055   4.750  1.5000  0.4827  0.6060
  103OSM   C12F10428   5.510   3.242   4.861 -0.0538 -0.6145  0.3454
  103OSM   H12F10429   5.499   3.200   4.963 -0.4830  2.0713  1.4798
  103OSM   H12G10430   5.468   3.345   4.864 -0.6250 -0.8597  1.1249
  103OSM   C13F10431   5.658   3.251   4.825 -0.3488 -0.0766 -0.1105
  103OSM   H13F10432   5.712   3.328   4.885 -1.3233  1.3162 -0.9688
  103OSM   H13G10433   5.675   3.285   4.721  2.6042 -1.5757 -0.2215
  103OSM   C14F10434   5.733   3.118   4.844 -0.5893  0.2205  0.8183
  103OSM   H14F10435   5.700   3.039   4.772  1.4483 -1.2169  1.3659
  103OSM   H14G10436   5.707   3.078   4.944 -2.0648 -1.9572 -0.3439
  103OSM   C15F10437   5.884   3.135   4.841 -0.5286 -0.2575 -0.0843
  103OSM   H15F10438   5.945   3.050   4.877 -1.3736  0.0054  2.1189
  103OSM   H15G10439   5.911   3.215   4.913 -2.8881  0.3155  0.2464
  103OSM   C16F10440   5.936   3.181   4.707  0.2512  0.2479 -0.5912
  103OSM   H16F10441   5.890   3.276   4.673 -3.3545 -1.9353 -2.4852
  103OSM   H16G10442   5.906   3.103   4.633  0.2332 -0.6474  0.3298
  103OSM   C17F10443   6.085   3.181   4.699 -0.6940  0.3926  0.6399
  103OSM   H17F10444   6.126   3.079   4.710 -1.8111 -0.2544 -0.8354
  103OSM   H17G10445   6.123   3.238   4.787 -1.2058 -0.9916  1.7898
  103OSM   C18F10446   6.133   3.237   4.563 -0.5342  0.2852 -0.5436
  103OSM   H18F10447   6.113   3.159   4.486 -0.1617 -1.2278  0.8372
  103OSM   H18G10448   6.243   3.255   4.560 -0.4258 -0.3658 -0.6463
  103OSM   H18H10449   6.089   3.337   4.540  0.0053  0.2072 -2.0045
  104OSM      N10450   6.839   2.867   6.729 -0.2182 -0.5147  0.5717
  104OSM    C1510451   6.909   2.740   6.755 -0.1488  0.7140  0.1017
  104OSM   H15A10452   6.962   2.744   6.849  1.4086  0.4811 -0.7232
  104OSM   H15B10453   6.973   2.708   6.674 -1.2436 -1.0399 -0.1209
  104OSM   H15C10454   6.839   2.658   6.765 -0.2426  0.8002  0.1530
  104OSM    C1410455   6.707   2.875   6.807 -0.2106 -0.3589 -0.2900
  104OSM   H14A10456   6.724   2.874   6.914 -0.6817 -0.7301 -0.2159
  104OSM   H14B10457   6.658   2.781   6.789 -0.3520 -0.5144  0.8651
  104OSM   H14C10458   6.653   2.966   6.786  1.3804  0.4633 -1.0593
  104OSM    C1310459   6.934   2.978   6.783 -0.1946 -0.4906  0.0394
  104OSM   H13A10460   7.035   2.965   6.748 -0.4884 -1.0569 -0.6231
  104OSM   H13B10461   6.941   2.983   6.891  4.2384  0.7176 -0.1093
  104OSM   H13C10462   6.901   3.074   6.747  3.2678  0.4287 -1.0681
  104OSM    C1210463   6.818   2.896   6.580 -0.1586 -0.2329  0.0458
  104OSM   H12A10464   6.904   2.933   6.527 -0.2468 -0.9042 -0.5705
  104OSM   H12B10465   6.743   2.974   6.580 -0.6346 -0.6808  0.0009
  104OSM    C1110466   6.747   2.785   6.492  0.6773 -0.3547 -0.1371
  104OSM   H11A10467   6.816   2.700   6.474 -0.0991 -0.4953 -2.8172
  104OSM   H11B10468   6.720   2.837   6.398 -0.2685 -1.2588 -0.3719
  104OSM      P10469   6.488   2.732   6.477 -0.0028 -0.0084 -0.3419
  104OSM    O1310470   6.417   2.611   6.526  0.4664 -0.3580 -0.7854
  104OSM    O1410471   6.424   2.873   6.487  0.1459  0.4893 -0.3257
  104OSM    O1110472   6.539   2.709   6.330 -0.1970 -0.3513 -0.4109
  104OSM    O1210473   6.623   2.750   6.556 -0.6957 -0.1179 -0.2137
  104OSM    C1S10474   6.439   2.714   6.230 -0.4004  0.3188 -0.0270
  104OSM    H1S10475   6.356   2.786   6.248 -1.1734 -0.2622 -1.0844
  104OSM    H1T10476   6.395   2.612   6.219  1.4191 -0.8867  2.6915
  104OSM     NF10477   6.387   2.776   5.999  0.3538 -0.4309 -0.1003
  104OSM    HNF10478   6.358   2.687   5.964  2.0227 -2.1528  2.5120
  104OSM    C2S10479   6.501   2.754   6.090  0.2975 -0.2100 -0.3234
  104OSM    H2S10480   6.552   2.852   6.104 -1.1600  0.3367  1.7727
  104OSM    C3S10481   6.602   2.642   6.048 -0.3710 -0.0167  0.0324
  104OSM    H3S10482   6.561   2.539   6.060  0.1333 -0.2662 -0.3622
  104OSM     O310483   6.714   2.650   6.131 -0.2285 -0.0084  0.0228
  104OSM    HO310484   6.676   2.680   6.214 -0.4148 -0.4797  0.1094
  104OSM    C4S10485   6.635   2.658   5.900 -0.7887 -0.1530 -0.0418
  104OSM    H4S10486   6.720   2.720   5.872 -0.6556 -0.4455 -0.2999
  104OSM    C5S10487   6.579   2.582   5.803 -0.1269  0.4396  0.2211
  104OSM    H5S10488   6.513   2.498   5.829  1.4640 -0.5167  1.4215
  104OSM    C6S10489   6.600   2.603   5.652 -0.5090 -0.1544  0.2348
  104OSM    H6S10490   6.660   2.517   5.614  0.4714 -0.5360  2.5053
  104OSM    H6T10491   6.656   2.695   5.627  0.1674 -0.6237 -0.0046
  104OSM    C7S10492   6.472   2.590   5.567 -0.2185 -0.4236 -0.0024
  104OSM    H7S10493   6.421   2.688   5.582  0.8121  0.0343  0.7057
  104OSM    H7T10494   6.416   2.501   5.602 -2.6411 -0.8066 -4.2870
  104OSM    C8S10495   6.513   2.567   5.413  0.1320 -0.1421  0.7763
  104OSM    H8S10496   6.564   2.468   5.410  0.6128  0.1308 -1.6865
  104OSM    H8T10497   6.581   2.654   5.404 -0.4736  0.1684 -1.1978
  104OSM    C9S10498   6.395   2.576   5.315  0.4614 -0.7533 -0.4627
  104OSM    H9S10499   6.352   2.678   5.326 -2.5103 -2.1395  2.6167
  104OSM    H9T10500   6.309   2.509   5.330 -1.6051  1.9437  0.5993
  104OSM   C10S10501   6.458   2.560   5.170 -0.0083 -0.4526  0.2842
  104OSM   H10S10502   6.366   2.557   5.109 -0.8814  2.8750  1.2401
  104OSM   H10T10503   6.514   2.464   5.157 -1.1939 -1.1572  0.2768
  104OSM   C11S10504   6.563   2.663   5.123 -0.2015 -0.1338 -0.1465
  104OSM   H11S10505   6.661   2.637   5.170 -1.1249  1.0430  2.6785
  104OSM   H11T10506   6.546   2.770   5.147  2.7787 -0.3088  3.9996
  104OSM   C12S10507   6.581   2.660   4.966  0.3382 -0.2974  0.0235
  104OSM   H12S10508   6.479   2.686   4.930 -1.0962  0.9962  4.4450
  104OSM   H12T10509   6.631   2.565   4.940  1.7830 -0.1393  2.0638
  104OSM   C13S10510   6.679   2.778   4.936 -0.2339  0.1180 -0.0843
  104OSM   H13S10511   6.782   2.746   4.964 -0.3274 -1.0377 -0.9741
  104OSM   H13T10512   6.651   2.867   4.996  0.7164  1.2878 -1.3239
  104OSM   C14S10513   6.682   2.814   4.785  0.3419 -0.5858 -0.7074
  104OSM   H14S10514   6.574   2.834   4.765  0.5286  0.2546 -0.9346
  104OSM   H14T10515   6.701   2.726   4.720  1.6860 -1.3469  0.6683
  104OSM   C15S10516   6.762   2.933   4.759 -0.3552  0.1649  0.1330
  104OSM   H15S10517   6.867   2.898   4.750 -0.3365  0.1230  0.4913
  104OSM   H15T10518   6.744   3.000   4.846  0.4047 -0.2642  0.6364
  104OSM   C16S10519   6.734   2.992   4.621 -0.6056 -0.3618 -0.6167
  104OSM   H16S10520   6.734   2.902   4.556  1.3450 -1.7167  1.1466
  104OSM   H16T10521   6.810   3.066   4.588 -0.0175 -1.1033 -0.9338
  104OSM   C17S10522   6.604   3.066   4.628  0.1119  0.3148 -0.1341
  104OSM   H17S10523   6.613   3.139   4.712 -0.7935  0.4830 -0.1707
  104OSM   H17T10524   6.517   3.001   4.652  0.0455  1.0243  1.7803
  104OSM   C18S10525   6.560   3.138   4.495  0.1756  0.2082 -0.2847
  104OSM   H18S10526   6.458   3.181   4.499  0.1537  0.1294  0.0434
  104OSM   H18T10527   6.559   3.048   4.430 -2.2095 -0.1078  0.1078
  104OSM   H18U10528   6.641   3.208   4.464 -0.7990  1.2015 -0.6404
  104OSM    C1F10529   6.314   2.891   6.003  0.0586  0.1934 -0.4734
  104OSM     OF10530   6.353   2.984   6.068 -0.8763  0.0180  0.3165
  104OSM    C2F10531   6.185   2.904   5.932  0.6185 -0.3996  0.4213
  104OSM    H2F10532   6.116   2.957   6.002  0.1030 -0.2590 -0.1881
  104OSM    H2G10533   6.132   2.810   5.906  1.5824 -0.6977 -0.5226
  104OSM    C3F10534   6.185   2.999   5.814  0.4153 -0.2072 -0.0475
  104OSM    H3F10535   6.233   3.096   5.836 -0.2959 -0.1323  1.3037
  104OSM    H3G10536   6.081   3.020   5.782  0.3926 -2.1564 -1.4462
  104OSM    C4F10537   6.251   2.934   5.696 -0.2464 -0.1233  0.8780
  104OSM    H4F10538   6.212   2.832   5.678  1.8702 -0.4239 -2.8072
  104OSM    H4G10539   6.361   2.920   5.709 -0.0373  0.6264  0.0249
  104OSM    C5F10540   6.223   3.024   5.573  0.0454 -0.2872 -0.1537
  104OSM    H5F10541   6.288   3.114   5.572 -0.7591  0.3118 -0.8683
  104OSM    H5G10542   6.119   3.064   5.572  0.5340  1.1104 -1.9360
  104OSM    C6F10543   6.262   2.954   5.437 -0.2283 -0.3175 -0.2066
  104OSM    H6F10544   6.199   2.863   5.426 -1.9807  0.6338  1.4301
  104OSM    H6G10545   6.367   2.918   5.449  0.0305  0.3944 -0.2521
  104OSM    C7F10546   6.263   3.040   5.304  0.8615  0.6480  0.0649
  104OSM    H7F10547   6.345   3.114   5.310  1.2733  0.4751 -2.4110
  104OSM    H7G10548   6.163   3.082   5.279  0.1995 -0.9275 -0.0831
  104OSM    C8F10549   6.303   2.951   5.191 -0.2592 -0.0099  0.3074
  104OSM    H8F10550   6.232   2.867   5.176 -1.5450  1.4616 -2.8738
  104OSM    H8G10551   6.405   2.912   5.209 -0.3889 -0.7334 -0.4888
  104OSM    C9F10552   6.323   3.024   5.066  0.5747 -0.1126 -0.0187
  104OSM    H9F10553   6.365   3.125   5.077  2.1348 -0.5941 -1.0986
  104OSM   C10F10554   6.280   2.981   4.942  0.0489  0.0722 -0.3985
  104OSM   H10F10555   6.303   3.047   4.856 -0.2115  1.1369  0.3297
  104OSM   C11F10556   6.205   2.849   4.902 -0.2460  0.0453  0.0584
  104OSM   H11F10557   6.096   2.862   4.915 -0.2003  1.0903 -0.5319
  104OSM   H11G10558   6.238   2.774   4.977 -2.2239  0.3453  1.3001
  104OSM   C12F10559   6.239   2.806   4.760 -0.5143 -0.0674  0.2756
  104OSM   H12F10560   6.349   2.813   4.748 -0.9061  1.5877 -3.5281
  104OSM   H12G10561   6.201   2.867   4.675 -0.3667 -1.1476 -0.5770
  104OSM   C13F10562   6.175   2.666   4.735  0.4639 -0.8386 -0.3534
  104OSM   H13F10563   6.112   2.664   4.643  0.8428  1.7497 -0.7359
  104OSM   H13G10564   6.115   2.651   4.827 -3.7531 -0.0764 -2.7125
  104OSM   C14F10565   6.271   2.548   4.729 -0.7805  0.3324 -0.1676
  104OSM   H14F10566   6.215   2.453   4.717 -1.1039  0.5836 -0.6738
  104OSM   H14G10567   6.319   2.542   4.829 -0.6610 -1.1502 -0.2885
  104OSM   C15F10568   6.367   2.547   4.607  0.1222 -0.9090 -0.2553
  104OSM   H15F10569   6.414   2.446   4.611 -2.5628 -2.1893  1.8844
  104OSM   H15G10570   6.429   2.638   4.620 -0.2928 -0.4897 -1.1964
  104OSM   C16F10571   6.305   2.565   4.469 -1.0578 -0.0646  0.0200
  104OSM   H16F10572   6.272   2.671   4.462  0.4341  0.3748 -1.0876
  104OSM   H16G10573   6.224   2.490   4.461  0.7609 -2.1151 -0.2149
  104OSM   C17F10574   6.414   2.532   4.366  0.1689  0.6161 -0.4514
  104OSM   H17F10575   6.516   2.562   4.397  0.4556 -2.3696  1.8581
  104OSM   H17G10576   6.376   2.591   4.279 -1.7017 -0.5660 -0.4914
  104OSM   C18F10577   6.419   2.391   4.326 -0.1879  1.0311 -0.3469
  104OSM   H18F10578   6.487   2.357   4.245 -2.0031 -0.7955 -1.1743
  104OSM   H18G10579   6.317   2.352   4.310 -0.7919  2.1075  0.7073
  104OSM   H18H10580   6.451   2.327   4.411 -2.3640  1.1888  0.6477
  105OSM      N10581   6.001   2.774   6.584  0.0684  0.2771 -0.4978
  105OSM    C1510582   6.051   2.768   6.723 -0.0319  0.0926 -0.6948
  105OSM   H15A10583   6.144   2.821   6.726  0.5878 -0.8499 -1.9333
  105OSM   H15B10584   6.060   2.665   6.755  1.5700  0.0471 -1.2123
  105OSM   H15C10585   5.982   2.809   6.795  0.2536 -1.4041  0.4672
  105OSM    C1410586   5.976   2.917   6.546  0.1898  0.0310 -0.0735
  105OSM   H14A10587   5.890   2.948   6.602 -0.5533 -1.2333 -0.4799
  105OSM   H14B10588   5.959   2.924   6.439 -3.6249 -0.7454  0.3562
  105OSM   H14C10589   6.051   2.989   6.577 -0.6003  2.2539 -2.8772
  105OSM    C1310590   6.099   2.716   6.491 -0.0742 -0.1323 -0.7624
  105OSM   H13A10591   6.198   2.757   6.505 -0.9386  1.8850 -0.1662
  105OSM   H13B10592   6.056   2.740   6.395 -5.2103 -1.0460  0.9719
  105OSM   H13C10593   6.098   2.613   6.522 -1.7894  0.2566  0.6771
  105OSM    C1210594   5.862   2.696   6.573 -0.7270  0.0493  0.4339
  105OSM   H12A10595   5.777   2.732   6.629 -2.5891 -1.5313 -1.2366
  105OSM   H12B10596   5.866   2.594   6.606  0.2893  0.7872  2.7786
  105OSM    C1110597   5.793   2.683   6.424  0.2596 -0.3511 -0.4415
  105OSM   H11A10598   5.792   2.790   6.395  3.9783  0.2366  1.0463
  105OSM   H11B10599   5.689   2.649   6.442  0.4743 -1.5333 -1.3058
  105OSM      P10600   5.860   2.441   6.337 -0.3801 -0.2159  0.5366
  105OSM    O1310601   5.974   2.391   6.259 -0.4475 -0.6492 -0.9681
  105OSM    O1410602   5.839   2.386   6.472 -0.2279 -0.2166  0.1437
  105OSM    O1110603   5.729   2.424   6.257  0.3066 -0.1372  0.2275
  105OSM    O1210604   5.872   2.601   6.334  0.0936  0.5039 -0.0418
  105OSM    C1S10605   5.724   2.476   6.121 -0.3537 -0.1050 -0.2812
  105OSM    H1S10606   5.794   2.560   6.099 -1.0598  0.2193 -1.3354
  105OSM    H1T10607   5.619   2.507   6.102 -0.4641 -0.8611 -0.9231
  105OSM     NF10608   5.761   2.449   5.880 -0.5674 -0.1856 -0.1925
  105OSM    HNF10609   5.680   2.472   5.826 -1.0676 -2.3658 -0.4759
  105OSM    C2S10610   5.752   2.368   6.013  0.2515 -0.4992 -0.0751
  105OSM    H2S10611   5.851   2.320   6.029  0.8111  0.1518 -1.3868
  105OSM    C3S10612   5.642   2.258   6.026  0.0200  0.7288 -0.0549
  105OSM    H3S10613   5.542   2.305   6.012  0.8147  2.6243  0.2897
  105OSM     O310614   5.642   2.185   6.152  0.4966  0.5228 -0.1352
  105OSM    HO310615   5.700   2.233   6.212 -0.5865  1.1503  0.4453
  105OSM    C4S10616   5.674   2.158   5.915  0.1799  0.2573  0.3310
  105OSM    H4S10617   5.775   2.115   5.907 -0.2727 -0.5302 -3.8994
  105OSM    C5S10618   5.585   2.119   5.826 -0.2130  0.1422  0.2800
  105OSM    H5S10619   5.482   2.155   5.822 -0.0180  0.5994 -1.7746
  105OSM    C6S10620   5.637   2.012   5.731 -0.0197 -0.9305  0.1161
  105OSM    H6S10621   5.545   1.963   5.695 -0.0206  0.0854 -1.3410
  105OSM    H6T10622   5.700   1.937   5.785 -1.1104 -3.3925 -1.8624
  105OSM    C7S10623   5.729   2.066   5.619 -0.3720 -0.2161 -0.1528
  105OSM    H7S10624   5.816   2.123   5.658 -1.1439 -0.8073  2.6493
  105OSM    H7T10625   5.677   2.141   5.557 -0.1132  0.9155  0.9680
  105OSM    C8S10626   5.778   1.951   5.535 -0.7475  0.5928  0.0374
  105OSM    H8S10627   5.689   1.889   5.511 -0.6037 -0.4410  1.9410
  105OSM    H8T10628   5.852   1.905   5.603  0.1894  2.6641  0.5165
  105OSM    C9S10629   5.844   1.999   5.401  0.6701  0.3972 -0.3481
  105OSM    H9S10630   5.931   1.934   5.378  0.9566  0.2030  1.1852
  105OSM    H9T10631   5.855   2.109   5.408  1.0028  0.3309  0.2393
  105OSM   C10S10632   5.752   1.980   5.283  0.4326 -0.4505 -0.6188
  105OSM   H10S10633   5.648   2.008   5.309  0.6329  0.0606 -0.3732
  105OSM   H10T10634   5.754   1.880   5.233  0.1015 -0.9565  0.3523
  105OSM   C11S10635   5.783   2.074   5.164  0.2735 -0.6855  0.6744
  105OSM   H11S10636   5.806   2.173   5.209  0.7646  0.3401 -1.6516
  105OSM   H11T10637   5.694   2.089   5.100  1.3521 -0.1197 -0.7621
  105OSM   C12S10638   5.903   2.035   5.078  0.0927  0.0212  0.7110
  105OSM   H12S10639   5.885   1.929   5.051 -0.7178 -0.3059  2.3457
  105OSM   H12T10640   5.996   2.042   5.138  0.7874 -4.0441  0.3481
  105OSM   C13S10641   5.905   2.140   4.972  0.3228 -0.8654  0.5799
  105OSM   H13S10642   5.956   2.231   5.011  0.0857 -2.0886  4.0892
  105OSM   H13T10643   5.801   2.168   4.945  0.9199  0.2511 -0.6900
  105OSM   C14S10644   5.983   2.102   4.846  0.2265  0.0442 -0.0353
  105OSM   H14S10645   5.934   2.014   4.798  0.8427 -0.9640  1.1536
  105OSM   H14T10646   6.086   2.082   4.882 -0.5120  0.7286  2.6559
  105OSM   C15S10647   5.976   2.214   4.745  0.2074  0.1688 -0.1613
  105OSM   H15S10648   6.020   2.304   4.795  2.3987 -1.5348  1.1872
  105OSM   H15T10649   5.870   2.232   4.719  0.3529  0.6913 -0.4213
  105OSM   C16S10650   6.054   2.176   4.618 -0.3126  0.6049  0.4637
  105OSM   H16S10651   6.051   2.069   4.587 -0.3945  0.7341  0.0047
  105OSM   H16T10652   6.162   2.203   4.628 -0.2705  1.0131 -0.8359
  105OSM   C17S10653   5.997   2.248   4.498  0.1975 -0.1990  0.4235
  105OSM   H17S10654   6.031   2.354   4.502  0.6274 -0.3035 -0.3123
  105OSM   H17T10655   5.887   2.261   4.508  0.1365  0.7057 -1.0009
  105OSM   C18S10656   6.044   2.206   4.359  0.1273  0.1703  0.4262
  105OSM   H18S10657   6.152   2.224   4.338  0.0956 -0.8331 -0.7113
  105OSM   H18T10658   5.996   2.266   4.280 -0.3085  0.9226  1.2385
  105OSM   H18U10659   6.014   2.102   4.336 -2.4160  0.8809  0.2242
  105OSM    C1F10660   5.881   2.512   5.848  0.2983 -0.7210  0.3974
  105OSM     OF10661   5.984   2.504   5.915 -0.1403 -0.3731  0.1499
  105OSM    C2F10662   5.880   2.601   5.723 -0.2261 -0.8305 -0.3334
  105OSM    H2F10663   5.893   2.704   5.763  0.4507 -0.9962 -0.1085
  105OSM    H2G10664   5.784   2.600   5.667 -0.0099  0.4876 -0.7753
  105OSM    C3F10665   5.995   2.550   5.627 -0.2452  0.1568  0.2869
  105OSM    H3F10666   5.973   2.441   5.615  0.8710 -0.0342 -0.1919
  105OSM    H3G10667   6.092   2.552   5.682 -0.6535  1.8935  0.9891
  105OSM    C4F10668   6.016   2.630   5.498  0.6232 -0.4838 -0.0929
  105OSM    H4F10669   6.116   2.678   5.495 -0.3185  1.6938  0.8499
  105OSM    H4G10670   5.938   2.709   5.492 -0.5604 -1.6253 -0.0616
  105OSM    C5F10671   6.000   2.541   5.377  0.6056  0.1766 -0.2243
  105OSM    H5F10672   5.911   2.474   5.375  1.6970 -1.3116 -0.5872
  105OSM    H5G10673   6.087   2.473   5.367 -0.1829 -0.9772  0.4932
  105OSM    C6F10674   6.005   2.618   5.237 -0.1611 -0.5295  1.4242
  105OSM    H6F10675   6.020   2.535   5.164 -0.4543 -0.2186  1.0051
  105OSM    H6G10676   6.090   2.689   5.228 -0.4618 -0.2011  1.1484
  105OSM    C7F10677   5.870   2.684   5.199 -0.3606  1.0983 -0.8702
  105OSM    H7F10678   5.870   2.772   5.267  0.1236  1.1821 -0.9728
  105OSM    H7G10679   5.788   2.613   5.221 -0.0718  1.0454  0.0831
  105OSM    C8F10680   5.869   2.730   5.057 -0.4754  0.6851  0.4624
  105OSM    H8F10681   5.919   2.650   4.997  2.8221  1.1367  2.3752
  105OSM    H8G10682   5.923   2.826   5.044  1.3195  0.2609  3.7091
  105OSM    C9F10683   5.726   2.738   5.033  0.1644  0.0197  0.2203
  105OSM    H9F10684   5.674   2.795   5.111 -0.5311  1.3043 -1.1295
  105OSM   C10F10685   5.667   2.692   4.919 -0.3426  0.1341  0.1693
  105OSM   H10F10686   5.560   2.714   4.911 -0.4028 -0.2508 -0.1157
  105OSM   C11F10687   5.726   2.608   4.807 -0.5512  0.0403  0.3748
  105OSM   H11F10688   5.764   2.509   4.841 -1.6892  0.1159  1.9660
  105OSM   H11G10689   5.808   2.664   4.756  1.7828 -0.6069  3.1633
  105OSM   C12F10690   5.632   2.570   4.694  0.0934  0.8638 -0.9605
  105OSM   H12F10691   5.549   2.505   4.728 -0.0934 -0.0109 -2.9445
  105OSM   H12G10692   5.681   2.512   4.613 -0.8492  0.8653 -1.5520
  105OSM   C13F10693   5.587   2.696   4.618  0.5631  0.2709  0.0664
  105OSM   H13F10694   5.678   2.737   4.570 -0.0560 -1.0750 -2.4295
  105OSM   H13G10695   5.542   2.761   4.695 -0.2341  0.5433 -0.6159
  105OSM   C14F10696   5.473   2.661   4.523 -0.1142 -0.0944 -0.2329
  105OSM   H14F10697   5.389   2.610   4.575  0.3105 -0.7603 -0.1872
  105OSM   H14G10698   5.515   2.590   4.448  0.3500 -0.9605  0.8319
  105OSM   C15F10699   5.423   2.776   4.439 -0.1465  0.2290 -0.0252
  105OSM   H15F10700   5.371   2.728   4.354 -2.1510 -0.6888  1.6385
  105OSM   H15G10701   5.507   2.844   4.413  0.1416  0.7083  2.0002
  105OSM   C16F10702   5.319   2.862   4.504 -0.1220  0.3666 -0.3912
  105OSM   H16F10703   5.351   2.910   4.599 -0.9776  2.9741 -1.3629
  105OSM   H16G10704   5.221   2.813   4.520 -0.0756  0.0434 -1.0608
  105OSM   C17F10705   5.303   2.990   4.417 -0.0674  0.2887 -0.0670
  105OSM   H17F10706   5.269   2.955   4.317 -0.5287 -0.7837  0.4527
  105OSM   H17G10707   5.399   3.046   4.412  1.5179 -2.0538  2.0078
  105OSM   C18F10708   5.187   3.088   4.468  0.6674  0.5163  0.4652
  105OSM   H18F10709   5.130   3.123   4.379  0.2582  0.0642  0.5433
  105OSM   H18G10710   5.226   3.171   4.530  1.8186  0.6601 -0.4178
  105OSM   H18H10711   5.110   3.034   4.528  0.3962 -0.4083 -0.6797
  106OSM      N10712   5.515   0.148   6.670  0.0132  0.1942 -0.2636
  106OSM    C1510713   5.605   0.056   6.590 -0.4401  0.7310  0.0386
  106OSM   H15A10714   5.561   0.015   6.500  0.0875 -2.1209  0.9825
  106OSM   H15B10715   5.630  -0.029   6.652 -3.0645  0.3934  0.7611
  106OSM   H15C10716   5.699   0.101   6.559  0.6901 -0.3821  1.6933
  106OSM    C1410717   5.403   0.081   6.734 -0.8088  0.1304 -0.3665
  106OSM   H14A10718   5.357   0.152   6.801  0.6198  0.9784 -0.2612
  106OSM   H14B10719   5.434  -0.007   6.789 -0.0559  1.1948  0.9608
  106OSM   H14C10720   5.328   0.045   6.665 -1.9927  1.2986  0.2736
  106OSM    C1310721   5.595   0.201   6.793  0.2768 -0.2504  0.0303
  106OSM   H13A10722   5.556   0.296   6.825 -1.3315 -0.5395 -0.9547
  106OSM   H13B10723   5.692   0.227   6.752  0.1780  1.5641  0.8713
  106OSM   H13C10724   5.596   0.122   6.866 -0.4899  0.0518  0.3698
  106OSM    C1210725   5.465   0.259   6.584 -0.2110  0.1895 -0.1930
  106OSM   H12A10726   5.410   0.329   6.645 -1.0582  1.1542 -1.9818
  106OSM   H12B10727   5.390   0.211   6.523  0.1923  1.5726 -1.8685
  106OSM    C1110728   5.558   0.341   6.495 -0.2134 -0.4007  0.2702
  106OSM   H11A10729   5.499   0.394   6.416  2.5780 -0.4570 -2.0328
  106OSM   H11B10730   5.633   0.283   6.436  0.7078  1.3865 -0.4317
  106OSM      P10731   5.562   0.570   6.628  0.1243 -0.1565  0.1787
  106OSM    O1310732   5.429   0.542   6.693 -0.6626  0.5808 -0.6729
  106OSM    O1410733   5.668   0.640   6.705  0.5768 -0.3596  0.0980
  106OSM    O1110734   5.531   0.642   6.489 -0.1671  0.0435  0.7154
  106OSM    O1210735   5.631   0.430   6.578  0.0686 -0.1585  0.7561
  106OSM    C1S10736   5.636   0.669   6.402  0.3525 -0.2019 -0.0338
  106OSM    H1S10737   5.703   0.581   6.391  1.5248  0.5646  0.7058
  106OSM    H1T10738   5.697   0.758   6.429  2.0340 -1.1781 -0.4430
  106OSM     NF10739   5.717   0.750   6.179  0.1331 -0.3815  0.4208
  106OSM    HNF10740   5.701   0.840   6.141 -0.8676 -0.8832 -0.3956
  106OSM    C2S10741   5.601   0.697   6.252  0.7154 -0.3134 -0.7424
  106OSM    H2S10742   5.568   0.599   6.210 -1.0531 -0.1051  0.0811
  106OSM    C3S10743   5.476   0.787   6.241 -0.1416  0.0843  0.3100
  106OSM    H3S10744   5.496   0.888   6.281  0.8241  0.1136 -0.2289
  106OSM     O310745   5.366   0.759   6.325 -0.4527  0.1545 -0.0879
  106OSM    HO310746   5.399   0.703   6.395 -1.1120  1.7192  1.5673
  106OSM    C4S10747   5.432   0.802   6.099 -0.3380  0.1135  0.3232
  106OSM    H4S10748   5.501   0.856   6.034 -0.8415  0.6860  0.2542
  106OSM    C5S10749   5.316   0.769   6.041  0.5976 -0.4494 -0.1519
  106OSM    H5S10750   5.236   0.732   6.108  2.4545 -1.9135  1.3866
  106OSM    C6S10751   5.295   0.789   5.892 -0.3093 -0.6375 -0.1313
  106OSM    H6S10752   5.387   0.831   5.846  0.8193 -2.0793  0.7141
  106OSM    H6T10753   5.213   0.863   5.880 -0.2763 -0.6311 -0.3204
  106OSM    C7S10754   5.246   0.667   5.821 -0.1092 -0.8508  0.5524
  106OSM    H7S10755   5.155   0.619   5.863 -0.1319 -1.6476 -0.3756
  106OSM    H7T10756   5.331   0.598   5.835 -1.1749 -2.5167 -0.7432
  106OSM    C8S10757   5.220   0.695   5.670  0.1043 -0.2584 -0.7980
  106OSM    H8S10758   5.311   0.745   5.631 -0.7368  0.2767 -2.1413
  106OSM    H8T10759   5.136   0.767   5.676  1.4483  1.2648  0.8712
  106OSM    C9S10760   5.179   0.579   5.593  0.3659  0.0952 -0.0719
  106OSM    H9S10761   5.109   0.525   5.660  2.6741  0.8629  3.1627
  106OSM    H9T10762   5.264   0.512   5.569  0.5788  0.0672  0.7524
  106OSM   C10S10763   5.103   0.623   5.466  0.0894  0.8038  0.1636
  106OSM   H10S10764   5.179   0.682   5.411 -1.2213 -0.4941 -3.2985
  106OSM   H10T10765   5.011   0.682   5.488  0.2420  1.0286  0.1961
  106OSM   C11S10766   5.049   0.503   5.381  0.4625  0.4039 -0.0402
  106OSM   H11S10767   4.981   0.445   5.447  2.1810 -0.2881  1.2066
  106OSM   H11T10768   5.136   0.438   5.357  2.3263  2.7585 -0.0634
  106OSM   C12S10769   4.973   0.537   5.253  0.2520 -0.3700 -0.7265
  106OSM   H12S10770   4.918   0.633   5.258  1.7774  0.7987 -3.7349
  106OSM   H12T10771   4.908   0.450   5.227 -0.3851  0.4544 -2.0251
  106OSM   C13S10772   5.067   0.561   5.130 -0.3604 -0.1721  0.3821
  106OSM   H13S10773   5.134   0.473   5.118  1.4068  1.1694  0.0901
  106OSM   H13T10774   5.133   0.649   5.143 -0.8046  0.2500 -0.1878
  106OSM   C14S10775   4.988   0.592   5.000 -0.0531 -0.5513 -0.3695
  106OSM   H14S10776   4.910   0.669   5.021 -1.5394 -1.6788 -1.5186
  106OSM   H14T10777   4.931   0.499   4.976 -1.2162 -0.0548  0.3612
  106OSM   C15S10778   5.082   0.631   4.883  0.6495  0.4288  0.3843
  106OSM   H15S10779   5.137   0.539   4.853 -0.3239  0.8317 -3.1348
  106OSM   H15T10780   5.156   0.710   4.912  1.7718 -0.5289  0.2157
  106OSM   C16S10781   5.014   0.646   4.746  0.2058 -0.4148  0.9397
  106OSM   H16S10782   4.952   0.738   4.755 -0.6513 -1.1047  2.4457
  106OSM   H16T10783   4.938   0.568   4.726 -2.1774  2.0874 -0.5616
  106OSM   C17S10784   5.109   0.646   4.627  0.2055  0.5528 -0.0433
  106OSM   H17S10785   5.056   0.652   4.530  2.6871  1.2362 -1.4294
  106OSM   H17T10786   5.161   0.548   4.631  1.3048  1.1405  0.7162
  106OSM   C18S10787   5.213   0.756   4.624 -0.1618  0.3651 -0.7650
  106OSM   H18S10788   5.271   0.769   4.718 -1.0335  1.6400 -0.3637
  106OSM   H18T10789   5.156   0.851   4.613  0.3912  0.7828 -0.1264
  106OSM   H18U10790   5.284   0.746   4.539 -0.0749 -1.3696 -0.5209
  106OSM    C1F10791   5.837   0.688   6.170  0.0440  0.9330  0.6501
  106OSM     OF10792   5.857   0.583   6.228 -0.5494  0.3533 -0.1155
  106OSM    C2F10793   5.942   0.746   6.090 -0.2399  0.1868  0.0476
  106OSM    H2F10794   5.995   0.831   6.137  0.4869 -0.5597  0.6033
  106OSM    H2G10795   5.903   0.790   5.995  0.3693  2.6022  0.8544
  106OSM    C3F10796   6.054   0.636   6.055  0.0504  0.3703  0.1679
  106OSM    H3F10797   6.010   0.539   6.023 -2.5371  1.2256  0.8261
  106OSM    H3G10798   6.109   0.624   6.150  0.7410  1.7219 -0.0405
  106OSM    C4F10799   6.173   0.680   5.959 -0.2311 -0.2384 -1.0970
  106OSM    H4F10800   6.250   0.600   5.962 -0.7762 -0.7466 -0.3456
  106OSM    H4G10801   6.221   0.765   6.012 -0.5049 -0.5563 -0.3304
  106OSM    C5F10802   6.121   0.709   5.820 -0.6442 -0.2965  0.4001
  106OSM    H5F10803   6.063   0.803   5.819 -0.5466 -0.1937 -1.9993
  106OSM    H5G10804   6.061   0.618   5.797  0.9969 -1.0833 -1.0459
  106OSM    C6F10805   6.233   0.724   5.705 -0.1310 -0.3619  0.3889
  106OSM    H6F10806   6.286   0.634   5.670  2.8006  0.9672  1.1263
  106OSM    H6G10807   6.316   0.788   5.743 -1.1525  2.2224 -1.4372
  106OSM    C7F10808   6.162   0.803   5.587  0.0454 -0.0574  0.2271
  106OSM    H7F10809   6.142   0.907   5.621  2.1286  0.7506 -0.8651
  106OSM    H7G10810   6.062   0.759   5.566  0.3989 -0.6742 -0.1992
  106OSM    C8F10811   6.244   0.795   5.458  0.4302 -0.3569  0.8519
  106OSM    H8F10812   6.247   0.690   5.424 -0.3770 -0.3795  0.8253
  106OSM    H8G10813   6.348   0.825   5.483  0.7557 -1.4359  0.8416
  106OSM    C9F10814   6.193   0.883   5.351  0.4312 -0.7969  0.2438
  106OSM    H9F10815   6.108   0.942   5.388  2.2917  0.7598  2.3059
  106OSM   C10F10816   6.228   0.889   5.220 -0.3876 -0.5132  0.0403
  106OSM   H10F10817   6.170   0.952   5.150 -0.9653 -1.5120 -0.4057
  106OSM   C11F10818   6.331   0.800   5.158 -0.4608  0.0043 -0.0997
  106OSM   H11F10819   6.299   0.696   5.181  0.5894 -0.0819  1.0985
  106OSM   H11G10820   6.427   0.819   5.212 -0.5990 -0.9429  0.5079
  106OSM   C12F10821   6.346   0.820   5.009 -0.3071 -0.2511 -0.3345
  106OSM   H12F10822   6.433   0.761   4.972 -0.4572 -1.9099  1.7677
  106OSM   H12G10823   6.378   0.923   4.980  0.2400 -0.3326 -0.0382
  106OSM   C13F10824   6.224   0.769   4.933  0.5187  0.0080 -0.0240
  106OSM   H13F10825   6.144   0.847   4.925 -0.6146 -1.1668 -0.5037
  106OSM   H13G10826   6.180   0.683   4.988 -0.0436  0.9212  1.0051
  106OSM   C14F10827   6.262   0.737   4.783 -0.2094  0.8955 -0.1554
  106OSM   H14F10828   6.347   0.667   4.775 -0.9117 -0.0502  0.4476
  106OSM   H14G10829   6.292   0.833   4.736  2.4231  1.9451  3.2744
  106OSM   C15F10830   6.133   0.695   4.702 -0.2294  1.0447  0.3506
  106OSM   H15F10831   6.161   0.675   4.597 -1.2886  1.2117  0.0209
  106OSM   H15G10832   6.063   0.781   4.713 -0.7421  0.6108  0.5302
  106OSM   C16F10833   6.061   0.573   4.763 -0.0525 -0.1721 -0.4973
  106OSM   H16F10834   6.022   0.587   4.866  1.0033 -2.0063  0.2118
  106OSM   H16G10835   6.124   0.482   4.766  3.0638  1.8803  1.1225
  106OSM   C17F10836   5.932   0.543   4.680 -0.1220 -0.4923 -0.0043
  106OSM   H17F10837   5.965   0.509   4.580  1.1915 -0.2169  0.3172
  106OSM   H17G10838   5.870   0.635   4.671 -0.3791 -0.4190  1.9915
  106OSM   C18F10839   5.826   0.451   4.748 -0.1123 -0.3223  1.0578
  106OSM   H18F10840   5.775   0.511   4.826 -0.8467  0.5820 -0.0844
  106OSM   H18G10841   5.867   0.358   4.792  1.6714 -0.3674 -0.5422
  106OSM   H18H10842   5.748   0.443   4.669 -0.2441  0.5660  1.0864
  107OSM      N10843   0.272   0.681   6.826 -0.1751 -0.4748 -0.1114
  107OSM    C1510844   0.152   0.595   6.805 -0.6248  0.4272  0.2848
  107OSM   H15A10845   0.186   0.494   6.790  2.7080  1.3069  1.0293
  107OSM   H15B10846   0.094   0.626   6.719  0.6627  1.3681 -0.2890
  107OSM   H15C10847   0.090   0.591   6.893 -0.6207  1.3200  0.3357
  107OSM    C1410848   0.236   0.803   6.910  0.3445 -1.5299 -0.3877
  107OSM   H14A10849   0.332   0.850   6.927 -0.6006  0.5502 -0.4923
  107OSM   H14B10850   0.183   0.780   7.001  1.9377 -0.8990  0.7489
  107OSM   H14C10851   0.172   0.867   6.851  2.2726 -0.3241 -1.2764
  107OSM    C1310852   0.360   0.592   6.908  0.6217  0.2276 -0.0656
  107OSM   H13A10853   0.299   0.546   6.985  0.4731  1.8231  0.8177
  107OSM   H13B10854   0.454   0.638   6.936  1.7924 -2.6231  1.0430
  107OSM   H13C10855   0.389   0.514   6.839  2.7368  1.3209 -0.4906
  107OSM    C1210856   0.343   0.731   6.705  0.9037 -0.0696  1.3829
  107OSM   H12A10857   0.376   0.645   6.649 -0.5244  0.1519  0.1436
  107OSM   H12B10858   0.432   0.784   6.735  0.6995  1.8669 -1.0834
  107OSM    C1110859   0.253   0.826   6.620  0.1759  0.5301 -0.0358
  107OSM   H11A10860   0.312   0.862   6.533 -1.0987  2.5074 -0.1662
  107OSM   H11B10861   0.217   0.916   6.675 -1.4074  0.4184 -0.8330
  107OSM      P10862  -0.005   0.820   6.553 -0.0389 -0.0149 -0.0368
  107OSM    O1310863  -0.112   0.722   6.531 -0.2144 -0.6063 -1.2987
  107OSM    O1410864  -0.026   0.919   6.658 -0.5774 -0.2791 -0.0000
  107OSM    O1110865   0.021   0.885   6.417  0.1992 -0.5625 -0.0753
  107OSM    O1210866   0.138   0.758   6.577 -0.4601  0.0519  0.6066
  107OSM    C1S10867   0.101   0.824   6.312  0.2166  0.0518 -0.0215
  107OSM    H1S10868   0.082   0.714   6.312  3.8415 -0.7800  2.6588
  107OSM    H1T10869   0.208   0.838   6.339  0.6192  0.1014 -1.5544
  107OSM     NF10870   0.142   0.811   6.070  0.4036  0.4961 -0.0202
  107OSM    HNF10871   0.215   0.852   6.016  1.2778  0.9228  1.4452
  107OSM    C2S10872   0.069   0.890   6.172 -0.6651  0.0450  0.0234
  107OSM    H2S10873  -0.041   0.888   6.156 -0.4841  0.4029 -1.3733
  107OSM    C3S10874   0.095   1.041   6.175  0.4477 -0.1222 -0.7542
  107OSM    H3S10875   0.202   1.061   6.195  0.1294  0.1736  0.8568
  107OSM     O310876   0.030   1.099   6.285 -0.9783  0.6415  0.3217
  107OSM    HO310877   0.025   1.020   6.340  0.2503  0.0774 -0.3426
  107OSM    C4S10878   0.035   1.099   6.052 -0.5675  0.2336  0.3539
  107OSM    H4S10879  -0.075   1.100   6.048 -0.5369  0.4057 -0.5361
  107OSM    C5S10880   0.108   1.160   5.952 -0.3541 -0.2910 -0.4803
  107OSM    H5S10881   0.218   1.170   5.954 -0.2282 -1.6366  0.0816
  107OSM    C6S10882   0.052   1.224   5.832 -0.0285 -0.0805  0.6453
  107OSM    H6S10883   0.076   1.332   5.825 -1.7331  0.1995 -2.5844
  107OSM    H6T10884  -0.059   1.218   5.831  0.0359 -2.9777  0.1714
  107OSM    C7S10885   0.108   1.156   5.708  0.6298  0.2631 -0.1967
  107OSM    H7S10886   0.085   1.048   5.714  2.1308 -0.0259  0.8592
  107OSM    H7T10887   0.215   1.171   5.684  1.1269 -0.4778  1.4574
  107OSM    C8S10888   0.024   1.197   5.585  0.3166  0.6508  0.3429
  107OSM    H8S10889   0.036   1.306   5.567 -2.1901  0.9900  0.3782
  107OSM    H8T10890  -0.083   1.171   5.602 -0.0599  1.0881 -1.1527
  107OSM    C9S10891   0.077   1.127   5.455 -0.3401 -0.5143 -0.3165
  107OSM    H9S10892   0.081   1.020   5.484  1.5331 -0.7393 -1.2487
  107OSM    H9T10893   0.181   1.157   5.432 -0.6025 -1.3476 -2.9681
  107OSM   C10S10894  -0.005   1.146   5.330 -0.1421  0.2298 -0.2566
  107OSM   H10S10895  -0.024   1.254   5.309  0.0087  0.3146  0.0442
  107OSM   H10T10896  -0.099   1.095   5.361 -0.2201  1.2855  1.3584
  107OSM   C11S10897   0.054   1.075   5.203  0.3449 -0.2586  0.2728
  107OSM   H11S10898   0.068   0.965   5.208  1.2758 -0.1524  0.1936
  107OSM   H11T10899   0.145   1.132   5.175 -0.7607  1.0011 -0.9856
  107OSM   C12S10900  -0.044   1.089   5.072 -0.7353 -0.0466  0.2554
  107OSM   H12S10901  -0.055   1.199   5.061  0.9943  0.2538  1.1097
  107OSM   H12T10902  -0.141   1.045   5.102 -0.3977 -2.1930 -1.5493
  107OSM   C13S10903   0.029   1.035   4.948  0.1955  0.6921 -0.4786
  107OSM   H13S10904   0.099   0.956   4.981  0.8841  0.9751 -1.2183
  107OSM   H13T10905   0.093   1.115   4.905 -0.9093  2.6156  1.2363
  107OSM   C14S10906  -0.062   0.982   4.837  0.6111  0.7824  0.1517
  107OSM   H14S10907  -0.147   1.049   4.814 -0.2715 -0.2753  0.2771
  107OSM   H14T10908  -0.105   0.884   4.865 -1.0037  1.5221  0.3466
  107OSM   C15S10909   0.024   0.984   4.702  0.0593 -0.0944  0.1870
  107OSM   H15S10910   0.078   0.887   4.708 -2.1143 -1.5571 -1.8420
  107OSM   H15T10911   0.094   1.070   4.697 -1.1335  0.8433 -1.6300
  107OSM   C16S10912  -0.061   0.979   4.576  0.4061  0.0147  0.0869
  107OSM   H16S10913  -0.132   1.065   4.574 -1.2322 -1.2659  0.7138
  107OSM   H16T10914  -0.129   0.892   4.580 -0.0336  0.3682  0.5527
  107OSM   C17S10915   0.021   0.971   4.448  0.1524  0.7013 -0.4092
  107OSM   H17S10916  -0.055   0.958   4.369  0.9503 -1.5309 -0.8754
  107OSM   H17T10917   0.078   0.876   4.441  0.2338  0.5237  2.0252
  107OSM   C18S10918   0.115   1.084   4.410 -0.1813  0.4008  0.3660
  107OSM   H18S10919   0.147   1.089   4.304 -0.7349  0.3416  0.1962
  107OSM   H18T10920   0.200   1.087   4.482  0.1127 -0.6887  0.0881
  107OSM   H18U10921   0.048   1.172   4.422 -1.6231 -0.6119  0.0220
  107OSM    C1F10922   0.106   0.688   6.035  0.3355  0.5724 -0.3479
  107OSM     OF10923  -0.005   0.641   6.074 -0.0834  0.4194  0.1136
  107OSM    C2F10924   0.194   0.616   5.948 -0.2644  0.0295 -0.5269
  107OSM    H2F10925   0.227   0.522   5.997  1.5041  1.0622  0.3458
  107OSM    H2G10926   0.284   0.676   5.925  0.8159 -1.4980 -0.4491
  107OSM    C3F10927   0.127   0.570   5.815  0.1743 -0.0870  0.1072
  107OSM    H3F10928   0.104   0.659   5.753  0.4233 -0.1353 -0.0565
  107OSM    H3G10929   0.031   0.521   5.843  0.5281 -0.7570  0.1667
  107OSM    C4F10930   0.212   0.478   5.729  0.9728  0.4243 -0.0535
  107OSM    H4F10931   0.272   0.410   5.794  0.2938  0.5646  0.7351
  107OSM    H4G10932   0.278   0.538   5.663 -0.2530  1.4833 -0.3405
  107OSM    C5F10933   0.127   0.387   5.629 -0.9908 -0.3572  0.1128
  107OSM    H5F10934   0.061   0.427   5.548  0.2517 -1.6230 -1.6020
  107OSM    H5G10935   0.069   0.312   5.686  2.4319 -3.1017  0.3088
  107OSM    C6F10936   0.231   0.306   5.548 -0.3654 -0.3858 -0.3947
  107OSM    H6F10937   0.174   0.219   5.508 -0.3171 -0.8851  0.5898
  107OSM    H6G10938   0.308   0.253   5.608 -1.9719 -0.9357  1.2844
  107OSM    C7F10939   0.299   0.394   5.444  0.3706 -0.6286 -0.3103
  107OSM    H7F10940   0.356   0.482   5.482 -1.8089  1.1346 -0.8567
  107OSM    H7G10941   0.221   0.450   5.386  0.5391 -0.9552 -0.8565
  107OSM    C8F10942   0.400   0.316   5.357  0.1589  0.1597  0.2484
  107OSM    H8F10943   0.472   0.260   5.420  1.9547  0.8194 -1.1262
  107OSM    H8G10944   0.465   0.374   5.287 -0.7280 -0.0328 -0.7626
  107OSM    C9F10945   0.323   0.214   5.280 -0.8253  0.2421 -0.1349
  107OSM    H9F10946   0.255   0.161   5.348 -1.3343  1.9215  0.7181
  107OSM   C10F10947   0.323   0.179   5.149 -0.9503 -0.2776  0.2387
  107OSM   H10F10948   0.264   0.099   5.102  1.1366 -1.3392 -0.6927
  107OSM   C11F10949   0.405   0.241   5.037 -0.0827  0.2316 -0.0047
  107OSM   H11F10950   0.460   0.331   5.072 -1.5032 -0.0763  3.4221
  107OSM   H11G10951   0.342   0.266   4.948  0.0737 -1.6182 -0.6772
  107OSM   C12F10952   0.518   0.148   4.984 -0.7870  0.2435 -0.4451
  107OSM   H12F10953   0.477   0.046   4.968 -2.9554  0.8218  0.9854
  107OSM   H12G10954   0.604   0.143   5.055  0.3372  0.0992 -1.7768
  107OSM   C13F10955   0.584   0.187   4.851  0.2169  0.3178 -0.0969
  107OSM   H13F10956   0.624   0.291   4.859 -0.9898  0.7160  1.2625
  107OSM   H13G10957   0.504   0.188   4.774  0.8340  1.4815 -0.7466
  107OSM   C14F10958   0.694   0.090   4.807 -0.1886 -1.2114 -0.1288
  107OSM   H14F10959   0.683  -0.018   4.831 -1.1449 -0.9758  0.5525
  107OSM   H14G10960   0.792   0.118   4.851 -0.0297  1.1160 -1.7862
  107OSM   C15F10961   0.718   0.096   4.653  0.0732 -0.9211 -0.4766
  107OSM   H15F10962   0.752   0.201   4.636 -3.1808  0.5030  0.9230
  107OSM   H15G10963   0.622   0.093   4.597 -0.6176  0.4170  0.5588
  107OSM   C16F10964   0.832   0.000   4.604 -0.3342  0.2885 -0.5625
  107OSM   H16F10965   0.921   0.017   4.668 -0.7592  0.8523 -0.1010
  107OSM   H16G10966   0.848   0.020   4.496 -0.8516  0.1141 -0.6733
  107OSM   C17F10967   0.794  -0.150   4.609  0.4683  0.0265 -0.0755
  107OSM   H17F10968   0.764  -0.170   4.714  1.1568  0.4832  0.2235
  107OSM   H17G10969   0.881  -0.210   4.577  2.0258  2.5116 -0.7776
  107OSM   C18F10970   0.665  -0.192   4.526 -0.4400 -1.0333 -0.3880
  107OSM   H18F10971   0.644  -0.298   4.552  1.8807 -1.3983  0.1510
  107OSM   H18G10972   0.666  -0.187   4.415 -1.2338 -0.7966 -0.3908
  107OSM   H18H10973   0.587  -0.130   4.574  0.2761 -1.0627  0.8320
  108OSM      N10974   1.203   5.875   6.872 -0.7467  0.3246  0.4645
  108OSM    C1510975   1.270   5.907   7.004  0.4694 -0.1685  0.3668
  108OSM   H15A10976   1.328   5.998   6.993 -3.1404  2.1668 -1.1682
  108OSM   H15B10977   1.334   5.828   7.040  1.2364 -1.1733 -2.9144
  108OSM   H15C10978   1.196   5.933   7.078 -1.8911 -2.6563 -0.9384
  108OSM    C1410979   1.132   5.752   6.886 -0.0076  1.1047 -0.3015
  108OSM   H14A10980   1.067   5.726   6.804 -1.2044  2.0463  0.3009
  108OSM   H14B10981   1.064   5.766   6.969  0.8693  0.6060  0.5319
  108OSM   H14C10982   1.199   5.670   6.908 -2.5012 -0.4513  2.2881
  108OSM    C1310983   1.103   5.981   6.837 -0.0518  0.5330  0.3772
  108OSM   H13A10984   1.044   6.028   6.915 -2.0457  0.9787 -1.3016
  108OSM   H13B10985   1.040   5.949   6.755 -0.3305  1.2402  0.3041
  108OSM   H13C10986   1.162   6.060   6.794  1.2856 -1.8490 -2.4912
  108OSM    C1210987   1.305   5.860   6.752 -0.8379 -0.1731 -0.5160
  108OSM   H12A10988   1.259   5.825   6.660  1.6774 -1.0270 -1.5298
  108OSM   H12B10989   1.367   5.776   6.776  1.1101  0.8155 -1.8353
  108OSM    C1110990   1.399   5.978   6.718  0.1311  0.2521  0.4696
  108OSM   H11A10991   1.462   5.949   6.631  1.7933  1.3627  1.2635
  108OSM   H11B10992   1.466   5.989   6.806 -0.3087 -1.4164  1.0481
  108OSM      P10993   1.403   6.233   6.714 -0.3009 -0.2442  0.0590
  108OSM    O1310994   1.312   6.337   6.668 -0.2331 -0.2083  0.6015
  108OSM    O1410995   1.447   6.239   6.857 -0.1469 -0.0594 -0.5017
  108OSM    O1110996   1.527   6.240   6.617 -0.0178  0.2261 -0.2761
  108OSM    O1210997   1.329   6.102   6.695  0.0760  0.1212  0.4590
  108OSM    C1S10998   1.526   6.173   6.491  0.6594  0.0126 -0.3991
  108OSM    H1S10999   1.428   6.137   6.452  0.4040  0.1831  0.0798
  108OSM    H1T11000   1.586   6.080   6.508 -2.9117 -2.6592 -1.0976
  108OSM     NF11001   1.564   6.184   6.249 -0.1761 -0.2404  0.6957
  108OSM    HNF11002   1.632   6.122   6.212  0.2561  0.2807  0.5958
  108OSM    C2S11003   1.578   6.257   6.371 -0.2127 -0.6319 -0.5766
  108OSM    H2S11004   1.519   6.350   6.360 -0.3182 -0.4831  1.0478
  108OSM    C3S11005   1.724   6.299   6.405 -0.1804 -0.2576  0.7383
  108OSM    H3S11006   1.789   6.211   6.422  0.3274 -0.1883 -0.6383
  108OSM     O311007   1.736   6.379   6.519  0.4178  0.5897 -0.1099
  108OSM    HO311008   1.651   6.366   6.562  1.0730 -0.2419  0.9970
  108OSM    C4S11009   1.792   6.378   6.295  0.2124 -0.4255  0.3317
  108OSM    H4S11010   1.734   6.468   6.270 -0.2821  0.1197  3.1648
  108OSM    C5S11011   1.903   6.336   6.229 -0.3675 -0.4193  0.3585
  108OSM    H5S11012   1.945   6.239   6.258 -1.6720 -1.5491 -1.3112
  108OSM    C6S11013   1.982   6.416   6.136  0.6218 -0.0251  0.0926
  108OSM    H6S11014   2.085   6.426   6.176  0.6607 -1.3702  0.3803
  108OSM    H6T11015   1.950   6.522   6.124  1.6841  0.3061  0.0963
  108OSM    C7S11016   1.982   6.341   6.004  0.5016 -0.3593  0.4461
  108OSM    H7S11017   1.877   6.343   5.970  1.1338  0.8216 -1.6190
  108OSM    H7T11018   1.998   6.233   6.026 -2.1991 -1.1266 -0.9173
  108OSM    C8S11019   2.078   6.401   5.906  0.5329  0.0876 -0.5352
  108OSM    H8S11020   2.179   6.419   5.948  0.4648 -2.9957  1.2954
  108OSM    H8T11021   2.041   6.502   5.879 -1.9298 -0.0021  2.0475
  108OSM    C9S11022   2.096   6.314   5.776 -0.9560 -0.7768  0.3180
  108OSM    H9S11023   2.003   6.255   5.764  0.3689 -3.4654  2.2575
  108OSM    H9T11024   2.186   6.250   5.790  0.5223  1.1523  0.1229
  108OSM   C10S11025   2.125   6.399   5.650 -0.4488  0.3780 -0.6229
  108OSM   H10S11026   2.225   6.436   5.682 -0.0926 -0.4934 -0.6872
  108OSM   H10T11027   2.057   6.484   5.630 -0.7748 -0.0707 -1.4529
  108OSM   C11S11028   2.132   6.320   5.526  0.4141  0.0682 -0.2458
  108OSM   H11S11029   2.045   6.254   5.508  0.4001 -0.1283  0.5456
  108OSM   H11T11030   2.218   6.251   5.515 -0.6962 -1.3649 -0.2706
  108OSM   C12S11031   2.151   6.416   5.402  0.5290  0.4605 -1.0584
  108OSM   H12S11032   2.243   6.476   5.418 -0.8823  2.7331 -0.9637
  108OSM   H12T11033   2.064   6.484   5.395  1.4735  1.6172 -1.7296
  108OSM   C13S11034   2.167   6.332   5.278  0.1240  0.4315 -0.3149
  108OSM   H13S11035   2.070   6.304   5.230  0.8119  2.3206 -3.0786
  108OSM   H13T11036   2.218   6.234   5.288 -0.5288  0.0800 -0.3322
  108OSM   C14S11037   2.231   6.414   5.168 -0.2532  0.0200  0.1287
  108OSM   H14S11038   2.331   6.457   5.194  0.5669 -1.6358 -0.1461
  108OSM   H14T11039   2.152   6.491   5.153  0.6246  0.9740  0.2591
  108OSM   C15S11040   2.228   6.330   5.040  0.3654  0.1779 -0.0385
  108OSM   H15S11041   2.133   6.275   5.026  1.7334 -2.4801  0.4306
  108OSM   H15T11042   2.306   6.252   5.046  1.6741  1.5070  1.2649
  108OSM   C16S11043   2.266   6.405   4.915 -0.3394 -0.3076  0.1642
  108OSM   H16S11044   2.373   6.433   4.928 -0.1687 -1.5321  1.5438
  108OSM   H16T11045   2.205   6.497   4.898  2.5220  1.7439  0.2492
  108OSM   C17S11046   2.259   6.319   4.788 -0.3390 -0.2714 -0.1202
  108OSM   H17S11047   2.169   6.255   4.790  0.9329 -2.1636 -0.3876
  108OSM   H17T11048   2.341   6.244   4.791 -2.0664 -2.3613 -1.7221
  108OSM   C18S11049   2.275   6.403   4.666 -0.0036 -0.6008  0.5048
  108OSM   H18S11050   2.360   6.474   4.667  0.2061 -0.7196 -2.0759
  108OSM   H18T11051   2.190   6.473   4.649  0.0766  0.0010  2.4129
  108OSM   H18U11052   2.283   6.335   4.579  0.5555  1.9781 -1.5954
  108OSM    C1F11053   1.453   6.187   6.178  0.6766  0.2712 -0.0178
  108OSM     OF11054   1.354   6.250   6.221 -0.3609 -0.2652 -0.8066
  108OSM    C2F11055   1.446   6.114   6.044  0.0421  0.4299 -0.7293
  108OSM    H2F11056   1.351   6.152   5.999 -0.5666  0.8551  0.8453
  108OSM    H2G11057   1.426   6.008   6.072  2.4168 -0.3273 -1.6670
  108OSM    C3F11058   1.580   6.127   5.975  0.0845  0.1459  0.4482
  108OSM    H3F11059   1.657   6.085   6.042 -1.5354 -2.1668  0.9878
  108OSM    H3G11060   1.602   6.235   5.955  3.9033 -0.7302 -1.0724
  108OSM    C4F11061   1.595   6.052   5.847  0.2406  0.4802 -0.2174
  108OSM    H4F11062   1.533   6.113   5.778 -1.2971  0.2293  0.8860
  108OSM    H4G11063   1.557   5.947   5.847  2.2659 -0.3111 -1.3882
  108OSM    C5F11064   1.737   6.029   5.781  0.5210  0.3935 -0.6282
  108OSM    H5F11065   1.795   5.955   5.839 -1.2034  0.4164  1.2660
  108OSM    H5G11066   1.791   6.126   5.783 -3.5930  2.9342  0.2494
  108OSM    C6F11067   1.719   5.958   5.649  0.2858  0.2096  0.2123
  108OSM    H6F11068   1.654   6.023   5.587 -0.0250  1.7098  2.0223
  108OSM    H6G11069   1.676   5.856   5.658 -0.0816  0.2973 -0.5209
  108OSM    C7F11070   1.855   5.936   5.583 -0.2852  0.3946  0.0013
  108OSM    H7F11071   1.930   5.868   5.630 -0.2603  0.5580  0.2020
  108OSM    H7G11072   1.908   6.034   5.584 -1.6712  1.1681 -0.4822
  108OSM    C8F11073   1.840   5.893   5.436  0.4729 -0.0810 -0.5387
  108OSM    H8F11074   1.927   5.932   5.378  0.6959 -3.0684 -2.4130
  108OSM    H8G11075   1.747   5.935   5.394  0.0157 -0.8163 -0.2879
  108OSM    C9F11076   1.842   5.745   5.417  0.0200  0.1310  0.0753
  108OSM    H9F11077   1.780   5.685   5.485  1.2163 -2.1999 -0.7702
  108OSM   C10F11078   1.915   5.680   5.324  0.3172 -0.3278  0.1884
  108OSM   H10F11079   1.888   5.574   5.314 -0.3600 -0.0716 -0.8718
  108OSM   C11F11080   2.010   5.723   5.209 -0.4825 -0.2366 -0.2316
  108OSM   H11F11081   2.107   5.684   5.245 -2.1248 -4.1472  0.4358
  108OSM   H11G11082   2.006   5.834   5.204 -0.0110 -0.1849  0.3700
  108OSM   C12F11083   1.969   5.655   5.077 -0.3485  0.1483  0.3282
  108OSM   H12F11084   1.875   5.705   5.044 -1.0203  0.5114  2.5574
  108OSM   H12G11085   1.934   5.551   5.100 -1.4664  0.7587  1.5992
  108OSM   C13F11086   2.085   5.654   4.971 -0.5364  0.0085  0.1751
  108OSM   H13F11087   2.181   5.635   5.023  0.3504  0.6008 -1.1941
  108OSM   H13G11088   2.086   5.759   4.935 -0.3560  0.0495  0.2986
  108OSM   C14F11089   2.064   5.552   4.854  0.2313 -0.2804  0.0833
  108OSM   H14F11090   1.972   5.590   4.804  1.3971  0.4756 -1.5693
  108OSM   H14G11091   2.056   5.452   4.902 -2.1170  0.7287  2.0121
  108OSM   C15F11092   2.173   5.555   4.754 -0.6758 -0.3098  0.2173
  108OSM   H15F11093   2.268   5.574   4.808  0.1091 -1.3310 -0.7409
  108OSM   H15G11094   2.166   5.651   4.699  1.6155  0.5723  1.3375
  108OSM   C16F11095   2.190   5.426   4.674 -0.2145  0.2936 -0.5563
  108OSM   H16F11096   2.098   5.405   4.616  0.6722 -2.8525 -0.9740
  108OSM   H16G11097   2.204   5.350   4.753 -0.7146 -0.1021 -0.8489
  108OSM   C17F11098   2.308   5.426   4.576  1.0740 -0.3131 -0.4898
  108OSM   H17F11099   2.403   5.425   4.634  0.0517 -1.9418  1.2875
  108OSM   H17G11100   2.296   5.521   4.521 -0.8078 -0.1775  0.0893
  108OSM   C18F11101   2.293   5.299   4.485 -0.1769 -0.3564  0.0887
  108OSM   H18F11102   2.239   5.214   4.532 -1.0905  0.6153  0.8385
  108OSM   H18G11103   2.393   5.266   4.449 -0.9325 -1.7247 -0.7974
  108OSM   H18H11104   2.237   5.313   4.390  0.7652  0.0222 -0.4307
  109OSM      N11105   3.314   1.541   6.326  0.6724 -0.1576  0.1027
  109OSM    C1511106   3.206   1.557   6.216 -0.0544 -0.5406  0.2719
  109OSM   H15A11107   3.219   1.646   6.156 -0.3784 -0.2325  0.6584
  109OSM   H15B11108   3.110   1.574   6.263  0.8493  0.9658  1.6953
  109OSM   H15C11109   3.199   1.473   6.149 -0.1472  0.2915 -0.8036
  109OSM    C1411110   3.325   1.673   6.412  0.1747  0.0922 -0.1574
  109OSM   H14A11111   3.362   1.756   6.355 -0.0755 -1.2386 -2.3692
  109OSM   H14B11112   3.392   1.658   6.495  0.5193 -1.5761 -0.7041
  109OSM   H14C11113   3.234   1.703   6.463 -0.5063  0.5086 -1.5738
  109OSM    C1311114   3.264   1.434   6.411 -0.2254  0.2411  0.6931
  109OSM   H13A11115   3.284   1.348   6.349  3.5862  1.8394 -0.6431
  109OSM   H13B11116   3.162   1.439   6.443 -0.2887 -0.5640  0.6440
  109OSM   H13C11117   3.324   1.420   6.500  0.6191 -1.5969 -0.1228
  109OSM    C1211118   3.451   1.517   6.266  0.3321 -0.3649 -0.2124
  109OSM   H12A11119   3.477   1.609   6.218  1.4468  0.1591  1.3180
  109OSM   H12B11120   3.440   1.434   6.197  1.4295 -0.5434 -0.1803
  109OSM    C1111121   3.565   1.466   6.363  0.0671 -0.0948  0.4834
  109OSM   H11A11122   3.647   1.424   6.301 -0.5134  2.0117 -1.8931
  109OSM   H11B11123   3.528   1.372   6.409 -0.9067 -0.6190 -1.2406
  109OSM      P11124   3.720   1.675   6.414  0.2268  0.2707 -0.2495
  109OSM    O1311125   3.773   1.735   6.537  0.1965 -0.0942  0.1093
  109OSM    O1411126   3.823   1.623   6.325  0.1034 -0.1824 -0.0361
  109OSM    O1111127   3.630   1.780   6.335  0.2056  0.4128 -0.0168
  109OSM    O1211128   3.614   1.565   6.448 -0.2173 -0.3576 -0.5175
  109OSM    C1S11129   3.690   1.857   6.236  0.2759 -0.2531  0.3305
  109OSM    H1S11130   3.717   1.798   6.145 -2.0780 -1.4333  0.3379
  109OSM    H1T11131   3.786   1.904   6.265  0.7783  0.9742 -2.8937
  109OSM     NF11132   3.652   2.038   6.075  0.5885 -0.3617 -0.2047
  109OSM    HNF11133   3.712   2.112   6.102 -0.1276  0.5410 -1.0114
  109OSM    C2S11134   3.589   1.971   6.190 -0.6978 -0.8394 -0.0510
  109OSM    H2S11135   3.497   1.918   6.158 -0.3558 -0.4879 -1.6595
  109OSM    C3S11136   3.558   2.065   6.305 -0.5898  0.0242 -0.1790
  109OSM    H3S11137   3.646   2.127   6.334 -1.0008  0.3115  0.4923
  109OSM     O311138   3.514   2.002   6.425  0.5141  0.3043 -0.8047
  109OSM    HO311139   3.542   1.911   6.411 -1.0495 -0.1515 -1.2195
  109OSM    C4S11140   3.447   2.163   6.267 -0.3520 -0.3028 -0.0022
  109OSM    H4S11141   3.475   2.230   6.185  0.2733 -0.3460  0.1750
  109OSM    C5S11142   3.324   2.194   6.317  0.1128 -0.1469  0.4353
  109OSM    H5S11143   3.281   2.131   6.396 -2.5552 -0.0159 -0.8028
  109OSM    C6S11144   3.223   2.295   6.268  0.0392  0.2307  0.2836
  109OSM    H6S11145   3.201   2.370   6.347  1.4124 -0.9199  1.8139
  109OSM    H6T11146   3.130   2.235   6.254  0.8635 -1.2855  1.1294
  109OSM    C7S11147   3.238   2.382   6.137  0.4062 -0.0966 -0.0328
  109OSM    H7S11148   3.341   2.422   6.133 -0.5408  2.3830 -1.4025
  109OSM    H7T11149   3.173   2.471   6.152  0.3128 -0.0120 -0.8646
  109OSM    C8S11150   3.204   2.311   6.003  0.1001  0.9660 -0.0088
  109OSM    H8S11151   3.096   2.289   6.006  0.2217  0.3557 -0.1745
  109OSM    H8T11152   3.249   2.210   5.995 -0.1267  0.6175  2.3321
  109OSM    C9S11153   3.245   2.400   5.889  0.0455 -0.3548 -0.3181
  109OSM    H9S11154   3.355   2.402   5.876 -0.2229 -0.8695 -3.6368
  109OSM    H9T11155   3.211   2.502   5.918 -0.1102 -0.7911  1.1105
  109OSM   C10S11156   3.179   2.355   5.759  0.4011 -0.2793 -0.1125
  109OSM   H10S11157   3.070   2.337   5.762 -0.0839  0.4901 -4.9149
  109OSM   H10T11158   3.229   2.262   5.724 -0.8691 -0.4751 -1.5012
  109OSM   C11S11159   3.199   2.453   5.642  0.3557 -0.0661  0.9340
  109OSM   H11S11160   3.306   2.484   5.638  0.4727 -0.5303  0.3803
  109OSM   H11T11161   3.134   2.537   5.676  0.8099  0.7684 -0.2111
  109OSM   C12S11162   3.157   2.387   5.506  0.0292  0.3459  0.2328
  109OSM   H12S11163   3.231   2.309   5.479 -1.0657 -0.5923 -0.1166
  109OSM   H12T11164   3.161   2.463   5.425  2.3756 -1.1262 -1.1218
  109OSM   C13S11165   3.013   2.329   5.502  0.2014 -0.1426  0.2472
  109OSM   H13S11166   2.941   2.395   5.556 -0.0779  0.6403 -1.0459
  109OSM   H13T11167   3.002   2.235   5.560  2.0976 -0.8045 -0.3905
  109OSM   C14S11168   2.963   2.303   5.355 -0.5458  0.2965  0.6450
  109OSM   H14S11169   3.030   2.221   5.320 -0.1905  0.6167  0.5677
  109OSM   H14T11170   2.982   2.392   5.291 -1.8055  2.2710  2.8702
  109OSM   C15S11171   2.812   2.269   5.343 -0.6246 -0.4045 -0.3311
  109OSM   H15S11172   2.748   2.348   5.387  2.9428  2.6975 -0.2520
  109OSM   H15T11173   2.790   2.185   5.412 -2.9253  0.6962  0.3914
  109OSM   C16S11174   2.751   2.228   5.210  0.1810 -0.2711 -0.5831
  109OSM   H16S11175   2.824   2.163   5.158  1.3187 -0.6416  1.3742
  109OSM   H16T11176   2.733   2.319   5.149 -0.3265 -0.5261 -0.8141
  109OSM   C17S11177   2.619   2.150   5.216 -0.7578  0.0672 -0.7745
  109OSM   H17S11178   2.546   2.216   5.268  1.1327  1.2711  0.4838
  109OSM   H17T11179   2.639   2.061   5.278 -0.4509  0.4483 -0.3180
  109OSM   C18S11180   2.565   2.098   5.085 -0.7932 -0.0893 -0.3303
  109OSM   H18S11181   2.487   2.172   5.057  0.7480  1.4042 -0.8032
  109OSM   H18T11182   2.533   1.993   5.099 -1.5738 -0.0147 -1.4649
  109OSM   H18U11183   2.639   2.087   5.003  0.6101 -3.6251  1.2051
  109OSM    C1F11184   3.664   1.989   5.950 -0.4860 -0.0039  0.1935
  109OSM     OF11185   3.577   1.910   5.911 -0.8497  0.0467  0.0016
  109OSM    C2F11186   3.778   2.025   5.864  0.1991  0.8321  0.2274
  109OSM    H2F11187   3.867   2.057   5.923 -1.6426  0.6478  3.3616
  109OSM    H2G11188   3.758   2.118   5.807  1.1093 -0.4295 -2.2546
  109OSM    C3F11189   3.814   1.910   5.766 -0.1032 -0.3162  0.5614
  109OSM    H3F11190   3.719   1.874   5.720 -1.4906  0.1535  2.8975
  109OSM    H3G11191   3.852   1.828   5.830  1.2087 -0.6731 -0.6090
  109OSM    C4F11192   3.924   1.950   5.665 -0.2174  0.4434  0.2154
  109OSM    H4F11193   4.013   1.977   5.725 -1.1258  2.8594  0.5544
  109OSM    H4G11194   3.898   2.045   5.614  1.9427 -0.0198 -1.9270
  109OSM    C5F11195   3.963   1.844   5.560  0.4602  0.1507 -0.0279
  109OSM    H5F11196   3.872   1.805   5.509  0.3220  0.8044 -0.2937
  109OSM    H5G11197   4.022   1.767   5.614  0.8881  0.8228  0.4741
  109OSM    C6F11198   4.075   1.904   5.466  0.5372  0.6268  0.2626
  109OSM    H6F11199   4.146   1.964   5.527 -0.4075  0.1204  1.9179
  109OSM    H6G11200   4.020   1.965   5.391  1.8355  1.1816 -0.2627
  109OSM    C7F11201   4.144   1.794   5.385 -0.0413 -0.2178  0.3234
  109OSM    H7F11202   4.062   1.746   5.328 -0.3733  0.7056  0.0023
  109OSM    H7G11203   4.191   1.720   5.454  1.8183  0.4522 -0.1554
  109OSM    C8F11204   4.263   1.835   5.290 -0.0964  0.4370 -0.5548
  109OSM    H8F11205   4.347   1.877   5.349  1.0820  0.6807 -2.3352
  109OSM    H8G11206   4.240   1.915   5.216  1.0926 -0.3923 -1.8692
  109OSM    C9F11207   4.308   1.709   5.214 -0.4718  0.1464 -0.7223
  109OSM    H9F11208   4.400   1.669   5.257 -0.5970  0.8447  0.2138
  109OSM   C10F11209   4.268   1.661   5.090  0.1921 -0.4771 -0.6955
  109OSM   H10F11210   4.311   1.570   5.046  1.0489 -0.2410 -0.3746
  109OSM   C11F11211   4.146   1.725   5.016 -0.4728  0.0493  0.2466
  109OSM   H11F11212   4.113   1.826   5.050  0.8302  0.6926 -0.3024
  109OSM   H11G11213   4.049   1.671   5.021 -0.3081 -0.1427  1.7972
  109OSM   C12F11214   4.193   1.758   4.873  0.4756 -0.0178 -0.5592
  109OSM   H12F11215   4.239   1.665   4.834  0.8355  0.0548 -0.3049
  109OSM   H12G11216   4.283   1.823   4.869  1.5411 -1.1941  2.0701
  109OSM   C13F11217   4.078   1.794   4.773  0.0279 -0.3858 -0.4589
  109OSM   H13F11218   4.046   1.896   4.802  1.0727 -0.4836  1.1759
  109OSM   H13G11219   3.988   1.730   4.787 -0.7947  0.7901 -0.2693
  109OSM   C14F11220   4.120   1.797   4.630 -0.0470  0.2826  0.3284
  109OSM   H14F11221   4.172   1.704   4.598 -0.9548 -0.2197  0.2677
  109OSM   H14G11222   4.200   1.874   4.625 -0.8368  1.0473 -1.6384
  109OSM   C15F11223   4.006   1.821   4.526  0.1370  0.1907  0.6342
  109OSM   H15F11224   3.932   1.740   4.540 -0.4306  0.7948  1.2217
  109OSM   H15G11225   4.048   1.799   4.426 -1.4376 -0.2043  0.0339
  109OSM   C16F11226   3.947   1.967   4.528 -0.1623  0.2220 -0.1391
  109OSM   H16F11227   4.029   2.039   4.513  0.1543  0.1472  1.1073
  109OSM   H16G11228   3.903   1.980   4.629  0.3111  1.3903 -0.0756
  109OSM   C17F11229   3.839   1.969   4.418 -0.0053 -1.1503 -0.4770
  109OSM   H17F11230   3.776   2.056   4.445  0.0426 -1.7356  1.6698
  109OSM   H17G11231   3.777   1.877   4.416 -3.2275  0.8861 -0.9092
  109OSM   C18F11232   3.893   2.009   4.277  0.0329  0.1097  0.1388
  109OSM   H18F11233   3.965   1.935   4.235 -0.4636  0.7177 -1.9284
  109OSM   H18G11234   3.946   2.104   4.298  1.1627 -0.7109  1.1556
  109OSM   H18H11235   3.809   2.022   4.204  0.5100 -2.0097 -0.8662
  110OSM      N11236   2.581   6.309   6.568 -0.3575 -0.5253  0.1788
  110OSM    C1511237   2.478   6.414   6.578  0.1059 -0.0969 -0.4181
  110OSM   H15A11238   2.426   6.405   6.672  1.7230  0.6674  0.6013
  110OSM   H15B11239   2.407   6.402   6.498 -0.9264  1.2948  0.2631
  110OSM   H15C11240   2.521   6.513   6.574 -2.2176  0.9957  0.0257
  110OSM    C1411241   2.674   6.321   6.680 -0.2428  0.2302 -0.6301
  110OSM   H14A11242   2.702   6.425   6.676  2.5914 -0.4970 -2.9308
  110OSM   H14B11243   2.757   6.253   6.670 -2.0135 -2.0553 -0.6504
  110OSM   H14C11244   2.622   6.291   6.770 -1.2820  0.1839 -1.2190
  110OSM    C1311245   2.519   6.175   6.563  0.0594 -0.1891  0.2899
  110OSM   H13A11246   2.463   6.166   6.471  0.8871 -0.8097 -0.1726
  110OSM   H13B11247   2.466   6.154   6.655  1.3735 -0.0510  1.0907
  110OSM   H13C11248   2.599   6.102   6.558 -0.0003 -0.2105 -0.4696
  110OSM    C1211249   2.666   6.327   6.442  0.3400 -0.0529  0.3216
  110OSM   H12A11250   2.608   6.298   6.356  2.5102 -0.2938 -1.1344
  110OSM   H12B11251   2.742   6.251   6.450  0.9409  0.6820  2.3322
  110OSM    C1111252   2.715   6.461   6.408 -0.0206  0.1654 -0.3856
  110OSM   H11A11253   2.630   6.515   6.362  0.0915  0.3391 -0.3877
  110OSM   H11B11254   2.794   6.446   6.331  0.4981 -1.1870  0.3768
  110OSM      P11255   2.713   6.688   6.553 -0.0291  0.1439  0.3488
  110OSM    O1311256   2.597   6.673   6.645  0.1943 -0.2928  0.4775
  110OSM    O1411257   2.827   6.767   6.607  0.0985  0.0270 -0.1309
  110OSM    O1111258   2.666   6.756   6.414 -0.3471  0.1251 -0.0753
  110OSM    O1211259   2.766   6.536   6.521  0.3473  0.1136 -0.1909
  110OSM    C1S11260   2.752   6.775   6.304 -0.3611 -0.3544 -0.2485
  110OSM    H1S11261   2.855   6.745   6.330  0.7581  3.0449 -0.3003
  110OSM    H1T11262   2.764   6.884   6.287  0.0604 -0.1844  0.9847
  110OSM     NF11263   2.815   6.728   6.065  0.8790 -0.3963 -0.2493
  110OSM    HNF11264   2.821   6.818   6.022  1.9844  0.0537  0.7809
  110OSM    C2S11265   2.708   6.714   6.163  0.5774  0.2201 -0.5180
  110OSM    H2S11266   2.698   6.605   6.185 -0.4800  0.4615  0.2539
  110OSM    C3S11267   2.565   6.750   6.113 -0.1873  0.3115 -0.1560
  110OSM    H3S11268   2.575   6.856   6.083  2.2238  0.4468  0.8614
  110OSM     O311269   2.464   6.735   6.214 -0.2991 -0.1572 -0.0438
  110OSM    HO311270   2.515   6.758   6.292  1.9411 -0.4312 -1.3391
  110OSM    C4S11271   2.538   6.665   5.989  0.3648  0.5844  0.0060
  110OSM    H4S11272   2.532   6.723   5.896  1.8344  2.1032  0.8156
  110OSM    C5S11273   2.536   6.529   5.985  0.5052  0.2605  0.3304
  110OSM    H5S11274   2.551   6.465   6.073  0.8121 -1.0398 -0.6370
  110OSM    C6S11275   2.503   6.463   5.853  0.8060  0.4324  0.3509
  110OSM    H6S11276   2.479   6.540   5.777 -2.6533  0.5696  1.3831
  110OSM    H6T11277   2.410   6.402   5.861 -0.4989  2.4454  1.3431
  110OSM    C7S11278   2.605   6.362   5.799  0.1682 -0.3061  0.4995
  110OSM    H7S11279   2.622   6.279   5.871  0.0273 -3.1100 -2.4713
  110OSM    H7T11280   2.704   6.411   5.792 -0.2780  0.4397 -1.0817
  110OSM    C8S11281   2.568   6.295   5.661  0.1869  0.2773 -0.1771
  110OSM    H8S11282   2.487   6.221   5.682 -0.2567 -0.0653 -2.7183
  110OSM    H8T11283   2.663   6.244   5.637  0.7393  1.0403  0.3543
  110OSM    C9S11284   2.536   6.388   5.545  0.0434  0.3331  0.5691
  110OSM    H9S11285   2.618   6.463   5.531  1.1508 -0.9179  0.1383
  110OSM    H9T11286   2.444   6.445   5.572  0.9008  1.5739  0.9831
  110OSM   C10S11287   2.516   6.317   5.407  0.1082 -1.2818 -0.8426
  110OSM   H10S11288   2.459   6.392   5.347  1.0577  0.5336  0.4353
  110OSM   H10T11289   2.446   6.235   5.434 -0.6055 -0.0844  1.1664
  110OSM   C11S11290   2.640   6.269   5.326  0.0163  0.4067 -0.5913
  110OSM   H11S11291   2.701   6.182   5.360  1.0247  0.0670 -3.1304
  110OSM   H11T11292   2.700   6.361   5.316 -0.3920  1.0982  2.2145
  110OSM   C12S11293   2.616   6.239   5.176  0.0879 -0.3444  0.1154
  110OSM   H12S11294   2.578   6.335   5.134 -0.4267  0.6645  2.7107
  110OSM   H12T11295   2.523   6.178   5.169 -2.6938  3.6621 -2.2560
  110OSM   C13S11296   2.739   6.195   5.105 -0.1159 -0.2615  0.3255
  110OSM   H13S11297   2.769   6.093   5.137 -1.5273 -1.4009 -1.7090
  110OSM   H13T11298   2.818   6.267   5.132 -1.3711  0.1939  3.1283
  110OSM   C14S11299   2.721   6.184   4.950 -0.0351 -0.4928  0.0508
  110OSM   H14S11300   2.615   6.152   4.943 -0.0617 -0.7019  1.2374
  110OSM   H14T11301   2.774   6.091   4.922 -1.7917 -2.1860  1.9800
  110OSM   C15S11302   2.772   6.302   4.858  0.2480  1.1630  0.0266
  110OSM   H15S11303   2.877   6.324   4.886  0.9415  3.9130 -3.9649
  110OSM   H15T11304   2.710   6.393   4.872 -0.7766  1.1562 -3.4563
  110OSM   C16S11305   2.785   6.259   4.714 -0.1554 -0.5228  0.0284
  110OSM   H16S11306   2.853   6.173   4.698 -1.4730 -1.1805 -2.5348
  110OSM   H16T11307   2.825   6.346   4.658 -1.4649  2.0434  2.7490
  110OSM   C17S11308   2.651   6.213   4.649  0.4110  0.4111  0.4146
  110OSM   H17S11309   2.582   6.296   4.675 -0.5257 -0.0553 -0.4959
  110OSM   H17T11310   2.616   6.118   4.695 -0.1680 -0.5183 -1.7824
  110OSM   C18S11311   2.658   6.200   4.492 -0.7517 -0.6205 -0.1227
  110OSM   H18S11312   2.596   6.123   4.441 -0.2748 -0.8514 -0.3653
  110OSM   H18T11313   2.760   6.199   4.449 -1.1932  1.3232 -1.3252
  110OSM   H18U11314   2.609   6.288   4.446  0.7019 -0.0633 -0.6694
  110OSM    C1F11315   2.923   6.666   6.089 -0.7794  0.2633 -0.1839
  110OSM     OF11316   2.925   6.573   6.171 -0.0201 -0.4071  0.9600
  110OSM    C2F11317   3.054   6.717   6.022  0.5978 -0.3609 -0.5094
  110OSM    H2F11318   3.130   6.727   6.103 -0.5646 -0.5643  0.6510
  110OSM    H2G11319   3.037   6.815   5.974  2.7701  0.3041 -0.0245
  110OSM    C3F11320   3.109   6.614   5.919 -0.0515  0.0962 -0.4811
  110OSM    H3F11321   3.026   6.600   5.846 -0.6842 -0.6427  0.3530
  110OSM    H3G11322   3.118   6.512   5.964 -0.3915 -0.3637 -1.4306
  110OSM    C4F11323   3.228   6.656   5.835 -0.8344  0.3028  0.0174
  110OSM    H4F11324   3.318   6.661   5.900 -1.3743 -3.2814  1.3209
  110OSM    H4G11325   3.205   6.757   5.796 -1.5806  0.5809  1.1322
  110OSM    C5F11326   3.257   6.566   5.708  0.4027 -0.0743  0.0768
  110OSM    H5F11327   3.165   6.531   5.657  1.1954 -1.5396 -0.4037
  110OSM    H5G11328   3.298   6.475   5.757  0.7639  1.4541  2.8185
  110OSM    C6F11329   3.358   6.632   5.617 -0.2077  0.0851  0.4388
  110OSM    H6F11330   3.450   6.660   5.673 -1.1089  2.3824  0.8905
  110OSM    H6G11331   3.319   6.731   5.585 -1.8401 -0.9866 -1.0949
  110OSM    C7F11332   3.387   6.548   5.490  0.4921  0.3261 -0.7044
  110OSM    H7F11333   3.370   6.440   5.512  0.8154  0.8208  2.5016
  110OSM    H7G11334   3.494   6.552   5.461  0.6956 -1.2822 -0.3087
  110OSM    C8F11335   3.304   6.595   5.369  0.1269 -0.5267 -0.4754
  110OSM    H8F11336   3.319   6.702   5.345 -0.4320 -0.2958  0.1817
  110OSM    H8G11337   3.196   6.592   5.393  0.3941  1.1970  1.2229
  110OSM    C9F11338   3.334   6.504   5.254  0.5356 -0.2024 -0.2170
  110OSM    H9F11339   3.318   6.397   5.276  1.8255 -0.0818  1.5058
  110OSM   C10F11340   3.360   6.535   5.126 -0.7629  0.2457 -0.5082
  110OSM   H10F11341   3.361   6.455   5.050  1.9357  2.0238 -2.5406
  110OSM   C11F11342   3.379   6.670   5.066 -0.5851 -0.0723 -0.4994
  110OSM   H11F11343   3.418   6.733   5.149  0.4597 -0.5486 -0.6135
  110OSM   H11G11344   3.282   6.710   5.031  0.3680  2.9441  0.0143
  110OSM   C12F11345   3.474   6.667   4.941 -0.3095 -0.4526 -0.6652
  110OSM   H12F11346   3.567   6.616   4.973 -0.3173  0.1589  0.3642
  110OSM   H12G11347   3.493   6.770   4.903 -1.3137  0.8009  1.9959
  110OSM   C13F11348   3.421   6.594   4.816 -0.2297  0.2989  0.7967
  110OSM   H13F11349   3.361   6.673   4.767 -2.6115 -0.9154  1.5622
  110OSM   H13G11350   3.346   6.513   4.836  1.5096 -0.6716  4.1509
  110OSM   C14F11351   3.539   6.534   4.729  0.3648  0.2954 -0.1606
  110OSM   H14F11352   3.591   6.452   4.783  1.9499 -1.2694 -3.7088
  110OSM   H14G11353   3.614   6.612   4.705  0.0287  1.1182  1.3808
  110OSM   C15F11354   3.492   6.485   4.588  0.5854  0.8711 -0.4938
  110OSM   H15F11355   3.406   6.419   4.612  1.0292  1.6231  4.0455
  110OSM   H15G11356   3.574   6.426   4.541  0.4847 -1.4364  2.0132
  110OSM   C16F11357   3.439   6.598   4.496  0.3203 -0.1231  0.3535
  110OSM   H16F11358   3.529   6.654   4.462 -2.3343  2.4947 -3.0520
  110OSM   H16G11359   3.375   6.660   4.563  1.8158 -0.0656  1.8133
  110OSM   C17F11360   3.361   6.537   4.376  0.0158 -0.0350 -0.5099
  110OSM   H17F11361   3.274   6.485   4.423  0.7286  0.3480  1.3506
  110OSM   H17G11362   3.423   6.460   4.324  1.7807  0.8643  0.1711
  110OSM   C18F11363   3.327   6.644   4.279  0.2983 -0.6681 -0.3665
  110OSM   H18F11364   3.269   6.731   4.315  1.7728 -0.0556  0.6150
  110OSM   H18G11365   3.280   6.595   4.191 -0.2267 -3.2598  1.2112
  110OSM   H18H11366   3.426   6.684   4.249 -0.3027  0.3352 -1.0387
  111OSM      N11367   2.009   4.343   6.717 -0.3717 -0.4576 -0.2059
  111OSM    C1511368   2.054   4.256   6.831  0.3319  0.4031 -0.3975
  111OSM   H15A11369   1.972   4.214   6.888  0.4974  0.5758 -0.0330
  111OSM   H15B11370   2.107   4.314   6.904 -1.9227  0.4654  1.3301
  111OSM   H15C11371   2.124   4.179   6.800 -0.9028 -1.6553  1.5899
  111OSM    C1411372   1.928   4.452   6.772  0.8812 -0.2496  0.6877
  111OSM   H14A11373   1.900   4.518   6.691  1.5276 -0.0959  0.5840
  111OSM   H14B11374   1.980   4.516   6.841 -1.0159 -0.4149  2.3646
  111OSM   H14C11375   1.839   4.419   6.824  0.8260  0.9611  1.3996
  111OSM    C1311376   2.125   4.402   6.643  0.8431 -0.5617 -0.3117
  111OSM   H13A11377   2.093   4.445   6.550  0.6765 -1.6116 -0.7609
  111OSM   H13B11378   2.199   4.323   6.633  2.0799  0.1791  2.0071
  111OSM   H13C11379   2.179   4.473   6.704 -0.4295  1.6350 -1.6139
  111OSM    C1211380   1.923   4.247   6.644  0.9054  0.0119 -0.3909
  111OSM   H12A11381   1.829   4.242   6.697  1.3310 -1.2461  0.2775
  111OSM   H12B11382   1.982   4.157   6.643  2.0752  0.7151  1.0458
  111OSM    C1111383   1.879   4.299   6.502  0.3316 -0.3577  0.1841
  111OSM   H11A11384   1.828   4.216   6.448  1.9042 -1.0708 -0.2739
  111OSM   H11B11385   1.968   4.304   6.436 -0.6782 -2.8712 -1.5525
  111OSM      P11386   1.640   4.413   6.520 -0.0751  0.1163 -0.1354
  111OSM    O1311387   1.601   4.305   6.612 -0.2524  0.2661 -0.2111
  111OSM    O1411388   1.592   4.547   6.553  0.0477 -0.2710  0.2072
  111OSM    O1111389   1.577   4.384   6.380  0.2940  0.6054 -0.1672
  111OSM    O1211390   1.795   4.414   6.503 -0.0246  0.1850  0.8466
  111OSM    C1S11391   1.545   4.480   6.279  0.5679 -0.5157 -0.7514
  111OSM    H1S11392   1.632   4.548   6.266 -0.3547  1.2116  1.3385
  111OSM    H1T11393   1.451   4.535   6.300  0.5524 -0.3510 -1.2353
  111OSM     NF11394   1.521   4.506   6.041 -0.0201  0.1454  0.2848
  111OSM    HNF11395   1.438   4.501   5.986  0.0173 -1.6536  0.3618
  111OSM    C2S11396   1.531   4.407   6.149  0.0786 -0.3045  0.0139
  111OSM    H2S11397   1.626   4.349   6.154  1.2642  1.6052  1.0172
  111OSM    C3S11398   1.411   4.305   6.144 -0.7436  0.0207 -0.8208
  111OSM    H3S11399   1.328   4.378   6.139 -0.2233  0.7300  0.3084
  111OSM     O311400   1.395   4.234   6.267  0.3331 -0.3872  0.0744
  111OSM    HO311401   1.467   4.269   6.321  1.1075 -0.5808 -0.8054
  111OSM    C4S11402   1.416   4.214   6.026  0.2789  0.3894  0.2405
  111OSM    H4S11403   1.374   4.267   5.939  0.0945 -0.0205  0.0751
  111OSM    C5S11404   1.470   4.093   6.011  0.0890  0.7886 -0.1710
  111OSM    H5S11405   1.501   4.044   6.104 -1.1721 -0.2902 -0.2921
  111OSM    C6S11406   1.470   4.002   5.890 -0.2616  0.2625 -0.7540
  111OSM    H6S11407   1.453   3.895   5.916 -0.0831  0.3257 -0.3760
  111OSM    H6T11408   1.568   4.010   5.837  0.9380 -0.7514  1.1893
  111OSM    C7S11409   1.363   4.042   5.793 -0.3288  0.6418 -0.8129
  111OSM    H7S11410   1.349   4.148   5.762  0.2804  0.8968 -0.2403
  111OSM    H7T11411   1.271   4.019   5.850  0.8933  1.1283  1.4777
  111OSM    C8S11412   1.351   3.961   5.661 -0.1357 -0.6879 -0.4809
  111OSM    H8S11413   1.333   3.856   5.696 -0.4040 -0.2229  0.8535
  111OSM    H8T11414   1.443   3.988   5.605 -0.5864  3.0395  0.3386
  111OSM    C9S11415   1.235   3.993   5.573  0.4773 -0.8789  0.7537
  111OSM    H9S11416   1.225   4.090   5.520  0.7585 -0.0171  2.2144
  111OSM    H9T11417   1.145   3.990   5.639 -0.5325  0.3702 -0.5209
  111OSM   C10S11418   1.199   3.894   5.452  0.4366 -0.8147 -0.0463
  111OSM   H10S11419   1.210   3.788   5.484 -1.1658 -0.7068  0.9972
  111OSM   H10T11420   1.258   3.925   5.364  0.0766  0.0049 -0.0071
  111OSM   C11S11421   1.053   3.912   5.414  0.1454  0.8538 -0.8768
  111OSM   H11S11422   1.033   4.020   5.403 -2.9369  0.1794 -3.0092
  111OSM   H11T11423   0.989   3.876   5.497  0.1514 -0.5144 -1.4350
  111OSM   C12S11424   1.019   3.840   5.282  0.1282  0.4012 -1.1307
  111OSM   H12S11425   0.909   3.830   5.270  0.0508  2.7852 -3.1670
  111OSM   H12T11426   1.044   3.733   5.302  0.3703  0.2886 -1.9992
  111OSM   C13S11427   1.076   3.907   5.164 -0.7142  0.3659  0.1079
  111OSM   H13S11428   1.183   3.936   5.175 -0.0574 -0.8171 -2.3042
  111OSM   H13T11429   1.017   4.000   5.150 -0.3576  1.0338  2.5634
  111OSM   C14S11430   1.070   3.831   5.026 -0.3971  0.1754  0.2839
  111OSM   H14S11431   1.123   3.735   5.045 -0.5542  0.0388  0.0310
  111OSM   H14T11432   1.142   3.883   4.959  1.6703 -2.3990  0.3459
  111OSM   C15S11433   0.921   3.826   4.981  0.0335 -0.5446 -0.2771
  111OSM   H15S11434   0.882   3.930   4.987  2.0623  0.2937 -0.9451
  111OSM   H15T11435   0.844   3.763   5.032 -2.6557  1.8446 -1.1213
  111OSM   C16S11436   0.913   3.785   4.834 -0.1673  0.5021 -0.0568
  111OSM   H16S11437   0.962   3.689   4.807  0.9702  2.0475 -4.2615
  111OSM   H16T11438   0.973   3.862   4.782 -0.9011  0.7534 -0.5410
  111OSM   C17S11439   0.769   3.811   4.771 -0.0676 -0.1258  0.0701
  111OSM   H17S11440   0.788   3.814   4.661  3.1940  4.0214  0.4895
  111OSM   H17T11441   0.745   3.918   4.789  2.1462  0.2000  1.4382
  111OSM   C18S11442   0.663   3.710   4.813 -0.5743  0.7950 -0.5317
  111OSM   H18S11443   0.658   3.684   4.921 -3.0100  1.8992 -0.3271
  111OSM   H18T11444   0.692   3.618   4.757 -0.1069 -0.7039  2.0447
  111OSM   H18U11445   0.559   3.735   4.785 -0.3427  0.0597 -2.2286
  111OSM    C1F11446   1.607   4.588   5.997 -0.3832  0.3733  0.8536
  111OSM     OF11447   1.722   4.588   6.043 -0.0931 -0.2045  0.2251
  111OSM    C2F11448   1.567   4.666   5.878 -0.5678 -0.3835 -0.4665
  111OSM    H2F11449   1.569   4.771   5.913  0.8306 -1.0453  1.6517
  111OSM    H2G11450   1.468   4.646   5.832 -1.2014  0.2864  0.5722
  111OSM    C3F11451   1.691   4.659   5.794 -0.9030  0.4212  0.3587
  111OSM    H3F11452   1.709   4.555   5.759  0.1103  0.6140  0.2727
  111OSM    H3G11453   1.781   4.703   5.841  0.0265  0.9653 -1.8195
  111OSM    C4F11454   1.687   4.742   5.666 -0.6391 -0.2347 -0.5140
  111OSM    H4F11455   1.788   4.740   5.620 -0.8842  1.7482 -1.2279
  111OSM    H4G11456   1.679   4.848   5.699  3.0324  0.6097 -1.8915
  111OSM    C5F11457   1.583   4.694   5.564  0.2248  0.2059 -0.0222
  111OSM    H5F11458   1.487   4.743   5.593  0.2548  0.2507  0.0012
  111OSM    H5G11459   1.567   4.584   5.566  2.2212 -0.1018  0.4137
  111OSM    C6F11460   1.629   4.740   5.418 -0.2862  0.4131  0.6168
  111OSM    H6F11461   1.723   4.688   5.391  0.0266  0.7837  0.9757
  111OSM    H6G11462   1.658   4.845   5.438 -1.7907  0.3759  3.5664
  111OSM    C7F11463   1.520   4.753   5.303 -0.5051  0.3429  0.6615
  111OSM    H7F11464   1.435   4.812   5.345  0.7134  2.1995  0.6083
  111OSM    H7G11465   1.496   4.647   5.281  1.2521  0.0561 -0.0400
  111OSM    C8F11466   1.561   4.839   5.184  0.0372  0.1653  0.0029
  111OSM    H8F11467   1.651   4.793   5.138  1.1030  1.0964  1.1260
  111OSM    H8G11468   1.592   4.940   5.217 -0.9180  1.2000 -2.0323
  111OSM    C9F11469   1.454   4.871   5.075 -0.4935  0.8224 -0.1840
  111OSM    H9F11470   1.352   4.868   5.115 -0.6743 -0.9077 -0.7396
  111OSM   C10F11471   1.490   4.921   4.955  0.4300  0.1444 -0.5294
  111OSM   H10F11472   1.406   4.932   4.883  1.7858 -0.0148 -2.2066
  111OSM   C11F11473   1.628   4.950   4.903  0.7548  0.2907 -0.4690
  111OSM   H11F11474   1.649   4.890   4.812  0.7810 -0.8233  0.2582
  111OSM   H11G11475   1.699   4.923   4.983  2.1105 -0.1462 -1.7848
  111OSM   C12F11476   1.632   5.103   4.891 -0.0518  0.2768  0.0447
  111OSM   H12F11477   1.632   5.158   4.987  1.0763  0.3962 -0.0081
  111OSM   H12G11478   1.542   5.131   4.832 -1.6017 -2.2736  1.0507
  111OSM   C13F11479   1.763   5.143   4.828 -0.6177  0.1985  0.9723
  111OSM   H13F11480   1.762   5.099   4.726  1.9711 -0.8468  1.3368
  111OSM   H13G11481   1.849   5.095   4.879 -2.1705 -2.2671  1.4615
  111OSM   C14F11482   1.778   5.295   4.803 -0.1756  0.3675 -0.0397
  111OSM   H14F11483   1.854   5.313   4.724  1.1409  0.5796  1.2376
  111OSM   H14G11484   1.826   5.339   4.893  1.8275 -2.4825  0.4011
  111OSM   C15F11485   1.652   5.378   4.761  0.1464 -0.0461  0.0682
  111OSM   H15F11486   1.574   5.349   4.835 -1.1988 -0.6484 -1.5192
  111OSM   H15G11487   1.614   5.334   4.666  1.5463  2.4404 -1.7695
  111OSM   C16F11488   1.693   5.522   4.735  0.1164  0.5999 -0.0690
  111OSM   H16F11489   1.780   5.524   4.666 -1.5024 -1.4014 -2.3532
  111OSM   H16G11490   1.722   5.560   4.835 -2.9682  0.6642  0.9184
  111OSM   C17F11491   1.579   5.610   4.684 -0.0648  0.6484 -0.2570
  111OSM   H17F11492   1.489   5.598   4.749 -0.0527  0.7359 -0.2246
  111OSM   H17G11493   1.562   5.578   4.579  2.6909  0.4078 -0.6989
  111OSM   C18F11494   1.608   5.759   4.678 -0.4494 -0.2950  0.2370
  111OSM   H18F11495   1.677   5.776   4.593 -0.6271  0.0166  0.1530
  111OSM   H18G11496   1.657   5.797   4.770 -1.9530  0.3667  0.8035
  111OSM   H18H11497   1.513   5.815   4.662 -0.0821  0.5570  0.9390
  112OSM      N11498   3.783   6.740   6.815  0.2416  0.7504  0.2947
  112OSM    C1511499   3.721   6.627   6.891  0.0134 -0.0469  0.4308
  112OSM   H15A11500   3.744   6.625   6.997 -0.5943  2.4515  0.6813
  112OSM   H15B11501   3.737   6.529   6.848  0.8360  0.2863 -0.0388
  112OSM   H15C11502   3.613   6.636   6.890  0.0027 -0.1836 -1.0270
  112OSM    C1411503   3.772   6.855   6.901 -1.0478 -0.2398 -0.4890
  112OSM   H14A11504   3.812   6.940   6.848 -0.5307 -1.3870 -2.0036
  112OSM   H14B11505   3.837   6.842   6.987 -0.3198  1.6547 -0.6985
  112OSM   H14C11506   3.678   6.880   6.948 -0.0895  2.2614  0.3047
  112OSM    C1311507   3.928   6.692   6.804  0.9073 -0.1036 -0.1612
  112OSM   H13A11508   3.935   6.600   6.747  0.3477 -0.2449 -0.0052
  112OSM   H13B11509   3.973   6.680   6.901  0.4777 -0.5637 -0.0172
  112OSM   H13C11510   3.992   6.764   6.755 -0.2662  1.1712  0.1272
  112OSM    C1211511   3.727   6.768   6.671 -0.1105  0.5580 -0.7186
  112OSM   H12A11512   3.620   6.765   6.684 -0.0463  0.9466 -0.0449
  112OSM   H12B11513   3.753   6.679   6.616  1.0064  0.2361  0.2684
  112OSM    C1111514   3.767   6.896   6.595  0.1283 -0.3966  0.4851
  112OSM   H11A11515   3.754   6.889   6.485  0.6289  1.9764  0.2267
  112OSM   H11B11516   3.875   6.915   6.613  0.4021 -0.7366 -0.7469
  112OSM      P11517   3.526   7.014   6.647 -0.4888 -0.1513  0.5131
  112OSM    O1311518   3.460   6.890   6.690 -0.5810  0.1191 -0.6845
  112OSM    O1411519   3.491   7.137   6.717 -0.2958 -0.0803  0.0176
  112OSM    O1111520   3.489   7.031   6.495  0.0004  0.9619  0.0695
  112OSM    O1211521   3.688   7.003   6.640  0.3661  0.0177  0.0222
  112OSM    C1S11522   3.539   7.146   6.427  0.6508 -0.5202 -0.5237
  112OSM    H1S11523   3.624   7.197   6.477 -0.9102  0.0918  1.6528
  112OSM    H1T11524   3.460   7.225   6.426 -0.4564 -1.5771  0.5405
  112OSM     NF11525   3.641   7.220   6.216 -0.1142 -0.1608 -0.0021
  112OSM    HNF11526   3.598   7.301   6.177 -1.8787 -1.2599 -0.4942
  112OSM    C2S11527   3.564   7.113   6.277  0.1995  0.2201 -0.5692
  112OSM    H2S11528   3.622   7.018   6.280 -2.8881 -1.9106 -2.2652
  112OSM    C3S11529   3.437   7.075   6.206 -0.0599 -0.3217 -0.2181
  112OSM    H3S11530   3.368   7.161   6.194 -1.3903 -1.1375  1.1584
  112OSM     O311531   3.361   6.973   6.266  0.2986 -0.1816  0.1031
  112OSM    HO311532   3.410   6.955   6.347 -0.0912 -1.4475  0.0823
  112OSM    C4S11533   3.475   7.034   6.067 -0.3984 -0.3564  0.2215
  112OSM    H4S11534   3.559   6.965   6.054  0.3916  0.5282  0.4818
  112OSM    C5S11535   3.412   7.083   5.953 -0.2689  0.4260  0.4201
  112OSM    H5S11536   3.331   7.156   5.964 -0.9531 -0.1272 -0.7274
  112OSM    C6S11537   3.441   7.029   5.814 -0.8946 -0.5071  0.2682
  112OSM    H6S11538   3.441   7.120   5.749 -0.1249  0.7786  1.9885
  112OSM    H6T11539   3.367   6.951   5.788 -2.9733  1.2412  0.6637
  112OSM    C7S11540   3.583   6.969   5.791 -0.2544  0.0705 -0.6327
  112OSM    H7S11541   3.581   6.872   5.846 -2.4351  0.1748 -0.4632
  112OSM    H7T11542   3.669   7.026   5.832 -1.0498  0.7417  0.1357
  112OSM    C8S11543   3.621   6.942   5.642 -0.2077 -0.1542  0.2922
  112OSM    H8S11544   3.603   7.036   5.586 -2.3619 -0.7961 -0.1766
  112OSM    H8T11545   3.556   6.864   5.597  0.9247  0.8967 -3.5521
  112OSM    C9S11546   3.763   6.890   5.611 -0.1885  0.2188  0.1183
  112OSM    H9S11547   3.775   6.809   5.686  2.9590  3.2505  3.3407
  112OSM    H9T11548   3.837   6.968   5.642  2.0558 -1.8976  0.3493
  112OSM   C10S11549   3.795   6.828   5.475 -0.2115 -0.6581 -1.1402
  112OSM   H10S11550   3.734   6.735   5.469 -1.7634  0.4115 -2.8464
  112OSM   H10T11551   3.902   6.799   5.481 -0.6200 -2.0674 -0.1477
  112OSM   C11S11552   3.778   6.915   5.357 -0.1438  0.2021  0.2577
  112OSM   H11S11553   3.842   7.005   5.367  0.5093 -0.4131  2.2084
  112OSM   H11T11554   3.672   6.949   5.361  0.2214  1.3517  0.4437
  112OSM   C12S11555   3.809   6.848   5.220  0.5537 -0.5030  0.3091
  112OSM   H12S11556   3.775   6.743   5.220  0.8507 -0.6596  3.0030
  112OSM   H12T11557   3.918   6.852   5.202  0.4067 -1.5923 -0.9288
  112OSM   C13S11558   3.738   6.913   5.098 -0.4417 -0.3296 -0.0427
  112OSM   H13S11559   3.629   6.899   5.114 -0.5019  1.4361  1.4175
  112OSM   H13T11560   3.782   6.850   5.017 -0.2446 -0.9696  0.5525
  112OSM   C14S11561   3.760   7.066   5.076 -0.7541 -0.0271 -0.4926
  112OSM   H14S11562   3.867   7.096   5.070 -0.4478 -0.7646  0.8654
  112OSM   H14T11563   3.715   7.110   5.167 -3.2684  0.4767 -1.8715
  112OSM   C15S11564   3.705   7.120   4.945  0.1545 -0.5721  0.5095
  112OSM   H15S11565   3.594   7.115   4.946  0.0718  0.6213  3.0030
  112OSM   H15T11566   3.749   7.062   4.861 -2.2388 -0.8204 -0.6704
  112OSM   C16S11567   3.748   7.263   4.914 -0.4144  0.7597  0.4112
  112OSM   H16S11568   3.711   7.283   4.811  1.6875  1.5295 -0.2483
  112OSM   H16T11569   3.859   7.265   4.925 -0.3097 -1.4383  0.2476
  112OSM   C17S11570   3.687   7.352   5.025  0.3753 -0.4713  0.3401
  112OSM   H17S11571   3.738   7.324   5.120 -0.0965 -0.9658  0.4602
  112OSM   H17T11572   3.577   7.330   5.026  0.4267 -0.8229 -0.7318
  112OSM   C18S11573   3.703   7.507   5.002 -0.6885  0.1631 -0.3231
  112OSM   H18S11574   3.807   7.546   5.015 -0.0648 -1.0008 -1.5924
  112OSM   H18T11575   3.652   7.569   5.079 -0.1995  3.8123 -2.6925
  112OSM   H18U11576   3.654   7.533   4.906 -0.6425  1.8227  0.0746
  112OSM    C1F11577   3.772   7.235   6.235 -0.2138  0.8988  0.0150
  112OSM     OF11578   3.830   7.175   6.323  0.6774  0.3273 -0.1119
  112OSM    C2F11579   3.841   7.333   6.150 -0.3809 -0.8122  0.3934
  112OSM    H2F11580   3.892   7.409   6.214  0.1167 -0.3754 -0.5135
  112OSM    H2G11581   3.771   7.397   6.093 -0.7281 -1.0721  0.5191
  112OSM    C3F11582   3.947   7.276   6.053  0.0843  0.6008 -0.1046
  112OSM    H3F11583   4.011   7.213   6.117  1.0942  1.4212 -0.2737
  112OSM    H3G11584   4.017   7.355   6.020 -0.5574  1.1986 -0.0739
  112OSM    C4F11585   3.881   7.197   5.933  0.5324  0.4939 -0.3412
  112OSM    H4F11586   3.817   7.122   5.984 -0.1963  1.4137  0.1143
  112OSM    H4G11587   3.962   7.134   5.889  0.1839 -0.4936  0.4122
  112OSM    C5F11588   3.808   7.290   5.832  0.3341 -0.4802 -0.9920
  112OSM    H5F11589   3.769   7.373   5.896 -0.2315 -1.7981  0.4344
  112OSM    H5G11590   3.717   7.237   5.796 -0.7267 -0.3223  1.2249
  112OSM    C6F11591   3.903   7.342   5.714 -0.8603 -0.2419  0.1517
  112OSM    H6F11592   3.989   7.391   5.764 -0.2675 -0.7717 -0.3471
  112OSM    H6G11593   3.845   7.419   5.658 -0.1743  2.2892  2.6835
  112OSM    C7F11594   3.951   7.228   5.625  0.0557 -1.2612  0.5282
  112OSM    H7F11595   3.867   7.185   5.567  0.7713  1.0589 -2.4802
  112OSM    H7G11596   3.995   7.149   5.689  0.7109  2.1334  4.7463
  112OSM    C8F11597   4.063   7.283   5.535  0.1128  0.2152 -0.5803
  112OSM    H8F11598   4.109   7.197   5.483  1.3672  0.7959 -0.4721
  112OSM    H8G11599   4.141   7.322   5.604 -1.2945 -1.0509  1.8751
  112OSM    C9F11600   4.017   7.387   5.436 -0.3426 -0.0152 -0.2222
  112OSM    H9F11601   3.993   7.482   5.487  2.3868  0.2885  0.6520
  112OSM   C10F11602   4.001   7.381   5.304 -0.4034  0.3314  0.7640
  112OSM   H10F11603   3.974   7.472   5.249  0.7846 -0.1191 -0.6311
  112OSM   C11F11604   4.038   7.262   5.220  0.1622 -0.0380  0.1684
  112OSM   H11F11605   3.934   7.240   5.188 -0.6764  2.9883  0.4880
  112OSM   H11G11606   4.083   7.173   5.268 -0.5434  0.0711  1.0764
  112OSM   C12F11607   4.110   7.293   5.091 -1.1078  0.2012 -0.2373
  112OSM   H12F11608   4.208   7.338   5.116 -0.4903 -0.5665 -1.1844
  112OSM   H12G11609   4.060   7.377   5.038  0.5362  0.7012 -1.0744
  112OSM   C13F11610   4.153   7.171   4.999  0.2062  0.1203  0.1945
  112OSM   H13F11611   4.069   7.105   4.970 -0.6650  1.0508  0.5342
  112OSM   H13G11612   4.236   7.114   5.046  0.1803 -2.0544 -2.2105
  112OSM   C14F11613   4.194   7.234   4.863  0.3973 -0.0411 -0.5139
  112OSM   H14F11614   4.238   7.152   4.802  0.3574 -0.5857  0.1779
  112OSM   H14G11615   4.268   7.314   4.885 -1.3552  1.1283  1.5285
  112OSM   C15F11616   4.081   7.297   4.784  0.0253  0.3265  0.1107
  112OSM   H15F11617   4.022   7.367   4.846  1.3430  1.9795 -0.4455
  112OSM   H15G11618   4.009   7.219   4.750 -1.5333  2.2492 -1.2009
  112OSM   C16F11619   4.139   7.372   4.665  0.1307 -0.2600 -0.0167
  112OSM   H16F11620   4.192   7.462   4.702  1.3032 -0.6140 -0.7907
  112OSM   H16G11621   4.052   7.415   4.610 -1.8468 -1.4215  2.0293
  112OSM   C17F11622   4.244   7.282   4.588 -0.1543 -0.6176  0.7087
  112OSM   H17F11623   4.212   7.181   4.556  1.8439 -1.5728  1.5039
  112OSM   H17G11624   4.339   7.273   4.647  0.3399 -0.0194  0.0200
  112OSM   C18F11625   4.288   7.350   4.455 -0.3249  0.4923 -0.1764
  112OSM   H18F11626   4.196   7.387   4.406  0.8598  2.0048 -1.3675
  112OSM   H18G11627   4.326   7.278   4.378 -0.1823  0.5099 -0.1228
  112OSM   H18H11628   4.362   7.432   4.464 -0.7555  1.1530 -2.1090
  113OSM      N11629   1.983   1.903   6.811 -0.3825  0.3135  0.4948
  113OSM    C1511630   2.098   1.840   6.733 -0.5180  0.2775 -0.0008
  113OSM   H15A11631   2.188   1.900   6.734 -1.5545  1.9487 -0.8617
  113OSM   H15B11632   2.064   1.840   6.631 -1.0095  3.5491  0.0420
  113OSM   H15C11633   2.116   1.738   6.764  0.1123  0.5624  0.6059
  113OSM    C1411634   2.029   1.929   6.948 -0.0993 -0.0178 -0.2439
  113OSM   H14A11635   1.943   1.929   7.013 -0.1873 -1.1318 -0.3477
  113OSM   H14B11636   2.093   2.016   6.959 -0.7499  0.4487 -0.1233
  113OSM   H14C11637   2.084   1.840   6.976  0.9994  0.6313 -0.2538
  113OSM    C1311638   1.959   2.037   6.745  0.5091  0.2110 -0.4486
  113OSM   H13A11639   1.900   2.109   6.801  1.8554  2.7755 -2.1058
  113OSM   H13B11640   1.903   2.029   6.653  0.8704 -0.3283 -0.6255
  113OSM   H13C11641   2.051   2.087   6.719  0.3650 -0.2274 -1.8692
  113OSM    C1211642   1.858   1.812   6.810 -0.1750  0.9939 -0.1465
  113OSM   H12A11643   1.880   1.724   6.869  2.3186  0.4759 -1.6895
  113OSM   H12B11644   1.841   1.790   6.706  0.7653 -0.3915 -0.0267
  113OSM    C1111645   1.729   1.866   6.874 -0.0779  0.3276 -0.0808
  113OSM   H11A11646   1.762   1.909   6.972  3.0048 -2.1865  0.1321
  113OSM   H11B11647   1.657   1.784   6.895  1.4842 -0.7684  1.2213
  113OSM      P11648   1.589   1.912   6.666  0.4485  0.8975 -0.0213
  113OSM    O1311649   1.574   1.764   6.666 -0.6436  0.3412  0.1412
  113OSM    O1411650   1.470   2.001   6.640  0.0811  0.2969 -0.5791
  113OSM    O1111651   1.699   1.948   6.556  0.1832  0.7212  0.8995
  113OSM    O1211652   1.663   1.955   6.793  0.0326 -0.4224  0.0857
  113OSM    C1S11653   1.668   1.912   6.419  0.1322  0.5555  0.8008
  113OSM    H1S11654   1.582   1.972   6.383  1.5868  2.4716  0.3883
  113OSM    H1T11655   1.629   1.809   6.405  0.0990  0.5206  1.1365
  113OSM     NF11656   1.730   1.952   6.172  0.9112  0.5446 -0.4103
  113OSM    HNF11657   1.729   1.867   6.120  1.7767 -2.0098  3.3301
  113OSM    C2S11658   1.776   1.947   6.314 -0.0763 -0.5736  0.0320
  113OSM    H2S11659   1.817   2.048   6.337  1.3412 -0.2784 -3.2403
  113OSM    C3S11660   1.899   1.854   6.342  0.7393  0.5371  0.1346
  113OSM    H3S11661   1.867   1.750   6.318 -0.4723  1.0509 -0.5777
  113OSM     O311662   1.932   1.845   6.483  0.3290  0.0646 -0.0423
  113OSM    HO311663   1.855   1.880   6.529  1.2927  1.3401  0.6786
  113OSM    C4S11664   2.013   1.886   6.254  0.2616  0.4740  0.4733
  113OSM    H4S11665   2.041   1.820   6.170 -0.8572  1.9033 -1.0883
  113OSM    C5S11666   2.079   2.000   6.261  0.6557 -0.8941 -0.8731
  113OSM    H5S11667   2.035   2.070   6.333  0.8382 -1.7224  0.0652
  113OSM    C6S11668   2.180   2.048   6.168 -0.3055 -0.5645  0.1849
  113OSM    H6S11669   2.267   1.979   6.177 -0.2795 -0.4720  0.6722
  113OSM    H6T11670   2.201   2.154   6.193  1.3662 -0.5830 -0.9984
  113OSM    C7S11671   2.126   2.041   6.022 -0.3500  0.1867  0.0621
  113OSM    H7S11672   2.048   2.119   6.007  2.0578  2.6080 -0.5263
  113OSM    H7T11673   2.077   1.944   6.000  2.5631 -1.2751 -0.4286
  113OSM    C8S11674   2.239   2.061   5.916 -0.0983  0.6680  0.3069
  113OSM    H8S11675   2.307   1.974   5.926  0.6690  1.4759  2.6263
  113OSM    H8T11676   2.292   2.153   5.948 -2.1260  1.1732  2.5260
  113OSM    C9S11677   2.184   2.068   5.778  0.4059 -0.7168 -0.5211
  113OSM    H9S11678   2.137   2.168   5.765  0.1634 -0.7455  0.0969
  113OSM    H9T11679   2.116   1.980   5.767 -0.0458 -0.6011  1.0473
  113OSM   C10S11680   2.301   2.054   5.682 -0.8600  0.6130 -0.5398
  113OSM   H10S11681   2.371   1.986   5.736 -0.7637  1.3798  0.3180
  113OSM   H10T11682   2.350   2.153   5.678  0.8542 -0.1505  0.2566
  113OSM   C11S11683   2.265   1.986   5.551 -0.0570  0.1472  0.3610
  113OSM   H11S11684   2.174   1.923   5.548  0.5914 -0.7857 -0.4783
  113OSM   H11T11685   2.343   1.915   5.516 -0.3967 -0.2385  0.3872
  113OSM   C12S11686   2.231   2.094   5.449 -0.2918 -0.1780 -0.0071
  113OSM   H12S11687   2.322   2.153   5.424 -2.5537  2.7359 -2.0691
  113OSM   H12T11688   2.156   2.151   5.508  0.8120  1.0969  0.2249
  113OSM   C13S11689   2.172   2.026   5.327  0.2625  0.0140 -0.0433
  113OSM   H13S11690   2.078   1.974   5.355  0.8429 -1.4017 -0.6339
  113OSM   H13T11691   2.248   1.957   5.286  1.8897  1.7725 -0.1333
  113OSM   C14S11692   2.139   2.131   5.224  0.2849 -0.9148 -0.7370
  113OSM   H14S11693   2.221   2.205   5.222 -1.4982  1.1439 -1.8377
  113OSM   H14T11694   2.048   2.189   5.250 -0.0976 -1.9075  0.2080
  113OSM   C15S11695   2.096   2.100   5.077 -0.0904  0.6701 -0.6126
  113OSM   H15S11696   2.009   2.032   5.078  0.8216 -0.7757 -4.3956
  113OSM   H15T11697   2.172   2.040   5.024 -2.3422 -2.1323 -0.8956
  113OSM   C16S11698   2.050   2.223   4.993 -0.2851  0.2531  0.0721
  113OSM   H16S11699   2.120   2.307   5.016  2.7649 -2.1759  0.2961
  113OSM   H16T11700   1.945   2.248   5.021 -0.1154  3.1737 -1.4646
  113OSM   C17S11701   2.066   2.200   4.843  0.2320 -1.0358  0.2761
  113OSM   H17S11702   2.030   2.099   4.813  1.7368 -0.9996 -1.8305
  113OSM   H17T11703   2.176   2.211   4.828 -0.1601  0.6736 -1.8592
  113OSM   C18S11704   1.994   2.297   4.755 -0.1363 -0.1116 -0.0352
  113OSM   H18S11705   1.885   2.294   4.778  0.0516 -1.0156  0.7781
  113OSM   H18T11706   1.996   2.258   4.651 -1.7888  1.6553 -0.8016
  113OSM   H18U11707   2.030   2.402   4.764  1.3782 -0.6002 -0.1711
  113OSM    C1F11708   1.634   2.030   6.132 -0.8914 -0.7175  0.1691
  113OSM     OF11709   1.605   2.130   6.199  0.1609  0.1695 -0.3671
  113OSM    C2F11710   1.558   1.995   6.002 -0.0753  0.1608 -0.5248
  113OSM    H2F11711   1.481   1.922   6.033 -0.0930  0.3812 -0.0370
  113OSM    H2G11712   1.629   1.944   5.934 -0.4322  0.9894 -1.5535
  113OSM    C3F11713   1.487   2.116   5.934 -0.1475  0.4275 -0.2663
  113OSM    H3F11714   1.561   2.162   5.865 -0.9325  0.8648 -0.8238
  113OSM    H3G11715   1.450   2.191   6.007 -2.7072  0.2383 -1.2821
  113OSM    C4F11716   1.372   2.072   5.846 -0.2929 -0.6117  0.4877
  113OSM    H4F11717   1.313   2.162   5.817 -1.8554 -0.9986  2.2820
  113OSM    H4G11718   1.296   2.007   5.895  0.1029 -1.1138  0.4427
  113OSM    C5F11719   1.411   2.005   5.707 -0.0049  0.4714  0.1245
  113OSM    H5F11720   1.483   1.921   5.715 -1.1548 -0.5799 -0.1615
  113OSM    H5G11721   1.468   2.078   5.646 -1.7695  1.1791 -0.7697
  113OSM    C6F11722   1.285   1.969   5.621 -0.3359 -0.5238  0.3314
  113OSM    H6F11723   1.220   2.059   5.614 -0.4204 -0.6245 -0.2472
  113OSM    H6G11724   1.226   1.890   5.673  0.4507 -2.4592 -1.5579
  113OSM    C7F11725   1.326   1.904   5.491  0.1518  0.6660 -0.6911
  113OSM    H7F11726   1.360   1.801   5.515  0.1127  0.9009  0.4222
  113OSM    H7G11727   1.409   1.952   5.435  1.5166 -0.8192 -0.0186
  113OSM    C8F11728   1.207   1.887   5.385 -0.6882  0.3314 -0.3656
  113OSM    H8F11729   1.163   1.989   5.377  0.1661  0.7236 -0.1702
  113OSM    H8G11730   1.132   1.829   5.443 -0.6191  1.0165  0.4209
  113OSM    C9F11731   1.233   1.827   5.248  0.6534  1.7461  0.2211
  113OSM    H9F11732   1.293   1.735   5.244  0.4239  1.5359  1.2040
  113OSM   C10F11733   1.203   1.886   5.132 -0.0301  0.0333  0.1033
  113OSM   H10F11734   1.223   1.815   5.050 -1.0624 -1.2113  0.8720
  113OSM   C11F11735   1.135   2.015   5.097  0.2786  0.0504  0.1843
  113OSM   H11F11736   1.160   2.100   5.163 -1.3054 -0.8321  2.0306
  113OSM   H11G11737   1.028   2.003   5.125 -0.0306  0.1125 -0.9256
  113OSM   C12F11738   1.146   2.050   4.953 -0.0780  0.2516  0.2449
  113OSM   H12F11739   1.247   2.071   4.910 -0.3834 -0.3259 -0.7908
  113OSM   H12G11740   1.081   2.137   4.928  1.6384  1.5320 -0.0013
  113OSM   C13F11741   1.074   1.944   4.864  0.8129 -0.0255  0.1644
  113OSM   H13F11742   0.969   1.943   4.900  0.7930  0.0233  0.1088
  113OSM   H13G11743   1.107   1.839   4.882 -1.1652 -0.7036  0.0908
  113OSM   C14F11744   1.079   1.969   4.711  0.1910  0.0570  0.5178
  113OSM   H14F11745   1.049   2.074   4.692  2.3572  0.3350 -1.8306
  113OSM   H14G11746   0.996   1.907   4.669  1.1381 -0.0060 -1.3359
  113OSM   C15F11747   1.216   1.942   4.649 -0.1344  0.2020  0.3755
  113OSM   H15F11748   1.236   1.834   4.659 -2.1047 -0.5456 -2.5440
  113OSM   H15G11749   1.290   2.008   4.701  0.4484 -1.8974  2.3753
  113OSM   C16F11750   1.209   1.990   4.499  0.2808 -0.9241 -0.0979
  113OSM   H16F11751   1.104   1.971   4.469  0.5930 -0.9347 -1.2389
  113OSM   H16G11752   1.277   1.928   4.437  1.0166  0.4259 -0.6967
  113OSM   C17F11753   1.254   2.143   4.481 -0.0853  0.3107  0.5527
  113OSM   H17F11754   1.347   2.160   4.540  2.5460 -2.7556 -2.3063
  113OSM   H17G11755   1.167   2.198   4.524  0.9038 -0.8211  4.4373
  113OSM   C18F11756   1.288   2.185   4.337 -0.2692  0.4543 -0.4070
  113OSM   H18F11757   1.332   2.286   4.330  1.8265 -0.3904 -0.1530
  113OSM   H18G11758   1.194   2.189   4.277 -0.3098 -0.5016 -0.4360
  113OSM   H18H11759   1.362   2.120   4.285 -2.9157 -0.8997 -2.7981
  114OSM      N11760   1.365   0.309   6.727  0.5583  0.4403 -0.6789
  114OSM    C1511761   1.500   0.346   6.770 -0.1915 -0.3937 -0.3257
  114OSM   H15A11762   1.512   0.453   6.761 -2.4965  0.1218  1.6351
  114OSM   H15B11763   1.576   0.302   6.707  0.2712 -1.3417  0.8502
  114OSM   H15C11764   1.515   0.326   6.875  2.3443  0.0772 -0.5420
  114OSM    C1411765   1.332   0.171   6.775  0.1247 -0.1001  0.2056
  114OSM   H14A11766   1.354   0.158   6.880  0.2954  0.6913  0.2678
  114OSM   H14B11767   1.389   0.097   6.720  2.8912  2.0576 -0.0166
  114OSM   H14C11768   1.229   0.147   6.752  0.7759 -0.9861 -2.0871
  114OSM    C1311769   1.263   0.395   6.804 -0.0972  0.4870 -0.0421
  114OSM   H13A11770   1.284   0.384   6.910 -0.2071  1.5024  0.0901
  114OSM   H13B11771   1.161   0.362   6.797 -0.9700  3.0027  0.0509
  114OSM   H13C11772   1.266   0.498   6.771  0.6645  0.1107 -1.2195
  114OSM    C1211773   1.344   0.324   6.573 -0.2762 -0.2104 -0.1040
  114OSM   H12A11774   1.242   0.295   6.548 -0.1779 -0.0979 -0.6551
  114OSM   H12B11775   1.405   0.250   6.524 -0.7878  0.7180 -2.2934
  114OSM    C1111776   1.364   0.458   6.495 -0.5817  1.0451 -0.2416
  114OSM   H11A11777   1.305   0.539   6.544  0.6258  1.8840 -0.1270
  114OSM   H11B11778   1.330   0.461   6.389  0.0078  0.1831 -0.4706
  114OSM      P11779   1.559   0.637   6.510  0.2585 -0.1238 -0.1314
  114OSM    O1311780   1.454   0.723   6.573 -0.7386 -0.8746 -0.4006
  114OSM    O1411781   1.682   0.626   6.585 -0.5052 -0.3029  0.3492
  114OSM    O1111782   1.587   0.679   6.370  0.3083  0.5696  0.1853
  114OSM    O1211783   1.500   0.488   6.492 -0.0467  0.6368 -0.4757
  114OSM    C1S11784   1.649   0.595   6.274 -0.0809 -0.4425 -0.1071
  114OSM    H1S11785   1.677   0.498   6.319 -0.4244  0.4720  2.2050
  114OSM    H1T11786   1.746   0.633   6.236  1.1017 -3.0153  0.1728
  114OSM     NF11787   1.608   0.445   6.082 -0.1515 -0.2666 -0.1780
  114OSM    HNF11788   1.661   0.465   6.000  1.7055  0.0877  1.0410
  114OSM    C2S11789   1.548   0.555   6.154  0.3220  0.3088 -0.4131
  114OSM    H2S11790   1.453   0.524   6.202  2.1470 -3.6683  1.0695
  114OSM    C3S11791   1.519   0.682   6.075  0.3202  0.7751  0.1878
  114OSM    H3S11792   1.607   0.736   6.035  0.6981 -1.2665 -1.9214
  114OSM     O311793   1.464   0.792   6.153  0.2820 -0.0757 -0.2227
  114OSM    HO311794   1.492   0.770   6.242 -0.6943 -0.5568 -0.0212
  114OSM    C4S11795   1.418   0.662   5.962  0.7491  0.1297 -0.1341
  114OSM    H4S11796   1.312   0.681   5.985  1.0897  0.4038  1.3021
  114OSM    C5S11797   1.442   0.638   5.832  0.1799  0.4386 -0.0337
  114OSM    H5S11798   1.542   0.646   5.786 -0.3314 -0.7295 -1.4172
  114OSM    C6S11799   1.328   0.642   5.730  0.4970 -0.3799  0.1355
  114OSM    H6S11800   1.290   0.744   5.712  1.4189  0.4193  2.3247
  114OSM    H6T11801   1.235   0.604   5.777 -0.5842  3.4580  1.4473
  114OSM    C7S11802   1.352   0.570   5.593 -0.2125 -0.6178 -0.0847
  114OSM    H7S11803   1.390   0.468   5.616  0.9141 -0.0566  0.6645
  114OSM    H7T11804   1.438   0.622   5.546 -0.0047  0.3989  1.3385
  114OSM    C8S11805   1.222   0.581   5.515  0.5867 -0.2830 -0.3339
  114OSM    H8S11806   1.180   0.683   5.504 -0.5917 -0.9943 -3.7744
  114OSM    H8T11807   1.141   0.523   5.566  1.1502  0.1209  1.0563
  114OSM    C9S11808   1.225   0.524   5.371  0.0419 -0.2130 -0.4080
  114OSM    H9S11809   1.127   0.530   5.318  0.6391 -1.3020 -1.7030
  114OSM    H9T11810   1.246   0.417   5.387  0.2175 -0.4190 -1.8184
  114OSM   C10S11811   1.329   0.595   5.284  0.3547  0.1593 -0.3982
  114OSM   H10S11812   1.433   0.575   5.317  1.7475  4.2877 -1.6629
  114OSM   H10T11813   1.319   0.705   5.299 -0.4743  0.4367 -2.5214
  114OSM   C11S11814   1.301   0.563   5.139 -0.3185 -0.0606  0.3302
  114OSM   H11S11815   1.205   0.612   5.113  1.0031  3.0774  0.9764
  114OSM   H11T11816   1.287   0.453   5.127 -0.5860 -0.1159  1.1018
  114OSM   C12S11817   1.417   0.601   5.043 -0.1299 -0.4254  0.0525
  114OSM   H12S11818   1.498   0.526   5.041 -0.3039 -0.6547  1.2487
  114OSM   H12T11819   1.456   0.696   5.084 -0.7179 -0.4123  0.5929
  114OSM   C13S11820   1.357   0.618   4.897  0.4440 -0.2855  0.1231
  114OSM   H13S11821   1.287   0.704   4.890 -0.4422 -1.0538 -0.7175
  114OSM   H13T11822   1.307   0.526   4.861 -0.3974  0.3407 -0.3296
  114OSM   C14S11823   1.472   0.646   4.802  0.1214  0.8111  0.4168
  114OSM   H14S11824   1.537   0.557   4.791 -2.0883 -0.7881 -0.3397
  114OSM   H14T11825   1.538   0.732   4.828  0.1708  1.4903 -1.7238
  114OSM   C15S11826   1.407   0.683   4.664  0.2259 -1.0393  0.6595
  114OSM   H15S11827   1.335   0.767   4.673  3.1465  1.5324  2.4067
  114OSM   H15T11828   1.342   0.599   4.632  0.8747 -1.3333  0.1045
  114OSM   C16S11829   1.516   0.703   4.551  0.3695  0.5589  0.7768
  114OSM   H16S11830   1.574   0.609   4.563  0.3914  0.2827 -1.1725
  114OSM   H16T11831   1.568   0.795   4.587 -0.1725  1.6966 -1.2070
  114OSM   C17S11832   1.457   0.721   4.407 -0.0042 -0.4530 -0.1395
  114OSM   H17S11833   1.373   0.652   4.383  0.0862 -0.2988 -0.9091
  114OSM   H17T11834   1.541   0.686   4.343  0.6996 -1.1477  1.1284
  114OSM   C18S11835   1.400   0.863   4.386 -0.1237  0.0443 -0.2058
  114OSM   H18S11836   1.311   0.886   4.449  0.1793  1.4661 -0.2749
  114OSM   H18T11837   1.362   0.875   4.283 -0.9919  1.9277  0.2899
  114OSM   H18U11838   1.457   0.956   4.408  0.0416  0.3030 -1.6560
  114OSM    C1F11839   1.592   0.320   6.121 -0.5148  1.1785 -0.0565
  114OSM     OF11840   1.503   0.284   6.197  0.3019 -0.5863 -0.0289
  114OSM    C2F11841   1.685   0.224   6.059  0.3110 -1.3736 -0.3796
  114OSM    H2F11842   1.713   0.155   6.142  3.0365  0.6531  0.5346
  114OSM    H2G11843   1.778   0.279   6.034  0.9015 -2.2571 -0.1763
  114OSM    C3F11844   1.624   0.148   5.938  0.6258  0.5458 -0.1695
  114OSM    H3F11845   1.525   0.105   5.963  0.9916  0.7690  1.8572
  114OSM    H3G11846   1.689   0.063   5.909  1.6837  0.1810  2.9737
  114OSM    C4F11847   1.593   0.237   5.825 -0.1582 -0.4608  0.8689
  114OSM    H4F11848   1.678   0.304   5.801 -0.1545 -1.1631 -1.2729
  114OSM    H4G11849   1.496   0.286   5.848 -0.0476 -0.6542  1.7615
  114OSM    C5F11850   1.587   0.145   5.709 -0.2835 -0.4236  0.1444
  114OSM    H5F11851   1.505   0.075   5.735 -0.1711 -0.4310  0.4860
  114OSM    H5G11852   1.677   0.079   5.704  0.9697  1.2523 -0.3219
  114OSM    C6F11853   1.560   0.220   5.586 -0.0962 -0.1148  0.8655
  114OSM    H6F11854   1.642   0.295   5.583  0.1177 -0.3935 -0.8353
  114OSM    H6G11855   1.468   0.278   5.608  0.9326  1.6609  0.6622
  114OSM    C7F11856   1.544   0.124   5.460  0.6059  0.4387  0.5462
  114OSM    H7F11857   1.473   0.043   5.485 -0.9304  2.3538  2.7501
  114OSM    H7G11858   1.644   0.078   5.440  0.0474 -0.3362 -0.6203
  114OSM    C8F11859   1.483   0.203   5.332 -0.5058  0.5229 -0.3970
  114OSM    H8F11860   1.389   0.252   5.365  0.8029  1.5236  2.1431
  114OSM    H8G11861   1.463   0.124   5.256 -1.3148 -1.2059  1.4999
  114OSM    C9F11862   1.581   0.317   5.300  0.3145  0.1757 -0.1064
  114OSM    H9F11863   1.591   0.404   5.367  0.8039  1.7189 -2.1021
  114OSM   C10F11864   1.670   0.297   5.201 -0.8361 -0.5978  0.4272
  114OSM   H10F11865   1.741   0.380   5.192 -0.3466 -0.7556  2.3313
  114OSM   C11F11866   1.705   0.184   5.117  0.0086 -0.0940  0.0979
  114OSM   H11F11867   1.678   0.090   5.171  1.5553 -1.0232 -0.6689
  114OSM   H11G11868   1.813   0.183   5.091  0.0723  1.4031  0.2432
  114OSM   C12F11869   1.623   0.181   4.988 -0.5168 -0.2789 -0.3367
  114OSM   H12F11870   1.513   0.190   5.001 -0.8641  1.2921 -3.3124
  114OSM   H12G11871   1.639   0.079   4.947 -2.2263  0.2259 -2.4715
  114OSM   C13F11872   1.675   0.277   4.883 -0.3079  0.0794  0.2239
  114OSM   H13F11873   1.781   0.254   4.859 -0.3556 -0.3139  0.3741
  114OSM   H13G11874   1.661   0.378   4.926 -1.6611 -0.2922  0.7239
  114OSM   C14F11875   1.580   0.264   4.758 -0.4468 -0.4775 -0.5952
  114OSM   H14F11876   1.615   0.343   4.689  0.3083  0.2179  0.5523
  114OSM   H14G11877   1.474   0.284   4.786 -0.4654 -0.4417 -0.6931
  114OSM   C15F11878   1.587   0.126   4.683  0.2085  0.2356  0.0383
  114OSM   H15F11879   1.536   0.050   4.746  0.6809 -0.0309  0.1048
  114OSM   H15G11880   1.693   0.097   4.694 -0.7425 -2.7884  2.6927
  114OSM   C16F11881   1.526   0.134   4.541  1.0245 -0.7858  0.4854
  114OSM   H16F11882   1.554   0.226   4.486 -2.2933 -0.8523 -1.5978
  114OSM   H16G11883   1.416   0.150   4.543  1.3050  1.6018 -0.1157
  114OSM   C17F11884   1.571   0.023   4.446 -0.3113 -0.5096  0.0956
  114OSM   H17F11885   1.501   0.006   4.363 -0.5017 -0.4702  0.2477
  114OSM   H17G11886   1.576  -0.078   4.493 -1.3372 -1.7849 -2.3814
  114OSM   C18F11887   1.713   0.043   4.385  0.5745  0.3498  0.2099
  114OSM   H18F11888   1.728  -0.035   4.307 -0.6701 -1.3205  1.5822
  114OSM   H18G11889   1.796   0.029   4.456  0.1380 -1.1882  0.4479
  114OSM   H18H11890   1.710   0.139   4.329 -0.1538  0.8333  1.0486
  115OSM      N11891   5.684   2.202   6.754  0.9774 -0.5872 -0.1829
  115OSM    C1511892   5.779   2.259   6.858 -0.2021  0.1711  0.2702
  115OSM   H15A11893   5.844   2.321   6.798 -0.4870 -1.4327 -1.8153
  115OSM   H15B11894   5.844   2.183   6.898  0.7975 -0.3629 -2.1946
  115OSM   H15C11895   5.727   2.303   6.941 -1.4828 -2.5830  1.0285
  115OSM    C1411896   5.601   2.089   6.805 -0.5470  0.0237 -0.1105
  115OSM   H14A11897   5.534   2.119   6.884  0.3811 -1.0370  1.1028
  115OSM   H14B11898   5.664   2.009   6.839 -0.2102  0.2913 -0.0897
  115OSM   H14C11899   5.536   2.055   6.726 -0.6026  0.6244 -0.3364
  115OSM    C1311900   5.591   2.311   6.719  0.3900 -0.1145  0.4146
  115OSM   H13A11901   5.551   2.299   6.619  0.7748 -0.7734  0.3380
  115OSM   H13B11902   5.638   2.408   6.719 -1.0465  0.6207  0.5809
  115OSM   H13C11903   5.509   2.320   6.789 -0.4667 -0.7969 -0.4567
  115OSM    C1211904   5.759   2.158   6.626  0.0367  0.1010  0.0104
  115OSM   H12A11905   5.808   2.247   6.586 -0.0546  0.7295  1.2409
  115OSM   H12B11906   5.679   2.130   6.560  0.2205 -0.0818 -0.1355
  115OSM    C1111907   5.859   2.047   6.637 -0.5765  0.9998  0.5713
  115OSM   H11A11908   5.909   2.057   6.736 -0.0234 -0.5042  0.4632
  115OSM   H11B11909   5.932   2.054   6.553  1.0193  1.7779  1.9525
  115OSM      P11910   5.716   1.860   6.516  0.1422  0.2650 -0.5098
  115OSM    O1311911   5.705   1.713   6.539 -0.3994 -0.0752 -0.0649
  115OSM    O1411912   5.593   1.932   6.488 -0.1707  0.2392  0.1277
  115OSM    O1111913   5.815   1.879   6.398  0.0504 -0.2442 -0.0489
  115OSM    O1211914   5.793   1.924   6.632 -0.2001 -0.7208 -0.1002
  115OSM    C1S11915   5.842   1.785   6.295 -0.3526 -0.2085 -0.7550
  115OSM    H1S11916   5.747   1.732   6.275 -0.6953  0.3705 -0.6917
  115OSM    H1T11917   5.911   1.710   6.340 -0.0757  0.5852  0.1857
  115OSM     NF11918   5.904   1.764   6.061 -0.1979  0.2532 -0.1932
  115OSM    HNF11919   5.991   1.744   6.015 -0.2214 -1.5316  0.4838
  115OSM    C2S11920   5.907   1.856   6.172  0.9432 -0.1519  0.9364
  115OSM    H2S11921   5.845   1.944   6.145  0.3770 -0.8889 -0.2906
  115OSM    C3S11922   6.051   1.903   6.204  0.2198  0.5427 -0.0024
  115OSM    H3S11923   6.113   1.814   6.229 -0.3327 -0.0324 -0.6343
  115OSM     O311924   6.056   1.987   6.318  0.3706  0.1663 -0.3076
  115OSM    HO311925   5.968   1.972   6.355  0.1528  1.8378 -0.0623
  115OSM    C4S11926   6.115   1.964   6.080  0.1177 -0.1830  0.5203
  115OSM    H4S11927   6.173   1.888   6.027 -0.2323 -0.5354  0.6342
  115OSM    C5S11928   6.097   2.091   6.050  0.0490 -0.4796 -0.7808
  115OSM    H5S11929   6.036   2.155   6.115  2.6485  2.8439 -1.3483
  115OSM    C6S11930   6.157   2.160   5.935 -0.2811  0.1602 -0.2641
  115OSM    H6S11931   6.261   2.189   5.958 -0.6559  1.2643  0.1474
  115OSM    H6T11932   6.100   2.255   5.922 -0.4894  0.2573  1.2370
  115OSM    C7S11933   6.162   2.098   5.792  0.2223 -0.2248 -0.3066
  115OSM    H7S11934   6.063   2.115   5.744  1.9619 -1.4312 -4.8579
  115OSM    H7T11935   6.171   1.989   5.813 -4.4109 -0.6741  0.3538
  115OSM    C8S11936   6.257   2.172   5.700 -0.4426 -0.2608  0.4643
  115OSM    H8S11937   6.364   2.194   5.722 -0.3634  1.7485 -1.4955
  115OSM    H8T11938   6.222   2.277   5.691  1.2933  0.3388  0.1526
  115OSM    C9S11939   6.265   2.105   5.558 -0.0099 -0.1893 -1.4483
  115OSM    H9S11940   6.162   2.083   5.521 -0.2610 -1.1413 -0.2409
  115OSM    H9T11941   6.322   2.010   5.561  1.7223  0.7819  1.9841
  115OSM   C10S11942   6.329   2.196   5.451  0.3355 -0.1049  0.2659
  115OSM   H10S11943   6.426   2.236   5.488  0.0800 -0.0160  0.8463
  115OSM   H10T11944   6.266   2.287   5.443  0.5902  0.1251  0.8141
  115OSM   C11S11945   6.334   2.124   5.318  0.3372  0.2959  0.6312
  115OSM   H11S11946   6.236   2.074   5.300 -0.0851  1.0625  0.7720
  115OSM   H11T11947   6.405   2.038   5.324  1.0822  0.9076  0.7123
  115OSM   C12S11948   6.369   2.208   5.192 -1.0161  0.0613  0.4224
  115OSM   H12S11949   6.463   2.259   5.220 -1.4659  0.6367  0.9063
  115OSM   H12T11950   6.287   2.284   5.186 -1.5289 -0.5097  0.0239
  115OSM   C13S11951   6.383   2.123   5.067 -0.1416 -0.0590  0.1188
  115OSM   H13S11952   6.285   2.077   5.042 -1.1048  1.3941  1.0940
  115OSM   H13T11953   6.458   2.045   5.090  2.2684  2.2678  0.6109
  115OSM   C14S11954   6.450   2.198   4.956  0.1149  0.0656  0.0792
  115OSM   H14S11955   6.542   2.242   5.002 -0.5973  0.4009  1.2145
  115OSM   H14T11956   6.386   2.288   4.939 -0.0974  0.2772  1.8510
  115OSM   C15S11957   6.486   2.112   4.833 -0.8666 -0.5037  0.1498
  115OSM   H15S11958   6.392   2.073   4.787  1.3351 -2.7357 -2.9197
  115OSM   H15T11959   6.530   2.018   4.873 -0.7222  0.0740  1.4005
  115OSM   C16S11960   6.586   2.171   4.731  0.1823 -0.8290  0.1611
  115OSM   H16S11961   6.684   2.158   4.783 -0.1338  0.1884  1.0416
  115OSM   H16T11962   6.558   2.273   4.699 -0.1966 -1.4459 -1.5997
  115OSM   C17S11963   6.593   2.076   4.602  0.5588  0.3499 -0.1967
  115OSM   H17S11964   6.495   2.076   4.550  1.7141 -0.0332 -2.5077
  115OSM   H17T11965   6.623   1.976   4.639 -0.6903 -0.2468 -0.7526
  115OSM   C18S11966   6.700   2.124   4.496 -0.5150  0.7716  0.7862
  115OSM   H18S11967   6.799   2.140   4.542 -0.1669 -3.5366  1.9607
  115OSM   H18T11968   6.662   2.208   4.434 -3.1520 -2.4364 -2.3946
  115OSM   H18U11969   6.721   2.042   4.424 -0.2601  0.8696  0.7499
  115OSM    C1F11970   5.787   1.730   6.007  0.3537 -0.0942 -0.2281
  115OSM     OF11971   5.682   1.775   6.055 -0.8445  0.5306  0.1096
  115OSM    C2F11972   5.796   1.655   5.878 -0.2414  0.2624 -0.5780
  115OSM    H2F11973   5.834   1.551   5.889 -2.3466 -0.6065 -0.9874
  115OSM    H2G11974   5.872   1.709   5.818 -0.7970  0.9489 -0.6825
  115OSM    C3F11975   5.667   1.637   5.796 -0.2917  0.2873  0.0407
  115OSM    H3F11976   5.614   1.735   5.788 -2.1605 -0.7749 -1.4804
  115OSM    H3G11977   5.596   1.575   5.855 -0.6581  1.7830  1.2357
  115OSM    C4F11978   5.693   1.575   5.660 -0.1211  0.4102  0.3191
  115OSM    H4F11979   5.712   1.465   5.660  0.5722  0.5216 -0.9697
  115OSM    H4G11980   5.781   1.622   5.612 -0.1017  1.2386  1.1474
  115OSM    C5F11981   5.581   1.607   5.564 -0.2916 -0.4345  1.1559
  115OSM    H5F11982   5.550   1.713   5.572 -0.4141 -0.2479 -0.9934
  115OSM    H5G11983   5.499   1.536   5.590  0.5087 -1.1474  1.7869
  115OSM    C6F11984   5.618   1.591   5.423  0.0140 -0.0441  0.2973
  115OSM    H6F11985   5.655   1.487   5.412 -2.7407 -0.8889 -1.9611
  115OSM    H6G11986   5.701   1.660   5.397 -1.1415  1.4441  0.4402
  115OSM    C7F11987   5.502   1.604   5.320 -0.0021 -0.3343  0.0144
  115OSM    H7F11988   5.423   1.530   5.345  1.7755 -2.0835  0.7562
  115OSM    H7G11989   5.541   1.581   5.219  2.1259  0.7436  0.5413
  115OSM    C8F11990   5.443   1.747   5.309  0.3163  0.6642  0.5601
  115OSM    H8F11991   5.389   1.752   5.212  0.0627  1.3095  0.7277
  115OSM    H8G11992   5.527   1.817   5.289  0.4202  0.0598 -1.2700
  115OSM    C9F11993   5.336   1.778   5.419 -0.1375 -0.2469 -0.4782
  115OSM    H9F11994   5.372   1.814   5.516 -0.4840 -1.0063 -0.0551
  115OSM   C10F11995   5.201   1.777   5.423  0.0226  0.6487  0.7196
  115OSM   H10F11996   5.156   1.784   5.523  0.8934 -1.1820  1.2930
  115OSM   C11F11997   5.106   1.731   5.319  0.5419  0.4611  1.2425
  115OSM   H11F11998   5.090   1.810   5.242  2.8315 -1.9388 -2.0023
  115OSM   H11G11999   5.007   1.715   5.365  0.2792  0.5833  0.7330
  115OSM   C12F12000   5.149   1.599   5.255 -0.0366  0.3905  0.7652
  115OSM   H12F12001   5.159   1.531   5.343 -2.1709 -0.6729  0.2652
  115OSM   H12G12002   5.235   1.629   5.193 -1.1021  2.1200  0.0516
  115OSM   C13F12003   5.037   1.533   5.178  0.4369  0.2639 -0.3852
  115OSM   H13F12004   4.946   1.535   5.242 -1.0158 -0.6375 -2.3206
  115OSM   H13G12005   5.055   1.426   5.151 -0.4837 -0.2298  0.8805
  115OSM   C14F12006   5.012   1.593   5.034  0.5341  0.5945  0.7744
  115OSM   H14F12007   5.106   1.589   4.975 -0.3777  1.0059 -0.7606
  115OSM   H14G12008   4.984   1.700   5.041 -0.3538  0.3304  1.5814
  115OSM   C15F12009   4.904   1.536   4.950  0.0266  0.4838  0.0283
  115OSM   H15F12010   4.815   1.556   5.013 -0.7486 -2.0245 -0.1984
  115OSM   H15G12011   4.909   1.426   4.944  0.3851  0.5381 -0.8449
  115OSM   C16F12012   4.904   1.598   4.807  0.2623 -0.0803  0.3844
  115OSM   H16F12013   4.992   1.552   4.757  0.1411 -0.4697  0.5200
  115OSM   H16G12014   4.923   1.707   4.804  2.1799 -0.3706 -2.5214
  115OSM   C17F12015   4.775   1.567   4.727 -0.3923 -0.1108 -0.1452
  115OSM   H17F12016   4.690   1.618   4.778 -1.6432 -1.6887 -0.5492
  115OSM   H17G12017   4.771   1.456   4.723  2.0185 -0.2488 -0.1685
  115OSM   C18F12018   4.780   1.620   4.584  0.4041  0.8600  0.3813
  115OSM   H18F12019   4.789   1.730   4.587 -0.7730  1.0131 -0.7140
  115OSM   H18G12020   4.684   1.596   4.532  0.7490  0.9663 -0.3102
  115OSM   H18H12021   4.862   1.576   4.524 -1.0542  0.0181 -1.0766
  116OSM      N12022   2.015   3.281   6.526  0.1129 -0.0358 -0.6436
  116OSM    C1512023   1.911   3.355   6.452  0.1519 -0.4645 -0.0330
  116OSM   H15A12024   1.931   3.460   6.439  0.5475 -0.7106 -1.5418
  116OSM   H15B12025   1.815   3.352   6.501 -0.5873  1.5805 -1.2424
  116OSM   H15C12026   1.898   3.307   6.356 -1.1534 -0.3519  0.0734
  116OSM    C1412027   2.145   3.299   6.444  0.1730  0.3518  0.2315
  116OSM   H14A12028   2.222   3.231   6.478  0.8990  1.4912  0.9353
  116OSM   H14B12029   2.188   3.398   6.449  0.9306 -0.0279  2.1803
  116OSM   H14C12030   2.124   3.287   6.339 -0.7065  0.7568  0.3498
  116OSM    C1312031   2.030   3.324   6.661  0.0515  1.0043 -1.1347
  116OSM   H13A12032   1.938   3.301   6.714  0.4771  1.0396 -0.3722
  116OSM   H13B12033   2.031   3.432   6.661  0.2358  1.0305  0.6023
  116OSM   H13C12034   2.118   3.286   6.710  0.3763 -0.2884 -2.6416
  116OSM    C1212035   1.962   3.140   6.522 -0.5017  0.2096  0.5702
  116OSM   H12A12036   1.931   3.119   6.420 -1.2156  2.2089  0.3190
  116OSM   H12B12037   1.879   3.129   6.591 -0.5376  0.1020  0.5101
  116OSM    C1112038   2.055   3.034   6.578 -0.1667 -0.5327 -0.2049
  116OSM   H11A12039   2.074   3.045   6.687  0.5717 -1.8909 -0.1748
  116OSM   H11B12040   2.157   3.032   6.535  0.7718  0.3688  1.8724
  116OSM      P12041   2.045   2.766   6.540 -0.0642 -0.1682 -0.3122
  116OSM    O1312042   2.120   2.719   6.664  0.0416 -0.2844 -0.2183
  116OSM    O1412043   1.925   2.687   6.502  0.4394 -0.1223 -0.6064
  116OSM    O1112044   2.152   2.777   6.427  0.3491  0.1854  1.2698
  116OSM    O1212045   1.984   2.913   6.568 -0.5460 -0.0676  0.4575
  116OSM    C1S12046   2.106   2.803   6.287 -0.9970  0.9623  0.9417
  116OSM    H1S12047   2.090   2.912   6.272 -2.0520  0.6252 -0.5892
  116OSM    H1T12048   2.007   2.757   6.268 -0.2299  0.1159 -1.4244
  116OSM     NF12049   2.128   2.777   6.035  1.2565  0.0645 -0.4311
  116OSM    HNF12050   2.090   2.705   5.977  4.1262 -1.0817 -1.0475
  116OSM    C2S12051   2.193   2.741   6.165  0.2977 -0.1837 -0.0620
  116OSM    H2S12052   2.289   2.798   6.170  0.2573 -0.1913  2.4731
  116OSM    C3S12053   2.232   2.592   6.184  0.1615 -0.9494  0.7177
  116OSM    H3S12054   2.146   2.526   6.160 -1.7708  1.5568  0.2576
  116OSM     O312055   2.278   2.575   6.314 -0.6214  0.1307  0.7321
  116OSM    HO312056   2.235   2.636   6.375 -3.3801 -1.2141  0.2887
  116OSM    C4S12057   2.347   2.572   6.092 -0.1081  0.0690  1.2246
  116OSM    H4S12058   2.446   2.604   6.127  1.6480 -2.9428 -0.5162
  116OSM    C5S12059   2.350   2.525   5.968 -0.3487  0.2075  0.6503
  116OSM    H5S12060   2.251   2.490   5.934  0.6325 -2.6359  0.4795
  116OSM    C6S12061   2.466   2.512   5.873  0.0255 -0.1319  0.3821
  116OSM    H6S12062   2.496   2.406   5.857  1.5197  0.0728  1.5823
  116OSM    H6T12063   2.554   2.568   5.912  2.2491 -4.3112  2.0977
  116OSM    C7S12064   2.446   2.559   5.727  0.0756 -0.7462  0.0090
  116OSM    H7S12065   2.541   2.535   5.676 -0.2844 -0.2840 -0.9079
  116OSM    H7T12066   2.439   2.670   5.739  0.4801 -0.6913 -0.2519
  116OSM    C8S12067   2.327   2.508   5.653 -0.5253  0.1858 -0.0291
  116OSM    H8S12068   2.234   2.536   5.707 -0.2444 -0.9472  1.1058
  116OSM    H8T12069   2.331   2.397   5.652 -0.8963  0.1748 -0.3385
  116OSM    C9S12070   2.337   2.540   5.502  0.1361  0.3962 -0.0585
  116OSM    H9S12071   2.431   2.488   5.475 -0.2696 -0.1303 -0.4985
  116OSM    H9T12072   2.341   2.650   5.491 -1.3146  0.5558  0.6880
  116OSM   C10S12073   2.216   2.484   5.426  0.2130 -0.2147 -0.8450
  116OSM   H10S12074   2.121   2.533   5.456  1.5574  2.3404 -0.4592
  116OSM   H10T12075   2.215   2.374   5.446 -0.2444  0.2982  2.4969
  116OSM   C11S12076   2.231   2.501   5.275 -0.2575 -0.2794 -0.5845
  116OSM   H11S12077   2.191   2.410   5.226 -1.3507 -0.6424  0.9088
  116OSM   H11T12078   2.340   2.493   5.257 -0.2878 -0.8194 -0.5333
  116OSM   C12S12079   2.185   2.631   5.211 -0.2975  0.5199 -0.3457
  116OSM   H12S12080   2.246   2.723   5.228 -2.7875  2.7360 -2.5186
  116OSM   H12T12081   2.095   2.644   5.274  0.2481 -0.3971  0.6439
  116OSM   C13S12082   2.142   2.627   5.061  0.2886 -0.4388  0.4993
  116OSM   H13S12083   2.067   2.546   5.046  0.2869 -0.5377  1.0240
  116OSM   H13T12084   2.235   2.596   5.008  0.3264 -2.9613  1.8536
  116OSM   C14S12085   2.071   2.758   5.018  0.0959 -0.0298  0.0683
  116OSM   H14S12086   2.119   2.839   5.077 -1.8743 -0.2166  2.0445
  116OSM   H14T12087   1.964   2.755   5.049 -0.4979  0.2783 -1.8150
  116OSM   C15S12088   2.061   2.788   4.870 -0.0913  0.2718  0.0620
  116OSM   H15S12089   1.994   2.713   4.823  1.3700 -0.9458 -0.1601
  116OSM   H15T12090   2.157   2.785   4.813 -0.3499  0.1407 -0.3653
  116OSM   C16S12091   2.015   2.928   4.839  0.6202  0.2543 -0.1032
  116OSM   H16S12092   1.907   2.922   4.864  0.9589 -2.1922  1.1614
  116OSM   H16T12093   2.021   2.931   4.728 -0.2316 -0.1494 -0.1684
  116OSM   C17S12094   2.094   3.042   4.903 -0.4670  0.1411 -0.3445
  116OSM   H17S12095   2.198   3.014   4.879  0.2846  0.8235  1.8348
  116OSM   H17T12096   2.068   3.037   5.011 -0.2061  1.4226 -0.2060
  116OSM   C18S12097   2.065   3.171   4.833  0.0864 -0.6212 -0.4507
  116OSM   H18S12098   1.959   3.201   4.842  0.1774 -0.7913  2.1326
  116OSM   H18T12099   2.098   3.159   4.728  0.3628 -0.0434 -0.4385
  116OSM   H18U12100   2.121   3.255   4.881  0.3588 -0.0260 -1.7696
  116OSM    C1F12101   2.116   2.901   5.995  0.0612  0.0301 -0.6488
  116OSM     OF12102   2.159   2.994   6.048  0.0138  0.4446 -0.5069
  116OSM    C2F12103   2.021   2.921   5.884 -0.0926  0.1402 -0.6972
  116OSM    H2F12104   1.989   3.027   5.874  0.2976  0.5030  1.4445
  116OSM    H2G12105   1.929   2.864   5.909  0.7963 -1.2751 -0.5400
  116OSM    C3F12106   2.088   2.885   5.747 -1.0606 -0.0476  0.0920
  116OSM    H3F12107   2.117   2.780   5.724  4.0652  0.7567  1.8009
  116OSM    H3G12108   2.174   2.955   5.745 -2.2314  1.5562  2.3592
  116OSM    C4F12109   2.003   2.922   5.625 -0.5892  0.2031  0.8182
  116OSM    H4F12110   1.971   3.028   5.634 -1.8371  0.0923 -1.5904
  116OSM    H4G12111   1.908   2.865   5.612 -1.2558  1.6825 -1.4127
  116OSM    C5F12112   2.072   2.904   5.486  0.4914  0.4691 -0.6947
  116OSM    H5F12113   2.097   2.798   5.464  0.1562  0.0788  0.7011
  116OSM    H5G12114   2.161   2.970   5.495  0.1677  0.9778 -1.2326
  116OSM    C6F12115   1.987   2.950   5.367 -0.2307 -0.1436 -0.1334
  116OSM    H6F12116   1.907   2.873   5.363  2.8538 -3.7064  0.7083
  116OSM    H6G12117   2.041   2.945   5.270 -1.0597 -2.6678 -0.5395
  116OSM    C7F12118   1.943   3.100   5.366  0.0485  0.6168 -0.2703
  116OSM    H7F12119   1.953   3.144   5.264  1.6359  0.9070 -0.0239
  116OSM    H7G12120   2.012   3.160   5.429 -0.1373 -0.9887  1.5659
  116OSM    C8F12121   1.796   3.121   5.419 -0.4134 -0.1682  0.2491
  116OSM    H8F12122   1.792   3.088   5.525  2.7804 -0.1479  0.4709
  116OSM    H8G12123   1.735   3.052   5.356  1.1029 -0.6235 -0.7824
  116OSM    C9F12124   1.753   3.265   5.410  0.1737  0.4740 -0.1361
  116OSM    H9F12125   1.799   3.326   5.488  2.2880 -0.7684 -0.3252
  116OSM   C10F12126   1.671   3.321   5.318  0.0513  0.1237  0.0631
  116OSM   H10F12127   1.639   3.426   5.316  0.0409  0.1204 -1.4920
  116OSM   C11F12128   1.619   3.249   5.199  0.6948  0.3961  0.3241
  116OSM   H11F12129   1.523   3.201   5.227 -0.9556  2.6307 -1.1018
  116OSM   H11G12130   1.694   3.182   5.152  0.1978  0.6580 -0.9011
  116OSM   C12F12131   1.594   3.352   5.080 -0.6348 -0.2201 -0.0679
  116OSM   H12F12132   1.694   3.395   5.057  0.9329 -3.0338  0.8939
  116OSM   H12G12133   1.529   3.432   5.122  0.0627  0.3012  0.0303
  116OSM   C13F12134   1.537   3.278   4.957  0.2440  0.4087 -0.1753
  116OSM   H13F12135   1.427   3.271   4.972  0.0082  0.0670 -1.8929
  116OSM   H13G12136   1.585   3.179   4.951 -0.4034  0.1514 -1.4102
  116OSM   C14F12137   1.564   3.345   4.826 -0.2391 -0.1030 -0.2673
  116OSM   H14F12138   1.668   3.380   4.812 -0.5418  0.0973 -2.2195
  116OSM   H14G12139   1.513   3.443   4.818  1.3746  0.7857 -0.1409
  116OSM   C15F12140   1.531   3.244   4.719 -0.2107  0.2132 -0.1240
  116OSM   H15F12141   1.498   3.288   4.622  1.1957 -1.7629 -1.5704
  116OSM   H15G12142   1.446   3.179   4.749  0.9658 -1.1151  0.3961
  116OSM   C16F12143   1.645   3.147   4.694 -0.0558 -0.1737 -0.3266
  116OSM   H16F12144   1.650   3.074   4.778  1.6074  0.4164  0.1213
  116OSM   H16G12145   1.741   3.195   4.667  0.0858 -0.7374 -0.8438
  116OSM   C17F12146   1.612   3.053   4.576 -0.1112 -0.0744  0.1311
  116OSM   H17F12147   1.597   3.109   4.481 -0.3288 -0.5348 -0.1113
  116OSM   H17G12148   1.520   2.991   4.583 -1.7455  2.1289 -0.4395
  116OSM   C18F12149   1.727   2.956   4.559 -0.5883  0.6924  0.7177
  116OSM   H18F12150   1.719   2.913   4.457  3.3120  1.7682 -0.2245
  116OSM   H18G12151   1.729   2.869   4.628 -0.4239  1.3306  1.5336
  116OSM   H18H12152   1.823   3.013   4.559 -1.3258  1.9938 -0.9198
  117OSM      N12153   1.177   4.353   6.614 -0.5605  0.4764  0.0778
  117OSM    C1512154   1.274   4.457   6.645 -0.0058 -0.0404 -0.4098
  117OSM   H15A12155   1.356   4.467   6.575  1.8596 -2.1658  1.3324
  117OSM   H15B12156   1.327   4.434   6.737  0.2358 -0.9002 -0.7517
  117OSM   H15C12157   1.239   4.557   6.667  1.0953 -0.0403  1.6117
  117OSM    C1412158   1.256   4.232   6.555  0.3603  0.5724  0.0259
  117OSM   H14A12159   1.182   4.155   6.538  0.0990  0.7181  0.4743
  117OSM   H14B12160   1.338   4.194   6.614 -0.3005 -1.1176 -0.0949
  117OSM   H14C12161   1.294   4.267   6.460  2.3856  0.1289  0.6336
  117OSM    C1312162   1.115   4.307   6.745  0.2333 -0.0889  0.2129
  117OSM   H13A12163   1.050   4.222   6.734 -2.5219  2.0423 -1.3441
  117OSM   H13B12164   1.046   4.378   6.789  2.0411  1.2411  1.0064
  117OSM   H13C12165   1.186   4.270   6.817 -0.0242 -0.6214  0.1954
  117OSM    C1212166   1.067   4.397   6.516 -0.0711 -0.0623  0.5171
  117OSM   H12A12167   1.029   4.489   6.556  0.7926 -0.1998  1.6926
  117OSM   H12B12168   0.979   4.335   6.515 -0.0286 -0.1234  0.6548
  117OSM    C1112169   1.094   4.434   6.371  0.5027  0.4280  0.2438
  117OSM   H11A12170   0.991   4.444   6.331 -0.1229 -2.4327  0.9168
  117OSM   H11B12171   1.143   4.353   6.313 -0.6407  0.3963 -0.7139
  117OSM      P12172   1.131   4.693   6.373  0.3399 -0.2965  0.0203
  117OSM    O1312173   1.082   4.711   6.509  0.0596 -0.2106 -0.8900
  117OSM    O1412174   1.242   4.783   6.336  0.2204  0.5049  0.5591
  117OSM    O1112175   1.015   4.697   6.267 -0.2981 -0.4232  0.2262
  117OSM    O1212176   1.181   4.546   6.363  0.3930  0.0205 -0.1842
  117OSM    C1S12177   1.021   4.802   6.161 -0.6142 -0.4998 -0.6958
  117OSM    H1S12178   1.120   4.853   6.161  0.6150 -2.6668  1.5441
  117OSM    H1T12179   0.943   4.879   6.180 -1.6484 -1.1258 -2.1620
  117OSM     NF12180   1.020   4.826   5.919  0.8188 -0.0399  0.3779
  117OSM    HNF12181   0.944   4.874   5.875  1.5125 -0.1200 -0.9682
  117OSM    C2S12182   0.974   4.742   6.026  0.1372 -0.1065 -0.7311
  117OSM    H2S12183   1.031   4.647   6.018 -0.1008 -0.3259  0.1080
  117OSM    C3S12184   0.818   4.717   6.032 -0.6738  0.0565 -0.2447
  117OSM    H3S12185   0.754   4.808   6.024 -2.7446 -1.4057 -0.9343
  117OSM     O312186   0.763   4.659   6.151 -0.1941 -0.5357 -0.1446
  117OSM    HO312187   0.836   4.659   6.212  1.5848  0.3258 -2.1234
  117OSM    C4S12188   0.765   4.644   5.908 -0.6543 -0.5154  0.5824
  117OSM    H4S12189   0.728   4.701   5.822  0.4891 -0.4588  0.1059
  117OSM    C5S12190   0.756   4.510   5.896 -0.5817 -1.0716  0.5693
  117OSM    H5S12191   0.809   4.451   5.972  0.8269  1.5362  1.7664
  117OSM    C6S12192   0.688   4.448   5.777  0.6985 -0.6801  0.4676
  117OSM    H6S12193   0.620   4.368   5.815  0.5113  0.0514  1.7472
  117OSM    H6T12194   0.761   4.392   5.716 -0.3159 -1.0278 -0.4460
  117OSM    C7S12195   0.613   4.540   5.684 -0.4641 -0.1406 -0.5116
  117OSM    H7S12196   0.690   4.600   5.631 -0.7844  0.5626 -0.1917
  117OSM    H7T12197   0.549   4.611   5.741  0.6210  1.0179 -0.6807
  117OSM    C8S12198   0.530   4.472   5.577 -0.2912  0.2825 -0.7319
  117OSM    H8S12199   0.445   4.413   5.618 -0.2753  1.4639  1.0976
  117OSM    H8T12200   0.597   4.398   5.528 -0.4907  0.2629 -0.9753
  117OSM    C9S12201   0.482   4.559   5.460  0.1085 -0.7876  0.0627
  117OSM    H9S12202   0.534   4.657   5.464 -1.1256  0.1552 -3.4616
  117OSM    H9T12203   0.379   4.584   5.494  0.9820  3.6688  0.0270
  117OSM   C10S12204   0.491   4.503   5.322  0.1797  1.0985 -0.2439
  117OSM   H10S12205   0.444   4.403   5.317  0.0052  1.1186  0.7646
  117OSM   H10T12206   0.599   4.492   5.298  0.4780  1.0380  1.0473
  117OSM   C11S12207   0.413   4.584   5.216  0.2279  0.5347 -0.4095
  117OSM   H11S12208   0.433   4.689   5.247 -1.1984  0.4275  0.9830
  117OSM   H11T12209   0.305   4.574   5.239  0.5710 -1.6582  0.4475
  117OSM   C12S12210   0.448   4.544   5.080  0.0462  0.2517  0.1334
  117OSM   H12S12211   0.447   4.433   5.068 -1.0857  0.3795 -1.2489
  117OSM   H12T12212   0.546   4.578   5.041  0.3386  0.6757  1.1961
  117OSM   C13S12213   0.356   4.600   4.968 -0.3170  0.2434 -1.0364
  117OSM   H13S12214   0.378   4.704   4.933  0.9591  0.0692 -0.8104
  117OSM   H13T12215   0.254   4.595   5.010  0.8585 -1.3075  1.9301
  117OSM   C14S12216   0.361   4.508   4.845  0.3405  0.0150  0.0508
  117OSM   H14S12217   0.334   4.403   4.869 -0.4665  0.0369 -0.7056
  117OSM   H14T12218   0.464   4.498   4.807 -0.0434  0.4425 -1.1642
  117OSM   C15S12219   0.276   4.557   4.723  0.6358  0.0838 -0.5801
  117OSM   H15S12220   0.317   4.652   4.681 -0.3460  1.8064  2.0809
  117OSM   H15T12221   0.180   4.604   4.754  0.4420 -0.4952 -0.2958
  117OSM   C16S12222   0.238   4.460   4.612 -0.0820  0.9368 -0.1300
  117OSM   H16S12223   0.179   4.379   4.659  1.2802 -0.1922 -0.2877
  117OSM   H16T12224   0.333   4.425   4.565  0.6487  0.4140  1.6593
  117OSM   C17S12225   0.142   4.521   4.508 -0.3351  0.3483 -0.0822
  117OSM   H17S12226   0.195   4.604   4.456  1.0502 -0.0047  0.7464
  117OSM   H17T12227   0.049   4.564   4.552 -0.3936  0.6396 -0.4806
  117OSM   C18S12228   0.102   4.410   4.410 -0.1887  0.1781 -0.1775
  117OSM   H18S12229   0.041   4.455   4.329  0.6565  0.4920 -0.6493
  117OSM   H18T12230   0.047   4.329   4.463 -1.5633  1.1592 -0.0351
  117OSM   H18U12231   0.194   4.369   4.363  3.1019  1.8968  4.0070
  117OSM    C1F12232   1.148   4.845   5.883  0.2938 -0.1347  0.3453
  117OSM     OF12233   1.238   4.765   5.908  0.1636 -0.0148 -0.2860
  117OSM    C2F12234   1.178   4.979   5.809 -0.3490  1.0288  0.3816
  117OSM    H2F12235   1.206   5.053   5.887  1.2959  0.0435  0.7764
  117OSM    H2G12236   1.086   5.006   5.753  0.1225 -0.2521 -1.0885
  117OSM    C3F12237   1.299   4.966   5.720 -0.0530 -0.5404  0.2999
  117OSM    H3F12238   1.283   4.881   5.649 -0.4862  0.1691 -0.4720
  117OSM    H3G12239   1.398   4.951   5.768  0.9666  2.6972 -0.5578
  117OSM    C4F12240   1.319   5.098   5.637  0.1063  0.2572 -0.4901
  117OSM    H4F12241   1.335   5.178   5.712  0.2467 -0.2541  0.0357
  117OSM    H4G12242   1.218   5.114   5.594 -1.3866 -3.7054  1.0706
  117OSM    C5F12243   1.421   5.097   5.527  0.1800  0.3993  0.0034
  117OSM    H5F12244   1.366   5.069   5.434 -0.3411  2.7252 -0.4603
  117OSM    H5G12245   1.505   5.025   5.532 -1.5094 -1.6399  0.3662
  117OSM    C6F12246   1.479   5.235   5.498 -0.2201  0.7220 -0.1573
  117OSM    H6F12247   1.548   5.275   5.576  0.6986 -0.5395 -0.3008
  117OSM    H6G12248   1.389   5.300   5.489 -1.8424 -1.4408 -0.4564
  117OSM    C7F12249   1.562   5.239   5.363  0.1729 -0.2135 -0.3198
  117OSM    H7F12250   1.488   5.202   5.288 -0.5064  0.4315  0.0191
  117OSM    H7G12251   1.649   5.170   5.367  0.0256 -0.3510  2.9039
  117OSM    C8F12252   1.611   5.378   5.335  0.2703 -0.5823  0.0547
  117OSM    H8F12253   1.712   5.372   5.381 -0.6551 -0.3293  2.2711
  117OSM    H8G12254   1.556   5.456   5.392  2.0628  0.8132 -0.0101
  117OSM    C9F12255   1.620   5.434   5.196 -0.2651 -0.2403 -0.4577
  117OSM    H9F12256   1.680   5.369   5.130  4.6001  4.3901 -1.1984
  117OSM   C10F12257   1.580   5.551   5.145 -0.1580  0.5596  0.0028
  117OSM   H10F12258   1.599   5.566   5.037  0.8562  0.8285  0.2075
  117OSM   C11F12259   1.515   5.674   5.211  0.4912  0.5022  0.2527
  117OSM   H11F12260   1.578   5.761   5.184  1.8133 -0.9423 -1.6250
  117OSM   H11G12261   1.511   5.654   5.320 -0.5614 -1.4389 -0.1007
  117OSM   C12F12262   1.366   5.688   5.156  0.3967  0.5203 -0.3856
  117OSM   H12F12263   1.307   5.594   5.161  2.6436 -0.9549  0.4004
  117OSM   H12G12264   1.359   5.708   5.047 -2.3788  2.3291  0.0415
  117OSM   C13F12265   1.299   5.809   5.232  0.0313  0.3476 -0.0201
  117OSM   H13F12266   1.371   5.892   5.212 -0.8321  0.6718 -2.0067
  117OSM   H13G12267   1.282   5.778   5.338 -1.7510  2.3538  0.3486
  117OSM   C14F12268   1.159   5.842   5.178  1.0500 -0.1714 -0.6695
  117OSM   H14F12269   1.095   5.751   5.174 -0.3790  0.7862 -3.9267
  117OSM   H14G12270   1.156   5.874   5.071  0.9729 -0.5157 -0.7722
  117OSM   C15F12271   1.083   5.943   5.264  0.6762  0.4324  0.0801
  117OSM   H15F12272   1.136   6.039   5.251  0.1082  1.1046  2.3559
  117OSM   H15G12273   1.101   5.923   5.371  0.5020 -1.8329 -0.2677
  117OSM   C16F12274   0.938   5.952   5.237  0.6003  0.0946 -0.3413
  117OSM   H16F12275   0.890   6.023   5.308  0.8558 -1.6290  1.6433
  117OSM   H16G12276   0.885   5.855   5.246  0.0603  0.3336 -0.9046
  117OSM   C17F12277   0.900   5.992   5.089  0.3402  1.2061  0.0658
  117OSM   H17F12278   0.903   5.893   5.038 -0.1348  1.3556 -0.2645
  117OSM   H17G12279   0.975   6.058   5.041  1.5016 -0.6743 -0.8573
  117OSM   C18F12280   0.763   6.049   5.089  0.4644 -0.4422  0.2490
  117OSM   H18F12281   0.723   6.070   4.987  0.1923  2.3129  0.8264
  117OSM   H18G12282   0.752   6.151   5.133  1.0608  0.9143 -2.4954
  117OSM   H18H12283   0.690   5.983   5.140 -0.1508  0.7314  0.9426
  118OSM      N12284   1.535   3.716   7.027 -0.2270 -0.2209 -0.0435
  118OSM    C1512285   1.623   3.805   7.118  0.2915 -0.2807  1.1595
  118OSM   H15A12286   1.728   3.782   7.104 -0.3198 -2.4144 -0.3093
  118OSM   H15B12287   1.605   3.792   7.224  0.8113  1.7001  1.5351
  118OSM   H15C12288   1.599   3.905   7.084  0.4298 -0.6266  0.0260
  118OSM    C1412289   1.569   3.572   7.064 -0.4551 -0.8352 -0.6168
  118OSM   H14A12290   1.559   3.548   7.169  0.2819  0.4370 -0.2360
  118OSM   H14B12291   1.667   3.539   7.031 -1.2273 -3.5748 -0.4266
  118OSM   H14C12292   1.494   3.513   7.014 -0.3426 -0.0252 -1.7823
  118OSM    C1312293   1.388   3.748   7.060 -0.1290  0.5860 -0.0877
  118OSM   H13A12294   1.329   3.667   7.021  3.4035 -1.1781 -2.2997
  118OSM   H13B12295   1.358   3.844   7.020  0.8667  1.8264  1.9133
  118OSM   H13C12296   1.371   3.753   7.167 -0.7333 -0.2261 -0.1420
  118OSM    C1212297   1.561   3.745   6.879  0.8541 -0.2174 -0.6985
  118OSM   H12A12298   1.665   3.725   6.859  0.3794 -4.0854 -0.1143
  118OSM   H12B12299   1.538   3.849   6.859 -0.4308 -0.5892 -1.2611
  118OSM    C1112300   1.476   3.654   6.783  0.9746  0.1265  0.0628
  118OSM   H11A12301   1.467   3.698   6.681 -3.3738  0.0135  0.2062
  118OSM   H11B12302   1.371   3.645   6.819  1.1392  0.9665  0.7910
  118OSM      P12303   1.656   3.500   6.679 -0.1066  0.2745 -0.5962
  118OSM    O1312304   1.708   3.627   6.632  0.2049 -0.0075 -0.1858
  118OSM    O1412305   1.742   3.423   6.769  0.5073 -0.2682 -0.8447
  118OSM    O1112306   1.619   3.416   6.555  0.0153  0.0032  0.2901
  118OSM    O1212307   1.519   3.525   6.767 -0.1668  0.0517 -0.5002
  118OSM    C1S12308   1.501   3.432   6.483  0.1801 -0.0448  0.1700
  118OSM    H1S12309   1.468   3.538   6.479 -1.1056 -0.3070  2.1326
  118OSM    H1T12310   1.420   3.385   6.543  1.4028 -0.8025  1.2838
  118OSM     NF12311   1.405   3.443   6.255 -0.5128 -0.0089  0.0459
  118OSM    HNF12312   1.328   3.384   6.233 -2.4120  2.1428  0.5631
  118OSM    C2S12313   1.507   3.385   6.336 -0.8091  0.3206  0.0660
  118OSM    H2S12314   1.604   3.427   6.300 -1.4556  2.0791  0.2684
  118OSM    C3S12315   1.521   3.224   6.327  0.1059 -0.1334  0.0302
  118OSM    H3S12316   1.423   3.180   6.356 -0.6188  0.5774 -1.2502
  118OSM     O312317   1.612   3.176   6.425  0.1775  1.0648  0.0552
  118OSM    HO312318   1.605   3.242   6.494 -2.5447 -1.2823  2.3431
  118OSM    C4S12319   1.544   3.161   6.187  0.1358  0.0196 -0.2173
  118OSM    H4S12320   1.453   3.148   6.127  0.6910  3.2364 -2.0027
  118OSM    C5S12321   1.660   3.107   6.143  0.0093  0.1109 -0.0576
  118OSM    H5S12322   1.751   3.107   6.206 -0.6941 -1.3962  1.0426
  118OSM    C6S12323   1.681   3.027   6.017 -0.1895  0.1427 -0.1155
  118OSM    H6S12324   1.724   2.926   6.036  0.1895  0.5269  1.1171
  118OSM    H6T12325   1.753   3.079   5.950  0.3867 -1.6419 -0.9576
  118OSM    C7S12326   1.561   3.002   5.931  0.2881 -0.4221  0.1472
  118OSM    H7S12327   1.510   3.095   5.900 -2.7996 -1.4835  1.6592
  118OSM    H7T12328   1.487   2.941   5.986  0.5038 -1.7760 -1.0019
  118OSM    C8S12329   1.611   2.929   5.807  0.3320  0.2930  0.0417
  118OSM    H8S12330   1.655   2.832   5.837 -0.4111  0.0209  0.2644
  118OSM    H8T12331   1.696   2.988   5.766  0.4958 -0.2162 -0.3560
  118OSM    C9S12332   1.499   2.900   5.709  0.1717 -0.1969 -0.3827
  118OSM    H9S12333   1.478   2.991   5.649  0.7172 -0.7732 -1.4935
  118OSM    H9T12334   1.411   2.866   5.768  0.2702  0.2764  0.0384
  118OSM   C10S12335   1.541   2.799   5.605 -0.4022 -0.6766 -0.0156
  118OSM   H10S12336   1.538   2.702   5.660  0.3657  0.1548  1.5569
  118OSM   H10T12337   1.642   2.820   5.564 -0.2466 -1.2120  0.0776
  118OSM   C11S12338   1.455   2.777   5.476 -0.5312  0.6115  0.4112
  118OSM   H11S12339   1.347   2.768   5.501 -1.1278 -0.4827 -2.2623
  118OSM   H11T12340   1.471   2.671   5.446 -3.5512  0.3960 -0.7407
  118OSM   C12S12341   1.489   2.871   5.362 -0.5775  0.4846  0.6111
  118OSM   H12S12342   1.599   2.866   5.351 -0.5300 -1.6352  1.6773
  118OSM   H12T12343   1.458   2.974   5.391  2.0684  1.1905  1.1373
  118OSM   C13S12344   1.445   2.827   5.224  0.1184  0.0121  0.0927
  118OSM   H13S12345   1.342   2.787   5.232 -0.3767  0.1452 -3.7472
  118OSM   H13T12346   1.502   2.742   5.180 -2.2977 -2.1776  0.9498
  118OSM   C14S12347   1.431   2.948   5.128 -0.3686 -0.2267  0.8185
  118OSM   H14S12348   1.530   2.999   5.121 -0.2743 -0.5394 -0.4749
  118OSM   H14T12349   1.354   3.022   5.161 -1.0860 -0.1583 -0.8862
  118OSM   C15S12350   1.386   2.909   4.987 -0.4817  0.2536 -0.8597
  118OSM   H15S12351   1.344   3.002   4.941 -1.0697  0.8381  0.7849
  118OSM   H15T12352   1.299   2.842   5.005  0.2528 -0.2610  0.9984
  118OSM   C16S12353   1.501   2.861   4.897  0.0425  0.9848 -0.1092
  118OSM   H16S12354   1.602   2.893   4.929  1.7218 -2.1754 -1.7377
  118OSM   H16T12355   1.474   2.902   4.798 -0.5707  1.6589  0.3249
  118OSM   C17S12356   1.506   2.708   4.898  0.5645  0.0198  0.0669
  118OSM   H17S12357   1.405   2.662   4.891  0.7583 -0.6791  1.4878
  118OSM   H17T12358   1.533   2.674   5.000 -1.6182 -1.2320  0.2869
  118OSM   C18S12359   1.588   2.633   4.801 -0.1919  0.0036 -0.1852
  118OSM   H18S12360   1.567   2.524   4.799  0.5854 -0.1613  0.0729
  118OSM   H18T12361   1.694   2.644   4.833  0.2579 -0.4014 -1.4819
  118OSM   H18U12362   1.577   2.673   4.698  0.8060 -4.2476 -2.1533
  118OSM    C1F12363   1.401   3.577   6.225 -0.5641 -1.1534 -0.1439
  118OSM     OF12364   1.490   3.654   6.248 -0.4074  0.3779  0.1414
  118OSM    C2F12365   1.277   3.628   6.146 -0.5955 -0.0303  0.1535
  118OSM    H2F12366   1.259   3.734   6.174 -3.0597  0.0775 -1.5267
  118OSM    H2G12367   1.186   3.580   6.188 -1.4040 -0.2616 -1.7900
  118OSM    C3F12368   1.305   3.614   5.994 -0.0408 -0.4960 -0.3516
  118OSM    H3F12369   1.310   3.508   5.960 -1.5672 -0.8547  0.4669
  118OSM    H3G12370   1.402   3.664   5.970 -0.0442 -0.4280 -0.2214
  118OSM    C4F12371   1.198   3.678   5.906 -0.1523  0.4762  0.7298
  118OSM    H4F12372   1.225   3.676   5.798  1.4511  0.6170  1.1088
  118OSM    H4G12373   1.193   3.786   5.928 -0.9321  0.4234  0.8556
  118OSM    C5F12374   1.064   3.615   5.938  0.1373 -0.0627  0.4137
  118OSM    H5F12375   1.035   3.647   6.040  1.1709  1.8353  0.1736
  118OSM    H5G12376   1.082   3.506   5.932  0.3725  0.0007 -0.0936
  118OSM    C6F12377   0.957   3.646   5.830  0.6941 -0.0373 -0.1646
  118OSM    H6F12378   0.932   3.754   5.831 -1.5574 -0.3798  3.9764
  118OSM    H6G12379   0.864   3.592   5.859 -0.2566  0.6152 -1.8249
  118OSM    C7F12380   1.001   3.597   5.685  0.1678 -0.2403  0.6067
  118OSM    H7F12381   1.083   3.523   5.691  0.3916 -0.0963 -0.5463
  118OSM    H7G12382   1.052   3.680   5.632  0.9092 -1.4437 -0.6272
  118OSM    C8F12383   0.892   3.527   5.610 -0.2948 -0.7432  0.1715
  118OSM    H8F12384   0.837   3.456   5.677 -0.3348 -0.0443  0.8915
  118OSM    H8G12385   0.942   3.466   5.531  0.0387  0.1545 -0.3175
  118OSM    C9F12386   0.794   3.631   5.559 -0.0748  0.5293 -0.4731
  118OSM    H9F12387   0.770   3.714   5.626 -0.2809  1.5436 -1.7627
  118OSM   C10F12388   0.745   3.638   5.439  0.0955  0.1936 -0.0149
  118OSM   H10F12389   0.673   3.720   5.423  1.2763  0.8673 -2.2747
  118OSM   C11F12390   0.774   3.548   5.326  0.2286 -0.1850  0.2196
  118OSM   H11F12391   0.837   3.458   5.345 -1.8183 -1.5847  0.6248
  118OSM   H11G12392   0.826   3.607   5.246 -0.7415 -1.2510 -1.2485
  118OSM   C12F12393   0.641   3.494   5.267  0.0049 -0.2261 -0.5303
  118OSM   H12F12394   0.574   3.579   5.241 -1.2020  0.2042  3.2762
  118OSM   H12G12395   0.586   3.439   5.347  1.4888 -0.1039  0.6149
  118OSM   C13F12396   0.661   3.420   5.138  0.5766  0.1641  0.8154
  118OSM   H13F12397   0.723   3.329   5.154 -1.5126 -0.7705  5.1198
  118OSM   H13G12398   0.719   3.493   5.077 -0.6810  3.6159  3.3612
  118OSM   C14F12399   0.538   3.367   5.062  0.2446  0.1557 -0.7497
  118OSM   H14F12400   0.482   3.455   5.024  1.1341  0.7194 -0.8003
  118OSM   H14G12401   0.470   3.326   5.139  1.0059  3.3050  1.8094
  118OSM   C15F12402   0.574   3.256   4.954  0.4641  0.0044  0.0350
  118OSM   H15F12403   0.484   3.205   4.914  0.9861 -1.3521  0.5110
  118OSM   H15G12404   0.620   3.180   5.022 -0.5379 -0.0190  0.7080
  118OSM   C16F12405   0.664   3.299   4.838  0.0777  1.1743 -0.3503
  118OSM   H16F12406   0.717   3.213   4.791  0.6865  0.1204  2.1208
  118OSM   H16G12407   0.749   3.358   4.880  1.6975 -0.7995 -0.6934
  118OSM   C17F12408   0.595   3.371   4.733 -0.5195  0.0267  0.1945
  118OSM   H17F12409   0.558   3.470   4.766  1.6616  0.5496  1.2476
  118OSM   H17G12410   0.496   3.327   4.704 -0.7607 -0.1914  1.3184
  118OSM   C18F12411   0.669   3.386   4.602 -0.7435 -0.0444  0.6025
  118OSM   H18F12412   0.777   3.409   4.614 -1.0853  2.7388 -0.9327
  118OSM   H18G12413   0.620   3.475   4.557  0.1863  0.1940  0.0409
  118OSM   H18H12414   0.667   3.298   4.535  0.2055  0.4539 -0.1039
  119OSM      N12415   3.378   3.845   6.320  0.9448  0.9209  0.7221
  119OSM    C1512416   3.397   3.991   6.285 -0.3770 -0.4572 -1.1943
  119OSM   H15A12417   3.423   3.995   6.181  1.6263  0.4592 -0.7133
  119OSM   H15B12418   3.460   4.042   6.356 -2.6092  1.3466 -0.3846
  119OSM   H15C12419   3.300   4.035   6.305 -0.7690 -2.3728  1.7125
  119OSM    C1412420   3.290   3.823   6.437  0.0285  0.5705 -0.3125
  119OSM   H14A12421   3.326   3.856   6.533 -1.3559  1.5684 -0.0938
  119OSM   H14B12422   3.262   3.720   6.452  0.8566  0.6048  1.8831
  119OSM   H14C12423   3.202   3.884   6.421  0.5986  0.7570 -3.3045
  119OSM    C1312424   3.307   3.791   6.200  0.4426  0.9711 -0.0392
  119OSM   H13A12425   3.267   3.696   6.235  3.0173  0.7187  2.6953
  119OSM   H13B12426   3.367   3.766   6.114 -1.0071  0.4307 -0.9372
  119OSM   H13C12427   3.228   3.860   6.176 -0.9689 -0.9303 -1.1919
  119OSM    C1212428   3.505   3.760   6.326  0.1002 -0.1043 -0.5754
  119OSM   H12A12429   3.485   3.655   6.341  2.1884 -0.3576  0.8078
  119OSM   H12B12430   3.554   3.786   6.419 -1.6026  1.4395 -0.0449
  119OSM    C1112431   3.605   3.773   6.212  0.3313  0.4758 -0.1678
  119OSM   H11A12432   3.641   3.876   6.193  1.2933 -0.2473 -2.6903
  119OSM   H11B12433   3.554   3.736   6.120  1.7796  1.1742 -1.3076
  119OSM      P12434   3.831   3.724   6.335 -0.0727  0.0396 -0.1135
  119OSM    O1312435   3.770   3.757   6.468  0.1090  0.6788  0.2651
  119OSM    O1412436   3.925   3.606   6.336  0.3528 -0.1847 -0.5636
  119OSM    O1112437   3.906   3.856   6.285  0.3092  0.4141  0.3026
  119OSM    O1212438   3.714   3.684   6.234 -0.1723 -0.0741 -0.3361
  119OSM    C1S12439   3.978   3.854   6.162 -0.1230  0.8740  0.6711
  119OSM    H1S12440   3.960   3.761   6.104 -1.1188  0.9201  0.8780
  119OSM    H1T12441   4.088   3.849   6.178 -0.2725 -2.2029  1.3329
  119OSM     NF12442   4.002   3.962   5.941  0.4933  0.1360 -0.3331
  119OSM    HNF12443   4.085   4.017   5.931 -0.5504  2.4682  2.6657
  119OSM    C2S12444   3.939   3.972   6.071  0.1939  0.1166 -0.1195
  119OSM    H2S12445   3.829   3.966   6.053  0.0656  1.1511  0.2582
  119OSM    C3S12446   3.964   4.106   6.134  0.6891 -0.2175 -0.0110
  119OSM    H3S12447   4.070   4.139   6.134  0.0736  1.9412 -0.0461
  119OSM     O312448   3.927   4.109   6.271  0.3101 -0.3087  0.3307
  119OSM    HO312449   3.890   4.021   6.281  0.9383 -0.4286  1.9400
  119OSM    C4S12450   3.890   4.212   6.056  0.0941  0.1500 -0.5060
  119OSM    H4S12451   3.959   4.272   5.994  1.6785 -1.4223 -0.3605
  119OSM    C5S12452   3.761   4.232   6.035  1.1217  0.1013  0.1970
  119OSM    H5S12453   3.696   4.155   6.080  1.6560 -0.1717  0.5114
  119OSM    C6S12454   3.694   4.332   5.944 -0.0266  0.6178 -0.5205
  119OSM    H6S12455   3.635   4.404   6.004  2.5946  0.6350  2.3067
  119OSM    H6T12456   3.625   4.279   5.875 -0.2634 -0.0402  0.2020
  119OSM    C7S12457   3.786   4.413   5.848  0.1503  0.2604 -0.2021
  119OSM    H7S12458   3.828   4.342   5.774  2.5507 -0.1241  1.4388
  119OSM    H7T12459   3.880   4.454   5.890  1.0420 -1.7045 -0.1555
  119OSM    C8S12460   3.700   4.515   5.775  0.1513  0.1668 -1.0243
  119OSM    H8S12461   3.648   4.568   5.858  0.0673 -0.9379 -0.3572
  119OSM    H8T12462   3.616   4.464   5.722 -0.0780 -0.9693  0.3899
  119OSM    C9S12463   3.777   4.602   5.685 -0.2492 -0.2455  0.9536
  119OSM    H9S12464   3.822   4.537   5.608 -0.5881  1.2570 -0.5696
  119OSM    H9T12465   3.864   4.655   5.729  0.2354  0.5168 -0.8360
  119OSM   C10S12466   3.679   4.695   5.616 -0.0280 -0.2842  0.1731
  119OSM   H10S12467   3.629   4.746   5.701 -1.4729 -2.0153  0.4124
  119OSM   H10T12468   3.604   4.632   5.563  2.6658 -2.8313 -0.8784
  119OSM   C11S12469   3.733   4.780   5.502  0.4432  0.9732 -0.1018
  119OSM   H11S12470   3.817   4.840   5.542 -0.1536  0.1451  2.5749
  119OSM   H11T12471   3.647   4.847   5.477 -0.0958  0.2721 -0.1441
  119OSM   C12S12472   3.775   4.700   5.377 -0.1562 -0.0219 -0.3842
  119OSM   H12S12473   3.704   4.615   5.368 -0.7196  0.5881 -2.3620
  119OSM   H12T12474   3.874   4.656   5.401 -1.1288 -3.2188 -1.7599
  119OSM   C13S12475   3.783   4.781   5.245 -0.0300  0.8056 -1.2397
  119OSM   H13S12476   3.876   4.839   5.263 -0.1052  0.4604  0.3850
  119OSM   H13T12477   3.700   4.854   5.239  0.2189  1.0132 -2.3917
  119OSM   C14S12478   3.794   4.713   5.113  0.1834 -0.1982 -0.0306
  119OSM   H14S12479   3.701   4.654   5.125 -0.3828  0.3542 -1.5032
  119OSM   H14T12480   3.879   4.644   5.098  0.9659  1.1559 -2.3379
  119OSM   C15S12481   3.789   4.810   4.998 -0.2936 -0.7894  0.0562
  119OSM   H15S12482   3.889   4.855   4.984 -0.3184 -0.7998 -0.1576
  119OSM   H15T12483   3.727   4.900   5.022  0.7329  0.5660 -2.1137
  119OSM   C16S12484   3.738   4.764   4.858  0.3962 -0.7348  0.0125
  119OSM   H16S12485   3.629   4.743   4.850  0.7865 -2.0584 -3.5118
  119OSM   H16T12486   3.784   4.665   4.840 -0.0637 -0.8501 -0.5770
  119OSM   C17S12487   3.785   4.854   4.743 -0.0625 -0.5942  0.0997
  119OSM   H17S12488   3.863   4.929   4.769 -0.4638  1.2548 -3.4614
  119OSM   H17T12489   3.697   4.909   4.705 -0.6357 -1.8472 -0.4121
  119OSM   C18S12490   3.840   4.773   4.626  0.1687  0.2564  0.1025
  119OSM   H18S12491   3.840   4.841   4.538 -1.0292  0.1416  0.0017
  119OSM   H18T12492   3.777   4.684   4.604  1.2408 -0.4890 -0.0612
  119OSM   H18U12493   3.944   4.745   4.651 -0.2456 -1.5740 -0.1132
  119OSM    C1F12494   3.951   3.888   5.846 -0.5034  0.4972 -0.2261
  119OSM     OF12495   3.837   3.843   5.853  0.5396  0.1384 -0.0735
  119OSM    C2F12496   4.033   3.874   5.722 -0.0867 -0.3371 -0.0572
  119OSM    H2F12497   4.118   3.946   5.718  1.2637 -1.8885 -0.3596
  119OSM    H2G12498   3.968   3.908   5.638 -0.0605 -1.3995 -0.5198
  119OSM    C3F12499   4.080   3.725   5.719  0.0161 -0.6390  0.1427
  119OSM    H3F12500   4.007   3.646   5.746  0.1517  0.2075  3.4640
  119OSM    H3G12501   4.152   3.715   5.803 -0.5229 -0.6889  0.6029
  119OSM    C4F12502   4.151   3.700   5.580  0.0730  0.5482  0.2037
  119OSM    H4F12503   4.224   3.617   5.569  1.3104  1.4548  1.2748
  119OSM    H4G12504   4.213   3.792   5.565  1.0186  0.1107  1.2672
  119OSM    C5F12505   4.042   3.685   5.466  0.5850  0.1106  0.3585
  119OSM    H5F12506   3.955   3.752   5.481  0.5610  0.3252 -0.6718
  119OSM    H5G12507   4.016   3.577   5.467  0.9614  0.0157  0.0314
  119OSM    C6F12508   4.106   3.702   5.328  0.3696  0.0088 -0.4637
  119OSM    H6F12509   4.089   3.621   5.253  0.5881  2.1371 -2.9845
  119OSM    H6G12510   4.217   3.705   5.335  0.4110  1.6779 -1.3299
  119OSM    C7F12511   4.075   3.834   5.258  0.1956 -0.1203  0.3678
  119OSM    H7F12512   4.100   3.921   5.322  0.2803 -0.9572  1.4921
  119OSM    H7G12513   3.965   3.844   5.247 -0.0920 -0.3450  2.6087
  119OSM    C8F12514   4.155   3.841   5.125 -0.7604  0.3208  0.1521
  119OSM    H8F12515   4.131   3.742   5.081 -1.4168  0.3737  0.3738
  119OSM    H8G12516   4.264   3.844   5.146 -0.4995  1.0518 -1.1767
  119OSM    C9F12517   4.116   3.956   5.034 -0.3024 -0.1207  1.0048
  119OSM    H9F12518   4.150   4.057   5.063  0.8865  0.9528 -3.3824
  119OSM   C10F12519   4.042   3.944   4.926  0.0052  0.1330  0.3065
  119OSM   H10F12520   4.018   4.037   4.872  0.1754  0.9491  1.6084
  119OSM   C11F12521   3.993   3.823   4.861  0.4946  0.2330  0.8215
  119OSM   H11F12522   3.904   3.850   4.801  0.6362  0.6195  0.7882
  119OSM   H11G12523   3.954   3.748   4.934 -1.0273 -0.6852 -0.8747
  119OSM   C12F12524   4.102   3.752   4.775  0.1135  0.0050  0.8020
  119OSM   H12F12525   4.069   3.654   4.736 -0.9400  0.2856  0.9498
  119OSM   H12G12526   4.193   3.728   4.835  1.8927  0.5712 -1.5440
  119OSM   C13F12527   4.168   3.837   4.659  0.1187  0.6424 -0.0062
  119OSM   H13F12528   4.242   3.776   4.602  2.1161  1.6497  1.3943
  119OSM   H13G12529   4.226   3.920   4.704  1.0915 -0.4403  0.8010
  119OSM   C14F12530   4.062   3.873   4.554  0.0642 -1.5121  0.2558
  119OSM   H14F12531   3.986   3.944   4.592 -1.6396 -1.9426 -2.1338
  119OSM   H14G12532   4.013   3.779   4.522 -4.0020  1.1216 -2.1220
  119OSM   C15F12533   4.112   3.949   4.431  0.2616 -0.4488 -0.4134
  119OSM   H15F12534   4.170   3.876   4.370 -0.5572 -3.1080  1.7725
  119OSM   H15G12535   4.183   4.030   4.456 -0.1347  0.0048 -0.7373
  119OSM   C16F12536   3.991   4.003   4.345  0.3493 -0.0456  0.1244
  119OSM   H16F12537   3.986   4.114   4.353 -0.8977  0.0333 -1.3033
  119OSM   H16G12538   3.891   3.964   4.374 -0.7172  2.1274 -0.3778
  119OSM   C17F12539   3.998   3.970   4.194  0.0289 -0.0187 -0.0588
  119OSM   H17F12540   4.107   3.980   4.174  0.0309  0.9301  0.3535
  119OSM   H17G12541   3.937   4.047   4.141 -1.3789 -2.8683 -2.9011
  119OSM   C18F12542   3.945   3.833   4.149  0.1385  0.7158 -0.3144
  119OSM   H18F12543   3.852   3.811   4.205 -0.5797 -2.0205 -2.3734
  119OSM   H18G12544   4.020   3.754   4.172 -0.7796  0.3453  1.5581
  119OSM   H18H12545   3.908   3.832   4.044  0.0101  1.9596 -0.3013
  120OSM      N12546   2.051   0.392   6.812 -0.4705 -0.2835  0.6364
  120OSM    C1512547   2.007   0.308   6.928 -0.1203  0.0937 -0.9472
  120OSM   H15A12548   1.899   0.297   6.925 -0.1987 -2.6703  3.5045
  120OSM   H15B12549   2.024   0.355   7.024 -0.8019 -2.5897  0.5819
  120OSM   H15C12550   2.044   0.208   6.919  1.1666  0.2973  1.3667
  120OSM    C1412551   1.947   0.369   6.700  0.1982  0.4191 -0.0992
  120OSM   H14A12552   1.973   0.424   6.611  3.0036 -0.7326 -0.0872
  120OSM   H14B12553   1.848   0.405   6.725 -0.3890  0.3057 -2.1158
  120OSM   H14C12554   1.944   0.265   6.672 -1.7126  0.7340 -1.2545
  120OSM    C1312555   2.029   0.531   6.857  0.5575 -0.3624 -1.3894
  120OSM   H13A12556   2.025   0.602   6.776  0.5258  0.8955 -0.3303
  120OSM   H13B12557   2.119   0.555   6.913  1.4031 -1.1398 -2.3679
  120OSM   H13C12558   1.934   0.540   6.906  0.0588  1.5353 -2.6059
  120OSM    C1212559   2.190   0.361   6.758  0.2151  0.4593 -0.7082
  120OSM   H12A12560   2.206   0.257   6.782 -1.9739 -0.0417 -1.2391
  120OSM   H12B12561   2.264   0.415   6.815  0.3113 -1.5687  1.2170
  120OSM    C1112562   2.221   0.396   6.616  0.0697  0.1468 -0.4683
  120OSM   H11A12563   2.169   0.481   6.567 -3.6454 -1.1549  0.8444
  120OSM   H11B12564   2.190   0.310   6.553 -1.2536 -0.7114  1.2617
  120OSM      P12565   2.466   0.306   6.619  0.5257 -0.3954 -0.1243
  120OSM    O1312566   2.596   0.380   6.609 -0.6249  0.4935 -0.7690
  120OSM    O1412567   2.451   0.212   6.731 -0.4603  0.5222 -0.3147
  120OSM    O1112568   2.442   0.230   6.484  0.7726  0.2905  0.0045
  120OSM    O1212569   2.359   0.421   6.613  0.3194  0.8591 -0.4452
  120OSM    C1S12570   2.420   0.303   6.362  0.3776 -0.3517  0.0433
  120OSM    H1S12571   2.509   0.364   6.335 -0.4413  0.6856 -0.3618
  120OSM    H1T12572   2.327   0.363   6.368  0.1621 -0.8020  1.5790
  120OSM     NF12573   2.424   0.259   6.111  0.0301 -0.0258 -0.5065
  120OSM    HNF12574   2.356   0.300   6.050  0.8752  0.8981 -0.8586
  120OSM    C2S12575   2.390   0.204   6.245 -0.6039  0.5881  0.2031
  120OSM    H2S12576   2.443   0.108   6.265  1.2064  1.2555 -1.1016
  120OSM    C3S12577   2.243   0.144   6.255 -0.2822  0.4743  0.0658
  120OSM    H3S12578   2.171   0.227   6.246  0.9394  1.7787  1.6347
  120OSM     O312579   2.225   0.076   6.378  0.3390 -0.4104  0.2703
  120OSM    HO312580   2.299   0.106   6.431  0.2932 -0.8250  0.5796
  120OSM    C4S12581   2.202   0.039   6.147 -0.1921 -0.6728 -0.1315
  120OSM    H4S12582   2.294  -0.005   6.106  1.7471  3.3296 -0.5670
  120OSM    C5S12583   2.081   0.019   6.090  0.9337 -0.6131 -0.3307
  120OSM    H5S12584   2.002   0.087   6.123  2.2853 -0.4901  2.9767
  120OSM    C6S12585   2.056  -0.088   5.988 -0.5537  0.1042 -0.2099
  120OSM    H6S12586   1.997  -0.170   6.032  1.4117 -1.0759  0.3547
  120OSM    H6T12587   2.149  -0.125   5.939 -0.0863  1.7919 -0.6866
  120OSM    C7S12588   1.996  -0.007   5.866 -0.1267 -0.0217 -0.9524
  120OSM    H7S12589   2.056   0.081   5.835  0.6665 -0.7254 -1.4550
  120OSM    H7T12590   1.896   0.032   5.894  1.1666  3.4292 -0.7146
  120OSM    C8S12591   1.987  -0.092   5.740 -0.3598  0.2849 -0.7328
  120OSM    H8S12592   1.909  -0.172   5.747  2.3082 -2.5327 -0.8773
  120OSM    H8T12593   2.084  -0.147   5.738 -0.5400 -0.0082 -2.3425
  120OSM    C9S12594   1.974  -0.013   5.611 -0.4592 -0.0284  0.8649
  120OSM    H9S12595   2.047   0.070   5.609  2.0969 -2.1662  0.8850
  120OSM    H9T12596   1.873   0.034   5.600 -0.3594 -0.3123 -2.1835
  120OSM   C10S12597   1.986  -0.090   5.480 -0.3092 -0.0503  0.4692
  120OSM   H10S12598   1.908  -0.168   5.463 -0.6583  0.4864 -0.5146
  120OSM   H10T12599   2.087  -0.135   5.467 -0.0522  0.7115 -0.2614
  120OSM   C11S12600   1.974   0.005   5.363 -0.0352 -0.4104 -0.8139
  120OSM   H11S12601   2.038   0.092   5.391 -0.4579 -0.0777 -0.8579
  120OSM   H11T12602   1.877   0.058   5.355 -0.7942 -1.3779  1.4514
  120OSM   C12S12603   2.018  -0.042   5.220 -0.0076  0.2120 -0.0790
  120OSM   H12S12604   2.126  -0.067   5.217 -0.2085 -1.0035  1.5726
  120OSM   H12T12605   1.998   0.030   5.138  0.2545  0.4892  0.1018
  120OSM   C13S12606   1.948  -0.172   5.183 -0.3611  0.0103 -0.2134
  120OSM   H13S12607   1.840  -0.161   5.206  0.1900  0.4083  2.5409
  120OSM   H13T12608   1.976  -0.255   5.251  0.6212  1.2183  0.9140
  120OSM   C14S12609   1.965  -0.208   5.029 -0.0489 -0.5677  0.5987
  120OSM   H14S12610   2.069  -0.229   4.997 -0.9413 -4.3410 -0.2831
  120OSM   H14T12611   1.921  -0.121   4.976  1.6309 -0.3986 -0.6094
  120OSM   C15S12612   1.882  -0.330   4.988 -0.4337 -0.2129  0.1143
  120OSM   H15S12613   1.781  -0.318   5.031  0.1550  0.8396  1.2659
  120OSM   H15T12614   1.926  -0.419   5.039  2.3073  1.5184  0.9979
  120OSM   C16S12615   1.885  -0.350   4.844 -0.1740  0.2321  0.0476
  120OSM   H16S12616   1.817  -0.436   4.829  1.4728 -1.3784  1.2742
  120OSM   H16T12617   1.980  -0.378   4.794 -0.5913  0.1568 -0.7172
  120OSM   C17S12618   1.838  -0.236   4.754  0.2126  0.1611 -0.4648
  120OSM   H17S12619   1.905  -0.149   4.772  0.9855 -0.6123  0.5478
  120OSM   H17T12620   1.733  -0.210   4.778  0.5448  0.9698  0.2128
  120OSM   C18S12621   1.835  -0.261   4.606  0.2297  0.7872 -0.0681
  120OSM   H18S12622   1.769  -0.191   4.549  0.4539 -0.7976 -2.4324
  120OSM   H18T12623   1.794  -0.360   4.578 -0.2676  0.4467  1.7425
  120OSM   H18U12624   1.938  -0.266   4.564  0.5267 -1.5339  0.8169
  120OSM    C1F12625   2.561   0.272   6.087 -0.3914  0.3367 -0.0346
  120OSM     OF12626   2.646   0.252   6.174 -0.2236  0.3252 -0.0132
  120OSM    C2F12627   2.600   0.326   5.952 -0.1266  0.0837 -0.5414
  120OSM    H2F12628   2.700   0.370   5.971 -0.6398  0.6320  1.0248
  120OSM    H2G12629   2.523   0.401   5.924 -1.1045 -0.5309  0.4304
  120OSM    C3F12630   2.618   0.219   5.841  0.6124 -0.2898 -0.2088
  120OSM    H3F12631   2.691   0.140   5.868 -0.2727 -0.2442  2.6558
  120OSM    H3G12632   2.668   0.275   5.759  1.3487 -0.1969  0.2933
  120OSM    C4F12633   2.490   0.161   5.782  0.0500 -0.1126 -0.0208
  120OSM    H4F12634   2.441   0.248   5.733  2.0169  0.7998 -0.4694
  120OSM    H4G12635   2.423   0.120   5.862  1.1404 -0.0716  0.9378
  120OSM    C5F12636   2.520   0.057   5.674  0.2806 -0.5247 -0.2114
  120OSM    H5F12637   2.584  -0.028   5.705 -0.4256 -2.0843 -2.7709
  120OSM    H5G12638   2.574   0.101   5.588 -2.8743  0.4086 -1.8593
  120OSM    C6F12639   2.393   0.002   5.618  0.7366 -0.0275  0.0314
  120OSM    H6F12640   2.340   0.081   5.560  0.7866  0.5727  0.7932
  120OSM    H6G12641   2.333  -0.033   5.705  2.1685  0.4771  1.2592
  120OSM    C7F12642   2.429  -0.121   5.532  0.0681 -0.0269  0.2267
  120OSM    H7F12643   2.330  -0.166   5.508  0.7546 -2.5645  1.6929
  120OSM    H7G12644   2.477  -0.202   5.592 -0.8819  0.8163  2.1875
  120OSM    C8F12645   2.508  -0.091   5.401  0.1249 -0.0896  0.5532
  120OSM    H8F12646   2.529  -0.186   5.348 -0.4298 -1.4844  2.7121
  120OSM    H8G12647   2.603  -0.040   5.426 -0.0558  0.1978  0.6683
  120OSM    C9F12648   2.430   0.002   5.302 -0.1072  0.2662  0.0109
  120OSM    H9F12649   2.386   0.096   5.340 -0.9343 -0.1984  0.2362
  120OSM   C10F12650   2.406  -0.020   5.173 -0.3774  0.0326  0.0757
  120OSM   H10F12651   2.352   0.062   5.124 -0.0566 -1.2226 -2.5012
  120OSM   C11F12652   2.460  -0.128   5.087 -0.2079  0.8752 -0.7441
  120OSM   H11F12653   2.381  -0.205   5.072 -1.8866  2.2499  0.5746
  120OSM   H11G12654   2.544  -0.177   5.140  0.9084  0.7640 -2.5288
  120OSM   C12F12655   2.516  -0.070   4.956  0.2292  0.0394 -0.0807
  120OSM   H12F12656   2.613  -0.025   4.987 -0.5400  1.3669  0.4989
  120OSM   H12G12657   2.464   0.015   4.909  0.0342 -0.2561 -0.4031
  120OSM   C13F12658   2.540  -0.173   4.839  0.1532 -0.2030  0.1418
  120OSM   H13F12659   2.440  -0.216   4.819  0.9593 -0.8630 -2.9080
  120OSM   H13G12660   2.612  -0.257   4.854 -0.1591 -0.4925  0.0165
  120OSM   C14F12661   2.576  -0.104   4.702 -1.0899 -0.1353  0.4257
  120OSM   H14F12662   2.675  -0.054   4.710 -0.6674 -0.5349 -1.6386
  120OSM   H14G12663   2.501  -0.033   4.662 -0.8332  1.8919  3.2323
  120OSM   C15F12664   2.606  -0.215   4.597  0.0245 -1.2442  0.0847
  120OSM   H15F12665   2.507  -0.263   4.582 -1.4470  0.8391  2.3200
  120OSM   H15G12666   2.678  -0.285   4.643  0.9409 -1.5697 -1.7595
  120OSM   C16F12667   2.680  -0.173   4.475 -0.1478  0.6028 -0.2917
  120OSM   H16F12668   2.779  -0.128   4.496 -0.9423  1.2761  2.3659
  120OSM   H16G12669   2.624  -0.096   4.417  1.7364  2.7151  0.5358
  120OSM   C17F12670   2.723  -0.297   4.395  0.2314 -0.5134  0.6031
  120OSM   H17F12671   2.630  -0.339   4.352 -0.8558  0.8059  1.5536
  120OSM   H17G12672   2.763  -0.369   4.469 -1.6890  0.2845  2.5577
  120OSM   C18F12673   2.827  -0.266   4.289  0.2838 -0.7594 -0.2443
  120OSM   H18F12674   2.913  -0.242   4.355 -0.5152 -2.1828  1.4026
  120OSM   H18G12675   2.794  -0.175   4.233  0.3644 -0.0861  0.7752
  120OSM   H18H12676   2.851  -0.344   4.214  2.7090  1.0367 -1.4974
  121OSM      N12677   0.641   6.816   6.698  0.2680 -0.0676 -0.3191
  121OSM    C1512678   0.535   6.733   6.765  0.3004  0.0215  0.0336
  121OSM   H15A12679   0.573   6.663   6.837  1.1520 -1.0679 -1.4156
  121OSM   H15B12680   0.482   6.673   6.693 -1.3981  2.4081 -0.8457
  121OSM   H15C12681   0.457   6.790   6.814  1.1616  0.1169  1.3319
  121OSM    C1412682   0.697   6.718   6.601 -0.4236  0.1645 -0.1214
  121OSM   H14A12683   0.734   6.634   6.659  3.2031  1.2054 -0.6930
  121OSM   H14B12684   0.783   6.756   6.548 -0.4068 -0.0796 -0.2730
  121OSM   H14C12685   0.627   6.684   6.527 -0.8613  0.8180 -0.0164
  121OSM    C1312686   0.573   6.915   6.619 -0.1009 -0.3997 -0.6437
  121OSM   H13A12687   0.642   6.988   6.580  1.8351 -1.4447  0.6386
  121OSM   H13B12688   0.499   6.963   6.681 -0.1548  1.8925 -2.3770
  121OSM   H13C12689   0.514   6.877   6.537 -0.8535 -1.2049  0.2389
  121OSM    C1212690   0.746   6.869   6.784 -0.4206  0.6198  0.9145
  121OSM   H12A12691   0.840   6.863   6.732  0.1675 -3.0986  2.1106
  121OSM   H12B12692   0.778   6.796   6.857 -0.5382 -2.0608 -1.5136
  121OSM    C1112693   0.721   7.008   6.856 -0.4379  0.3849  0.1238
  121OSM   H11A12694   0.760   7.003   6.960  2.7343 -0.5176 -1.0029
  121OSM   H11B12695   0.611   7.019   6.862 -0.5964 -1.2061  0.6756
  121OSM      P12696   0.920   7.155   6.761  0.0950  0.0186 -0.3979
  121OSM    O1312697   0.964   7.286   6.813  0.4378 -0.6334  0.2178
  121OSM    O1412698   1.003   7.040   6.804 -0.6924  0.0961  0.2184
  121OSM    O1112699   0.930   7.153   6.607 -0.3283  0.1214 -0.2978
  121OSM    O1212700   0.765   7.121   6.778  0.6487 -0.2919  0.2400
  121OSM    C1S12701   0.828   7.137   6.505 -0.2819 -0.0560  0.3076
  121OSM    H1S12702   0.734   7.194   6.520  0.9112  2.3587 -0.7664
  121OSM    H1T12703   0.804   7.028   6.506 -0.8931  0.0476  2.7003
  121OSM     NF12704   0.754   7.154   6.272 -0.1855  0.5523 -0.2701
  121OSM    HNF12705   0.750   7.073   6.214 -1.4492 -1.0422  1.8747
  121OSM    C2S12706   0.873   7.161   6.361 -0.0213  0.9194 -0.4019
  121OSM    H2S12707   0.913   7.263   6.346  1.2575  0.1147 -2.9598
  121OSM    C3S12708   0.998   7.063   6.336  0.4707  0.2105  0.1622
  121OSM    H3S12709   0.966   6.956   6.341 -0.0046  0.2378 -1.6623
  121OSM     O312710   1.101   7.065   6.434 -0.2797 -0.2231  0.5152
  121OSM    HO312711   1.062   7.116   6.505 -2.7100  1.1733 -1.6426
  121OSM    C4S12712   1.050   7.078   6.195 -0.0787 -0.0072 -0.2401
  121OSM    H4S12713   0.983   7.022   6.128 -0.8095  0.3645  0.1678
  121OSM    C5S12714   1.155   7.147   6.143  0.6276  0.6978  0.5579
  121OSM    H5S12715   1.221   7.203   6.212  0.0864  1.1942  0.6766
  121OSM    C6S12716   1.190   7.159   5.992 -0.7698  0.6488  0.1439
  121OSM    H6S12717   1.298   7.146   5.970 -0.9742  0.3071 -0.6886
  121OSM    H6T12718   1.173   7.265   5.963 -0.3575  0.3930 -1.0768
  121OSM    C7S12719   1.114   7.067   5.886  0.0857 -0.7164  1.1526
  121OSM    H7S12720   1.012   7.111   5.875  0.2167 -0.5994  0.3540
  121OSM    H7T12721   1.120   6.958   5.907  1.4358 -0.9468 -0.2718
  121OSM    C8S12722   1.159   7.082   5.741 -0.1054  0.0013  0.7942
  121OSM    H8S12723   1.270   7.075   5.750  0.1656  1.9707 -0.5912
  121OSM    H8T12724   1.149   7.189   5.713  0.3661  0.1140  1.0352
  121OSM    C9S12725   1.102   6.989   5.642  0.5095  0.3299 -0.1731
  121OSM    H9S12726   0.992   6.998   5.649  0.6671  1.7101  1.0290
  121OSM    H9T12727   1.124   6.882   5.660 -0.4805  0.1015 -0.2696
  121OSM   C10S12728   1.148   7.020   5.499  0.2558 -0.2545  0.1407
  121OSM   H10S12729   1.258   7.032   5.493  0.2443 -0.5283 -0.8610
  121OSM   H10T12730   1.106   7.120   5.477 -0.7737 -1.2564 -2.8877
  121OSM   C11S12731   1.090   6.930   5.393 -0.5975 -0.1334 -0.2634
  121OSM   H11S12732   0.981   6.948   5.390 -0.6047 -0.2820 -1.5571
  121OSM   H11T12733   1.122   6.827   5.418 -0.3936 -0.1749 -0.6816
  121OSM   C12S12734   1.152   6.972   5.259  0.0465  0.7237 -0.1920
  121OSM   H12S12735   1.250   6.920   5.265  0.7671  2.1386  1.1637
  121OSM   H12T12736   1.162   7.081   5.241 -1.8269  1.1477  1.0716
  121OSM   C13S12737   1.087   6.901   5.142  0.0701  0.7102  0.3405
  121OSM   H13S12738   0.984   6.940   5.127 -0.2035  0.0971  0.5895
  121OSM   H13T12739   1.083   6.791   5.158 -0.6031  0.3982 -1.6878
  121OSM   C14S12740   1.167   6.932   5.013  0.3501 -0.3315 -0.3287
  121OSM   H14S12741   1.272   6.903   5.036  0.4362  2.1687  3.1503
  121OSM   H14T12742   1.167   7.036   4.973  0.4751 -0.5303 -0.8547
  121OSM   C15S12743   1.120   6.856   4.887 -0.8460  0.4740 -0.1071
  121OSM   H15S12744   1.015   6.889   4.877 -2.2790 -2.7633  2.3898
  121OSM   H15T12745   1.130   6.747   4.905 -0.1357  0.2256 -1.8412
  121OSM   C16S12746   1.220   6.895   4.773 -0.6577 -0.4850 -0.7372
  121OSM   H16S12747   1.319   6.871   4.816 -0.2053  1.3146 -0.7060
  121OSM   H16T12748   1.218   7.002   4.740  1.1732 -0.1235  0.2406
  121OSM   C17S12749   1.208   6.820   4.641  0.4796  0.6627 -0.2077
  121OSM   H17S12750   1.299   6.827   4.578  0.2241 -1.6294 -0.9370
  121OSM   H17T12751   1.122   6.856   4.580  0.4298 -1.1531 -1.2832
  121OSM   C18S12752   1.187   6.666   4.668 -0.9383  0.5493  0.1933
  121OSM   H18S12753   1.196   6.600   4.579  0.4945 -0.6496  1.1767
  121OSM   H18T12754   1.086   6.654   4.712 -0.2166 -3.1663  1.1979
  121OSM   H18U12755   1.270   6.641   4.737  0.8300  2.6894 -1.0536
  121OSM    C1F12756   0.656   7.237   6.281 -0.4731  0.0244  0.3727
  121OSM     OF12757   0.658   7.332   6.359 -0.4088  0.8819  0.8233
  121OSM    C2F12758   0.529   7.204   6.205 -0.3389  0.1552  0.0035
  121OSM    H2F12759   0.450   7.232   6.278 -0.4499 -0.7971  0.2665
  121OSM    H2G12760   0.527   7.094   6.193  0.6008 -0.0544  1.5719
  121OSM    C3F12761   0.511   7.259   6.063  0.0814  0.4948  0.8341
  121OSM    H3F12762   0.503   7.370   6.057  1.7914  0.5620 -1.7208
  121OSM    H3G12763   0.411   7.227   6.024  1.1381 -1.3603 -0.5109
  121OSM    C4F12764   0.613   7.215   5.960  0.2808  0.4420 -0.2167
  121OSM    H4F12765   0.617   7.104   5.956 -2.3572  0.3209 -3.2182
  121OSM    H4G12766   0.716   7.243   5.990  0.7679 -0.1217 -1.2902
  121OSM    C5F12767   0.585   7.264   5.816  0.3023  0.2167 -0.4110
  121OSM    H5F12768   0.550   7.369   5.829 -0.0754 -0.1014  1.6108
  121OSM    H5G12769   0.497   7.223   5.762  0.2038 -0.8105  0.4889
  121OSM    C6F12770   0.702   7.242   5.715 -0.0594 -0.5436 -0.2152
  121OSM    H6F12771   0.702   7.139   5.674  1.0997  0.4873 -3.0300
  121OSM    H6G12772   0.796   7.264   5.770  0.3201 -1.4394 -0.4909
  121OSM    C7F12773   0.697   7.344   5.601 -0.3831 -0.2468 -0.8955
  121OSM    H7F12774   0.726   7.444   5.642 -0.9585  0.3093 -1.8181
  121OSM    H7G12775   0.595   7.354   5.558 -0.6588  2.6022  0.1819
  121OSM    C8F12776   0.790   7.312   5.485  0.1616 -0.1571 -0.0362
  121OSM    H8F12777   0.892   7.315   5.530 -0.0050 -0.7945  0.4061
  121OSM    H8G12778   0.781   7.403   5.422 -0.4343  0.8561  1.4761
  121OSM    C9F12779   0.776   7.176   5.418 -0.6242  0.3873  0.2251
  121OSM    H9F12780   0.793   7.099   5.494  0.4200  0.2308 -0.1537
  121OSM   C10F12781   0.768   7.149   5.290  0.3260 -0.3484 -0.1304
  121OSM   H10F12782   0.750   7.046   5.254  3.3415 -1.3084  0.7763
  121OSM   C11F12783   0.744   7.260   5.189  1.0237  0.6233 -0.2248
  121OSM   H11F12784   0.696   7.348   5.236  1.3169  1.7115 -1.8858
  121OSM   H11G12785   0.673   7.221   5.113  0.5376  0.1587  0.4533
  121OSM   C12F12786   0.872   7.301   5.109 -0.0405 -0.4963 -0.4579
  121OSM   H12F12787   0.966   7.316   5.166  0.8796 -1.9510 -1.5186
  121OSM   H12G12788   0.846   7.401   5.069 -1.3024 -0.3078  0.7486
  121OSM   C13F12789   0.902   7.213   4.983 -0.3217 -0.2372 -0.1773
  121OSM   H13F12790   0.812   7.212   4.918  0.3721 -1.4290 -1.1583
  121OSM   H13G12791   0.924   7.106   5.005  0.8656  0.4764  2.5855
  121OSM   C14F12792   1.022   7.263   4.890 -0.2685 -0.1647 -0.0345
  121OSM   H14F12793   1.113   7.249   4.952 -1.1231  0.5505  1.4305
  121OSM   H14G12794   1.010   7.374   4.893  0.6547 -0.0729  2.1894
  121OSM   C15F12795   1.008   7.216   4.745 -0.5742  0.1295 -0.4191
  121OSM   H15F12796   0.913   7.253   4.702 -1.8238 -2.1041  0.2297
  121OSM   H15G12797   0.989   7.106   4.746 -3.9292  0.6065 -0.6487
  121OSM   C16F12798   1.128   7.252   4.660  1.0923  0.1381 -0.1572
  121OSM   H16F12799   1.219   7.222   4.716  0.8859 -0.3721 -0.0929
  121OSM   H16G12800   1.130   7.361   4.635  0.2154  0.1711 -0.1213
  121OSM   C17F12801   1.120   7.183   4.519  0.2829 -0.0458 -0.4497
  121OSM   H17F12802   1.017   7.202   4.483  0.5352  1.0597 -0.6140
  121OSM   H17G12803   1.140   7.074   4.529  0.4248  0.1150  1.5415
  121OSM   C18F12804   1.209   7.244   4.409  0.1347  0.3594  0.2110
  121OSM   H18F12805   1.318   7.247   4.433  0.1912  0.4317 -0.0601
  121OSM   H18G12806   1.178   7.346   4.380 -0.0509 -0.0750 -1.1887
  121OSM   H18H12807   1.200   7.188   4.314  1.0217 -1.7025  1.2676
  122OSM      N12808   0.094   3.641   6.557 -0.3360 -0.8362 -0.1567
  122OSM    C1512809   0.212   3.711   6.618  0.3720 -0.0512  0.2197
  122OSM   H15A12810   0.294   3.702   6.548  0.0750 -0.1211 -0.1255
  122OSM   H15B12811   0.251   3.671   6.711  1.2328 -0.6578 -0.3800
  122OSM   H15C12812   0.181   3.812   6.641 -3.6351 -1.6034  2.8606
  122OSM    C1412813   0.009   3.610   6.675  0.3787  0.3977 -0.1793
  122OSM   H14A12814  -0.088   3.580   6.636  1.0627 -0.7127 -1.0821
  122OSM   H14B12815  -0.010   3.693   6.741  0.5879 -1.0530  1.8051
  122OSM   H14C12816   0.041   3.525   6.733  0.5076  0.3599 -0.3050
  122OSM    C1312817   0.034   3.739   6.466  0.3909  0.8365 -0.5693
  122OSM   H13A12818   0.091   3.741   6.374  0.5596  1.1733 -0.4606
  122OSM   H13B12819   0.035   3.836   6.513  0.4788 -0.2558  1.8088
  122OSM   H13C12820  -0.068   3.708   6.445  1.0694 -1.0674 -1.2547
  122OSM    C1212821   0.126   3.512   6.484  0.1908 -0.7270 -0.3563
  122OSM   H12A12822   0.179   3.443   6.548  0.4227 -1.3113 -1.1520
  122OSM   H12B12823   0.197   3.535   6.406  0.3068 -1.7560 -0.5684
  122OSM    C1112824   0.012   3.439   6.417 -0.1249 -0.0147  0.0715
  122OSM   H11A12825   0.062   3.352   6.369 -0.0331 -0.7551  1.4669
  122OSM   H11B12826  -0.027   3.487   6.325 -0.1172 -0.4598 -0.1684
  122OSM      P12827  -0.130   3.270   6.558 -0.1452 -0.0053 -0.1507
  122OSM    O1312828  -0.009   3.223   6.634 -0.0509  0.9168  0.6023
  122OSM    O1412829  -0.264   3.274   6.630 -0.6971 -0.1457 -0.0171
  122OSM    O1112830  -0.138   3.196   6.418  0.3001  0.5108  0.0276
  122OSM    O1212831  -0.101   3.413   6.500  1.1550  0.6392  0.2546
  122OSM    C1S12832  -0.256   3.178   6.352  0.5397 -0.3612 -0.3234
  122OSM    H1S12833  -0.343   3.223   6.404  1.8358 -0.2295  1.8763
  122OSM    H1T12834  -0.284   3.070   6.354  2.1319 -0.8027 -0.7910
  122OSM     NF12835  -0.388   3.235   6.136  0.0037  0.8650 -0.3989
  122OSM    HNF12836  -0.418   3.145   6.106 -0.1348  0.5106  0.7354
  122OSM    C2S12837  -0.258   3.230   6.199  0.1708 -0.4213 -0.9434
  122OSM    H2S12838  -0.223   3.336   6.198  0.2219 -0.3300  2.0363
  122OSM    C3S12839  -0.149   3.153   6.127  0.5374 -0.1000 -0.3777
  122OSM    H3S12840  -0.173   3.045   6.117  1.3788 -0.2895 -0.3804
  122OSM     O312841  -0.023   3.157   6.192  0.2877 -0.6499  0.6827
  122OSM    HO312842  -0.042   3.185   6.282 -1.2240 -0.9080  0.4779
  122OSM    C4S12843  -0.141   3.210   5.990  0.4989  0.6704  0.1302
  122OSM    H4S12844  -0.104   3.314   5.984 -1.4070  1.3816  0.2497
  122OSM    C5S12845  -0.164   3.141   5.871  0.2698 -0.8245  0.1950
  122OSM    H5S12846  -0.195   3.036   5.865  0.1916 -0.8336  0.7099
  122OSM    C6S12847  -0.148   3.200   5.731 -0.3875  0.0762 -0.1689
  122OSM    H6S12848  -0.086   3.129   5.671  0.3763 -0.1057  0.8190
  122OSM    H6T12849  -0.107   3.303   5.737 -0.6181  0.1266  0.6862
  122OSM    C7S12850  -0.282   3.214   5.654 -0.2223 -0.7956 -0.8787
  122OSM    H7S12851  -0.341   3.294   5.703  1.1646 -1.2302  1.6942
  122OSM    H7T12852  -0.346   3.124   5.662 -0.6275 -0.4720 -0.3302
  122OSM    C8S12853  -0.262   3.246   5.504 -0.5674 -0.2067 -1.1453
  122OSM    H8S12854  -0.170   3.307   5.497 -0.7135  0.3035  0.7756
  122OSM    H8T12855  -0.346   3.303   5.460  0.3597  1.4508 -0.8482
  122OSM    C9S12856  -0.252   3.125   5.411 -0.1177  0.6537  0.1901
  122OSM    H9S12857  -0.329   3.048   5.432 -2.0429  1.8492 -1.9177
  122OSM    H9T12858  -0.151   3.085   5.431 -0.9657 -0.7103  1.9674
  122OSM   C10S12859  -0.248   3.159   5.258  0.1117  0.1435  0.1174
  122OSM   H10S12860  -0.346   3.203   5.229  1.1227  3.4636  1.3005
  122OSM   H10T12861  -0.228   3.063   5.205  1.0907 -0.5897  1.7145
  122OSM   C11S12862  -0.135   3.264   5.228  1.0989  0.2364  1.1010
  122OSM   H11S12863  -0.045   3.234   5.286  1.1034 -1.7269  0.1705
  122OSM   H11T12864  -0.167   3.365   5.260 -1.9884 -0.3539  0.1918
  122OSM   C12S12865  -0.090   3.258   5.078  0.4637 -0.4808 -1.2339
  122OSM   H12S12866  -0.176   3.287   5.013 -1.6657  0.2780  1.7117
  122OSM   H12T12867  -0.079   3.155   5.040  1.2844 -0.4961 -0.9628
  122OSM   C13S12868   0.046   3.344   5.049  0.3775 -0.5962  0.2690
  122OSM   H13S12869   0.124   3.310   5.121  1.7658  1.0615 -0.3912
  122OSM   H13T12870   0.027   3.449   5.078  1.5619 -0.2561 -0.1419
  122OSM   C14S12871   0.110   3.323   4.913 -0.4234  0.3713  0.0402
  122OSM   H14S12872   0.113   3.215   4.887 -0.6379  0.3699  0.0156
  122OSM   H14T12873   0.217   3.353   4.918  0.3125 -2.1889  1.0133
  122OSM   C15S12874   0.039   3.395   4.797 -0.3681 -0.2199 -0.2816
  122OSM   H15S12875   0.008   3.497   4.827 -3.9642 -0.1347 -3.5729
  122OSM   H15T12876  -0.052   3.340   4.767  2.2033 -3.8976 -2.1744
  122OSM   C16S12877   0.134   3.407   4.675 -0.9925  0.4270 -0.6952
  122OSM   H16S12878   0.137   3.310   4.622 -3.0163 -0.4665  0.7039
  122OSM   H16T12879   0.238   3.432   4.705 -0.8465 -1.2088  0.2679
  122OSM   C17S12880   0.076   3.501   4.577  0.0945 -0.0845 -0.2457
  122OSM   H17S12881   0.036   3.595   4.621  1.4142  0.3602  0.0223
  122OSM   H17T12882  -0.019   3.458   4.537  0.3748 -2.9604  1.8688
  122OSM   C18S12883   0.169   3.543   4.463  0.4425 -0.1506  0.3379
  122OSM   H18S12884   0.119   3.624   4.406  0.5024 -0.1116  0.3404
  122OSM   H18T12885   0.191   3.458   4.395 -0.6539 -1.0229  1.0357
  122OSM   H18U12886   0.265   3.585   4.498  0.8456 -0.2465 -0.6251
  122OSM    C1F12887  -0.480   3.323   6.172  0.0993 -0.0910 -1.3116
  122OSM     OF12888  -0.461   3.400   6.264  1.0678  0.1420  0.2157
  122OSM    C2F12889  -0.613   3.334   6.106  0.2183  0.0544  0.7661
  122OSM    H2F12890  -0.670   3.254   6.157  2.3874 -1.7119  0.5754
  122OSM    H2G12891  -0.611   3.312   5.997  0.0679  0.5521  0.6570
  122OSM    C3F12892  -0.688   3.467   6.127  0.0583 -1.2039 -0.2298
  122OSM    H3F12893  -0.703   3.492   6.235  0.7041  2.3940 -0.8645
  122OSM    H3G12894  -0.794   3.451   6.099 -0.6522 -0.9055  2.0751
  122OSM    C4F12895  -0.635   3.591   6.060 -0.0426  0.0350 -0.3100
  122OSM    H4F12896  -0.600   3.561   5.959 -1.3877 -0.3114 -0.6987
  122OSM    H4G12897  -0.550   3.637   6.114 -0.3897  1.8223 -1.2016
  122OSM    C5F12898  -0.742   3.697   6.049  0.1314  0.0353 -0.2834
  122OSM    H5F12899  -0.745   3.735   6.153  0.1072  1.1561 -0.6719
  122OSM    H5G12900  -0.843   3.653   6.036  0.8248 -2.0173  0.8073
  122OSM    C6F12901  -0.709   3.812   5.956 -0.1454 -0.2287 -0.4346
  122OSM    H6F12902  -0.748   3.786   5.855 -1.8751 -3.4857  0.9177
  122OSM    H6G12903  -0.598   3.815   5.952  0.0051  2.0843  2.4951
  122OSM    C7F12904  -0.747   3.951   6.000 -0.1286 -0.0936 -0.9430
  122OSM    H7F12905  -0.699   3.977   6.097  0.3223  0.2883 -1.2609
  122OSM    H7G12906  -0.851   3.952   6.037  0.7489 -0.7757  1.8224
  122OSM    C8F12907  -0.719   4.056   5.890 -0.0151  0.1798 -0.5023
  122OSM    H8F12908  -0.737   4.005   5.793  0.4630 -1.0063  0.0168
  122OSM    H8G12909  -0.612   4.084   5.904 -0.3697  1.0050  0.7915
  122OSM    C9F12910  -0.799   4.180   5.921 -0.5601  0.3981 -0.2019
  122OSM    H9F12911  -0.793   4.219   6.024  0.6440 -0.3060  0.0224
  122OSM   C10F12912  -0.874   4.253   5.835 -0.1430  1.0484  0.4121
  122OSM   H10F12913  -0.928   4.343   5.866  0.9628  1.5529  0.9407
  122OSM   C11F12914  -0.896   4.230   5.687 -0.1760  0.5228  0.0488
  122OSM   H11F12915  -1.001   4.263   5.670  0.4433  2.1832 -0.6493
  122OSM   H11G12916  -0.876   4.121   5.672  2.7376  0.6754  1.9641
  122OSM   C12F12917  -0.808   4.311   5.588 -0.1395 -0.8307  0.2072
  122OSM   H12F12918  -0.707   4.265   5.598  0.2964  0.0573 -0.0223
  122OSM   H12G12919  -0.810   4.419   5.612  1.7343 -1.0570  1.6125
  122OSM   C13F12920  -0.852   4.297   5.438 -0.0100 -0.4952 -0.9045
  122OSM   H13F12921  -0.924   4.374   5.404  1.2046  0.1191 -2.1645
  122OSM   H13G12922  -0.899   4.199   5.416 -0.7770 -0.4748  0.4857
  122OSM   C14F12923  -0.737   4.341   5.335  0.7029 -0.3068 -0.1247
  122OSM   H14F12924  -0.654   4.270   5.352 -0.7419 -1.8648  0.6933
  122OSM   H14G12925  -0.700   4.441   5.368 -2.1766  1.3418 -1.5487
  122OSM   C15F12926  -0.779   4.344   5.184  0.6614 -0.0912 -0.1098
  122OSM   H15F12927  -0.868   4.411   5.178  0.8290  0.2429  0.9389
  122OSM   H15G12928  -0.815   4.244   5.153 -1.4953  1.1527 -1.9717
  122OSM   C16F12929  -0.669   4.392   5.092 -0.3340 -0.4605  0.1127
  122OSM   H16F12930  -0.578   4.329   5.101 -0.6812 -1.0707 -0.5183
  122OSM   H16G12931  -0.656   4.500   5.110 -0.3447 -0.4662  0.1557
  122OSM   C17F12932  -0.724   4.367   4.947  0.1429  0.2731 -0.8449
  122OSM   H17F12933  -0.832   4.391   4.933 -0.2239  0.4086  1.7418
  122OSM   H17G12934  -0.725   4.257   4.932 -0.7843  0.3068 -1.1282
  122OSM   C18F12935  -0.636   4.411   4.838 -0.1299 -1.2266 -0.8498
  122OSM   H18F12936  -0.596   4.513   4.856  0.4532 -1.5511 -0.2528
  122OSM   H18G12937  -0.688   4.416   4.740 -1.2726 -0.7956 -0.2362
  122OSM   H18H12938  -0.550   4.341   4.830  0.6452 -0.2179 -1.6892
  123OSM      N12939   2.289   3.424   2.305  0.1262 -0.2086  0.3628
  123OSM    C1512940   2.189   3.415   2.193 -0.3759  0.1854  0.0236
  123OSM   H15A12941   2.118   3.334   2.204 -0.9039  0.7643  1.0860
  123OSM   H15B12942   2.246   3.397   2.104 -2.6424  0.7171 -1.6200
  123OSM   H15C12943   2.135   3.507   2.175 -0.0852  0.1667 -0.9808
  123OSM    C1412944   2.372   3.297   2.285  0.1349  0.1499  0.0506
  123OSM   H14A12945   2.450   3.293   2.359  1.1691 -1.3063 -1.0375
  123OSM   H14B12946   2.409   3.285   2.184 -0.4762  1.2704 -0.3217
  123OSM   H14C12947   2.307   3.212   2.300 -0.8554  0.7810 -0.5318
  123OSM    C1312948   2.373   3.550   2.280 -0.1269 -0.5431  0.2970
  123OSM   H13A12949   2.382   3.549   2.172 -1.5073 -0.7234  0.1726
  123OSM   H13B12950   2.470   3.555   2.328 -0.4228  1.4232  0.7711
  123OSM   H13C12951   2.320   3.637   2.315  0.6082 -0.1547  0.4819
  123OSM    C1212952   2.237   3.422   2.445  0.2856 -0.5280 -0.0707
  123OSM   H12A12953   2.323   3.410   2.509 -0.3141 -3.7598  0.2623
  123OSM   H12B12954   2.174   3.337   2.463 -0.8241  0.1755 -0.4867
  123OSM    C1112955   2.158   3.553   2.483  0.0960  0.1161 -0.4309
  123OSM   H11A12956   2.233   3.630   2.511  0.2058 -0.2963  0.4493
  123OSM   H11B12957   2.092   3.534   2.571 -0.5618  0.4815 -0.8369
  123OSM      P12958   1.928   3.643   2.384  0.2014  0.2855  0.3985
  123OSM    O1312959   1.929   3.788   2.391 -0.1701  0.3034 -0.0809
  123OSM    O1412960   1.855   3.588   2.269  0.4532  0.0603 -0.0087
  123OSM    O1112961   1.862   3.583   2.512  0.0356 -0.1098 -0.0725
  123OSM    O1212962   2.080   3.605   2.376 -0.4309  0.3604 -0.7126
  123OSM    C1S12963   1.824   3.441   2.519 -0.3501 -0.5356 -0.7011
  123OSM    H1S12964   1.901   3.387   2.460  0.8952  0.7039 -0.2635
  123OSM    H1T12965   1.723   3.425   2.475 -1.7349 -0.2505  2.1967
  123OSM     NF12966   1.850   3.234   2.652 -0.5169  0.6085  0.1464
  123OSM    HNF12967   1.765   3.182   2.657  0.4299 -0.9394  0.5930
  123OSM    C2S12968   1.832   3.382   2.659 -0.6488 -0.2064  0.1408
  123OSM    H2S12969   1.922   3.420   2.712 -0.6602  0.6260 -0.4257
  123OSM    C3S12970   1.703   3.420   2.744  0.1050 -0.5310  0.0408
  123OSM    H3S12971   1.618   3.371   2.692  1.1060 -1.0167 -1.2004
  123OSM     O312972   1.680   3.562   2.720 -0.6569 -0.2008 -0.2960
  123OSM    HO312973   1.730   3.570   2.638  0.8108 -2.2109  0.3003
  123OSM    C4S12974   1.710   3.394   2.889  0.1828  0.3451  0.1081
  123OSM    H4S12975   1.740   3.478   2.953  0.1859  0.3298  0.1268
  123OSM    C5S12976   1.661   3.283   2.945  0.5199 -0.0027 -0.2805
  123OSM    H5S12977   1.628   3.207   2.874  2.8727 -1.1339 -0.2489
  123OSM    C6S12978   1.653   3.241   3.091 -0.1980  0.3571 -0.4019
  123OSM    H6S12979   1.714   3.151   3.117 -0.6205  0.1420 -0.1421
  123OSM    H6T12980   1.549   3.211   3.114 -0.2606 -0.1645 -1.3049
  123OSM    C7S12981   1.697   3.346   3.196 -0.9215 -0.2334 -0.8336
  123OSM    H7S12982   1.641   3.439   3.174  1.2503  0.9173 -1.8416
  123OSM    H7T12983   1.805   3.373   3.197 -1.5635  2.6970 -1.0480
  123OSM    C8S12984   1.675   3.306   3.341  0.1598  0.4875  0.1030
  123OSM    H8S12985   1.726   3.212   3.367 -1.4064 -0.5571 -0.4606
  123OSM    H8T12986   1.567   3.313   3.367 -0.1400 -0.1980 -0.9056
  123OSM    C9S12987   1.748   3.401   3.444 -0.2012  0.6287  0.5817
  123OSM    H9S12988   1.710   3.505   3.440 -0.6314  0.4676  0.4871
  123OSM    H9T12989   1.857   3.396   3.423 -0.2553 -1.1853  0.6169
  123OSM   C10S12990   1.727   3.361   3.595 -0.3576  0.9108  0.7630
  123OSM   H10S12991   1.780   3.270   3.630 -0.3677  1.6094  2.6948
  123OSM   H10T12992   1.620   3.331   3.599 -1.0030  2.2599 -2.5546
  123OSM   C11S12993   1.761   3.480   3.687  0.6043 -0.1066  0.5837
  123OSM   H11S12994   1.679   3.555   3.688 -0.5953 -1.2649 -2.2322
  123OSM   H11T12995   1.851   3.519   3.635 -0.0539 -2.7580 -2.9105
  123OSM   C12S12996   1.801   3.434   3.829 -0.5049 -0.6721 -0.1414
  123OSM   H12S12997   1.855   3.512   3.886  1.5074 -2.3598  0.3697
  123OSM   H12T12998   1.873   3.351   3.815  1.5847  1.2650 -1.5372
  123OSM   C13S12999   1.686   3.396   3.919  0.1114 -0.4082  0.8934
  123OSM   H13S13000   1.619   3.332   3.857  0.2726 -1.1271  1.4538
  123OSM   H13T13001   1.619   3.484   3.930 -0.4906 -0.6727 -0.4144
  123OSM   C14S13002   1.719   3.328   4.050 -0.3945 -0.5581  0.3377
  123OSM   H14S13003   1.750   3.221   4.045 -0.6832 -0.5782 -2.6287
  123OSM   H14T13004   1.626   3.330   4.110  0.6490  0.9080  1.9722
  123OSM   C15S13005   1.830   3.407   4.134 -0.3558  0.1303 -0.7214
  123OSM   H15S13006   1.791   3.502   4.174  0.8056  0.6368 -0.7398
  123OSM   H15T13007   1.921   3.428   4.074  0.5393  0.9915  0.8870
  123OSM   C16S13008   1.859   3.329   4.260 -0.7185  0.6061 -0.1575
  123OSM   H16S13009   1.887   3.225   4.236  0.0019  0.6590  0.4266
  123OSM   H16T13010   1.764   3.336   4.319 -1.4258 -0.1050 -1.1923
  123OSM   C17S13011   1.970   3.391   4.347  0.4547 -0.3529  0.2646
  123OSM   H17S13012   1.959   3.501   4.354 -2.5763 -0.6782  3.2772
  123OSM   H17T13013   2.074   3.370   4.313  0.3274  1.2432 -1.2127
  123OSM   C18S13014   1.955   3.335   4.488 -0.4275 -0.2548 -0.1530
  123OSM   H18S13015   1.865   3.376   4.538  0.0883  0.2860  0.3418
  123OSM   H18T13016   2.043   3.360   4.551  0.8785  2.3750 -2.7981
  123OSM   H18U13017   1.945   3.226   4.469 -0.1504  0.0043 -1.9958
  123OSM    C1F13018   1.964   3.168   2.620  0.2076  0.3371  0.3145
  123OSM     OF13019   2.062   3.233   2.588 -0.1116 -0.1675  0.2359
  123OSM    C2F13020   1.956   3.016   2.618  0.4929 -0.2197 -0.4529
  123OSM    H2F13021   2.000   2.975   2.525  0.8429  0.4141 -0.5731
  123OSM    H2G13022   1.852   2.978   2.621  0.3430  0.1843  1.6792
  123OSM    C3F13023   2.024   2.934   2.733  0.4923 -0.2957 -0.1510
  123OSM    H3F13024   2.124   2.983   2.735  0.7508 -0.7975 -0.5206
  123OSM    H3G13025   2.050   2.828   2.712  1.1265 -0.6956  2.2760
  123OSM    C4F13026   1.956   2.948   2.868 -0.3729  0.1128 -0.8968
  123OSM    H4F13027   1.942   3.051   2.906 -1.4508 -0.8356  1.5362
  123OSM    H4G13028   2.004   2.889   2.949 -0.5472 -0.7430 -1.4043
  123OSM    C5F13029   1.817   2.884   2.875 -0.0331  0.0346 -0.0011
  123OSM    H5F13030   1.825   2.790   2.817  0.7112 -0.5249  0.9734
  123OSM    H5G13031   1.742   2.952   2.830 -1.4388 -0.5389  1.3976
  123OSM    C6F13032   1.763   2.851   3.015 -0.2442 -0.0428  0.1327
  123OSM    H6F13033   1.656   2.822   3.005 -0.4961  1.0814 -0.5714
  123OSM    H6G13034   1.768   2.936   3.086  0.1750 -1.6583  2.1214
  123OSM    C7F13035   1.833   2.738   3.089  0.6424 -0.5648  1.0285
  123OSM    H7F13036   1.944   2.743   3.078  0.6002 -1.4325  0.0555
  123OSM    H7G13037   1.796   2.653   3.027 -2.6891  1.2048  0.3813
  123OSM    C8F13038   1.783   2.716   3.228  0.7167 -0.2025 -0.3923
  123OSM    H8F13039   1.823   2.618   3.261  0.5513 -0.1198  0.0636
  123OSM    H8G13040   1.673   2.700   3.231  0.7223 -0.8734 -2.4351
  123OSM    C9F13041   1.831   2.825   3.325 -0.4048 -0.7008 -0.0418
  123OSM    H9F13042   1.939   2.841   3.321 -0.2481 -1.4740  0.8490
  123OSM   C10F13043   1.754   2.894   3.409 -0.1489  0.1820 -0.3926
  123OSM   H10F13044   1.805   2.973   3.466 -3.9536  1.0307  2.2546
  123OSM   C11F13045   1.608   2.882   3.435  0.0868 -0.0032  0.1792
  123OSM   H11F13046   1.587   2.783   3.480 -0.7420 -0.3742 -0.9575
  123OSM   H11G13047   1.553   2.878   3.338 -1.2148  0.1172  0.8956
  123OSM   C12F13048   1.534   2.992   3.523  0.2390  0.0678 -0.0140
  123OSM   H12F13049   1.431   2.953   3.541  1.0243 -2.3671 -0.3392
  123OSM   H12G13050   1.536   3.092   3.476 -0.7928  0.5264  0.8794
  123OSM   C13F13051   1.594   3.015   3.661  0.2872 -0.0580 -0.8070
  123OSM   H13F13052   1.556   3.098   3.724  3.7489  1.0744  0.0311
  123OSM   H13G13053   1.698   3.051   3.642  0.2201 -0.2007 -1.4419
  123OSM   C14F13054   1.604   2.881   3.750  0.6986  0.0698  0.3353
  123OSM   H14F13055   1.684   2.813   3.711  0.4891 -0.1719  0.3245
  123OSM   H14G13056   1.506   2.831   3.735  1.1830 -0.7300 -0.2678
  123OSM   C15F13057   1.649   2.914   3.895 -0.2431 -0.3454 -0.0105
  123OSM   H15F13058   1.563   2.962   3.946  0.9022  1.6090  0.1500
  123OSM   H15G13059   1.729   2.990   3.886 -0.8985  0.2583 -0.9227
  123OSM   C16F13060   1.704   2.800   3.984  0.2112 -0.5229 -0.4853
  123OSM   H16F13061   1.638   2.710   3.987  1.6090 -1.5361  1.4884
  123OSM   H16G13062   1.719   2.839   4.086  2.2430 -0.5092 -0.7485
  123OSM   C17F13063   1.837   2.740   3.926 -0.4754 -0.0660  0.9906
  123OSM   H17F13064   1.907   2.825   3.916  0.7858 -1.2101 -0.2848
  123OSM   H17G13065   1.807   2.693   3.830  3.1077 -1.2792  0.3259
  123OSM   C18F13066   1.902   2.638   4.018  0.1817 -0.7875  0.4668
  123OSM   H18F13067   2.000   2.600   3.983 -0.6199 -1.4303 -1.2261
  123OSM   H18G13068   1.843   2.545   4.033 -0.3334 -0.8829 -1.6919
  123OSM   H18H13069   1.917   2.687   4.116 -0.3606 -0.1887  0.2597
  124OSM      N13070   1.926   0.215   1.590 -0.2487  0.0446 -0.4772
  124OSM    C1513071   1.866   0.299   1.700 -0.3508  0.0482 -0.2981
  124OSM   H15A13072   1.909   0.398   1.702 -0.0589 -0.0758 -0.2909
  124OSM   H15B13073   1.878   0.244   1.793  1.2302 -1.5263 -1.3634
  124OSM   H15C13074   1.761   0.323   1.693 -0.2970  2.5249  3.9699
  124OSM    C1413075   1.916   0.292   1.464 -0.1850  0.0332  0.2429
  124OSM   H14A13076   1.974   0.238   1.390  1.3608  0.2697  1.2262
  124OSM   H14B13077   1.950   0.394   1.477 -1.0716  0.3120  0.4050
  124OSM   H14C13078   1.818   0.304   1.422  0.6252  0.8260 -1.5477
  124OSM    C1313079   2.067   0.177   1.620 -0.8498 -0.2265  0.2340
  124OSM   H13A13080   2.075   0.127   1.715  3.3368 -0.9168 -0.2748
  124OSM   H13B13081   2.128   0.266   1.621 -0.7574 -0.0208 -4.0120
  124OSM   H13C13082   2.108   0.121   1.537 -0.0139  1.1459 -0.3206
  124OSM    C1213083   1.855   0.081   1.579 -0.1319  0.6255 -0.1137
  124OSM   H12A13084   1.875   0.040   1.481 -0.5851 -1.5020  0.6330
  124OSM   H12B13085   1.749   0.095   1.594 -0.0613  0.5039  0.5034
  124OSM    C1113086   1.890  -0.029   1.685 -0.4545 -0.5380  0.7988
  124OSM   H11A13087   1.996  -0.059   1.699 -0.3400  0.0182  1.1453
  124OSM   H11B13088   1.849  -0.129   1.657  2.7641 -1.3102 -1.8532
  124OSM      P13089   1.709   0.002   1.864 -0.1218 -0.0620  0.0647
  124OSM    O1313090   1.663   0.131   1.917  0.3617 -0.2136  0.0751
  124OSM    O1413091   1.630  -0.066   1.759  0.0378  0.2570 -0.2103
  124OSM    O1113092   1.714  -0.105   1.980  0.1280 -0.2601  0.6009
  124OSM    O1213093   1.857   0.011   1.816 -0.0120  0.0283  0.3062
  124OSM    C1S13094   1.831  -0.143   2.048  0.0502 -0.3652 -0.1067
  124OSM    H1S13095   1.900  -0.056   2.057  0.3163 -0.5159 -0.6856
  124OSM    H1T13096   1.891  -0.224   2.003 -0.1891  1.2694 -3.7245
  124OSM     NF13097   1.928  -0.208   2.258 -0.2759  0.4129 -0.6905
  124OSM    HNF13098   1.974  -0.296   2.254 -1.8877 -0.4241 -1.3071
  124OSM    C2S13099   1.798  -0.194   2.190  0.2798  0.5598  1.0252
  124OSM    H2S13100   1.732  -0.113   2.229  0.1396  1.0259 -0.1493
  124OSM    C3S13101   1.700  -0.315   2.180  0.1695  0.3303 -0.1043
  124OSM    H3S13102   1.748  -0.404   2.134  1.2497 -0.2734  2.0471
  124OSM     O313103   1.582  -0.304   2.102  0.1586 -0.2451 -0.4620
  124OSM    HO313104   1.606  -0.241   2.034 -0.2453 -0.3788 -0.7314
  124OSM    C4S13105   1.679  -0.365   2.322  0.1440  0.2616 -0.5079
  124OSM    H4S13106   1.769  -0.413   2.364  1.6279  0.6948 -2.9734
  124OSM    C5S13107   1.564  -0.351   2.391 -0.1189  0.7199  0.0668
  124OSM    H5S13108   1.473  -0.315   2.341  0.4866  1.5283 -0.4827
  124OSM    C6S13109   1.544  -0.384   2.535 -0.7064 -0.2272 -0.2055
  124OSM    H6S13110   1.476  -0.473   2.530 -1.8753  0.7206 -2.1272
  124OSM    H6T13111   1.478  -0.302   2.570 -0.3846  0.6308 -1.5894
  124OSM    C7S13112   1.662  -0.396   2.623 -0.4976 -0.1905  0.5745
  124OSM    H7S13113   1.731  -0.317   2.588 -2.7816  1.8624  0.4739
  124OSM    H7T13114   1.711  -0.494   2.600  1.2207  0.8681 -0.5039
  124OSM    C8S13115   1.632  -0.383   2.780  0.2593 -0.1910  0.5760
  124OSM    H8S13116   1.592  -0.280   2.794  1.5427  0.3899  0.1669
  124OSM    H8T13117   1.729  -0.385   2.834  1.0919  1.4954 -0.7541
  124OSM    C9S13118   1.541  -0.484   2.844  0.4554 -0.0514 -0.2894
  124OSM    H9S13119   1.573  -0.584   2.809 -0.7169 -0.6264  0.2076
  124OSM    H9T13120   1.435  -0.470   2.814 -0.5231 -0.5400  2.5697
  124OSM   C10S13121   1.549  -0.486   3.000  0.4344 -0.5392 -0.3582
  124OSM   H10S13122   1.471  -0.560   3.028 -0.2981  0.4618  0.3259
  124OSM   H10T13123   1.517  -0.391   3.048 -0.3462 -0.0648 -1.7575
  124OSM   C11S13124   1.677  -0.540   3.064 -0.0108 -0.0643  0.5773
  124OSM   H11S13125   1.771  -0.481   3.058  0.1424 -0.1582  1.7995
  124OSM   H11T13126   1.698  -0.626   2.997 -2.1831  1.1530 -1.8746
  124OSM   C12S13127   1.655  -0.577   3.213  0.2105  0.8371  0.7600
  124OSM   H12S13128   1.592  -0.667   3.215 -0.0851  0.9999 -0.4161
  124OSM   H12T13129   1.585  -0.503   3.257 -0.4519  0.2976  0.6252
  124OSM   C13S13130   1.791  -0.591   3.277 -0.7096 -0.0264 -0.4976
  124OSM   H13S13131   1.827  -0.487   3.294  1.4616 -0.8445  0.2267
  124OSM   H13T13132   1.864  -0.645   3.213 -1.3101 -1.6933  0.1544
  124OSM   C14S13133   1.806  -0.668   3.412  0.3011 -0.2837 -0.6556
  124OSM   H14S13134   1.818  -0.778   3.401 -0.1915 -0.6036  1.5749
  124OSM   H14T13135   1.705  -0.653   3.455  0.2272  1.5648 -1.3788
  124OSM   C15S13136   1.917  -0.614   3.496 -0.0852 -0.8701 -0.1203
  124OSM   H15S13137   1.904  -0.508   3.528  1.8503 -0.8249  0.6421
  124OSM   H15T13138   2.008  -0.617   3.433 -0.5382  0.9541 -0.9383
  124OSM   C16S13139   1.944  -0.693   3.627 -0.5554 -0.5430 -0.1120
  124OSM   H16S13140   2.043  -0.678   3.673  0.0870 -0.1171 -1.5749
  124OSM   H16T13141   1.950  -0.800   3.596 -0.4708 -0.0081 -2.0920
  124OSM   C17S13142   1.837  -0.668   3.733 -0.1137 -0.3499 -0.5625
  124OSM   H17S13143   1.857  -0.737   3.818 -0.1147  0.1257 -0.1692
  124OSM   H17T13144   1.734  -0.685   3.697 -0.1901  0.3508 -0.6840
  124OSM   C18S13145   1.833  -0.524   3.794 -0.2868 -0.8083  0.0442
  124OSM   H18S13146   1.736  -0.516   3.846  0.1725  1.9768  0.5939
  124OSM   H18T13147   1.845  -0.443   3.719 -0.7668  0.6652  1.5058
  124OSM   H18U13148   1.915  -0.517   3.868  0.4197 -0.9176 -0.7118
  124OSM    C1F13149   1.990  -0.097   2.286 -0.1821 -0.0595 -0.6031
  124OSM     OF13150   1.935   0.013   2.287 -0.0060 -0.0972  0.3638
  124OSM    C2F13151   2.136  -0.114   2.337  0.0651  0.4267 -0.1324
  124OSM    H2F13152   2.174  -0.194   2.271 -1.3599  0.7200 -1.3688
  124OSM    H2G13153   2.137  -0.140   2.445 -0.9259 -0.6152 -0.3526
  124OSM    C3F13154   2.233   0.007   2.296 -0.0494 -0.4070 -0.2240
  124OSM    H3F13155   2.182   0.095   2.342 -0.7251 -0.8045 -0.1976
  124OSM    H3G13156   2.229   0.014   2.185  0.1315 -2.1762 -0.3673
  124OSM    C4F13157   2.391  -0.000   2.334  0.3533 -0.3680 -0.3968
  124OSM    H4F13158   2.433   0.101   2.314 -1.1449  0.5548  0.9231
  124OSM    H4G13159   2.436  -0.076   2.266 -2.6239 -1.4432 -1.3612
  124OSM    C5F13160   2.420  -0.048   2.479 -0.4196 -0.5486  0.7792
  124OSM    H5F13161   2.531  -0.058   2.485 -0.2919 -2.1819 -2.2188
  124OSM    H5G13162   2.374  -0.148   2.493 -1.9109 -0.0634 -0.3784
  124OSM    C6F13163   2.356   0.022   2.605  0.6278  0.3766 -0.5917
  124OSM    H6F13164   2.249   0.039   2.583  1.1734  1.4794 -2.6416
  124OSM    H6G13165   2.410   0.120   2.604  1.2201  0.1129  1.2726
  124OSM    C7F13166   2.372  -0.054   2.741  0.3282  0.3231  0.2075
  124OSM    H7F13167   2.475  -0.090   2.758  0.2141  0.1417  0.5311
  124OSM    H7G13168   2.312  -0.146   2.727  1.2796 -0.4672  1.1243
  124OSM    C8F13169   2.322   0.030   2.863  0.2951 -0.0156  0.1212
  124OSM    H8F13170   2.303  -0.044   2.945 -2.6949  0.2806 -0.1881
  124OSM    H8G13171   2.221   0.074   2.847  0.7539  1.5990  1.3770
  124OSM    C9F13172   2.406   0.140   2.916  0.9239 -0.0541  0.4122
  124OSM    H9F13173   2.415   0.227   2.849  2.0296  1.2135  2.1460
  124OSM   C10F13174   2.455   0.150   3.039  0.6027  0.2306  0.2134
  124OSM   H10F13175   2.504   0.245   3.067 -3.2032  3.0481 -1.7886
  124OSM   C11F13176   2.458   0.035   3.147  0.1201  0.3622 -0.1176
  124OSM   H11F13177   2.559  -0.011   3.146 -0.0049  0.0900 -1.1958
  124OSM   H11G13178   2.383  -0.046   3.139  0.5482 -0.3481  2.2531
  124OSM   C12F13179   2.439   0.088   3.292  0.1984 -0.1899 -0.7182
  124OSM   H12F13180   2.502   0.176   3.316 -1.2871 -0.1254  3.9372
  124OSM   H12G13181   2.454   0.010   3.370 -1.6714 -0.9423 -1.0553
  124OSM   C13F13182   2.293   0.137   3.316  0.5521  0.2771 -0.4145
  124OSM   H13F13183   2.223   0.052   3.303  0.3286  0.0488  1.8951
  124OSM   H13G13184   2.274   0.212   3.236  0.1174  0.9734  0.3294
  124OSM   C14F13185   2.282   0.205   3.456 -0.2765 -0.1133 -0.6846
  124OSM   H14F13186   2.174   0.229   3.467 -0.1409  0.1078  0.1924
  124OSM   H14G13187   2.343   0.297   3.450  0.5116 -0.6438 -0.9914
  124OSM   C15F13188   2.330   0.117   3.567 -0.3831  0.0990 -0.3391
  124OSM   H15F13189   2.441   0.119   3.572 -0.3820  2.2201 -0.0968
  124OSM   H15G13190   2.299   0.011   3.554 -1.2936 -0.4246  4.2962
  124OSM   C16F13191   2.275   0.155   3.704 -0.4769 -0.3664 -1.0383
  124OSM   H16F13192   2.333   0.094   3.777  0.7799  4.0784  2.1082
  124OSM   H16G13193   2.174   0.110   3.718  1.1453 -4.7904 -2.0034
  124OSM   C17F13194   2.284   0.299   3.745 -0.4347  0.1443  0.1207
  124OSM   H17F13195   2.228   0.358   3.670  0.0813 -1.0899 -1.2842
  124OSM   H17G13196   2.388   0.337   3.735 -0.6091  0.1654 -2.0012
  124OSM   C18F13197   2.224   0.334   3.880  0.4509 -0.1279 -0.1683
  124OSM   H18F13198   2.118   0.306   3.897  0.2545  1.2213  1.0318
  124OSM   H18G13199   2.231   0.442   3.903  1.7354 -0.3337  0.5462
  124OSM   H18H13200   2.282   0.279   3.958  0.2592 -2.0571 -1.3221
  125OSM      N13201   4.442   2.467   1.738  0.0639  0.8265 -0.4435
  125OSM    C1513202   4.298   2.485   1.698 -0.4263 -0.7452  0.1954
  125OSM   H15A13203   4.275   2.591   1.694  0.5642 -0.5052  0.6154
  125OSM   H15B13204   4.226   2.441   1.764  1.5099 -2.3452  1.3212
  125OSM   H15C13205   4.288   2.446   1.598  0.2958  1.6346 -0.8855
  125OSM    C1413206   4.494   2.333   1.732 -0.1526 -0.0102 -0.6179
  125OSM   H14A13207   4.591   2.333   1.780  0.2695 -2.1093 -1.3422
  125OSM   H14B13208   4.515   2.300   1.631 -0.2232  2.8967 -1.6694
  125OSM   H14C13209   4.435   2.264   1.791  2.6245 -0.9376  1.3127
  125OSM    C1313210   4.520   2.556   1.643 -0.0347 -0.3175 -0.1719
  125OSM   H13A13211   4.510   2.663   1.654 -0.6930 -0.5785  2.5540
  125OSM   H13B13212   4.489   2.528   1.544 -1.1631  0.4414 -0.0446
  125OSM   H13C13213   4.624   2.529   1.653 -0.3139 -1.5549 -0.3859
  125OSM    C1213214   4.450   2.520   1.878  0.6256  0.5770 -0.6343
  125OSM   H12A13215   4.401   2.453   1.948  0.5154  1.0342 -0.2620
  125OSM   H12B13216   4.388   2.609   1.885 -0.6274 -0.3675  4.1180
  125OSM    C1113217   4.591   2.556   1.928  0.0020 -0.0644 -0.6523
  125OSM   H11A13218   4.602   2.589   2.034  0.3387 -0.2899 -0.6135
  125OSM   H11B13219   4.625   2.646   1.872  1.3976 -0.6797 -0.8519
  125OSM      P13220   4.762   2.363   2.010  0.1695  0.4418 -0.2339
  125OSM    O1313221   4.727   2.224   1.973  0.3009  0.5899 -0.1774
  125OSM    O1413222   4.908   2.404   2.026  0.4218  0.2407 -0.4822
  125OSM    O1113223   4.686   2.399   2.147 -0.2399 -0.1714 -0.4400
  125OSM    O1213224   4.692   2.453   1.906 -0.4526 -0.2580 -0.1926
  125OSM    C1S13225   4.558   2.364   2.185  0.2067  0.4196  0.0338
  125OSM    H1S13226   4.534   2.259   2.156  1.7155 -0.3612  1.4226
  125OSM    H1T13227   4.482   2.434   2.146  0.7723  0.0541 -1.8585
  125OSM     NF13228   4.445   2.281   2.389  0.2487  0.4682 -0.0755
  125OSM    HNF13229   4.352   2.316   2.387 -0.0732 -0.3930 -1.6439
  125OSM    C2S13230   4.559   2.372   2.339  0.4941  0.0957 -0.3520
  125OSM    H2S13231   4.653   2.327   2.378  2.7924  3.1785 -1.8207
  125OSM    C3S13232   4.569   2.522   2.373 -0.3594 -0.2530 -0.0079
  125OSM    H3S13233   4.478   2.570   2.332 -0.1826  0.4608  0.4200
  125OSM     O313234   4.677   2.600   2.312  0.1788 -0.5116 -0.1911
  125OSM    HO313235   4.712   2.541   2.245 -0.5957  0.0808 -1.1536
  125OSM    C4S13236   4.583   2.546   2.522  0.5270  0.8431 -0.6005
  125OSM    H4S13237   4.487   2.543   2.576  0.4272 -1.4333 -0.8252
  125OSM    C5S13238   4.691   2.591   2.597  0.2051  0.3540  0.3437
  125OSM    H5S13239   4.788   2.598   2.547  0.4693  0.5247  0.8768
  125OSM    C6S13240   4.680   2.619   2.744  0.0392  0.3639  0.0463
  125OSM    H6S13241   4.578   2.594   2.780  0.0928 -0.5370 -0.3838
  125OSM    H6T13242   4.696   2.728   2.752 -0.7523  0.5711 -1.0031
  125OSM    C7S13243   4.778   2.535   2.825  0.3038 -0.2681 -0.0480
  125OSM    H7S13244   4.881   2.569   2.798 -0.9506  1.6716 -2.8712
  125OSM    H7T13245   4.769   2.427   2.800 -2.0177  0.3605 -2.4258
  125OSM    C8S13246   4.767   2.564   2.975 -0.5032 -0.5283 -0.8229
  125OSM    H8S13247   4.857   2.516   3.021 -0.5903 -0.6763 -0.8044
  125OSM    H8T13248   4.681   2.510   3.019 -0.8952 -2.3541 -3.5866
  125OSM    C9S13249   4.780   2.711   3.005  0.1931  0.3228 -0.3463
  125OSM    H9S13250   4.690   2.764   2.967 -0.9363  0.3084  2.1589
  125OSM    H9T13251   4.872   2.749   2.957  0.3964  0.5114  0.1868
  125OSM   C10S13252   4.793   2.750   3.159  0.2417  0.2633  0.1166
  125OSM   H10S13253   4.795   2.861   3.150  1.6226  0.4242  1.6685
  125OSM   H10T13254   4.888   2.725   3.212  0.8941  2.2983 -0.0218
  125OSM   C11S13255   4.676   2.695   3.239  0.5483 -0.0892 -0.6920
  125OSM   H11S13256   4.694   2.587   3.257 -0.9696 -0.1468  0.7785
  125OSM   H11T13257   4.573   2.704   3.199  0.2844  1.6111  0.2419
  125OSM   C12S13258   4.644   2.775   3.367  0.2774  0.3815  0.8089
  125OSM   H12S13259   4.614   2.871   3.321 -1.3668 -1.4939 -2.4096
  125OSM   H12T13260   4.732   2.810   3.425  0.3452  1.9065 -0.1560
  125OSM   C13S13261   4.527   2.732   3.455 -0.2933 -0.0163 -0.1845
  125OSM   H13S13262   4.563   2.654   3.525  0.3321  1.8998  1.7401
  125OSM   H13T13263   4.446   2.691   3.392 -0.5895 -0.4586  0.4655
  125OSM   C14S13264   4.470   2.843   3.550  0.2912  0.7536  0.3711
  125OSM   H14S13265   4.442   2.923   3.478  1.1585 -0.1549 -1.0371
  125OSM   H14T13266   4.556   2.869   3.615  1.8831 -2.3678 -0.2823
  125OSM   C15S13267   4.342   2.787   3.617 -0.8606  0.4396  0.4074
  125OSM   H15S13268   4.299   2.739   3.526  1.2455  1.9201 -1.4730
  125OSM   H15T13269   4.273   2.872   3.631 -3.4795 -1.2537 -1.2750
  125OSM   C16S13270   4.371   2.693   3.735  0.1454 -0.2037  0.2467
  125OSM   H16S13271   4.388   2.755   3.825  0.3012 -3.2147  2.4168
  125OSM   H16T13272   4.454   2.621   3.720 -0.6024 -0.7817 -1.3924
  125OSM   C17S13273   4.245   2.617   3.778 -0.1352  0.3731  0.1233
  125OSM   H17S13274   4.265   2.553   3.866 -0.1781  2.6378  1.8776
  125OSM   H17T13275   4.221   2.543   3.699  2.1545 -2.6291  2.0408
  125OSM   C18S13276   4.124   2.693   3.820  0.7110 -0.4955 -0.2001
  125OSM   H18S13277   4.091   2.743   3.726  1.3882 -1.2813 -0.8733
  125OSM   H18T13278   4.158   2.772   3.891 -0.9063 -0.5433  0.6759
  125OSM   H18U13279   4.044   2.634   3.868  1.6906 -0.9309  0.9536
  125OSM    C1F13280   4.447   2.147   2.404  0.6592 -1.1575 -0.3156
  125OSM     OF13281   4.539   2.089   2.359  0.1622 -0.4593  0.1399
  125OSM    C2F13282   4.335   2.075   2.467  0.3892 -0.3311 -0.5719
  125OSM    H2F13283   4.280   2.038   2.378  1.0169  0.6628 -1.3902
  125OSM    H2G13284   4.258   2.142   2.510  3.7878  1.3543  3.6988
  125OSM    C3F13285   4.381   1.973   2.568 -0.8199  0.4412  0.6838
  125OSM    H3F13286   4.420   1.890   2.506 -1.6457  0.6900 -0.1769
  125OSM    H3G13287   4.295   1.928   2.622 -2.1267  2.8604  0.7341
  125OSM    C4F13288   4.483   2.021   2.668 -0.7379 -0.2267  0.1276
  125OSM    H4F13289   4.579   2.043   2.617 -0.4432  0.3060  0.8931
  125OSM    H4G13290   4.501   1.936   2.737 -0.0986 -1.0897 -1.0622
  125OSM    C5F13291   4.445   2.144   2.752  0.0697 -0.2724 -0.7036
  125OSM    H5F13292   4.375   2.120   2.834  2.7173  0.0904  1.8244
  125OSM    H5G13293   4.398   2.216   2.681 -2.0839  0.3119  1.2161
  125OSM    C6F13294   4.582   2.211   2.801  0.0458 -0.2331 -0.6670
  125OSM    H6F13295   4.558   2.303   2.858 -0.0670 -0.4115 -0.4177
  125OSM    H6G13296   4.636   2.240   2.709 -1.9855  2.0364 -1.2307
  125OSM    C7F13297   4.675   2.124   2.887  0.2522 -0.1950  0.3399
  125OSM    H7F13298   4.760   2.180   2.931  0.3577 -2.1407  2.8075
  125OSM    H7G13299   4.723   2.047   2.824  1.7883  1.1452 -0.1858
  125OSM    C8F13300   4.595   2.072   3.009  0.8107  0.0284  0.6935
  125OSM    H8F13301   4.538   1.981   2.981  1.9865 -0.6746  0.4839
  125OSM    H8G13302   4.523   2.155   3.027  2.2091  1.6681 -0.8659
  125OSM    C9F13303   4.669   2.033   3.132 -0.2197  0.4686  0.0656
  125OSM    H9F13304   4.715   1.933   3.125 -0.7837  0.3250 -1.9603
  125OSM   C10F13305   4.695   2.113   3.235  0.2012  0.1758 -0.3693
  125OSM   H10F13306   4.747   2.073   3.324 -0.1393  2.4072  0.9068
  125OSM   C11F13307   4.658   2.255   3.262 -0.3054  0.5088  0.1682
  125OSM   H11F13308   4.632   2.314   3.172 -2.6913 -0.4929  0.1242
  125OSM   H11G13309   4.749   2.296   3.311  0.5481  0.5140 -1.3719
  125OSM   C12F13310   4.550   2.257   3.365  0.0968 -0.5648  0.0230
  125OSM   H12F13311   4.451   2.224   3.327 -1.5580  3.0262  0.7359
  125OSM   H12G13312   4.540   2.367   3.377 -1.0410 -0.5436 -0.9168
  125OSM   C13F13313   4.574   2.188   3.500  0.2470 -0.2407  0.0085
  125OSM   H13F13314   4.684   2.179   3.517  0.2121  0.7889  0.8869
  125OSM   H13G13315   4.540   2.082   3.502 -0.1027 -0.1543 -1.1051
  125OSM   C14F13316   4.530   2.262   3.625 -0.1877 -0.1477 -0.2636
  125OSM   H14F13317   4.420   2.275   3.614 -0.0010 -0.2626 -2.8494
  125OSM   H14G13318   4.572   2.364   3.632  1.2118 -0.8379  2.9549
  125OSM   C15F13319   4.546   2.181   3.757 -0.0873 -0.0960 -0.6745
  125OSM   H15F13320   4.481   2.091   3.751 -0.3926 -0.1731  2.2496
  125OSM   H15G13321   4.495   2.242   3.835  1.5047 -0.8066  1.0172
  125OSM   C16F13322   4.694   2.146   3.788  0.2629 -0.1005 -0.2283
  125OSM   H16F13323   4.748   2.243   3.791 -2.6248  1.6315 -0.5954
  125OSM   H16G13324   4.742   2.087   3.706  0.5824 -1.1839  0.7143
  125OSM   C17F13325   4.708   2.068   3.917  0.1714  0.0727 -0.0695
  125OSM   H17F13326   4.806   2.018   3.910 -0.3208 -0.7132 -2.2607
  125OSM   H17G13327   4.635   1.985   3.909  0.1098  0.2697 -2.2846
  125OSM   C18F13328   4.687   2.143   4.050  0.3966  0.0627  0.2427
  125OSM   H18F13329   4.588   2.193   4.045  0.2464 -0.3467 -3.7341
  125OSM   H18G13330   4.771   2.215   4.063  1.0288 -0.7562  0.7532
  125OSM   H18H13331   4.695   2.068   4.131 -0.6315  0.7111  0.9741
  126OSM      N13332   2.432   2.580   2.110  0.4047 -0.2110 -0.5619
  126OSM    C1513333   2.378   2.716   2.118  0.5859 -0.1841  0.1084
  126OSM   H15A13334   2.432   2.783   2.184 -0.8684  0.6696  0.4673
  126OSM   H15B13335   2.277   2.720   2.155  0.4111  1.6707 -0.4666
  126OSM   H15C13336   2.383   2.761   2.019  2.5066 -1.3736 -0.3983
  126OSM    C1413337   2.562   2.580   2.037 -0.4249  0.0147 -0.4415
  126OSM   H14A13338   2.558   2.612   1.934  0.1588 -1.2528 -0.8751
  126OSM   H14B13339   2.607   2.483   2.050 -0.3405  0.3886  3.3077
  126OSM   H14C13340   2.633   2.649   2.079 -0.1652 -1.2592  1.3627
  126OSM    C1313341   2.444   2.524   2.257 -0.0230  0.3025  0.3180
  126OSM   H13A13342   2.506   2.588   2.318  0.5115  1.3905 -1.3006
  126OSM   H13B13343   2.489   2.426   2.260  1.9713  1.1798  0.2556
  126OSM   H13C13344   2.345   2.526   2.301 -0.3599 -1.3625 -0.2883
  126OSM    C1213345   2.338   2.489   2.037 -0.5544  0.4356  0.6579
  126OSM   H12A13346   2.373   2.387   2.042 -0.6771  0.3094 -0.7487
  126OSM   H12B13347   2.333   2.523   1.935  1.1078 -0.6345  0.1720
  126OSM    C1113348   2.194   2.483   2.064  0.1688  0.0357  0.1918
  126OSM   H11A13349   2.133   2.429   1.989  0.3298 -2.6704  1.8837
  126OSM   H11B13350   2.149   2.585   2.067 -1.2014 -0.4452 -1.8646
  126OSM      P13351   2.015   2.390   2.220  0.2166 -0.0730  0.3615
  126OSM    O1313352   1.972   2.529   2.266 -0.0098  0.4613 -0.6179
  126OSM    O1413353   1.939   2.334   2.107 -0.2325  0.6074  0.1242
  126OSM    O1113354   2.020   2.278   2.336  0.0218  0.9672  0.3650
  126OSM    O1213355   2.171   2.411   2.187  0.3602 -0.3649 -0.3565
  126OSM    C1S13356   2.100   2.295   2.456 -0.0513  0.2615 -0.1633
  126OSM    H1S13357   2.125   2.402   2.472  1.7684 -0.2831  0.8408
  126OSM    H1T13358   2.192   2.234   2.455 -0.0361  0.2854 -1.2894
  126OSM     NF13359   2.082   2.311   2.708 -0.3156  0.1675 -0.2504
  126OSM    HNF13360   2.116   2.240   2.770  0.0645  0.3220 -0.2784
  126OSM    C2S13361   2.018   2.256   2.586 -0.4679 -0.6236  0.4979
  126OSM    H2S13362   1.924   2.314   2.579  0.6618  1.1453 -1.3367
  126OSM    C3S13363   1.976   2.104   2.583  0.2556  0.3567 -0.1501
  126OSM    H3S13364   2.075   2.056   2.596  0.0736  0.0075 -0.0397
  126OSM     O313365   1.944   2.050   2.459  0.6181  0.4473 -0.1504
  126OSM    HO313366   1.957   2.125   2.400 -0.7388  0.2844 -0.6981
  126OSM    C4S13367   1.877   2.067   2.688  0.4194  0.3052  0.2452
  126OSM    H4S13368   1.922   1.999   2.762 -1.4611 -1.8455 -0.4788
  126OSM    C5S13369   1.743   2.102   2.696  0.0453 -0.4616 -0.1937
  126OSM    H5S13370   1.700   2.170   2.621  1.2315 -0.9307 -1.3342
  126OSM    C6S13371   1.655   2.070   2.817 -0.2299  0.0888  0.4679
  126OSM    H6S13372   1.586   1.991   2.780  1.0692 -1.2007  0.7231
  126OSM    H6T13373   1.600   2.161   2.849  1.8367  1.9555 -0.9506
  126OSM    C7S13374   1.724   2.011   2.936  0.6609  0.1464  0.3718
  126OSM    H7S13375   1.779   1.917   2.913  1.3847  0.8927 -1.0392
  126OSM    H7T13376   1.645   1.977   3.008  0.1438 -1.0889 -0.7384
  126OSM    C8S13377   1.803   2.117   3.009 -0.1495  0.0703  1.2057
  126OSM    H8S13378   1.747   2.209   3.037  1.3872  0.3240  3.7406
  126OSM    H8T13379   1.884   2.152   2.941 -1.2807 -0.7876 -0.6757
  126OSM    C9S13380   1.854   2.080   3.145  0.2029 -0.5606 -0.6666
  126OSM    H9S13381   1.910   1.984   3.140  1.9465  0.2894  0.9485
  126OSM    H9T13382   1.767   2.066   3.212  0.8748  2.8890  1.1745
  126OSM   C10S13383   1.940   2.200   3.190 -0.6719 -0.1863 -0.4560
  126OSM   H10S13384   1.992   2.243   3.101 -1.4468  0.1561 -0.7481
  126OSM   H10T13385   2.028   2.173   3.253 -2.0539 -0.9313  1.2180
  126OSM   C11S13386   1.847   2.314   3.252  0.1193  0.2582 -0.2585
  126OSM   H11S13387   1.749   2.324   3.200 -0.3886 -1.9291  0.1677
  126OSM   H11T13388   1.914   2.403   3.249  0.7664 -0.2251 -3.1867
  126OSM   C12S13389   1.806   2.279   3.399 -0.0854  0.0868 -0.0263
  126OSM   H12S13390   1.902   2.286   3.453 -0.3491  0.9475  0.3438
  126OSM   H12T13391   1.757   2.182   3.424  1.2471 -1.0118 -1.4727
  126OSM   C13S13392   1.710   2.393   3.460  0.0990  0.9305 -1.0579
  126OSM   H13S13393   1.623   2.403   3.393 -0.4551 -0.6860 -0.6159
  126OSM   H13T13394   1.767   2.488   3.472  0.1913  0.7036  0.5819
  126OSM   C14S13395   1.657   2.362   3.602 -0.0895  0.4036  0.2806
  126OSM   H14S13396   1.736   2.353   3.679  1.3182 -0.7064 -1.2258
  126OSM   H14T13397   1.592   2.272   3.608 -1.0039  1.0063 -0.3244
  126OSM   C15S13398   1.569   2.479   3.649 -0.9772  0.0373 -0.1668
  126OSM   H15S13399   1.512   2.532   3.569  2.7952  0.0096 -3.1676
  126OSM   H15T13400   1.653   2.546   3.677 -1.0077 -0.3134  0.7797
  126OSM   C16S13401   1.478   2.442   3.770  0.2617  0.6311  0.1482
  126OSM   H16S13402   1.552   2.398   3.840  0.0841  2.0687  1.2977
  126OSM   H16T13403   1.405   2.365   3.737  0.0566  1.6765 -1.9958
  126OSM   C17S13404   1.414   2.560   3.845 -0.2432 -0.0030 -0.0805
  126OSM   H17S13405   1.342   2.611   3.777  1.8961  3.4143 -0.0029
  126OSM   H17T13406   1.495   2.633   3.865 -0.6139 -0.0327  1.6818
  126OSM   C18S13407   1.341   2.516   3.971 -0.6841 -0.1123 -0.0157
  126OSM   H18S13408   1.402   2.448   4.035 -0.9517 -1.0877 -0.7606
  126OSM   H18T13409   1.247   2.466   3.937 -1.3367  1.0886 -0.0258
  126OSM   H18U13410   1.314   2.605   4.031 -2.6990  0.7040 -1.9821
  126OSM    C1F13411   2.093   2.443   2.741  0.6506  0.1126  0.3334
  126OSM     OF13412   2.030   2.524   2.676 -0.0269  0.2799  0.1179
  126OSM    C2F13413   2.179   2.477   2.861 -0.0023 -0.5358 -0.4323
  126OSM    H2F13414   2.264   2.408   2.882  0.1888  0.0691  0.8316
  126OSM    H2G13415   2.116   2.453   2.949 -0.2339 -0.6470 -0.6273
  126OSM    C3F13416   2.233   2.619   2.853  0.0499 -0.2936 -0.0431
  126OSM    H3F13417   2.148   2.690   2.847  1.3585  1.3190 -0.0864
  126OSM    H3G13418   2.293   2.629   2.760 -2.6107  0.4392 -1.7944
  126OSM    C4F13419   2.312   2.654   2.975  0.5658 -0.1852 -0.2315
  126OSM    H4F13420   2.346   2.759   2.964 -0.3354  0.2299  0.7761
  126OSM    H4G13421   2.395   2.581   2.988  0.1439 -0.7124 -0.4674
  126OSM    C5F13422   2.225   2.661   3.095  0.7381  0.0596 -0.1136
  126OSM    H5F13423   2.149   2.581   3.100  0.9404 -0.1318 -0.0775
  126OSM    H5G13424   2.170   2.757   3.106 -0.2516 -0.6079  0.9652
  126OSM    C6F13425   2.314   2.659   3.220  0.4497  0.5895  0.4007
  126OSM    H6F13426   2.385   2.744   3.213  0.6239  0.2976 -3.0723
  126OSM    H6G13427   2.355   2.556   3.231  0.2208 -0.1939 -4.1615
  126OSM    C7F13428   2.222   2.667   3.340 -0.6011 -0.0344  0.3479
  126OSM    H7F13429   2.143   2.738   3.307 -0.7056 -0.7158 -0.8906
  126OSM    H7G13430   2.278   2.722   3.419 -0.4886  1.6585 -0.8411
  126OSM    C8F13431   2.169   2.533   3.400 -0.2186  0.2245  0.4767
  126OSM    H8F13432   2.259   2.486   3.444 -0.3118  0.2384  0.6852
  126OSM    H8G13433   2.141   2.458   3.323  0.1517 -1.0149  1.5198
  126OSM    C9F13434   2.065   2.541   3.504 -0.4795 -0.5576 -0.0307
  126OSM    H9F13435   1.959   2.540   3.474 -0.4285  0.8276 -0.3413
  126OSM   C10F13436   2.088   2.527   3.642  0.0120  0.1284  0.7656
  126OSM   H10F13437   1.998   2.542   3.703  0.9268  0.7554  1.9996
  126OSM   C11F13438   2.223   2.507   3.705 -0.0309 -0.0930  0.0391
  126OSM   H11F13439   2.253   2.578   3.785  1.1489 -1.2950  0.6912
  126OSM   H11G13440   2.308   2.499   3.634 -0.6819  1.0949 -0.9167
  126OSM   C12F13441   2.208   2.374   3.782  0.0089 -0.1673  0.1438
  126OSM   H12F13442   2.311   2.332   3.793 -0.4882 -0.7527  3.6564
  126OSM   H12G13443   2.148   2.298   3.729 -0.6392  1.0885 -0.9846
  126OSM   C13F13444   2.160   2.388   3.921  0.2427  0.1536 -0.3658
  126OSM   H13F13445   2.050   2.376   3.924  0.2737 -0.1323 -0.3504
  126OSM   H13G13446   2.190   2.489   3.958 -2.4511  1.5432 -1.6588
  126OSM   C14F13447   2.218   2.272   4.015  1.0350 -0.7373  0.5613
  126OSM   H14F13448   2.327   2.262   3.996  1.5964  1.6691  2.0490
  126OSM   H14G13449   2.157   2.188   3.977  0.7921 -0.0705 -0.5588
  126OSM   C15F13450   2.194   2.285   4.166 -0.8243  0.0192  0.2500
  126OSM   H15F13451   2.083   2.287   4.176 -1.2117 -1.9660 -2.6220
  126OSM   H15G13452   2.243   2.383   4.185  1.4572 -0.8581 -0.6830
  126OSM   C16F13453   2.242   2.156   4.241 -0.3158 -0.7005  0.0420
  126OSM   H16F13454   2.352   2.167   4.254 -0.3877 -0.8943  0.8651
  126OSM   H16G13455   2.217   2.056   4.201 -1.1810  0.0957 -1.5273
  126OSM   C17F13456   2.185   2.157   4.387 -0.1983 -0.3269  0.0801
  126OSM   H17F13457   2.184   2.262   4.424  1.6232 -0.0479 -0.5406
  126OSM   H17G13458   2.264   2.103   4.444  0.4284 -1.2343 -1.5823
  126OSM   C18F13459   2.048   2.090   4.400 -0.5521 -0.4652  0.2559
  126OSM   H18F13460   2.027   2.076   4.508 -2.2969  1.5612  0.2403
  126OSM   H18G13461   2.034   1.990   4.354  3.3969 -2.3389  2.6109
  126OSM   H18H13462   1.971   2.157   4.356 -2.3464 -1.9522  1.0019
  127OSM      N13463   1.938   4.179   2.092  0.3325  0.2392 -1.2582
  127OSM    C1513464   1.894   4.129   1.957  0.4294 -0.2532 -0.6450
  127OSM   H15A13465   1.790   4.102   1.958  0.4723 -0.4227 -0.7601
  127OSM   H15B13466   1.937   4.034   1.929 -0.6799 -0.4015 -1.9122
  127OSM   H15C13467   1.914   4.207   1.885  1.7654 -0.1355 -0.1808
  127OSM    C1413468   2.086   4.178   2.106 -0.6056  0.0785 -0.1358
  127OSM   H14A13469   2.125   4.256   2.043 -0.4798  0.1121 -0.0178
  127OSM   H14B13470   2.118   4.078   2.080 -1.4441  0.3783 -2.5635
  127OSM   H14C13471   2.115   4.202   2.208 -0.8828  0.1552 -0.0734
  127OSM    C1313472   1.887   4.320   2.125  1.1534  0.0870 -0.6703
  127OSM   H13A13473   1.936   4.392   2.060 -1.2463  1.3128 -1.2448
  127OSM   H13B13474   1.915   4.342   2.227  0.3166  0.9894 -0.6199
  127OSM   H13C13475   1.781   4.328   2.105  1.1695  0.1034 -0.7485
  127OSM    C1213476   1.882   4.079   2.201  0.1254  0.2618  0.5697
  127OSM   H12A13477   1.911   4.129   2.292 -0.5291  1.8876 -0.0702
  127OSM   H12B13478   1.946   3.993   2.202  0.7053  0.6763  0.0392
  127OSM    C1113479   1.732   4.038   2.220 -0.9485 -0.0031 -0.2633
  127OSM   H11A13480   1.728   3.955   2.294 -0.3089 -1.3144 -1.6553
  127OSM   H11B13481   1.699   3.981   2.131  0.6739 -1.2743 -0.0890
  127OSM      P13482   1.505   4.150   2.249  0.1676 -0.0239  0.1645
  127OSM    O1313483   1.453   4.277   2.294  1.0489 -0.1302 -0.2162
  127OSM    O1413484   1.471   4.111   2.109  0.0892  0.1367  0.4328
  127OSM    O1113485   1.461   4.036   2.355  0.3192 -0.1342  0.2114
  127OSM    O1213486   1.655   4.154   2.260 -0.1747 -0.5657 -0.5836
  127OSM    C1S13487   1.516   4.013   2.485  0.3062 -0.0682  0.2308
  127OSM    H1S13488   1.490   4.095   2.555  1.0090 -1.7963  2.6465
  127OSM    H1T13489   1.625   4.026   2.469 -0.0394  1.0984 -1.3469
  127OSM     NF13490   1.489   3.862   2.679 -0.0084 -0.5435 -0.4590
  127OSM    HNF13491   1.569   3.803   2.692  0.7935  0.9360  1.8001
  127OSM    C2S13492   1.452   3.882   2.542  0.0057  0.1689 -0.2002
  127OSM    H2S13493   1.344   3.905   2.538 -0.4251 -1.6652  0.1226
  127OSM    C3S13494   1.487   3.756   2.449 -0.4370 -0.1763  0.0963
  127OSM    H3S13495   1.597   3.742   2.448 -0.4851 -0.7292 -2.1770
  127OSM     O313496   1.480   3.774   2.310  0.6083 -0.7319  0.6509
  127OSM    HO313497   1.453   3.866   2.304  0.1330 -0.8776  0.5245
  127OSM    C4S13498   1.414   3.636   2.493  0.2042  0.3425  0.3963
  127OSM    H4S13499   1.466   3.593   2.580  0.4672 -1.9308 -0.8115
  127OSM    C5S13500   1.295   3.583   2.450  0.3102  0.0685  0.5594
  127OSM    H5S13501   1.252   3.642   2.367  1.0512  1.4142  1.1008
  127OSM    C6S13502   1.207   3.471   2.499 -0.1138  0.6861  0.7499
  127OSM    H6S13503   1.195   3.389   2.425  2.6344  1.2641 -0.4714
  127OSM    H6T13504   1.109   3.516   2.524 -1.2619  0.3487 -2.6285
  127OSM    C7S13505   1.263   3.396   2.622  0.4948 -0.4830  0.6130
  127OSM    H7S13506   1.370   3.369   2.608  0.6831  1.1859 -1.5942
  127OSM    H7T13507   1.205   3.301   2.635 -0.3752 -0.0885 -0.2549
  127OSM    C8S13508   1.245   3.477   2.752  0.1654  0.2791  0.4693
  127OSM    H8S13509   1.143   3.520   2.765  0.9383  2.5606 -0.4127
  127OSM    H8T13510   1.304   3.571   2.756 -0.1964  0.4791  1.3018
  127OSM    C9S13511   1.279   3.380   2.868  0.0032  0.4974 -0.1707
  127OSM    H9S13512   1.371   3.324   2.840  0.9394  1.5109  0.7662
  127OSM    H9T13513   1.191   3.312   2.876 -0.7479  1.0432 -2.9568
  127OSM   C10S13514   1.307   3.448   3.002  0.5201 -0.6507  0.5662
  127OSM   H10S13515   1.363   3.541   2.978 -0.9865  0.0718 -0.3476
  127OSM   H10T13516   1.363   3.375   3.065  2.9499 -1.2088 -2.0188
  127OSM   C11S13517   1.183   3.489   3.075  0.0962 -0.0050  0.4637
  127OSM   H11S13518   1.128   3.395   3.099 -1.8660  0.6706 -1.0587
  127OSM   H11T13519   1.108   3.540   3.011  1.2768  2.0604  0.6444
  127OSM   C12S13520   1.214   3.563   3.209  0.3856  0.4896  0.7035
  127OSM   H12S13521   1.124   3.623   3.232 -0.5870 -1.3623  1.9373
  127OSM   H12T13522   1.292   3.643   3.207  0.5015  0.4868  2.9440
  127OSM   C13S13523   1.254   3.454   3.317 -0.4194 -0.2575 -0.6243
  127OSM   H13S13524   1.334   3.391   3.274 -1.3029 -0.5939 -1.8274
  127OSM   H13T13525   1.163   3.392   3.333 -1.8863  1.5670 -1.4655
  127OSM   C14S13526   1.298   3.503   3.461  0.1745 -0.1149  0.2035
  127OSM   H14S13527   1.217   3.565   3.505 -0.7040 -0.9129 -0.2440
  127OSM   H14T13528   1.380   3.578   3.460  1.8443 -1.7109 -3.6251
  127OSM   C15S13529   1.337   3.383   3.550  0.0122 -0.1518 -0.0721
  127OSM   H15S13530   1.432   3.337   3.515 -0.3417  0.6894 -2.3300
  127OSM   H15T13531   1.251   3.314   3.536 -0.8216  0.9952 -0.8475
  127OSM   C16S13532   1.363   3.421   3.689 -0.3820  0.2225 -0.2258
  127OSM   H16S13533   1.309   3.512   3.722 -2.6123 -0.8698 -0.6515
  127OSM   H16T13534   1.470   3.447   3.701  0.0717 -1.4346 -0.3909
  127OSM   C17S13535   1.327   3.309   3.788  0.5138 -0.1917  0.2896
  127OSM   H17S13536   1.346   3.339   3.894 -3.3219 -0.4826  1.2261
  127OSM   H17T13537   1.394   3.222   3.769 -0.8389 -1.1409 -0.3623
  127OSM   C18S13538   1.183   3.271   3.787 -0.4508  0.4718  0.5096
  127OSM   H18S13539   1.149   3.221   3.693 -4.0219  3.9400 -0.2783
  127OSM   H18T13540   1.113   3.353   3.812 -0.2993  0.5266  0.7507
  127OSM   H18U13541   1.171   3.181   3.852  2.9022 -0.3185  0.2052
  127OSM    C1F13542   1.449   3.931   2.790  0.0585  0.0988 -0.1482
  127OSM     OF13543   1.359   4.015   2.783 -0.4855  0.5218 -0.0896
  127OSM    C2F13544   1.512   3.893   2.921  0.3930  0.4996  0.3221
  127OSM    H2F13545   1.612   3.940   2.937  1.2122 -0.7427 -0.9335
  127OSM    H2G13546   1.520   3.782   2.930  1.4981  0.2899 -2.3226
  127OSM    C3F13547   1.421   3.943   3.027 -0.7513 -0.1139  0.3966
  127OSM    H3F13548   1.313   3.919   3.019 -1.0838  0.9351  1.3861
  127OSM    H3G13549   1.420   4.053   3.040  0.1575 -0.1050  0.4607
  127OSM    C4F13550   1.479   3.902   3.166  0.8724 -0.4077 -0.4681
  127OSM    H4F13551   1.589   3.916   3.173  1.1159 -1.8283 -1.2011
  127OSM    H4G13552   1.462   3.793   3.174  3.2540 -0.8463 -0.7241
  127OSM    C5F13553   1.400   3.974   3.272  0.3336  0.2025 -0.1511
  127OSM    H5F13554   1.296   3.940   3.255  0.3997  1.2544 -3.4249
  127OSM    H5G13555   1.402   4.084   3.256 -1.3992  0.4412  1.0082
  127OSM    C6F13556   1.457   3.938   3.406  0.0683  0.2623  0.3334
  127OSM    H6F13557   1.548   4.001   3.420  0.1878  0.1424  0.0981
  127OSM    H6G13558   1.501   3.837   3.394  0.0858  0.5391 -2.4446
  127OSM    C7F13559   1.358   3.946   3.520  0.2476  0.5660 -0.5295
  127OSM    H7F13560   1.319   3.844   3.543  1.0044  0.3570 -0.1446
  127OSM    H7G13561   1.269   4.008   3.495 -2.0950 -2.6033 -0.7437
  127OSM    C8F13562   1.432   4.010   3.644 -0.4499  0.0265  0.2773
  127OSM    H8F13563   1.455   4.118   3.631  2.9733 -0.8627 -2.5923
  127OSM    H8G13564   1.535   3.970   3.651 -0.4076  0.4217  3.8364
  127OSM    C9F13565   1.357   3.992   3.771  0.4037 -0.2674  0.7670
  127OSM    H9F13566   1.271   4.060   3.783  2.3576  2.5036  0.2151
  127OSM   C10F13567   1.366   3.885   3.846  0.1026 -1.0423  0.5128
  127OSM   H10F13568   1.306   3.894   3.937 -0.0584 -3.0883  0.6641
  127OSM   C11F13569   1.474   3.776   3.849  0.0131  0.0742  0.2696
  127OSM   H11F13570   1.497   3.729   3.752 -0.0765 -2.5424  1.4314
  127OSM   H11G13571   1.428   3.691   3.904  0.3799 -0.8892 -0.8778
  127OSM   C12F13572   1.597   3.829   3.931  0.7763 -0.1831 -0.1765
  127OSM   H12F13573   1.628   3.926   3.887  2.1015  0.0114  1.1461
  127OSM   H12G13574   1.670   3.745   3.926 -0.5027 -1.3600  0.0471
  127OSM   C13F13575   1.578   3.857   4.080  0.0047 -0.6404 -0.2767
  127OSM   H13F13576   1.491   3.924   4.095 -1.3123 -2.3732 -0.0229
  127OSM   H13G13577   1.659   3.918   4.128 -0.6121  0.0489 -0.0926
  127OSM   C14F13578   1.568   3.724   4.163 -0.1495  0.3094  0.4362
  127OSM   H14F13579   1.650   3.656   4.131 -0.5004  0.4909 -0.9092
  127OSM   H14G13580   1.475   3.673   4.129 -1.2442  1.9611  0.8422
  127OSM   C15F13581   1.564   3.747   4.311  0.0791 -0.3798  0.3624
  127OSM   H15F13582   1.480   3.819   4.323  2.3141  2.8769 -1.9801
  127OSM   H15G13583   1.663   3.788   4.341  1.3344 -2.2678 -0.9455
  127OSM   C16F13584   1.542   3.623   4.390  0.2679  0.7592  0.2744
  127OSM   H16F13585   1.607   3.543   4.348 -0.4898  0.7425 -0.9296
  127OSM   H16G13586   1.436   3.593   4.373  0.1210  1.2708  0.2610
  127OSM   C17F13587   1.558   3.637   4.541 -0.5203 -0.8983 -0.4600
  127OSM   H17F13588   1.668   3.648   4.553 -0.5594 -1.8727  1.1021
  127OSM   H17G13589   1.537   3.539   4.588 -0.5834  0.7706  3.4062
  127OSM   C18F13590   1.480   3.752   4.609  0.2630  0.4018  0.4119
  127OSM   H18F13591   1.492   3.751   4.719 -3.9215 -0.5401  1.0435
  127OSM   H18G13592   1.371   3.749   4.587  0.5045  1.0960 -0.9830
  127OSM   H18H13593   1.515   3.854   4.583  0.5675  0.2660  0.2807
  128OSM      N13594   0.964   2.683   1.689 -0.1466  0.0665  0.0703
  128OSM    C1513595   0.982   2.531   1.702 -0.3890 -0.2335  0.2836
  128OSM   H15A13596   1.047   2.490   1.626 -2.0801 -0.4059 -1.1185
  128OSM   H15B13597   0.887   2.480   1.695  0.5111 -2.0948  0.9588
  128OSM   H15C13598   1.030   2.508   1.796 -0.7419 -0.4706  0.4069
  128OSM    C1413599   1.097   2.746   1.698 -0.8095 -0.1054 -0.4002
  128OSM   H14A13600   1.089   2.852   1.675  0.1703 -0.4856 -2.8005
  128OSM   H14B13601   1.156   2.695   1.623 -1.6037  0.9005 -1.7718
  128OSM   H14C13602   1.135   2.736   1.798 -1.6008 -1.0146 -0.1830
  128OSM    C1313603   0.901   2.714   1.554 -0.2573  0.3471 -0.2845
  128OSM   H13A13604   0.799   2.680   1.548  0.1479 -1.0399  0.3056
  128OSM   H13B13605   0.962   2.665   1.479 -0.8213  0.0800 -0.5737
  128OSM   H13C13606   0.901   2.817   1.523  0.9016  0.7031  0.8094
  128OSM    C1213607   0.865   2.732   1.799  0.1324 -0.2129 -0.3138
  128OSM   H12A13608   0.770   2.680   1.800 -1.1367  1.9622  0.5314
  128OSM   H12B13609   0.839   2.834   1.774 -0.4439 -0.4620 -0.7639
  128OSM    C1113610   0.923   2.722   1.944  0.1539  0.3556  0.0681
  128OSM   H11A13611   0.949   2.614   1.946  0.7568  0.3921 -2.6957
  128OSM   H11B13612   0.847   2.736   2.024  0.5010  2.4434  0.0818
  128OSM      P13613   1.023   2.961   1.971  0.5952 -0.2008  0.0249
  128OSM    O1313614   1.156   3.018   1.960 -0.3013  0.2037 -0.4570
  128OSM    O1413615   0.927   3.007   1.870 -0.4170  0.2990  0.1517
  128OSM    O1113616   0.962   2.991   2.115 -0.5636  0.4469 -0.5137
  128OSM    O1213617   1.041   2.806   1.970  0.1596  0.6534 -0.0354
  128OSM    C1S13618   1.024   2.935   2.230 -0.6250 -0.8613  0.2544
  128OSM    H1S13619   1.121   2.983   2.257 -1.3820  0.5283  0.5776
  128OSM    H1T13620   1.041   2.826   2.213  0.3535 -0.5451 -0.9546
  128OSM     NF13621   1.015   2.924   2.482  0.4623  0.7079 -0.0138
  128OSM    HNF13622   1.005   2.833   2.519  2.5541 -0.0202 -1.0656
  128OSM    C2S13623   0.939   2.945   2.363 -0.7286 -0.2958  1.1740
  128OSM    H2S13624   0.912   3.053   2.369 -0.4285 -0.2461  1.6724
  128OSM    C3S13625   0.810   2.861   2.346 -0.1278 -0.6583  1.3694
  128OSM    H3S13626   0.830   2.760   2.305 -1.2850 -0.4445  0.2086
  128OSM     O313627   0.731   2.902   2.233 -0.2180 -0.2474 -0.2830
  128OSM    HO313628   0.798   2.942   2.177 -0.3690  0.4139 -0.0072
  128OSM    C4S13629   0.716   2.875   2.460  0.5568 -0.1174 -0.2576
  128OSM    H4S13630   0.675   2.976   2.479 -1.3948 -1.2232  1.9774
  128OSM    C5S13631   0.680   2.780   2.550 -0.0184 -0.9965  0.7164
  128OSM    H5S13632   0.725   2.679   2.545 -0.6763 -1.2891 -3.4180
  128OSM    C6S13633   0.581   2.808   2.659  0.1124 -0.0291 -0.1846
  128OSM    H6S13634   0.502   2.867   2.607  0.9545  0.7620 -0.6001
  128OSM    H6T13635   0.629   2.868   2.739  1.2959  1.7540 -2.1181
  128OSM    C7S13636   0.513   2.680   2.716 -0.2321 -0.0735 -0.2031
  128OSM    H7S13637   0.467   2.617   2.637 -1.3744 -1.7438  1.6719
  128OSM    H7T13638   0.429   2.724   2.774  1.4590  3.8844 -0.4401
  128OSM    C8S13639   0.606   2.595   2.815 -0.6903 -1.0639  0.1687
  128OSM    H8S13640   0.641   2.671   2.889 -1.1591  0.0294 -0.7061
  128OSM    H8T13641   0.693   2.560   2.756 -0.1468 -0.3476  0.5299
  128OSM    C9S13642   0.541   2.483   2.883 -0.1709  0.0047  0.3876
  128OSM    H9S13643   0.548   2.398   2.811 -0.3612 -0.4500  0.8958
  128OSM    H9T13644   0.431   2.501   2.885 -0.2225  0.4072 -2.4433
  128OSM   C10S13645   0.585   2.450   3.023 -0.0991  0.3425 -0.4923
  128OSM   H10S13646   0.695   2.438   3.033 -0.3448 -0.6277  1.6114
  128OSM   H10T13647   0.543   2.351   3.051  1.2642 -0.1856 -0.2083
  128OSM   C11S13648   0.532   2.555   3.125  0.1540 -0.0124  0.1219
  128OSM   H11S13649   0.422   2.547   3.138  0.2209 -0.5530  0.3606
  128OSM   H11T13650   0.549   2.660   3.091 -1.5263 -0.6145 -2.9686
  128OSM   C12S13651   0.580   2.528   3.274  0.6800 -0.0631  0.5154
  128OSM   H12S13652   0.681   2.571   3.292  1.0846 -1.1651  0.9809
  128OSM   H12T13653   0.598   2.420   3.291 -0.1792  0.0975  2.8056
  128OSM   C13S13654   0.480   2.567   3.388 -0.4278  0.2165 -0.7325
  128OSM   H13S13655   0.382   2.522   3.363 -0.4654  0.9163 -1.8954
  128OSM   H13T13656   0.451   2.674   3.390 -3.2842 -0.4647 -1.5625
  128OSM   C14S13657   0.521   2.529   3.527  0.1578 -0.1707 -0.5969
  128OSM   H14S13658   0.606   2.595   3.557  1.0953 -1.9296  0.7553
  128OSM   H14T13659   0.555   2.424   3.526  2.3084  0.4485 -0.0006
  128OSM   C15S13660   0.404   2.540   3.627 -1.1061  0.1610 -0.4305
  128OSM   H15S13661   0.306   2.507   3.587 -0.1754 -3.1142 -0.2812
  128OSM   H15T13662   0.398   2.648   3.650  0.2083  0.1533  0.0602
  128OSM   C16S13663   0.426   2.459   3.760 -0.8631 -0.2424  0.6316
  128OSM   H16S13664   0.532   2.433   3.780 -0.7378  0.6115  1.1484
  128OSM   H16T13665   0.371   2.365   3.736  0.0057 -0.0669 -2.4674
  128OSM   C17S13666   0.365   2.534   3.876  0.5556  0.4218  0.1935
  128OSM   H17S13667   0.262   2.561   3.845  0.0705 -0.5800  0.8812
  128OSM   H17T13668   0.426   2.625   3.897 -1.0157  1.7223 -0.6862
  128OSM   C18S13669   0.363   2.468   4.020 -0.1781  0.2607  1.0558
  128OSM   H18S13670   0.290   2.385   4.024 -1.4295  1.0823 -2.1247
  128OSM   H18T13671   0.336   2.542   4.099 -1.7664  2.0688 -1.0863
  128OSM   H18U13672   0.467   2.442   4.050  1.1163  3.9009  0.2713
  128OSM    C1F13673   1.103   3.002   2.533  0.3981  0.2073 -0.3445
  128OSM     OF13674   1.117   3.113   2.481 -0.2317 -0.1127  0.3832
  128OSM    C2F13675   1.189   2.941   2.638  0.1789  0.8101  0.2636
  128OSM    H2F13676   1.273   2.891   2.584  0.0546 -0.6920  1.4057
  128OSM    H2G13677   1.137   2.852   2.680  2.1893  0.2508  1.7493
  128OSM    C3F13678   1.239   3.028   2.758 -1.0838 -0.1910  0.3282
  128OSM    H3F13679   1.152   3.051   2.824  0.4940 -0.5299  2.6646
  128OSM    H3G13680   1.303   3.115   2.733  1.3616 -1.8852  0.3029
  128OSM    C4F13681   1.321   2.935   2.860 -0.6819 -0.2625 -0.6509
  128OSM    H4F13682   1.417   2.904   2.816 -0.7951 -2.7802  0.7135
  128OSM    H4G13683   1.258   2.845   2.874 -0.0540 -0.6031  0.0369
  128OSM    C5F13684   1.361   3.004   2.994 -0.4716  0.5740  0.5861
  128OSM    H5F13685   1.393   3.111   2.985 -1.6685  0.8169 -1.2375
  128OSM    H5G13686   1.459   2.959   3.021 -1.1612 -0.0924  2.0600
  128OSM    C6F13687   1.258   2.974   3.096  0.1706 -0.1794  0.2194
  128OSM    H6F13688   1.243   2.867   3.122 -1.5620  0.2760  1.2834
  128OSM    H6G13689   1.161   3.002   3.051  0.2146  0.4390  0.5008
  128OSM    C7F13690   1.256   3.058   3.225 -0.4752  0.0733 -0.2607
  128OSM    H7F13691   1.271   3.163   3.190 -0.5132 -0.1482 -0.9456
  128OSM    H7G13692   1.346   3.026   3.282 -2.4664 -1.6239  2.1414
  128OSM    C8F13693   1.126   3.028   3.306 -0.6707  0.2111  0.0855
  128OSM    H8F13694   1.042   3.019   3.234 -1.5438 -1.2013  1.2419
  128OSM    H8G13695   1.110   3.120   3.366 -0.5520 -0.1064  0.6083
  128OSM    C9F13696   1.135   2.897   3.378 -0.1099 -0.1340 -0.2660
  128OSM    H9F13697   1.175   2.809   3.324  1.4592 -0.6330  1.5629
  128OSM   C10F13698   1.091   2.868   3.502 -0.3392  0.4861  0.6909
  128OSM   H10F13699   1.087   2.764   3.539  0.4930  0.0814 -0.3134
  128OSM   C11F13700   1.027   2.969   3.588 -0.1373 -0.1148 -0.0841
  128OSM   H11F13701   0.943   3.026   3.542 -0.0340  0.4452  0.4188
  128OSM   H11G13702   1.098   3.042   3.632 -2.0828  0.1844  2.8620
  128OSM   C12F13703   0.961   2.908   3.719 -0.0189  0.4035  0.2835
  128OSM   H12F13704   0.933   2.994   3.783  0.6191  0.1382  0.9289
  128OSM   H12G13705   1.037   2.845   3.770  0.0340  1.6284  1.7981
  128OSM   C13F13706   0.835   2.844   3.682  0.2196 -0.1643 -1.0515
  128OSM   H13F13707   0.851   2.766   3.605 -0.5210 -0.9065 -0.4684
  128OSM   H13G13708   0.766   2.920   3.639  1.5539  2.5405  1.2103
  128OSM   C14F13709   0.751   2.784   3.793 -0.3284 -0.5643  0.0123
  128OSM   H14F13710   0.663   2.735   3.748 -0.5464 -0.7434  0.6269
  128OSM   H14G13711   0.723   2.857   3.873  1.3334 -0.1756  0.2813
  128OSM   C15F13712   0.825   2.673   3.866  0.2093 -0.3773 -0.5071
  128OSM   H15F13713   0.913   2.640   3.807 -0.0657 -0.0028 -1.1233
  128OSM   H15G13714   0.761   2.583   3.880 -0.7352  0.7456  4.2605
  128OSM   C16F13715   0.877   2.697   4.007 -0.0968 -0.2001 -0.3376
  128OSM   H16F13716   0.969   2.757   3.990  0.1321 -0.7037 -0.9190
  128OSM   H16G13717   0.914   2.601   4.049 -1.0529  0.5969  2.6177
  128OSM   C17F13718   0.776   2.761   4.119 -0.2009  0.2510  0.2651
  128OSM   H17F13719   0.687   2.695   4.124 -0.4825  0.7375  3.0035
  128OSM   H17G13720   0.739   2.859   4.080 -1.0656  0.0670  0.6128
  128OSM   C18F13721   0.846   2.770   4.257  0.1263 -0.1501 -0.2048
  128OSM   H18F13722   0.771   2.822   4.321  0.0150 -0.4379 -0.0991
  128OSM   H18G13723   0.935   2.836   4.246  0.6808 -0.7594  0.5481
  128OSM   H18H13724   0.880   2.680   4.312  1.2951  1.0748  1.1647
  129OSM      N13725   4.507   3.865   1.429  0.6008  0.8339  0.1516
  129OSM    C1513726   4.646   3.829   1.374 -0.0625 -0.4273  0.0407
  129OSM   H15A13727   4.680   3.729   1.397  3.0669  1.2990  4.2024
  129OSM   H15B13728   4.721   3.893   1.416  0.5499 -0.8511 -0.3846
  129OSM   H15C13729   4.653   3.856   1.270 -3.4117  1.0708  0.0776
  129OSM    C1413730   4.514   3.857   1.579 -0.0649  0.2047  0.5605
  129OSM   H14A13731   4.580   3.933   1.620 -0.1584  0.7345 -0.2560
  129OSM   H14B13732   4.558   3.762   1.606  0.1152 -0.1312 -0.8296
  129OSM   H14C13733   4.415   3.862   1.622  0.2658 -1.5322  1.6521
  129OSM    C1313734   4.465   4.000   1.393 -0.6620 -0.7155  0.3182
  129OSM   H13A13735   4.455   4.014   1.286  1.2748 -0.0795  0.1801
  129OSM   H13B13736   4.540   4.071   1.425 -1.2524 -0.3211  0.8471
  129OSM   H13C13737   4.375   4.033   1.443  0.6126  1.4307  1.3535
  129OSM    C1213738   4.412   3.761   1.383  0.1661  0.4325  0.2825
  129OSM   H12A13739   4.457   3.667   1.413  0.8436  0.9213  0.8029
  129OSM   H12B13740   4.416   3.762   1.275  1.1440  0.4422  0.3135
  129OSM    C1113741   4.264   3.774   1.415 -0.3943  0.4536  0.2115
  129OSM   H11A13742   4.207   3.711   1.343 -1.1711  0.9613  0.3699
  129OSM   H11B13743   4.233   3.879   1.397  1.7003  0.6468 -3.0379
  129OSM      P13744   4.295   3.583   1.602  0.0529  0.0572 -0.0984
  129OSM    O1313745   4.177   3.495   1.604 -0.7871  0.8605 -0.1244
  129OSM    O1413746   4.421   3.529   1.543  0.0052 -0.4957  0.2955
  129OSM    O1113747   4.338   3.613   1.756 -0.0387 -0.1135 -0.4052
  129OSM    O1213748   4.252   3.726   1.548 -0.5117 -0.2484 -0.3209
  129OSM    C1S13749   4.252   3.694   1.841 -0.7760  0.0756 -0.2530
  129OSM    H1S13750   4.147   3.663   1.820 -0.2749 -1.4694 -0.6116
  129OSM    H1T13751   4.265   3.799   1.806 -0.5515 -0.0735 -0.6218
  129OSM     NF13752   4.179   3.752   2.067  0.1088  0.1448 -0.8153
  129OSM    HNF13753   4.205   3.836   2.116  0.2016 -0.0483 -0.5303
  129OSM    C2S13754   4.283   3.686   1.995  0.0573 -0.3533 -0.2868
  129OSM    H2S13755   4.292   3.580   2.028  1.7336  0.0929  0.7697
  129OSM    C3S13756   4.425   3.741   2.010 -1.0837 -0.0149 -0.5113
  129OSM    H3S13757   4.424   3.835   1.950 -0.0684  1.1993  1.2854
  129OSM     O313758   4.524   3.654   1.952 -0.9213 -0.4795 -0.0200
  129OSM    HO313759   4.469   3.594   1.901  0.1098  0.2570 -2.1447
  129OSM    C4S13760   4.453   3.758   2.161  0.3285  0.3827  0.1946
  129OSM    H4S13761   4.402   3.848   2.198 -0.9208  0.0160 -0.5492
  129OSM    C5S13762   4.524   3.676   2.246 -0.6446  0.0964  0.1273
  129OSM    H5S13763   4.579   3.589   2.209 -0.5146 -0.8955  2.5189
  129OSM    C6S13764   4.535   3.697   2.394 -1.0641 -0.1737  0.6757
  129OSM    H6S13765   4.487   3.795   2.417 -0.9125 -0.2721  1.4363
  129OSM    H6T13766   4.643   3.701   2.419 -1.1156 -1.7907  1.3000
  129OSM    C7S13767   4.463   3.599   2.495 -0.2913  0.2284  0.1918
  129OSM    H7S13768   4.496   3.499   2.457 -0.0727  0.6204 -0.6762
  129OSM    H7T13769   4.357   3.622   2.474 -0.7200 -0.7885  1.1484
  129OSM    C8S13770   4.502   3.611   2.638 -0.1869 -0.3969  0.4396
  129OSM    H8S13771   4.500   3.721   2.653 -0.9224  0.0930 -2.5597
  129OSM    H8T13772   4.607   3.577   2.651  0.1800  0.5305 -0.0004
  129OSM    C9S13773   4.412   3.524   2.730 -0.1369 -0.2606  0.0682
  129OSM    H9S13774   4.405   3.420   2.691 -0.4810 -1.5323  3.2552
  129OSM    H9T13775   4.310   3.568   2.728  0.7031  1.7831  0.1026
  129OSM   C10S13776   4.472   3.521   2.875  0.1363 -0.0700 -0.7985
  129OSM   H10S13777   4.581   3.501   2.873 -0.2370 -2.2740 -2.4945
  129OSM   H10T13778   4.419   3.430   2.911  0.1622  0.0231 -0.5243
  129OSM   C11S13779   4.420   3.622   2.974 -0.1052 -0.5313 -0.0062
  129OSM   H11S13780   4.312   3.645   2.961 -0.0133 -0.5682 -0.8659
  129OSM   H11T13781   4.460   3.724   2.953 -0.0997 -0.5434 -0.0546
  129OSM   C12S13782   4.448   3.583   3.121  0.8565  0.0040  0.8793
  129OSM   H12S13783   4.437   3.673   3.185 -0.4993 -0.3466  1.1605
  129OSM   H12T13784   4.553   3.546   3.129  1.4565  1.4625  0.0895
  129OSM   C13S13785   4.350   3.472   3.171  0.6960  0.1929  0.1984
  129OSM   H13S13786   4.371   3.375   3.120 -2.5108  1.5735 -4.2958
  129OSM   H13T13787   4.247   3.491   3.136 -0.2205  1.6949  3.3686
  129OSM   C14S13788   4.354   3.454   3.322 -0.3627  0.0153  0.1994
  129OSM   H14S13789   4.287   3.373   3.359  0.8905 -1.8840 -1.4775
  129OSM   H14T13790   4.317   3.552   3.358 -2.6542  0.3363 -2.7190
  129OSM   C15S13791   4.490   3.425   3.384  0.1995  0.5356 -0.7413
  129OSM   H15S13792   4.543   3.517   3.350 -0.8608  1.4229 -0.0737
  129OSM   H15T13793   4.536   3.330   3.351 -1.1946 -1.4235  2.4456
  129OSM   C16S13794   4.497   3.417   3.537  0.7207  0.1854  0.0986
  129OSM   H16S13795   4.458   3.512   3.579  2.1047  0.8074  0.0177
  129OSM   H16T13796   4.604   3.403   3.561  0.3825 -0.6620  1.1936
  129OSM   C17S13797   4.432   3.291   3.606 -0.4536  0.3860 -0.0120
  129OSM   H17S13798   4.503   3.207   3.601  0.1856  0.4861  3.9240
  129OSM   H17T13799   4.333   3.263   3.565 -0.5907  0.9517 -0.0805
  129OSM   C18S13800   4.400   3.322   3.748  0.0510  0.1584 -0.7632
  129OSM   H18S13801   4.336   3.413   3.746  1.4707  1.1938 -0.8582
  129OSM   H18T13802   4.489   3.338   3.814 -1.6827 -1.4187  2.1541
  129OSM   H18U13803   4.345   3.237   3.793 -0.4229  1.1841  0.6785
  129OSM    C1F13804   4.055   3.709   2.093 -0.6434  0.1226 -0.3112
  129OSM     OF13805   4.009   3.611   2.036 -0.4571 -0.3803  0.8417
  129OSM    C2F13806   3.981   3.790   2.203  0.2845  0.5054  0.3830
  129OSM    H2F13807   3.937   3.884   2.162  0.0471 -0.7579 -2.4650
  129OSM    H2G13808   4.056   3.816   2.281  0.2493 -1.1061  0.9868
  129OSM    C3F13809   3.878   3.707   2.282  0.0002 -0.3912  0.4618
  129OSM    H3F13810   3.927   3.613   2.318  0.5084 -0.1473  0.4110
  129OSM    H3G13811   3.794   3.685   2.212  0.2570  1.4297 -0.4799
  129OSM    C4F13812   3.821   3.784   2.403  0.0780 -0.2601 -0.3756
  129OSM    H4F13813   3.740   3.852   2.369 -0.6498 -1.4056 -0.9852
  129OSM    H4G13814   3.896   3.844   2.459  0.9913 -0.7749 -1.0070
  129OSM    C5F13815   3.769   3.686   2.509  0.0130 -0.6152  0.2693
  129OSM    H5F13816   3.850   3.635   2.565  0.7786 -2.0503 -1.9812
  129OSM    H5G13817   3.706   3.615   2.451  0.3021 -1.6514  1.1820
  129OSM    C6F13818   3.685   3.753   2.623  0.8494  0.5201 -0.1127
  129OSM    H6F13819   3.588   3.767   2.570  1.4091  0.5254 -1.1560
  129OSM    H6G13820   3.738   3.849   2.643  0.6494  0.5698  0.1874
  129OSM    C7F13821   3.650   3.658   2.737 -0.2361  0.4278  0.2497
  129OSM    H7F13822   3.745   3.634   2.790  0.8019  0.7068 -1.4178
  129OSM    H7G13823   3.617   3.563   2.691 -1.0530 -0.2378  2.1140
  129OSM    C8F13824   3.539   3.710   2.837  0.2108 -0.7552  0.1078
  129OSM    H8F13825   3.509   3.632   2.909  0.3354 -1.6824 -0.8259
  129OSM    H8G13826   3.456   3.755   2.778  1.1475  0.8182 -0.0744
  129OSM    C9F13827   3.610   3.821   2.910  0.2667 -0.2766 -0.3877
  129OSM    H9F13828   3.695   3.871   2.862  0.0948  0.4301  0.0296
  129OSM   C10F13829   3.596   3.851   3.045 -0.1801 -0.7469  0.1017
  129OSM   H10F13830   3.667   3.928   3.078  2.6416 -3.0248 -0.2055
  129OSM   C11F13831   3.495   3.788   3.143  0.0099 -0.0320 -0.5117
  129OSM   H11F13832   3.421   3.715   3.103  0.4538 -0.4814 -0.5279
  129OSM   H11G13833   3.440   3.876   3.182  0.4828  1.2807 -2.6395
  129OSM   C12F13834   3.567   3.721   3.253 -0.4100  0.1655 -0.7695
  129OSM   H12F13835   3.651   3.655   3.224  1.1807  2.2200 -1.0535
  129OSM   H12G13836   3.502   3.652   3.311  0.9881  0.1445  0.8475
  129OSM   C13F13837   3.624   3.824   3.347 -0.8806  0.3530  0.0599
  129OSM   H13F13838   3.569   3.920   3.347  1.4024  1.7501  1.1457
  129OSM   H13G13839   3.725   3.854   3.311 -1.0973  0.9040 -0.0996
  129OSM   C14F13840   3.617   3.788   3.495 -0.3757 -0.2144  0.2026
  129OSM   H14F13841   3.511   3.781   3.529 -0.8220  3.2900 -0.1555
  129OSM   H14G13842   3.680   3.866   3.542 -1.3687  1.1978 -0.7383
  129OSM   C15F13843   3.686   3.665   3.545 -0.4378  0.1713  0.1497
  129OSM   H15F13844   3.795   3.677   3.534 -0.5112  0.6494 -0.0676
  129OSM   H15G13845   3.675   3.575   3.480  1.0894  0.7536 -0.9872
  129OSM   C16F13846   3.640   3.627   3.690 -0.1065  0.2159  0.0509
  129OSM   H16F13847   3.657   3.519   3.708 -1.1732  0.1525  0.7889
  129OSM   H16G13848   3.529   3.628   3.679 -0.2903 -0.5027  1.6007
  129OSM   C17F13849   3.694   3.718   3.798  0.0214  0.1764 -0.7719
  129OSM   H17F13850   3.678   3.825   3.773  1.8638  0.5461 -0.4581
  129OSM   H17G13851   3.800   3.693   3.816 -0.4761 -0.8614  0.9441
  129OSM   C18F13852   3.622   3.704   3.935 -0.2044  0.1089 -0.5477
  129OSM   H18F13853   3.630   3.604   3.983  0.8986  0.6741  0.5225
  129OSM   H18G13854   3.521   3.749   3.926  0.9514  3.3579  0.8965
  129OSM   H18H13855   3.671   3.771   4.010 -1.5570 -0.7455  1.1696
  130OSM      N13856   1.658   6.406   1.663  0.4598 -0.0366  0.3459
  130OSM    C1513857   1.544   6.472   1.734 -0.1573 -0.1479  0.3147
  130OSM   H15A13858   1.466   6.493   1.662 -0.1332 -1.1688 -0.0151
  130OSM   H15B13859   1.577   6.559   1.789  0.4095  1.2518 -2.0949
  130OSM   H15C13860   1.497   6.402   1.802  0.5930 -0.7224  0.2537
  130OSM    C1413861   1.594   6.318   1.557 -0.0536  0.3137 -0.8647
  130OSM   H14A13862   1.559   6.388   1.482 -0.1357  1.2804  0.0628
  130OSM   H14B13863   1.507   6.271   1.601  0.1785  1.0639  0.4446
  130OSM   H14C13864   1.652   6.246   1.501 -0.0007  0.0808 -0.5149
  130OSM    C1313865   1.744   6.505   1.604 -0.3630 -1.2363  0.6573
  130OSM   H13A13866   1.831   6.476   1.547  1.4995  0.3342  2.5164
  130OSM   H13B13867   1.777   6.571   1.683 -1.5601  0.6413 -0.3436
  130OSM   H13C13868   1.683   6.570   1.543 -1.9233  0.4019  3.7058
  130OSM    C1213869   1.741   6.323   1.759  0.4209 -0.1349 -0.1916
  130OSM   H12A13870   1.828   6.286   1.708  0.7306 -0.2356  0.4067
  130OSM   H12B13871   1.679   6.240   1.791  0.3505  1.2076  3.6152
  130OSM    C1113872   1.805   6.400   1.877  0.3517  0.2087  0.5086
  130OSM   H11A13873   1.824   6.331   1.962 -0.3156 -2.7838 -1.5985
  130OSM   H11B13874   1.732   6.476   1.912 -0.0999  1.0245 -1.9964
  130OSM      P13875   2.061   6.384   1.812  0.1435  0.2721 -0.1658
  130OSM    O1313876   2.035   6.271   1.722  0.3186 -0.4322 -0.0048
  130OSM    O1413877   2.169   6.475   1.774 -0.2734 -0.1811  0.0454
  130OSM    O1113878   2.098   6.310   1.942  0.0731  0.1005  0.0663
  130OSM    O1213879   1.926   6.456   1.834 -0.0147 -0.5923 -0.3175
  130OSM    C1S13880   2.128   6.369   2.069  0.1945  0.2775 -0.7682
  130OSM    H1S13881   2.044   6.428   2.111  0.1902  0.4041 -0.9516
  130OSM    H1T13882   2.210   6.443   2.067 -0.2085  0.7176 -1.3595
  130OSM     NF13883   2.194   6.316   2.306 -0.2915 -0.3816  0.5057
  130OSM    HNF13884   2.289   6.334   2.332 -0.2333  0.8430 -0.4664
  130OSM    C2S13885   2.155   6.259   2.173  0.1234  0.2455 -0.1082
  130OSM    H2S13886   2.059   6.204   2.178  1.3818 -2.1947 -1.0047
  130OSM    C3S13887   2.262   6.149   2.131  0.1181 -0.5494 -0.4660
  130OSM    H3S13888   2.357   6.202   2.109 -0.6470  1.1869  0.2178
  130OSM     O313889   2.227   6.081   2.014 -0.0178  0.3253  0.5607
  130OSM    HO313890   2.137   6.110   1.999  0.1403  0.8459  0.5934
  130OSM    C4S13891   2.279   6.053   2.252  0.2122  0.7492  0.3920
  130OSM    H4S13892   2.207   5.970   2.261  0.0935  0.7004 -0.8641
  130OSM    C5S13893   2.389   6.047   2.327 -0.3492  0.0370  0.2602
  130OSM    H5S13894   2.463   6.124   2.304  0.4077 -0.9985 -0.8651
  130OSM    C6S13895   2.425   5.952   2.440 -0.0311  0.2641 -0.6583
  130OSM    H6S13896   2.524   5.909   2.416 -0.5362 -0.6291 -1.1706
  130OSM    H6T13897   2.347   5.875   2.460 -1.3651  1.9765  1.2179
  130OSM    C7S13898   2.435   6.024   2.579 -0.4443 -0.2829  0.3039
  130OSM    H7S13899   2.516   6.099   2.567 -1.2613  0.5019 -0.3876
  130OSM    H7T13900   2.480   5.972   2.666  3.0555  0.5765 -0.8324
  130OSM    C8S13901   2.302   6.093   2.626  0.6164 -0.7244 -0.2940
  130OSM    H8S13902   2.223   6.015   2.622 -2.7816  2.4156  0.4676
  130OSM    H8T13903   2.270   6.153   2.539  0.0829 -2.1513 -1.1218
  130OSM    C9S13904   2.324   6.168   2.763  0.6973 -0.4852  0.3366
  130OSM    H9S13905   2.250   6.251   2.765  1.3443  0.1046  0.0463
  130OSM    H9T13906   2.422   6.220   2.771  0.6811 -0.6702  2.3001
  130OSM   C10S13907   2.311   6.068   2.884  0.1601 -0.1630 -0.0756
  130OSM   H10S13908   2.400   6.001   2.891  0.4410  0.3240  1.5652
  130OSM   H10T13909   2.214   6.018   2.863 -1.8948  2.5128  2.2796
  130OSM   C11S13910   2.299   6.129   3.024 -0.0207 -0.4055 -0.0799
  130OSM   H11S13911   2.204   6.187   3.023 -0.2079 -0.6520  1.3439
  130OSM   H11T13912   2.388   6.195   3.035 -0.6875  0.3257  1.2100
  130OSM   C12S13913   2.293   6.037   3.146 -0.5500 -0.0722 -0.5511
  130OSM   H12S13914   2.392   5.987   3.149 -1.0608 -1.0630  0.2716
  130OSM   H12T13915   2.225   5.950   3.135 -1.5644  0.4706  1.0325
  130OSM   C13S13916   2.274   6.108   3.277  0.3232  0.5528 -0.8669
  130OSM   H13S13917   2.182   6.171   3.275  0.2011  0.4551  0.5416
  130OSM   H13T13918   2.358   6.179   3.285 -0.9869  2.2745 -1.6876
  130OSM   C14S13919   2.273   6.013   3.398 -0.5241  0.2251  0.8660
  130OSM   H14S13920   2.344   5.930   3.379  0.2634  0.4988  2.4413
  130OSM   H14T13921   2.170   5.972   3.410 -0.6526  0.7424  1.6190
  130OSM   C15S13922   2.326   6.068   3.528  0.0002  0.3038 -0.5075
  130OSM   H15S13923   2.266   6.156   3.559  0.7676 -0.2543  3.0099
  130OSM   H15T13924   2.419   6.116   3.491  0.5106  0.0730  0.4518
  130OSM   C16S13925   2.356   5.969   3.633  0.6931 -0.3773 -0.9684
  130OSM   H16S13926   2.443   6.011   3.686  0.1074 -1.6138  1.0845
  130OSM   H16T13927   2.383   5.867   3.598  0.8592 -0.8234  0.3943
  130OSM   C17S13928   2.230   5.937   3.723 -0.4907  0.0749  0.0868
  130OSM   H17S13929   2.166   5.875   3.657  0.7775 -1.6289  0.3947
  130OSM   H17T13930   2.171   6.022   3.765 -0.7831 -1.3630  2.8544
  130OSM   C18S13931   2.282   5.848   3.842 -0.8639 -0.7336 -0.0436
  130OSM   H18S13932   2.361   5.912   3.889  0.3980 -0.3518 -2.5022
  130OSM   H18T13933   2.336   5.753   3.818  1.9535  0.2112  1.9702
  130OSM   H18U13934   2.199   5.829   3.912 -0.2067 -1.8126  0.4766
  130OSM    C1F13935   2.102   6.388   2.368 -0.1207 -0.1960  0.3401
  130OSM     OF13936   1.988   6.401   2.325  0.7763 -0.1448 -0.1723
  130OSM    C2F13937   2.145   6.448   2.503  0.3743 -0.9221 -0.3784
  130OSM    H2F13938   2.214   6.534   2.486  0.1897 -0.9687 -1.4163
  130OSM    H2G13939   2.202   6.367   2.553  0.0226 -1.8124 -1.4063
  130OSM    C3F13940   2.024   6.476   2.600 -0.7402  0.1537  0.1776
  130OSM    H3F13941   1.973   6.381   2.627  1.4305 -1.4145 -1.0154
  130OSM    H3G13942   1.956   6.541   2.541 -1.3639  0.5707  1.3183
  130OSM    C4F13943   2.057   6.553   2.727 -0.0584  0.3446  0.2419
  130OSM    H4F13944   1.958   6.565   2.776  0.3599  0.6694  1.0313
  130OSM    H4G13945   2.080   6.658   2.699 -1.3097  0.3083 -0.9785
  130OSM    C5F13946   2.155   6.485   2.827  0.1251  0.7403 -0.7917
  130OSM    H5F13947   2.256   6.488   2.780  0.2356 -1.4603 -0.7928
  130OSM    H5G13948   2.132   6.377   2.834 -2.2170  1.2651  0.4216
  130OSM    C6F13949   2.166   6.563   2.959 -0.2868  0.0549  0.3667
  130OSM    H6F13950   2.076   6.568   3.024 -0.1370  0.2192  0.5624
  130OSM    H6G13951   2.180   6.663   2.913 -0.8865 -0.5298 -1.1705
  130OSM    C7F13952   2.296   6.524   3.041  0.4576  0.3282  0.2908
  130OSM    H7F13953   2.386   6.566   2.991  1.2613 -1.0105  0.5653
  130OSM    H7G13954   2.321   6.416   3.035  0.8506  0.3211  1.7459
  130OSM    C8F13955   2.287   6.566   3.187  0.3882  0.0053 -0.2416
  130OSM    H8F13956   2.270   6.675   3.196  0.1297 -0.0910  0.4781
  130OSM    H8G13957   2.388   6.540   3.227 -0.2025  0.2103  1.4458
  130OSM    C9F13958   2.187   6.488   3.269 -0.8228  0.3291  0.2698
  130OSM    H9F13959   2.151   6.394   3.226  1.3768  0.5904 -2.3998
  130OSM   C10F13960   2.167   6.513   3.399  0.1505  0.2782  0.2349
  130OSM   H10F13961   2.088   6.457   3.450  0.2591  0.4765  0.6321
  130OSM   C11F13962   2.221   6.630   3.477 -0.5484  0.3744 -0.2566
  130OSM   H11F13963   2.146   6.663   3.552 -2.6332 -1.0041 -1.6172
  130OSM   H11G13964   2.244   6.709   3.402  3.2789 -2.2639 -2.2436
  130OSM   C12F13965   2.344   6.595   3.553 -0.2481  0.6929 -0.2736
  130OSM   H12F13966   2.389   6.685   3.600 -0.2047  0.4858  0.0912
  130OSM   H12G13967   2.410   6.550   3.476  0.1774  1.2858 -0.2599
  130OSM   C13F13968   2.312   6.490   3.666  0.0283 -0.2562  0.0308
  130OSM   H13F13969   2.259   6.403   3.620 -1.1256 -0.2555  1.2766
  130OSM   H13G13970   2.233   6.523   3.737  1.8072  0.6156  1.6664
  130OSM   C14F13971   2.435   6.426   3.732  0.4644 -0.7108 -0.1344
  130OSM   H14F13972   2.516   6.501   3.727 -1.5257  1.4969 -2.5136
  130OSM   H14G13973   2.473   6.354   3.656  0.6660  1.3149 -2.0750
  130OSM   C15F13974   2.400   6.372   3.870  0.2454 -0.9858 -0.5404
  130OSM   H15F13975   2.496   6.344   3.918 -0.1949 -0.0291  0.9635
  130OSM   H15G13976   2.340   6.281   3.845 -0.9984  0.3636 -2.8041
  130OSM   C16F13977   2.333   6.470   3.964  0.7021  0.2290 -0.3984
  130OSM   H16F13978   2.224   6.453   3.952  0.6808  1.0493 -1.4804
  130OSM   H16G13979   2.370   6.573   3.949  4.0625 -0.4190  2.0635
  130OSM   C17F13980   2.362   6.441   4.111  0.2616 -0.0445  0.4083
  130OSM   H17F13981   2.294   6.507   4.168 -1.9261 -0.4633 -1.5815
  130OSM   H17G13982   2.468   6.468   4.130 -0.8248  4.0817  1.6479
  130OSM   C18F13983   2.350   6.305   4.169  0.0142  0.3221  0.5726
  130OSM   H18F13984   2.406   6.241   4.097 -0.9131  1.4162 -1.2080
  130OSM   H18G13985   2.248   6.262   4.162 -0.1840  1.0094 -1.6939
  130OSM   H18H13986   2.390   6.294   4.272  2.1938 -1.5877 -0.3915
  131OSM      N13987   0.561   0.670   2.221 -0.5362 -0.4586  0.3754
  131OSM    C1513988   0.533   0.709   2.363 -0.1950  0.7739  0.3853
  131OSM   H15A13989   0.480   0.643   2.430  0.8789  0.9836  1.4791
  131OSM   H15B13990   0.470   0.797   2.359 -0.0133  0.8697 -0.5166
  131OSM   H15C13991   0.629   0.728   2.409 -0.8969  1.6423  1.5399
  131OSM    C1413992   0.634   0.539   2.225 -0.2171 -0.5710  0.3730
  131OSM   H14A13993   0.639   0.507   2.122 -2.3600  0.3700 -0.0955
  131OSM   H14B13994   0.573   0.460   2.265  0.3876 -0.9800  0.4965
  131OSM   H14C13995   0.724   0.543   2.285  0.3400 -0.9769 -0.4230
  131OSM    C1313996   0.421   0.638   2.164 -0.1708  0.1966 -0.4415
  131OSM   H13A13997   0.430   0.605   2.062  0.7033 -0.3823 -0.1890
  131OSM   H13B13998   0.374   0.734   2.178  1.6047  0.7537  2.5694
  131OSM   H13C13999   0.369   0.565   2.224  1.5220  1.5133  2.9295
  131OSM    C1214000   0.641   0.779   2.147 -0.2328 -0.0573 -0.3349
  131OSM   H12A14001   0.729   0.798   2.206  0.7059 -1.2392 -1.3136
  131OSM   H12B14002   0.588   0.872   2.156  0.3307  0.0612  3.9303
  131OSM    C1114003   0.688   0.747   2.006 -0.2602  0.0519  0.2198
  131OSM   H11A14004   0.721   0.836   1.948 -2.3151  0.5410 -0.2729
  131OSM   H11B14005   0.599   0.705   1.954 -0.8396 -0.4423  1.5555
  131OSM      P14006   0.947   0.675   2.045 -0.1740 -0.2346 -0.3530
  131OSM    O1314007   1.015   0.548   2.079 -0.3194  0.3620 -0.1422
  131OSM    O1414008   1.014   0.770   1.948  0.1458  0.3667  0.2692
  131OSM    O1114009   0.933   0.747   2.179  0.2516  0.1988 -0.2988
  131OSM    O1214010   0.788   0.645   2.011  0.0528  0.1504  0.2435
  131OSM    C1S14011   1.048   0.820   2.230  0.1037 -0.1646  0.1940
  131OSM    H1S14012   1.075   0.898   2.157 -0.0714 -2.0877 -2.0290
  131OSM    H1T14013   1.134   0.751   2.238  0.8468  0.5063 -1.5728
  131OSM     NF14014   1.157   0.926   2.414  0.2078 -0.4061  0.1594
  131OSM    HNF14015   1.224   0.873   2.466  1.2728 -0.3587 -1.1106
  131OSM    C2S14016   1.024   0.863   2.380 -0.1895 -0.2655 -0.5800
  131OSM    H2S14017   0.957   0.951   2.371  1.8018  1.6176  1.7911
  131OSM    C3S14018   0.977   0.749   2.464 -0.3018  0.1444  0.6066
  131OSM    H3S14019   1.055   0.670   2.463 -0.4066  0.0045  1.8385
  131OSM     O314020   0.864   0.670   2.420 -0.3813 -1.0532 -0.2409
  131OSM    HO314021   0.870   0.683   2.325  0.9154 -0.3564 -0.0803
  131OSM    C4S14022   0.954   0.793   2.600 -0.6950  0.7459 -0.9123
  131OSM    H4S14023   0.886   0.879   2.608  0.0692  1.5238 -2.3054
  131OSM    C5S14024   1.008   0.742   2.712 -0.1678 -0.6063 -0.0065
  131OSM    H5S14025   1.071   0.651   2.708 -0.1111 -0.5420 -0.8610
  131OSM    C6S14026   0.978   0.779   2.852  0.4678  0.1699 -0.3021
  131OSM    H6S14027   0.914   0.700   2.898  3.5355 -1.7825  0.9354
  131OSM    H6T14028   0.929   0.878   2.864 -0.0593  0.3023 -3.0677
  131OSM    C7S14029   1.096   0.790   2.945  0.2196 -0.2863 -0.1500
  131OSM    H7S14030   1.152   0.879   2.908 -1.4589  0.6311 -0.5885
  131OSM    H7T14031   1.159   0.699   2.933  2.2647  1.1042 -0.3737
  131OSM    C8S14032   1.060   0.807   3.089  0.0778  0.4715  0.3062
  131OSM    H8S14033   0.975   0.743   3.120  0.6140 -0.5391 -0.2375
  131OSM    H8T14034   1.015   0.907   3.104 -0.1176  0.6078 -1.0553
  131OSM    C9S14035   1.183   0.792   3.181 -0.0843  0.2220  0.0731
  131OSM    H9S14036   1.251   0.878   3.165 -0.6111  0.8039  0.8867
  131OSM    H9T14037   1.240   0.701   3.156  0.7503  0.4341  1.1762
  131OSM   C10S14038   1.142   0.795   3.331 -0.5855 -0.5121 -0.0422
  131OSM   H10S14039   1.230   0.765   3.393 -0.4776  0.7952  0.4713
  131OSM   H10T14040   1.059   0.725   3.353 -0.5314 -0.8985 -1.0547
  131OSM   C11S14041   1.114   0.945   3.379  0.4112  0.2215 -0.4917
  131OSM   H11S14042   1.038   0.990   3.312 -1.9196 -1.8745  0.6154
  131OSM   H11T14043   1.203   1.011   3.371 -1.0193  2.4320  0.8248
  131OSM   C12S14044   1.070   0.958   3.526  0.2323  0.7347  0.6012
  131OSM   H12S14045   1.162   0.932   3.582  0.1406 -2.3627 -0.5014
  131OSM   H12T14046   0.979   0.897   3.547 -2.1663  3.5311 -0.9054
  131OSM   C13S14047   1.015   1.095   3.546 -0.4565  0.0414  0.3697
  131OSM   H13S14048   0.929   1.115   3.479 -0.2679 -1.4954 -0.3755
  131OSM   H13T14049   1.089   1.175   3.525  0.6705 -0.7465  1.1909
  131OSM   C14S14050   0.968   1.125   3.692 -0.0794 -0.9270  0.4773
  131OSM   H14S14051   1.059   1.127   3.755  0.1855  0.6120  0.0956
  131OSM   H14T14052   0.892   1.052   3.728 -0.8825  0.1724  1.0875
  131OSM   C15S14053   0.918   1.268   3.701  0.0099 -0.8676 -1.3981
  131OSM   H15S14054   0.810   1.257   3.680 -0.4701 -2.9527  1.5962
  131OSM   H15T14055   0.959   1.338   3.625 -0.7642  0.6348 -0.4804
  131OSM   C16S14056   0.932   1.337   3.839 -0.1163  0.2222 -0.0772
  131OSM   H16S14057   1.036   1.370   3.856  0.2946 -1.7140  1.6093
  131OSM   H16T14058   0.925   1.261   3.919  0.2215 -0.2012 -0.4424
  131OSM   C17S14059   0.844   1.457   3.866  0.1080  0.5391 -0.8157
  131OSM   H17S14060   0.737   1.432   3.853  0.4716 -1.3941 -0.3797
  131OSM   H17T14061   0.863   1.533   3.787  0.4973  2.2833  0.8732
  131OSM   C18S14062   0.872   1.530   4.000 -0.8695 -0.5156 -0.1034
  131OSM   H18S14063   0.792   1.604   4.020 -0.9816 -0.4481 -0.7795
  131OSM   H18T14064   0.974   1.574   4.002 -0.1230 -2.0140  3.6310
  131OSM   H18U14065   0.874   1.454   4.081  0.8936  0.6057  0.9641
  131OSM    C1F14066   1.178   1.054   2.405 -0.2783 -1.0635  0.2027
  131OSM     OF14067   1.098   1.120   2.337 -0.5651 -0.4790 -0.5401
  131OSM    C2F14068   1.296   1.115   2.472  0.1989 -0.3480 -0.0098
  131OSM    H2F14069   1.350   1.157   2.385 -0.6025  1.3014  0.2449
  131OSM    H2G14070   1.362   1.034   2.508  0.5740 -0.9068 -1.8333
  131OSM    C3F14071   1.252   1.208   2.584 -0.2231  0.0143  0.0970
  131OSM    H3F14072   1.205   1.293   2.530  1.0683  0.3057 -0.6336
  131OSM    H3G14073   1.344   1.255   2.627 -0.5304  1.1939 -0.4879
  131OSM    C4F14074   1.154   1.156   2.684 -0.2520  0.2939 -0.6685
  131OSM    H4F14075   1.210   1.075   2.736  1.2925  0.6649 -1.6799
  131OSM    H4G14076   1.058   1.119   2.642 -0.9005  0.3833  0.6829
  131OSM    C5F14077   1.125   1.265   2.789  0.8547 -0.3991 -0.0517
  131OSM    H5F14078   1.125   1.364   2.739  1.0395 -0.8291 -0.9235
  131OSM    H5G14079   1.205   1.279   2.866 -0.2455 -1.0825  1.2642
  131OSM    C6F14080   0.994   1.236   2.867  0.2026  0.2536  0.1147
  131OSM    H6F14081   1.003   1.129   2.896  2.5557  0.3293 -0.0870
  131OSM    H6G14082   0.908   1.233   2.797  1.1427 -0.4825 -1.0489
  131OSM    C7F14083   0.965   1.327   2.995 -0.0995  0.2220 -0.0442
  131OSM    H7F14084   0.857   1.355   2.995  0.6771  4.1371  2.6548
  131OSM    H7G14085   1.013   1.426   2.978  0.5896  0.0687  0.9160
  131OSM    C8F14086   1.016   1.275   3.128  0.0515  0.6658  0.5172
  131OSM    H8F14087   1.124   1.251   3.117 -0.2471 -0.5974  0.1798
  131OSM    H8G14088   0.951   1.186   3.146  0.9745  0.0397  0.8490
  131OSM    C9F14089   1.006   1.370   3.242  0.7496  0.2437  0.4804
  131OSM    H9F14090   1.107   1.409   3.259  0.7170 -0.0590  1.4259
  131OSM   C10F14091   0.890   1.411   3.305 -0.8523  0.5237  0.3732
  131OSM   H10F14092   0.894   1.481   3.390 -1.0527 -0.6377  1.3653
  131OSM   C11F14093   0.745   1.367   3.288  0.6576 -0.3559 -0.1700
  131OSM   H11F14094   0.695   1.349   3.386  1.6794  0.5599  0.5558
  131OSM   H11G14095   0.743   1.266   3.244 -0.5212  0.1231 -1.2631
  131OSM   C12F14096   0.648   1.460   3.209  0.0207  0.2776  0.2270
  131OSM   H12F14097   0.677   1.468   3.102 -1.8018 -0.5231 -0.3727
  131OSM   H12G14098   0.658   1.563   3.248  2.6186  0.8663 -1.7069
  131OSM   C13F14099   0.501   1.413   3.216  0.4541 -0.0866  0.1213
  131OSM   H13F14100   0.443   1.507   3.203 -0.6793 -0.3028  2.8854
  131OSM   H13G14101   0.478   1.368   3.315  0.2186 -1.4484 -0.5331
  131OSM   C14F14102   0.463   1.317   3.104  0.3723 -0.3429 -0.4935
  131OSM   H14F14103   0.503   1.218   3.133  0.4974  0.4162  2.1543
  131OSM   H14G14104   0.505   1.349   3.006 -0.7828  2.5305 -0.1511
  131OSM   C15F14105   0.312   1.298   3.084  0.0113 -0.1325 -0.2870
  131OSM   H15F14106   0.267   1.384   3.030  1.0680  0.5126 -0.1496
  131OSM   H15G14107   0.263   1.288   3.183 -0.6525  0.6934 -0.5144
  131OSM   C16F14108   0.281   1.166   3.004 -0.9095  0.0175 -0.6108
  131OSM   H16F14109   0.318   1.082   3.067  0.4910  0.1413 -1.2326
  131OSM   H16G14110   0.342   1.167   2.911 -0.6489  0.5866 -0.4310
  131OSM   C17F14111   0.136   1.145   2.956 -0.0893  0.2428  0.4651
  131OSM   H17F14112   0.101   1.229   2.892 -2.6156 -0.6871  0.5263
  131OSM   H17G14113   0.073   1.128   3.046 -0.7301 -2.8173 -0.4650
  131OSM   C18F14114   0.117   1.011   2.877  0.3880 -0.2969 -0.0929
  131OSM   H18F14115   0.192   0.995   2.798 -0.7036 -2.3243 -0.7763
  131OSM   H18G14116   0.015   1.013   2.832  0.3017 -2.8953 -0.1230
  131OSM   H18H14117   0.138   0.930   2.949  1.0933 -0.1674 -0.1474
  132OSM      N14118   0.160   3.787   1.894  0.4408 -0.2731  0.2499
  132OSM    C1514119   0.235   3.886   1.820  0.5535 -0.7531  0.2607
  132OSM   H15A14120   0.275   3.848   1.727  0.2293  1.9338 -1.0815
  132OSM   H15B14121   0.318   3.924   1.878  0.1698  0.7178 -0.1000
  132OSM   H15C14122   0.168   3.969   1.802  0.2207 -0.4882  2.4319
  132OSM    C1414123   0.045   3.736   1.810  0.1788 -0.0770  0.2792
  132OSM   H14A14124  -0.033   3.810   1.799  0.1306  0.2469  2.4397
  132OSM   H14B14125  -0.008   3.672   1.879  2.4491  0.4846  2.7355
  132OSM   H14C14126   0.075   3.694   1.715  0.4133  1.7873 -0.5102
  132OSM    C1314127   0.254   3.670   1.905  0.4634  0.0293 -0.1554
  132OSM   H13A14128   0.195   3.592   1.950  0.4793  0.9170  1.4598
  132OSM   H13B14129   0.325   3.696   1.982 -0.4581  1.8430  0.1372
  132OSM   H13C14130   0.299   3.638   1.812 -0.3886 -3.8108  0.5549
  132OSM    C1214131   0.120   3.842   2.025 -0.1541  0.3750 -0.6555
  132OSM   H12A14132   0.046   3.920   2.018  1.4490  1.9820 -0.5728
  132OSM   H12B14133   0.204   3.895   2.068 -0.0802  0.8857 -1.3954
  132OSM    C1114134   0.077   3.746   2.135  0.7326 -0.0161 -0.0413
  132OSM   H11A14135   0.042   3.802   2.223  1.7866  0.2651  0.2148
  132OSM   H11B14136   0.176   3.701   2.161 -0.0375 -1.1372  1.0338
  132OSM      P14137  -0.007   3.506   2.116 -0.5849 -0.3276 -0.0660
  132OSM    O1314138  -0.138   3.455   2.135  0.6035 -0.1697  0.1461
  132OSM    O1414139   0.075   3.443   2.009 -0.7164 -0.1005 -0.8922
  132OSM    O1114140   0.060   3.504   2.256 -0.4573 -0.5565  0.1162
  132OSM    O1214141  -0.026   3.663   2.085 -0.0882  0.0606  1.0368
  132OSM    C1S14142   0.046   3.380   2.335  0.3515  0.3035 -0.9313
  132OSM    H1S14143   0.118   3.305   2.295 -0.9173 -0.8237 -1.1602
  132OSM    H1T14144  -0.048   3.322   2.330  0.1105  0.3924  1.5671
  132OSM     NF14145   0.102   3.287   2.564  0.0722  0.2450 -0.0702
  132OSM    HNF14146   0.025   3.243   2.611  2.3982 -2.1602  1.7808
  132OSM    C2S14147   0.079   3.410   2.489  0.5404  0.7299 -0.3519
  132OSM    H2S14148   0.178   3.461   2.488  1.3133 -0.7335 -1.1671
  132OSM    C3S14149  -0.027   3.501   2.555  0.3381  0.0206  0.2329
  132OSM    H3S14150  -0.124   3.449   2.540 -0.4314  0.2726  3.5062
  132OSM     O314151  -0.057   3.619   2.477  0.8647 -0.3892  0.1707
  132OSM    HO314152  -0.007   3.612   2.396 -1.9185 -2.2850 -1.5678
  132OSM    C4S14153   0.002   3.523   2.698  0.5147 -0.0145 -0.2244
  132OSM    H4S14154  -0.028   3.435   2.758  2.0220 -1.0053 -0.8677
  132OSM    C5S14155   0.067   3.619   2.761 -0.4604  0.1621 -0.1401
  132OSM    H5S14156   0.091   3.714   2.712 -0.6102 -0.0972 -0.7308
  132OSM    C6S14157   0.105   3.610   2.909  0.4040  0.3080  0.4004
  132OSM    H6S14158   0.204   3.650   2.940  0.6003  0.5337 -0.5066
  132OSM    H6T14159   0.096   3.508   2.952  0.0451  0.9105  1.8212
  132OSM    C7S14160   0.013   3.694   3.002 -0.7511  0.9247  0.0986
  132OSM    H7S14161  -0.090   3.654   2.991 -0.1961 -0.9371  1.2636
  132OSM    H7T14162   0.003   3.801   2.971  3.7893  1.9476  1.3962
  132OSM    C8S14163   0.059   3.686   3.155 -0.3893 -0.3280  0.4355
  132OSM    H8S14164  -0.017   3.736   3.219 -0.9249  2.4270 -2.0838
  132OSM    H8T14165   0.154   3.742   3.164  0.3231 -1.4497  0.0304
  132OSM    C9S14166   0.083   3.548   3.210 -0.4845 -0.4560  0.1196
  132OSM    H9S14167   0.172   3.513   3.154 -1.7742 -0.2599 -2.1711
  132OSM    H9T14168   0.007   3.473   3.179  1.2176 -0.9961 -3.1842
  132OSM   C10S14169   0.118   3.545   3.362  0.3929 -0.1671  0.3693
  132OSM   H10S14170   0.132   3.438   3.387  1.3005 -0.1199  0.1035
  132OSM   H10T14171   0.032   3.592   3.414  0.4002  1.0243 -0.6330
  132OSM   C11S14172   0.240   3.625   3.408  0.5086  0.0404  0.7706
  132OSM   H11S14173   0.236   3.728   3.368 -0.8181 -0.3207 -0.1173
  132OSM   H11T14174   0.338   3.585   3.374  0.1287  0.8417 -1.4270
  132OSM   C12S14175   0.243   3.640   3.562  0.9814  0.3182 -0.7259
  132OSM   H12S14176   0.164   3.707   3.603  0.2489 -0.9888  0.0808
  132OSM   H12T14177   0.341   3.690   3.572  0.6951  0.9384 -0.9042
  132OSM   C13S14178   0.241   3.516   3.644 -0.7001  0.1182 -1.0267
  132OSM   H13S14179   0.340   3.468   3.629 -1.5861 -2.7769  1.3240
  132OSM   H13T14180   0.159   3.447   3.614  0.0360 -0.0103 -2.9260
  132OSM   C14S14181   0.227   3.554   3.788  0.0853  0.3755 -0.3815
  132OSM   H14S14182   0.206   3.456   3.837 -0.4471 -0.3814 -2.0190
  132OSM   H14T14183   0.136   3.616   3.799 -0.6581 -0.8014  0.3189
  132OSM   C15S14184   0.348   3.626   3.858 -0.4770 -0.2142  1.0267
  132OSM   H15S14185   0.353   3.729   3.817 -0.1426  0.3714  2.4724
  132OSM   H15T14186   0.439   3.569   3.832 -0.6528 -1.4118  2.9057
  132OSM   C16S14187   0.345   3.628   4.009 -0.4871  0.0359  0.0250
  132OSM   H16S14188   0.333   3.525   4.046 -1.0938  0.2824  0.5274
  132OSM   H16T14189   0.260   3.695   4.036  0.6126  1.2400  0.6041
  132OSM   C17S14190   0.479   3.692   4.066  0.0688 -0.0207 -0.7254
  132OSM   H17S14191   0.498   3.792   4.021  2.4235  0.2647  0.7403
  132OSM   H17T14192   0.559   3.622   4.033  0.5489 -0.3867  1.0992
  132OSM   C18S14193   0.482   3.712   4.219  0.5439 -0.0835  1.0870
  132OSM   H18S14194   0.460   3.614   4.264  0.3040 -1.7614 -2.3648
  132OSM   H18T14195   0.405   3.783   4.254 -0.0388 -0.5167  0.6966
  132OSM   H18U14196   0.578   3.753   4.259 -0.5621  1.0322  2.7433
  132OSM    C1F14197   0.210   3.211   2.547 -0.4160  0.1553  0.4667
  132OSM     OF14198   0.286   3.235   2.450  0.0936  0.6043  0.3226
  132OSM    C2F14199   0.242   3.104   2.647  0.4676  0.0249 -0.0812
  132OSM    H2F14200   0.345   3.065   2.632  0.6645  0.5931 -0.2525
  132OSM    H2G14201   0.170   3.023   2.620 -1.4763  1.9585 -0.9812
  132OSM    C3F14202   0.249   3.153   2.794 -0.3053 -0.1361 -0.1083
  132OSM    H3F14203   0.267   3.071   2.867  2.2268  1.0808  0.7436
  132OSM    H3G14204   0.149   3.195   2.819 -0.6840 -0.1650 -1.4817
  132OSM    C4F14205   0.346   3.269   2.819  0.2884  0.0129  0.2973
  132OSM    H4F14206   0.302   3.352   2.760 -0.4354 -2.1442 -2.4308
  132OSM    H4G14207   0.448   3.242   2.783  1.3241  0.8852  2.4278
  132OSM    C5F14208   0.359   3.320   2.967 -0.1363 -0.2515 -0.4066
  132OSM    H5F14209   0.404   3.235   3.023 -0.8717 -0.1901  0.3020
  132OSM    H5G14210   0.254   3.323   3.004 -0.6117  1.2611 -1.7686
  132OSM    C6F14211   0.428   3.456   2.996  0.1471 -0.0808 -0.1586
  132OSM    H6F14212   0.384   3.494   3.090  2.1831 -1.4988  1.4629
  132OSM    H6G14213   0.419   3.530   2.914 -1.9722  0.9034  0.8863
  132OSM    C7F14214   0.574   3.434   3.027 -0.2055  0.8090 -0.2818
  132OSM    H7F14215   0.623   3.403   2.932 -0.5894 -0.4962 -0.0768
  132OSM    H7G14216   0.587   3.342   3.088 -2.4527  0.3162 -0.4762
  132OSM    C8F14217   0.642   3.554   3.089 -0.3582  0.0569 -0.7482
  132OSM    H8F14218   0.559   3.617   3.128  0.0579  0.1713 -0.0418
  132OSM    H8G14219   0.682   3.618   3.007  2.6642 -0.3239  0.2931
  132OSM    C9F14220   0.753   3.531   3.192  0.1130 -0.8299 -0.0604
  132OSM    H9F14221   0.858   3.530   3.160  1.4959  1.8906  3.7141
  132OSM   C10F14222   0.751   3.506   3.325  0.0662  0.3551  0.7442
  132OSM   H10F14223   0.842   3.501   3.386  0.3550  1.1028  0.3921
  132OSM   C11F14224   0.617   3.503   3.407 -0.6121  0.8580 -0.0859
  132OSM   H11F14225   0.537   3.495   3.330 -0.0508 -2.3145 -0.4458
  132OSM   H11G14226   0.605   3.594   3.470 -0.7577  1.0283 -0.3518
  132OSM   C12F14227   0.615   3.390   3.511 -0.5466  0.3641  0.0221
  132OSM   H12F14228   0.624   3.295   3.454  2.2797  1.2721 -1.2614
  132OSM   H12G14229   0.515   3.391   3.558 -0.8583 -3.4322 -0.2288
  132OSM   C13F14230   0.724   3.410   3.625 -0.2515 -0.2339 -0.4614
  132OSM   H13F14231   0.714   3.514   3.664 -0.9628 -1.9777  4.6952
  132OSM   H13G14232   0.826   3.400   3.581  0.0653  2.3213 -0.4780
  132OSM   C14F14233   0.694   3.317   3.738 -0.7906  0.7693 -1.0647
  132OSM   H14F14234   0.684   3.213   3.700 -2.1923  0.7250 -0.6085
  132OSM   H14G14235   0.594   3.345   3.776 -0.2055  1.4026  0.0738
  132OSM   C15F14236   0.789   3.331   3.860 -0.5661 -0.0442  0.7723
  132OSM   H15F14237   0.765   3.430   3.904  1.0658  1.1431 -0.8492
  132OSM   H15G14238   0.897   3.339   3.834 -0.6002  2.3447  1.0951
  132OSM   C16F14239   0.783   3.217   3.965  0.1209  0.5768  0.0731
  132OSM   H16F14240   0.820   3.124   3.919 -1.7942  0.6205 -1.7056
  132OSM   H16G14241   0.678   3.193   3.991 -0.1233 -0.9115 -2.0535
  132OSM   C17F14242   0.859   3.257   4.093 -0.6264  0.4591 -0.5333
  132OSM   H17F14243   0.846   3.367   4.101  2.1091  0.9114 -1.1988
  132OSM   H17G14244   0.968   3.236   4.083 -0.4310  0.2685  1.4884
  132OSM   C18F14245   0.823   3.174   4.225 -0.1416  0.5454  0.7081
  132OSM   H18F14246   0.721   3.201   4.259 -0.4276  0.3782 -0.0038
  132OSM   H18G14247   0.901   3.205   4.298  1.5425  1.2231 -1.2791
  132OSM   H18H14248   0.832   3.065   4.209  0.9362  0.8241 -0.7798
  133OSM      N14249   0.376   2.780   2.123  0.0665  0.1097 -0.0478
  133OSM    C1514250   0.449   2.746   2.242  0.3463  0.1875 -0.5322
  133OSM   H15A14251   0.385   2.771   2.326  0.9915  4.3589 -1.0412
  133OSM   H15B14252   0.541   2.799   2.262  0.3403  0.6817 -1.7350
  133OSM   H15C14253   0.476   2.642   2.237  0.2133  0.0746  0.8086
  133OSM    C1414254   0.479   2.768   2.008  0.4333  1.0103 -0.6004
  133OSM   H14A14255   0.522   2.672   1.986  1.3997  1.8398 -2.5760
  133OSM   H14B14256   0.566   2.823   2.039 -0.0722  0.2217  2.5261
  133OSM   H14C14257   0.431   2.811   1.921 -0.2954  2.3144  0.4121
  133OSM    C1314258   0.272   2.678   2.102  0.0836  0.2606 -0.0953
  133OSM   H13A14259   0.205   2.714   2.025  0.5292  1.1499 -0.0813
  133OSM   H13B14260   0.208   2.667   2.188 -0.5753  0.1897 -0.5816
  133OSM   H13C14261   0.308   2.579   2.079  1.6600  0.1071  2.6200
  133OSM    C1214262   0.322   2.925   2.139  0.0969 -0.1585  0.0312
  133OSM   H12A14263   0.266   2.943   2.049  0.6516  0.2126 -0.2392
  133OSM   H12B14264   0.398   3.001   2.146  0.9772 -0.8065 -1.9092
  133OSM    C1114265   0.222   2.951   2.263 -0.6589  0.7006  0.1987
  133OSM   H11A14266   0.219   3.060   2.280 -2.6424  0.7719 -0.3777
  133OSM   H11B14267   0.277   2.906   2.348  0.3816  1.2311 -0.1776
  133OSM      P14268  -0.015   2.947   2.149 -0.0977  0.3880  0.0162
  133OSM    O1314269   0.047   3.040   2.050  0.8548  0.1494  0.4225
  133OSM    O1414270  -0.062   2.822   2.091  0.3013 -0.1593 -1.1880
  133OSM    O1114271  -0.126   3.004   2.242  0.4169 -0.6339 -0.4441
  133OSM    O1214272   0.091   2.897   2.254 -0.9009  0.4462  0.4369
  133OSM    C1S14273  -0.115   2.995   2.387  0.4028  0.2589  0.2160
  133OSM    H1S14274  -0.063   3.088   2.421 -1.0629  1.4081 -0.5401
  133OSM    H1T14275  -0.065   2.905   2.426 -3.2390 -2.7527 -1.4190
  133OSM     NF14276  -0.245   2.993   2.609 -0.1732 -0.3447  0.1648
  133OSM    HNF14277  -0.296   2.918   2.650 -1.6919  0.1827 -0.6823
  133OSM    C2S14278  -0.250   3.004   2.463  0.3125  0.0614 -0.0244
  133OSM    H2S14279  -0.280   3.109   2.441 -1.9358 -0.3167  0.8946
  133OSM    C3S14280  -0.361   2.913   2.397  0.1727 -0.1100 -0.7586
  133OSM    H3S14281  -0.334   2.806   2.408  0.5684  0.0540 -0.0277
  133OSM     O314282  -0.390   2.944   2.259 -0.0389 -0.0629 -0.0445
  133OSM    HO314283  -0.307   2.969   2.218 -1.1340 -0.4296 -2.7164
  133OSM    C4S14284  -0.492   2.931   2.475 -0.4742  0.0715  0.1568
  133OSM    H4S14285  -0.490   2.869   2.566  0.7992 -0.8074 -0.4225
  133OSM    C5S14286  -0.596   3.006   2.456  0.2087 -0.3338 -0.0962
  133OSM    H5S14287  -0.605   3.063   2.363 -0.2419 -1.7551 -0.9513
  133OSM    C6S14288  -0.719   3.018   2.552  0.2751  0.3384 -0.1869
  133OSM    H6S14289  -0.799   2.961   2.500 -1.9930  1.6161  1.7340
  133OSM    H6T14290  -0.751   3.124   2.554  2.4739  1.0458 -0.1931
  133OSM    C7S14291  -0.700   2.970   2.704  0.1653  0.3765  0.5651
  133OSM    H7S14292  -0.625   3.031   2.759 -0.5262  1.7736 -0.0089
  133OSM    H7T14293  -0.659   2.867   2.712  0.9047  0.7259  1.4582
  133OSM    C8S14294  -0.833   2.981   2.782  0.2721  0.3652 -0.2378
  133OSM    H8S14295  -0.909   2.937   2.714 -1.0735  0.9078  0.8621
  133OSM    H8T14296  -0.861   3.088   2.792 -2.2670 -0.3434  1.1342
  133OSM    C9S14297  -0.828   2.910   2.923  0.6134 -0.6558 -0.2114
  133OSM    H9S14298  -0.750   2.955   2.987 -0.0752 -2.0335  1.6786
  133OSM    H9T14299  -0.810   2.801   2.908 -0.1795 -0.4314 -3.5406
  133OSM   C10S14300  -0.954   2.943   3.000  0.3725  0.0150 -0.4923
  133OSM   H10S14301  -1.044   2.901   2.951  0.4848 -0.0852 -0.6100
  133OSM   H10T14302  -0.975   3.052   2.986 -1.7155 -0.4310 -1.3012
  133OSM   C11S14303  -0.932   2.908   3.149 -0.2269 -0.0009  0.1645
  133OSM   H11S14304  -0.858   2.971   3.202  0.2446 -0.5829  0.2097
  133OSM   H11T14305  -0.890   2.805   3.153 -1.0844 -0.3180  1.7151
  133OSM   C12S14306  -1.055   2.907   3.244  0.3253 -0.1283  0.2775
  133OSM   H12S14307  -1.124   2.824   3.217  0.5290 -1.0104  2.2381
  133OSM   H12T14308  -1.109   3.002   3.227 -0.9413 -0.8623  0.0394
  133OSM   C13S14309  -1.007   2.910   3.386  0.1845  0.1577 -1.0713
  133OSM   H13S14310  -0.946   2.996   3.419  2.5362 -1.8299  0.0660
  133OSM   H13T14311  -0.938   2.824   3.395  1.2417  1.1402  0.7323
  133OSM   C14S14312  -1.129   2.888   3.491 -0.1890  0.6153 -0.1682
  133OSM   H14S14313  -1.204   2.817   3.449 -1.4819  1.0980  1.2762
  133OSM   H14T14314  -1.181   2.986   3.496 -1.5379 -0.1062  0.7630
  133OSM   C15S14315  -1.096   2.829   3.628 -0.0156 -0.0425  0.2163
  133OSM   H15S14316  -1.049   2.729   3.627  1.4253  0.5403  2.3499
  133OSM   H15T14317  -1.193   2.834   3.682 -0.3100  1.6051 -0.3905
  133OSM   C16S14318  -0.993   2.914   3.697 -0.1414 -0.6386  0.1713
  133OSM   H16S14319  -1.025   3.020   3.691  2.7743  0.2445 -1.8058
  133OSM   H16T14320  -0.888   2.905   3.662  0.0155 -2.1725  0.9255
  133OSM   C17S14321  -0.974   2.864   3.840  0.1193 -0.4262 -0.0864
  133OSM   H17S14322  -0.933   2.761   3.843 -1.5000 -1.0742  2.2605
  133OSM   H17T14323  -1.073   2.854   3.889  0.6662 -0.4108  1.0740
  133OSM   C18S14324  -0.894   2.969   3.913 -0.0415  0.1742  0.5631
  133OSM   H18S14325  -0.880   2.936   4.019 -2.7843  0.4671  1.0898
  133OSM   H18T14326  -0.961   3.057   3.920 -1.4480 -0.9054  1.3557
  133OSM   H18U14327  -0.809   3.003   3.851 -1.0899 -2.9993 -2.9996
  133OSM    C1F14328  -0.178   3.074   2.688 -0.4711  0.6079 -0.0520
  133OSM     OF14329  -0.135   3.183   2.657 -0.2526 -0.2378  0.4531
  133OSM    C2F14330  -0.150   3.007   2.821  0.5133 -0.2314 -0.4348
  133OSM    H2F14331  -0.051   2.956   2.818  1.2386  1.1469 -1.0660
  133OSM    H2G14332  -0.220   2.922   2.841 -0.5772  0.5863 -0.6833
  133OSM    C3F14333  -0.145   3.103   2.937 -0.5017  0.2925 -0.4743
  133OSM    H3F14334  -0.246   3.149   2.950 -1.0828 -0.3185 -2.4567
  133OSM    H3G14335  -0.069   3.184   2.930  1.6809 -1.5116  0.9129
  133OSM    C4F14336  -0.115   3.033   3.073  0.1316 -0.0091 -0.2173
  133OSM    H4F14337  -0.078   2.931   3.048  0.0521 -0.1208  0.1187
  133OSM    H4G14338  -0.199   3.015   3.144  0.6488  1.0724  0.6943
  133OSM    C5F14339  -0.007   3.117   3.145 -0.4791  0.4196 -0.3694
  133OSM    H5F14340  -0.047   3.220   3.138 -1.4814  0.0732  0.0057
  133OSM    H5G14341   0.090   3.109   3.091 -1.7700  1.5106 -3.0597
  133OSM    C6F14342   0.019   3.093   3.295 -0.1176 -0.3622 -0.3162
  133OSM    H6F14343   0.106   3.156   3.323 -0.7511  1.0789 -1.4463
  133OSM    H6G14344   0.033   2.989   3.329  1.1423 -0.3655 -0.8105
  133OSM    C7F14345  -0.098   3.142   3.384 -0.7499  0.1784 -0.5668
  133OSM    H7F14346  -0.180   3.068   3.386 -0.1792 -0.4732  2.0829
  133OSM    H7G14347  -0.129   3.245   3.354  2.4506  0.9705 -1.5273
  133OSM    C8F14348  -0.051   3.147   3.530 -0.2391  0.8068  0.2144
  133OSM    H8F14349  -0.133   3.177   3.599  1.4022  1.7582  1.8335
  133OSM    H8G14350   0.023   3.228   3.544 -0.5533  1.4654 -1.6512
  133OSM    C9F14351  -0.002   3.012   3.583 -0.2492  0.7106  0.5027
  133OSM    H9F14352  -0.073   2.928   3.582 -0.2592  0.7221 -0.4636
  133OSM   C10F14353   0.114   3.001   3.652 -0.3557  0.1654 -0.5866
  133OSM   H10F14354   0.126   2.899   3.692 -0.1113  0.4178  0.0007
  133OSM   C11F14355   0.215   3.111   3.658 -0.1267  0.9387 -0.0027
  133OSM   H11F14356   0.204   3.170   3.752  0.0016 -1.3285  1.5212
  133OSM   H11G14357   0.226   3.176   3.569 -2.5429 -1.1942 -2.0182
  133OSM   C12F14358   0.357   3.033   3.672  0.3997  0.2912 -0.5818
  133OSM   H12F14359   0.367   2.958   3.754  2.2805 -0.2535 -1.2696
  133OSM   H12G14360   0.437   3.106   3.697  0.8195 -1.2439  3.2031
  133OSM   C13F14361   0.410   2.962   3.546 -0.3243  0.2680  0.1055
  133OSM   H13F14362   0.346   2.878   3.512 -0.3357  0.4601 -0.3537
  133OSM   H13G14363   0.512   2.924   3.569 -0.1050 -0.3478 -1.7012
  133OSM   C14F14364   0.417   3.049   3.417 -0.3425  0.3544  0.9749
  133OSM   H14F14365   0.481   3.133   3.451  2.0011 -0.7529 -0.3931
  133OSM   H14G14366   0.316   3.074   3.380  0.0685 -0.0823 -0.5361
  133OSM   C15F14367   0.489   2.972   3.306 -0.3183  0.1363 -0.4097
  133OSM   H15F14368   0.436   2.878   3.278 -0.9516  0.4313 -0.2089
  133OSM   H15G14369   0.590   2.944   3.342 -0.2569  0.9610  0.0711
  133OSM   C16F14370   0.498   3.056   3.180 -0.4600 -0.1137  0.0987
  133OSM   H16F14371   0.535   3.159   3.203 -1.5291  0.0281  1.3058
  133OSM   H16G14372   0.398   3.068   3.133 -0.2162 -1.2973 -0.7675
  133OSM   C17F14373   0.603   3.005   3.088 -0.4757  1.0334 -0.3076
  133OSM   H17F14374   0.594   3.066   2.995 -1.1198  0.6596 -0.5017
  133OSM   H17G14375   0.565   2.904   3.062 -1.7836  1.1438  1.0553
  133OSM   C18F14376   0.750   3.000   3.128 -0.4613  0.2970 -0.2270
  133OSM   H18F14377   0.765   2.924   3.208  0.9844 -0.5106 -1.2385
  133OSM   H18G14378   0.788   3.092   3.178 -1.0274 -0.0162  0.8177
  133OSM   H18H14379   0.810   2.986   3.037 -1.7065 -0.2005 -1.0006
  134OSM      N14380   2.953   1.475   1.927 -0.8689 -0.3330  0.3688
  134OSM    C1514381   2.844   1.373   1.950 -0.6331 -0.0488 -0.3525
  134OSM   H15A14382   2.795   1.396   2.043  0.5318  0.7811  0.0806
  134OSM   H15B14383   2.886   1.273   1.947  0.6395  0.4863 -1.8677
  134OSM   H15C14384   2.767   1.382   1.876 -0.3852 -0.6901 -0.6988
  134OSM    C1414385   2.903   1.616   1.885  1.0320  0.2680  0.2613
  134OSM   H14A14386   2.976   1.695   1.882  0.3198  0.9035 -1.2978
  134OSM   H14B14387   2.831   1.646   1.960  0.8834  0.5156  0.0186
  134OSM   H14C14388   2.845   1.618   1.794 -1.3786  0.3604  1.6919
  134OSM    C1314389   3.020   1.502   2.056  0.1384 -0.1422  0.2058
  134OSM   H13A14390   3.094   1.581   2.049 -1.1201  0.9679 -4.5939
  134OSM   H13B14391   3.071   1.413   2.088  1.1873  0.4959  0.3514
  134OSM   H13C14392   2.949   1.537   2.129 -0.1439  1.0553 -0.6030
  134OSM    C1214393   3.055   1.426   1.826 -0.6640  0.6681  0.3480
  134OSM   H12A14394   3.102   1.505   1.770  1.6913 -0.9495 -0.1379
  134OSM   H12B14395   3.003   1.372   1.748  1.0584  2.6881 -2.3922
  134OSM    C1114396   3.167   1.327   1.880 -0.2868  0.3825 -0.2384
  134OSM   H11A14397   3.223   1.376   1.962 -0.4930  0.1466  0.0480
  134OSM   H11B14398   3.245   1.308   1.804  0.4336  0.2556  0.5126
  134OSM      P14399   3.184   1.092   1.980  0.1032  0.1142 -0.0286
  134OSM    O1314400   3.087   0.994   2.032 -0.9037 -0.3404  0.4971
  134OSM    O1414401   3.281   1.042   1.876  0.3499 -0.2057  0.0592
  134OSM    O1114402   3.275   1.161   2.092  0.0425 -0.1782  0.3531
  134OSM    O1214403   3.104   1.212   1.922 -0.3271 -0.2063  0.3141
  134OSM    C1S14404   3.217   1.188   2.224 -0.3936 -0.3648 -0.7123
  134OSM    H1S14405   3.107   1.179   2.230 -0.5766 -0.7658 -3.4089
  134OSM    H1T14406   3.240   1.296   2.243 -0.2221 -0.3284 -1.1197
  134OSM     NF14407   3.215   1.148   2.460 -0.4332 -0.1646  0.0152
  134OSM    HNF14408   3.255   1.216   2.521 -0.3342  0.8837 -1.1868
  134OSM    C2S14409   3.292   1.120   2.342  0.4415  0.0812  0.0452
  134OSM    H2S14410   3.285   1.009   2.333  0.4280  0.0153  0.7660
  134OSM    C3S14411   3.441   1.162   2.337 -0.4788  0.0100  0.9016
  134OSM    H3S14412   3.446   1.272   2.352 -0.0348  0.1031  0.1414
  134OSM     O314413   3.505   1.150   2.204  0.0226 -0.0147 -0.7412
  134OSM    HO314414   3.431   1.151   2.143  0.1759  2.5311 -0.9815
  134OSM    C4S14415   3.526   1.094   2.434  0.7638  0.5578  0.4266
  134OSM    H4S14416   3.544   0.988   2.411  2.3962  1.4683 -3.3791
  134OSM    C5S14417   3.605   1.143   2.524 -0.6692 -0.2919  0.0037
  134OSM    H5S14418   3.620   1.252   2.521 -0.5257 -0.3214 -0.3547
  134OSM    C6S14419   3.711   1.063   2.599 -0.0060  0.1225 -0.5542
  134OSM    H6S14420   3.783   1.133   2.648  2.2560 -2.2278 -0.3200
  134OSM    H6T14421   3.767   0.997   2.529 -0.0706  0.5837 -1.0546
  134OSM    C7S14422   3.649   0.980   2.711 -0.1479  0.1509 -0.2718
  134OSM    H7S14423   3.595   0.896   2.661 -1.2947  0.0691  1.0383
  134OSM    H7T14424   3.570   1.026   2.773 -0.1827 -0.1047 -0.1238
  134OSM    C8S14425   3.756   0.918   2.801 -0.2328  0.3253  0.4087
  134OSM    H8S14426   3.803   1.007   2.848  0.8180  0.4174 -0.7660
  134OSM    H8T14427   3.834   0.873   2.736 -0.7186  1.6779 -1.1956
  134OSM    C9S14428   3.701   0.830   2.910  0.0485  0.9431  0.4080
  134OSM    H9S14429   3.657   0.735   2.871  2.2235 -0.4736  1.1816
  134OSM    H9T14430   3.633   0.885   2.979 -3.0119  0.7203 -2.1965
  134OSM   C10S14431   3.811   0.787   3.010  0.4825 -0.2276 -0.1326
  134OSM   H10S14432   3.854   0.881   3.052 -0.0771  0.2786 -0.6744
  134OSM   H10T14433   3.883   0.732   2.946 -1.6018 -1.5028 -1.4629
  134OSM   C11S14434   3.754   0.717   3.139  0.4644 -0.3149  0.5599
  134OSM   H11S14435   3.720   0.625   3.086  0.7637  0.0154 -0.2261
  134OSM   H11T14436   3.665   0.769   3.180  0.8212  0.0104  0.9314
  134OSM   C12S14437   3.854   0.686   3.245  0.3638  0.2579 -0.2317
  134OSM   H12S14438   3.905   0.772   3.293 -0.3385  0.6716 -0.2255
  134OSM   H12T14439   3.930   0.621   3.195 -0.6134 -1.5396  0.5122
  134OSM   C13S14440   3.789   0.605   3.357  1.0325  0.2244  0.1541
  134OSM   H13S14441   3.864   0.542   3.408  0.3785 -1.0017 -0.3568
  134OSM   H13T14442   3.705   0.537   3.332  0.6288  0.1396  1.6477
  134OSM   C14S14443   3.749   0.693   3.474  0.1919 -0.8265 -0.2819
  134OSM   H14S14444   3.679   0.767   3.429 -0.0056 -0.9233 -0.1389
  134OSM   H14T14445   3.836   0.753   3.508 -1.5725  1.9121 -0.3319
  134OSM   C15S14446   3.692   0.633   3.603 -0.4140  0.4259  0.7267
  134OSM   H15S14447   3.592   0.589   3.580 -0.1796  0.2092  0.0831
  134OSM   H15T14448   3.681   0.712   3.680  1.2126  1.1160  0.2887
  134OSM   C16S14449   3.782   0.527   3.670 -0.1664 -0.0696 -0.1635
  134OSM   H16S14450   3.881   0.569   3.694  0.3580 -2.0357  1.4367
  134OSM   H16T14451   3.787   0.438   3.603  0.2061 -1.3821  1.5249
  134OSM   C17S14452   3.750   0.479   3.814  0.2155 -0.5957 -0.3599
  134OSM   H17S14453   3.780   0.376   3.841 -1.6279 -0.9873  0.3671
  134OSM   H17T14454   3.639   0.491   3.815  0.3784  1.3588 -0.2800
  134OSM   C18S14455   3.796   0.582   3.923 -0.0190 -0.2367 -0.0829
  134OSM   H18S14456   3.726   0.579   4.009 -1.7972  0.8065 -1.4165
  134OSM   H18T14457   3.788   0.689   3.892 -1.6673  1.1460  4.3803
  134OSM   H18U14458   3.901   0.555   3.946  1.5076  1.7879 -3.8235
  134OSM    C1F14459   3.093   1.099   2.487  0.5731 -1.0331 -0.0864
  134OSM     OF14460   3.046   1.018   2.410  0.4915  0.2643 -0.8379
  134OSM    C2F14461   3.013   1.150   2.608  0.0222  0.5601 -0.4164
  134OSM    H2F14462   2.981   1.255   2.594  0.4120  1.3122  3.2487
  134OSM    H2G14463   3.072   1.135   2.701  1.2491 -0.3823 -1.3146
  134OSM    C3F14464   2.872   1.077   2.613  0.2106  0.2467  0.4359
  134OSM    H3F14465   2.878   0.966   2.608 -2.0343  0.0806  0.4528
  134OSM    H3G14466   2.816   1.112   2.523  0.5529  2.6660  1.1066
  134OSM    C4F14467   2.789   1.108   2.734 -0.6947  0.0334 -0.4212
  134OSM    H4F14468   2.691   1.060   2.714 -0.3039 -0.5899 -0.8613
  134OSM    H4G14469   2.775   1.216   2.754 -0.2252 -0.1987  1.3542
  134OSM    C5F14470   2.858   1.035   2.857 -0.0716  0.0021  0.6596
  134OSM    H5F14471   2.957   1.082   2.872 -0.4241  1.2714 -0.7671
  134OSM    H5G14472   2.870   0.927   2.835  0.1536  0.0204  0.6928
  134OSM    C6F14473   2.769   1.047   2.980 -0.4405  0.2018  0.0739
  134OSM    H6F14474   2.663   1.019   2.959 -1.2054  3.7148 -1.5138
  134OSM    H6G14475   2.758   1.152   3.013  1.4573 -0.2606  2.4207
  134OSM    C7F14476   2.837   0.980   3.101  0.8648  0.4621 -0.3874
  134OSM    H7F14477   2.932   1.037   3.113  0.3105  1.0993  1.3407
  134OSM    H7G14478   2.862   0.874   3.079 -0.8360 -0.0984  0.1895
  134OSM    C8F14479   2.743   1.014   3.223 -0.7908  0.7952  0.1196
  134OSM    H8F14480   2.647   0.962   3.203 -2.2312  3.3604 -0.0526
  134OSM    H8G14481   2.735   1.124   3.233 -3.2005  0.6281  0.5893
  134OSM    C9F14482   2.803   0.958   3.351 -0.1654  0.6320  0.6065
  134OSM    H9F14483   2.903   0.996   3.376  0.5441 -0.7604 -0.0255
  134OSM   C10F14484   2.740   0.871   3.437  0.1798 -0.3570  0.4185
  134OSM   H10F14485   2.798   0.831   3.521 -0.1161  1.3704  1.5027
  134OSM   C11F14486   2.607   0.811   3.424  0.1988  0.1539 -0.3409
  134OSM   H11F14487   2.617   0.705   3.456 -0.4645  0.7394  2.0325
  134OSM   H11G14488   2.579   0.813   3.316  0.7860  0.6794 -0.4896
  134OSM   C12F14489   2.496   0.866   3.519 -0.5109 -0.4163  0.6262
  134OSM   H12F14490   2.413   0.799   3.487 -0.2797 -0.9105  1.0457
  134OSM   H12G14491   2.474   0.973   3.497 -0.2593  0.3293  3.6510
  134OSM   C13F14492   2.511   0.846   3.664  0.3450  0.0920 -0.7819
  134OSM   H13F14493   2.581   0.920   3.709  0.1133 -1.5367  2.5415
  134OSM   H13G14494   2.545   0.741   3.675  2.1989  0.8379  1.9019
  134OSM   C14F14495   2.373   0.867   3.734  0.1395  0.7786  0.2841
  134OSM   H14F14496   2.296   0.836   3.661 -0.3464 -1.3894  1.6052
  134OSM   H14G14497   2.361   0.978   3.735 -1.4756  0.6453 -0.7585
  134OSM   C15F14498   2.350   0.808   3.870  0.7281 -0.4123 -0.2338
  134OSM   H15F14499   2.407   0.876   3.937  2.7359 -2.1398 -0.1095
  134OSM   H15G14500   2.398   0.708   3.877 -0.7939 -1.2011 -0.4741
  134OSM   C16F14501   2.211   0.808   3.921 -0.2092  0.4791 -0.2488
  134OSM   H16F14502   2.132   0.769   3.853  0.5247 -1.8945  0.1629
  134OSM   H16G14503   2.193   0.916   3.939 -1.0893  0.3032 -0.0044
  134OSM   C17F14504   2.208   0.735   4.059  0.1264  0.3463  0.5534
  134OSM   H17F14505   2.290   0.783   4.116 -1.6038  0.4159  3.1276
  134OSM   H17G14506   2.233   0.628   4.050  1.4409  0.7957 -2.1971
  134OSM   C18F14507   2.074   0.758   4.136 -1.0154 -0.1391  0.1428
  134OSM   H18F14508   2.031   0.857   4.109 -0.8817 -0.1488 -0.1152
  134OSM   H18G14509   2.088   0.755   4.246 -0.6511 -2.0558  0.0868
  134OSM   H18H14510   2.000   0.685   4.097  0.7517 -1.4535 -0.8762
  135OSM      N14511   0.205   6.198   1.572  1.2040 -0.3111  0.9221
  135OSM    C1514512   0.179   6.077   1.485 -0.4155  0.1691 -0.4826
  135OSM   H15A14513   0.271   6.021   1.472  2.0589  3.8209 -0.1025
  135OSM   H15B14514   0.131   6.108   1.394 -0.3306  1.8484  0.0025
  135OSM   H15C14515   0.118   6.012   1.546 -1.3675 -0.9996 -2.6091
  135OSM    C1414516   0.316   6.282   1.503 -0.0234  0.2922  0.1910
  135OSM   H14A14517   0.332   6.380   1.545  2.0088  0.2016 -0.2582
  135OSM   H14B14518   0.303   6.296   1.397 -1.1542  1.4873  0.4569
  135OSM   H14C14519   0.411   6.232   1.514 -1.0885 -2.3168 -1.5616
  135OSM    C1314520   0.087   6.288   1.579 -0.6644 -0.4176 -0.0318
  135OSM   H13A14521   0.129   6.385   1.600 -1.0614 -0.1339 -0.5390
  135OSM   H13B14522   0.033   6.263   1.669  0.3048 -1.3742  0.3084
  135OSM   H13C14523   0.027   6.285   1.489 -0.3359  0.5576 -0.2856
  135OSM    C1214524   0.245   6.150   1.711  0.4400 -0.4409  0.1838
  135OSM   H12A14525   0.254   6.235   1.778  0.9314 -1.0116  0.8572
  135OSM   H12B14526   0.339   6.097   1.708  1.5511  1.3084  1.6392
  135OSM    C1114527   0.146   6.058   1.786  0.1138  0.0652  0.5076
  135OSM   H11A14528   0.046   6.088   1.748  0.4855  1.6331  0.6892
  135OSM   H11B14529   0.149   6.087   1.893 -1.1440 -0.2865  0.6518
  135OSM      P14530   0.287   5.840   1.825 -0.1549  0.1043 -0.0259
  135OSM    O1314531   0.287   5.702   1.766  0.1191  0.0328 -0.0372
  135OSM    O1414532   0.415   5.911   1.820 -0.9911 -0.1501  0.0918
  135OSM    O1114533   0.240   5.826   1.969 -0.6994  0.2692  0.0156
  135OSM    O1214534   0.171   5.920   1.753  0.2427  0.0078 -0.7466
  135OSM    C1S14535   0.116   5.780   2.002  0.1455 -0.5153  0.1546
  135OSM    H1S14536   0.101   5.676   1.966 -0.4281 -0.2834 -0.2936
  135OSM    H1T14537   0.041   5.845   1.953  0.7320  0.3873  0.4380
  135OSM     NF14538  -0.043   5.710   2.183  0.3448 -0.5105 -0.0328
  135OSM    HNF14539  -0.108   5.770   2.228 -1.8873 -0.9270 -2.3944
  135OSM    C2S14540   0.086   5.766   2.157  0.0647 -0.1997 -0.3875
  135OSM    H2S14541   0.158   5.690   2.194  0.0267 -0.8270 -1.5670
  135OSM    C3S14542   0.109   5.896   2.233 -0.0883  0.2107 -0.0291
  135OSM    H3S14543   0.042   5.973   2.191 -0.4181 -0.5686 -0.9771
  135OSM     O314544   0.239   5.951   2.208 -0.0121  0.0449  0.4083
  135OSM    HO314545   0.280   5.877   2.161  0.4924  0.6921 -0.1990
  135OSM    C4S14546   0.082   5.877   2.380  0.0863  0.7483 -0.1220
  135OSM    H4S14547   0.010   5.948   2.424  0.0946  1.8650 -1.8224
  135OSM    C5S14548   0.161   5.798   2.449 -0.0090 -0.5140  0.2060
  135OSM    H5S14549   0.260   5.771   2.409  1.8586  3.6631  1.3493
  135OSM    C6S14550   0.140   5.783   2.596 -0.1169  0.8876 -0.1767
  135OSM    H6S14551   0.053   5.715   2.608 -0.0108  0.7550 -0.1586
  135OSM    H6T14552   0.110   5.880   2.641 -0.4814  1.2113 -1.0975
  135OSM    C7S14553   0.268   5.719   2.652  0.0021 -0.2198  0.5183
  135OSM    H7S14554   0.358   5.770   2.612  0.1223 -0.6776  0.1905
  135OSM    H7T14555   0.280   5.615   2.613  1.9615  0.1345  0.0855
  135OSM    C8S14556   0.262   5.713   2.803 -0.2385  0.2221 -0.1443
  135OSM    H8S14557   0.177   5.647   2.829  0.6423 -1.1442 -0.5973
  135OSM    H8T14558   0.246   5.816   2.843  1.0120  0.4043 -0.0742
  135OSM    C9S14559   0.383   5.642   2.856 -0.3458  0.5688 -0.0276
  135OSM    H9S14560   0.477   5.673   2.805  0.1869 -0.9429 -0.0406
  135OSM    H9T14561   0.373   5.533   2.835  0.3969  0.2723  1.0461
  135OSM   C10S14562   0.403   5.643   3.008 -0.6005  0.1094 -0.1534
  135OSM   H10S14563   0.398   5.749   3.042  2.3703  0.8691 -1.7246
  135OSM   H10T14564   0.497   5.590   3.036 -0.8710 -0.2798  0.0099
  135OSM   C11S14565   0.301   5.558   3.075 -0.4814 -0.1439  0.3773
  135OSM   H11S14566   0.315   5.454   3.040 -2.3931 -0.7245  1.1903
  135OSM   H11T14567   0.196   5.587   3.049  0.0849 -0.4327 -2.5749
  135OSM   C12S14568   0.315   5.553   3.232 -0.0088  0.1152  0.3186
  135OSM   H12S14569   0.403   5.487   3.248 -0.4478 -0.4769  0.3304
  135OSM   H12T14570   0.236   5.492   3.281 -0.8239  1.6463  0.9389
  135OSM   C13S14571   0.339   5.682   3.311  0.3687 -0.2248  0.3660
  135OSM   H13S14572   0.275   5.766   3.279  2.3330  0.9354 -0.7117
  135OSM   H13T14573   0.444   5.716   3.296  0.3779 -0.5747 -0.4305
  135OSM   C14S14574   0.317   5.653   3.466 -0.5333 -0.2239  0.0937
  135OSM   H14S14575   0.355   5.550   3.482  3.6401  1.3021  1.3472
  135OSM   H14T14576   0.209   5.652   3.491 -0.2713  0.2063  1.2779
  135OSM   C15S14577   0.406   5.746   3.553 -0.3945 -0.6991 -0.2602
  135OSM   H15S14578   0.366   5.850   3.550  2.7883  0.6761  0.3201
  135OSM   H15T14579   0.501   5.770   3.501 -0.5696  1.5193  0.3337
  135OSM   C16S14580   0.416   5.695   3.698  0.1487 -0.3047  0.1588
  135OSM   H16S14581   0.485   5.764   3.749  0.2476  0.4614 -0.9660
  135OSM   H16T14582   0.464   5.597   3.718  1.9877  0.9685  2.4306
  135OSM   C17S14583   0.275   5.705   3.758  0.2507  0.8975 -0.3015
  135OSM   H17S14584   0.208   5.626   3.716 -1.0769  2.0051 -0.3180
  135OSM   H17T14585   0.237   5.803   3.724 -0.4951 -0.4630 -3.9123
  135OSM   C18S14586   0.270   5.695   3.910 -0.0821 -0.0811  0.5427
  135OSM   H18S14587   0.179   5.708   3.971 -0.4346  2.2457 -0.3771
  135OSM   H18T14588   0.344   5.772   3.942  0.5467 -0.5030  0.1530
  135OSM   H18U14589   0.314   5.597   3.937  1.7208  0.2172 -1.0382
  135OSM    C1F14590  -0.077   5.586   2.154  0.2218  0.6440  0.2480
  135OSM     OF14591   0.010   5.503   2.121 -0.0269  0.1360 -0.1628
  135OSM    C2F14592  -0.215   5.549   2.177  0.1537 -0.3570  0.5364
  135OSM    H2F14593  -0.261   5.521   2.080 -1.9357 -1.8179  1.8544
  135OSM    H2G14594  -0.274   5.639   2.207 -0.7805 -1.1086  1.0189
  135OSM    C3F14595  -0.239   5.440   2.282 -0.2497 -0.3532  0.2884
  135OSM    H3F14596  -0.211   5.339   2.247  1.8314  0.4386 -0.4727
  135OSM    H3G14597  -0.350   5.443   2.294 -0.4068 -3.0934  0.2869
  135OSM    C4F14598  -0.172   5.458   2.413  0.5799  0.1511  0.5036
  135OSM    H4F14599  -0.195   5.559   2.452 -0.7034 -0.5458  1.6233
  135OSM    H4G14600  -0.062   5.445   2.408  0.7849  1.1123  2.0806
  135OSM    C5F14601  -0.213   5.357   2.524 -0.2217 -0.6140  0.3255
  135OSM    H5F14602  -0.196   5.250   2.501  2.1536 -0.3764  0.6513
  135OSM    H5G14603  -0.322   5.368   2.538  0.0708  1.1337  1.6128
  135OSM    C6F14604  -0.143   5.392   2.657 -0.4415 -0.3437  0.1913
  135OSM    H6F14605  -0.183   5.486   2.701 -1.5167 -1.7030  2.2801
  135OSM    H6G14606  -0.040   5.429   2.638 -1.6972  2.0458 -2.9472
  135OSM    C7F14607  -0.148   5.272   2.754  0.5263 -0.0680  0.4523
  135OSM    H7F14608  -0.106   5.184   2.699  0.5670  1.2209 -1.7125
  135OSM    H7G14609  -0.251   5.249   2.787  0.3062  1.1709  0.6538
  135OSM    C8F14610  -0.068   5.314   2.877  0.0052 -0.4465  0.1502
  135OSM    H8F14611  -0.094   5.255   2.967 -1.9514 -0.6862 -0.5072
  135OSM    H8G14612  -0.087   5.420   2.904  0.4091  0.7786 -3.7387
  135OSM    C9F14613   0.081   5.305   2.852 -0.1569 -0.3181 -0.1755
  135OSM    H9F14614   0.119   5.379   2.780 -3.2744  1.7139  0.0633
  135OSM   C10F14615   0.170   5.215   2.908  0.0324  0.6892 -0.2238
  135OSM   H10F14616   0.279   5.223   2.900  0.4248 -1.4155  1.6992
  135OSM   C11F14617   0.138   5.101   3.007  0.7902 -0.0807 -0.3390
  135OSM   H11F14618   0.155   5.004   2.956 -0.1222 -1.1393  1.2799
  135OSM   H11G14619   0.029   5.104   3.026  0.9297 -2.3591  1.2641
  135OSM   C12F14620   0.212   5.087   3.141 -0.0329 -0.3350  0.8392
  135OSM   H12F14621   0.320   5.087   3.117 -0.1559 -1.4801  0.2118
  135OSM   H12G14622   0.193   4.987   3.184 -0.0028 -0.1097  1.3767
  135OSM   C13F14623   0.179   5.204   3.239  0.2970  0.3289 -0.5666
  135OSM   H13F14624   0.070   5.210   3.258  0.5082  1.2041  0.4226
  135OSM   H13G14625   0.216   5.297   3.191 -2.2984  0.9442 -1.5510
  135OSM   C14F14626   0.237   5.178   3.377 -0.1863 -0.0748 -0.8593
  135OSM   H14F14627   0.347   5.169   3.371 -0.3327 -1.4563 -1.8048
  135OSM   H14G14628   0.184   5.097   3.433 -2.3728  1.7848 -0.0698
  135OSM   C15F14629   0.203   5.288   3.482  0.4622  0.5250  0.3618
  135OSM   H15F14630   0.092   5.297   3.484  0.5758  2.5217  1.9614
  135OSM   H15G14631   0.244   5.383   3.440  0.2004  0.8478  0.8218
  135OSM   C16F14632   0.265   5.255   3.623  0.2793  0.0736  0.4147
  135OSM   H16F14633   0.268   5.349   3.682 -1.2973 -0.1946  0.9486
  135OSM   H16G14634   0.373   5.231   3.609  0.7378  3.0726 -2.3576
  135OSM   C17F14635   0.199   5.142   3.700  0.0356  0.0072 -0.3463
  135OSM   H17F14636   0.224   5.043   3.656 -0.4000  0.7407 -2.3834
  135OSM   H17G14637   0.090   5.164   3.692  0.4934  3.0699  0.4100
  135OSM   C18F14638   0.236   5.129   3.847 -0.1391 -0.5469  0.3249
  135OSM   H18F14639   0.242   5.231   3.892  0.5596 -0.0957 -0.7556
  135OSM   H18G14640   0.337   5.083   3.853 -0.2886 -0.9023  0.1455
  135OSM   H18H14641   0.158   5.070   3.900 -0.6149  0.2667  0.5521
  136OSM      N14642   0.108   0.041   1.997  0.2304 -1.1460  0.9810
  136OSM    C1514643   0.205   0.080   1.890  0.4454 -0.0367  0.3257
  136OSM   H15A14644   0.248   0.176   1.915 -1.0651  0.9582 -0.7143
  136OSM   H15B14645   0.177   0.098   1.787  0.2190 -2.6209 -0.1157
  136OSM   H15C14646   0.285   0.008   1.895 -0.9597 -1.7741 -0.9497
  136OSM    C1414647  -0.003   0.136   1.996  0.0524 -0.3721 -0.5075
  136OSM   H14A14648  -0.050   0.134   1.899  0.5082 -2.1278 -0.7201
  136OSM   H14B14649   0.028   0.238   2.014 -0.4163  0.8143 -5.2370
  136OSM   H14C14650  -0.067   0.116   2.081  1.1173  0.9668  0.6686
  136OSM    C1314651   0.047  -0.095   1.965 -0.9054  0.0528  0.4004
  136OSM   H13A14652   0.123  -0.172   1.973 -0.4722  0.5695  1.5259
  136OSM   H13B14653   0.006  -0.104   1.866  0.8592 -3.5344 -0.1726
  136OSM   H13C14654  -0.027  -0.121   2.039 -1.5887  1.6737  0.3359
  136OSM    C1214655   0.182   0.035   2.129 -0.0208  0.3552 -0.4625
  136OSM   H12A14656   0.110  -0.007   2.197 -0.5309  1.7024 -0.1426
  136OSM   H12B14657   0.185   0.134   2.172 -1.1606  0.8801 -1.5650
  136OSM    C1114658   0.323  -0.031   2.127 -0.2816  0.2409  0.6673
  136OSM   H11A14659   0.317  -0.124   2.067  1.7802  0.1478  0.5431
  136OSM   H11B14660   0.346  -0.051   2.233  1.6662  1.1258  0.4488
  136OSM      P14661   0.518   0.140   2.154  0.0645 -0.0797  0.2000
  136OSM    O1314662   0.642   0.178   2.081  0.0631 -0.0389 -0.2404
  136OSM    O1414663   0.445   0.256   2.216  0.1109  0.0224 -0.0789
  136OSM    O1114664   0.548   0.037   2.270 -0.2308 -0.3277  0.1589
  136OSM    O1214665   0.417   0.059   2.063  0.3202 -0.0946  0.2849
  136OSM    C1S14666   0.630  -0.077   2.242 -0.6108  0.9189  0.1349
  136OSM    H1S14667   0.710  -0.057   2.167 -1.8965  2.9181 -0.7733
  136OSM    H1T14668   0.569  -0.160   2.199 -0.0838 -1.2628  3.2795
  136OSM     NF14669   0.797  -0.228   2.316 -0.0433  0.1849  0.1555
  136OSM    HNF14670   0.775  -0.325   2.321 -1.2737  0.3328 -1.5450
  136OSM    C2S14671   0.699  -0.138   2.362  0.6629  0.0271 -0.4414
  136OSM    H2S14672   0.761  -0.062   2.414  1.1600 -0.9652  0.4611
  136OSM    C3S14673   0.598  -0.197   2.467  0.4589 -0.1442  0.4024
  136OSM    H3S14674   0.556  -0.292   2.428  1.1727 -0.4246  0.2993
  136OSM     O314675   0.480  -0.117   2.492 -0.1723 -0.6568  0.0425
  136OSM    HO314676   0.488  -0.066   2.411 -1.3602  0.0036  0.3220
  136OSM    C4S14677   0.669  -0.229   2.596  0.2312  0.6916 -0.6295
  136OSM    H4S14678   0.681  -0.337   2.613  0.5488  0.7706 -0.3422
  136OSM    C5S14679   0.733  -0.141   2.679 -0.4284 -0.3463 -0.1697
  136OSM    H5S14680   0.752  -0.036   2.652  0.3705 -0.9235 -2.0441
  136OSM    C6S14681   0.811  -0.202   2.794 -0.4229 -0.2267 -0.1085
  136OSM    H6S14682   0.888  -0.129   2.824 -1.0466  0.6978 -0.6750
  136OSM    H6T14683   0.861  -0.299   2.771  0.5068 -0.4130  2.4600
  136OSM    C7S14684   0.717  -0.230   2.916  0.3665  0.3348 -0.7242
  136OSM    H7S14685   0.624  -0.286   2.893  0.1272  0.4141  0.0469
  136OSM    H7T14686   0.684  -0.126   2.937 -2.1923 -0.5974  0.3097
  136OSM    C8S14687   0.795  -0.285   3.027 -0.5759  0.0017 -0.0551
  136OSM    H8S14688   0.890  -0.226   3.032  1.2385 -2.7500 -0.2534
  136OSM    H8T14689   0.825  -0.389   3.005 -0.4877 -0.3913  1.7556
  136OSM    C9S14690   0.732  -0.277   3.163 -0.3724 -0.0003  0.0972
  136OSM    H9S14691   0.631  -0.322   3.163 -0.2485 -0.2829 -0.0905
  136OSM    H9T14692   0.705  -0.172   3.188 -2.1925  0.2525 -2.6070
  136OSM   C10S14693   0.816  -0.344   3.270 -0.2014 -0.0929  0.0722
  136OSM   H10S14694   0.897  -0.276   3.305  0.3301 -0.4781 -0.3862
  136OSM   H10T14695   0.861  -0.432   3.221 -1.5136 -0.5689 -0.2941
  136OSM   C11S14696   0.740  -0.390   3.393  0.3956  0.5262  0.0214
  136OSM   H11S14697   0.659  -0.459   3.364 -0.7044  2.0666 -0.7310
  136OSM   H11T14698   0.684  -0.308   3.443 -0.2692 -1.2984  2.4787
  136OSM   C12S14699   0.829  -0.434   3.504 -0.0961 -0.1633  0.2483
  136OSM   H12S14700   0.914  -0.365   3.523 -0.3408 -0.5714  3.2230
  136OSM   H12T14701   0.869  -0.536   3.486 -1.5968 -0.5437 -1.1320
  136OSM   C13S14702   0.744  -0.427   3.633  0.8033 -0.1708 -0.6406
  136OSM   H13S14703   0.653  -0.488   3.613 -0.1985  0.8822  0.5590
  136OSM   H13T14704   0.707  -0.330   3.672  0.1713 -1.3235  1.8719
  136OSM   C14S14705   0.817  -0.474   3.757  0.1675  0.3459 -0.7645
  136OSM   H14S14706   0.889  -0.554   3.730  0.6809  0.6569 -0.3405
  136OSM   H14T14707   0.747  -0.503   3.839 -2.2556  1.2435 -2.4219
  136OSM   C15S14708   0.910  -0.365   3.816 -0.5417 -0.3583 -0.2779
  136OSM   H15S14709   0.848  -0.283   3.859 -0.2537 -1.2196  1.9476
  136OSM   H15T14710   0.986  -0.316   3.751 -0.7702  1.9988  1.1061
  136OSM   C16S14711   0.995  -0.428   3.939  0.4459  0.3272  0.8168
  136OSM   H16S14712   1.082  -0.475   3.889  2.1626  1.6741  2.3929
  136OSM   H16T14713   0.927  -0.493   3.998 -1.2977  1.4590  0.1604
  136OSM   C17S14714   1.037  -0.322   4.041 -0.5437  0.2404  0.4447
  136OSM   H17S14715   0.943  -0.286   4.087  0.6071  2.4277  1.2045
  136OSM   H17T14716   1.097  -0.241   3.995  0.1781  0.2975  1.4637
  136OSM   C18S14717   1.133  -0.371   4.154 -0.5482  0.0872 -0.1432
  136OSM   H18S14718   1.166  -0.290   4.223 -0.5846 -0.2414  0.2638
  136OSM   H18T14719   1.221  -0.420   4.107  0.3300 -1.4104  2.8440
  136OSM   H18U14720   1.088  -0.451   4.218  0.4333 -1.1470 -0.9538
  136OSM    C1F14721   0.910  -0.204   2.256 -0.5866  0.1873  0.6733
  136OSM     OF14722   0.951  -0.090   2.223  0.4571  0.6101 -0.0829
  136OSM    C2F14723   0.987  -0.331   2.210  0.2817  0.0657 -0.6922
  136OSM    H2F14724   0.978  -0.331   2.099 -1.6272 -0.6892 -0.5756
  136OSM    H2G14725   0.936  -0.423   2.245 -0.3241  0.8711  0.6554
  136OSM    C3F14726   1.139  -0.322   2.255 -0.6686 -0.3755  0.1996
  136OSM    H3F14727   1.190  -0.238   2.203  0.1117 -0.7138  0.4085
  136OSM    H3G14728   1.187  -0.418   2.223 -1.6846 -1.3274  1.4451
  136OSM    C4F14729   1.160  -0.303   2.405 -0.1497 -1.0022 -1.1424
  136OSM    H4F14730   1.118  -0.207   2.441 -0.2512 -1.4021 -0.1785
  136OSM    H4G14731   1.270  -0.289   2.416 -0.3250  0.5872 -1.2985
  136OSM    C5F14732   1.114  -0.434   2.472 -0.0918 -0.6443 -0.3124
  136OSM    H5F14733   1.175  -0.519   2.434  0.0390 -0.8069  0.2462
  136OSM    H5G14734   1.008  -0.462   2.453 -0.1605 -0.6354  0.0356
  136OSM    C6F14735   1.134  -0.434   2.627 -0.0162 -0.7239  1.0128
  136OSM    H6F14736   1.079  -0.343   2.658  1.7658 -0.2402  2.9685
  136OSM    H6G14737   1.235  -0.412   2.668  0.5994  2.4992 -1.7983
  136OSM    C7F14738   1.075  -0.559   2.700 -0.5023 -0.2383 -0.3957
  136OSM    H7F14739   1.089  -0.655   2.647  2.4657 -0.8364  1.2992
  136OSM    H7G14740   0.964  -0.546   2.697 -0.5194 -0.4773 -0.8894
  136OSM    C8F14741   1.128  -0.576   2.840 -1.0169 -0.2087  0.3393
  136OSM    H8F14742   1.238  -0.588   2.830 -1.1109 -0.2447 -0.7456
  136OSM    H8G14743   1.081  -0.667   2.883 -0.2788 -1.1381 -0.7490
  136OSM    C9F14744   1.105  -0.453   2.923  0.1958  0.4769  0.0568
  136OSM    H9F14745   1.080  -0.359   2.871  2.1734  0.2815 -1.3567
  136OSM   C10F14746   1.087  -0.459   3.059  0.4238 -0.3339  1.0144
  136OSM   H10F14747   1.061  -0.366   3.110 -1.2670 -0.3960  0.3175
  136OSM   C11F14748   1.095  -0.581   3.147 -0.2668  0.6383  0.0001
  136OSM   H11F14749   1.152  -0.668   3.109  0.3605 -0.1225  2.5332
  136OSM   H11G14750   0.994  -0.618   3.175 -0.7771  1.5030 -0.6322
  136OSM   C12F14751   1.172  -0.543   3.281  0.5015 -0.1168  0.3996
  136OSM   H12F14752   1.100  -0.498   3.354  2.4075  2.7810  0.6770
  136OSM   H12G14753   1.249  -0.467   3.256 -0.5849  0.0285 -3.0196
  136OSM   C13F14754   1.247  -0.663   3.336  0.1330 -0.5117  0.5727
  136OSM   H13F14755   1.324  -0.691   3.262 -0.1535  2.3295 -0.9522
  136OSM   H13G14756   1.186  -0.754   3.358 -1.1651  0.3333  0.5768
  136OSM   C14F14757   1.309  -0.622   3.472  0.1719 -0.1535  0.1732
  136OSM   H14F14758   1.237  -0.574   3.541 -0.0103 -1.5388  1.0077
  136OSM   H14G14759   1.391  -0.548   3.464  1.0790 -1.1388  0.0157
  136OSM   C15F14760   1.353  -0.744   3.556 -0.1512 -0.6435 -0.6729
  136OSM   H15F14761   1.432  -0.792   3.494 -0.3321  0.0045 -1.4339
  136OSM   H15G14762   1.273  -0.818   3.570  0.8148 -1.7290 -0.7422
  136OSM   C16F14763   1.404  -0.702   3.699  0.1693 -0.9750  0.2335
  136OSM   H16F14764   1.326  -0.638   3.747  2.2744  0.4670  1.9475
  136OSM   H16G14765   1.475  -0.617   3.692 -1.0050  0.0453  0.2766
  136OSM   C17F14766   1.443  -0.820   3.784 -0.4623 -0.2611  0.0939
  136OSM   H17F14767   1.527  -0.876   3.737 -1.4613 -2.5773  0.9716
  136OSM   H17G14768   1.365  -0.898   3.796 -0.6257 -0.6255 -2.6086
  136OSM   C18F14769   1.494  -0.779   3.928  0.1984  0.1461  0.0162
  136OSM   H18F14770   1.544  -0.865   3.977  0.5737  1.7931  2.7366
  136OSM   H18G14771   1.417  -0.732   3.993 -0.5981  0.3082 -1.0253
  136OSM   H18H14772   1.571  -0.699   3.921 -0.1979  0.3793 -2.4813
  137OSM      N14773   6.048   5.391   1.659 -0.8133 -0.5510 -0.1860
  137OSM    C1514774   5.985   5.326   1.534  0.9260  0.1327 -0.1632
  137OSM   H15A14775   5.886   5.368   1.528  1.7595  2.7921  2.1506
  137OSM   H15B14776   5.993   5.218   1.538  2.3999  0.2379  1.0016
  137OSM   H15C14777   6.038   5.353   1.444  1.4918  1.9803  0.6843
  137OSM    C1414778   6.195   5.365   1.660 -0.2044 -0.3396  0.6047
  137OSM   H14A14779   6.241   5.412   1.745 -0.2039  1.1211 -0.1550
  137OSM   H14B14780   6.242   5.396   1.567 -1.9754  0.6758 -0.0138
  137OSM   H14C14781   6.216   5.260   1.654 -0.6550 -0.3781 -0.6235
  137OSM    C1314782   6.036   5.542   1.644 -0.2042 -0.9620 -0.1045
  137OSM   H13A14783   6.102   5.586   1.570 -0.4418 -1.1784 -0.4497
  137OSM   H13B14784   6.055   5.587   1.740  0.9886  3.4057 -2.0854
  137OSM   H13C14785   5.934   5.574   1.624 -1.3217 -1.7024  3.6846
  137OSM    C1214786   5.982   5.336   1.785  0.6973  0.4159  0.1005
  137OSM   H12A14787   5.986   5.228   1.784 -1.4297  0.1524  3.6873
  137OSM   H12B14788   5.878   5.365   1.781  0.8962  1.0077 -1.6345
  137OSM    C1114789   6.055   5.363   1.917 -0.4522 -0.1451 -0.1256
  137OSM   H11A14790   6.154   5.315   1.908 -0.3089  0.1537 -0.1722
  137OSM   H11B14791   6.004   5.314   2.002  1.4975 -2.8712 -0.4057
  137OSM      P14792   6.208   5.566   2.005  0.2123 -0.0378 -0.0401
  137OSM    O1314793   6.328   5.521   1.932  0.3049 -0.2364  0.3912
  137OSM    O1414794   6.195   5.715   2.017 -0.8650  0.1935 -0.3904
  137OSM    O1114795   6.205   5.514   2.157  0.2793  0.2672 -0.1262
  137OSM    O1214796   6.076   5.508   1.934  0.6480 -0.4943  0.4557
  137OSM    C1S14797   6.091   5.528   2.238 -0.1477  0.4051 -0.5001
  137OSM    H1S14798   6.005   5.469   2.200  0.6607 -1.4998  0.4737
  137OSM    H1T14799   6.067   5.636   2.243  2.4481  1.0920 -1.3589
  137OSM     NF14800   5.997   5.421   2.428  0.4105 -0.6473 -0.0461
  137OSM    HNF14801   5.957   5.470   2.505  0.3830  0.5961 -0.8219
  137OSM    C2S14802   6.123   5.483   2.379  0.3383  1.0100  0.0727
  137OSM    H2S14803   6.197   5.401   2.369  1.3217  1.8339  0.4629
  137OSM    C3S14804   6.189   5.582   2.463  0.0835  0.5259  0.2500
  137OSM    H3S14805   6.133   5.677   2.452 -0.5260  0.0319 -1.1426
  137OSM     O314806   6.315   5.617   2.407 -0.2744 -0.2201 -0.7980
  137OSM    HO314807   6.320   5.571   2.323 -0.0191 -3.4844  0.8607
  137OSM    C4S14808   6.211   5.544   2.603 -0.1407  0.1901 -0.1293
  137OSM    H4S14809   6.298   5.478   2.614  0.8620  1.1737 -1.7154
  137OSM    C5S14810   6.138   5.583   2.705  0.0073  0.0656  0.6130
  137OSM    H5S14811   6.044   5.641   2.696  1.4448  2.4467  0.0991
  137OSM    C6S14812   6.167   5.541   2.847  0.5239  1.2414 -0.7447
  137OSM    H6S14813   6.084   5.472   2.876  1.2053 -0.2891 -2.2407
  137OSM    H6T14814   6.171   5.624   2.920  3.7901  1.7539 -1.3515
  137OSM    C7S14815   6.318   5.490   2.874 -0.0325 -0.9703  0.2662
  137OSM    H7S14816   6.395   5.561   2.836  1.6260 -1.2359  2.9447
  137OSM    H7T14817   6.340   5.402   2.811  0.7054 -0.9352  0.4716
  137OSM    C8S14818   6.326   5.461   3.022  0.1014 -0.2131 -0.4872
  137OSM    H8S14819   6.250   5.381   3.037  0.2626 -0.2360  0.2537
  137OSM    H8T14820   6.287   5.542   3.087  1.9538  1.7983 -1.7445
  137OSM    C9S14821   6.469   5.429   3.058 -0.2950 -0.0138 -0.6004
  137OSM    H9S14822   6.539   5.511   3.033  1.2006  0.0371  3.1473
  137OSM    H9T14823   6.508   5.343   2.999 -1.0988 -0.4424 -0.5306
  137OSM   C10S14824   6.494   5.393   3.205 -0.1992  0.1684 -0.4271
  137OSM   H10S14825   6.457   5.289   3.197  0.7793 -0.1180 -1.4399
  137OSM   H10T14826   6.429   5.443   3.280 -0.6015  0.9171 -1.2494
  137OSM   C11S14827   6.635   5.396   3.250  0.1926 -0.0626 -0.4380
  137OSM   H11S14828   6.676   5.499   3.250  0.1496  0.0668  3.1020
  137OSM   H11T14829   6.701   5.336   3.184  1.1070 -0.0671  0.4565
  137OSM   C12S14830   6.668   5.346   3.395  0.1695  0.6365 -1.0123
  137OSM   H12S14831   6.753   5.274   3.396 -1.7851 -1.7712 -0.3652
  137OSM   H12T14832   6.577   5.288   3.421  1.3785 -0.1507  1.9596
  137OSM   C13S14833   6.694   5.453   3.498  0.3616  0.7697 -0.8778
  137OSM   H13S14834   6.601   5.514   3.510 -2.5241 -3.3515 -0.1935
  137OSM   H13T14835   6.783   5.509   3.462  1.3212  0.3697  0.7653
  137OSM   C14S14836   6.743   5.403   3.636 -0.0302  0.1661 -0.1582
  137OSM   H14S14837   6.824   5.332   3.608 -0.4992 -0.1004 -0.8639
  137OSM   H14T14838   6.653   5.350   3.674 -0.2932  0.0590 -0.9247
  137OSM   C15S14839   6.782   5.507   3.742 -0.0200 -0.1552  0.1287
  137OSM   H15S14840   6.687   5.543   3.787 -1.3033 -3.0072 -0.0817
  137OSM   H15T14841   6.850   5.583   3.696 -0.9877  2.5479  2.8176
  137OSM   C16S14842   6.852   5.441   3.852 -0.5997 -0.4880  0.0706
  137OSM   H16S14843   6.889   5.511   3.930  0.1273 -0.1858 -0.5276
  137OSM   H16T14844   6.944   5.383   3.827 -0.8974 -1.6059  1.4397
  137OSM   C17S14845   6.758   5.339   3.921 -0.0220 -0.8029 -0.1517
  137OSM   H17S14846   6.746   5.261   3.843 -1.1847 -0.4360 -0.3608
  137OSM   H17T14847   6.656   5.380   3.936 -0.4568 -1.7583 -0.4870
  137OSM   C18S14848   6.819   5.277   4.050  0.2044 -0.0322  0.1861
  137OSM   H18S14849   6.840   5.353   4.128 -1.1218  1.8027 -1.1702
  137OSM   H18T14850   6.915   5.223   4.035  1.2539  0.5714  3.7256
  137OSM   H18U14851   6.739   5.218   4.101 -1.3742 -0.4015 -2.4810
  137OSM    C1F14852   5.946   5.305   2.408 -0.0659  0.6368 -0.7194
  137OSM     OF14853   5.984   5.223   2.325 -0.1084  0.0690  0.4816
  137OSM    C2F14854   5.825   5.270   2.488 -0.4933  0.0200 -0.2891
  137OSM    H2F14855   5.760   5.207   2.424 -0.6160  0.0359 -0.1807
  137OSM    H2G14856   5.761   5.355   2.521 -2.7048 -1.3748 -0.8083
  137OSM    C3F14857   5.863   5.185   2.614  0.7238 -0.6273 -0.1257
  137OSM    H3F14858   5.887   5.080   2.587 -1.1060 -1.8890  2.6520
  137OSM    H3G14859   5.765   5.174   2.665  0.4562  0.8352 -0.2802
  137OSM    C4F14860   5.974   5.226   2.711 -0.1003 -0.3694  1.3707
  137OSM    H4F14861   5.964   5.336   2.725  1.1103  0.4113 -2.6116
  137OSM    H4G14862   6.072   5.189   2.673 -0.2537 -2.0724  2.5614
  137OSM    C5F14863   5.950   5.157   2.847 -0.1739 -0.1089  0.4969
  137OSM    H5F14864   5.950   5.049   2.820 -5.7669 -0.0294 -0.9436
  137OSM    H5G14865   5.846   5.176   2.879 -0.7932 -1.1160 -0.8514
  137OSM    C6F14866   6.035   5.195   2.968 -0.6219 -0.4815  0.4765
  137OSM    H6F14867   6.009   5.300   2.992  0.0932 -0.2009  0.0696
  137OSM    H6G14868   6.143   5.201   2.942 -0.7831  0.6588  0.0256
  137OSM    C7F14869   6.013   5.115   3.096  0.0156 -0.2737  0.9806
  137OSM    H7F14870   6.017   5.005   3.078 -0.6500 -0.3882  1.4793
  137OSM    H7G14871   5.902   5.119   3.108 -0.3162 -1.0527 -1.2095
  137OSM    C8F14872   6.091   5.166   3.219  0.1353 -0.1768  0.2416
  137OSM    H8F14873   6.097   5.277   3.227  0.3007 -0.1904  0.3107
  137OSM    H8G14874   6.197   5.134   3.222 -0.3348 -1.8593 -0.0678
  137OSM    C9F14875   6.022   5.130   3.346 -0.3836  0.4838 -0.2643
  137OSM    H9F14876   5.917   5.163   3.355  0.0041  1.8326 -0.4531
  137OSM   C10F14877   6.074   5.068   3.452 -0.3844  0.4235  0.5169
  137OSM   H10F14878   6.015   5.061   3.544  0.4586 -2.4473  0.9288
  137OSM   C11F14879   6.218   5.025   3.472 -0.1014 -0.2263  0.2032
  137OSM   H11F14880   6.280   5.032   3.380  0.8208 -1.7306  0.6823
  137OSM   H11G14881   6.229   4.919   3.505 -0.6744 -0.5761 -0.7014
  137OSM   C12F14882   6.306   5.097   3.585 -0.8064 -0.2674  0.0296
  137OSM   H12F14883   6.342   5.199   3.556  0.3438 -0.1017  1.8270
  137OSM   H12G14884   6.404   5.044   3.591 -0.7514  0.0142  2.9187
  137OSM   C13F14885   6.241   5.101   3.720  0.3137 -0.1469 -0.1350
  137OSM   H13F14886   6.137   5.139   3.712  1.0365  2.2929  1.0172
  137OSM   H13G14887   6.294   5.176   3.782  1.0068  0.8839 -1.9090
  137OSM   C14F14888   6.239   4.966   3.792 -0.4678 -0.2193 -0.3222
  137OSM   H14F14889   6.315   4.896   3.753  2.2355  2.4166 -0.1376
  137OSM   H14G14890   6.140   4.919   3.775 -0.5427 -0.2881  0.2875
  137OSM   C15F14891   6.261   4.968   3.944  0.0853  0.5996  0.1777
  137OSM   H15F14892   6.362   5.006   3.971  0.5710 -2.2619  2.8613
  137OSM   H15G14893   6.255   4.862   3.974 -1.6214  0.9411  1.1729
  137OSM   C16F14894   6.158   5.056   4.019  0.4193 -0.0219  0.5882
  137OSM   H16F14895   6.064   5.005   3.988  0.7261 -1.8418  2.3855
  137OSM   H16G14896   6.162   5.160   3.982 -0.3672 -0.1281  0.1777
  137OSM   C17F14897   6.180   5.055   4.169  0.4009  0.0358 -0.1384
  137OSM   H17F14898   6.091   5.108   4.211 -0.7629 -1.0981 -1.1073
  137OSM   H17G14899   6.271   5.110   4.201  0.2592 -1.7579  3.9394
  137OSM   C18F14900   6.179   4.916   4.238  0.1235 -0.5308  0.1894
  137OSM   H18F14901   6.085   4.864   4.206 -0.7061  1.3720 -0.6132
  137OSM   H18G14902   6.166   4.930   4.347 -1.8042  1.7614 -0.2572
  137OSM   H18H14903   6.263   4.849   4.212  0.0945 -0.0282 -1.3247
  138OSM      N14904   6.471   6.859   2.110  0.3666 -1.4333  0.4632
  138OSM    C1514905   6.376   6.913   2.008  0.7799 -0.4535  0.3313
  138OSM   H15A14906   6.328   6.834   1.953  0.9526 -0.0102 -0.4697
  138OSM   H15B14907   6.421   6.989   1.945  0.2565  1.7525  2.4386
  138OSM   H15C14908   6.301   6.966   2.065  0.9127  0.1850 -0.0792
  138OSM    C1414909   6.592   6.809   2.037 -0.4241  0.2759 -0.1480
  138OSM   H14A14910   6.606   6.883   1.959 -1.3490 -1.1987 -1.8147
  138OSM   H14B14911   6.581   6.718   1.978  0.4221  0.0166  0.0763
  138OSM   H14C14912   6.680   6.809   2.099 -0.3696  0.8235 -0.2243
  138OSM    C1314913   6.527   6.977   2.183 -0.4411  0.2726  0.0705
  138OSM   H13A14914   6.612   6.966   2.248 -0.3567  1.2727  0.1457
  138OSM   H13B14915   6.448   7.013   2.247 -0.7191  0.1533 -0.2039
  138OSM   H13C14916   6.553   7.066   2.127  1.5042  0.0066  0.4995
  138OSM    C1214917   6.413   6.751   2.191  0.4448 -0.2172  1.2070
  138OSM   H12A14918   6.337   6.793   2.255 -1.6303 -1.0495 -0.6035
  138OSM   H12B14919   6.481   6.717   2.268  0.5522 -1.7916  0.4613
  138OSM    C1114920   6.344   6.637   2.116  0.8311  0.8033  0.1806
  138OSM   H11A14921   6.331   6.549   2.182  2.7046 -0.7439 -1.4171
  138OSM   H11B14922   6.406   6.592   2.035 -0.1458  1.6864 -1.1154
  138OSM      P14923   6.088   6.653   2.134  0.0386 -0.7194 -0.1884
  138OSM    O1314924   6.005   6.776   2.109  1.0617 -0.6959  0.1558
  138OSM    O1414925   6.021   6.524   2.110  0.4561 -0.4518  0.8305
  138OSM    O1114926   6.134   6.645   2.289  0.1693 -0.1561  0.0291
  138OSM    O1214927   6.222   6.675   2.060  0.1593 -1.0048  0.0901
  138OSM    C1S14928   6.021   6.656   2.379 -0.1242  0.1774 -0.4927
  138OSM    H1S14929   5.945   6.577   2.360 -1.8207  1.5368  0.3993
  138OSM    H1T14930   5.977   6.757   2.376 -0.1327  0.2876  1.5919
  138OSM     NF14931   5.948   6.615   2.620 -0.3043  0.6128 -0.0077
  138OSM    HNF14932   5.922   6.670   2.698 -4.8510 -0.9401 -0.1431
  138OSM    C2S14933   6.065   6.649   2.531 -0.4055 -0.4072  0.0130
  138OSM    H2S14934   6.152   6.582   2.542  0.4782  0.8009  0.6023
  138OSM    C3S14935   6.132   6.783   2.563 -0.2324 -0.6672  0.3097
  138OSM    H3S14936   6.060   6.864   2.538  1.6618  1.0492  0.1018
  138OSM     O314937   6.249   6.812   2.485  0.0817 -0.4625  0.0478
  138OSM    HO314938   6.252   6.733   2.430 -1.4861 -0.8566  0.4539
  138OSM    C4S14939   6.178   6.800   2.711  0.3069 -0.1521  0.8604
  138OSM    H4S14940   6.091   6.834   2.769 -0.8785  2.4281 -2.1532
  138OSM    C5S14941   6.298   6.778   2.770 -0.2576  0.8837 -0.3100
  138OSM    H5S14942   6.384   6.748   2.709  1.4785  1.8720  1.5389
  138OSM    C6S14943   6.315   6.800   2.919  0.1761  0.4369  0.2413
  138OSM    H6S14944   6.416   6.846   2.923  1.0950 -1.4035 -0.4756
  138OSM    H6T14945   6.308   6.700   2.968 -1.4694  0.3722 -0.0527
  138OSM    C7S14946   6.207   6.891   2.989 -0.3040 -0.4855  0.1932
  138OSM    H7S14947   6.123   6.819   2.998  0.3598 -1.7080 -2.2564
  138OSM    H7T14948   6.170   6.976   2.928 -1.5283 -0.9581  0.2466
  138OSM    C8S14949   6.256   6.926   3.132 -0.3885 -0.1698 -0.1577
  138OSM    H8S14950   6.341   6.997   3.127 -1.5312  1.2358 -0.3961
  138OSM    H8T14951   6.302   6.835   3.175 -1.5777 -1.5404 -1.6860
  138OSM    C9S14952   6.143   6.984   3.219 -0.2084  0.2440  0.5487
  138OSM    H9S14953   6.053   6.922   3.200 -1.6348  1.5451  2.6384
  138OSM    H9T14954   6.119   7.083   3.174 -1.9007 -2.0525 -4.3332
  138OSM   C10S14955   6.186   6.975   3.370  0.2922  0.5956 -0.2826
  138OSM   H10S14956   6.272   7.045   3.378  1.0349 -0.3641  0.3450
  138OSM   H10T14957   6.217   6.870   3.385 -1.2042  0.2925  0.8922
  138OSM   C11S14958   6.075   7.021   3.467  0.0271 -0.1335 -0.0673
  138OSM   H11S14959   5.981   6.969   3.440 -1.7749  1.6959  2.3074
  138OSM   H11T14960   6.055   7.126   3.438 -1.5897 -1.0396 -2.5178
  138OSM   C12S14961   6.110   6.997   3.617  1.2694 -0.3280 -0.1662
  138OSM   H12S14962   6.168   7.081   3.660 -1.1515  2.6147 -2.2771
  138OSM   H12T14963   6.175   6.907   3.620 -0.1140 -1.4078 -1.2170
  138OSM   C13S14964   5.986   6.969   3.711 -0.5226 -0.7843 -0.3362
  138OSM   H13S14965   5.913   6.908   3.654 -2.8369  0.2907  1.3309
  138OSM   H13T14966   5.924   7.058   3.733 -2.3459 -2.2090  0.5688
  138OSM   C14S14967   6.020   6.900   3.845  0.1477  0.0631 -0.0587
  138OSM   H14S14968   6.069   6.981   3.902 -0.1882  0.7056 -0.6677
  138OSM   H14T14969   6.090   6.817   3.824 -0.0082 -0.1698  0.3265
  138OSM   C15S14970   5.901   6.836   3.917  0.1610  0.0215 -0.4214
  138OSM   H15S14971   5.850   6.761   3.852  0.7229  0.0090 -0.8571
  138OSM   H15T14972   5.828   6.918   3.900 -1.4309 -1.8264 -3.6237
  138OSM   C16S14973   5.924   6.790   4.058  1.1694  0.0781  0.5558
  138OSM   H16S14974   5.961   6.867   4.129  1.4441 -1.6596  2.3694
  138OSM   H16T14975   6.005   6.715   4.068  0.4759 -0.5051  2.1581
  138OSM   C17S14976   5.792   6.747   4.123  0.5760 -0.0995  0.0985
  138OSM   H17S14977   5.815   6.740   4.231 -1.5355 -2.7712  0.4821
  138OSM   H17T14978   5.757   6.648   4.085 -2.3369  1.5995 -2.0660
  138OSM   C18S14979   5.682   6.850   4.102  0.7323 -0.0147 -0.7326
  138OSM   H18S14980   5.652   6.863   3.996  0.9336 -3.1209 -1.2784
  138OSM   H18T14981   5.719   6.946   4.142  2.0107 -0.6654 -0.2898
  138OSM   H18U14982   5.595   6.820   4.165  1.3085  0.0941  0.1376
  138OSM    C1F14983   5.892   6.495   2.614  0.1654  0.3566  0.3439
  138OSM     OF14984   5.932   6.399   2.542 -0.2562  0.2005 -0.1360
  138OSM    C2F14985   5.773   6.480   2.703  1.1813 -0.2581 -0.6015
  138OSM    H2F14986   5.679   6.465   2.644 -0.1689  0.2008  1.3308
  138OSM    H2G14987   5.754   6.580   2.748  0.9876 -0.7267  0.3675
  138OSM    C3F14988   5.787   6.364   2.811  0.2408 -0.1923 -0.1595
  138OSM    H3F14989   5.856   6.413   2.883  0.3776  0.5900 -0.8034
  138OSM    H3G14990   5.838   6.277   2.764 -1.5215 -0.4982 -1.6184
  138OSM    C4F14991   5.653   6.317   2.872  0.1013 -0.0005 -0.0519
  138OSM    H4F14992   5.656   6.211   2.906 -0.3578 -0.7353 -2.1261
  138OSM    H4G14993   5.569   6.329   2.801  0.7366 -0.2240 -0.8612
  138OSM    C5F14994   5.619   6.399   3.000  0.3858 -0.0866 -0.2452
  138OSM    H5F14995   5.614   6.506   2.972  2.3395 -0.2270 -1.3474
  138OSM    H5G14996   5.707   6.387   3.068  0.4274 -0.0833 -0.2978
  138OSM    C6F14997   5.490   6.356   3.067  0.1441  0.8407 -0.0117
  138OSM    H6F14998   5.495   6.250   3.101 -2.4406  1.0665  1.3258
  138OSM    H6G14999   5.398   6.358   3.005  0.0195 -1.5006  0.0050
  138OSM    C7F15000   5.467   6.431   3.197 -0.6469  0.3201  0.0613
  138OSM    H7F15001   5.478   6.539   3.171 -1.4854  0.1905 -0.8994
  138OSM    H7G15002   5.558   6.413   3.258 -0.4089  1.1451 -0.0267
  138OSM    C8F15003   5.335   6.399   3.277 -0.6537 -0.7386 -0.3229
  138OSM    H8F15004   5.244   6.379   3.216 -1.9565  0.9573  0.9614
  138OSM    H8G15005   5.292   6.488   3.329  1.2421 -0.2583  0.5207
  138OSM    C9F15006   5.354   6.297   3.396 -0.2038  0.3806 -0.0847
  138OSM    H9F15007   5.289   6.208   3.394  0.1115  0.1441  0.1062
  138OSM   C10F15008   5.450   6.319   3.489 -0.2520 -0.4950  0.1811
  138OSM   H10F15009   5.462   6.239   3.564 -2.3564  0.1158  1.2229
  138OSM   C11F15010   5.550   6.434   3.514 -0.5680  0.4699 -0.6422
  138OSM   H11F15011   5.540   6.519   3.443  0.4365 -0.4461 -1.9247
  138OSM   H11G15012   5.655   6.401   3.501 -0.5582  1.0813 -2.2559
  138OSM   C12F15013   5.527   6.482   3.656 -0.2625 -0.9259 -0.0567
  138OSM   H12F15014   5.418   6.502   3.666 -0.8917 -2.8550 -2.2443
  138OSM   H12G15015   5.569   6.584   3.673  0.5434 -0.8603 -2.1805
  138OSM   C13F15016   5.577   6.395   3.770 -0.5618  0.0331 -0.6784
  138OSM   H13F15017   5.687   6.388   3.773 -0.5755 -1.2250 -2.1373
  138OSM   H13G15018   5.546   6.292   3.745 -1.6329  0.3815 -0.8432
  138OSM   C14F15019   5.506   6.432   3.903 -0.1854 -0.5660  0.5656
  138OSM   H14F15020   5.396   6.427   3.885 -0.6501 -0.1745  2.9538
  138OSM   H14G15021   5.545   6.531   3.934 -0.0349 -0.6138  0.5270
  138OSM   C15F15022   5.548   6.330   4.010 -1.1607 -0.1786  0.1079
  138OSM   H15F15023   5.659   6.340   4.020 -1.2530  1.7874 -0.4664
  138OSM   H15G15024   5.529   6.224   3.986  1.2196 -0.7444  0.4709
  138OSM   C16F15025   5.488   6.351   4.142  0.6191 -0.5013 -0.2471
  138OSM   H16F15026   5.508   6.455   4.176 -2.1554  0.1378 -0.3657
  138OSM   H16G15027   5.527   6.293   4.228 -2.0594 -1.4806  0.4039
  138OSM   C17F15028   5.337   6.330   4.139 -0.6744 -0.0806 -0.9636
  138OSM   H17F15029   5.309   6.223   4.125 -1.6538 -0.0174  0.3502
  138OSM   H17G15030   5.297   6.378   4.047 -2.3907 -0.0987 -0.2669
  138OSM   C18F15031   5.266   6.383   4.264 -0.1820 -0.2172  0.3951
  138OSM   H18F15032   5.339   6.423   4.338  0.8443  0.6175 -1.0036
  138OSM   H18G15033   5.197   6.310   4.311 -1.3520  1.2867  1.1035
  138OSM   H18H15034   5.205   6.471   4.235 -0.5745 -1.0667 -1.5259
  139OSM      N15035   0.237   4.348   1.791  0.6957 -0.0994  0.0827
  139OSM    C1515036   0.212   4.265   1.910 -0.4180 -0.3047  0.3812
  139OSM   H15A15037   0.268   4.173   1.920 -1.7993 -1.0787  1.1826
  139OSM   H15B15038   0.106   4.245   1.918 -0.8593  1.0622 -1.4096
  139OSM   H15C15039   0.241   4.317   2.001  1.4837  0.8616 -0.8265
  139OSM    C1415040   0.381   4.381   1.782 -0.1340  0.6447 -0.1962
  139OSM   H14A15041   0.428   4.428   1.868  1.8926 -0.2347 -0.7674
  139OSM   H14B15042   0.396   4.441   1.694 -3.4615 -0.0235 -1.3374
  139OSM   H14C15043   0.434   4.287   1.786 -0.3066  0.4918 -1.3834
  139OSM    C1315044   0.217   4.285   1.664 -0.1253  0.1312  0.2705
  139OSM   H13A15045   0.116   4.248   1.659  0.8394 -2.9123  1.3215
  139OSM   H13B15046   0.281   4.198   1.664  0.2217  0.3813  1.1572
  139OSM   H13C15047   0.246   4.360   1.592  0.1083 -0.0029  0.2225
  139OSM    C1215048   0.153   4.477   1.800  0.4877 -0.0450  0.3893
  139OSM   H12A15049   0.188   4.542   1.721  2.0846  0.1524  1.2280
  139OSM   H12B15050   0.177   4.531   1.890  3.0939 -0.0111 -0.2480
  139OSM    C1115051  -0.001   4.461   1.788 -0.3540 -0.0568  0.3116
  139OSM   H11A15052  -0.023   4.419   1.687  0.1149  1.3447 -0.4000
  139OSM   H11B15053  -0.036   4.566   1.796  1.9007  0.7491  0.4384
  139OSM      P15054  -0.219   4.380   1.890  0.2962  0.2708  0.0206
  139OSM    O1315055  -0.277   4.502   1.829  0.1016 -0.5668 -0.6087
  139OSM    O1415056  -0.259   4.247   1.837  0.0908  0.5668 -0.3933
  139OSM    O1115057  -0.243   4.381   2.047 -0.0100  0.0744 -0.1034
  139OSM    O1215058  -0.063   4.381   1.886  0.0166 -0.1514 -0.3998
  139OSM    C1S15059  -0.339   4.291   2.108  0.0493 -0.6095  0.2551
  139OSM    H1S15060  -0.309   4.187   2.085  2.1583 -0.2218  1.0117
  139OSM    H1T15061  -0.443   4.311   2.073 -0.3329 -1.0900  1.0905
  139OSM     NF15062  -0.409   4.188   2.327 -0.1857 -0.2767  1.0212
  139OSM    HNF15063  -0.503   4.201   2.356 -0.8079 -0.7999 -0.6695
  139OSM    C2S15064  -0.343   4.308   2.265 -0.2972  0.6975  0.5475
  139OSM    H2S15065  -0.236   4.295   2.288 -0.0654  0.4101 -0.6381
  139OSM    C3S15066  -0.392   4.447   2.317 -0.3958 -0.5004 -0.4877
  139OSM    H3S15067  -0.500   4.456   2.291  0.4714  4.0253 -3.7609
  139OSM     O315068  -0.330   4.561   2.257  0.1952 -0.2962  0.3644
  139OSM    HO315069  -0.285   4.526   2.180 -0.8484 -0.0195 -0.3965
  139OSM    C4S15070  -0.369   4.470   2.468  0.4200 -0.0119  0.6037
  139OSM    H4S15071  -0.263   4.486   2.490  0.5503  0.8698 -0.5408
  139OSM    C5S15072  -0.460   4.490   2.562  0.6414 -0.1426 -0.3296
  139OSM    H5S15073  -0.568   4.493   2.538 -0.1704  1.9979  2.8035
  139OSM    C6S15074  -0.418   4.510   2.704 -0.0037  0.2439 -0.2482
  139OSM    H6S15075  -0.483   4.588   2.750 -0.2771  2.1158 -3.5394
  139OSM    H6T15076  -0.316   4.550   2.718 -0.7656  1.4298  2.5722
  139OSM    C7S15077  -0.425   4.375   2.779  0.3674 -0.1452 -0.0553
  139OSM    H7S15078  -0.381   4.298   2.712  3.0889 -0.2199  1.6245
  139OSM    H7T15079  -0.532   4.354   2.802 -0.0748  2.6356  0.9179
  139OSM    C8S15080  -0.345   4.381   2.908 -0.0281 -0.0197  1.8299
  139OSM    H8S15081  -0.244   4.422   2.885 -0.6219  0.3046 -0.4944
  139OSM    H8T15082  -0.334   4.279   2.951 -0.6197 -1.5159 -1.2740
  139OSM    C9S15083  -0.396   4.479   3.014  0.0601 -0.1089 -0.3608
  139OSM    H9S15084  -0.503   4.454   3.032  1.0197 -2.2055  3.5197
  139OSM    H9T15085  -0.379   4.582   2.976  0.5473 -0.4780 -1.1674
  139OSM   C10S15086  -0.320   4.477   3.149  0.2927 -0.2417  0.0697
  139OSM   H10S15087  -0.210   4.492   3.140  0.2448 -0.1690 -0.4028
  139OSM   H10T15088  -0.335   4.375   3.190 -2.4381  0.2401  0.4565
  139OSM   C11S15089  -0.400   4.567   3.247  0.2774 -0.0715  0.7490
  139OSM   H11S15090  -0.505   4.538   3.220  0.1011  0.6864  0.6120
  139OSM   H11T15091  -0.388   4.674   3.222 -0.2923 -0.3555 -0.8945
  139OSM   C12S15092  -0.366   4.532   3.392 -0.4905 -0.1762  0.7756
  139OSM   H12S15093  -0.257   4.550   3.405 -0.2945  0.8990 -1.8627
  139OSM   H12T15094  -0.403   4.428   3.403 -0.2209 -0.1499  2.1103
  139OSM   C13S15095  -0.425   4.609   3.515  0.4980  0.1568  0.4872
  139OSM   H13S15096  -0.534   4.621   3.500  0.3101  0.8040  2.1297
  139OSM   H13T15097  -0.384   4.711   3.524 -0.0494  0.2556  2.3484
  139OSM   C14S15098  -0.396   4.531   3.645  0.7053 -0.9075 -1.3488
  139OSM   H14S15099  -0.290   4.498   3.642  1.8892  2.1937  1.2414
  139OSM   H14T15100  -0.461   4.441   3.647 -1.0673  0.3234  1.0046
  139OSM   C15S15101  -0.414   4.610   3.774 -0.3649  0.1659 -0.1656
  139OSM   H15S15102  -0.434   4.528   3.846 -0.2271 -1.3086 -1.7353
  139OSM   H15T15103  -0.501   4.680   3.768 -1.3718 -1.0319  0.1333
  139OSM   C16S15104  -0.288   4.687   3.817  0.6772  0.0034  0.0010
  139OSM   H16S15105  -0.240   4.742   3.733  2.1164  3.7486  3.0056
  139OSM   H16T15106  -0.211   4.613   3.846  3.3904  2.6667  0.0126
  139OSM   C17S15107  -0.300   4.802   3.922  0.2006  0.4642 -0.5727
  139OSM   H17S15108  -0.340   4.747   4.009  0.9609  1.4394  0.4245
  139OSM   H17T15109  -0.371   4.875   3.880 -1.6316 -0.6222  0.5205
  139OSM   C18S15110  -0.159   4.850   3.978  0.1422 -0.1988  0.2308
  139OSM   H18S15111  -0.098   4.765   4.015  0.9042  0.1481 -0.2003
  139OSM   H18T15112  -0.166   4.901   4.076  0.7344 -2.7569  1.7009
  139OSM   H18U15113  -0.100   4.910   3.905  0.4099 -0.2455  0.4074
  139OSM    C1F15114  -0.351   4.069   2.337 -0.0079 -0.0263  0.3333
  139OSM     OF15115  -0.241   4.047   2.289  0.0921 -0.0974  0.4929
  139OSM    C2F15116  -0.437   3.964   2.410 -0.2017  0.4700  0.5679
  139OSM    H2F15117  -0.458   3.888   2.331  0.1294  1.2745 -0.3216
  139OSM    H2G15118  -0.541   4.000   2.428 -0.4259 -0.1600  0.5467
  139OSM    C3F15119  -0.388   3.901   2.543 -0.6381  0.0317  0.3359
  139OSM    H3F15120  -0.282   3.871   2.528 -0.3142  0.4419  1.6292
  139OSM    H3G15121  -0.445   3.809   2.570  0.6684 -1.3754 -1.4595
  139OSM    C4F15122  -0.376   3.985   2.663  0.0973 -0.0380  0.0384
  139OSM    H4F15123  -0.479   4.018   2.690  0.6738  0.3083  1.9928
  139OSM    H4G15124  -0.314   4.070   2.628 -0.5831  0.0190 -1.0620
  139OSM    C5F15125  -0.300   3.910   2.778  0.4211  0.4503 -0.3446
  139OSM    H5F15126  -0.198   3.885   2.744  0.8450  2.0478 -0.3541
  139OSM    H5G15127  -0.371   3.828   2.802 -0.8562  2.2584  2.6422
  139OSM    C6F15128  -0.305   4.005   2.903  0.4907  0.8479  0.3307
  139OSM    H6F15129  -0.405   4.055   2.901  0.6787  1.2156 -0.4715
  139OSM    H6G15130  -0.229   4.084   2.884  1.7544 -0.6430 -1.0974
  139OSM    C7F15131  -0.275   3.938   3.035 -0.5486  0.0070 -0.1836
  139OSM    H7F15132  -0.196   3.860   3.024 -0.2603  0.3954 -0.9435
  139OSM    H7G15133  -0.357   3.864   3.049 -0.5150 -0.2308 -1.1251
  139OSM    C8F15134  -0.255   4.042   3.153 -0.3977 -0.2277  0.1348
  139OSM    H8F15135  -0.357   4.081   3.174  0.1388  0.8484  0.8304
  139OSM    H8G15136  -0.204   4.130   3.108  0.2914 -1.0722 -0.7971
  139OSM    C9F15137  -0.189   4.000   3.277 -0.0450 -0.1532  0.1013
  139OSM    H9F15138  -0.088   3.963   3.253  0.0239 -0.4237  0.7672
  139OSM   C10F15139  -0.222   3.996   3.400  1.3097  0.9173 -0.0552
  139OSM   H10F15140  -0.151   3.962   3.477  1.2934 -0.7760 -0.7462
  139OSM   C11F15141  -0.359   4.038   3.448  0.4619 -0.1098 -0.2935
  139OSM   H11F15142  -0.429   3.952   3.442  0.9011 -0.4768 -0.2241
  139OSM   H11G15143  -0.403   4.115   3.383 -1.4261 -0.1550  0.8585
  139OSM   C12F15144  -0.363   4.101   3.584  0.7402 -0.5424  0.4605
  139OSM   H12F15145  -0.460   4.151   3.604  2.3885  1.4709  4.5601
  139OSM   H12G15146  -0.293   4.186   3.596 -0.8818  0.9319 -0.1113
  139OSM   C13F15147  -0.353   3.989   3.676  0.2642 -0.0635 -0.2837
  139OSM   H13F15148  -0.276   3.916   3.644 -0.1081 -1.8129  2.4766
  139OSM   H13G15149  -0.449   3.934   3.675 -0.2079  0.7272  0.0385
  139OSM   C14F15150  -0.346   4.035   3.827 -0.3000 -0.2511 -0.6058
  139OSM   H14F15151  -0.422   3.972   3.879  0.3996 -0.2748  0.4252
  139OSM   H14G15152  -0.377   4.141   3.826  0.4058 -0.0390 -0.4518
  139OSM   C15F15153  -0.203   4.023   3.888  0.2608 -0.8313  0.3963
  139OSM   H15F15154  -0.214   4.069   3.989 -3.1925  1.6203 -0.8689
  139OSM   H15G15155  -0.138   4.083   3.821 -0.5573 -1.2213 -0.7875
  139OSM   C16F15156  -0.163   3.873   3.907 -0.4617  0.4317  0.3522
  139OSM   H16F15157  -0.171   3.824   3.808 -0.5748 -0.3393  0.7337
  139OSM   H16G15158  -0.229   3.821   3.980 -0.4353  1.3086  1.0084
  139OSM   C17F15159  -0.018   3.859   3.953  0.9844 -0.1580  0.5203
  139OSM   H17F15160   0.020   3.764   3.996  1.7556 -0.3457 -0.5326
  139OSM   H17G15161  -0.009   3.927   4.040  2.7586 -1.9346  1.7914
  139OSM   C18F15162   0.074   3.899   3.842  0.7615 -0.2008 -0.0839
  139OSM   H18F15163   0.177   3.860   3.859  0.3830 -1.0220  0.3971
  139OSM   H18G15164   0.083   4.009   3.836  1.9269 -0.2615  0.2524
  139OSM   H18H15165   0.051   3.855   3.742  0.0258  1.8182 -0.8432
  140OSM      N15166   5.349   0.977   2.063  0.2838 -0.7872 -0.6555
  140OSM    C1515167   5.439   0.977   1.942  0.1227  0.0868 -0.9219
  140OSM   H15A15168   5.434   1.071   1.889 -2.0178 -0.3060 -1.5363
  140OSM   H15B15169   5.398   0.907   1.870  1.3023 -0.5781 -0.9662
  140OSM   H15C15170   5.542   0.956   1.965 -0.1971  0.8750  1.4347
  140OSM    C1415171   5.212   0.975   2.023  0.6176 -0.9409  0.3584
  140OSM   H14A15172   5.135   0.971   2.099 -1.4343  0.3266 -1.5064
  140OSM   H14B15173   5.194   0.893   1.954 -1.6277 -1.8934  1.9567
  140OSM   H14C15174   5.189   1.065   1.967  2.3821  1.1262  2.7334
  140OSM    C1315175   5.370   0.857   2.150 -0.0552 -0.6579  0.2720
  140OSM   H13A15176   5.469   0.816   2.160 -0.7054 -2.1973  0.6378
  140OSM   H13B15177   5.316   0.776   2.103 -1.3230  0.7154 -0.7381
  140OSM   H13C15178   5.330   0.871   2.249 -0.0596 -1.4569  0.3888
  140OSM    C1215179   5.375   1.103   2.150 -0.1824  0.0980 -1.2795
  140OSM   H12A15180   5.311   1.092   2.236  1.9200  2.2316  0.7050
  140OSM   H12B15181   5.342   1.193   2.102 -0.7779  0.0520 -0.9556
  140OSM    C1115182   5.520   1.125   2.202  0.6962 -0.4059  0.0506
  140OSM   H11A15183   5.548   1.031   2.254  0.8399 -0.5383 -0.2616
  140OSM   H11B15184   5.520   1.198   2.285 -0.1808  3.1704 -2.8175
  140OSM      P15185   5.762   1.127   2.121  0.1094  0.3598  0.3127
  140OSM    O1315186   5.777   0.980   2.091 -0.3911 -0.3973 -0.1301
  140OSM    O1415187   5.851   1.223   2.043 -0.2351  0.1738 -0.3200
  140OSM    O1115188   5.800   1.150   2.274 -0.0360  0.4615 -0.0476
  140OSM    O1215189   5.611   1.174   2.108  0.1385 -0.0258  0.3285
  140OSM    C1S15190   5.796   1.276   2.343 -0.9870 -0.2624 -0.1230
  140OSM    H1S15191   5.730   1.349   2.292 -3.1319 -4.0900 -3.4695
  140OSM    H1T15192   5.899   1.316   2.352 -1.1398  0.1249 -0.0698
  140OSM     NF15193   5.699   1.398   2.544  0.1965  0.1811 -0.6862
  140OSM    HNF15194   5.761   1.436   2.611  0.4961  0.6502 -1.2228
  140OSM    C2S15195   5.731   1.268   2.482 -0.0853  0.8876  0.7813
  140OSM    H2S15196   5.641   1.211   2.452  1.4517 -1.1256 -0.2240
  140OSM    C3S15197   5.823   1.184   2.579 -0.3936 -0.1133  0.3968
  140OSM    H3S15198   5.910   1.249   2.601 -0.2789 -0.3595  0.6821
  140OSM     O315199   5.883   1.068   2.517  0.9453 -0.1704 -0.3346
  140OSM    HO315200   5.857   1.084   2.426  2.0632  0.6696 -0.5325
  140OSM    C4S15201   5.760   1.159   2.711  0.2680 -0.3327  0.0755
  140OSM    H4S15202   5.787   1.242   2.779 -0.8224 -0.6623  0.9531
  140OSM    C5S15203   5.700   1.046   2.753  0.5998  0.4632  0.0269
  140OSM    H5S15204   5.706   0.961   2.683  1.4702  1.0115 -0.5896
  140OSM    C6S15205   5.657   1.016   2.892  0.8652 -0.8356  0.0276
  140OSM    H6S15206   5.623   0.910   2.901 -0.7799 -0.3019  0.2725
  140OSM    H6T15207   5.569   1.081   2.910  0.6020 -1.7093  2.3510
  140OSM    C7S15208   5.765   1.048   2.996 -0.5062 -0.2305 -0.2427
  140OSM    H7S15209   5.780   1.158   2.987 -2.4133  0.1479  0.6113
  140OSM    H7T15210   5.865   1.008   2.970  1.5915  4.4624 -0.3241
  140OSM    C8S15211   5.721   1.019   3.142 -0.6973 -0.3134 -1.1220
  140OSM    H8S15212   5.674   0.919   3.153 -0.9618  0.0567  1.9534
  140OSM    H8T15213   5.638   1.090   3.162 -1.7793 -1.2694 -2.0668
  140OSM    C9S15214   5.826   1.051   3.246  0.1000  0.2530 -0.1398
  140OSM    H9S15215   5.855   1.158   3.245 -2.0270  0.8829 -1.5020
  140OSM    H9T15216   5.919   0.992   3.237  0.1033  0.3333 -0.6579
  140OSM   C10S15217   5.770   1.017   3.386 -0.4170 -0.3361  0.2952
  140OSM   H10S15218   5.728   0.914   3.381 -1.9502  0.3021 -1.0124
  140OSM   H10T15219   5.685   1.088   3.399  0.9832  1.7573 -1.3467
  140OSM   C11S15220   5.874   1.036   3.494  0.2526  0.1391  0.0924
  140OSM   H11S15221   5.885   1.145   3.511 -1.5013  0.4652 -0.6525
  140OSM   H11T15222   5.965   0.993   3.448  0.8948  0.0938  1.3876
  140OSM   C12S15223   5.838   0.966   3.630  0.0668  0.3668  0.0889
  140OSM   H12S15224   5.812   0.859   3.611 -0.0094  0.3181  0.4669
  140OSM   H12T15225   5.751   1.012   3.681 -0.5035 -0.1658 -0.3801
  140OSM   C13S15226   5.954   0.980   3.733 -0.2120  0.2975  0.6567
  140OSM   H13S15227   5.987   1.086   3.730  0.6230  0.0175 -1.2179
  140OSM   H13T15228   6.045   0.927   3.698 -0.7902 -0.7939  0.7734
  140OSM   C14S15229   5.916   0.929   3.874 -0.0588 -0.4550  0.2530
  140OSM   H14S15230   5.872   0.828   3.857 -0.6124  0.1057 -2.0102
  140OSM   H14T15231   5.833   0.991   3.914  0.7438 -0.4364  1.9419
  140OSM   C15S15232   6.032   0.942   3.978  0.5308  0.2775 -0.1264
  140OSM   H15S15233   6.063   1.049   3.977  0.4373  0.3091  0.3863
  140OSM   H15T15234   6.113   0.874   3.943 -0.2267 -0.1693 -1.0726
  140OSM   C16S15235   5.984   0.920   4.118  0.3635 -0.6219 -0.5822
  140OSM   H16S15236   5.927   0.826   4.133 -1.7747  0.7456  0.3429
  140OSM   H16T15237   5.908   0.999   4.139  1.9333  1.1506 -1.2051
  140OSM   C17S15238   6.089   0.927   4.227 -0.1411  0.4698 -0.2811
  140OSM   H17S15239   6.113   1.032   4.254  1.2544  0.3779 -1.0514
  140OSM   H17T15240   6.176   0.866   4.191 -0.6897  0.4703 -1.6697
  140OSM   C18S15241   6.043   0.863   4.360  0.1071  0.2422 -0.3104
  140OSM   H18S15242   5.974   0.936   4.408 -0.7283  1.6712 -3.4447
  140OSM   H18T15243   6.136   0.845   4.419 -0.2553  1.2748  0.6128
  140OSM   H18U15244   5.994   0.765   4.339  0.3268  0.1429 -0.3678
  140OSM    C1F15245   5.605   1.482   2.505 -0.4404  0.1712  0.3592
  140OSM     OF15246   5.524   1.447   2.416 -0.3266 -0.6899  0.0983
  140OSM    C2F15247   5.598   1.616   2.566 -0.1108  0.0644  0.6686
  140OSM    H2F15248   5.575   1.680   2.479 -0.3520 -1.9867 -0.8472
  140OSM    H2G15249   5.699   1.654   2.591  0.4203 -0.7285 -0.2002
  140OSM    C3F15250   5.490   1.618   2.681 -0.1248  0.1906  0.2337
  140OSM    H3F15251   5.397   1.569   2.645  0.6841 -0.0111 -1.7317
  140OSM    H3G15252   5.458   1.724   2.690  1.0462  0.5523  0.2734
  140OSM    C4F15253   5.538   1.532   2.806  1.2294 -0.6528  0.2276
  140OSM    H4F15254   5.634   1.567   2.849  0.0833  0.0731  2.3880
  140OSM    H4G15255   5.555   1.426   2.777  0.2542 -0.2045 -2.1986
  140OSM    C5F15256   5.434   1.537   2.920 -0.2545 -0.6981  0.1075
  140OSM    H5F15257   5.333   1.510   2.881 -1.9091 -1.0110  4.1268
  140OSM    H5G15258   5.428   1.643   2.952  0.1092  0.1024 -2.2953
  140OSM    C6F15259   5.464   1.452   3.045 -0.6808  0.6003  1.0893
  140OSM    H6F15260   5.570   1.475   3.069 -0.6286  1.0226  0.4879
  140OSM    H6G15261   5.445   1.345   3.019 -0.5200  0.9990 -0.7709
  140OSM    C7F15262   5.379   1.495   3.169  0.4940  0.0078 -0.2167
  140OSM    H7F15263   5.279   1.447   3.164 -0.5460  2.1104 -0.6321
  140OSM    H7G15264   5.360   1.604   3.163  1.1549  0.1448  0.1642
  140OSM    C8F15265   5.436   1.458   3.309  0.6182 -0.2261 -0.0512
  140OSM    H8F15266   5.360   1.509   3.373  0.0509 -0.3454 -0.6173
  140OSM    H8G15267   5.542   1.486   3.323  0.7838 -1.3434  1.0927
  140OSM    C9F15268   5.427   1.310   3.347  0.2154 -1.1708 -0.1194
  140OSM    H9F15269   5.452   1.240   3.266 -0.8885 -0.9488 -0.6646
  140OSM   C10F15270   5.386   1.269   3.467  0.0639 -0.2875  0.0603
  140OSM   H10F15271   5.402   1.165   3.498  3.2267 -0.1830 -0.8823
  140OSM   C11F15272   5.355   1.366   3.582 -0.2529 -0.2064  0.9044
  140OSM   H11F15273   5.244   1.364   3.585 -0.4730 -0.0905 -2.6767
  140OSM   H11G15274   5.391   1.470   3.565  0.1087 -0.5179 -0.4017
  140OSM   C12F15275   5.403   1.314   3.719 -0.0256  0.6555 -0.0984
  140OSM   H12F15276   5.384   1.205   3.729  3.5801  0.1451  3.3585
  140OSM   H12G15277   5.353   1.388   3.785 -2.6862  4.4432 -5.5732
  140OSM   C13F15278   5.553   1.338   3.741 -0.3390 -0.6464 -0.0933
  140OSM   H13F15279   5.566   1.448   3.728  3.1750 -1.1638 -2.5440
  140OSM   H13G15280   5.625   1.288   3.672  0.7943 -1.9608  1.9252
  140OSM   C14F15281   5.612   1.297   3.881  0.1343  0.6301 -0.9129
  140OSM   H14F15282   5.614   1.186   3.894  0.2859  0.5924 -1.2389
  140OSM   H14G15283   5.560   1.338   3.970  0.4011 -1.6321  0.3536
  140OSM   C15F15284   5.759   1.352   3.904  0.2565 -0.4420  1.1789
  140OSM   H15F15285   5.763   1.463   3.908  4.1172 -0.4692  1.3623
  140OSM   H15G15286   5.817   1.321   3.815 -0.4657 -1.5515  1.0706
  140OSM   C16F15287   5.820   1.307   4.039 -0.5877 -0.3545  0.1096
  140OSM   H16F15288   5.919   1.351   4.062 -1.5242  0.6517  2.5459
  140OSM   H16G15289   5.827   1.196   4.037  4.4439 -0.2695 -2.0502
  140OSM   C17F15290   5.726   1.331   4.161  0.0635 -0.3688  0.1186
  140OSM   H17F15291   5.782   1.303   4.253 -1.2280  0.1029  1.0698
  140OSM   H17G15292   5.641   1.260   4.157  0.3404 -0.7794  1.1170
  140OSM   C18F15293   5.699   1.480   4.190 -0.2332  0.1174 -0.2248
  140OSM   H18F15294   5.631   1.479   4.277  1.8932  2.6582  1.5930
  140OSM   H18G15295   5.648   1.542   4.113 -1.3438  1.9040  1.8493
  140OSM   H18H15296   5.790   1.534   4.222  0.0391 -0.7298  0.4716
  141OSM      N15297   0.569   6.076   2.087 -0.3570 -0.3918  0.2829
  141OSM    C1515298   0.633   6.184   2.169 -0.4117  0.4382  0.3312
  141OSM   H15A15299   0.736   6.159   2.190 -0.0670  0.9937 -0.6614
  141OSM   H15B15300   0.574   6.187   2.260  0.4026 -0.0932  0.8983
  141OSM   H15C15301   0.626   6.279   2.119 -0.4818 -0.6952 -1.9178
  141OSM    C1415302   0.644   6.063   1.959 -0.3830  0.6422  0.0818
  141OSM   H14A15303   0.739   6.016   1.981  0.7425  1.7897 -2.1062
  141OSM   H14B15304   0.675   6.155   1.912  1.5849  0.8529  1.6589
  141OSM   H14C15305   0.585   5.998   1.895 -1.9595  0.0732  1.9820
  141OSM    C1315306   0.579   5.945   2.157  0.3822 -0.4842  0.1533
  141OSM   H13A15307   0.682   5.929   2.187  0.5976  2.6119  1.4087
  141OSM   H13B15308   0.549   5.860   2.098  1.0121 -1.1793  0.8019
  141OSM   H13C15309   0.520   5.949   2.248  0.4953 -0.6004  0.2319
  141OSM    C1215310   0.429   6.119   2.060 -0.0767 -0.5556 -0.3584
  141OSM   H12A15311   0.371   6.114   2.151  0.5352 -1.0944  0.0072
  141OSM   H12B15312   0.380   6.047   1.995  0.1771 -0.9517 -0.1114
  141OSM    C1115313   0.404   6.256   1.991  0.0570  0.4019  0.0626
  141OSM   H11A15314   0.438   6.248   1.886  0.6292  1.3143  0.1715
  141OSM   H11B15315   0.463   6.337   2.038 -0.1109  0.5558  0.0063
  141OSM      P15316   0.202   6.412   2.049  0.0206 -0.3592 -0.0839
  141OSM    O1315317   0.233   6.540   1.976  0.8033  0.1306 -0.3311
  141OSM    O1415318   0.063   6.373   2.078  0.6724 -0.4192 -0.3470
  141OSM    O1115319   0.279   6.443   2.190 -0.4381 -0.3605 -0.4454
  141OSM    O1215320   0.266   6.281   1.993  0.0784  0.0062 -0.0167
  141OSM    C1S15321   0.291   6.337   2.280 -0.3712 -0.3986  0.0070
  141OSM    H1S15322   0.384   6.282   2.254 -3.0845 -5.0186 -1.1597
  141OSM    H1T15323   0.209   6.261   2.281  0.2681 -1.1073 -0.6996
  141OSM     NF15324   0.316   6.277   2.520 -0.0619  0.6381  0.4995
  141OSM    HNF15325   0.230   6.239   2.554 -1.0710  1.6115 -0.8629
  141OSM    C2S15326   0.297   6.384   2.432  0.1012 -0.0143  0.7368
  141OSM    H2S15327   0.386   6.450   2.437 -0.1177  0.1898  2.5817
  141OSM    C3S15328   0.172   6.464   2.474  1.1272 -0.0313 -0.5445
  141OSM    H3S15329   0.076   6.410   2.460  0.4261 -0.4484  4.2180
  141OSM     O315330   0.150   6.587   2.397 -0.1702  0.1724  0.1985
  141OSM    HO315331   0.203   6.573   2.318  1.2175  0.8588  0.9764
  141OSM    C4S15332   0.184   6.498   2.628 -0.8448  0.4008 -0.1991
  141OSM    H4S15333   0.152   6.417   2.695 -4.5487  3.3166  1.9584
  141OSM    C5S15334   0.250   6.606   2.687 -0.7034  0.1645  0.5885
  141OSM    H5S15335   0.303   6.675   2.621 -2.5494  0.2911 -0.8217
  141OSM    C6S15336   0.285   6.615   2.830  0.7065  0.1219  0.0119
  141OSM    H6S15337   0.235   6.706   2.869 -0.7935  0.6773 -2.9217
  141OSM    H6T15338   0.394   6.638   2.840  1.6216 -2.9470 -1.3873
  141OSM    C7S15339   0.264   6.501   2.931  0.3352 -0.4294  0.3328
  141OSM    H7S15340   0.287   6.400   2.891 -0.4055 -1.6737  2.8426
  141OSM    H7T15341   0.155   6.483   2.939  0.4328 -1.3936 -0.2823
  141OSM    C8S15342   0.349   6.507   3.059 -0.1164  0.2314  0.5336
  141OSM    H8S15343   0.447   6.554   3.039  0.5063  0.0298  2.7755
  141OSM    H8T15344   0.378   6.402   3.081  0.4110  0.1861 -0.3452
  141OSM    C9S15345   0.273   6.570   3.176  0.2609  0.5223  0.0937
  141OSM    H9S15346   0.228   6.664   3.137  2.6974  1.3068 -0.9854
  141OSM    H9T15347   0.348   6.595   3.254 -0.5991 -0.4421  1.2748
  141OSM   C10S15348   0.179   6.470   3.239  0.5197 -0.7741 -0.3855
  141OSM   H10S15349   0.236   6.374   3.247  0.5858 -0.6699  0.5937
  141OSM   H10T15350   0.089   6.459   3.176 -1.6922  0.1229  2.4182
  141OSM   C11S15351   0.129   6.519   3.373  0.0525 -0.1582  0.0600
  141OSM   H11S15352   0.096   6.623   3.356  1.0095  0.1589  0.0874
  141OSM   H11T15353   0.211   6.513   3.448 -1.2285  0.1715  1.5413
  141OSM   C12S15354   0.028   6.431   3.444  0.0349 -0.1930 -0.0772
  141OSM   H12S15355  -0.030   6.360   3.381 -0.7857 -1.7487  2.3055
  141OSM   H12T15356  -0.050   6.498   3.486 -1.0427  0.6362 -3.0966
  141OSM   C13S15357   0.089   6.342   3.546 -0.9399 -0.4110  0.5954
  141OSM   H13S15358   0.139   6.407   3.621 -0.2259 -0.7957  0.4585
  141OSM   H13T15359   0.168   6.279   3.500 -1.9073 -2.2287  1.3182
  141OSM   C14S15360  -0.005   6.236   3.610 -0.1985 -0.5145 -0.1198
  141OSM   H14S15361  -0.030   6.154   3.539  1.6479 -1.1492 -0.0846
  141OSM   H14T15362  -0.100   6.289   3.633 -0.5991  0.1120 -2.8456
  141OSM   C15S15363   0.061   6.168   3.729  0.1007  0.4115 -0.2475
  141OSM   H15S15364   0.095   6.235   3.811  1.8897  0.0049 -0.6257
  141OSM   H15T15365   0.149   6.112   3.694  1.6316  1.0227  2.3628
  141OSM   C16S15366  -0.034   6.072   3.798  0.2118 -0.2343  0.3268
  141OSM   H16S15367  -0.120   6.130   3.839  1.6409  2.2566  0.0124
  141OSM   H16T15368   0.013   6.031   3.890 -0.3012  2.1940  1.7693
  141OSM   C17S15369  -0.093   5.943   3.720 -0.5588 -0.1891 -0.4157
  141OSM   H17S15370  -0.004   5.887   3.686 -0.3398 -0.8147  1.0770
  141OSM   H17T15371  -0.143   5.988   3.632 -1.7542  2.7232  1.5542
  141OSM   C18S15372  -0.187   5.861   3.813 -1.0821  0.1032 -0.1632
  141OSM   H18S15373  -0.121   5.793   3.870 -1.7578  0.3025  0.8832
  141OSM   H18T15374  -0.245   5.797   3.742  1.3233 -0.0090 -2.1623
  141OSM   H18U15375  -0.249   5.930   3.873 -0.2525  0.7318 -0.0233
  141OSM    C1F15376   0.435   6.211   2.527  0.3088 -1.1103  0.5867
  141OSM     OF15377   0.529   6.272   2.474 -0.6611 -0.2285 -0.0215
  141OSM    C2F15378   0.431   6.076   2.591 -0.7883  0.1949 -0.1272
  141OSM    H2F15379   0.400   6.005   2.511  0.5664  0.7957 -1.2320
  141OSM    H2G15380   0.355   6.087   2.671  0.4897  0.1761  1.1389
  141OSM    C3F15381   0.566   6.018   2.645 -0.5476 -0.5455 -0.6024
  141OSM    H3F15382   0.653   6.059   2.591 -1.9083  5.8006  1.2251
  141OSM    H3G15383   0.549   5.908   2.652 -0.8679 -0.5061 -0.7437
  141OSM    C4F15384   0.582   6.077   2.790  0.9791  0.5335 -0.5075
  141OSM    H4F15385   0.505   6.061   2.868  3.8052 -0.9151  2.2465
  141OSM    H4G15386   0.585   6.188   2.786 -1.0993  0.6889  0.7339
  141OSM    C5F15387   0.699   6.004   2.862  0.1980  0.3918 -0.1504
  141OSM    H5F15388   0.776   5.969   2.789  1.3102  0.6166  0.8776
  141OSM    H5G15389   0.667   5.908   2.908 -0.7963  0.5704 -0.4413
  141OSM    C6F15390   0.771   6.091   2.964  1.4027 -0.3615  0.7631
  141OSM    H6F15391   0.826   6.160   2.896 -0.5262 -0.6455 -1.2087
  141OSM    H6G15392   0.846   6.041   3.028  0.8228 -0.7122  1.1801
  141OSM    C7F15393   0.678   6.167   3.054  0.3703  0.6636  0.3996
  141OSM    H7F15394   0.605   6.223   2.993 -0.2490  0.3942  0.8847
  141OSM    H7G15395   0.742   6.244   3.102  1.6678 -0.1664  0.0861
  141OSM    C8F15396   0.603   6.074   3.151  0.1207  0.9156  0.2318
  141OSM    H8F15397   0.673   6.041   3.231 -1.1339 -0.4223  0.8134
  141OSM    H8G15398   0.578   5.981   3.095  0.6441  1.1288 -0.3731
  141OSM    C9F15399   0.472   6.121   3.212  0.1409  0.0677 -0.7299
  141OSM    H9F15400   0.395   6.140   3.136  1.9680  1.2251 -2.3599
  141OSM   C10F15401   0.437   6.127   3.347  0.2130 -0.1408  0.2484
  141OSM   H10F15402   0.338   6.160   3.383  0.7939 -0.1324  1.9411
  141OSM   C11F15403   0.527   6.092   3.459 -0.2967  0.0290 -0.1603
  141OSM   H11F15404   0.631   6.131   3.457 -0.2539  0.0738  1.7695
  141OSM   H11G15405   0.533   5.981   3.466  2.0672  0.0910 -0.1869
  141OSM   C12F15406   0.474   6.147   3.590 -0.7393  0.0611 -0.2448
  141OSM   H12F15407   0.377   6.096   3.612 -1.2813  1.2427  0.1945
  141OSM   H12G15408   0.459   6.257   3.586 -1.1463  0.0610  0.8409
  141OSM   C13F15409   0.567   6.125   3.714  0.2525  0.3548  0.5946
  141OSM   H13F15410   0.659   6.182   3.691  0.2708  0.8159  1.7943
  141OSM   H13G15411   0.591   6.016   3.721 -0.7977  0.1484  1.1445
  141OSM   C14F15412   0.505   6.182   3.842  1.0126 -0.7474 -0.1215
  141OSM   H14F15413   0.474   6.286   3.821 -0.0429 -1.4071 -2.1735
  141OSM   H14G15414   0.581   6.190   3.922 -0.1250 -1.3223  1.0512
  141OSM   C15F15415   0.395   6.091   3.899 -0.2477  0.3105  0.4219
  141OSM   H15F15416   0.453   6.000   3.925 -0.3623 -0.0736 -0.6237
  141OSM   H15G15417   0.334   6.071   3.809 -0.2633 -0.2517  0.5581
  141OSM   C16F15418   0.319   6.159   4.011  0.2162 -0.0753  0.1408
  141OSM   H16F15419   0.221   6.108   4.020  0.4390 -0.5638 -0.1987
  141OSM   H16G15420   0.303   6.267   3.987  1.1619  0.2175  0.7325
  141OSM   C17F15421   0.402   6.155   4.148  1.1456 -0.2144  0.2800
  141OSM   H17F15422   0.507   6.187   4.134  0.8634  1.0534  0.9665
  141OSM   H17G15423   0.402   6.046   4.174  1.4810 -0.2654  0.0697
  141OSM   C18F15424   0.338   6.230   4.259  1.2079  0.2056 -0.0817
  141OSM   H18F15425   0.399   6.203   4.347  1.5767 -2.0972 -0.9733
  141OSM   H18G15426   0.236   6.191   4.282  1.8310 -2.1468 -1.0406
  141OSM   H18H15427   0.343   6.337   4.231 -0.4139  0.4460  0.3970
  142OSM      N15428   2.423   2.051   2.180  0.0298  0.2144  0.0409
  142OSM    C1515429   2.514   2.101   2.077 -0.4646  0.2723  0.4891
  142OSM   H15A15430   2.573   2.189   2.102  3.1464 -1.8778  0.2570
  142OSM   H15B15431   2.471   2.112   1.978 -0.4919  2.7018  0.6960
  142OSM   H15C15432   2.594   2.029   2.072 -1.0487 -0.3019 -0.9566
  142OSM    C1415433   2.297   2.136   2.172  0.2467 -0.8507 -1.4321
  142OSM   H14A15434   2.330   2.238   2.154  0.6535 -0.8607 -0.7565
  142OSM   H14B15435   2.225   2.130   2.252 -0.1164  0.6046 -1.6118
  142OSM   H14C15436   2.245   2.109   2.081  0.5003 -1.3686 -1.4259
  142OSM    C1315437   2.392   1.916   2.153 -0.2173 -0.0255 -0.1367
  142OSM   H13A15438   2.298   1.893   2.201 -0.0096  1.2597  0.9333
  142OSM   H13B15439   2.470   1.842   2.164 -2.1642 -2.4016 -1.3013
  142OSM   H13C15440   2.373   1.895   2.049 -1.0222 -0.2303  0.0466
  142OSM    C1215441   2.491   2.059   2.325  0.5238 -0.9172  0.2540
  142OSM   H12A15442   2.571   1.986   2.322  1.6878  0.3010  0.4438
  142OSM   H12B15443   2.419   2.018   2.394 -0.1487 -0.2918 -0.0650
  142OSM    C1115444   2.548   2.192   2.378 -1.4229 -0.5168 -0.6040
  142OSM   H11A15445   2.589   2.174   2.479 -1.2692 -2.1288 -0.9142
  142OSM   H11B15446   2.471   2.271   2.390  1.9786  2.5489  3.9644
  142OSM      P15447   2.803   2.185   2.303  0.1758 -0.2065 -0.0210
  142OSM    O1315448   2.809   2.040   2.340  0.0498 -0.4572  0.0993
  142OSM    O1415449   2.877   2.223   2.182 -0.4577  0.3943 -0.0838
  142OSM    O1115450   2.842   2.266   2.431 -0.4350 -0.1013  0.8803
  142OSM    O1215451   2.655   2.237   2.286 -0.3110  0.7930 -0.0515
  142OSM    C1S15452   2.854   2.405   2.425 -0.0877  0.2721 -0.1232
  142OSM    H1S15453   2.765   2.444   2.371 -1.4472 -1.2385  0.9420
  142OSM    H1T15454   2.951   2.445   2.388  1.1801 -0.7412  1.8886
  142OSM     NF15455   2.840   2.605   2.579  0.2067 -0.2059  0.0386
  142OSM    HNF15456   2.901   2.659   2.636 -0.4518  1.2446 -0.5668
  142OSM    C2S15457   2.847   2.462   2.572  0.1399 -0.8023  0.1684
  142OSM    H2S15458   2.753   2.419   2.613 -1.7024  1.0057 -1.9097
  142OSM    C3S15459   2.962   2.402   2.662 -0.0342 -0.6485  0.3380
  142OSM    H3S15460   3.055   2.451   2.624 -1.8397  1.2586 -2.0008
  142OSM     O315461   2.977   2.258   2.661 -0.0730  0.1720 -0.5093
  142OSM    HO315462   2.930   2.245   2.578 -2.6263  2.2711  0.4680
  142OSM    C4S15463   2.946   2.459   2.797  0.1273 -0.8042 -0.3979
  142OSM    H4S15464   2.985   2.562   2.797 -2.0899  0.0877 -1.0053
  142OSM    C5S15465   2.890   2.395   2.904  0.6576  0.0491 -0.2980
  142OSM    H5S15466   2.848   2.297   2.880  1.3800  0.2235 -2.5003
  142OSM    C6S15467   2.867   2.461   3.037  0.6477  0.4858 -0.1133
  142OSM    H6S15468   2.775   2.521   3.051  1.3439  1.3136  1.0390
  142OSM    H6T15469   2.944   2.541   3.042 -0.1475  1.1894  1.7547
  142OSM    C7S15470   2.884   2.364   3.162  0.1931 -0.1166 -0.1915
  142OSM    H7S15471   2.979   2.384   3.216 -0.1752 -0.5114  0.6206
  142OSM    H7T15472   2.883   2.260   3.122  0.2598  0.3650 -1.5071
  142OSM    C8S15473   2.773   2.380   3.265  0.2996  0.1602 -0.3898
  142OSM    H8S15474   2.676   2.369   3.212  0.3344 -2.1978 -0.0748
  142OSM    H8T15475   2.780   2.484   3.303  1.6282  0.2024 -0.6659
  142OSM    C9S15476   2.761   2.283   3.386  0.4075  0.3220 -1.0106
  142OSM    H9S15477   2.864   2.274   3.428  0.1366  1.6963  0.0456
  142OSM    H9T15478   2.722   2.189   3.342 -0.9878 -1.0680  2.8130
  142OSM   C10S15479   2.658   2.323   3.505  0.0658 -0.1498  0.2279
  142OSM   H10S15480   2.555   2.344   3.468 -0.2147 -1.4052  0.2515
  142OSM   H10T15481   2.707   2.413   3.545  3.4763 -2.1957  1.0593
  142OSM   C11S15482   2.636   2.204   3.605 -0.2794 -0.6234  0.4974
  142OSM   H11S15483   2.582   2.120   3.556  2.7455 -1.2458 -2.0807
  142OSM   H11T15484   2.575   2.239   3.691 -0.2318  0.2340  0.1883
  142OSM   C12S15485   2.768   2.135   3.645  0.8560 -0.3868 -0.2892
  142OSM   H12S15486   2.840   2.215   3.671 -1.3376  1.4065  0.6996
  142OSM   H12T15487   2.809   2.075   3.561 -3.4160 -1.9564 -1.5411
  142OSM   C13S15488   2.754   2.045   3.773  0.2279 -0.7754 -0.2066
  142OSM   H13S15489   2.855   1.999   3.768  0.5580 -0.0025 -0.9850
  142OSM   H13T15490   2.662   1.985   3.756 -0.7552  0.4181  0.7139
  142OSM   C14S15491   2.735   2.133   3.906 -0.1703  0.1114  0.5805
  142OSM   H14S15492   2.636   2.183   3.912  0.2959  1.0665  0.4913
  142OSM   H14T15493   2.814   2.209   3.921 -0.1684 -0.2682  2.9207
  142OSM   C15S15494   2.737   2.030   4.029  0.4880 -0.3229  0.0015
  142OSM   H15S15495   2.839   1.995   4.053  0.4197  0.3525  1.4011
  142OSM   H15T15496   2.677   1.944   3.993  1.1436 -1.0303  0.5780
  142OSM   C16S15497   2.680   2.097   4.157 -0.5472  0.4779 -0.6517
  142OSM   H16S15498   2.574   2.123   4.136 -0.6939  0.0961 -0.3881
  142OSM   H16T15499   2.735   2.188   4.189 -0.9624  0.6039 -0.2865
  142OSM   C17S15500   2.671   1.993   4.274 -0.1824 -0.3704  0.4295
  142OSM   H17S15501   2.654   2.064   4.358 -1.0036  1.0373 -0.8818
  142OSM   H17T15502   2.771   1.951   4.295 -0.1928  0.4120  2.2888
  142OSM   C18S15503   2.555   1.895   4.259  0.0519  0.5699  0.1162
  142OSM   H18S15504   2.555   1.820   4.177 -0.7496  0.1947  0.4529
  142OSM   H18T15505   2.463   1.951   4.232 -1.8383 -2.7180 -0.8575
  142OSM   H18U15506   2.535   1.852   4.359 -0.4259  2.4379  0.8602
  142OSM    C1F15507   2.747   2.683   2.529 -0.3396  0.0356 -0.1987
  142OSM     OF15508   2.655   2.642   2.465  0.2493 -0.0159  0.0700
  142OSM    C2F15509   2.753   2.833   2.573  1.2071 -0.0744 -0.1074
  142OSM    H2F15510   2.786   2.890   2.483  1.1427  0.7478  0.3827
  142OSM    H2G15511   2.839   2.839   2.644  0.6518 -0.7669  0.6305
  142OSM    C3F15512   2.622   2.898   2.624  0.2210 -0.8003 -0.2957
  142OSM    H3F15513   2.534   2.883   2.558 -1.3550  3.3454  0.5790
  142OSM    H3G15514   2.632   3.008   2.615 -0.3606 -0.8074 -1.0863
  142OSM    C4F15515   2.581   2.849   2.765 -0.1468  0.2878  0.6001
  142OSM    H4F15516   2.575   2.739   2.776  2.7278 -0.2421 -1.8136
  142OSM    H4G15517   2.482   2.893   2.787  0.7896  2.5205  0.6140
  142OSM    C5F15518   2.671   2.906   2.882 -0.1414  0.3603  0.3379
  142OSM    H5F15519   2.650   3.013   2.902 -0.2170 -0.3843  5.5080
  142OSM    H5G15520   2.779   2.893   2.860 -0.5072  0.2409 -1.6245
  142OSM    C6F15521   2.648   2.839   3.023  0.0341  0.0956 -0.4975
  142OSM    H6F15522   2.633   2.733   2.993 -1.3514 -0.4218  1.7571
  142OSM    H6G15523   2.548   2.865   3.063 -0.7019 -2.8795 -0.1722
  142OSM    C7F15524   2.747   2.878   3.125 -0.3783  1.1916 -0.1816
  142OSM    H7F15525   2.721   2.978   3.166  0.2203  0.2313  2.7400
  142OSM    H7G15526   2.849   2.889   3.081  0.3546 -0.6481  0.9216
  142OSM    C8F15527   2.764   2.779   3.241 -0.2452  0.4123 -0.1956
  142OSM    H8F15528   2.838   2.833   3.303 -1.6013  1.9490  0.1644
  142OSM    H8G15529   2.816   2.687   3.208 -1.3722 -0.7666  1.1863
  142OSM    C9F15530   2.647   2.722   3.312 -0.2855  0.4289 -0.0648
  142OSM    H9F15531   2.589   2.645   3.260  2.1813 -1.2091 -0.5546
  142OSM   C10F15532   2.609   2.746   3.442  0.2493  0.4859 -0.3038
  142OSM   H10F15533   2.519   2.700   3.484 -0.6431  1.2474 -1.3146
  142OSM   C11F15534   2.675   2.838   3.541 -0.8790 -0.3991 -0.6197
  142OSM   H11F15535   2.675   2.945   3.510  1.6938  0.3955  1.6843
  142OSM   H11G15536   2.781   2.809   3.557 -1.3111 -0.9949  1.4453
  142OSM   C12F15537   2.609   2.817   3.676  0.5625 -0.4215 -0.5673
  142OSM   H12F15538   2.503   2.848   3.660  0.2999 -1.7329 -1.6048
  142OSM   H12G15539   2.646   2.881   3.759  0.5406 -2.8108  1.4015
  142OSM   C13F15540   2.615   2.677   3.737 -0.0760  0.1046 -0.0567
  142OSM   H13F15541   2.714   2.639   3.705 -0.2328 -0.8190  0.5112
  142OSM   H13G15542   2.538   2.608   3.695  1.7582 -1.4722 -1.0142
  142OSM   C14F15543   2.602   2.680   3.892 -0.9655  0.0599  0.6057
  142OSM   H14F15544   2.498   2.706   3.923 -1.0254 -0.4254  0.8238
  142OSM   H14G15545   2.673   2.751   3.940 -0.9298 -1.5531  3.1708
  142OSM   C15F15546   2.630   2.540   3.943 -0.4936 -0.6228 -0.5269
  142OSM   H15F15547   2.710   2.495   3.880  1.8955  0.8942  1.2399
  142OSM   H15G15548   2.541   2.480   3.914 -2.0795  2.2295 -1.9913
  142OSM   C16F15549   2.667   2.533   4.086 -0.0694  0.1077 -0.9648
  142OSM   H16F15550   2.754   2.597   4.110 -1.9663  1.8830  1.7413
  142OSM   H16G15551   2.697   2.431   4.120  0.1695  0.2982 -0.6005
  142OSM   C17F15552   2.556   2.577   4.181  0.3731  0.4634 -0.9571
  142OSM   H17F15553   2.460   2.524   4.159  0.6834 -2.1380  2.9286
  142OSM   H17G15554   2.535   2.686   4.167  0.7846  0.7353  0.4101
  142OSM   C18F15555   2.585   2.558   4.331 -0.1845 -0.1432  0.2894
  142OSM   H18F15556   2.693   2.579   4.351 -0.0842 -1.9246  1.9011
  142OSM   H18G15557   2.572   2.451   4.356 -0.1936 -0.0806  0.5513
  142OSM   H18H15558   2.518   2.612   4.401  0.6915 -1.2584  2.0538
  143OSM      N15559   0.796   1.374   1.838  1.0200 -0.1141 -0.0366
  143OSM    C1515560   0.939   1.360   1.792 -0.1611  0.8312  0.1090
  143OSM   H15A15561   1.001   1.442   1.823 -0.0476  1.4910 -1.7562
  143OSM   H15B15562   0.933   1.348   1.685  1.0018 -2.5829  0.3078
  143OSM   H15C15563   0.984   1.270   1.831 -1.7332  0.6106  1.5304
  143OSM    C1415564   0.737   1.492   1.774 -0.8895  0.4752  0.0477
  143OSM   H14A15565   0.747   1.493   1.667 -0.3614  0.1826  0.0938
  143OSM   H14B15566   0.792   1.577   1.810  1.1664 -0.1189 -1.4660
  143OSM   H14C15567   0.631   1.495   1.794 -0.7128  2.1329  0.8704
  143OSM    C1315568   0.718   1.257   1.794 -0.3135  0.1603 -0.9573
  143OSM   H13A15569   0.612   1.278   1.794 -0.5415 -0.3729  2.8964
  143OSM   H13B15570   0.734   1.174   1.862 -2.7741  0.8248  0.5808
  143OSM   H13C15571   0.755   1.220   1.699  1.4347  1.0286 -0.6381
  143OSM    C1215572   0.799   1.389   1.993 -0.1151  0.0923  0.5742
  143OSM   H12A15573   0.863   1.472   2.018 -2.1826  1.8158  0.4045
  143OSM   H12B15574   0.849   1.302   2.034 -0.7089 -0.2193  0.6499
  143OSM    C1115575   0.671   1.411   2.076  1.0391 -0.4521 -0.0940
  143OSM   H11A15576   0.600   1.474   2.018  1.9159  1.7188  1.0767
  143OSM   H11B15577   0.695   1.467   2.169  0.7210  0.3878 -0.5054
  143OSM      P15578   0.660   1.157   2.158 -0.0568 -0.1534 -0.4214
  143OSM    O1315579   0.551   1.060   2.175  0.2573  0.5203 -0.0047
  143OSM    O1415580   0.774   1.113   2.077  0.4034  0.3339 -0.1063
  143OSM    O1115581   0.706   1.198   2.298 -0.4787 -0.1645 -0.0842
  143OSM    O1215582   0.603   1.291   2.098  0.1542 -0.0260  0.7251
  143OSM    C1S15583   0.624   1.264   2.400  0.1958 -0.0807 -0.9584
  143OSM    H1S15584   0.534   1.312   2.356 -1.1184 -1.6990 -0.1325
  143OSM    H1T15585   0.688   1.339   2.452 -0.8079 -1.0434  1.8247
  143OSM     NF15586   0.500   1.246   2.607 -0.3789  0.1955 -0.5978
  143OSM    HNF15587   0.558   1.264   2.685  0.7082 -0.2321 -1.2913
  143OSM    C2S15588   0.555   1.170   2.504  0.4889 -0.5141 -0.5339
  143OSM    H2S15589   0.462   1.130   2.456 -1.2849  1.3975  1.1130
  143OSM    C3S15590   0.658   1.062   2.560  0.4084 -0.9130 -0.2027
  143OSM    H3S15591   0.747   1.116   2.597 -0.1206 -1.5748  2.2681
  143OSM     O315592   0.702   0.975   2.459 -0.0788  0.2401 -1.0141
  143OSM    HO315593   0.704   1.023   2.376  0.0742  0.8839 -0.6428
  143OSM    C4S15594   0.595   0.985   2.673 -0.4605 -0.2491  0.1115
  143OSM    H4S15595   0.513   0.916   2.646 -0.9694  0.5875 -0.5182
  143OSM    C5S15596   0.641   0.975   2.794  0.6181 -0.7698 -0.3967
  143OSM    H5S15597   0.743   1.014   2.811  0.8793 -0.8348 -1.7179
  143OSM    C6S15598   0.578   0.892   2.901 -0.4777 -0.5813 -0.4466
  143OSM    H6S15599   0.625   0.791   2.902  2.3647  0.6352 -0.7466
  143OSM    H6T15600   0.468   0.881   2.888 -1.0961  0.2588  2.9793
  143OSM    C7S15601   0.604   0.964   3.034  0.5556 -0.4740  0.1141
  143OSM    H7S15602   0.563   1.067   3.027  1.1449 -0.0880  1.9184
  143OSM    H7T15603   0.711   0.974   3.062 -0.2013  3.1473  2.4081
  143OSM    C8S15604   0.539   0.886   3.149 -0.8908 -0.1172 -0.1510
  143OSM    H8S15605   0.548   0.776   3.160 -0.2795 -0.2660 -1.8211
  143OSM    H8T15606   0.431   0.905   3.128 -0.6650  1.5150  0.0028
  143OSM    C9S15607   0.578   0.949   3.290  0.1712 -0.1736 -0.0345
  143OSM    H9S15608   0.539   1.053   3.288  1.8440  0.5378  1.4233
  143OSM    H9T15609   0.688   0.954   3.305  0.6534  3.0067 -3.1935
  143OSM   C10S15610   0.513   0.881   3.416 -0.0098 -0.0326 -0.2737
  143OSM   H10S15611   0.543   0.774   3.415  2.2112  0.5412 -0.8339
  143OSM   H10T15612   0.403   0.891   3.405 -0.1251 -0.1998  0.6806
  143OSM   C11S15613   0.548   0.955   3.547  0.1614 -0.3389  0.0508
  143OSM   H11S15614   0.518   1.062   3.542  0.5878 -0.2478 -0.6817
  143OSM   H11T15615   0.658   0.940   3.561  0.1268 -0.2098  0.4781
  143OSM   C12S15616   0.486   0.885   3.666 -0.3151 -0.5333 -0.2190
  143OSM   H12S15617   0.517   0.779   3.657 -1.6296 -0.8538 -1.2618
  143OSM   H12T15618   0.377   0.903   3.657 -0.4282 -0.4535  1.1833
  143OSM   C13S15619   0.556   0.930   3.798 -0.2503  0.0381 -0.1300
  143OSM   H13S15620   0.666   0.916   3.803  0.1980  2.7506 -0.7355
  143OSM   H13T15621   0.512   0.878   3.886  1.8653  0.4201  1.2270
  143OSM   C14S15622   0.544   1.083   3.823 -0.0134  0.5088  0.4323
  143OSM   H14S15623   0.435   1.104   3.810  0.0944  0.2605 -1.1753
  143OSM   H14T15624   0.603   1.134   3.744  0.1419  0.4422  0.5058
  143OSM   C15S15625   0.603   1.125   3.954 -0.3009 -0.6854 -0.0496
  143OSM   H15S15626   0.611   1.236   3.952 -0.4845 -0.5982  1.8684
  143OSM   H15T15627   0.709   1.093   3.965  0.2818  1.4384  1.1617
  143OSM   C16S15628   0.519   1.093   4.070  0.6129 -0.5904 -0.3448
  143OSM   H16S15629   0.583   1.087   4.161 -0.3943  2.0813  0.6458
  143OSM   H16T15630   0.464   0.999   4.047 -4.5591  2.3616 -1.7395
  143OSM   C17S15631   0.414   1.201   4.104  0.0687 -0.4981  0.1332
  143OSM   H17S15632   0.340   1.154   4.172 -0.7635  1.3183  0.5635
  143OSM   H17T15633   0.363   1.239   4.013 -1.4176  1.0546  1.5462
  143OSM   C18S15634   0.471   1.329   4.166  0.3095 -0.7177  0.2190
  143OSM   H18S15635   0.541   1.379   4.096  1.6998  2.3851  3.5211
  143OSM   H18T15636   0.529   1.298   4.256  0.4169 -0.4806  0.2304
  143OSM   H18U15637   0.391   1.403   4.186  2.1949  1.3851  0.3932
  143OSM    C1F15638   0.406   1.333   2.587  1.1781 -0.7424  0.0675
  143OSM     OF15639   0.329   1.325   2.491 -1.3139 -0.0842 -0.0196
  143OSM    C2F15640   0.393   1.447   2.685 -0.1548  0.4363  0.9348
  143OSM    H2F15641   0.434   1.540   2.640 -0.6828  0.4534  0.4867
  143OSM    H2G15642   0.462   1.419   2.768 -0.9180 -1.2877  1.0315
  143OSM    C3F15643   0.251   1.481   2.716 -0.4671  0.1231 -0.2804
  143OSM    H3F15644   0.206   1.409   2.788 -0.2646 -0.3219 -0.5918
  143OSM    H3G15645   0.182   1.478   2.628 -1.3427 -0.4286  0.4052
  143OSM    C4F15646   0.229   1.623   2.777  0.2741 -0.3095  0.5184
  143OSM    H4F15647   0.282   1.706   2.725 -0.6461  0.7767  1.2405
  143OSM    H4G15648   0.290   1.619   2.870  3.0925 -1.6758 -1.2537
  143OSM    C5F15649   0.091   1.680   2.806 -0.1531  0.0370 -0.2290
  143OSM    H5F15650   0.026   1.680   2.716 -3.2355 -0.1510  1.8391
  143OSM    H5G15651   0.110   1.778   2.855  1.2258 -0.1020 -0.4453
  143OSM    C6F15652   0.005   1.594   2.900 -0.3686  0.4940  0.0631
  143OSM    H6F15653   0.004   1.489   2.862  1.7753  0.5338 -0.2269
  143OSM    H6G15654  -0.099   1.621   2.870 -0.7465 -1.5721 -0.6776
  143OSM    C7F15655   0.037   1.594   3.049  0.0559  0.9011  0.0620
  143OSM    H7F15656   0.085   1.687   3.086  1.5679  0.0375  0.3515
  143OSM    H7G15657   0.101   1.507   3.076 -1.7138 -1.0147 -1.5871
  143OSM    C8F15658  -0.096   1.572   3.136 -0.0234 -0.3910 -0.0698
  143OSM    H8F15659  -0.154   1.662   3.109  1.4207  0.4229 -0.6128
  143OSM    H8G15660  -0.049   1.580   3.237 -1.9384 -0.5325  0.8672
  143OSM    C9F15661  -0.165   1.439   3.111 -0.4535 -0.9179 -0.3131
  143OSM    H9F15662  -0.159   1.390   3.013 -1.3914 -0.9123 -0.3832
  143OSM   C10F15663  -0.223   1.366   3.211 -0.0857  0.2904  0.5083
  143OSM   H10F15664  -0.251   1.261   3.190 -1.1872  1.1801 -3.0904
  143OSM   C11F15665  -0.238   1.403   3.353 -0.6912  0.3066  0.4545
  143OSM   H11F15666  -0.346   1.387   3.377 -0.4480 -0.8250  0.8800
  143OSM   H11G15667  -0.217   1.508   3.382 -2.3755  0.5011  1.0954
  143OSM   C12F15668  -0.152   1.327   3.452  0.7975 -0.4521 -0.3183
  143OSM   H12F15669  -0.044   1.332   3.429  1.0657  0.3722  0.9880
  143OSM   H12G15670  -0.178   1.221   3.434  0.2861 -0.2566 -0.7914
  143OSM   C13F15671  -0.183   1.380   3.593  0.2727 -0.0023  0.0070
  143OSM   H13F15672  -0.282   1.337   3.618 -0.2110  0.5726 -0.8752
  143OSM   H13G15673  -0.184   1.489   3.616  3.1483 -0.1164  1.0760
  143OSM   C14F15674  -0.077   1.334   3.700  0.9751  0.0077  0.3232
  143OSM   H14F15675  -0.116   1.384   3.791  0.5541  0.8459 -0.3007
  143OSM   H14G15676   0.026   1.372   3.680  0.3786  3.2900  2.5572
  143OSM   C15F15677  -0.074   1.177   3.721  0.1823 -0.1515 -0.0837
  143OSM   H15F15678  -0.011   1.139   3.638  1.9729 -1.2337  1.6894
  143OSM   H15G15679  -0.178   1.139   3.708 -0.3221  0.4877  1.7318
  143OSM   C16F15680  -0.009   1.139   3.855 -0.2270  0.9508 -0.1839
  143OSM   H16F15681  -0.091   1.145   3.930  0.0154  1.7570  0.0237
  143OSM   H16G15682   0.082   1.198   3.881  0.1142  0.9089 -1.2246
  143OSM   C17F15683   0.042   0.993   3.860 -0.7978  0.0074 -0.0541
  143OSM   H17F15684   0.109   0.964   3.776  0.5406  0.2953  0.8986
  143OSM   H17G15685  -0.050   0.937   3.833 -1.2446  0.5404  0.3378
  143OSM   C18F15686   0.102   0.948   3.995 -0.3028 -0.2347 -0.1320
  143OSM   H18F15687   0.197   1.002   4.014 -1.7252  1.9068  1.3049
  143OSM   H18G15688   0.128   0.840   4.001 -1.1216 -0.5447 -1.6822
  143OSM   H18H15689   0.034   0.974   4.078 -0.4076 -0.2404 -0.2150
  144OSM      N15690   6.172   0.898   2.216 -0.2459  0.1433 -0.0696
  144OSM    C1515691   6.098   0.782   2.172 -0.9793  0.1625  0.5902
  144OSM   H15A15692   6.156   0.711   2.115  0.0437  0.8694  0.7302
  144OSM   H15B15693   6.030   0.808   2.092  0.3534  1.7067 -0.0882
  144OSM   H15C15694   6.039   0.732   2.248 -1.7910  0.3918  0.1296
  144OSM    C1415695   6.079   0.999   2.256 -0.6079  0.1129 -0.3479
  144OSM   H14A15696   6.139   1.074   2.306 -0.9017  0.8498 -1.0688
  144OSM   H14B15697   6.019   0.968   2.340  1.2819  1.9031  1.8006
  144OSM   H14C15698   6.015   1.038   2.178  0.0675  1.0807 -0.4421
  144OSM    C1315699   6.246   0.856   2.341  0.2650 -0.1546  0.3625
  144OSM   H13A15700   6.181   0.810   2.414  0.7209  1.5828  1.9361
  144OSM   H13B15701   6.286   0.946   2.384  2.2615  0.3131 -2.2060
  144OSM   H13C15702   6.325   0.784   2.328  0.6910  0.2968  0.4444
  144OSM    C1215703   6.269   0.947   2.111 -0.3280  0.3189  0.2505
  144OSM   H12A15704   6.207   0.960   2.024  0.5337  0.6016 -0.3346
  144OSM   H12B15705   6.330   0.861   2.085  1.4646  2.1671 -2.0997
  144OSM    C1115706   6.354   1.077   2.131 -0.1028  0.0323  0.2926
  144OSM   H11A15707   6.418   1.089   2.041  1.0979 -1.5502  0.8721
  144OSM   H11B15708   6.420   1.054   2.217 -0.0922 -2.4374 -0.2901
  144OSM      P15709   6.329   1.329   2.225  0.3528  0.1443  0.3681
  144OSM    O1315710   6.473   1.343   2.206 -0.8996  0.1494 -0.4415
  144OSM    O1415711   6.253   1.443   2.169 -0.0431  0.0129  0.3127
  144OSM    O1115712   6.297   1.310   2.376  0.1778  0.0936 -0.0078
  144OSM    O1215713   6.270   1.194   2.156 -0.5737 -0.2855  0.4639
  144OSM    C1S15714   6.381   1.380   2.473  0.6207 -0.0922 -0.3217
  144OSM    H1S15715   6.372   1.490   2.461  0.0596  0.0589  1.2046
  144OSM    H1T15716   6.483   1.341   2.453  1.4523  2.0849 -0.6413
  144OSM     NF15717   6.395   1.409   2.721 -0.5745  0.7790 -0.0112
  144OSM    HNF15718   6.449   1.359   2.788 -1.9674 -0.0700  0.5128
  144OSM    C2S15719   6.334   1.328   2.617  0.1898  0.0062  0.6091
  144OSM    H2S15720   6.225   1.346   2.609  0.5574  2.1375 -0.6836
  144OSM    C3S15721   6.358   1.179   2.631  0.5582  0.5758  0.4532
  144OSM    H3S15722   6.467   1.160   2.644  0.2082 -3.7632 -1.1942
  144OSM     O315723   6.319   1.099   2.519  0.0625 -0.2805 -0.1471
  144OSM    HO315724   6.304   1.168   2.455 -0.2557 -0.3966 -0.2021
  144OSM    C4S15725   6.298   1.126   2.758 -0.0035 -0.4206  0.2484
  144OSM    H4S15726   6.362   1.149   2.844  0.0722  1.4727 -0.2799
  144OSM    C5S15727   6.179   1.065   2.778  0.0892  0.3966 -0.8962
  144OSM    H5S15728   6.112   1.043   2.693 -2.1291  1.4277  0.4913
  144OSM    C6S15729   6.132   1.016   2.907 -0.1543 -0.1767  0.4404
  144OSM    H6S15730   6.088   0.916   2.893 -1.5736  0.6126 -1.0270
  144OSM    H6T15731   6.048   1.083   2.935 -0.4914  0.2367 -1.4171
  144OSM    C7S15732   6.241   1.012   3.017 -0.1283 -0.0206  0.9111
  144OSM    H7S15733   6.290   1.111   3.029  0.2398  0.0786 -1.0522
  144OSM    H7T15734   6.315   0.934   2.989 -0.7881 -0.7988  1.2799
  144OSM    C8S15735   6.199   0.978   3.159 -0.1079  0.1479  0.3538
  144OSM    H8S15736   6.147   0.880   3.155 -0.4122  0.3346 -2.4396
  144OSM    H8T15737   6.132   1.055   3.203 -1.1813 -1.1026  0.9635
  144OSM    C9S15738   6.319   0.957   3.251 -0.2510 -0.2316 -0.2877
  144OSM    H9S15739   6.372   1.053   3.267 -0.4327 -0.3355  1.0423
  144OSM    H9T15740   6.399   0.891   3.209 -0.6397 -0.2151 -1.0705
  144OSM   C10S15741   6.274   0.904   3.386 -0.4850  0.1754  0.2556
  144OSM   H10S15742   6.215   0.812   3.370  0.1613  0.0332 -1.4836
  144OSM   H10T15743   6.207   0.977   3.435 -0.4672 -0.3243  1.0343
  144OSM   C11S15744   6.400   0.875   3.470 -0.1815 -0.5545 -0.0353
  144OSM   H11S15745   6.469   0.961   3.486  1.0928 -1.1946 -1.7756
  144OSM   H11T15746   6.470   0.803   3.422 -0.5524 -0.9275 -0.0172
  144OSM   C12S15747   6.373   0.816   3.606  0.0357 -0.2679 -0.4934
  144OSM   H12S15748   6.335   0.712   3.600 -0.1856 -0.1759 -0.6759
  144OSM   H12T15749   6.298   0.886   3.647  1.7029  0.3767  1.6484
  144OSM   C13S15750   6.498   0.817   3.688 -0.5565 -0.0176 -0.3075
  144OSM   H13S15751   6.555   0.912   3.690 -1.7935  0.8526 -2.8575
  144OSM   H13T15752   6.569   0.735   3.664  2.0515  2.0712 -0.2173
  144OSM   C14S15753   6.449   0.787   3.830  0.0976  0.6463 -0.3655
  144OSM   H14S15754   6.384   0.697   3.817  0.5315  0.2849 -0.0427
  144OSM   H14T15755   6.375   0.860   3.870 -0.6041  0.7136 -1.7234
  144OSM   C15S15756   6.547   0.754   3.941  0.2374  0.7035 -0.0065
  144OSM   H15S15757   6.496   0.704   4.025  3.7472 -1.5709  1.0115
  144OSM   H15T15758   6.586   0.849   3.984  0.8559  0.5041 -0.1189
  144OSM   C16S15759   6.672   0.671   3.908  0.0111  0.6271  0.2689
  144OSM   H16S15760   6.726   0.722   3.824 -0.2769 -1.3627 -1.1948
  144OSM   H16T15761   6.638   0.572   3.871  0.1679  0.5837  0.2423
  144OSM   C17S15762   6.750   0.656   4.032  0.2776  0.0691  0.0132
  144OSM   H17S15763   6.799   0.749   4.069 -2.0376  2.2741 -2.1140
  144OSM   H17T15764   6.828   0.580   4.009 -0.4226 -1.5051  2.4015
  144OSM   C18S15765   6.681   0.585   4.143  0.2612  0.7349  0.6910
  144OSM   H18S15766   6.608   0.643   4.202 -0.6985 -0.9799  1.2798
  144OSM   H18T15767   6.751   0.523   4.204  0.4206 -1.8380 -1.9002
  144OSM   H18U15768   6.622   0.505   4.092  1.8541  0.3475 -0.6412
  144OSM    C1F15769   6.380   1.539   2.733  0.3807  0.6507 -0.2962
  144OSM     OF15770   6.283   1.582   2.682  0.9213  0.2672 -0.2813
  144OSM    C2F15771   6.477   1.611   2.824 -0.3584 -0.1079  0.2027
  144OSM    H2F15772   6.571   1.614   2.766  0.9337  2.1858  2.2138
  144OSM    H2G15773   6.498   1.545   2.912  1.9209 -0.6147 -0.6676
  144OSM    C3F15774   6.421   1.755   2.844  0.1410 -0.9519 -0.1729
  144OSM    H3F15775   6.313   1.757   2.868 -0.0404 -0.4660 -0.9951
  144OSM    H3G15776   6.428   1.828   2.761  0.1125  0.6091  1.1263
  144OSM    C4F15777   6.496   1.828   2.959  0.0736 -0.5428 -0.2330
  144OSM    H4F15778   6.449   1.929   2.962 -1.0018 -1.0154  2.5340
  144OSM    H4G15779   6.604   1.835   2.935 -0.5114 -0.4154 -3.2123
  144OSM    C5F15780   6.465   1.776   3.102 -0.1602  0.2282  0.3316
  144OSM    H5F15781   6.498   1.671   3.116  1.4595  0.8068  1.0947
  144OSM    H5G15782   6.354   1.781   3.111 -0.1968 -0.2057  0.1236
  144OSM    C6F15783   6.525   1.842   3.225  0.2708 -0.2869  0.2714
  144OSM    H6F15784   6.501   1.950   3.230 -3.9288 -1.0260 -0.1274
  144OSM    H6G15785   6.635   1.824   3.222  0.6490  1.5620  1.5421
  144OSM    C7F15786   6.480   1.780   3.357  0.0700  0.1413  0.2655
  144OSM    H7F15787   6.492   1.669   3.352  2.6526  0.4129 -1.1606
  144OSM    H7G15788   6.371   1.789   3.338 -0.2165 -2.0182  0.5785
  144OSM    C8F15789   6.525   1.850   3.484 -0.8974 -0.0927 -0.0860
  144OSM    H8F15790   6.456   1.811   3.561 -2.4314 -0.3644 -1.5479
  144OSM    H8G15791   6.520   1.961   3.473  1.7013 -0.0658 -1.9959
  144OSM    C9F15792   6.663   1.807   3.533  0.4080  0.5496  0.1536
  144OSM    H9F15793   6.740   1.825   3.456  0.0044 -1.5448 -0.8178
  144OSM   C10F15794   6.698   1.761   3.657 -0.2308 -0.3221  0.0737
  144OSM   H10F15795   6.800   1.724   3.680 -0.1050 -0.2997 -0.4489
  144OSM   C11F15796   6.606   1.755   3.777 -0.0258  0.4000 -0.0402
  144OSM   H11F15797   6.513   1.694   3.773  0.3970 -0.3429  0.8695
  144OSM   H11G15798   6.576   1.858   3.805  3.8959  1.6132  0.3645
  144OSM   C12F15799   6.684   1.706   3.897 -0.0929  0.4827 -0.2969
  144OSM   H12F15800   6.726   1.604   3.884  2.0582  1.1235  1.0963
  144OSM   H12G15801   6.616   1.677   3.980  0.0740 -1.1127 -0.6842
  144OSM   C13F15802   6.778   1.808   3.964 -0.0466 -0.0925 -0.5080
  144OSM   H13F15803   6.715   1.893   3.999  0.3461 -0.4226  1.0747
  144OSM   H13G15804   6.846   1.843   3.884 -1.5789 -0.8069 -2.2111
  144OSM   C14F15805   6.857   1.767   4.092  0.0014 -0.4379 -0.0891
  144OSM   H14F15806   6.916   1.857   4.121 -0.6133 -0.4841  1.3868
  144OSM   H14G15807   6.920   1.680   4.064  2.5113  0.2974  2.6769
  144OSM   C15F15808   6.766   1.741   4.210 -0.0199 -0.2328  0.0639
  144OSM   H15F15809   6.700   1.652   4.203 -1.4040  0.6989  0.7698
  144OSM   H15G15810   6.690   1.821   4.207 -2.6485 -2.4984  1.3813
  144OSM   C16F15811   6.839   1.738   4.347 -0.5227  0.6901 -0.2052
  144OSM   H16F15812   6.769   1.760   4.430 -1.4590  0.2078 -0.8528
  144OSM   H16G15813   6.916   1.818   4.336  0.6113 -0.3676 -0.2585
  144OSM   C17F15814   6.889   1.596   4.381 -0.3653  0.5846 -0.3253
  144OSM   H17F15815   6.937   1.556   4.289  1.4212  0.4323  0.6115
  144OSM   H17G15816   6.807   1.527   4.407 -1.3906  1.6582 -0.6330
  144OSM   C18F15817   6.984   1.589   4.495 -0.2208  0.1223 -0.0803
  144OSM   H18F15818   7.012   1.482   4.507 -0.3546  0.0501 -0.4050
  144OSM   H18G15819   6.940   1.633   4.587  0.5128  1.8170 -0.5112
  144OSM   H18H15820   7.077   1.638   4.459  0.7339 -1.4692  0.1081
  145SAPE     N15821   2.483   1.504   6.585 -0.0151  0.1540  0.4702
  145SAPE   HN115822   2.410   1.566   6.544 -1.0627 -1.8857 -0.8738
  145SAPE   HN215823   2.482   1.421   6.524  1.4049  0.7714 -0.4364
  145SAPE   HN315824   2.439   1.480   6.676 -1.0320  1.8648  0.4780
  145SAPE   C1215825   2.614   1.579   6.595  0.2980  0.1169 -0.8387
  145SAPE  H12A15826   2.693   1.522   6.650  0.8397  0.1054 -1.6128
  145SAPE  H12B15827   2.584   1.669   6.653 -0.9068 -0.2306 -0.8973
  145SAPE   C1115828   2.677   1.622   6.459 -0.2365  0.3859 -0.3152
  145SAPE  H11A15829   2.601   1.684   6.405  0.3268  1.7280  0.3786
  145SAPE  H11B15830   2.695   1.531   6.398  2.4521  0.4183  0.3108
  145SAPE     P15831   2.930   1.657   6.439 -0.1701  0.5999  0.1708
  145SAPE   O1315832   3.036   1.750   6.474 -0.3427 -0.0890 -0.1570
  145SAPE   O1415833   2.949   1.520   6.498  0.6265  0.2089  0.0684
  145SAPE   O1215834   2.794   1.706   6.480  0.2028  0.1348 -0.6983
  145SAPE   O1115835   2.918   1.630   6.283  0.0495 -0.1939 -0.1592
  145SAPE    C115836   2.835   1.701   6.202 -0.1660 -0.1472 -0.0244
  145SAPE    HA15837   2.764   1.631   6.153  0.0036 -0.0207 -0.4612
  145SAPE    HB15838   2.774   1.775   6.257  0.1846 -1.0801  1.7078
  145SAPE    C215839   2.911   1.758   6.076 -0.0119  0.0959  0.5387
  145SAPE    HS15840   2.830   1.815   6.027  0.3642 -0.0034 -0.2221
  145SAPE   O2115841   2.972   1.657   5.983  0.2202  0.2831 -0.1338
  145SAPE   C2115842   2.885   1.610   5.893 -0.7612 -0.2426  0.4142
  145SAPE   O2215843   2.776   1.654   5.871 -0.4467 -0.3736  0.2479
  145SAPE   C2215844   2.949   1.495   5.805 -0.7942  0.1003 -0.2635
  145SAPE   H2R15845   2.999   1.550   5.722 -1.2823  1.2776  0.2015
  145SAPE   H2S15846   3.026   1.454   5.874 -0.9184  3.2846  2.0073
  145SAPE    C315847   3.022   1.862   6.114 -0.3524  0.0642 -0.6041
  145SAPE    HX15848   3.092   1.832   6.195 -1.2172  1.3865  0.6861
  145SAPE    HY15849   2.974   1.944   6.170  1.1017 -1.2761  2.8699
  145SAPE   O3115850   3.086   1.921   6.003 -0.1455 -0.3607 -0.0492
  145SAPE   C3115851   3.208   1.889   5.977 -0.1556 -0.4306 -0.2189
  145SAPE   O3215852   3.270   1.816   6.052  0.0676  0.2058  0.1826
  145SAPE   C3215853   3.261   1.972   5.859 -0.4027  0.7744 -0.1114
  145SAPE   H2X15854   3.350   2.028   5.895  1.0046 -0.7079 -1.1042
  145SAPE   H2Y15855   3.188   2.054   5.842 -1.0808  0.5129  1.3993
  145SAPE   C2315856   2.833   1.398   5.759 -0.0784 -0.2588  0.4989
  145SAPE   H3R15857   2.734   1.435   5.727 -1.3732 -2.7121  1.4737
  145SAPE   H3S15858   2.811   1.332   5.845 -0.7394 -0.8519 -0.1224
  145SAPE   C2415859   2.887   1.309   5.643  0.7986 -0.3947 -0.2290
  145SAPE   H4R15860   2.830   1.213   5.648  1.5053 -0.8997 -1.3361
  145SAPE   H4S15861   2.988   1.273   5.673  1.0160  1.3742  1.3730
  145SAPE   C2515862   2.895   1.370   5.509  0.2337  0.0107  0.2173
  145SAPE   H5R15863   2.921   1.477   5.512 -1.0327  0.4600 -2.1200
  145SAPE   C2615864   2.856   1.314   5.395  0.0048  0.6352  0.1939
  145SAPE   H6R15865   2.861   1.374   5.303 -1.6225 -2.6570 -2.2446
  145SAPE   C2715866   2.816   1.174   5.373  0.6659  0.6617  0.2676
  145SAPE   H7R15867   2.849   1.101   5.450 -2.1818  0.2668  1.2004
  145SAPE   H7S15868   2.868   1.144   5.279 -0.4420 -0.7810  0.0752
  145SAPE   C2815869   2.667   1.166   5.354  0.1081 -0.6172 -0.4725
  145SAPE   H8R15870   2.613   1.231   5.424 -0.7998 -2.0063  0.1539
  145SAPE   C2915871   2.596   1.103   5.250 -0.9492 -0.5358  0.3120
  145SAPE   H9R15872   2.486   1.098   5.253 -1.1456  1.0556 -1.7287
  145SAPE  C21015873   2.656   1.009   5.145  0.1889  0.4350 -0.4301
  145SAPE  H10R15874   2.625   0.905   5.170  1.0748 -0.5212 -2.9820
  145SAPE  H10S15875   2.766   0.999   5.146  0.2848  1.2114  1.9204
  145SAPE  C21115876   2.615   1.043   5.007 -0.2181  0.6162  0.0583
  145SAPE  H11R15877   2.507   1.054   4.990 -0.2960 -2.0812 -1.9143
  145SAPE  C21215878   2.695   1.048   4.907  0.0044  0.1552  0.2198
  145SAPE  H12R15879   2.668   1.096   4.812 -0.1302 -0.5045 -0.0832
  145SAPE  C21315880   2.842   1.020   4.911  1.0696  0.5562  0.4317
  145SAPE  H13R15881   2.872   0.931   4.970 -2.1121 -0.9434  0.0370
  145SAPE  H13S15882   2.892   1.114   4.944 -2.6180  2.6389  0.7043
  145SAPE  C21415883   2.887   0.984   4.776  0.7845  0.2548  0.9197
  145SAPE  H14R15884   2.837   0.893   4.740  0.1466  1.0855 -0.3338
  145SAPE  C21515885   2.976   1.039   4.693 -0.5817 -0.3932 -0.2412
  145SAPE  H15R15886   3.008   0.973   4.611 -0.2356  1.0474 -1.3276
  145SAPE  C21615887   3.072   1.149   4.730 -0.7999  0.5544  0.1355
  145SAPE  H16R15888   3.088   1.137   4.839 -1.0063 -1.3063 -0.0058
  145SAPE  H16S15889   3.030   1.250   4.710 -0.2908  0.3602 -2.3104
  145SAPE  C21715890   3.213   1.153   4.659  0.2740 -0.0218 -0.6362
  145SAPE  H17R15891   3.256   1.051   4.666 -0.5121 -0.3501 -0.5131
  145SAPE  H17S15892   3.278   1.226   4.712 -2.4514  0.4948  2.3191
  145SAPE  C21815893   3.210   1.198   4.515  0.2625  0.2987  0.0622
  145SAPE  H18R15894   3.183   1.306   4.505  1.7133  0.7809  1.0974
  145SAPE  H18S15895   3.133   1.135   4.464  0.3254 -0.6015  1.0568
  145SAPE  C21915896   3.340   1.169   4.437  0.0432 -0.2297  0.5957
  145SAPE  H19R15897   3.316   1.183   4.329  0.2618  1.2541  0.7089
  145SAPE  H19S15898   3.374   1.064   4.440 -0.3575 -0.3765  0.0477
  145SAPE  C22015899   3.455   1.266   4.464  0.5215  0.4511 -0.0693
  145SAPE  H20R15900   3.551   1.238   4.417  1.7845  3.1076  0.7236
  145SAPE  H20S15901   3.486   1.248   4.569  1.3010 -0.0530 -0.3784
  145SAPE  H20T15902   3.419   1.370   4.448 -0.7245  0.5170  2.6272
  145SAPE   C3315903   3.277   1.899   5.729  0.6605  0.7107  0.5197
  145SAPE   H3X15904   3.204   1.817   5.719 -0.5111  1.9090 -1.5026
  145SAPE   H3Y15905   3.374   1.846   5.736  0.1121 -0.3203  0.4846
  145SAPE   C3415906   3.284   1.995   5.617 -1.1034  0.5438  0.6222
  145SAPE   H4X15907   3.368   2.068   5.628  0.5574 -1.5235  2.7898
  145SAPE   H4Y15908   3.186   2.047   5.613 -1.6014 -0.4299 -0.2047
  145SAPE   C3515909   3.298   1.933   5.475  0.0307 -0.4079  0.2315
  145SAPE   H5X15910   3.264   1.827   5.473 -0.5014 -0.2583 -3.0031
  145SAPE   H5Y15911   3.406   1.930   5.452 -0.0443 -0.1204 -0.1497
  145SAPE   C3615912   3.224   2.013   5.375  0.0685 -0.5284  0.2706
  145SAPE   H6X15913   3.244   2.122   5.372 -2.4503  0.0019  0.5810
  145SAPE   H6Y15914   3.116   2.000   5.396  0.2707 -1.6465  0.7061
  145SAPE   C3715915   3.227   1.963   5.235 -0.3717  0.0427  0.1749
  145SAPE   H7X15916   3.199   1.856   5.239 -0.4571  0.0432 -0.2818
  145SAPE   H7Y15917   3.322   1.963   5.177 -1.3438  2.5684 -1.6059
  145SAPE   C3815918   3.139   2.053   5.143 -0.5554  0.6865 -0.2806
  145SAPE   H8X15919   3.168   2.160   5.155 -0.5607  0.8168 -1.3761
  145SAPE   H8Y15920   3.036   2.042   5.184 -0.3254 -0.2207  0.0728
  145SAPE   C3915921   3.153   2.023   4.996 -0.1677  0.7728 -0.6954
  145SAPE   H9X15922   3.147   1.912   4.984  0.4917  0.5745  0.6572
  145SAPE   H9Y15923   3.253   2.051   4.957  0.5821 -0.0542  0.5715
  145SAPE  C31015924   3.056   2.089   4.898  0.1175 -0.1541  0.2254
  145SAPE  H10X15925   2.964   2.028   4.898 -0.3338  0.4729 -1.7150
  145SAPE  H10Y15926   3.098   2.064   4.799  0.0153  2.4067 -0.5543
  145SAPE  C31115927   3.041   2.241   4.897  0.4599  0.4313  0.3039
  145SAPE  H11X15928   3.138   2.281   4.859  0.9805 -1.8253 -0.9116
  145SAPE  H11Y15929   3.013   2.284   4.995  2.4184  1.2598  0.5541
  145SAPE  C31215930   2.928   2.284   4.794 -0.6687  0.2049  0.2179
  145SAPE  H12X15931   2.916   2.208   4.713  1.6325  1.6354 -1.5672
  145SAPE  H12Y15932   2.963   2.376   4.744  0.3025  0.8745  2.0480
  145SAPE  C31315933   2.794   2.302   4.862  0.6429 -0.0114 -0.0739
  145SAPE  H13X15934   2.805   2.369   4.950 -0.5402 -0.8946  0.7678
  145SAPE  H13Y15935   2.758   2.205   4.900 -1.2053  0.6119 -0.1121
  145SAPE  C31415936   2.688   2.370   4.775  0.8202 -0.2938  0.4162
  145SAPE  H14X15937   2.653   2.307   4.690 -0.2390 -2.0107  2.0452
  145SAPE  H14Y15938   2.731   2.462   4.730  2.1441 -0.8194  0.5799
  145SAPE  C31515939   2.564   2.408   4.864 -0.4474 -0.2389  0.0176
  145SAPE  H15X15940   2.580   2.478   4.948  1.8725 -0.3452 -0.2689
  145SAPE  H15Y15941   2.529   2.315   4.914 -2.7307  0.7732  0.4109
  145SAPE  C31615942   2.430   2.452   4.791 -1.1787 -0.6273 -0.7327
  145SAPE  H16X15943   2.356   2.475   4.871  1.2180  2.4493  0.8255
  145SAPE  H16Y15944   2.384   2.376   4.724 -2.4662 -1.2482  0.7939
  145SAPE  C31715945   2.440   2.578   4.702  0.0905 -0.3319  0.4478
  145SAPE  H17X15946   2.359   2.586   4.626 -0.9583  1.2160  1.6731
  145SAPE  H17Y15947   2.534   2.566   4.643 -0.5472  1.7319 -1.1074
  145SAPE  C31815948   2.453   2.711   4.780 -0.8665  0.2646  0.9232
  145SAPE  H18X15949   2.532   2.698   4.857 -0.0193  1.2550  0.2535
  145SAPE  H18Y15950   2.364   2.754   4.831 -0.8074  1.0013  0.4233
  145SAPE  H18Z15951   2.491   2.795   4.719  2.7075  0.1288  2.6872
  146SAPE     N15952   4.153   0.379   6.524  0.5065  0.0262 -0.1398
  146SAPE   HN115953   4.137   0.464   6.468 -1.1966 -0.3683 -0.2986
  146SAPE   HN215954   4.076   0.356   6.590 -0.4740 -0.8132 -1.5329
  146SAPE   HN315955   4.232   0.396   6.590 -1.4036  0.3649  2.2265
  146SAPE   C1215956   4.166   0.256   6.439  0.0528 -0.2005 -0.3089
  146SAPE  H12A15957   4.256   0.259   6.374 -0.4800  0.6824 -1.0274
  146SAPE  H12B15958   4.085   0.255   6.363  1.4771  2.1408 -1.9943
  146SAPE   C1115959   4.147   0.122   6.523  0.7316 -1.0168 -0.2132
  146SAPE  H11A15960   4.107   0.050   6.449 -1.8909 -0.3552  0.4447
  146SAPE  H11B15961   4.068   0.136   6.600  0.1850 -1.0156 -0.7673
  146SAPE     P15962   4.324  -0.055   6.609 -0.7608 -0.1024 -0.0528
  146SAPE   O1315963   4.431  -0.057   6.705  0.7103  0.5665  0.3981
  146SAPE   O1415964   4.206  -0.131   6.656  0.1460 -0.2231 -0.2504
  146SAPE   O1215965   4.276   0.089   6.583  0.6020 -0.3287  0.4765
  146SAPE   O1115966   4.368  -0.116   6.462 -0.4091  0.2742 -0.3813
  146SAPE    C115967   4.440  -0.039   6.372 -0.1184 -0.2333  0.2585
  146SAPE    HA15968   4.387   0.058   6.364  0.0799 -0.0659  0.9332
  146SAPE    HB15969   4.544  -0.028   6.409  0.9967 -1.6584 -2.2074
  146SAPE    C215970   4.434  -0.091   6.225  0.1774  0.0099 -0.5039
  146SAPE    HS15971   4.461  -0.015   6.148  1.8569 -0.7714 -0.7296
  146SAPE   O2115972   4.300  -0.146   6.205  0.5702  0.6674 -0.1743
  146SAPE   C2115973   4.212  -0.047   6.174  0.3649 -0.1106  0.2680
  146SAPE   O2215974   4.231   0.072   6.183 -0.7529 -0.6103 -0.7757
  146SAPE   C2215975   4.082  -0.100   6.123  0.5388 -0.1524 -0.0505
  146SAPE   H2R15976   4.089  -0.184   6.052  0.7495 -2.6932  2.7653
  146SAPE   H2S15977   4.020  -0.142   6.206 -1.3256  0.3705 -1.1230
  146SAPE    C315978   4.533  -0.208   6.201  0.1636  0.7467 -0.5313
  146SAPE    HX15979   4.495  -0.300   6.250  0.2934 -0.4890 -2.6318
  146SAPE    HY15980   4.621  -0.183   6.264 -0.2181  1.5018 -0.2783
  146SAPE   O3115981   4.553  -0.244   6.061  0.2127  0.1894 -0.5572
  146SAPE   C3115982   4.681  -0.222   6.020  0.1207 -0.2721 -1.0798
  146SAPE   O3215983   4.767  -0.181   6.099 -0.3745 -0.3568  0.5939
  146SAPE   C3215984   4.684  -0.275   5.885  0.3950 -0.3355 -0.4091
  146SAPE   H2X15985   4.596  -0.245   5.824  0.7775 -3.2958 -2.6990
  146SAPE   H2Y15986   4.687  -0.386   5.897  0.6968 -0.5114 -1.8561
  146SAPE   C2315987   4.001   0.005   6.053  0.3129 -0.0791  0.3690
  146SAPE   H3R15988   4.056   0.073   5.985 -0.4577  0.9028  0.6962
  146SAPE   H3S15989   3.948   0.071   6.126  0.2272  1.2069 -0.8064
  146SAPE   C2415990   3.876  -0.066   5.985 -0.3824  0.5984 -0.2232
  146SAPE   H4R15991   3.904  -0.148   5.914 -1.3777  0.1155 -0.0700
  146SAPE   H4S15992   3.826   0.015   5.928 -1.0333  0.1878 -0.2506
  146SAPE   C2515993   3.775  -0.120   6.085  0.2411 -0.0969 -0.0557
  146SAPE   H5R15994   3.760  -0.053   6.172 -0.2376  0.4854 -0.5798
  146SAPE   C2615995   3.705  -0.231   6.071  0.3006  1.2032  1.2672
  146SAPE   H6R15996   3.647  -0.265   6.158  1.0356 -1.9553  0.6786
  146SAPE   C2715997   3.716  -0.326   5.954 -0.5500 -0.0325  0.2620
  146SAPE   H7R15998   3.679  -0.277   5.861  0.1819 -0.5678 -0.3299
  146SAPE   H7S15999   3.641  -0.408   5.961 -1.0593  0.1960 -1.8767
  146SAPE   C2816000   3.855  -0.386   5.935  0.1020  0.3188 -0.2422
  146SAPE   H8R16001   3.916  -0.378   6.026 -1.6662 -1.1134  1.1571
  146SAPE   C2916002   3.902  -0.447   5.824 -0.2882 -0.1488  0.4344
  146SAPE   H9R16003   4.003  -0.491   5.831 -0.2997 -0.3234 -0.4596
  146SAPE  C21016004   3.841  -0.473   5.690 -0.1830  0.6319  0.4870
  146SAPE  H10R16005   3.731  -0.464   5.689 -0.2376 -0.0124  0.0160
  146SAPE  H10S16006   3.871  -0.578   5.669 -1.1481  0.5769 -0.7000
  146SAPE  C21116007   3.887  -0.387   5.580  0.1649 -0.5879  0.2049
  146SAPE  H11R16008   3.838  -0.289   5.588  1.3122  0.1590 -1.3033
  146SAPE  C21216009   3.980  -0.410   5.482 -0.0737  0.0812 -0.1812
  146SAPE  H12R16010   4.013  -0.326   5.419  0.3250  0.7425  0.8776
  146SAPE  C21316011   4.069  -0.529   5.468  0.4623  0.0366  0.3312
  146SAPE  H13R16012   4.018  -0.624   5.493 -0.0718 -0.5751 -2.7485
  146SAPE  H13S16013   4.157  -0.531   5.537  0.2364  1.0088  0.6646
  146SAPE  C21416014   4.110  -0.533   5.324 -0.4137  0.1649  0.6866
  146SAPE  H14R16015   4.026  -0.574   5.265  0.6064 -0.0172 -0.6794
  146SAPE  C21516016   4.230  -0.522   5.271 -0.2422  0.1306 -0.0024
  146SAPE  H15R16017   4.248  -0.544   5.165  0.6682 -0.6985  0.3114
  146SAPE  C21616018   4.350  -0.484   5.354 -0.3205 -0.1814 -0.9214
  146SAPE  H16R16019   4.325  -0.393   5.413 -0.6045 -1.1028  0.4242
  146SAPE  H16S16020   4.417  -0.431   5.282 -1.7904  1.7827 -0.9333
  146SAPE  C21716021   4.422  -0.599   5.430  0.6387 -0.3109  0.2350
  146SAPE  H17R16022   4.471  -0.660   5.351 -1.1785 -0.6456 -0.6685
  146SAPE  H17S16023   4.341  -0.661   5.472 -0.3143  0.7080 -0.0532
  146SAPE  C21816024   4.510  -0.548   5.551  0.4674  0.3584  0.1093
  146SAPE  H18R16025   4.453  -0.494   5.630 -0.7048 -0.3566 -0.2269
  146SAPE  H18S16026   4.594  -0.489   5.508  0.3343  0.4249 -0.0577
  146SAPE  C21916027   4.571  -0.666   5.637 -0.4030 -0.0562  0.5723
  146SAPE  H19R16028   4.488  -0.723   5.685  0.5187  0.1407  2.5047
  146SAPE  H19S16029   4.626  -0.629   5.726  0.2308 -1.2115  0.6894
  146SAPE  C22016030   4.664  -0.756   5.560 -0.7749  0.1251  1.0679
  146SAPE  H20R16031   4.762  -0.715   5.528 -1.2060 -0.6640 -1.5714
  146SAPE  H20S16032   4.607  -0.784   5.468  1.6490  2.1567 -1.2276
  146SAPE  H20T16033   4.683  -0.849   5.618 -1.6205  0.7396  2.3581
  146SAPE   C3316034   4.816  -0.259   5.794 -0.2537 -0.0739  0.4408
  146SAPE   H3X16035   4.903  -0.310   5.840 -0.2405  0.6073  1.1707
  146SAPE   H3Y16036   4.837  -0.151   5.787 -0.8336 -0.0150 -0.5906
  146SAPE   C3416037   4.794  -0.320   5.658  0.1129 -0.0910  0.0254
  146SAPE   H4X16038   4.690  -0.317   5.619  0.6423  1.0018 -1.3664
  146SAPE   H4Y16039   4.823  -0.426   5.639 -0.6818 -0.1883 -0.7197
  146SAPE   C3516040   4.891  -0.260   5.546 -0.1117  0.9179  0.1921
  146SAPE   H5X16041   4.988  -0.246   5.597 -1.1294  3.7871  1.5617
  146SAPE   H5Y16042   4.862  -0.155   5.524 -0.5948  0.3992 -1.9710
  146SAPE   C3616043   4.887  -0.331   5.413  0.0819  0.4505  0.5171
  146SAPE   H6X16044   4.864  -0.439   5.423  0.9633 -0.2067 -2.9738
  146SAPE   H6Y16045   4.993  -0.332   5.378  0.6059  0.2090  2.0493
  146SAPE   C3716046   4.799  -0.261   5.308  0.3319  0.2769  0.2012
  146SAPE   H7X16047   4.806  -0.151   5.324 -1.8067  0.8044 -1.8835
  146SAPE   H7Y16048   4.693  -0.296   5.316  0.2786  0.4541  0.2782
  146SAPE   C3816049   4.852  -0.293   5.172  0.3130 -0.2040 -0.0677
  146SAPE   H8X16050   4.872  -0.400   5.151  0.4420 -0.1282 -0.3326
  146SAPE   H8Y16051   4.942  -0.233   5.146  0.2506 -0.4232 -0.8422
  146SAPE   C3916052   4.748  -0.257   5.062  0.1801 -0.4628 -0.4821
  146SAPE   H9X16053   4.723  -0.150   5.075  0.1006 -0.3666 -1.3875
  146SAPE   H9Y16054   4.652  -0.314   5.058 -1.6449  2.4992 -2.9951
  146SAPE  C31016055   4.814  -0.263   4.923 -0.4749  0.1447  0.3418
  146SAPE  H10X16056   4.845  -0.369   4.913 -2.2880 -0.3406 -0.5199
  146SAPE  H10Y16057   4.911  -0.209   4.930 -0.9127  1.4471 -2.1564
  146SAPE  C31116058   4.731  -0.207   4.813  0.1660 -0.2996  0.0667
  146SAPE  H11X16059   4.701  -0.102   4.834 -0.1606 -0.0514 -1.5238
  146SAPE  H11Y16060   4.638  -0.267   4.798  1.1106 -1.0932 -3.5320
  146SAPE  C31216061   4.808  -0.222   4.678  0.6145  0.1628 -1.2978
  146SAPE  H12X16062   4.738  -0.203   4.595 -0.2612  0.3504 -0.5359
  146SAPE  H12Y16063   4.856  -0.322   4.676  2.7333  1.0911 -0.5965
  146SAPE  C31316064   4.920  -0.123   4.659 -0.4887  0.5954  0.2309
  146SAPE  H13X16065   4.993  -0.124   4.743 -1.3087 -0.4921  0.9650
  146SAPE  H13Y16066   4.881  -0.019   4.652 -3.3032 -0.4012 -0.6631
  146SAPE  C31416067   4.992  -0.156   4.528  0.4425 -0.1648  0.0900
  146SAPE  H14X16068   5.049  -0.252   4.531 -0.7585 -0.9941 -1.6744
  146SAPE  H14Y16069   5.063  -0.073   4.509  0.7366  0.1312  2.2434
  146SAPE  C31516070   4.914  -0.177   4.395  0.4438 -0.3501  0.5239
  146SAPE  H15X16071   4.848  -0.090   4.378  2.5226  1.2154  0.1201
  146SAPE  H15Y16072   4.857  -0.272   4.399 -0.9556  0.3548 -1.5526
  146SAPE  C31616073   5.010  -0.182   4.272  0.1398 -0.5498 -0.4221
  146SAPE  H16X16074   5.065  -0.279   4.268  0.2755 -0.4947  0.0640
  146SAPE  H16Y16075   5.080  -0.100   4.295 -2.1682  0.9763  1.7063
  146SAPE  C31716076   4.943  -0.124   4.143 -0.0640 -0.1054 -0.2576
  146SAPE  H17X16077   5.022  -0.134   4.065  0.2438  2.1482 -0.3313
  146SAPE  H17Y16078   4.919  -0.016   4.160 -0.2548 -0.4957  2.3840
  146SAPE  C31816079   4.817  -0.208   4.101 -0.1937 -0.1284  0.7314
  146SAPE  H18X16080   4.805  -0.188   3.993 -0.7588  0.2913  0.8698
  146SAPE  H18Y16081   4.733  -0.171   4.163 -0.2337  1.0987 -0.0213
  146SAPE  H18Z16082   4.835  -0.317   4.118 -2.2348 -0.3069  2.0344
  147SAPE     N16083   0.968   6.118   6.380 -0.0983  0.2117 -0.0413
  147SAPE   HN116084   0.866   6.114   6.401 -0.5127 -0.7632 -1.9850
  147SAPE   HN216085   0.974   6.156   6.284 -0.5861 -1.2840 -0.6926
  147SAPE   HN316086   1.002   6.020   6.373  1.6397  0.8901 -2.2214
  147SAPE   C1216087   1.045   6.214   6.459  0.3772 -1.1619 -0.4060
  147SAPE  H12A16088   1.149   6.193   6.425  0.1350 -0.9553 -1.3107
  147SAPE  H12B16089   1.042   6.197   6.569  4.2302 -1.3675 -0.1732
  147SAPE   C1116090   0.997   6.355   6.424  0.0979 -0.3211  1.0514
  147SAPE  H11A16091   1.007   6.374   6.315  0.8225  0.1937  1.2061
  147SAPE  H11B16092   1.063   6.434   6.464 -0.1158  1.3153 -1.5660
  147SAPE     P16093   0.739   6.398   6.378  0.0804 -0.0260  0.0397
  147SAPE   O1316094   0.621   6.343   6.444  0.0974 -0.1452  0.1555
  147SAPE   O1416095   0.731   6.540   6.331 -0.4792  0.2509  1.0254
  147SAPE   O1216096   0.859   6.380   6.475  0.7762 -0.3170 -0.6445
  147SAPE   O1116097   0.777   6.302   6.262 -0.3193 -0.4992  0.2822
  147SAPE    C116098   0.689   6.296   6.144 -0.1645 -0.1517 -0.1963
  147SAPE    HA16099   0.589   6.254   6.171 -0.8385 -0.0380 -2.3564
  147SAPE    HB16100   0.673   6.397   6.102 -1.6045  0.0888  0.8366
  147SAPE    C216101   0.750   6.205   6.025 -0.3208  0.5883 -0.2320
  147SAPE    HS16102   0.777   6.105   6.066 -1.8075 -0.0182 -0.6556
  147SAPE   O2116103   0.857   6.270   5.958 -0.3726 -0.2827 -0.2219
  147SAPE   C2116104   0.974   6.253   6.025  0.5452 -0.6259  0.6062
  147SAPE   O2216105   0.994   6.182   6.120  0.1828  0.5477 -0.3677
  147SAPE   C2216106   1.079   6.345   5.958 -0.9658  0.1917  0.2710
  147SAPE   H2R16107   1.170   6.282   5.948 -0.3929  1.0408  0.0299
  147SAPE   H2S16108   1.041   6.374   5.858 -1.6145  1.2974  0.8096
  147SAPE    C316109   0.623   6.170   5.931 -0.0921 -0.2259  0.0278
  147SAPE    HX16110   0.578   6.270   5.916  2.0749  0.7142 -0.6206
  147SAPE    HY16111   0.542   6.111   5.979 -0.8763  0.1805 -0.7632
  147SAPE   O3116112   0.674   6.111   5.804 -1.0311  0.6957  0.0349
  147SAPE   C3116113   0.693   5.984   5.810  0.7709  0.5951 -0.1419
  147SAPE   O3216114   0.665   5.908   5.904 -0.9900 -0.4935 -0.1359
  147SAPE   C3216115   0.731   5.939   5.673  0.2236  0.2922 -0.1262
  147SAPE   H2X16116   0.828   5.985   5.642 -0.2095  0.0416 -1.9355
  147SAPE   H2Y16117   0.658   5.968   5.595  2.2407  0.9396 -1.8623
  147SAPE   C2316118   1.122   6.475   6.040  0.0851  0.3313  0.9132
  147SAPE   H3R16119   1.190   6.436   6.119  1.5456  0.5941 -0.1743
  147SAPE   H3S16120   1.029   6.524   6.076  0.7360  0.8323  1.9485
  147SAPE   C2416121   1.201   6.559   5.938  0.0460  0.3384 -1.0578
  147SAPE   H4R16122   1.122   6.590   5.867 -2.1486 -2.8547 -0.2099
  147SAPE   H4S16123   1.269   6.487   5.888  0.7946 -0.3196  0.8197
  147SAPE   C2516124   1.269   6.679   5.994 -0.3427 -0.8091  0.3603
  147SAPE   H5R16125   1.214   6.774   5.992  0.0573 -0.5812 -0.2325
  147SAPE   C2616126   1.382   6.679   6.063 -0.2558 -0.1318  0.7799
  147SAPE   H6R16127   1.438   6.770   6.089  1.4952 -1.7519  3.2246
  147SAPE   C2716128   1.467   6.555   6.080  0.0213 -0.7726  0.2565
  147SAPE   H7R16129   1.428   6.459   6.039  0.5964 -0.2174 -1.7010
  147SAPE   H7S16130   1.476   6.538   6.189  0.3967 -0.0291  0.3442
  147SAPE   C2816131   1.611   6.586   6.042 -0.3507  0.0286 -0.0457
  147SAPE   H8R16132   1.677   6.629   6.119  2.0859 -2.8158 -0.3811
  147SAPE   C2916133   1.669   6.577   5.920  0.3758  0.2406  0.3229
  147SAPE   H9R16134   1.776   6.601   5.909  0.6667 -1.2389 -0.3173
  147SAPE  C21016135   1.604   6.531   5.792 -0.1759 -0.6181 -0.0864
  147SAPE  H10R16136   1.532   6.606   5.753 -0.6387 -1.2700 -0.5159
  147SAPE  H10S16137   1.535   6.446   5.812 -2.7798  1.2910 -0.4514
  147SAPE  C21116138   1.702   6.489   5.687  0.1280 -0.0643 -1.0008
  147SAPE  H11R16139   1.761   6.399   5.709  0.5105  0.4368  0.0359
  147SAPE  C21216140   1.706   6.548   5.563  0.0718  0.4332  0.7111
  147SAPE  H12R16141   1.759   6.493   5.484 -0.1084  1.0566  0.1512
  147SAPE  C21316142   1.619   6.654   5.499  0.9813 -0.1903  0.5715
  147SAPE  H13R16143   1.689   6.702   5.427 -1.2488  2.3099 -0.0899
  147SAPE  H13S16144   1.597   6.725   5.581 -2.7682 -0.9835  0.4632
  147SAPE  C21416145   1.483   6.630   5.434 -0.3185 -0.4719 -0.1088
  147SAPE  H14R16146   1.404   6.595   5.503 -0.3105  0.6090  0.4685
  147SAPE  C21516147   1.456   6.625   5.302  0.3308 -0.4795 -0.1896
  147SAPE  H15R16148   1.355   6.591   5.274 -0.0264  0.4779 -0.1002
  147SAPE  C21616149   1.551   6.658   5.199 -0.9130 -0.0543  0.4118
  147SAPE  H16R16150   1.623   6.575   5.183 -2.7121 -1.2717 -2.1644
  147SAPE  H16S16151   1.600   6.753   5.229  1.8680 -0.8975 -1.1659
  147SAPE  C21716152   1.500   6.697   5.060  0.3421 -0.3737 -0.0937
  147SAPE  H17R16153   1.596   6.707   5.005  0.5969  1.0093  0.5581
  147SAPE  H17S16154   1.468   6.804   5.061  0.0392 -0.4590 -0.3222
  147SAPE  C21816155   1.401   6.592   4.997 -0.6290  0.1639  0.2059
  147SAPE  H18R16156   1.382   6.627   4.893  1.8260 -1.2947 -0.8114
  147SAPE  H18S16157   1.306   6.609   5.053 -0.0796  5.0232  0.0690
  147SAPE  C21916158   1.454   6.452   4.990 -0.3093 -0.2940  1.2059
  147SAPE  H19R16159   1.456   6.424   5.098 -1.2405  0.3208  1.3953
  147SAPE  H19S16160   1.549   6.448   4.933 -1.1802 -0.6993 -0.2829
  147SAPE  C22016161   1.343   6.363   4.924  0.0019  0.4944 -0.4669
  147SAPE  H20R16162   1.382   6.259   4.926  0.2123  0.5498  2.5806
  147SAPE  H20S16163   1.321   6.387   4.818  0.6317  0.7796 -0.5383
  147SAPE  H20T16164   1.249   6.371   4.982  0.0546  1.0665 -0.4526
  147SAPE   C3316165   0.770   5.787   5.668  0.8506 -0.9781 -0.1019
  147SAPE   H3X16166   0.681   5.721   5.677 -0.2966  0.4188 -0.8140
  147SAPE   H3Y16167   0.826   5.784   5.765 -0.8348  1.5664  1.0695
  147SAPE   C3416168   0.847   5.744   5.543 -0.1836  1.0319 -0.2942
  147SAPE   H4X16169   0.916   5.828   5.522 -0.4027  1.4320  0.5181
  147SAPE   H4Y16170   0.774   5.748   5.459 -0.1657  1.5085 -0.2906
  147SAPE   C3516171   0.918   5.608   5.569  0.6182 -0.3568 -0.7067
  147SAPE   H5X16172   0.847   5.526   5.591  2.2922 -2.3254 -2.2577
  147SAPE   H5Y16173   0.980   5.624   5.660  2.7511 -0.9564 -1.9713
  147SAPE   C3616174   1.018   5.566   5.456  0.3064 -0.6837 -0.0012
  147SAPE   H6X16175   1.077   5.482   5.497  1.2100  0.4389  1.0817
  147SAPE   H6Y16176   1.075   5.658   5.431 -1.5004  1.5408  3.2117
  147SAPE   C3716177   0.942   5.520   5.338 -0.2604  0.3460 -0.1353
  147SAPE   H7X16178   0.870   5.601   5.314  0.3102  0.7562 -0.4681
  147SAPE   H7Y16179   0.869   5.439   5.360 -0.1727  0.5844  1.1021
  147SAPE   C3816180   1.030   5.504   5.216 -0.2859 -1.1262  0.2878
  147SAPE   H8X16181   1.118   5.569   5.231 -0.6297 -0.9266  1.5273
  147SAPE   H8Y16182   0.978   5.543   5.125  0.3395 -0.4454  0.2159
  147SAPE   C3916183   1.061   5.361   5.186  1.0423  0.1997 -0.7539
  147SAPE   H9X16184   0.966   5.316   5.152 -0.1583  2.2672 -0.2863
  147SAPE   H9Y16185   1.084   5.318   5.286 -0.2764 -0.9717 -0.9223
  147SAPE  C31016186   1.176   5.333   5.087  0.0185  0.1447 -0.4829
  147SAPE  H10X16187   1.200   5.225   5.097 -1.3562 -0.2135 -0.8745
  147SAPE  H10Y16188   1.268   5.393   5.107  0.8994 -1.0437 -0.8922
  147SAPE  C31116189   1.134   5.361   4.952 -0.0743  0.6133  0.4068
  147SAPE  H11X16190   1.116   5.469   4.934  0.1582  0.3900 -1.3770
  147SAPE  H11Y16191   1.028   5.329   4.943 -0.3556  1.9414 -1.8720
  147SAPE  C31216192   1.222   5.304   4.844  0.1886 -0.3692  0.4790
  147SAPE  H12X16193   1.250   5.198   4.859  0.3546 -0.3838  0.0842
  147SAPE  H12Y16194   1.318   5.359   4.835 -0.4592  0.7159 -0.0453
  147SAPE  C31316195   1.166   5.312   4.712  0.4242 -0.1295 -0.2904
  147SAPE  H13X16196   1.156   5.422   4.701 -0.2557 -0.2166 -0.6291
  147SAPE  H13Y16197   1.059   5.283   4.702  0.5254 -0.8577  0.6220
  147SAPE  C31416198   1.247   5.250   4.596 -0.4209  0.3035 -0.2316
  147SAPE  H14X16199   1.352   5.279   4.617 -1.2236  1.8100  2.0128
  147SAPE  H14Y16200   1.209   5.291   4.500 -1.3802  1.7399  0.7221
  147SAPE  C31516201   1.231   5.098   4.589  0.2083  0.5439 -0.0259
  147SAPE  H15X16202   1.125   5.068   4.576  0.8353 -1.1110 -1.8187
  147SAPE  H15Y16203   1.271   5.058   4.684 -0.4768 -0.5476 -0.1752
  147SAPE  C31616204   1.314   5.027   4.474  0.1557  0.3564  1.0441
  147SAPE  H16X16205   1.275   4.926   4.449  0.5537  0.4028  0.2234
  147SAPE  H16Y16206   1.418   5.008   4.508  0.7994 -1.2732 -1.6103
  147SAPE  C31716207   1.314   5.100   4.338  0.3884  0.3503 -0.3700
  147SAPE  H17X16208   1.388   5.180   4.360 -1.4870  1.4841  2.4167
  147SAPE  H17Y16209   1.213   5.144   4.323 -0.3448 -1.5906 -1.4725
  147SAPE  C31816210   1.368   5.022   4.223  0.5763 -0.2174 -0.0478
  147SAPE  H18X16211   1.461   4.976   4.261  1.9287  2.6256  0.3406
  147SAPE  H18Y16212   1.388   5.078   4.130 -2.7973 -2.6890 -2.5364
  147SAPE  H18Z16213   1.292   4.946   4.195  0.8654 -0.0234 -1.4326
  148SAPE     N16214   4.846   4.703   6.792  0.1794 -0.1185  0.0829
  148SAPE   HN116215   4.856   4.765   6.709 -2.1676 -1.0584 -0.9824
  148SAPE   HN216216   4.858   4.606   6.759  2.0355 -0.3935  1.3908
  148SAPE   HN316217   4.744   4.712   6.813  0.2289  1.9150 -0.2633
  148SAPE   C1216218   4.931   4.737   6.912  0.5260 -0.8930 -0.0523
  148SAPE  H12A16219   4.915   4.652   6.982  2.1325 -1.6372 -0.5628
  148SAPE  H12B16220   4.886   4.831   6.952  3.1828  0.8544 -0.9325
  148SAPE   C1116221   5.073   4.769   6.864  0.1320 -0.4738  0.1683
  148SAPE  H11A16222   5.133   4.816   6.944  0.5652  1.0018 -0.9702
  148SAPE  H11B16223   5.066   4.841   6.780  3.5027  0.2562  0.3628
  148SAPE     P16224   5.282   4.629   6.775  0.2065  0.0787  0.1507
  148SAPE   O1316225   5.384   4.656   6.878 -0.3176  0.1703 -0.0614
  148SAPE   O1416226   5.297   4.504   6.692  0.3299  0.0632 -0.0913
  148SAPE   O1216227   5.132   4.644   6.830 -0.2662  0.4170  0.4493
  148SAPE   O1116228   5.283   4.757   6.681 -0.1996  0.4120 -0.0065
  148SAPE    C116229   5.207   4.753   6.560  0.5786 -0.0280 -0.6464
  148SAPE    HA16230   5.119   4.687   6.567 -0.4970  1.3743 -0.5540
  148SAPE    HB16231   5.161   4.850   6.532 -1.4296 -1.0455 -1.0884
  148SAPE    C216232   5.297   4.703   6.444  0.1820  0.4352  0.1755
  148SAPE    HS16233   5.356   4.620   6.489  3.0531  2.3396  0.2406
  148SAPE   O2116234   5.388   4.809   6.419  0.1389 -0.1333 -0.0082
  148SAPE   C2116235   5.511   4.778   6.377 -0.4296  0.1770  0.5052
  148SAPE   O2216236   5.557   4.663   6.356  0.0739 -0.5865  0.2086
  148SAPE   C2216237   5.592   4.906   6.359  0.1420  0.2337  0.2300
  148SAPE   H2R16238   5.514   4.984   6.372  1.1595  1.5587 -1.2972
  148SAPE   H2S16239   5.657   4.911   6.449 -1.5218 -1.9801  1.6619
  148SAPE    C316240   5.218   4.668   6.312 -0.0515 -0.3482  0.2670
  148SAPE    HX16241   5.164   4.756   6.269 -0.5802 -1.1244 -0.6806
  148SAPE    HY16242   5.148   4.588   6.346  1.6865 -1.7136  0.7530
  148SAPE   O3116243   5.304   4.622   6.208 -0.3893 -0.0867 -0.2152
  148SAPE   C3116244   5.346   4.496   6.212  0.0472  0.9123  0.5222
  148SAPE   O3216245   5.315   4.415   6.298  0.0551  0.2050  0.4094
  148SAPE   C3216246   5.447   4.457   6.099  0.8037 -0.0934  0.4831
  148SAPE   H2X16247   5.473   4.354   6.135 -1.8298 -0.2809  2.0784
  148SAPE   H2Y16248   5.532   4.528   6.113  0.2797  0.9115 -1.1476
  148SAPE   C2316249   5.677   4.924   6.236  0.5269  0.2766  0.2290
  148SAPE   H3R16250   5.724   4.827   6.213 -0.6369 -0.2410 -0.0615
  148SAPE   H3S16251   5.749   5.003   6.266 -1.0499  1.5389  0.8820
  148SAPE   C2416252   5.610   4.972   6.103 -0.0341 -0.2577  0.6715
  148SAPE   H4R16253   5.693   4.975   6.030 -0.4964  1.0985  0.1732
  148SAPE   H4S16254   5.595   5.081   6.120  0.6756 -0.1618  0.6969
  148SAPE   C2516255   5.488   4.897   6.057  0.1982  0.5887  0.5956
  148SAPE   H5R16256   5.405   4.900   6.130  0.3967 -4.5124  1.3945
  148SAPE   C2616257   5.464   4.847   5.937  0.1183  1.2420  0.2914
  148SAPE   H6R16258   5.371   4.790   5.929  0.6236  0.5995 -1.6010
  148SAPE   C2716259   5.550   4.864   5.817  0.1284  0.3959 -0.0615
  148SAPE   H7R16260   5.534   4.775   5.752 -0.8034  0.0388  0.6318
  148SAPE   H7S16261   5.657   4.871   5.846 -0.5934  2.6386  2.4997
  148SAPE   C2816262   5.512   4.988   5.738  0.0823  0.0332  0.1795
  148SAPE   H8R16263   5.482   5.068   5.807  0.2804 -0.6327  1.0580
  148SAPE   C2916264   5.491   4.996   5.608  0.5071  0.2314 -0.1454
  148SAPE   H9R16265   5.474   5.099   5.571  2.9613  0.6602 -0.2646
  148SAPE  C21016266   5.515   4.891   5.500  0.1157 -0.7111 -0.2827
  148SAPE  H10R16267   5.468   4.794   5.526  2.4024 -1.8641 -0.2046
  148SAPE  H10S16268   5.624   4.873   5.494  0.1269 -2.1457  2.5764
  148SAPE  C21116269   5.474   4.942   5.369 -0.0532 -0.4944 -0.3751
  148SAPE  H11R16270   5.368   4.925   5.350 -0.4673  0.6230  0.7377
  148SAPE  C21216271   5.549   4.982   5.267  0.0161  0.3055 -0.5040
  148SAPE  H12R16272   5.508   5.016   5.171  1.4107 -0.8505 -1.5438
  148SAPE  C21316273   5.695   4.995   5.249  0.5497 -0.1822  0.0086
  148SAPE  H13R16274   5.711   4.965   5.143  0.9515 -1.0108  0.2890
  148SAPE  H13S16275   5.755   4.915   5.298  1.1281  0.3621  0.1914
  148SAPE  C21416276   5.745   5.131   5.279  0.5283  0.4867 -0.6140
  148SAPE  H14R16277   5.693   5.189   5.356  0.1999 -1.3258  0.5734
  148SAPE  C21516278   5.850   5.195   5.223  0.5283 -0.0008  0.6253
  148SAPE  H15R16279   5.880   5.299   5.247  0.8511  0.1571 -0.4182
  148SAPE  C21616280   5.940   5.154   5.109 -0.4999  0.1567 -0.2230
  148SAPE  H16R16281   5.896   5.065   5.059  0.2709 -0.7350  0.6383
  148SAPE  H16S16282   6.038   5.114   5.145 -0.5129  0.8695  0.6498
  148SAPE  C21716283   5.973   5.258   4.999  0.4776 -0.0678  0.3565
  148SAPE  H17R16284   6.041   5.337   5.039  2.1926 -0.8346 -0.9029
  148SAPE  H17S16285   5.883   5.312   4.963  1.0252  2.3551  2.3062
  148SAPE  C21816286   6.044   5.200   4.874 -0.2842 -0.6222 -0.6928
  148SAPE  H18R16287   6.135   5.148   4.909 -0.9202 -0.4848  1.3250
  148SAPE  H18S16288   6.073   5.278   4.800  2.4705 -0.2921  0.6212
  148SAPE  C21916289   5.959   5.088   4.812  0.1269  0.1346  0.0045
  148SAPE  H19R16290   5.854   5.121   4.798 -1.0775 -3.2602 -0.0280
  148SAPE  H19S16291   5.955   5.000   4.880 -2.2029  0.6145  0.5760
  148SAPE  C22016292   6.004   5.039   4.671  0.1432 -0.6954 -1.1820
  148SAPE  H20R16293   5.930   4.965   4.635 -0.5183 -1.2047  1.0721
  148SAPE  H20S16294   6.106   4.996   4.677  0.9871  1.3415  1.6065
  148SAPE  H20T16295   6.005   5.110   4.585  2.1386 -0.6193 -1.1398
  148SAPE   C3316296   5.390   4.472   5.962  0.2669 -0.7514  0.2989
  148SAPE   H3X16297   5.371   4.580   5.943  0.6627 -0.8030 -0.3913
  148SAPE   H3Y16298   5.296   4.415   5.949  0.0747 -0.2991 -0.3215
  148SAPE   C3416299   5.496   4.438   5.850 -0.0173 -0.1094 -0.0165
  148SAPE   H4X16300   5.529   4.337   5.883  1.1488  0.7475  1.5992
  148SAPE   H4Y16301   5.586   4.502   5.859 -0.6208  0.7256  0.2040
  148SAPE   C3516302   5.446   4.453   5.711 -0.2507  0.0927 -0.1070
  148SAPE   H5X16303   5.412   4.559   5.712 -0.5962  0.0168 -1.6980
  148SAPE   H5Y16304   5.367   4.379   5.688 -1.2757  0.3252  2.4201
  148SAPE   C3616305   5.556   4.437   5.604  0.8974 -1.1841  0.2378
  148SAPE   H6X16306   5.606   4.338   5.608 -1.0947 -2.1790  2.2665
  148SAPE   H6Y16307   5.633   4.516   5.616  1.5830 -1.4857 -1.8255
  148SAPE   C3716308   5.495   4.459   5.456  0.4452 -0.2299 -0.7724
  148SAPE   H7X16309   5.443   4.558   5.454 -0.2429 -0.5889 -0.8996
  148SAPE   H7Y16310   5.411   4.387   5.451 -0.3357  0.4637  1.2410
  148SAPE   C3816311   5.583   4.447   5.326  0.1796  0.2013 -0.6014
  148SAPE   H8X16312   5.512   4.406   5.251 -0.4170  0.8216 -0.3877
  148SAPE   H8Y16313   5.661   4.371   5.348  0.9252  0.8556 -0.9318
  148SAPE   C3916314   5.634   4.573   5.268  0.3126 -0.1297  0.0066
  148SAPE   H9X16315   5.708   4.613   5.340 -1.9988 -0.2092  2.6192
  148SAPE   H9Y16316   5.554   4.648   5.249 -0.3056 -0.7374  0.1757
  148SAPE  C31016317   5.698   4.556   5.128 -0.2843  0.6012 -0.1188
  148SAPE  H10X16318   5.625   4.545   5.045 -0.1081 -0.3396 -0.1487
  148SAPE  H10Y16319   5.755   4.461   5.126 -0.7145  0.0803  4.1122
  148SAPE  C31116320   5.785   4.679   5.084  0.1593  0.4637 -1.0906
  148SAPE  H11X16321   5.863   4.684   5.163 -0.2069 -0.6755 -0.6417
  148SAPE  H11Y16322   5.718   4.767   5.077 -2.8478 -1.6451 -0.6070
  148SAPE  C31216323   5.861   4.652   4.950  0.6377  0.4247  0.9749
  148SAPE  H12X16324   5.926   4.563   4.968  3.6723  2.3818  0.3456
  148SAPE  H12Y16325   5.935   4.734   4.938 -1.5502  2.5626  1.4854
  148SAPE  C31316326   5.785   4.615   4.823  0.0803 -1.1221 -0.2731
  148SAPE  H13X16327   5.704   4.689   4.806  0.4526 -0.3824  1.0253
  148SAPE  H13Y16328   5.729   4.519   4.832 -2.7006  0.2821 -1.3052
  148SAPE  C31416329   5.868   4.618   4.697  0.8099  0.0408  0.8422
  148SAPE  H14X16330   5.950   4.546   4.717  1.2865  0.0766 -0.8489
  148SAPE  H14Y16331   5.920   4.715   4.679  0.4890  0.2133  0.8397
  148SAPE  C31516332   5.783   4.586   4.577  0.2347  0.2282  0.0368
  148SAPE  H15X16333   5.677   4.616   4.593  0.8354  1.5561  1.9631
  148SAPE  H15Y16334   5.780   4.475   4.574  0.5914  0.2235 -0.1769
  148SAPE  C31616335   5.842   4.616   4.435 -0.5142  0.4589  0.4188
  148SAPE  H16X16336   5.806   4.721   4.423 -2.3829 -0.4641 -3.4207
  148SAPE  H16Y16337   5.801   4.559   4.350 -0.7270 -0.7970  1.3477
  148SAPE  C31716338   5.998   4.599   4.425  0.0412 -0.1451 -0.4489
  148SAPE  H17X16339   6.052   4.670   4.492  1.7459 -1.7591 -0.0378
  148SAPE  H17Y16340   6.025   4.624   4.320 -0.2873  2.8624  0.0901
  148SAPE  C31816341   6.039   4.452   4.449 -0.1168  0.0214 -0.0758
  148SAPE  H18X16342   5.979   4.376   4.393 -0.6031  1.0375 -0.9616
  148SAPE  H18Y16343   6.028   4.432   4.558 -0.0815 -1.0792 -0.2627
  148SAPE  H18Z16344   6.148   4.430   4.435 -0.7007 -2.4799 -1.3757
  149SAPE     N16345   3.843   3.366   6.294 -0.0800  0.5988 -0.2205
  149SAPE   HN116346   3.919   3.296   6.302 -0.1147  0.5513 -0.2982
  149SAPE   HN216347   3.896   3.455   6.284  0.5950  0.1784 -0.4538
  149SAPE   HN316348   3.799   3.368   6.388 -1.2681  0.9081 -0.7526
  149SAPE   C1216349   3.742   3.333   6.194 -0.9721  0.2449 -0.4806
  149SAPE  H12A16350   3.788   3.338   6.093  0.5040  3.0993  0.2257
  149SAPE  H12B16351   3.663   3.411   6.195  1.4218  2.8451 -0.3871
  149SAPE   C1116352   3.687   3.191   6.227 -0.1129  0.3536  0.2485
  149SAPE  H11A16353   3.587   3.181   6.180  0.6677 -0.0910 -1.3832
  149SAPE  H11B16354   3.669   3.190   6.337  1.4363  2.1873  0.5812
  149SAPE     P16355   3.838   2.975   6.283 -0.0426 -0.0840  0.5898
  149SAPE   O1316356   3.941   3.067   6.347  0.0534  0.2506 -0.3660
  149SAPE   O1416357   3.734   2.917   6.367  0.2279  0.1435  0.4550
  149SAPE   O1216358   3.774   3.082   6.185  0.0975 -0.1708 -0.3091
  149SAPE   O1116359   3.915   2.878   6.180 -0.0374 -0.5106 -0.7474
  149SAPE    C116360   3.869   2.760   6.122 -0.4056 -0.1323 -0.2906
  149SAPE    HA16361   3.956   2.694   6.102 -0.7505 -0.1669 -1.7996
  149SAPE    HB16362   3.796   2.703   6.184  0.2312 -0.3609  0.2704
  149SAPE    C216363   3.815   2.800   5.981  0.5253 -0.1181  0.2601
  149SAPE    HS16364   3.727   2.867   5.991  1.3505  0.8441  1.1136
  149SAPE   O2116365   3.778   2.675   5.914  0.4613 -0.6857  0.5669
  149SAPE   C2116366   3.674   2.616   5.952  0.6220 -0.3589  0.3412
  149SAPE   O2216367   3.587   2.651   6.037 -0.1446 -0.2200  0.0543
  149SAPE   C2216368   3.673   2.481   5.876 -0.0500 -0.0098  0.6618
  149SAPE   H2R16369   3.721   2.408   5.944 -0.3156 -0.9196 -0.1134
  149SAPE   H2S16370   3.567   2.452   5.856 -0.7314  1.4639  1.9244
  149SAPE    C316371   3.927   2.867   5.900 -0.2958  0.6066 -0.4001
  149SAPE    HX16372   4.020   2.807   5.906 -0.6281  0.0524 -0.7567
  149SAPE    HY16373   3.939   2.970   5.941 -1.1832  1.1758 -1.5114
  149SAPE   O3116374   3.881   2.874   5.760  0.3951 -0.0429  0.0070
  149SAPE   C3116375   3.935   2.788   5.674 -0.1098  0.0047 -0.3805
  149SAPE   O3216376   4.024   2.711   5.702 -0.4376 -0.4133 -0.1028
  149SAPE   C3216377   3.854   2.796   5.542  0.0077 -0.3194 -0.2950
  149SAPE   H2X16378   3.870   2.899   5.502  1.6843  0.0112  1.1193
  149SAPE   H2Y16379   3.748   2.783   5.572 -0.2918 -0.7368 -1.4991
  149SAPE   C2316380   3.752   2.488   5.736  0.7817  0.5171  0.0063
  149SAPE   H3R16381   3.856   2.522   5.758 -0.1629  2.5305  1.7957
  149SAPE   H3S16382   3.702   2.577   5.691  0.3434 -0.0832 -0.7098
  149SAPE   C2416383   3.748   2.358   5.654 -0.3980  0.2307  0.0503
  149SAPE   H4R16384   3.815   2.278   5.694  0.2120  0.3651 -0.6931
  149SAPE   H4S16385   3.798   2.398   5.564 -1.0108  1.4040  0.2090
  149SAPE   C2516386   3.616   2.303   5.611  0.2706 -0.0881  0.4669
  149SAPE   H5R16387   3.580   2.213   5.664  3.6107 -1.5876  0.4104
  149SAPE   C2616388   3.536   2.339   5.509  0.0086 -0.4140 -0.4428
  149SAPE   H6R16389   3.442   2.286   5.492 -0.6994 -0.1591  2.2471
  149SAPE   C2716390   3.560   2.453   5.412 -0.7126 -0.7312 -0.3131
  149SAPE   H7R16391   3.608   2.546   5.450 -2.6052  2.0917 -4.2104
  149SAPE   H7S16392   3.462   2.484   5.372 -0.0328  0.3692 -1.1857
  149SAPE   C2816393   3.651   2.395   5.302  0.1673 -0.0871  0.1254
  149SAPE   H8R16394   3.759   2.415   5.311  0.1545  0.4949 -0.8669
  149SAPE   C2916395   3.615   2.334   5.193  0.4566  0.6109 -0.4817
  149SAPE   H9R16396   3.689   2.295   5.122 -0.4559 -0.0455 -1.1006
  149SAPE  C21016397   3.474   2.292   5.160 -0.2547 -0.1990  0.0897
  149SAPE  H10R16398   3.430   2.255   5.254  1.2860 -0.4523  0.7403
  149SAPE  H10S16399   3.485   2.206   5.091  0.5841 -0.6369  0.7565
  149SAPE  C21116400   3.389   2.396   5.090  0.3458 -0.5542  0.3849
  149SAPE  H11R16401   3.327   2.458   5.157 -2.7644 -2.1472 -0.8133
  149SAPE  C21216402   3.390   2.418   4.959  0.2672 -0.8775  0.6135
  149SAPE  H12R16403   3.320   2.490   4.914 -0.2107  0.2565  2.9976
  149SAPE  C21316404   3.472   2.353   4.858 -0.1680  0.3555  0.0063
  149SAPE  H13R16405   3.400   2.346   4.774 -1.9213 -0.7061  1.5178
  149SAPE  H13S16406   3.496   2.249   4.888 -1.7824  0.2636  1.1143
  149SAPE  C21416407   3.594   2.433   4.818  0.1414 -0.0512 -0.6591
  149SAPE  H14R16408   3.678   2.411   4.886 -1.1099 -1.2981  0.5371
  149SAPE  C21516409   3.608   2.509   4.710  0.0169 -0.3242  0.1564
  149SAPE  H15R16410   3.704   2.561   4.695 -0.2371  0.3728  0.8896
  149SAPE  C21616411   3.505   2.538   4.601 -0.3316 -0.0862 -0.0285
  149SAPE  H16R16412   3.516   2.646   4.578  0.4835 -0.1842 -0.1178
  149SAPE  H16S16413   3.401   2.521   4.637 -0.1852  0.7356  0.8398
  149SAPE  C21716414   3.525   2.457   4.471  0.4628  0.0258  0.3399
  149SAPE  H17R16415   3.625   2.491   4.436  0.7668  1.3193  2.2958
  149SAPE  H17S16416   3.441   2.485   4.404 -0.1687 -2.7504 -0.1269
  149SAPE  C21816417   3.528   2.302   4.484 -0.0344 -0.0943  1.0870
  149SAPE  H18R16418   3.430   2.269   4.527 -0.0219 -1.9583 -0.2165
  149SAPE  H18S16419   3.612   2.276   4.552  2.3902  1.0416 -1.3052
  149SAPE  C21916420   3.552   2.234   4.349  0.3410 -0.3233 -0.7288
  149SAPE  H19R16421   3.457   2.241   4.291 -0.1513  0.4924  0.1505
  149SAPE  H19S16422   3.564   2.126   4.373  0.8297 -0.0508  0.3210
  149SAPE  C22016423   3.671   2.284   4.263  0.1500 -0.1115 -0.4471
  149SAPE  H20R16424   3.660   2.386   4.221 -0.7028 -0.3936 -0.9393
  149SAPE  H20S16425   3.691   2.220   4.174 -0.8404  0.5925 -1.2122
  149SAPE  H20T16426   3.764   2.281   4.324  0.1792  0.2818 -0.4691
  149SAPE   C3316427   3.896   2.683   5.440 -0.1681  1.2998  0.4224
  149SAPE   H3X16428   3.872   2.581   5.475  0.2662  1.6266  1.7416
  149SAPE   H3Y16429   4.007   2.675   5.441 -0.2466 -0.8228 -1.2852
  149SAPE   C3416430   3.845   2.703   5.299  0.0697 -0.4174  0.0217
  149SAPE   H4X16431   3.849   2.813   5.281  1.7299 -0.4279  0.1272
  149SAPE   H4Y16432   3.739   2.672   5.288  0.8446 -3.7126  0.8904
  149SAPE   C3516433   3.938   2.637   5.201  0.2022 -0.0046 -0.6439
  149SAPE   H5X16434   3.933   2.530   5.230  0.5448  0.3943  1.0253
  149SAPE   H5Y16435   4.047   2.657   5.200  0.4197 -0.5177  2.4622
  149SAPE   C3616436   3.898   2.656   5.054 -0.2554  0.5523 -0.2688
  149SAPE   H6X16437   3.796   2.612   5.053  0.4868 -1.3198  0.8008
  149SAPE   H6Y16438   3.960   2.577   5.007  0.3491  0.8749 -0.0285
  149SAPE   C3716439   3.914   2.801   4.993  0.0401 -0.2793 -0.1781
  149SAPE   H7X16440   4.009   2.840   5.035 -0.8207 -0.3985  2.0421
  149SAPE   H7Y16441   3.852   2.869   5.056  0.6425 -1.1738  1.4282
  149SAPE   C3816442   3.903   2.823   4.843  1.2370 -0.2420  0.6397
  149SAPE   H8X16443   3.826   2.749   4.815 -0.9819  1.4152  2.0036
  149SAPE   H8Y16444   3.999   2.804   4.789  1.3436  1.0475  0.3351
  149SAPE   C3916445   3.844   2.959   4.807  0.4042  0.2585 -0.4064
  149SAPE   H9X16446   3.898   3.040   4.861  0.7449  1.7096 -2.8226
  149SAPE   H9Y16447   3.741   2.958   4.849 -0.0063 -0.3639 -1.3898
  149SAPE  C31016448   3.855   2.994   4.659  0.3401  0.2559  0.3497
  149SAPE  H10X16449   3.966   2.988   4.649  0.3525 -0.0426  0.6291
  149SAPE  H10Y16450   3.828   3.097   4.630 -0.4646  0.0993  0.5330
  149SAPE  C31116451   3.798   2.885   4.576 -0.2720  0.0229  0.1645
  149SAPE  H11X16452   3.700   2.862   4.623  1.7765 -2.2107  3.7710
  149SAPE  H11Y16453   3.855   2.789   4.583  1.3954  0.7698 -1.8839
  149SAPE  C31216454   3.798   2.921   4.419  0.4849  0.8215  0.2559
  149SAPE  H12X16455   3.901   2.929   4.378  0.0290  1.5394 -0.7853
  149SAPE  H12Y16456   3.747   3.018   4.399  1.3066  0.9147 -1.6172
  149SAPE  C31316457   3.731   2.815   4.340  0.2055  0.5112  0.9339
  149SAPE  H13X16458   3.620   2.820   4.347  0.0048 -1.7964  0.0127
  149SAPE  H13Y16459   3.766   2.718   4.381 -0.2551  0.7392  1.9128
  149SAPE  C31416460   3.756   2.823   4.188 -0.3594  0.1232 -0.2810
  149SAPE  H14X16461   3.862   2.850   4.173 -0.6264  1.0346 -0.6285
  149SAPE  H14Y16462   3.697   2.908   4.147  0.5895  0.6559 -0.5575
  149SAPE  C31516463   3.723   2.699   4.107  0.4049  0.1412  0.2612
  149SAPE  H15X16464   3.798   2.618   4.122  3.4631  2.7752  0.1678
  149SAPE  H15Y16465   3.736   2.729   4.001  2.4421  2.4859  1.0931
  149SAPE  C31616466   3.585   2.634   4.133 -0.2815  0.3060  0.6370
  149SAPE  H16X16467   3.589   2.590   4.235  1.5291 -0.4226  0.2918
  149SAPE  H16Y16468   3.572   2.553   4.058  4.1559  0.2096 -0.3130
  149SAPE  C31716469   3.467   2.721   4.115  0.7144 -0.6918 -0.3173
  149SAPE  H17X16470   3.458   2.816   4.171  1.2102 -0.9278  0.1775
  149SAPE  H17Y16471   3.376   2.668   4.152 -0.3381  1.7279  0.8037
  149SAPE  C31816472   3.443   2.759   3.978  0.4957  0.2953  0.7926
  149SAPE  H18X16473   3.369   2.841   3.969  0.4018  0.3965  2.2443
  149SAPE  H18Y16474   3.398   2.678   3.917  0.1937  0.8460  0.2784
  149SAPE  H18Z16475   3.534   2.797   3.928  1.0531 -0.5940  1.1024
  150SAPE     N16476   5.148   6.442   6.811  0.3239  0.3757  0.1551
  150SAPE   HN116477   5.231   6.382   6.825 -0.7627 -0.9186  1.3362
  150SAPE   HN216478   5.122   6.496   6.896 -1.6444 -0.5290  0.1844
  150SAPE   HN316479   5.071   6.381   6.776 -0.3755  0.4696  1.4866
  150SAPE   C1216480   5.171   6.538   6.694  0.9837 -0.0624 -0.5634
  150SAPE  H12A16481   5.205   6.634   6.739  1.0043 -0.3104 -0.0546
  150SAPE  H12B16482   5.074   6.540   6.638  0.6911 -0.8688 -0.0998
  150SAPE   C1116483   5.280   6.491   6.603 -0.3371  0.5284  0.5332
  150SAPE  H11A16484   5.297   6.561   6.519 -0.3706 -0.4148 -0.2731
  150SAPE  H11B16485   5.248   6.389   6.572  0.0871  0.6415 -0.2903
  150SAPE     P16486   5.485   6.353   6.723  0.3109 -0.0553  0.4568
  150SAPE   O1316487   5.577   6.393   6.830  0.4368 -0.2757  0.3507
  150SAPE   O1416488   5.382   6.253   6.761  0.1593 -0.1164 -0.1535
  150SAPE   O1216489   5.409   6.483   6.668  0.2868 -0.0618 -0.0490
  150SAPE   O1116490   5.566   6.294   6.597  0.5618  0.4009  0.0009
  150SAPE    C116491   5.661   6.371   6.518  0.9266 -0.8328  0.6382
  150SAPE    HA16492   5.709   6.440   6.590  1.8211 -1.2177  0.4290
  150SAPE    HB16493   5.739   6.300   6.483  0.8538 -1.5464  1.8570
  150SAPE    C216494   5.597   6.434   6.393 -0.0301 -0.0807 -1.1995
  150SAPE    HS16495   5.518   6.498   6.438  0.8368 -0.7896  1.5037
  150SAPE   O2116496   5.556   6.331   6.296  0.7372  0.0022 -0.1787
  150SAPE   C2116497   5.424   6.340   6.262 -0.7390 -0.2938  0.5146
  150SAPE   O2216498   5.352   6.429   6.307  0.6685 -0.1067  0.3046
  150SAPE   C2216499   5.379   6.239   6.163 -0.0267 -0.1528 -0.5679
  150SAPE   H2R16500   5.284   6.191   6.192 -0.6318  1.4648  0.2536
  150SAPE   H2S16501   5.373   6.292   6.065 -1.2740  0.6441 -0.0857
  150SAPE    C316502   5.693   6.530   6.315 -0.1222  1.1204 -0.8887
  150SAPE    HX16503   5.771   6.458   6.280  0.1310 -0.2429  2.1182
  150SAPE    HY16504   5.743   6.604   6.382  1.3546 -0.6105  0.0106
  150SAPE   O3116505   5.631   6.600   6.202 -0.3706  0.5251 -0.0626
  150SAPE   C3116506   5.558   6.717   6.233  0.1548  0.4196 -0.5881
  150SAPE   O3216507   5.554   6.763   6.345  0.2212  0.2534 -0.5336
  150SAPE   C3216508   5.500   6.774   6.111 -0.1529 -0.0238 -0.2887
  150SAPE   H2X16509   5.414   6.708   6.086  0.5782 -3.0304  4.1343
  150SAPE   H2Y16510   5.569   6.766   6.024  0.1428 -0.2267 -0.0357
  150SAPE   C2316511   5.481   6.116   6.167 -0.1694 -0.2437 -1.0188
  150SAPE   H3R16512   5.469   6.070   6.267  0.4845 -0.2605 -0.9486
  150SAPE   H3S16513   5.585   6.148   6.145 -0.1085  1.6071  1.5381
  150SAPE   C2416514   5.463   6.013   6.057 -0.1368  0.7093  0.4296
  150SAPE   H4R16515   5.553   5.948   6.060 -1.0561 -0.7218 -1.1089
  150SAPE   H4S16516   5.464   6.064   5.959  1.6898  0.8908  0.5210
  150SAPE   C2516517   5.336   5.933   6.065  0.5725 -0.2172 -0.5830
  150SAPE   H5R16518   5.307   5.915   6.169  1.5044 -0.2779 -0.3301
  150SAPE   C2616519   5.265   5.895   5.962  0.1870 -0.3719 -0.1127
  150SAPE   H6R16520   5.177   5.831   5.980  0.5759 -1.5676 -2.1672
  150SAPE   C2716521   5.291   5.904   5.818 -0.1348 -1.2308  0.6437
  150SAPE   H7R16522   5.354   5.992   5.792 -2.2255 -0.1783 -1.1023
  150SAPE   H7S16523   5.198   5.939   5.769 -0.5460  1.4821  3.0619
  150SAPE   C2816524   5.374   5.794   5.754  0.3723  0.4397  1.0879
  150SAPE   H8R16525   5.403   5.707   5.814 -0.0740 -0.4135  0.0874
  150SAPE   C2916526   5.416   5.793   5.630  0.8506 -0.0310 -0.0648
  150SAPE   H9R16527   5.464   5.702   5.593 -0.4976  0.0293 -2.1332
  150SAPE  C21016528   5.376   5.896   5.525  0.1949 -0.1109 -0.7188
  150SAPE  H10R16529   5.462   5.959   5.494  0.3911  0.2293  0.4821
  150SAPE  H10S16530   5.306   5.964   5.577  0.4170  2.1516 -3.1416
  150SAPE  C21116531   5.297   5.823   5.421 -0.0649 -0.0867  0.1118
  150SAPE  H11R16532   5.202   5.774   5.444  0.8052 -2.4733 -1.1140
  150SAPE  C21216533   5.335   5.834   5.290  0.7351 -0.3996 -0.6899
  150SAPE  H12R16534   5.270   5.785   5.217  1.1579 -0.7757 -0.8181
  150SAPE  C21316535   5.457   5.903   5.229  0.3635  0.3465  0.0673
  150SAPE  H13R16536   5.516   5.834   5.165  1.3720  0.3322  0.9925
  150SAPE  H13S16537   5.530   5.933   5.306  1.2770 -3.0798  0.6825
  150SAPE  C21416538   5.418   6.028   5.156 -0.3619  0.6768  0.3510
  150SAPE  H14R16539   5.365   6.097   5.223  0.5491  0.8595  0.9086
  150SAPE  C21516540   5.457   6.062   5.033 -0.0406  0.3253  0.0657
  150SAPE  H15R16541   5.423   6.157   4.989  2.5795  1.3121 -0.0191
  150SAPE  C21616542   5.537   5.981   4.933 -0.3750  0.0942  0.4513
  150SAPE  H16R16543   5.612   5.916   4.982  1.2562  0.5442 -1.3327
  150SAPE  H16S16544   5.610   6.046   4.881 -1.2577 -0.9884 -2.3595
  150SAPE  C21716545   5.451   5.908   4.818 -0.3885  0.4405 -0.5396
  150SAPE  H17R16546   5.360   5.866   4.865  0.5713  0.1833  1.1959
  150SAPE  H17S16547   5.521   5.836   4.771  1.1735  1.7842 -0.3450
  150SAPE  C21816548   5.390   6.006   4.716  0.2154  0.8685  0.0150
  150SAPE  H18R16549   5.350   6.087   4.780 -0.6220  1.5067 -1.2725
  150SAPE  H18S16550   5.300   5.957   4.673 -0.6432  1.0607  1.5356
  150SAPE  C21916551   5.499   6.059   4.629 -0.0887 -0.1317 -0.2913
  150SAPE  H19R16552   5.589   6.094   4.684 -1.1350  1.7694  0.3180
  150SAPE  H19S16553   5.467   6.157   4.588  2.2555  0.9170  0.2545
  150SAPE  C22016554   5.531   5.962   4.517 -0.1827 -0.4954  0.3658
  150SAPE  H20R16555   5.557   5.857   4.544  0.3040 -0.1438  1.2895
  150SAPE  H20S16556   5.598   6.016   4.446 -1.3561  1.0957  0.4188
  150SAPE  H20T16557   5.447   5.951   4.445  0.5978  1.9392 -1.0300
  150SAPE   C3316558   5.459   6.924   6.113 -0.1385 -0.3380 -0.3904
  150SAPE   H3X16559   5.399   6.948   6.203  1.5283 -0.6816  0.8729
  150SAPE   H3Y16560   5.414   6.943   6.014  0.8583 -1.3713 -1.0698
  150SAPE   C3416561   5.579   7.023   6.129 -0.6250  0.5374 -0.9033
  150SAPE   H4X16562   5.647   6.998   6.045 -0.0270 -1.4738  0.1187
  150SAPE   H4Y16563   5.632   7.004   6.225  1.2947  2.2091 -1.5424
  150SAPE   C3516564   5.545   7.178   6.116 -0.2371  0.1914  0.1845
  150SAPE   H5X16565   5.620   7.242   6.166  1.0824  0.6066 -2.1475
  150SAPE   H5Y16566   5.441   7.199   6.148 -0.7119  0.8875 -1.6749
  150SAPE   C3616567   5.548   7.220   5.964 -0.0461  0.1882 -0.2777
  150SAPE   H6X16568   5.485   7.312   5.969 -1.7675 -0.8955 -1.3778
  150SAPE   H6Y16569   5.494   7.152   5.896  1.5905  1.6235 -3.2304
  150SAPE   C3716570   5.686   7.244   5.898  0.2808  0.3252  0.4134
  150SAPE   H7X16571   5.699   7.141   5.859 -0.5693  0.3870 -0.0421
  150SAPE   H7Y16572   5.758   7.274   5.978  2.5239 -1.1864 -0.9256
  150SAPE   C3816573   5.674   7.350   5.791 -0.3199 -0.2683  0.1800
  150SAPE   H8X16574   5.568   7.365   5.761 -0.7989  0.7702  2.1919
  150SAPE   H8Y16575   5.724   7.308   5.701 -2.5403  0.2895 -1.4077
  150SAPE   C3916576   5.738   7.487   5.828 -0.7507  0.0307  0.0524
  150SAPE   H9X16577   5.845   7.475   5.858 -0.1421  1.0321 -1.5353
  150SAPE   H9Y16578   5.702   7.519   5.928  2.5066 -0.3369  1.4927
  150SAPE  C31016579   5.724   7.595   5.714 -0.0510  0.5445 -0.9193
  150SAPE  H10X16580   5.796   7.676   5.739  0.3753 -0.4162  1.2286
  150SAPE  H10Y16581   5.620   7.633   5.715 -1.0453 -1.9095  1.3440
  150SAPE  C31116582   5.766   7.537   5.570 -0.1131  0.0518 -0.0057
  150SAPE  H11X16583   5.696   7.454   5.545 -0.2956  0.3995 -0.6820
  150SAPE  H11Y16584   5.865   7.487   5.579 -1.2376 -2.0811  1.4606
  150SAPE  C31216585   5.751   7.635   5.456 -0.1248 -0.4817  0.3483
  150SAPE  H12X16586   5.820   7.722   5.470 -0.8680  0.8533 -3.0919
  150SAPE  H12Y16587   5.644   7.659   5.444  0.1868 -0.0374 -2.1781
  150SAPE  C31316588   5.790   7.564   5.327  0.1195 -0.3340 -0.2962
  150SAPE  H13X16589   5.731   7.472   5.307  1.0261 -0.4705 -2.6317
  150SAPE  H13Y16590   5.896   7.535   5.337  0.3391  0.2484 -0.8626
  150SAPE  C31416591   5.778   7.664   5.213 -0.0181  0.4977  0.4252
  150SAPE  H14X16592   5.821   7.760   5.247 -1.8729  1.3895  0.3930
  150SAPE  H14Y16593   5.676   7.690   5.177 -0.3987 -1.1534  0.2128
  150SAPE  C31516594   5.863   7.624   5.091  0.5532 -0.0099 -0.0890
  150SAPE  H15X16595   5.825   7.525   5.059  0.3985 -0.3458  1.0908
  150SAPE  H15Y16596   5.972   7.623   5.113  0.6932  1.4547 -0.6179
  150SAPE  C31616597   5.852   7.722   4.972  0.0234 -0.7966 -1.1175
  150SAPE  H16X16598   5.922   7.688   4.893  0.7206 -1.2060 -0.3367
  150SAPE  H16Y16599   5.901   7.814   5.011  2.1490 -2.1408 -0.5097
  150SAPE  C31716600   5.710   7.736   4.923  0.2991 -0.3815  0.0187
  150SAPE  H17X16601   5.660   7.796   5.002  2.0085  1.2348 -0.0546
  150SAPE  H17Y16602   5.653   7.642   4.906  0.5218 -0.8339  1.5915
  150SAPE  C31816603   5.709   7.824   4.797  0.0192  0.1567 -0.6991
  150SAPE  H18X16604   5.755   7.774   4.710  1.2275 -1.2427  0.6951
  150SAPE  H18Y16605   5.766   7.917   4.820 -1.9374  1.3745 -0.5087
  150SAPE  H18Z16606   5.606   7.850   4.764  0.1712  0.1931 -1.1466
  151SAPE     N16607   4.457   5.322   6.693 -0.1788  0.4040  0.2958
  151SAPE   HN116608   4.379   5.253   6.694  0.8758 -0.8177  1.2494
  151SAPE   HN216609   4.517   5.302   6.776  1.7464  6.3931  0.8036
  151SAPE   HN316610   4.421   5.419   6.694  1.0452  1.0006 -2.7970
  151SAPE   C1216611   4.541   5.313   6.569 -0.4960  0.0513  0.1191
  151SAPE  H12A16612   4.480   5.335   6.479  2.0090 -0.0529 -1.7025
  151SAPE  H12B16613   4.565   5.205   6.555  0.6434 -0.0632  2.4332
  151SAPE   C1116614   4.673   5.393   6.576  0.0086 -0.5834  0.3066
  151SAPE  H11A16615   4.649   5.500   6.592  0.4784  0.2773 -3.6511
  151SAPE  H11B16616   4.722   5.382   6.477 -0.4420 -0.7516  0.0973
  151SAPE     P16617   4.891   5.391   6.713 -0.0701 -0.0460  0.3138
  151SAPE   O1316618   4.905   5.541   6.702  0.1878 -0.0636 -0.0311
  151SAPE   O1416619   4.936   5.325   6.837  0.4084 -0.7184 -0.6152
  151SAPE   O1216620   4.751   5.340   6.677 -0.5359 -0.4554 -0.1133
  151SAPE   O1116621   4.973   5.326   6.591  0.2134 -0.5423 -0.0817
  151SAPE    C116622   4.987   5.184   6.579 -0.1692  0.6013  0.4789
  151SAPE    HA16623   5.077   5.146   6.633 -0.0853  0.7075  0.4128
  151SAPE    HB16624   4.899   5.132   6.622 -0.9776  0.6868 -1.0164
  151SAPE    C216625   5.004   5.138   6.427 -0.1006  0.7674  0.2633
  151SAPE    HS16626   5.028   5.031   6.441 -1.2318  0.2431 -1.5075
  151SAPE   O2116627   5.112   5.214   6.370  0.0053  0.4863  0.2927
  151SAPE   C2116628   5.192   5.129   6.290  0.4320 -0.3440 -1.0040
  151SAPE   O2216629   5.158   5.018   6.251 -0.0330 -0.6707 -0.6234
  151SAPE   C2216630   5.321   5.193   6.252  0.9586 -0.5719 -0.5938
  151SAPE   H2R16631   5.366   5.214   6.352 -3.0955  1.7028  0.9800
  151SAPE   H2S16632   5.373   5.108   6.201  0.4089 -1.8518  0.9003
  151SAPE    C316633   4.874   5.156   6.346  0.2036  0.2691  0.0055
  151SAPE    HX16634   4.857   5.264   6.360  0.2667 -0.0127  2.8148
  151SAPE    HY16635   4.782   5.106   6.385  1.4917 -0.3623  2.5117
  151SAPE   O3116636   4.887   5.128   6.209 -0.2111  0.2197 -0.2255
  151SAPE   C3116637   4.833   5.006   6.179  0.1454 -0.0315  0.0442
  151SAPE   O3216638   4.805   4.923   6.264 -0.4221 -0.2088 -0.3875
  151SAPE   C3216639   4.829   4.977   6.031 -0.3434  0.0400 -0.4543
  151SAPE   H2X16640   4.808   5.070   5.974  1.1197  0.8003  0.2005
  151SAPE   H2Y16641   4.748   4.901   6.020 -0.3605  0.0814 -0.6180
  151SAPE   C2316642   5.311   5.331   6.174 -0.3915  0.4987 -0.3736
  151SAPE   H3R16643   5.411   5.347   6.128 -0.8436  1.0861 -1.1793
  151SAPE   H3S16644   5.296   5.414   6.246 -0.2500 -0.7121  1.1058
  151SAPE   C2416645   5.193   5.334   6.070  0.1825  0.3472 -0.9801
  151SAPE   H4R16646   5.178   5.440   6.041 -1.6855  0.3400 -0.1421
  151SAPE   H4S16647   5.096   5.298   6.110 -0.2572 -2.4242 -4.0520
  151SAPE   C2516648   5.218   5.249   5.950 -0.3194  0.3162  0.2420
  151SAPE   H5R16649   5.184   5.144   5.953 -0.8234  0.4946  1.0156
  151SAPE   C2616650   5.259   5.296   5.835 -0.6419  0.6367  0.4443
  151SAPE   H6R16651   5.269   5.226   5.752 -1.3411  0.7496  0.2506
  151SAPE   C2716652   5.302   5.434   5.797  0.6122  0.9248 -0.2978
  151SAPE   H7R16653   5.330   5.510   5.873  3.2058  0.9135 -1.1403
  151SAPE   H7S16654   5.224   5.495   5.747 -2.3736 -0.7597  1.9608
  151SAPE   C2816655   5.429   5.421   5.720 -0.1842  0.3603  0.4782
  151SAPE   H8R16656   5.513   5.400   5.787 -1.2682  2.2842  2.5824
  151SAPE   C2916657   5.455   5.434   5.584 -0.8327 -0.1500 -0.5943
  151SAPE   H9R16658   5.558   5.415   5.549 -1.7606 -1.9727 -2.5722
  151SAPE  C21016659   5.353   5.463   5.473 -0.1256 -0.0381 -0.3702
  151SAPE  H10R16660   5.387   5.539   5.399 -0.8037  0.2914 -0.3545
  151SAPE  H10S16661   5.258   5.502   5.514  0.9442  0.3662  1.8813
  151SAPE  C21116662   5.317   5.333   5.404  0.2683 -0.5442 -0.2946
  151SAPE  H11R16663   5.251   5.269   5.464 -0.8804 -0.2121 -1.1794
  151SAPE  C21216664   5.374   5.281   5.287  0.3046 -0.4981 -0.3457
  151SAPE  H12R16665   5.343   5.188   5.237  0.6860 -1.0698  0.4571
  151SAPE  C21316666   5.474   5.365   5.210 -0.0542 -0.2185 -0.1106
  151SAPE  H13R16667   5.534   5.300   5.142 -2.7322 -1.4163 -1.4730
  151SAPE  H13S16668   5.558   5.392   5.277  0.2349  0.9790 -0.9334
  151SAPE  C21416669   5.423   5.489   5.134 -0.0390 -0.1766  0.0345
  151SAPE  H14R16670   5.375   5.564   5.200 -0.1082 -1.7056  1.7835
  151SAPE  C21516671   5.427   5.503   5.004 -0.0230 -0.2178  0.1906
  151SAPE  H15R16672   5.386   5.595   4.959 -0.1339 -0.3413  0.0393
  151SAPE  C21616673   5.475   5.399   4.905  0.6935  0.1498  0.2104
  151SAPE  H16R16674   5.574   5.366   4.944  0.3844 -0.4820  0.4720
  151SAPE  H16S16675   5.491   5.459   4.813 -0.8549  1.9912  1.0615
  151SAPE  C21716676   5.385   5.274   4.882  0.2477 -0.8197  0.1204
  151SAPE  H17R16677   5.300   5.308   4.821 -0.9916 -1.7927  1.2356
  151SAPE  H17S16678   5.354   5.236   4.982  1.2270 -3.0664 -0.3532
  151SAPE  C21816679   5.473   5.163   4.815 -0.5926 -0.2333  0.1877
  151SAPE  H18R16680   5.534   5.206   4.733 -1.6912 -1.0742 -1.1183
  151SAPE  H18S16681   5.410   5.084   4.768  0.3567 -0.5946 -0.4985
  151SAPE  C21916682   5.557   5.084   4.914 -0.6367 -0.0270  0.1113
  151SAPE  H19R16683   5.490   5.029   4.983  0.4407 -1.6994 -0.0982
  151SAPE  H19S16684   5.623   5.156   4.966  1.0558  1.1664 -3.3325
  151SAPE  C22016685   5.647   4.979   4.857  0.0784  0.1354 -0.3992
  151SAPE  H20R16686   5.725   4.953   4.931  0.6718 -0.2569 -1.1529
  151SAPE  H20S16687   5.690   5.010   4.759 -0.4831  0.3021 -0.5977
  151SAPE  H20T16688   5.583   4.889   4.843 -0.5447  0.1331  2.0065
  151SAPE   C3316689   4.968   4.921   5.987  0.4506  0.2656 -0.1622
  151SAPE   H3X16690   4.978   4.826   6.042 -3.2678  0.2266  0.6848
  151SAPE   H3Y16691   5.052   4.981   6.029 -0.4477  0.2088  1.8053
  151SAPE   C3416692   4.970   4.893   5.835 -0.1270  0.8205  0.8611
  151SAPE   H4X16693   4.883   4.827   5.819  1.6474 -1.1784 -1.2357
  151SAPE   H4Y16694   5.064   4.835   5.819 -0.1652 -0.1344  3.5306
  151SAPE   C3516695   4.983   5.018   5.743  0.1508  0.7498 -0.2174
  151SAPE   H5X16696   5.056   5.089   5.788  1.7993 -1.1666  0.2713
  151SAPE   H5Y16697   4.893   5.082   5.730 -0.0426  0.5358  0.0465
  151SAPE   C3616698   5.049   4.987   5.611 -0.1433  0.1725 -0.0300
  151SAPE   H6X16699   4.989   4.898   5.582 -2.5299  1.4762  0.6665
  151SAPE   H6Y16700   5.155   4.958   5.622 -0.4425 -0.5669  1.0843
  151SAPE   C3716701   5.025   5.093   5.507  0.1000  0.6568  0.2474
  151SAPE   H7X16702   5.069   5.194   5.520 -0.9865  1.2696 -0.7172
  151SAPE   H7Y16703   4.915   5.105   5.508  0.0609  0.3816 -0.3031
  151SAPE   C3816704   5.065   5.049   5.363  0.4453  0.0042 -0.2037
  151SAPE   H8X16705   5.001   4.961   5.342 -0.4622  0.6877 -0.4039
  151SAPE   H8Y16706   5.169   5.014   5.379  0.2451 -0.9684 -0.9841
  151SAPE   C3916707   5.036   5.142   5.252 -0.2900 -0.3464  0.3319
  151SAPE   H9X16708   5.087   5.238   5.275 -0.2208 -0.8746  2.5976
  151SAPE   H9Y16709   4.927   5.163   5.255 -0.7153 -2.2997  0.1750
  151SAPE  C31016710   5.070   5.092   5.114  0.2794 -0.1629  0.0644
  151SAPE  H10X16711   5.027   4.991   5.098 -0.6461 -0.1187  1.9840
  151SAPE  H10Y16712   5.179   5.081   5.100  0.7897  1.7152  2.0596
  151SAPE  C31116713   5.036   5.186   4.999 -0.4830 -0.2965 -0.1261
  151SAPE  H11X16714   5.083   5.286   5.007  0.2263 -0.7612  2.5302
  151SAPE  H11Y16715   4.927   5.199   5.019 -0.5595  0.3269 -0.8946
  151SAPE  C31216716   5.053   5.124   4.859 -0.2373  1.0371  0.6880
  151SAPE  H12X16717   4.992   5.031   4.860 -1.5909  1.8777  2.5767
  151SAPE  H12Y16718   5.159   5.104   4.833 -0.6313  0.3026 -0.4367
  151SAPE  C31316719   5.013   5.218   4.750 -0.0451 -0.3306  0.5134
  151SAPE  H13X16720   5.063   5.313   4.778 -0.5154 -0.6163  2.4724
  151SAPE  H13Y16721   4.904   5.237   4.757  0.1924  2.3390 -1.4889
  151SAPE  C31416722   5.051   5.166   4.613  0.1681  0.6699 -0.5700
  151SAPE  H14X16723   4.979   5.089   4.579  1.2865  0.5775 -2.9446
  151SAPE  H14Y16724   5.156   5.133   4.597  0.1553 -0.2988  1.0802
  151SAPE  C31516725   5.015   5.280   4.517  0.1825 -0.2836 -0.5919
  151SAPE  H15X16726   4.945   5.351   4.566  2.6396  1.3783  0.7679
  151SAPE  H15Y16727   4.966   5.234   4.429 -0.2516 -2.0939  0.5347
  151SAPE  C31616728   5.134   5.363   4.468 -0.4090  0.4472 -0.1667
  151SAPE  H16X16729   5.093   5.444   4.404 -0.4828  0.5270 -0.0162
  151SAPE  H16Y16730   5.203   5.292   4.417  0.1855 -1.4395  2.9806
  151SAPE  C31716731   5.204   5.446   4.574  0.2701  0.0084  0.2128
  151SAPE  H17X16732   5.252   5.369   4.638 -0.1403 -0.5066 -0.0987
  151SAPE  H17Y16733   5.126   5.492   4.638  0.2101  0.6518 -0.3174
  151SAPE  C31816734   5.302   5.547   4.517  0.0937 -0.1844 -0.6179
  151SAPE  H18X16735   5.364   5.587   4.601 -0.3623  2.1337 -1.3010
  151SAPE  H18Y16736   5.249   5.631   4.467 -1.1736 -0.0290  0.8762
  151SAPE  H18Z16737   5.370   5.495   4.448  0.1030 -0.2606 -0.5518
  152SAPE     N16738   1.497   2.617   6.896 -0.4612  0.4233 -0.1963
  152SAPE   HN116739   1.452   2.526   6.916 -0.3106  0.5436  0.7274
  152SAPE   HN216740   1.579   2.589   6.837  0.1022  0.3801  0.5948
  152SAPE   HN316741   1.538   2.659   6.982  1.5670  1.1182 -1.4163
  152SAPE   C1216742   1.394   2.700   6.822  0.0380  0.0145 -0.1883
  152SAPE  H12A16743   1.422   2.806   6.844 -1.9865  1.3185 -3.1241
  152SAPE  H12B16744   1.295   2.680   6.868  0.3577  0.1389  0.5713
  152SAPE   C1116745   1.398   2.671   6.674 -0.4519 -0.6906  0.1101
  152SAPE  H11A16746   1.496   2.701   6.632  0.6373 -1.2454  2.1150
  152SAPE  H11B16747   1.323   2.733   6.620  1.1602  1.8221  0.6081
  152SAPE     P16748   1.249   2.459   6.628 -0.3984 -0.1742  0.2801
  152SAPE   O1316749   1.275   2.312   6.636 -0.3714 -0.5051  0.1843
  152SAPE   O1416750   1.154   2.501   6.734  0.1755 -0.3182  0.8529
  152SAPE   O1216751   1.383   2.532   6.650  0.0334  0.0757 -0.1766
  152SAPE   O1116752   1.203   2.500   6.487 -0.3950 -0.0032  0.4138
  152SAPE    C116753   1.297   2.490   6.383 -0.4681  0.0400  0.3251
  152SAPE    HA16754   1.368   2.575   6.389 -0.5461  0.1841 -0.6506
  152SAPE    HB16755   1.363   2.400   6.386  0.3682  0.6245 -0.1967
  152SAPE    C216756   1.228   2.501   6.246 -0.0584 -0.3524  0.6508
  152SAPE    HS16757   1.181   2.601   6.228  1.6467  0.2243 -0.9823
  152SAPE   O2116758   1.127   2.392   6.227 -0.2694 -0.2690  0.4590
  152SAPE   C2116759   1.029   2.428   6.149 -0.5539  0.4516 -0.7744
  152SAPE   O2216760   0.994   2.538   6.115 -0.1987 -0.6229  0.9527
  152SAPE   C2216761   0.956   2.302   6.102 -0.1885 -0.2657  0.2919
  152SAPE   H2R16762   0.941   2.243   6.194 -0.1816 -0.4149  0.1976
  152SAPE   H2S16763   0.863   2.343   6.056  1.5955 -0.1549 -3.6571
  152SAPE    C316764   1.336   2.497   6.140  0.1642  0.6258  0.0038
  152SAPE    HX16765   1.367   2.390   6.136 -1.1604  0.1960  0.5422
  152SAPE    HY16766   1.417   2.570   6.157 -0.6761  2.0442 -1.7651
  152SAPE   O3116767   1.291   2.518   6.001 -0.3291 -0.0548 -0.1071
  152SAPE   C3116768   1.327   2.624   5.930 -0.1042  0.1264 -0.0848
  152SAPE   O3216769   1.408   2.706   5.960  0.0319 -0.0685 -0.4695
  152SAPE   C3216770   1.236   2.617   5.803 -0.2929 -0.7024 -0.0284
  152SAPE   H2X16771   1.306   2.622   5.716 -0.3612 -2.0101 -0.1743
  152SAPE   H2Y16772   1.180   2.713   5.792 -0.7368 -0.7626  1.5583
  152SAPE   C2316773   1.028   2.222   5.993  0.0650  0.4716  0.4418
  152SAPE   H3R16774   1.136   2.225   6.020 -0.0153 -0.5120  0.9097
  152SAPE   H3S16775   1.021   2.269   5.893 -0.7869 -2.6166 -1.0687
  152SAPE   C2416776   1.000   2.067   5.992  0.0605  0.0576 -0.3265
  152SAPE   H4R16777   1.018   2.034   6.096 -1.6656  2.2256  0.7461
  152SAPE   H4S16778   1.073   2.013   5.928 -0.4126 -0.6339 -0.2893
  152SAPE   C2516779   0.862   2.045   5.942 -0.0490  0.1665 -0.0564
  152SAPE   H5R16780   0.782   2.045   6.018 -0.5984 -1.8811 -0.5904
  152SAPE   C2616781   0.831   2.030   5.814 -0.5355 -0.0730 -0.3798
  152SAPE   H6R16782   0.731   1.999   5.778 -0.9250  2.2810 -1.5336
  152SAPE   C2716783   0.934   2.024   5.705  0.1400 -0.2590  0.3892
  152SAPE   H7R16784   0.964   1.918   5.694  1.5179  0.0452  1.0441
  152SAPE   H7S16785   1.023   2.083   5.737 -0.4482  0.5506  0.5807
  152SAPE   C2816786   0.904   2.097   5.580 -1.2259  0.1954 -0.1718
  152SAPE   H8R16787   0.901   2.207   5.584  2.9903  0.6922 -3.1605
  152SAPE   C2916788   0.877   2.044   5.461 -0.1740  0.1904  0.4990
  152SAPE   H9R16789   0.891   2.122   5.384 -1.1775 -1.3791 -1.3672
  152SAPE  C21016790   0.862   1.898   5.409 -0.6518 -0.5080 -0.1907
  152SAPE  H10R16791   0.897   1.830   5.490  0.4915  0.5930  0.2834
  152SAPE  H10S16792   0.928   1.877   5.322  1.0821  2.4620  0.2562
  152SAPE  C21116793   0.723   1.876   5.379 -0.2370 -0.2076 -0.1326
  152SAPE  H11R16794   0.655   1.879   5.465  0.0943  0.9948  0.0964
  152SAPE  C21216795   0.667   1.831   5.265  0.9123  0.3034  0.5178
  152SAPE  H12R16796   0.560   1.806   5.268  0.6548  0.8334 -1.9786
  152SAPE  C21316797   0.730   1.818   5.129 -0.5402  0.3485 -0.3989
  152SAPE  H13R16798   0.733   1.715   5.087  2.2551 -0.9270  2.5526
  152SAPE  H13S16799   0.837   1.847   5.128 -0.1884 -0.6449 -3.6415
  152SAPE  C21416800   0.670   1.922   5.035  0.6905  0.2208  0.7802
  152SAPE  H14R16801   0.644   2.014   5.089  1.1368  1.5158 -1.1180
  152SAPE  C21516802   0.642   1.919   4.902  0.2735  0.4507  0.2139
  152SAPE  H15R16803   0.616   2.009   4.844  0.8858 -0.2200 -1.1390
  152SAPE  C21616804   0.669   1.806   4.801 -0.3239 -0.0416 -1.4958
  152SAPE  H16R16805   0.773   1.768   4.809 -0.5513 -0.7694 -1.9014
  152SAPE  H16S16806   0.661   1.858   4.703  0.8133  0.1398 -1.5067
  152SAPE  C21716807   0.571   1.692   4.806  1.0011 -0.2743  0.9459
  152SAPE  H17R16808   0.475   1.747   4.791  1.7623  0.9782  0.5121
  152SAPE  H17S16809   0.559   1.625   4.894 -2.5825  0.0801  0.8901
  152SAPE  C21816810   0.586   1.606   4.674  0.4927 -0.5920  0.4974
  152SAPE  H18R16811   0.678   1.544   4.685  1.4235  0.6031 -0.2686
  152SAPE  H18S16812   0.610   1.677   4.592  0.6720 -1.0879  0.1187
  152SAPE  C21916813   0.456   1.529   4.641 -1.1006 -0.0823 -0.3015
  152SAPE  H19R16814   0.362   1.583   4.663  0.3738  2.7549 -0.5764
  152SAPE  H19S16815   0.464   1.431   4.693 -3.3957  0.9449  2.2199
  152SAPE  C22016816   0.471   1.505   4.491 -0.1993 -0.4415 -0.1039
  152SAPE  H20R16817   0.459   1.597   4.430  0.2553 -0.2048  0.1577
  152SAPE  H20S16818   0.389   1.438   4.458  0.1853 -1.9145  1.7616
  152SAPE  H20T16819   0.577   1.476   4.473 -0.1656 -0.4476  0.1066
  152SAPE   C3316820   1.153   2.487   5.776  0.1480 -0.6165 -0.0193
  152SAPE   H3X16821   1.075   2.489   5.855  2.4695 -1.0234  2.4217
  152SAPE   H3Y16822   1.215   2.399   5.801  1.6839  0.7712  1.3673
  152SAPE   C3416823   1.088   2.478   5.634 -0.3301 -0.2319 -0.4940
  152SAPE   H4X16824   1.013   2.559   5.619  0.6442  0.5042 -1.6048
  152SAPE   H4Y16825   1.037   2.379   5.634 -0.9874  0.0909  0.6274
  152SAPE   C3516826   1.197   2.476   5.524 -0.0298  0.0726  0.3466
  152SAPE   H5X16827   1.276   2.399   5.537 -1.3384 -1.4915 -0.6432
  152SAPE   H5Y16828   1.270   2.559   5.538 -0.2891  0.0286  2.1573
  152SAPE   C3616829   1.130   2.456   5.388 -0.1407 -0.7046  0.0047
  152SAPE   H6X16830   1.023   2.487   5.401  0.6792  1.8741  1.4127
  152SAPE   H6Y16831   1.121   2.347   5.370  1.3900 -0.7610 -0.5342
  152SAPE   C3716832   1.195   2.527   5.270  0.0989  0.5050  0.5228
  152SAPE   H7X16833   1.305   2.513   5.274 -0.1920 -2.5166  0.6467
  152SAPE   H7Y16834   1.182   2.636   5.279  1.3457  0.7519 -0.4193
  152SAPE   C3816835   1.145   2.466   5.139 -0.6937  0.7065 -0.8472
  152SAPE   H8X16836   1.035   2.457   5.155 -0.8306  1.7367 -1.1324
  152SAPE   H8Y16837   1.186   2.362   5.138  1.3987  1.4937 -1.2731
  152SAPE   C3916838   1.192   2.537   5.012  0.2731 -0.7263  0.0027
  152SAPE   H9X16839   1.303   2.530   5.003  0.3702 -1.7551  1.6834
  152SAPE   H9Y16840   1.160   2.643   5.009 -0.9374 -1.0866 -1.3036
  152SAPE  C31016841   1.155   2.466   4.877  0.7005  0.2337  0.1675
  152SAPE  H10X16842   1.048   2.491   4.865  0.5495 -0.6649 -0.4189
  152SAPE  H10Y16843   1.162   2.356   4.891  1.7127  0.1943 -0.5212
  152SAPE  C31116844   1.225   2.514   4.744  1.2090 -0.2439  0.1085
  152SAPE  H11X16845   1.324   2.466   4.730  1.1544 -0.5623  0.7842
  152SAPE  H11Y16846   1.241   2.624   4.750  1.0482 -0.2220  0.1435
  152SAPE  C31216847   1.138   2.476   4.629  0.4780  0.5461 -0.1638
  152SAPE  H12X16848   1.037   2.522   4.629 -0.3340 -1.1062 -1.4249
  152SAPE  H12Y16849   1.130   2.365   4.627  0.6570  0.4478  2.0761
  152SAPE  C31316850   1.215   2.501   4.500 -0.0377 -0.1958  0.6494
  152SAPE  H13X16851   1.160   2.443   4.422 -1.3625  2.3852 -0.4518
  152SAPE  H13Y16852   1.319   2.463   4.507  0.2057  0.6251  1.7921
  152SAPE  C31416853   1.213   2.643   4.461  0.2030  0.0356 -0.1250
  152SAPE  H14X16854   1.272   2.702   4.535 -0.1316 -1.7324  1.6362
  152SAPE  H14Y16855   1.112   2.686   4.451  0.1586  0.1299  0.6313
  152SAPE  C31516856   1.276   2.662   4.332  0.2342 -0.2961 -0.7128
  152SAPE  H15X16857   1.224   2.600   4.256 -2.4453  1.3218 -0.3389
  152SAPE  H15Y16858   1.384   2.639   4.340  0.7113  2.3564  2.3073
  152SAPE  C31616859   1.277   2.810   4.275  0.1487 -0.3923 -0.3140
  152SAPE  H16X16860   1.174   2.850   4.273 -0.0256 -0.8184 -0.0398
  152SAPE  H16Y16861   1.319   2.795   4.174 -0.9270 -2.6194 -0.4829
  152SAPE  C31716862   1.370   2.902   4.360 -0.2268 -0.1134 -0.2645
  152SAPE  H17X16863   1.468   2.870   4.319 -1.3391 -2.0685 -1.5625
  152SAPE  H17Y16864   1.364   2.882   4.469 -0.7160  1.9551  0.1260
  152SAPE  C31816865   1.347   3.057   4.332  0.6689 -0.2634  0.4148
  152SAPE  H18X16866   1.325   3.081   4.226 -0.6137  0.2906  0.7922
  152SAPE  H18Y16867   1.443   3.111   4.350  1.1506 -0.6857 -0.7691
  152SAPE  H18Z16868   1.258   3.098   4.384 -0.7732 -2.0290 -0.5432
  153SAPE     N16869   1.276   2.107   6.477  0.1698  0.1235 -0.1541
  153SAPE   HN116870   1.192   2.053   6.505 -1.1922  1.6258 -1.1465
  153SAPE   HN216871   1.346   2.041   6.516 -0.6895 -1.0327 -0.5138
  153SAPE   HN316872   1.285   2.190   6.539 -1.2772  0.1015  0.1185
  153SAPE   C1216873   1.292   2.121   6.331 -0.8842 -0.3845 -0.0805
  153SAPE  H12A16874   1.398   2.141   6.303 -0.3490 -1.3855  1.1306
  153SAPE  H12B16875   1.231   2.209   6.303  3.1463  1.6766 -3.5279
  153SAPE   C1116876   1.245   1.988   6.272  0.4013  0.0449 -0.5576
  153SAPE  H11A16877   1.232   1.993   6.162  1.0858 -0.4021 -0.6644
  153SAPE  H11B16878   1.156   1.945   6.324  0.9312 -1.7014 -1.0398
  153SAPE     P16879   1.333   1.737   6.301 -0.1109  0.0246  0.6675
  153SAPE   O1316880   1.454   1.675   6.244  0.3210  0.7944  0.2204
  153SAPE   O1416881   1.289   1.703   6.437 -0.3843  0.1594 -0.2090
  153SAPE   O1216882   1.355   1.896   6.287  0.1280 -0.4397  0.5456
  153SAPE   O1116883   1.213   1.712   6.205  0.2317 -0.4650 -0.2982
  153SAPE    C116884   1.237   1.714   6.065  0.1177 -0.7475  0.5267
  153SAPE    HA16885   1.144   1.749   6.016  0.1657  1.3096  1.7945
  153SAPE    HB16886   1.309   1.793   6.033  1.2274 -2.5809 -1.8092
  153SAPE    C216887   1.287   1.583   6.009  0.7320 -0.0494 -0.4071
  153SAPE    HS16888   1.392   1.572   6.043  0.9353  0.0899 -0.9853
  153SAPE   O2116889   1.270   1.580   5.868  0.4491  0.3700  0.0755
  153SAPE   C2116890   1.379   1.577   5.797  0.1190  0.1983  0.4597
  153SAPE   O2216891   1.489   1.609   5.834 -0.0306 -0.0961  0.7927
  153SAPE   C2216892   1.352   1.524   5.658 -0.3921  0.9497 -0.3326
  153SAPE   H2R16893   1.292   1.433   5.679  1.8666 -0.3175  1.0151
  153SAPE   H2S16894   1.295   1.592   5.591 -2.2222 -0.2905 -0.1141
  153SAPE    C316895   1.191   1.461   6.065  0.4671  0.1901 -0.5266
  153SAPE    HX16896   1.096   1.470   6.008 -0.8830  2.0014  1.7852
  153SAPE    HY16897   1.144   1.473   6.165 -2.1069 -0.6708 -1.5612
  153SAPE   O3116898   1.261   1.338   6.055 -0.1373  0.2067 -0.2043
  153SAPE   C3116899   1.252   1.257   5.943 -0.0803 -0.2995 -0.3873
  153SAPE   O3216900   1.180   1.289   5.850 -0.0937  0.2391  0.2887
  153SAPE   C3216901   1.346   1.134   5.945  0.1297 -0.0149  0.1477
  153SAPE   H2X16902   1.285   1.044   5.967 -4.0521  1.9722 -2.1306
  153SAPE   H2Y16903   1.415   1.165   6.026 -0.0247  0.6296  0.0370
  153SAPE   C2316904   1.483   1.479   5.588 -0.4777 -0.8606  0.1180
  153SAPE   H3R16905   1.543   1.404   5.643  0.1897 -0.4271  0.0002
  153SAPE   H3S16906   1.557   1.563   5.579 -3.2054  1.5423 -2.0430
  153SAPE   C2416907   1.445   1.419   5.450 -0.1244  0.2177  0.3136
  153SAPE   H4R16908   1.415   1.505   5.386 -1.2384 -0.8467 -0.6370
  153SAPE   H4S16909   1.357   1.352   5.454  1.1739 -1.7595 -1.6685
  153SAPE   C2516910   1.561   1.344   5.391  0.1602  0.0709 -0.8544
  153SAPE   H5R16911   1.653   1.332   5.451 -0.1788 -1.1611 -0.5330
  153SAPE   C2616912   1.548   1.284   5.275  0.6509  0.6955  0.0653
  153SAPE   H6R16913   1.640   1.242   5.230  0.4008  0.5546 -0.3175
  153SAPE   C2716914   1.431   1.302   5.180 -0.3112  0.2180  0.0955
  153SAPE   H7R16915   1.474   1.353   5.091 -0.2489  1.5905  0.8760
  153SAPE   H7S16916   1.355   1.374   5.218 -0.0549  0.3985  0.2752
  153SAPE   C2816917   1.376   1.163   5.153  0.4807 -0.6168 -0.3796
  153SAPE   H8R16918   1.303   1.125   5.226  1.5969  0.7385  1.5154
  153SAPE   C2916919   1.381   1.090   5.040 -0.1803 -0.3129  0.1323
  153SAPE   H9R16920   1.322   0.997   5.033 -2.0993  0.7814  1.0515
  153SAPE  C21016921   1.478   1.122   4.932 -0.5056  0.3749 -0.4136
  153SAPE  H10R16922   1.513   1.227   4.946  0.8828  0.2400 -2.3915
  153SAPE  H10S16923   1.428   1.112   4.833 -0.3565 -1.7366 -0.3263
  153SAPE  C21116924   1.598   1.030   4.941 -0.2522 -0.9534 -0.3888
  153SAPE  H11R16925   1.626   1.000   5.043  1.9266  1.6869 -0.0799
  153SAPE  C21216926   1.681   0.998   4.834  0.3783  0.4447  0.0900
  153SAPE  H12R16927   1.773   0.941   4.853 -0.7237 -1.8867 -1.1732
  153SAPE  C21316928   1.666   1.047   4.689  0.4341 -0.0773 -0.4020
  153SAPE  H13R16929   1.563   1.075   4.656  1.4587  1.1524 -2.8106
  153SAPE  H13S16930   1.703   0.958   4.633  1.8770 -2.1549  3.5307
  153SAPE  C21416931   1.761   1.161   4.664  0.0011 -0.2239 -0.5003
  153SAPE  H14R16932   1.861   1.151   4.708  0.4267 -1.0719 -1.6474
  153SAPE  C21516933   1.735   1.275   4.601 -0.5547  0.7791 -0.6803
  153SAPE  H15R16934   1.815   1.350   4.612  3.4211 -3.0330 -0.9322
  153SAPE  C21616935   1.606   1.314   4.533  0.4982  0.2918 -0.4681
  153SAPE  H16R16936   1.524   1.242   4.551  0.4828  0.1878 -0.9471
  153SAPE  H16S16937   1.620   1.320   4.423 -1.2267  3.0716 -0.6451
  153SAPE  C21716938   1.566   1.453   4.581  0.0227  0.6240  0.3558
  153SAPE  H17R16939   1.467   1.472   4.533  0.1459  1.4803  0.4237
  153SAPE  H17S16940   1.646   1.526   4.555  0.1016  0.7024  0.8163
  153SAPE  C21816941   1.531   1.460   4.731  0.5398 -0.5837 -0.3375
  153SAPE  H18R16942   1.612   1.482   4.804 -0.4066  3.9776 -0.3428
  153SAPE  H18S16943   1.487   1.361   4.755 -0.5255  0.1697  1.0184
  153SAPE  C21916944   1.430   1.569   4.775 -0.3566  0.5975 -0.2896
  153SAPE  H19R16945   1.344   1.573   4.705 -0.2150  0.1318 -0.4957
  153SAPE  H19S16946   1.473   1.671   4.769 -0.8356  1.0711  2.6101
  153SAPE  C22016947   1.372   1.545   4.910  0.5048 -0.2310  0.2332
  153SAPE  H20R16948   1.450   1.549   4.989  1.7114 -2.7916 -0.7117
  153SAPE  H20S16949   1.305   1.457   4.900  1.3836 -0.9442  0.4320
  153SAPE  H20T16950   1.294   1.624   4.922 -0.3239 -1.0653  0.4312
  153SAPE   C3316951   1.428   1.125   5.816 -0.0409  0.1503 -0.6066
  153SAPE   H3X16952   1.498   1.212   5.819  0.5104 -0.3071  1.4036
  153SAPE   H3Y16953   1.360   1.139   5.730 -1.5988  4.0415  1.0518
  153SAPE   C3416954   1.505   0.990   5.809  0.3393  0.1839  0.0936
  153SAPE   H4X16955   1.432   0.907   5.819  0.8398 -0.3641 -0.6732
  153SAPE   H4Y16956   1.571   0.981   5.898  2.0367 -0.2366 -1.1699
  153SAPE   C3516957   1.592   0.972   5.686 -0.0811 -0.2107  0.0480
  153SAPE   H5X16958   1.647   0.877   5.699 -1.0776 -0.5868  1.8096
  153SAPE   H5Y16959   1.678   1.042   5.678 -0.3195  0.2278  1.0852
  153SAPE   C3616960   1.521   0.962   5.548 -0.0490  0.7011  0.4676
  153SAPE   H6X16961   1.470   1.060   5.548  0.6789  1.2048 -2.5643
  153SAPE   H6Y16962   1.447   0.880   5.542 -0.6546  1.3281 -1.2022
  153SAPE   C3716963   1.624   0.954   5.434 -0.0797 -0.4856  0.1775
  153SAPE   H7X16964   1.706   1.027   5.451 -1.3713  0.3714  3.3603
  153SAPE   H7Y16965   1.564   0.995   5.350  2.4686  0.5930 -1.2133
  153SAPE   C3816966   1.675   0.816   5.407  0.2480 -0.1817  0.3322
  153SAPE   H8X16967   1.585   0.752   5.396 -2.0380  2.4652  2.1269
  153SAPE   H8Y16968   1.727   0.792   5.502 -0.0963 -0.3590  0.4772
  153SAPE   C3916969   1.762   0.809   5.282 -0.0757  0.3451 -0.2293
  153SAPE   H9X16970   1.862   0.854   5.302 -0.0056  0.3206 -0.5340
  153SAPE   H9Y16971   1.715   0.867   5.200  0.6896  2.8308  0.9802
  153SAPE  C31016972   1.781   0.664   5.229 -0.2381 -0.4562  0.1794
  153SAPE  H10X16973   1.676   0.636   5.206 -0.3868 -1.2590  1.7182
  153SAPE  H10Y16974   1.816   0.600   5.313  1.9360 -0.3560 -0.6043
  153SAPE  C31116975   1.887   0.659   5.108  0.2268 -0.2089 -0.0033
  153SAPE  H11X16976   1.944   0.566   5.131  0.0508 -0.6134 -1.1621
  153SAPE  H11Y16977   1.958   0.745   5.114  2.6876 -2.2099  2.8914
  153SAPE  C31216978   1.826   0.649   4.972  0.4102 -0.0419  0.7423
  153SAPE  H12X16979   1.770   0.740   4.943 -0.0351 -0.8821 -1.2072
  153SAPE  H12Y16980   1.749   0.571   4.955 -1.1885  1.6137  0.0534
  153SAPE  C31316981   1.922   0.622   4.853  0.1917 -0.2479  0.3430
  153SAPE  H13X16982   1.979   0.527   4.862 -1.6135 -1.3592  0.5027
  153SAPE  H13Y16983   1.988   0.711   4.848 -0.9992  0.7079  1.0549
  153SAPE  C31416984   1.842   0.621   4.717 -0.7400  0.0499  0.3360
  153SAPE  H14X16985   1.805   0.725   4.706 -0.4809  0.2558  1.2836
  153SAPE  H14Y16986   1.756   0.552   4.730 -0.5318 -0.0529  1.2977
  153SAPE  C31516987   1.937   0.592   4.604 -0.7400  0.7907  0.6063
  153SAPE  H15X16988   1.968   0.486   4.601 -1.7551  0.4947 -0.3135
  153SAPE  H15Y16989   2.026   0.658   4.604 -1.5463  1.9373 -0.5054
  153SAPE  C31616990   1.869   0.636   4.471  0.3614  0.2251  0.7510
  153SAPE  H16X16991   1.946   0.676   4.401 -0.5365  1.8385  0.6468
  153SAPE  H16Y16992   1.795   0.717   4.481 -3.2814 -2.2005 -3.1302
  153SAPE  C31716993   1.795   0.523   4.399 -0.0690  0.8710 -0.2356
  153SAPE  H17X16994   1.719   0.559   4.327 -0.8029 -1.0302 -0.4530
  153SAPE  H17Y16995   1.741   0.462   4.475  0.6997 -1.5284 -1.5091
  153SAPE  C31816996   1.884   0.426   4.317  0.0623 -0.3337 -0.3399
  153SAPE  H18X16997   1.946   0.362   4.384  0.8298 -0.0598 -0.7757
  153SAPE  H18Y16998   1.952   0.486   4.252 -0.2177 -1.1742 -1.4269
  153SAPE  H18Z16999   1.818   0.363   4.255 -1.0448 -1.0202  1.4544
  154SAPE     N17000   0.037   5.294   6.514  1.2466 -0.5943 -0.1958
  154SAPE   HN117001   0.101   5.261   6.439 -1.2595 -0.8805 -2.3617
  154SAPE   HN217002   0.029   5.219   6.586  0.0844 -0.8567 -0.5852
  154SAPE   HN317003  -0.058   5.309   6.475  0.4967  0.1723  1.7642
  154SAPE   C1217004   0.065   5.436   6.567 -0.3701  0.0449 -0.7126
  154SAPE  H12A17005   0.097   5.494   6.478 -0.4569 -0.9130 -1.3871
  154SAPE  H12B17006   0.147   5.428   6.641 -0.9682  1.6881  0.1880
  154SAPE   C1117007  -0.057   5.507   6.619  0.1353 -0.5744 -0.1978
  154SAPE  H11A17008  -0.099   5.443   6.700 -1.6937  0.4114 -0.3175
  154SAPE  H11B17009  -0.134   5.529   6.542  0.9828  0.3516 -0.8117
  154SAPE     P17010  -0.123   5.746   6.718 -0.3244 -0.0859 -0.0921
  154SAPE   O1317011  -0.192   5.704   6.845  0.0580 -0.0181  1.2561
  154SAPE   O1417012  -0.054   5.875   6.726  0.2327 -0.4162  0.8080
  154SAPE   O1217013  -0.018   5.637   6.670 -1.0416  0.3362 -0.2391
  154SAPE   O1117014  -0.227   5.743   6.602 -0.3921  0.2030 -0.8811
  154SAPE    C117015  -0.193   5.791   6.473  0.5349 -0.6607  0.6107
  154SAPE    HA17016  -0.159   5.897   6.474  1.3083 -0.8971 -0.3209
  154SAPE    HB17017  -0.110   5.733   6.428 -0.5177 -1.5604 -0.2462
  154SAPE    C217018  -0.314   5.793   6.370 -0.4189 -0.2090 -0.3091
  154SAPE    HS17019  -0.282   5.718   6.295  1.6148  0.0236  0.2719
  154SAPE   O2117020  -0.327   5.930   6.315 -0.2788 -0.4541 -0.3373
  154SAPE   C2117021  -0.245   5.970   6.215  0.4198 -0.0353  0.1957
  154SAPE   O2217022  -0.186   5.899   6.139  0.0335 -0.0147  0.5118
  154SAPE   C2217023  -0.254   6.124   6.212  0.2552  0.2566 -0.0595
  154SAPE   H2R17024  -0.344   6.158   6.268  0.2368  0.7013 -0.3566
  154SAPE   H2S17025  -0.165   6.148   6.275  0.9051 -0.2211 -0.7904
  154SAPE    C317026  -0.450   5.759   6.437 -0.1144  0.6502 -0.5499
  154SAPE    HX17027  -0.439   5.813   6.534 -0.2579 -1.7976  0.9212
  154SAPE    HY17028  -0.443   5.655   6.476 -0.8302  1.5161  2.1203
  154SAPE   O3117029  -0.574   5.794   6.375 -0.3875 -0.6167  0.6112
  154SAPE   C3117030  -0.596   5.717   6.272  0.0529 -0.1226 -0.1820
  154SAPE   O3217031  -0.516   5.638   6.223 -0.3015  0.3049  0.1209
  154SAPE   C3217032  -0.729   5.732   6.219  0.7937 -1.1281  0.0460
  154SAPE   H2X17033  -0.775   5.831   6.237 -2.3378 -2.9141  3.1543
  154SAPE   H2Y17034  -0.794   5.663   6.278 -3.2230  0.9249 -1.5530
  154SAPE   C2317035  -0.259   6.184   6.072  0.6371 -0.1322  0.1968
  154SAPE   H3R17036  -0.180   6.146   6.004 -0.9327  0.3794 -2.0318
  154SAPE   H3S17037  -0.239   6.293   6.070  2.8521 -0.5103 -0.2842
  154SAPE   C2417038  -0.395   6.157   6.002 -0.5841  0.7649  0.4640
  154SAPE   H4R17039  -0.415   6.049   6.012 -0.6180  0.9915  4.4190
  154SAPE   H4S17040  -0.376   6.169   5.893 -3.7750  0.4656 -0.2002
  154SAPE   C2517041  -0.520   6.232   6.035 -0.0136 -1.0754 -0.0729
  154SAPE   H5R17042  -0.535   6.254   6.142  1.9563  0.7648 -0.1014
  154SAPE   C2617043  -0.610   6.277   5.937 -0.7192 -0.0778 -0.6009
  154SAPE   H6R17044  -0.693   6.339   5.974  2.0784  2.4588  2.0169
  154SAPE   C2717045  -0.594   6.267   5.782  0.2186  0.3939  0.0254
  154SAPE   H7R17046  -0.652   6.179   5.748 -0.7492  1.0374 -0.0292
  154SAPE   H7S17047  -0.489   6.260   5.746 -0.2711  1.8652 -1.8409
  154SAPE   C2817048  -0.646   6.396   5.725 -0.1389 -0.2612 -0.0824
  154SAPE   H8R17049  -0.632   6.486   5.787  1.2107 -0.8859  0.5594
  154SAPE   C2917050  -0.673   6.415   5.596  0.0293 -0.7412  0.3449
  154SAPE   H9R17051  -0.719   6.514   5.578  1.6989  0.0660  0.2745
  154SAPE  C21017052  -0.687   6.316   5.482  0.6000 -0.0437  0.5709
  154SAPE  H10R17053  -0.794   6.320   5.453  0.0542 -2.3852  1.9589
  154SAPE  H10S17054  -0.676   6.213   5.522  0.3555 -0.6103 -0.7445
  154SAPE  C21117055  -0.597   6.326   5.361 -0.1345  0.0906  0.6117
  154SAPE  H11R17056  -0.555   6.231   5.326  1.7233  1.0235  0.1996
  154SAPE  C21217057  -0.552   6.443   5.302  0.8675 -0.1313  0.6681
  154SAPE  H12R17058  -0.486   6.431   5.214 -0.1703  0.9159 -0.2973
  154SAPE  C21317059  -0.603   6.581   5.338 -0.0049  0.4254  0.2957
  154SAPE  H13R17060  -0.558   6.601   5.438 -1.5231 -0.5506  1.2150
  154SAPE  H13S17061  -0.712   6.588   5.360 -0.0147 -0.2608  0.4837
  154SAPE  C21417062  -0.558   6.686   5.238  0.0203 -0.5724 -0.6976
  154SAPE  H14R17063  -0.493   6.761   5.285  0.7732 -1.2452 -0.6505
  154SAPE  C21517064  -0.589   6.691   5.107 -0.0477 -0.0911 -0.4293
  154SAPE  H15R17065  -0.550   6.774   5.046 -0.6247  0.8868  0.4953
  154SAPE  C21617066  -0.671   6.596   5.024 -0.4397  1.1762  0.4970
  154SAPE  H16R17067  -0.776   6.634   5.017 -0.5330  1.0552  1.1970
  154SAPE  H16S17068  -0.699   6.498   5.069  1.3479  0.0127 -0.8250
  154SAPE  C21717069  -0.613   6.580   4.885 -0.4994  0.2968  0.9264
  154SAPE  H17R17070  -0.617   6.678   4.832 -0.8314  0.6154  1.5228
  154SAPE  H17S17071  -0.674   6.511   4.823 -0.5269  0.6805  0.5232
  154SAPE  C21817072  -0.470   6.525   4.889 -0.0463  0.9428 -0.1409
  154SAPE  H18R17073  -0.397   6.589   4.943  0.7551  0.5091 -0.6914
  154SAPE  H18S17074  -0.431   6.535   4.785 -1.3686  0.4873 -0.6965
  154SAPE  C21917075  -0.469   6.376   4.933 -0.2172 -0.5017 -0.0773
  154SAPE  H19R17076  -0.476   6.367   5.043 -0.9619  1.9334  0.1404
  154SAPE  H19S17077  -0.369   6.335   4.906 -0.2444 -0.9141  0.4275
  154SAPE  C22017078  -0.570   6.282   4.860 -0.5181 -0.0760  0.1345
  154SAPE  H20R17079  -0.553   6.286   4.750 -2.6001  0.0231 -0.2283
  154SAPE  H20S17080  -0.674   6.315   4.883 -0.8585  0.2914 -1.7420
  154SAPE  H20T17081  -0.557   6.179   4.900  2.0129 -0.0179 -0.3677
  154SAPE   C3317082  -0.730   5.725   6.065 -0.4223 -0.0717 -0.5023
  154SAPE   H3X17083  -0.834   5.744   6.030 -1.4520 -2.3059  1.0562
  154SAPE   H3Y17084  -0.707   5.624   6.024 -3.3542 -1.6465  1.3807
  154SAPE   C3417085  -0.638   5.838   6.001  0.0776 -0.0747  0.4171
  154SAPE   H4X17086  -0.528   5.818   6.002  0.2548  0.8291 -0.1119
  154SAPE   H4Y17087  -0.654   5.933   6.056 -0.1453  1.7867 -2.6389
  154SAPE   C3517088  -0.672   5.877   5.855  0.0163 -0.6526  1.0425
  154SAPE   H5X17089  -0.619   5.971   5.831 -0.0619 -0.8969 -0.1652
  154SAPE   H5Y17090  -0.779   5.906   5.843  0.6883  1.1408 -1.5639
  154SAPE   C3617091  -0.629   5.776   5.738 -0.2007 -0.1012  0.5831
  154SAPE   H6X17092  -0.693   5.688   5.759  1.1972 -1.0356  1.0313
  154SAPE   H6Y17093  -0.522   5.747   5.745  0.2089  1.1873 -0.0633
  154SAPE   C3717094  -0.645   5.833   5.602 -0.1607  0.1022  0.1952
  154SAPE   H7X17095  -0.595   5.932   5.604  0.3906 -0.1729  1.9375
  154SAPE   H7Y17096  -0.747   5.871   5.583  0.5065  1.6742 -0.3922
  154SAPE   C3817097  -0.599   5.746   5.483 -0.2508  0.6394 -0.2757
  154SAPE   H8X17098  -0.667   5.658   5.483  0.8236 -0.2138 -0.1295
  154SAPE   H8Y17099  -0.494   5.713   5.501 -1.0341 -1.2038  1.2840
  154SAPE   C3917100  -0.594   5.819   5.352  0.7704  0.1141  0.8736
  154SAPE   H9X17101  -0.564   5.926   5.361 -0.7324  0.6553 -0.1658
  154SAPE   H9Y17102  -0.697   5.822   5.310  1.8806  2.6916 -2.0220
  154SAPE  C31017103  -0.510   5.767   5.240  0.1719  0.3180 -0.5911
  154SAPE  H10X17104  -0.526   5.658   5.247  1.0592  0.2780  2.7556
  154SAPE  H10Y17105  -0.403   5.781   5.269 -0.4276 -1.7675  3.3296
  154SAPE  C31117106  -0.529   5.834   5.104 -0.0042 -0.9200 -0.1403
  154SAPE  H11X17107  -0.483   5.935   5.098 -1.3659 -0.2488  0.4411
  154SAPE  H11Y17108  -0.637   5.856   5.104  0.2064  0.2884 -2.1149
  154SAPE  C31217109  -0.484   5.750   4.981 -0.4854  0.3753 -0.4627
  154SAPE  H12X17110  -0.553   5.664   4.991  0.6607 -0.8545 -2.4403
  154SAPE  H12Y17111  -0.378   5.720   4.994  0.7380  1.8564 -5.0656
  154SAPE  C31317112  -0.492   5.818   4.841  0.2994 -0.7680 -0.2247
  154SAPE  H13X17113  -0.466   5.739   4.766 -1.2596  0.6280 -2.3543
  154SAPE  H13Y17114  -0.423   5.905   4.845  1.1530 -1.2933 -2.2373
  154SAPE  C31417115  -0.628   5.879   4.824  0.5023  1.1292 -0.0511
  154SAPE  H14X17116  -0.649   5.954   4.903  2.6200  0.0810  1.6139
  154SAPE  H14Y17117  -0.712   5.806   4.832 -0.3920  2.1726  0.2866
  154SAPE  C31517118  -0.650   5.945   4.688  0.7254 -0.2890 -0.1953
  154SAPE  H15X17119  -0.573   6.022   4.668  3.0332 -1.6850  2.5907
  154SAPE  H15Y17120  -0.755   5.981   4.682  1.5672  2.6737  0.9531
  154SAPE  C31617121  -0.647   5.838   4.574  0.5420  0.4089 -0.0220
  154SAPE  H16X17122  -0.722   5.756   4.580 -2.4129  2.9895  0.9312
  154SAPE  H16Y17123  -0.544   5.796   4.571 -0.1867 -1.6845  1.5482
  154SAPE  C31717124  -0.665   5.904   4.433  0.0229 -0.0733  0.8216
  154SAPE  H17X17125  -0.633   6.009   4.451 -1.6365  0.8250 -1.0787
  154SAPE  H17Y17126  -0.771   5.894   4.402  0.1529 -0.3469  0.4566
  154SAPE  C31817127  -0.583   5.839   4.317  0.3346 -0.0590  0.4725
  154SAPE  H18X17128  -0.627   5.739   4.294 -1.2928  0.9045 -0.7621
  154SAPE  H18Y17129  -0.477   5.825   4.349  0.5072 -0.4074 -0.2194
  154SAPE  H18Z17130  -0.591   5.911   4.233 -1.0068  1.6915  2.0489
  155SAPE     N17131   4.979   6.109   6.930  0.0360 -0.1595 -0.1908
  155SAPE   HN117132   5.042   6.117   7.013 -0.2502 -0.2521  0.0346
  155SAPE   HN217133   5.041   6.072   6.855  0.1495 -1.1499  0.3653
  155SAPE   HN317134   4.943   6.198   6.891 -1.0837 -0.7585 -0.5505
  155SAPE   C1217135   4.865   6.018   6.930 -0.0003  0.0809  0.0164
  155SAPE  H12A17136   4.798   6.058   7.010 -0.7644  3.3182 -2.0340
  155SAPE  H12B17137   4.892   5.915   6.961 -0.8424  0.6327  2.9327
  155SAPE   C1117138   4.790   6.024   6.794  0.0511  0.3276 -0.1074
  155SAPE  H11A17139   4.704   5.953   6.788 -0.2193  0.6933 -0.6235
  155SAPE  H11B17140   4.856   5.985   6.714  1.1002 -1.3017  1.4936
  155SAPE     P17141   4.801   6.264   6.677 -0.0257 -0.0269 -0.4264
  155SAPE   O1317142   4.712   6.379   6.680  0.5098 -0.7236  0.1379
  155SAPE   O1417143   4.936   6.282   6.730 -0.1452 -0.1801  0.6982
  155SAPE   O1217144   4.737   6.152   6.768  0.2229 -0.3848  0.1303
  155SAPE   O1117145   4.800   6.195   6.536 -0.0367  0.1915  0.1422
  155SAPE    C117146   4.678   6.145   6.479 -0.0913  0.0231  0.0087
  155SAPE    HA17147   4.611   6.097   6.553 -0.6907  0.2055 -0.4118
  155SAPE    HB17148   4.619   6.232   6.444 -4.3594 -1.9726  1.5355
  155SAPE    C217149   4.715   6.048   6.368 -0.6665 -0.6299 -0.1720
  155SAPE    HS17150   4.785   5.972   6.409  1.3404  0.3841 -1.5911
  155SAPE   O2117151   4.777   6.126   6.266 -0.0932 -0.1843  0.1327
  155SAPE   C2117152   4.846   6.055   6.174  0.6362  0.2685 -0.3429
  155SAPE   O2217153   4.870   5.936   6.185  0.4172 -0.6746 -0.5665
  155SAPE   C2217154   4.895   6.150   6.066 -0.4851  0.7250 -0.4016
  155SAPE   H2R17155   4.805   6.209   6.038 -0.0026  1.2664 -0.8614
  155SAPE   H2S17156   4.983   6.202   6.110  0.8858 -3.0337  1.7606
  155SAPE    C317157   4.587   5.978   6.315 -0.8322  1.4611  0.2792
  155SAPE    HX17158   4.552   5.921   6.404 -0.1605  0.0201 -0.3517
  155SAPE    HY17159   4.612   5.902   6.238  1.0230 -0.3882  2.5555
  155SAPE   O3117160   4.486   6.078   6.285  0.6963 -0.7648 -0.0315
  155SAPE   C3117161   4.485   6.118   6.153 -0.3805  0.1523 -0.3324
  155SAPE   O3217162   4.557   6.064   6.074  0.0576 -0.3243  0.1424
  155SAPE   C3217163   4.370   6.216   6.130  1.0603  0.0946  0.1564
  155SAPE   H2X17164   4.371   6.290   6.213 -1.5528 -0.6825  0.9727
  155SAPE   H2Y17165   4.277   6.157   6.141  0.2171  1.5391  1.1074
  155SAPE   C2317166   4.945   6.097   5.934 -0.3856 -0.0689 -0.4363
  155SAPE   H3R17167   4.889   6.013   5.886 -1.5149 -0.8335  2.0756
  155SAPE   H3S17168   5.047   6.056   5.949  0.1175  0.9567 -0.9967
  155SAPE   C2417169   4.953   6.208   5.830 -0.6908 -1.0874 -0.2587
  155SAPE   H4R17170   4.853   6.255   5.822  0.4365  1.8572  1.4835
  155SAPE   H4S17171   4.972   6.164   5.729 -0.4044 -2.1185  0.2382
  155SAPE   C2517172   5.041   6.319   5.862  0.3954 -0.1066 -0.9790
  155SAPE   H5R17173   5.047   6.342   5.970 -1.2481  0.2690 -0.9322
  155SAPE   C2617174   5.123   6.383   5.774  0.0083  0.2743 -0.6688
  155SAPE   H6R17175   5.195   6.458   5.812 -1.2552  1.5268 -0.6579
  155SAPE   C2717176   5.145   6.345   5.634 -0.4933 -0.4165  0.4835
  155SAPE   H7R17177   5.167   6.437   5.576 -0.3803 -1.6159 -1.4502
  155SAPE   H7S17178   5.055   6.295   5.593 -0.5786  0.1483 -0.0305
  155SAPE   C2817179   5.265   6.250   5.612  0.2415 -0.6125  0.4759
  155SAPE   H8R17180   5.291   6.192   5.702  2.2872  0.5526  0.7245
  155SAPE   C2917181   5.353   6.259   5.509 -0.4472  0.6480  0.5475
  155SAPE   H9R17182   5.441   6.192   5.506 -1.0616 -0.1890 -2.7676
  155SAPE  C21017183   5.362   6.355   5.385  0.4777  0.3977  0.1301
  155SAPE  H10R17184   5.425   6.304   5.309  0.3703 -1.8542  1.4430
  155SAPE  H10S17185   5.399   6.447   5.435 -1.6053  0.1130  2.3551
  155SAPE  C21117186   5.226   6.383   5.320 -0.8358 -0.8269  0.2672
  155SAPE  H11R17187   5.137   6.351   5.377 -1.3181 -0.5578 -0.3208
  155SAPE  C21217188   5.195   6.422   5.187 -0.6767  0.1250 -0.6753
  155SAPE  H12R17189   5.090   6.444   5.166 -0.9104  0.3259  0.5976
  155SAPE  C21317190   5.294   6.466   5.080  0.0956  0.1112 -0.5126
  155SAPE  H13R17191   5.384   6.401   5.080 -0.5251 -0.7763 -0.0793
  155SAPE  H13S17192   5.330   6.569   5.099 -2.2637  0.9136 -0.0241
  155SAPE  C21417193   5.236   6.436   4.946 -0.5471  0.4739 -0.2337
  155SAPE  H14R17194   5.181   6.342   4.931 -0.3517  0.5102 -1.2587
  155SAPE  C21517195   5.266   6.522   4.846  0.2679 -0.3888  0.0200
  155SAPE  H15R17196   5.213   6.508   4.751  0.0189  0.5381  0.0138
  155SAPE  C21617197   5.320   6.660   4.855  0.6604 -0.2801  0.1188
  155SAPE  H16R17198   5.413   6.657   4.916  0.3256 -2.8717  0.6348
  155SAPE  H16S17199   5.249   6.733   4.899 -0.4675 -2.1095  1.4937
  155SAPE  C21717200   5.361   6.721   4.719 -0.9368  0.2028 -0.0731
  155SAPE  H17R17201   5.421   6.814   4.728  2.0925 -1.5837 -0.4486
  155SAPE  H17S17202   5.266   6.727   4.662 -1.3400  0.2568  0.6056
  155SAPE  C21817203   5.452   6.633   4.625  1.1248 -0.2409 -0.4087
  155SAPE  H18R17204   5.401   6.534   4.633 -1.7061  1.1606  0.0535
  155SAPE  H18S17205   5.554   6.622   4.669  1.1443 -1.1880 -0.6556
  155SAPE  C21917206   5.450   6.689   4.482  0.0265 -0.0054 -0.1232
  155SAPE  H19R17207   5.476   6.797   4.473 -1.5319  0.3383 -0.7531
  155SAPE  H19S17208   5.353   6.676   4.430 -0.7490  2.0425  0.6927
  155SAPE  C22017209   5.558   6.622   4.397 -0.2802  0.2886  0.4561
  155SAPE  H20R17210   5.657   6.656   4.435  0.0506  0.2359 -0.3360
  155SAPE  H20S17211   5.544   6.646   4.289  1.6235 -0.2776  0.0511
  155SAPE  H20T17212   5.557   6.512   4.402 -0.7713  0.1591 -1.4947
  155SAPE   C3317213   4.383   6.293   5.997  0.3629 -0.2876  0.7066
  155SAPE   H3X17214   4.374   6.222   5.913 -0.9560  0.1206  0.4906
  155SAPE   H3Y17215   4.486   6.335   5.989 -0.3869  1.3409 -1.1488
  155SAPE   C3417216   4.291   6.409   5.980 -0.0316  0.0080  0.4388
  155SAPE   H4X17217   4.298   6.492   6.053 -0.4183 -0.7760  1.3861
  155SAPE   H4Y17218   4.186   6.371   5.981  0.3766 -1.2443  2.6182
  155SAPE   C3517219   4.307   6.475   5.843  0.4829 -0.2333  0.3471
  155SAPE   H5X17220   4.258   6.414   5.764  0.3408  0.6912 -0.2976
  155SAPE   H5Y17221   4.415   6.492   5.825  0.2491  1.2249  0.2216
  155SAPE   C3617222   4.252   6.619   5.845  0.6124 -0.1222  0.1626
  155SAPE   H6X17223   4.284   6.684   5.929  2.1804  1.9802 -1.9130
  155SAPE   H6Y17224   4.142   6.612   5.851  0.7032  0.0136  3.5139
  155SAPE   C3717225   4.290   6.692   5.715  0.3683  0.7971  0.1310
  155SAPE   H7X17226   4.272   6.624   5.629  1.2983  0.5169  0.1461
  155SAPE   H7Y17227   4.393   6.736   5.713  0.4335  0.7255  1.2986
  155SAPE   C3817228   4.188   6.806   5.687 -0.2788  0.0483 -0.2503
  155SAPE   H8X17229   4.133   6.834   5.779 -0.3069  0.6684 -0.4504
  155SAPE   H8Y17230   4.106   6.761   5.625 -0.3326  0.0787 -0.2007
  155SAPE   C3917231   4.247   6.934   5.629  0.6061 -0.2845 -0.0557
  155SAPE   H9X17232   4.326   6.969   5.699 -0.8676  2.3634  0.3908
  155SAPE   H9Y17233   4.183   7.024   5.617  2.1208  1.0934  1.6428
  155SAPE  C31017234   4.303   6.905   5.492 -0.0727 -0.0303 -0.3427
  155SAPE  H10X17235   4.367   6.815   5.500 -0.1892 -0.0961 -0.1239
  155SAPE  H10Y17236   4.370   6.985   5.453 -0.2388 -0.3962 -1.4073
  155SAPE  C31117237   4.191   6.873   5.392 -0.6041 -1.0692  0.5967
  155SAPE  H11X17238   4.109   6.948   5.406 -1.0027 -1.6658  1.5322
  155SAPE  H11Y17239   4.144   6.776   5.416 -1.4073 -0.6812  0.6364
  155SAPE  C31217240   4.236   6.883   5.242 -0.1356 -0.3538  0.1246
  155SAPE  H12X17241   4.280   6.985   5.237  1.3205 -1.0042 -0.6788
  155SAPE  H12Y17242   4.142   6.881   5.183  1.6285  1.6004 -3.0259
  155SAPE  C31317243   4.326   6.764   5.191 -0.4164 -0.4157 -0.3527
  155SAPE  H13X17244   4.259   6.675   5.190 -0.9123 -0.1063 -2.8187
  155SAPE  H13Y17245   4.410   6.742   5.260 -1.4965  1.2025  1.6138
  155SAPE  C31417246   4.404   6.783   5.060  0.0752  0.2740  0.0634
  155SAPE  H14X17247   4.475   6.697   5.056 -1.0331 -0.7916  1.9509
  155SAPE  H14Y17248   4.466   6.875   5.059 -0.7466  0.8354 -1.4655
  155SAPE  C31517249   4.305   6.796   4.942 -0.2959  0.0397 -0.6374
  155SAPE  H15X17250   4.227   6.871   4.968 -0.3152 -0.1126 -0.2605
  155SAPE  H15Y17251   4.257   6.697   4.926 -0.9349  0.2331  0.0081
  155SAPE  C31617252   4.372   6.849   4.818  0.1098 -0.0341 -0.4436
  155SAPE  H16X17253   4.453   6.781   4.781 -0.0742 -0.7223  0.3722
  155SAPE  H16Y17254   4.442   6.932   4.841  0.3287 -0.5771  0.9248
  155SAPE  C31717255   4.278   6.861   4.697  0.5011 -0.4478  0.1893
  155SAPE  H17X17256   4.196   6.931   4.725 -1.1835 -1.3650 -2.1055
  155SAPE  H17Y17257   4.227   6.764   4.681 -2.4444  0.3622  3.3309
  155SAPE  C31817258   4.335   6.908   4.566  0.0794  0.9313  0.0008
  155SAPE  H18X17259   4.250   6.919   4.496 -0.7348  0.0553  0.8250
  155SAPE  H18Y17260   4.411   6.835   4.532  0.0780  1.5307 -1.3448
  155SAPE  H18Z17261   4.383   7.008   4.573 -0.9599  1.5566 -1.4037
  156SAPE     N17262   2.075   0.895   6.473  0.4407  0.0824 -0.3127
  156SAPE   HN117263   2.129   0.812   6.444  1.1907  0.6824 -0.6845
  156SAPE   HN217264   1.990   0.857   6.518  1.0451 -0.0017  0.7884
  156SAPE   HN317265   2.048   0.943   6.384 -0.8364 -0.8825 -0.4740
  156SAPE   C1217266   2.139   0.987   6.567  0.8274  0.4660 -0.7199
  156SAPE  H12A17267   2.155   0.925   6.658  0.6770 -1.4198 -1.9096
  156SAPE  H12B17268   2.075   1.077   6.575 -1.0386 -0.6082 -2.5267
  156SAPE   C1117269   2.279   1.031   6.515 -0.7868 -0.3446  0.2688
  156SAPE  H11A17270   2.352   0.951   6.494 -0.0780  0.4069 -0.1834
  156SAPE  H11B17271   2.323   1.097   6.593 -0.8785  0.4061 -0.2947
  156SAPE     P17272   2.251   1.255   6.373 -0.1240  0.1905  0.1119
  156SAPE   O1317273   2.126   1.309   6.420  0.6095 -0.2058 -0.5448
  156SAPE   O1417274   2.372   1.318   6.423 -0.3298  0.1541 -0.0714
  156SAPE   O1217275   2.254   1.098   6.391 -0.1693  0.4321 -0.0334
  156SAPE   O1117276   2.255   1.282   6.214  0.4818 -0.1002  0.0439
  156SAPE    C117277   2.374   1.258   6.136  0.4849 -0.4042 -0.1440
  156SAPE    HA17278   2.445   1.185   6.179  3.0666  1.2996 -1.2883
  156SAPE    HB17279   2.338   1.217   6.039 -0.0979 -0.5431  0.1248
  156SAPE    C217280   2.457   1.388   6.109 -0.0481 -0.2979  0.5509
  156SAPE    HS17281   2.485   1.438   6.204  1.6707 -0.1197 -0.0033
  156SAPE   O2117282   2.367   1.467   6.035  0.2746  0.1055  0.1055
  156SAPE   C2117283   2.403   1.585   6.013 -0.0032 -1.1202 -0.0618
  156SAPE   O2217284   2.500   1.642   6.062 -0.0293 -0.1106  0.4295
  156SAPE   C2217285   2.310   1.653   5.916  0.5873 -0.3589 -0.2734
  156SAPE   H2R17286   2.208   1.644   5.958  0.4219  0.8198 -0.3792
  156SAPE   H2S17287   2.328   1.763   5.911  0.2630 -0.1773  1.5368
  156SAPE    C317288   2.592   1.365   6.041 -0.3010 -0.8723 -0.6389
  156SAPE    HX17289   2.668   1.321   6.108 -0.6067  2.1623  1.9241
  156SAPE    HY17290   2.630   1.466   6.013 -2.5693 -0.3004 -1.9423
  156SAPE   O3117291   2.569   1.308   5.909  0.1797  0.2951  0.2489
  156SAPE   C3117292   2.590   1.174   5.899 -0.1898  0.0517 -0.0452
  156SAPE   O3217293   2.603   1.102   6.000  0.3479 -0.0301  0.5087
  156SAPE   C3217294   2.571   1.128   5.752 -0.0579 -0.0988 -0.2295
  156SAPE   H2X17295   2.654   1.058   5.731 -0.9675 -0.9828 -0.9806
  156SAPE   H2Y17296   2.582   1.215   5.683 -1.1265 -0.7330 -1.2337
  156SAPE   C2317297   2.327   1.607   5.765  0.0642  0.1786 -1.5193
  156SAPE   H3R17298   2.337   1.497   5.752 -4.6105 -1.0476  2.1662
  156SAPE   H3S17299   2.415   1.663   5.729  1.9136 -0.7165  1.2523
  156SAPE   C2417300   2.197   1.644   5.687  0.0229  0.6046 -0.9338
  156SAPE   H4R17301   2.203   1.623   5.578 -0.7066  1.6283 -1.1812
  156SAPE   H4S17302   2.206   1.755   5.684 -0.3990  0.6407 -0.9154
  156SAPE   C2517303   2.066   1.579   5.731 -0.2196  0.4002  0.3219
  156SAPE   H5R17304   2.073   1.473   5.758  0.2011  0.6117  1.0746
  156SAPE   C2617305   1.941   1.632   5.731 -0.5558  0.4855  0.3573
  156SAPE   H6R17306   1.860   1.567   5.767 -1.2560 -0.0111 -1.9668
  156SAPE   C2717307   1.904   1.765   5.676 -0.6220  0.0720 -0.4193
  156SAPE   H7R17308   1.980   1.807   5.608 -1.4164  0.4500 -1.0973
  156SAPE   H7S17309   1.905   1.837   5.761 -0.9907  0.5167 -0.7864
  156SAPE   C2817310   1.776   1.778   5.604 -0.0154 -0.2816  0.7007
  156SAPE   H8R17311   1.704   1.840   5.658  2.2181  2.1152  1.1069
  156SAPE   C2917312   1.740   1.731   5.484 -0.2369  0.3839  0.2127
  156SAPE   H9R17313   1.635   1.744   5.453  0.2397  2.5436 -0.6606
  156SAPE  C21017314   1.817   1.643   5.382 -0.5697  0.1428  0.4437
  156SAPE  H10R17315   1.753   1.621   5.294  0.1695 -1.9755  0.3853
  156SAPE  H10S17316   1.831   1.541   5.423  1.6442  0.6364  1.0807
  156SAPE  C21117317   1.955   1.675   5.338 -0.1958 -0.4201  1.2851
  156SAPE  H11R17318   2.032   1.689   5.414  0.2764  0.8499  0.6024
  156SAPE  C21217319   1.999   1.675   5.211 -0.1331  0.3956 -0.3657
  156SAPE  H12R17320   2.104   1.703   5.200  0.0486 -0.5599 -1.2055
  156SAPE  C21317321   1.905   1.657   5.093 -0.5750  0.1506 -0.8648
  156SAPE  H13R17322   1.944   1.737   5.027  1.1662  0.3267  0.3093
  156SAPE  H13S17323   1.800   1.689   5.109 -0.4798 -0.4661  1.2990
  156SAPE  C21417324   1.882   1.517   5.032 -0.3226 -0.6292 -0.2463
  156SAPE  H14R17325   1.859   1.448   5.115 -2.3061  0.0497 -0.1764
  156SAPE  C21517326   1.866   1.496   4.903 -0.3653  0.5664 -0.5562
  156SAPE  H15R17327   1.847   1.394   4.868 -1.5885  0.4432  0.3856
  156SAPE  C21617328   1.870   1.595   4.785  0.2688  0.4562 -0.1656
  156SAPE  H16R17329   1.802   1.680   4.810 -1.3908 -0.9558  0.2839
  156SAPE  H16S17330   1.823   1.556   4.693 -0.2098 -2.6413  1.2596
  156SAPE  C21717331   2.008   1.655   4.753  0.3958 -0.3212  0.3977
  156SAPE  H17R17332   2.044   1.715   4.839  0.6002  1.0937 -0.6501
  156SAPE  H17S17333   2.002   1.718   4.662 -1.9621  0.4648  1.0093
  156SAPE  C21817334   2.113   1.549   4.714 -0.0751  0.1724 -0.5444
  156SAPE  H18R17335   2.070   1.478   4.639 -1.2699 -0.9477  1.1307
  156SAPE  H18S17336   2.129   1.486   4.804 -1.0345 -2.3593 -2.0149
  156SAPE  C21917337   2.245   1.610   4.667  0.5941 -0.0405  0.3569
  156SAPE  H19R17338   2.332   1.543   4.684  1.5068  1.0155 -0.0757
  156SAPE  H19S17339   2.267   1.705   4.719  1.9842 -0.8051  1.2266
  156SAPE  C22017340   2.230   1.646   4.515 -0.6550  0.4315 -0.3999
  156SAPE  H20R17341   2.135   1.698   4.491 -1.0514  0.5202  1.2632
  156SAPE  H20S17342   2.230   1.556   4.449 -1.8984  0.1668 -0.0581
  156SAPE  H20T17343   2.323   1.703   4.493  0.3743 -1.3304 -0.8806
  156SAPE   C3317344   2.434   1.057   5.727  0.1357  0.0823  0.0462
  156SAPE   H3X17345   2.413   0.988   5.811 -0.9282  0.7389  0.3419
  156SAPE   H3Y17346   2.445   0.993   5.637  1.7213  1.8939 -1.1189
  156SAPE   C3417347   2.316   1.151   5.695  0.0435  0.3367  0.2629
  156SAPE   H4X17348   2.322   1.240   5.762 -0.4850 -0.3617  1.2647
  156SAPE   H4Y17349   2.227   1.107   5.745  1.7096 -0.3142  2.8753
  156SAPE   C3517350   2.302   1.195   5.545 -0.3966  0.7337 -0.2453
  156SAPE   H5X17351   2.315   1.105   5.481  2.8182 -0.1526  1.4598
  156SAPE   H5Y17352   2.390   1.261   5.533 -0.4678  1.3804  2.1843
  156SAPE   C3617353   2.167   1.265   5.539  0.4281 -0.0318 -0.0973
  156SAPE   H6X17354   2.192   1.352   5.602  1.1533  1.0566 -1.8270
  156SAPE   H6Y17355   2.085   1.201   5.579 -0.8370 -1.3624 -4.2366
  156SAPE   C3717356   2.126   1.314   5.399 -0.2786  0.3644  1.0962
  156SAPE   H7X17357   2.211   1.374   5.360  0.7426 -1.5180  0.2770
  156SAPE   H7Y17358   2.031   1.372   5.402 -0.8973 -0.3003 -2.0249
  156SAPE   C3817359   2.108   1.185   5.314 -0.4892  0.0490  0.5378
  156SAPE   H8X17360   2.053   1.110   5.375 -1.4502 -0.1899 -0.5974
  156SAPE   H8Y17361   2.203   1.128   5.305 -0.8135 -0.5255  0.7293
  156SAPE   C3917362   2.047   1.213   5.180  0.4536 -0.4481 -0.0987
  156SAPE   H9X17363   2.117   1.280   5.126 -0.1461 -0.1068 -0.4658
  156SAPE   H9Y17364   1.952   1.267   5.200 -0.7796 -1.7432 -2.0083
  156SAPE  C31017365   2.008   1.089   5.100 -0.3495  0.5722 -0.8653
  156SAPE  H10X17366   1.901   1.076   5.126 -0.5575  1.6348 -1.1188
  156SAPE  H10Y17367   2.059   0.996   5.134 -1.8978 -0.0969 -0.3023
  156SAPE  C31117368   2.019   1.105   4.944  0.2400  0.1557  0.1141
  156SAPE  H11X17369   1.966   1.198   4.916  0.2266  0.3272  0.7004
  156SAPE  H11Y17370   1.971   1.019   4.893 -1.0180  1.5548 -1.1415
  156SAPE  C31217371   2.170   1.131   4.904  0.5680  0.9627  0.3332
  156SAPE  H12X17372   2.232   1.058   4.962  1.7804  0.6711 -1.2392
  156SAPE  H12Y17373   2.193   1.234   4.938  0.2795  1.7674 -1.7495
  156SAPE  C31317374   2.205   1.126   4.756  0.7718  0.0695 -0.7424
  156SAPE  H13X17375   2.146   1.197   4.695  0.4941  0.2712 -0.2395
  156SAPE  H13Y17376   2.187   1.024   4.716  1.3056 -0.1949 -0.3185
  156SAPE  C31417377   2.355   1.155   4.733  0.3943  0.2652 -0.9799
  156SAPE  H14X17378   2.423   1.086   4.787 -1.3034  0.4161  1.5399
  156SAPE  H14Y17379   2.375   1.255   4.779 -1.8989  1.1652 -1.7849
  156SAPE  C31517380   2.396   1.184   4.589 -0.0945 -0.2752  0.7252
  156SAPE  H15X17381   2.410   1.294   4.582  1.3625 -0.4737  0.2283
  156SAPE  H15Y17382   2.311   1.158   4.523  0.1829  2.5535 -0.8882
  156SAPE  C31617383   2.524   1.106   4.539 -0.2903  0.2217 -0.7095
  156SAPE  H16X17384   2.523   1.001   4.575 -1.9744  0.8636  1.2784
  156SAPE  H16Y17385   2.623   1.151   4.563 -0.3147  0.2702 -0.6999
  156SAPE  C31717386   2.514   1.092   4.387 -0.0044  0.3809 -0.3143
  156SAPE  H17X17387   2.406   1.073   4.364 -0.0104  1.1227 -0.9527
  156SAPE  H17Y17388   2.556   0.994   4.358  0.0789  1.3169 -3.8239
  156SAPE  C31817389   2.578   1.208   4.313 -0.3540  0.3441 -0.3636
  156SAPE  H18X17390   2.619   1.177   4.215 -0.9486 -1.5413 -0.0483
  156SAPE  H18Y17391   2.647   1.261   4.383 -0.5121  0.1073 -0.0229
  156SAPE  H18Z17392   2.500   1.284   4.290  0.2712  0.6182 -1.6866
  157SAPE     N17393   3.128   5.780   6.534 -0.0545 -1.1095  0.5239
  157SAPE   HN117394   3.032   5.811   6.508  0.0456 -1.4341 -0.2654
  157SAPE   HN217395   3.141   5.682   6.503  0.0367 -1.2146  0.8890
  157SAPE   HN317396   3.148   5.783   6.636  1.4631 -1.5213  0.2709
  157SAPE   C1217397   3.215   5.873   6.458 -0.2753  0.2048 -0.3410
  157SAPE  H12A17398   3.320   5.853   6.488 -0.9862 -2.2424  0.7362
  157SAPE  H12B17399   3.183   5.974   6.493 -0.7374 -0.7757  2.2664
  157SAPE   C1117400   3.202   5.850   6.308 -0.0780 -0.0682 -0.0171
  157SAPE  H11A17401   3.258   5.923   6.246  0.0003 -0.1151 -0.0021
  157SAPE  H11B17402   3.097   5.868   6.277  0.9980  0.5053 -3.7171
  157SAPE     P17403   3.384   5.669   6.257 -0.0939  0.2069 -0.1971
  157SAPE   O1317404   3.471   5.792   6.259  0.6030 -0.4217  0.2578
  157SAPE   O1417405   3.416   5.575   6.369  0.2120  0.0450  0.6333
  157SAPE   O1217406   3.232   5.712   6.269 -0.5649  0.0561  0.1893
  157SAPE   O1117407   3.401   5.598   6.114  0.7100 -0.3675  0.4382
  157SAPE    C117408   3.297   5.523   6.050  0.4211  0.2013  0.3238
  157SAPE    HA17409   3.274   5.428   6.103 -1.1856  0.1475 -0.4129
  157SAPE    HB17410   3.208   5.589   6.059  0.7899  0.4164  5.5764
  157SAPE    C217411   3.330   5.488   5.896  0.3894 -0.0244  0.0115
  157SAPE    HS17412   3.251   5.422   5.855  0.7411 -0.2352 -0.3351
  157SAPE   O2117413   3.459   5.423   5.889  0.7072 -0.4319 -0.0695
  157SAPE   C2117414   3.465   5.296   5.932 -0.2795  0.0864  0.3698
  157SAPE   O2217415   3.369   5.230   5.969  0.5615  0.2471 -0.6034
  157SAPE   C2217416   3.613   5.250   5.920  0.4371  0.3221 -0.2362
  157SAPE   H2R17417   3.643   5.269   5.814 -0.4943 -2.5617 -1.1225
  157SAPE   H2S17418   3.672   5.308   5.993  1.3381 -1.6287  0.6560
  157SAPE    C317419   3.337   5.614   5.812  0.2144  0.3480  0.3789
  157SAPE    HX17420   3.420   5.678   5.848  0.3277 -0.2492  1.2021
  157SAPE    HY17421   3.240   5.665   5.825 -0.2634 -0.2762 -0.6127
  157SAPE   O3117422   3.351   5.579   5.677  0.3346  0.7031  0.4039
  157SAPE   C3117423   3.467   5.588   5.617  0.2797  0.3240  0.4217
  157SAPE   O3217424   3.576   5.606   5.661 -0.2147  0.2383 -0.1777
  157SAPE   C3217425   3.436   5.600   5.468  0.4239 -0.8986  0.3222
  157SAPE   H2X17426   3.348   5.662   5.442  0.5318 -1.1124 -0.5575
  157SAPE   H2Y17427   3.410   5.501   5.427  1.1959 -0.0039 -2.5625
  157SAPE   C2317428   3.643   5.095   5.936  0.2442  0.1258  0.4299
  157SAPE   H3R17429   3.613   5.060   6.037  0.7752 -0.7518  0.2967
  157SAPE   H3S17430   3.754   5.100   5.932  0.3312 -0.9758  1.1154
  157SAPE   C2417431   3.597   5.005   5.823  0.0960 -0.1852  0.1992
  157SAPE   H4R17432   3.638   4.904   5.843 -0.4598 -0.1855  1.4193
  157SAPE   H4S17433   3.662   5.033   5.738 -0.6660 -0.8522 -0.6246
  157SAPE   C2517434   3.448   5.003   5.805  0.2187 -0.3320  0.1956
  157SAPE   H5R17435   3.381   4.991   5.891  0.7246  0.4965  0.7215
  157SAPE   C2617436   3.385   5.037   5.694  0.4065  0.0684 -0.0462
  157SAPE   H6R17437   3.278   5.010   5.700  0.6791 -1.4405 -1.2630
  157SAPE   C2717438   3.452   5.060   5.563 -0.3434  0.1524 -0.9197
  157SAPE   H7R17439   3.396   5.031   5.472  0.6439  1.7439 -2.1169
  157SAPE   H7S17440   3.546   5.003   5.545  0.5987  1.2939  0.1513
  157SAPE   C2817441   3.487   5.205   5.541  0.1151  0.0472  0.3283
  157SAPE   H8R17442   3.441   5.276   5.611 -0.6404  1.0136 -1.0823
  157SAPE   C2917443   3.535   5.264   5.434 -0.7023  0.0320  0.1647
  157SAPE   H9R17444   3.576   5.366   5.438 -0.4297 -0.1275  2.9692
  157SAPE  C21017445   3.559   5.189   5.302 -0.1972 -0.0607 -0.4323
  157SAPE  H10R17446   3.536   5.250   5.212  0.4947 -2.1318 -2.1092
  157SAPE  H10S17447   3.476   5.116   5.296 -1.9680  1.7493  0.8788
  157SAPE  C21117448   3.698   5.131   5.282 -0.0073 -0.3502 -0.2068
  157SAPE  H11R17449   3.759   5.113   5.373  0.1980  1.7535  0.1050
  157SAPE  C21217450   3.766   5.133   5.167  0.3040 -0.3797  0.5809
  157SAPE  H12R17451   3.867   5.090   5.175 -0.0048 -1.0728  0.8607
  157SAPE  C21317452   3.720   5.176   5.024  0.0993  0.0800 -1.1202
  157SAPE  H13R17453   3.614   5.146   5.009  0.1647  0.6548 -2.9488
  157SAPE  H13S17454   3.770   5.093   4.968  0.0209 -0.3250 -0.5967
  157SAPE  C21417455   3.750   5.312   4.967 -0.0100 -0.2360  0.6435
  157SAPE  H14R17456   3.792   5.378   5.045 -0.4684 -0.5585  1.1710
  157SAPE  C21517457   3.740   5.352   4.835 -0.0347 -0.1686 -0.5619
  157SAPE  H15R17458   3.779   5.451   4.810 -0.3444 -0.3452 -1.8184
  157SAPE  C21617459   3.675   5.281   4.714 -0.2827 -0.0524 -0.8972
  157SAPE  H16R17460   3.586   5.331   4.671 -0.0717 -0.5158 -1.8929
  157SAPE  H16S17461   3.640   5.179   4.741 -2.1869  0.8092  0.0876
  157SAPE  C21717462   3.787   5.270   4.609  0.1860  0.5226 -0.1000
  157SAPE  H17R17463   3.876   5.223   4.655 -0.5392 -1.2800 -0.4346
  157SAPE  H17S17464   3.810   5.374   4.579  0.3067  0.5381  0.0457
  157SAPE  C21817465   3.737   5.166   4.494  0.1255  0.4577 -0.6309
  157SAPE  H18R17466   3.652   5.211   4.440 -1.1686  1.2374  1.8862
  157SAPE  H18S17467   3.707   5.071   4.544  2.5492 -0.6198 -1.0688
  157SAPE  C21917468   3.850   5.134   4.405 -0.9498  0.1697 -0.3934
  157SAPE  H19R17469   3.820   5.038   4.357  1.6339 -0.1874 -1.5187
  157SAPE  H19S17470   3.947   5.100   4.449 -0.4891  2.6636  0.7127
  157SAPE  C22017471   3.893   5.243   4.304 -0.3230 -0.1110 -0.1606
  157SAPE  H20R17472   3.985   5.207   4.253  0.3008 -0.3887  1.1205
  157SAPE  H20S17473   3.913   5.341   4.353 -0.7298 -0.1693  0.1204
  157SAPE  H20T17474   3.811   5.258   4.231  1.5172  1.1872 -2.1065
  157SAPE   C3317475   3.563   5.642   5.389 -0.7863 -0.4788 -0.4456
  157SAPE   H3X17476   3.648   5.573   5.408 -0.6202 -0.5222 -1.3052
  157SAPE   H3Y17477   3.595   5.743   5.421 -0.8189 -0.5784 -0.0969
  157SAPE   C3417478   3.535   5.627   5.233  0.2278 -0.7951 -0.3888
  157SAPE   H4X17479   3.519   5.522   5.203 -0.0632 -0.1240 -2.7423
  157SAPE   H4Y17480   3.625   5.658   5.177  0.6342  1.7363  1.4823
  157SAPE   C3517481   3.421   5.725   5.182  0.0081  0.2084 -0.3376
  157SAPE   H5X17482   3.446   5.818   5.237  1.7396 -1.1559  1.3647
  157SAPE   H5Y17483   3.324   5.681   5.214 -0.6196 -0.6368 -3.1733
  157SAPE   C3617484   3.423   5.743   5.027  0.8639 -0.4525  0.1909
  157SAPE   H6X17485   3.516   5.793   4.993 -0.1188  2.8737  2.0251
  157SAPE   H6Y17486   3.347   5.821   5.005  1.8333  0.5543  0.3505
  157SAPE   C3717487   3.387   5.611   4.956  0.1466 -0.5708  0.0605
  157SAPE   H7X17488   3.310   5.562   5.020  1.8174 -0.0351  2.6531
  157SAPE   H7Y17489   3.476   5.546   4.967  1.0483  0.7181  0.6263
  157SAPE   C3817490   3.341   5.632   4.814  0.6073  1.0059  0.4958
  157SAPE   H8X17491   3.422   5.679   4.753  0.8794 -0.6972 -0.5200
  157SAPE   H8Y17492   3.252   5.698   4.808  0.4892  1.0497  2.2495
  157SAPE   C3917493   3.306   5.498   4.740 -0.1024 -0.3106 -0.4485
  157SAPE   H9X17494   3.257   5.432   4.815 -1.0144  0.3647 -0.4441
  157SAPE   H9Y17495   3.396   5.444   4.703 -1.5614 -3.0442 -0.2352
  157SAPE  C31017496   3.211   5.525   4.625 -0.5592 -0.2304  0.4117
  157SAPE  H10X17497   3.116   5.572   4.659 -0.4467  0.6774 -0.4616
  157SAPE  H10Y17498   3.186   5.427   4.579 -2.2300 -0.0691  0.9021
  157SAPE  C31117499   3.274   5.616   4.521  0.1725 -0.5923 -0.7749
  157SAPE  H11X17500   3.332   5.698   4.568  2.5094 -3.5343  2.0088
  157SAPE  H11Y17501   3.206   5.670   4.452  3.6003  1.3151 -2.8998
  157SAPE  C31217502   3.370   5.529   4.441  0.3157 -0.4700 -0.1116
  157SAPE  H12X17503   3.327   5.456   4.370 -1.1564 -0.1014  0.3494
  157SAPE  H12Y17504   3.416   5.465   4.519 -1.8636 -1.5810  0.3388
  157SAPE  C31317505   3.477   5.613   4.383  0.2661 -0.5926  0.0049
  157SAPE  H13X17506   3.522   5.670   4.467 -1.5433  1.7683 -0.5222
  157SAPE  H13Y17507   3.439   5.696   4.319  1.0101 -1.5670 -1.7834
  157SAPE  C31417508   3.587   5.544   4.300 -0.3658  0.1354 -0.4929
  157SAPE  H14X17509   3.539   5.462   4.242 -1.8860  1.1744 -0.7477
  157SAPE  H14Y17510   3.659   5.493   4.368 -1.8015 -1.2522  0.0702
  157SAPE  C31517511   3.669   5.627   4.202 -0.4596  0.1039 -0.0004
  157SAPE  H15X17512   3.745   5.568   4.147 -1.3436 -1.2476  0.1654
  157SAPE  H15Y17513   3.718   5.704   4.265  1.5076  0.4084 -1.7980
  157SAPE  C31617514   3.583   5.719   4.118  0.6032 -0.2728  0.1448
  157SAPE  H16X17515   3.525   5.797   4.170 -0.2856 -0.1491 -0.9935
  157SAPE  H16Y17516   3.502   5.674   4.057 -0.8603  1.5093  0.6927
  157SAPE  C31717517   3.670   5.804   4.016 -0.2890 -0.3617  0.0721
  157SAPE  H17X17518   3.604   5.855   3.942 -0.4765  3.0137  2.3388
  157SAPE  H17Y17519   3.729   5.727   3.963 -1.5351 -0.4929 -1.1746
  157SAPE  C31817520   3.759   5.905   4.085  0.5092  0.6135  0.8159
  157SAPE  H18X17521   3.826   5.847   4.153 -1.7595  0.5150  3.1161
  157SAPE  H18Y17522   3.695   5.980   4.135 -1.5530  0.1704 -0.9909
  157SAPE  H18Z17523   3.817   5.953   4.004  0.2384 -0.3105  0.0422
  158SAPE     N17524   5.003   4.102   6.621  0.7966  0.0939  0.5148
  158SAPE   HN117525   5.048   4.184   6.668  1.5570 -0.2298  0.3634
  158SAPE   HN217526   4.908   4.094   6.663  0.6712 -0.2106  0.1762
  158SAPE   HN317527   5.057   4.016   6.642  0.7513  0.3786  1.8979
  158SAPE   C1217528   4.979   4.122   6.476 -0.8531 -0.0491 -0.1714
  158SAPE  H12A17529   5.076   4.151   6.431 -0.0909 -2.0583  0.0775
  158SAPE  H12B17530   4.916   4.212   6.457  0.2863  0.5415 -1.3108
  158SAPE   C1117531   4.933   3.992   6.414  0.1276  0.2311 -0.1999
  158SAPE  H11A17532   4.990   3.904   6.450 -0.8607  0.2973  1.6416
  158SAPE  H11B17533   4.958   4.001   6.306 -3.8661  1.3359 -1.2240
  158SAPE     P17534   4.698   3.887   6.348  0.0623 -0.6062 -0.0256
  158SAPE   O1317535   4.738   3.745   6.353 -0.9544  0.1639  0.3485
  158SAPE   O1417536   4.560   3.909   6.399  1.1210 -0.5450  0.6010
  158SAPE   O1217537   4.795   3.984   6.422 -0.0366 -0.6225 -0.5158
  158SAPE   O1117538   4.706   3.924   6.193 -0.0630  0.4388 -0.1005
  158SAPE    C117539   4.689   4.058   6.153 -0.1249  0.0319 -0.8022
  158SAPE    HA17540   4.702   4.136   6.231 -0.1133 -0.4854 -0.2820
  158SAPE    HB17541   4.767   4.100   6.086  1.2637  0.9439  1.2829
  158SAPE    C217542   4.550   4.069   6.087 -0.0019 -0.2701 -0.6867
  158SAPE    HS17543   4.479   4.031   6.163  2.2326 -1.0607  1.1154
  158SAPE   O2117544   4.560   3.986   5.972  0.2857  0.4125  0.1200
  158SAPE   C2117545   4.447   3.957   5.913 -0.1717 -0.1572 -0.3415
  158SAPE   O2217546   4.335   3.980   5.953  0.1932 -1.0832  0.2999
  158SAPE   C2217547   4.473   3.876   5.787 -0.8303  0.4407 -0.3654
  158SAPE   H2R17548   4.538   3.795   5.825 -1.7895  0.3072  1.0687
  158SAPE   H2S17549   4.386   3.823   5.743  1.8509 -3.2494 -1.6976
  158SAPE    C317550   4.511   4.219   6.056 -0.2807  0.7843  0.5950
  158SAPE    HX17551   4.524   4.275   6.151  0.6135  1.7076 -0.0572
  158SAPE    HY17552   4.406   4.234   6.024  0.4910  1.8971 -1.6570
  158SAPE   O3117553   4.603   4.268   5.954 -0.0718  0.1290 -0.1676
  158SAPE   C3117554   4.559   4.289   5.830 -0.1261 -0.3857 -0.2671
  158SAPE   O3217555   4.448   4.254   5.791 -0.0596  0.4086 -0.5810
  158SAPE   C3217556   4.668   4.339   5.735 -0.0070  0.0917  0.3981
  158SAPE   H2X17557   4.756   4.275   5.757 -0.5860 -1.4105 -1.3032
  158SAPE   H2Y17558   4.692   4.444   5.762 -0.0367  0.6558 -1.5772
  158SAPE   C2317559   4.547   3.952   5.672  1.1666 -0.2060 -0.8468
  158SAPE   H3R17560   4.635   4.007   5.710  1.1872 -1.0288  0.3318
  158SAPE   H3S17561   4.482   4.025   5.618  0.2493  0.2217  0.7499
  158SAPE   C2417562   4.597   3.866   5.561 -0.3423 -0.5715 -0.8140
  158SAPE   H4R17563   4.659   3.780   5.593  0.6133  0.4149  0.0606
  158SAPE   H4S17564   4.678   3.919   5.507  1.0142 -0.9115  0.8099
  158SAPE   C2517565   4.496   3.800   5.477  0.3937  0.7586 -0.8500
  158SAPE   H5R17566   4.424   3.728   5.519  0.8145  0.5745 -0.4345
  158SAPE   C2617567   4.493   3.804   5.340  0.3101 -1.1088 -0.2852
  158SAPE   H6R17568   4.408   3.755   5.290 -1.0289 -1.2954  2.0209
  158SAPE   C2717569   4.579   3.881   5.244 -0.3450  0.4327  0.3041
  158SAPE   H7R17570   4.677   3.901   5.292  0.1187 -0.3528 -0.3026
  158SAPE   H7S17571   4.533   3.980   5.221  0.8409  0.4421 -2.3253
  158SAPE   C2817572   4.603   3.818   5.107 -0.4096  0.4738 -0.2460
  158SAPE   H8R17573   4.656   3.722   5.122 -0.9792  0.2981  0.7354
  158SAPE   C2917574   4.590   3.871   4.982 -0.0336  0.4058 -0.3024
  158SAPE   H9R17575   4.631   3.829   4.889  0.7232  3.0669 -1.2397
  158SAPE  C21017576   4.547   4.015   4.960 -0.5656 -0.9892 -0.0973
  158SAPE  H10R17577   4.641   4.072   4.940 -2.6641  2.2367 -1.4988
  158SAPE  H10S17578   4.523   4.070   5.054  0.5651  0.5597 -0.6641
  158SAPE  C21117579   4.446   4.039   4.848  0.3370  0.1892 -0.9972
  158SAPE  H11R17580   4.340   4.037   4.876  1.0867 -0.2018  2.1881
  158SAPE  C21217581   4.481   4.074   4.727 -0.5080 -0.6413  0.2093
  158SAPE  H12R17582   4.393   4.092   4.663 -2.0069 -2.9972  1.4521
  158SAPE  C21317583   4.619   4.067   4.669  0.1005  0.8719 -0.2697
  158SAPE  H13R17584   4.626   3.975   4.608 -1.4343 -0.4749  1.4485
  158SAPE  H13S17585   4.688   4.038   4.751 -1.9783 -0.0673  1.2589
  158SAPE  C21417586   4.672   4.188   4.593 -0.6069  0.1665 -0.4715
  158SAPE  H14R17587   4.747   4.253   4.641 -1.2410  0.7690 -0.2814
  158SAPE  C21517588   4.648   4.211   4.457 -0.1520  0.3354 -0.1729
  158SAPE  H15R17589   4.704   4.284   4.397 -0.5636 -1.9433 -3.6703
  158SAPE  C21617590   4.546   4.146   4.368 -0.5386  0.1219 -0.1370
  158SAPE  H16R17591   4.459   4.214   4.365 -1.1168 -0.6096 -0.0486
  158SAPE  H16S17592   4.490   4.063   4.416 -0.8600 -0.2859 -1.1879
  158SAPE  C21717593   4.582   4.121   4.224 -0.4495  0.2951 -0.1814
  158SAPE  H17R17594   4.626   4.019   4.223 -2.5247 -0.6823  0.7645
  158SAPE  H17S17595   4.650   4.202   4.191 -1.7623  1.0321 -1.1907
  158SAPE  C21817596   4.457   4.119   4.130  0.1065  0.1488  0.1627
  158SAPE  H18R17597   4.403   4.216   4.141  0.2936  0.1766  0.8704
  158SAPE  H18S17598   4.391   4.031   4.141 -0.2378 -0.2637 -3.6415
  158SAPE  C21917599   4.502   4.120   3.982  0.0536  0.0199  0.4910
  158SAPE  H19R17600   4.547   4.019   3.977  0.9944  0.2610  3.0198
  158SAPE  H19S17601   4.579   4.196   3.956  2.0408 -1.4997  1.6685
  158SAPE  C22017602   4.388   4.126   3.874 -0.3831  0.5437 -0.1736
  158SAPE  H20R17603   4.300   4.183   3.910  1.3484  2.6102  1.0060
  158SAPE  H20S17604   4.342   4.028   3.848 -1.9745  1.4664 -0.9751
  158SAPE  H20T17605   4.431   4.175   3.784 -1.7699  0.5545 -0.8510
  158SAPE   C3317606   4.617   4.330   5.594  0.5525 -0.2071  0.1168
  158SAPE   H3X17607   4.520   4.383   5.585 -0.6582 -2.1902  0.8594
  158SAPE   H3Y17608   4.596   4.224   5.568 -0.5074 -0.3846  1.6284
  158SAPE   C3417609   4.722   4.383   5.493 -0.1441 -0.7586 -0.1442
  158SAPE   H4X17610   4.816   4.325   5.494 -1.1465 -2.4340  0.1100
  158SAPE   H4Y17611   4.740   4.492   5.507  2.4961 -1.2422  0.9072
  158SAPE   C3517612   4.680   4.359   5.350 -0.2716  0.1492  1.0317
  158SAPE   H5X17613   4.579   4.402   5.335  0.2519  1.0987  0.0920
  158SAPE   H5Y17614   4.662   4.250   5.336 -0.4279  0.3924 -0.8214
  158SAPE   C3617615   4.771   4.416   5.239 -0.1542 -0.6101  0.0371
  158SAPE   H6X17616   4.875   4.377   5.253 -0.1255  0.0336  1.9143
  158SAPE   H6Y17617   4.775   4.526   5.255 -0.5745 -0.4306 -1.0618
  158SAPE   C3717618   4.716   4.377   5.105  0.5443 -0.4126  0.0760
  158SAPE   H7X17619   4.621   4.434   5.092  0.2992 -0.7178  0.4959
  158SAPE   H7Y17620   4.696   4.268   5.101  0.1327 -0.3249 -0.3117
  158SAPE   C3817621   4.815   4.406   4.991  0.2508  0.3560 -0.1320
  158SAPE   H8X17622   4.888   4.322   4.980  1.6941  1.0731  2.9179
  158SAPE   H8Y17623   4.880   4.489   5.023  0.6639 -0.4004  1.0860
  158SAPE   C3917624   4.732   4.438   4.865 -0.1530 -1.0761  0.5459
  158SAPE   H9X17625   4.650   4.512   4.873 -0.2821 -0.8581 -2.0864
  158SAPE   H9Y17626   4.688   4.346   4.823  0.2697 -0.2705 -1.8065
  158SAPE  C31017627   4.821   4.501   4.755  0.0393 -0.0713  0.5639
  158SAPE  H10X17628   4.879   4.412   4.724 -1.1958 -0.9583  0.7044
  158SAPE  H10Y17629   4.892   4.570   4.805 -0.1658 -0.0395  0.8141
  158SAPE  C31117630   4.741   4.569   4.639 -0.8483 -0.3246  0.0572
  158SAPE  H11X17631   4.692   4.662   4.675 -0.8658 -0.6347  0.8506
  158SAPE  H11Y17632   4.657   4.506   4.604 -2.0811  1.5653 -0.5430
  158SAPE  C31217633   4.821   4.600   4.511 -0.5153 -0.0451 -0.2143
  158SAPE  H12X17634   4.769   4.675   4.447 -1.9803  0.1775  1.1691
  158SAPE  H12Y17635   4.828   4.503   4.457 -0.0451 -0.2260  0.1701
  158SAPE  C31317636   4.969   4.636   4.508 -0.1059 -0.4532 -0.4284
  158SAPE  H13X17637   4.998   4.643   4.401 -0.6244  1.0191 -0.5008
  158SAPE  H13Y17638   5.025   4.556   4.561  1.5786  1.6856  1.2442
  158SAPE  C31417639   4.994   4.771   4.584 -0.0893 -0.6435  0.1599
  158SAPE  H14X17640   4.955   4.766   4.688  0.4849 -0.3624  0.3927
  158SAPE  H14Y17641   4.939   4.855   4.535 -3.0652 -1.3437  2.0384
  158SAPE  C31517642   5.139   4.803   4.598  0.1093  0.0262 -0.0511
  158SAPE  H15X17643   5.206   4.736   4.657 -1.2976  1.0973  3.0088
  158SAPE  H15Y17644   5.138   4.897   4.657 -1.4555  0.7604 -1.1825
  158SAPE  C31617645   5.205   4.837   4.467  0.3591 -0.4883 -0.1421
  158SAPE  H16X17646   5.141   4.905   4.408  0.4503 -1.5431 -1.5206
  158SAPE  H16Y17647   5.215   4.746   4.404 -0.4511  0.6474 -2.0077
  158SAPE  C31717648   5.345   4.902   4.476 -0.3221 -0.0535  0.3348
  158SAPE  H17X17649   5.347   4.975   4.561 -2.6458  0.5098 -0.0187
  158SAPE  H17Y17650   5.370   4.956   4.382  2.9541  0.4470  1.3390
  158SAPE  C31817651   5.441   4.793   4.511 -0.9926 -0.1844 -0.8485
  158SAPE  H18X17652   5.538   4.844   4.492 -1.0075  0.7606  1.3004
  158SAPE  H18Y17653   5.428   4.707   4.442  0.7666  0.0504 -1.5290
  158SAPE  H18Z17654   5.435   4.756   4.616 -1.5168  0.7373 -0.5437
  159SAPE     N17655   5.200   3.233   2.056  0.0187 -0.3348 -0.0808
  159SAPE   HN117656   5.120   3.176   2.089 -0.2357  0.2666  0.3630
  159SAPE   HN217657   5.186   3.264   1.958  3.5684  0.3392 -0.5145
  159SAPE   HN317658   5.278   3.164   2.046  0.6962  0.4515 -0.3306
  159SAPE   C1217659   5.237   3.340   2.151 -0.3120  0.1606 -0.0567
  159SAPE  H12A17660   5.309   3.295   2.223 -0.5815  0.4269  0.3822
  159SAPE  H12B17661   5.144   3.373   2.201 -1.0135 -3.3386  1.2463
  159SAPE   C1117662   5.321   3.453   2.086 -0.8657  0.7631 -0.6176
  159SAPE  H11A17663   5.380   3.497   2.170 -1.4859 -0.5107  0.5271
  159SAPE  H11B17664   5.249   3.533   2.059 -0.2761  0.9564 -1.6599
  159SAPE     P17665   5.499   3.532   1.920 -0.1784 -0.4237 -0.0064
  159SAPE   O1317666   5.577   3.485   1.799  0.1617  0.5305  0.1051
  159SAPE   O1417667   5.434   3.660   1.901  0.0644  0.1059  0.6514
  159SAPE   O1217668   5.398   3.420   1.970  0.1314 -0.1761 -0.7710
  159SAPE   O1117669   5.601   3.551   2.039 -0.3176  0.1022 -0.6793
  159SAPE    C117670   5.673   3.432   2.079 -0.4609  0.2427 -0.4947
  159SAPE    HA17671   5.613   3.338   2.080  0.7957 -0.5912 -0.7001
  159SAPE    HB17672   5.751   3.398   2.007  0.0756  0.0041  0.1842
  159SAPE    C217673   5.746   3.447   2.217  0.4797 -0.1171 -0.1149
  159SAPE    HS17674   5.763   3.344   2.254 -0.3965  0.0659  0.8761
  159SAPE   O2117675   5.668   3.528   2.312  0.0751  0.2006 -0.2716
  159SAPE   C2117676   5.568   3.454   2.368 -0.0871 -0.4241  0.4926
  159SAPE   O2217677   5.560   3.332   2.372 -0.0804  0.6189  0.1145
  159SAPE   C2217678   5.482   3.553   2.435 -0.3877  0.4570  0.1552
  159SAPE   H2R17679   5.533   3.604   2.519 -3.2972  2.2866  0.9647
  159SAPE   H2S17680   5.454   3.630   2.360  1.3786  0.6170 -0.3864
  159SAPE    C317681   5.884   3.527   2.198 -0.9509 -0.0698  0.0139
  159SAPE    HX17682   5.865   3.609   2.126 -1.5138 -0.5122 -0.3494
  159SAPE    HY17683   5.961   3.455   2.161 -0.8169  0.0636  0.0312
  159SAPE   O3117684   5.945   3.557   2.323  0.6082 -0.0963 -0.3916
  159SAPE   C3117685   5.972   3.685   2.346 -0.6189  0.2392  0.4171
  159SAPE   O3217686   5.963   3.777   2.265  0.0544  0.1915  0.1038
  159SAPE   C3217687   6.045   3.694   2.485 -0.2722 -0.9266  0.5530
  159SAPE   H2X17688   6.150   3.680   2.450 -0.5405  1.2879 -1.3693
  159SAPE   H2Y17689   6.017   3.600   2.537 -0.9261 -1.3844 -0.5981
  159SAPE   C2317690   5.354   3.483   2.482 -0.0238 -0.9048  0.6288
  159SAPE   H3R17691   5.308   3.405   2.418  1.1181 -0.2332 -1.0891
  159SAPE   H3S17692   5.277   3.562   2.493  0.5419  0.0394 -1.6066
  159SAPE   C2417693   5.364   3.420   2.626  0.1955  0.3615 -0.1423
  159SAPE   H4R17694   5.411   3.321   2.610 -1.0920 -0.0507 -1.6014
  159SAPE   H4S17695   5.257   3.398   2.649 -0.3113  0.2322 -2.4044
  159SAPE   C2517696   5.423   3.502   2.741 -0.3245  0.1720  0.4323
  159SAPE   H5R17697   5.440   3.610   2.724  0.7367  0.1388  1.1424
  159SAPE   C2617698   5.434   3.454   2.865  0.4035 -0.0580  0.3423
  159SAPE   H6R17699   5.486   3.511   2.943  1.1877  0.7997 -0.7758
  159SAPE   C2717700   5.405   3.309   2.898 -0.7932 -0.5191 -0.5073
  159SAPE   H7R17701   5.405   3.242   2.810  2.1790 -1.3216 -0.0227
  159SAPE   H7S17702   5.306   3.282   2.939  0.5756 -2.7143  1.6636
  159SAPE   C2817703   5.510   3.254   3.001  0.3284  0.4805  0.2480
  159SAPE   H8R17704   5.597   3.196   2.965 -1.5899 -2.3231 -0.2425
  159SAPE   C2917705   5.522   3.278   3.130 -0.0425  0.2923  0.5896
  159SAPE   H9R17706   5.588   3.212   3.189 -0.7975 -1.9728 -0.9736
  159SAPE  C21017707   5.423   3.358   3.208 -0.2253  0.2704  0.0835
  159SAPE  H10R17708   5.369   3.279   3.264 -0.1565 -0.2937 -0.6196
  159SAPE  H10S17709   5.355   3.421   3.147 -0.5070  1.0454  1.1723
  159SAPE  C21117710   5.497   3.461   3.285  0.2641 -0.3080 -0.0688
  159SAPE  H11R17711   5.487   3.563   3.246 -0.0330 -0.0796  0.6081
  159SAPE  C21217712   5.524   3.440   3.410  0.3440 -0.1854  0.2311
  159SAPE  H12R17713   5.571   3.522   3.467  0.4663  0.3483 -0.6295
  159SAPE  C21317714   5.503   3.313   3.495  0.1045  0.0923  0.8756
  159SAPE  H13R17715   5.496   3.225   3.428 -3.3818  0.2784  0.8253
  159SAPE  H13S17716   5.418   3.309   3.566 -1.3070 -2.2871 -0.8282
  159SAPE  C21417717   5.632   3.294   3.574 -0.6012  0.5164  1.1646
  159SAPE  H14R17718   5.721   3.301   3.510  0.4959  1.9395  2.7789
  159SAPE  C21517719   5.651   3.252   3.702  0.0791  0.5112 -0.0244
  159SAPE  H15R17720   5.751   3.245   3.745 -0.5208 -0.7108  1.2435
  159SAPE  C21617721   5.543   3.212   3.796  0.1460 -0.1114 -0.4320
  159SAPE  H16R17722   5.566   3.104   3.808 -0.3715 -0.3269 -1.3085
  159SAPE  H16S17723   5.436   3.210   3.767 -0.4162 -0.5042  1.5529
  159SAPE  C21717724   5.554   3.291   3.931  0.5510  0.5236  0.2415
  159SAPE  H17R17725   5.479   3.243   3.998 -0.4733  1.3270 -0.3110
  159SAPE  H17S17726   5.515   3.392   3.908 -0.2246  0.5452  1.5636
  159SAPE  C21817727   5.688   3.285   4.002 -0.0462 -0.4821  0.7941
  159SAPE  H18R17728   5.763   3.336   3.937 -0.5842 -1.4552 -0.6521
  159SAPE  H18S17729   5.708   3.176   4.006  0.6957 -0.3826  0.0294
  159SAPE  C21917730   5.690   3.342   4.144  0.2954  0.8802 -0.1015
  159SAPE  H19R17731   5.663   3.450   4.134  0.3227  1.0029  1.0087
  159SAPE  H19S17732   5.794   3.339   4.182 -0.4733 -1.7666  2.0660
  159SAPE  C22017733   5.596   3.268   4.246  0.8082 -0.2455 -0.5532
  159SAPE  H20R17734   5.616   3.159   4.246  1.3071 -0.2092 -3.1650
  159SAPE  H20S17735   5.492   3.301   4.224  0.7822  0.5881  0.7059
  159SAPE  H20T17736   5.623   3.304   4.348 -0.0790  2.5265 -1.2061
  159SAPE   C3317737   6.027   3.828   2.562  0.3534  0.0112 -0.2469
  159SAPE   H3X17738   5.922   3.862   2.567  0.6779  0.8492  1.8588
  159SAPE   H3Y17739   6.070   3.905   2.494  0.1070 -0.0607 -0.4861
  159SAPE   C3417740   6.078   3.831   2.705  0.0581  0.2521  0.5081
  159SAPE   H4X17741   6.170   3.769   2.695 -0.2950 -0.0619 -1.0968
  159SAPE   H4Y17742   6.014   3.770   2.772 -0.2591  1.3474  1.2247
  159SAPE   C3517743   6.098   3.972   2.768 -0.0610  0.8157  0.7169
  159SAPE   H5X17744   6.002   4.027   2.779 -0.7543 -0.2156  0.0130
  159SAPE   H5Y17745   6.146   4.034   2.690  0.5576  0.5684  0.8978
  159SAPE   C3617746   6.182   3.975   2.899 -0.1185 -0.0276  0.6983
  159SAPE   H6X17747   6.225   4.077   2.901  0.2547 -0.1334 -0.6741
  159SAPE   H6Y17748   6.276   3.915   2.891  1.5753  1.8618  4.2771
  159SAPE   C3717749   6.101   3.944   3.021 -0.2241  0.2989  0.4361
  159SAPE   H7X17750   6.053   3.845   3.007  2.4681 -0.8175 -1.8930
  159SAPE   H7Y17751   6.023   4.023   3.019  0.3450  0.8575 -0.3892
  159SAPE   C3817752   6.188   3.947   3.153 -0.7313 -0.4211 -0.0699
  159SAPE   H8X17753   6.253   4.036   3.154  0.6324 -1.3362  3.0114
  159SAPE   H8Y17754   6.255   3.859   3.162 -0.9189 -0.4509  1.1157
  159SAPE   C3917755   6.096   3.970   3.274 -0.0485  0.1892  0.4652
  159SAPE   H9X17756   6.019   3.892   3.261  0.8600 -0.6657  0.0340
  159SAPE   H9Y17757   6.042   4.067   3.270 -0.4402 -0.0556 -0.3592
  159SAPE  C31017758   6.160   3.954   3.410 -0.5071 -0.3197  0.5867
  159SAPE  H10X17759   6.236   4.033   3.422 -0.1978 -0.5599  0.2111
  159SAPE  H10Y17760   6.204   3.852   3.407  0.4451  0.0967 -1.3371
  159SAPE  C31117761   6.058   3.968   3.526 -0.0521 -0.2747  0.8466
  159SAPE  H11X17762   5.978   3.892   3.516  1.8064 -2.0285 -1.9265
  159SAPE  H11Y17763   6.001   4.064   3.524 -0.7593 -0.6893  0.5283
  159SAPE  C31217764   6.136   3.944   3.648 -0.1659 -0.3161 -0.4508
  159SAPE  H12X17765   6.220   4.015   3.630  1.5260 -2.4712 -1.4737
  159SAPE  H12Y17766   6.182   3.844   3.634  0.8077 -0.0271  0.5234
  159SAPE  C31317767   6.060   3.935   3.778  0.0475  0.5839  0.3179
  159SAPE  H13X17768   5.971   3.870   3.769  0.0617  0.5086  0.7106
  159SAPE  H13Y17769   6.015   4.034   3.800  0.0017  0.3275  1.4246
  159SAPE  C31417770   6.159   3.893   3.889 -0.4718 -0.2298  0.0197
  159SAPE  H14X17771   6.248   3.955   3.865 -0.7653 -0.1671 -0.9207
  159SAPE  H14Y17772   6.168   3.783   3.876 -1.8938 -0.3957  0.2739
  159SAPE  C31517773   6.108   3.934   4.028  0.2444  0.0262 -0.3962
  159SAPE  H15X17774   6.004   3.899   4.043  0.7058 -1.7429 -1.1405
  159SAPE  H15Y17775   6.101   4.045   4.026  1.4330  0.1090 -1.6757
  159SAPE  C31617776   6.202   3.881   4.136  0.0938 -0.0850  0.1667
  159SAPE  H16X17777   6.310   3.889   4.112  0.0997 -3.7518 -1.6729
  159SAPE  H16Y17778   6.189   3.773   4.155  0.9295 -0.1297  0.5144
  159SAPE  C31717779   6.183   3.960   4.265  0.6046 -0.7083 -0.1613
  159SAPE  H17X17780   6.085   3.937   4.312  0.2613  0.3122 -0.3409
  159SAPE  H17Y17781   6.179   4.069   4.244 -1.5394 -0.2912  1.8992
  159SAPE  C31817782   6.289   3.945   4.380 -0.2585 -0.6573  0.2057
  159SAPE  H18X17783   6.386   3.995   4.360 -0.1485 -0.1203  1.9546
  159SAPE  H18Y17784   6.308   3.839   4.407 -0.2432 -0.5553  0.6031
  159SAPE  H18Z17785   6.257   3.996   4.474 -0.5735  0.2316 -0.3751
  160SAPE     N17786   5.515   4.922   1.817  0.8506 -0.0166  0.5073
  160SAPE   HN117787   5.489   4.950   1.721 -0.2266 -1.8149  0.2253
  160SAPE   HN217788   5.574   5.001   1.850  0.6375  0.8320 -1.0942
  160SAPE   HN317789   5.568   4.833   1.824  0.0031 -0.6596 -0.8186
  160SAPE   C1217790   5.388   4.904   1.897  0.3034 -0.3098  0.5775
  160SAPE  H12A17791   5.366   4.796   1.889  2.6236 -0.7150 -1.2349
  160SAPE  H12B17792   5.313   4.968   1.844  2.8200  2.9596  0.6679
  160SAPE   C1117793   5.412   4.960   2.038  0.9292  0.6040  0.5145
  160SAPE  H11A17794   5.480   4.891   2.092  2.0538  0.7345 -0.6827
  160SAPE  H11B17795   5.308   4.951   2.074  0.3408 -0.4873 -1.3320
  160SAPE     P17796   5.374   5.215   2.030 -0.4326  0.0561  0.1628
  160SAPE   O1317797   5.457   5.338   2.051 -0.9014 -0.3792 -0.5184
  160SAPE   O1417798   5.273   5.209   1.919 -0.2306 -0.0865  0.2348
  160SAPE   O1217799   5.470   5.092   2.028  0.3373  0.7112 -0.4377
  160SAPE   O1117800   5.303   5.184   2.157  0.0845 -0.1209 -0.0452
  160SAPE    C117801   5.230   5.263   2.248  0.4644  0.4723 -0.3052
  160SAPE    HA17802   5.287   5.350   2.287 -1.8314  3.6416 -3.3729
  160SAPE    HB17803   5.140   5.305   2.197  0.5233  0.3566 -0.5067
  160SAPE    C217804   5.178   5.176   2.364 -0.3690  0.6913 -0.5569
  160SAPE    HS17805   5.180   5.230   2.461 -1.2603 -0.1491 -0.0457
  160SAPE   O2117806   5.248   5.044   2.380 -0.0192  0.1222 -0.3169
  160SAPE   C2117807   5.374   5.057   2.420  0.0870  0.5516 -0.6455
  160SAPE   O2217808   5.428   5.160   2.445  0.1502  0.7029 -0.8311
  160SAPE   C2217809   5.430   4.915   2.435  1.1891 -0.3156  0.2203
  160SAPE   H2R17810   5.351   4.854   2.483 -0.2254  0.0798 -1.5138
  160SAPE   H2S17811   5.440   4.877   2.331 -1.0360  1.9164 -0.9191
  160SAPE    C317812   5.028   5.130   2.347 -0.1950 -0.9033  0.1940
  160SAPE    HX17813   5.035   5.061   2.260  1.5284  0.4121 -0.7734
  160SAPE    HY17814   4.980   5.226   2.318  0.0615 -0.5100  1.0503
  160SAPE   O3117815   4.974   5.074   2.468  1.1373  0.1141 -0.4014
  160SAPE   C3117816   4.850   5.028   2.448  0.0808 -0.5772 -0.0357
  160SAPE   O3217817   4.794   5.024   2.341  0.0986 -0.3276  0.3887
  160SAPE   C3217818   4.788   4.983   2.582 -0.0678  0.4192 -0.0124
  160SAPE   H2X17819   4.798   4.873   2.591  0.8959  0.4758 -0.2495
  160SAPE   H2Y17820   4.680   5.009   2.583  0.1653  1.6557 -1.7610
  160SAPE   C2317821   5.570   4.899   2.506 -0.0949 -0.0645  0.3427
  160SAPE   H3R17822   5.644   4.975   2.474 -1.2728  1.9432  2.1304
  160SAPE   H3S17823   5.612   4.800   2.479 -1.3241  0.0575 -2.4047
  160SAPE   C2417824   5.559   4.896   2.659 -0.6744  0.2876  0.0071
  160SAPE   H4R17825   5.486   4.813   2.672  0.9023 -0.6927  3.8692
  160SAPE   H4S17826   5.506   4.982   2.704 -1.8533  0.7211 -2.0645
  160SAPE   C2517827   5.690   4.873   2.729  0.0712  0.0239  0.4536
  160SAPE   H5R17828   5.764   4.840   2.655 -1.4404 -3.1312  0.1674
  160SAPE   C2617829   5.734   4.889   2.853  0.0946  0.0877 -0.4724
  160SAPE   H6R17830   5.837   4.858   2.876 -0.7808 -0.8967  2.5188
  160SAPE   C2717831   5.660   4.917   2.985 -0.0429 -1.0222  0.7622
  160SAPE   H7R17832   5.580   4.994   2.977  0.5104 -0.4621  0.4556
  160SAPE   H7S17833   5.735   4.964   3.053  0.5074 -0.8952  0.0837
  160SAPE   C2817834   5.616   4.791   3.054 -0.0763  0.5559  0.1695
  160SAPE   H8R17835   5.643   4.692   3.015 -0.6690 -0.5939  2.5192
  160SAPE   C2917836   5.562   4.791   3.173  0.1912  0.1208  0.6760
  160SAPE   H9R17837   5.518   4.698   3.212  1.1390 -0.4985  0.3103
  160SAPE  C21017838   5.544   4.914   3.252  0.0240 -0.0923 -0.3360
  160SAPE  H10R17839   5.450   4.909   3.312 -0.4596 -1.8429 -1.1770
  160SAPE  H10S17840   5.525   4.999   3.183  0.7245 -1.1012 -1.8154
  160SAPE  C21117841   5.669   4.940   3.334  0.3368  0.1330 -0.0438
  160SAPE  H11R17842   5.765   4.906   3.292  0.8231  1.3147  0.0837
  160SAPE  C21217843   5.671   4.986   3.459 -0.4051  0.2635  0.6795
  160SAPE  H12R17844   5.769   5.007   3.505 -0.5508  2.4679  0.1270
  160SAPE  C21317845   5.548   5.024   3.541 -0.1198  0.8440  1.0666
  160SAPE  H13R17846   5.504   4.924   3.559 -0.7864  0.4317 -2.2023
  160SAPE  H13S17847   5.465   5.080   3.493 -1.1118  2.0824  3.9675
  160SAPE  C21417848   5.583   5.110   3.660 -0.3513  0.8070 -0.4099
  160SAPE  H14R17849   5.563   5.217   3.646 -0.1328  1.0844  1.2029
  160SAPE  C21517850   5.647   5.070   3.774  0.0723  0.2639 -0.6273
  160SAPE  H15R17851   5.676   5.143   3.852  1.0870 -0.1763 -0.5754
  160SAPE  C21617852   5.685   4.926   3.801  0.4925  0.1824 -0.7358
  160SAPE  H16R17853   5.796   4.919   3.798  0.5782  1.4647 -2.4232
  160SAPE  H16S17854   5.647   4.861   3.719  1.2284 -0.1489 -0.8254
  160SAPE  C21717855   5.652   4.861   3.941  0.2729  0.7752  0.1210
  160SAPE  H17R17856   5.637   4.751   3.945 -3.0492  1.0513 -1.3373
  160SAPE  H17S17857   5.549   4.895   3.967 -0.3314 -0.6921 -0.2301
  160SAPE  C21817858   5.733   4.926   4.054  0.2359 -0.1496 -0.6164
  160SAPE  H18R17859   5.739   5.036   4.037  1.2074  0.1489  1.2741
  160SAPE  H18S17860   5.834   4.881   4.047  0.8920  1.2620 -0.5633
  160SAPE  C21917861   5.672   4.903   4.197  0.1250 -0.1308 -0.0105
  160SAPE  H19R17862   5.667   4.793   4.209  0.1469 -0.0247  1.0678
  160SAPE  H19S17863   5.567   4.938   4.204  0.0851 -0.6170  3.9326
  160SAPE  C22017864   5.758   4.970   4.302  0.0931  0.5173  0.0915
  160SAPE  H20R17865   5.780   5.077   4.280 -0.0282  0.2251 -1.5441
  160SAPE  H20S17866   5.859   4.923   4.302 -0.2259 -0.2245 -1.5440
  160SAPE  H20T17867   5.718   4.955   4.405  0.4375  0.1966  0.1812
  160SAPE   C3317868   4.839   5.051   2.707 -0.1086 -0.3893  0.6125
  160SAPE   H3X17869   4.807   5.157   2.715  0.1943 -0.3275  1.0319
  160SAPE   H3Y17870   4.950   5.047   2.705 -0.0946 -0.0593  0.7098
  160SAPE   C3417871   4.774   4.975   2.826  0.2352  0.2328  0.1116
  160SAPE   H4X17872   4.828   4.878   2.831 -2.4390 -1.2978  0.8791
  160SAPE   H4Y17873   4.667   4.953   2.805  0.6233  0.9671 -3.2909
  160SAPE   C3517874   4.763   5.059   2.954 -0.3983 -0.6100 -0.0037
  160SAPE   H5X17875   4.710   4.995   3.027  0.1005  0.2712  1.1640
  160SAPE   H5Y17876   4.698   5.145   2.928 -1.1158 -0.6681  1.5394
  160SAPE   C3617877   4.902   5.109   2.999 -0.0912 -0.4304 -0.1737
  160SAPE   H6X17878   4.936   5.193   2.934 -0.8323 -0.1514 -0.2026
  160SAPE   H6Y17879   4.967   5.019   2.989  0.0203 -0.3447 -0.2126
  160SAPE   C3717880   4.896   5.161   3.144  0.3761 -0.7304 -0.0505
  160SAPE   H7X17881   4.998   5.179   3.184  0.6876  0.9260 -1.4765
  160SAPE   H7Y17882   4.844   5.086   3.207 -0.8067  2.2546  2.8506
  160SAPE   C3817883   4.835   5.299   3.166 -0.0095  0.5070 -0.5560
  160SAPE   H8X17884   4.725   5.296   3.149 -0.1533 -1.7361  0.4053
  160SAPE   H8Y17885   4.881   5.370   3.094 -0.0680  2.0898  0.8902
  160SAPE   C3917886   4.857   5.351   3.311 -0.4292  0.3402  0.0010
  160SAPE   H9X17887   4.812   5.452   3.310 -3.0912 -0.6257  3.2475
  160SAPE   H9Y17888   4.963   5.353   3.343  0.4325  0.8006 -2.6849
  160SAPE  C31017889   4.768   5.269   3.415 -0.3838  0.9494 -0.5755
  160SAPE  H10X17890   4.807   5.168   3.441 -2.2895  0.6372  1.3368
  160SAPE  H10Y17891   4.673   5.259   3.359 -0.4808  0.5222 -0.3376
  160SAPE  C31117892   4.749   5.350   3.550 -0.0269  0.5020 -0.2223
  160SAPE  H11X17893   4.669   5.297   3.606  0.6605 -0.1861  0.1346
  160SAPE  H11Y17894   4.706   5.451   3.532 -1.0095  0.2718  0.6768
  160SAPE  C31217895   4.869   5.376   3.633 -0.2707 -0.2443 -0.8998
  160SAPE  H12X17896   4.957   5.411   3.575 -1.3601 -1.0762 -3.1652
  160SAPE  H12Y17897   4.890   5.277   3.680  0.6603  0.0768 -0.6135
  160SAPE  C31317898   4.824   5.467   3.747 -0.1419 -0.1674  0.2664
  160SAPE  H13X17899   4.739   5.423   3.803 -0.6775  0.6373  0.1069
  160SAPE  H13Y17900   4.806   5.570   3.708  2.7360  0.4460  0.2980
  160SAPE  C31417901   4.932   5.485   3.850 -1.0802  0.2430 -0.3922
  160SAPE  H14X17902   4.897   5.558   3.926  0.0165  0.0725  0.2981
  160SAPE  H14Y17903   5.026   5.523   3.805 -0.8464  0.1172 -0.0179
  160SAPE  C31517904   4.977   5.363   3.922  0.5155  0.2086 -0.6390
  160SAPE  H15X17905   5.078   5.374   3.968  0.3160  1.4637 -0.4604
  160SAPE  H15Y17906   4.987   5.282   3.847 -0.3267  2.1552 -3.0068
  160SAPE  C31617907   4.870   5.312   4.018 -0.2608 -0.5215  0.3803
  160SAPE  H16X17908   4.790   5.253   3.969  0.3694 -0.8349 -0.2867
  160SAPE  H16Y17909   4.820   5.397   4.069  1.5099  0.4338  0.5845
  160SAPE  C31717910   4.931   5.204   4.117  0.1943 -0.1248  0.7516
  160SAPE  H17X17911   4.979   5.267   4.195  1.6323  1.3834 -1.2416
  160SAPE  H17Y17912   5.013   5.156   4.061 -0.2777 -0.1068  0.0345
  160SAPE  C31817913   4.836   5.105   4.182  0.3838  0.4743  0.4672
  160SAPE  H18X17914   4.891   5.052   4.263 -0.4527  0.6382  1.1488
  160SAPE  H18Y17915   4.796   5.036   4.105  2.3581  1.3838 -1.4966
  160SAPE  H18Z17916   4.756   5.166   4.228  0.3444  1.1941 -0.5188
  161SAPE     N17917   2.811   0.139   1.651  0.4116 -0.1078 -0.3968
  161SAPE   HN117918   2.894   0.116   1.710  1.1641  2.1813 -0.4770
  161SAPE   HN217919   2.739   0.064   1.647 -0.5548  0.8026 -0.5542
  161SAPE   HN317920   2.847   0.145   1.554  0.2094  0.8826 -0.4183
  161SAPE   C1217921   2.752   0.274   1.693  0.9584 -0.5875  0.7285
  161SAPE  H12A17922   2.708   0.308   1.597 -0.1323 -0.6936  1.1770
  161SAPE  H12B17923   2.842   0.329   1.727  0.1823  2.3606 -1.5171
  161SAPE   C1117924   2.647   0.277   1.802  0.4586  0.2511 -0.6261
  161SAPE  H11A17925   2.554   0.229   1.766  1.1091 -0.0514 -1.9900
  161SAPE  H11B17926   2.620   0.384   1.816 -1.0499 -0.1897  0.0663
  161SAPE     P17927   2.605   0.160   2.035 -0.0105  0.0098 -0.0871
  161SAPE   O1317928   2.527   0.057   1.969 -0.3386  0.1465  0.1562
  161SAPE   O1417929   2.691   0.128   2.146 -0.2902 -0.6073  0.0920
  161SAPE   O1217930   2.702   0.223   1.925 -0.1204  0.1992 -0.1483
  161SAPE   O1117931   2.508   0.274   2.063 -0.2917 -0.4530  0.4430
  161SAPE    C117932   2.567   0.392   2.120 -0.3766  0.0092 -0.0019
  161SAPE    HA17933   2.674   0.409   2.099 -0.3410  1.3627  1.1566
  161SAPE    HB17934   2.542   0.485   2.064  0.5213  0.7627  0.8200
  161SAPE    C217935   2.519   0.436   2.256  0.8970  0.3297  0.2356
  161SAPE    HS17936   2.549   0.537   2.292 -0.4482  0.7626  0.2121
  161SAPE   O2117937   2.562   0.338   2.351 -0.4228  0.3090  0.1011
  161SAPE   C2117938   2.695   0.338   2.378  0.0595  0.6837  0.3475
  161SAPE   O2217939   2.775   0.419   2.342  0.4961  0.2509 -0.4084
  161SAPE   C2217940   2.718   0.212   2.458 -0.0295  0.4627 -0.6327
  161SAPE   H2R17941   2.654   0.201   2.549  1.5402  1.7224  0.6802
  161SAPE   H2S17942   2.685   0.128   2.392 -1.2491 -0.6403  1.2572
  161SAPE    C317943   2.363   0.445   2.265 -0.2368 -0.3091 -0.4323
  161SAPE    HX17944   2.316   0.359   2.213 -0.2029 -1.4910  1.3890
  161SAPE    HY17945   2.340   0.532   2.200  1.4101  0.3658 -0.1631
  161SAPE   O3117946   2.316   0.461   2.400  0.6282  0.1212 -0.2656
  161SAPE   C3117947   2.189   0.416   2.419 -0.6277 -0.0207 -0.2610
  161SAPE   O3217948   2.115   0.383   2.329 -0.2434 -0.0307  0.0608
  161SAPE   C3217949   2.148   0.420   2.564 -0.9527 -0.5419  0.0308
  161SAPE   H2X17950   2.101   0.336   2.620 -0.6591 -0.2395  0.7482
  161SAPE   H2Y17951   2.066   0.495   2.560 -0.2027  0.3539  0.9765
  161SAPE   C2317952   2.867   0.184   2.489 -0.0060  0.3997 -1.0455
  161SAPE   H3R17953   2.942   0.231   2.421  0.4107  0.0378 -0.8428
  161SAPE   H3S17954   2.884   0.074   2.492  0.3675  0.4637 -0.7554
  161SAPE   C2417955   2.907   0.250   2.626  0.4937 -0.2392  0.1766
  161SAPE   H4R17956   2.839   0.211   2.704  0.1439 -1.7519 -0.8445
  161SAPE   H4S17957   2.882   0.357   2.614  0.7742 -0.1329  0.5124
  161SAPE   C2517958   3.054   0.248   2.662  0.4557  0.3222 -0.0834
  161SAPE   H5R17959   3.110   0.292   2.578 -0.8733  0.9165 -0.6930
  161SAPE   C2617960   3.111   0.201   2.771 -0.8378 -0.2725 -0.4902
  161SAPE   H6R17961   3.218   0.212   2.792 -1.1706  0.3359  0.9986
  161SAPE   C2717962   3.042   0.119   2.874  0.2949 -0.1618  0.0219
  161SAPE   H7R17963   3.104   0.034   2.912  0.4591 -0.4711 -0.9201
  161SAPE   H7S17964   2.953   0.071   2.828 -0.5115  2.5014 -1.3721
  161SAPE   C2817965   2.983   0.205   2.988 -0.4611 -0.1830  1.0562
  161SAPE   H8R17966   2.890   0.261   2.969 -0.8828 -0.6137  1.8215
  161SAPE   C2917967   3.029   0.213   3.112  1.1372 -0.1970 -0.3577
  161SAPE   H9R17968   2.968   0.272   3.183  1.6378 -0.0666 -0.0303
  161SAPE  C21017969   3.148   0.152   3.177 -0.2874  0.3238 -0.3245
  161SAPE  H10R17970   3.226   0.228   3.202 -1.8112  1.2897  1.7774
  161SAPE  H10S17971   3.211   0.083   3.117 -0.1689  1.5500 -1.6887
  161SAPE  C21117972   3.096   0.086   3.298  0.1197  0.7130  0.1648
  161SAPE  H11R17973   3.043  -0.008   3.278  0.9476  0.8540 -3.3371
  161SAPE  C21217974   3.115   0.125   3.426  0.1804 -0.2825 -0.5165
  161SAPE  H12R17975   3.080   0.064   3.511 -1.5952 -2.9543 -2.9779
  161SAPE  C21317976   3.187   0.250   3.476  0.6694 -0.7242  0.3151
  161SAPE  H13R17977   3.132   0.283   3.567 -0.0994  3.4371 -1.4348
  161SAPE  H13S17978   3.178   0.336   3.406  2.2711 -0.9421 -0.1954
  161SAPE  C21417979   3.333   0.229   3.509 -0.1687 -0.0747 -0.4981
  161SAPE  H14R17980   3.381   0.162   3.437  0.8566 -3.1347  2.7305
  161SAPE  C21517981   3.403   0.279   3.610  0.3893 -0.0424 -0.3170
  161SAPE  H15R17982   3.510   0.256   3.623  1.0106  3.3646  1.8896
  161SAPE  C21617983   3.344   0.362   3.722 -0.3053  0.1145  0.0917
  161SAPE  H16R17984   3.295   0.457   3.693  0.2529 -0.1123 -1.7160
  161SAPE  H16S17985   3.423   0.413   3.781 -1.0754  0.3858  0.9185
  161SAPE  C21717986   3.258   0.285   3.822  0.7618  0.1107  0.2682
  161SAPE  H17R17987   3.168   0.247   3.768 -0.3883  2.6373  0.2527
  161SAPE  H17S17988   3.219   0.352   3.902  0.3435  0.6415 -0.3731
  161SAPE  C21817989   3.326   0.169   3.894  0.8688 -0.0472  0.6149
  161SAPE  H18R17990   3.356   0.097   3.815  1.0444  0.1078  0.5388
  161SAPE  H18S17991   3.253   0.118   3.960  0.3723  1.0233  0.9316
  161SAPE  C21917992   3.440   0.215   3.990 -0.3619  0.0797 -0.2452
  161SAPE  H19R17993   3.387   0.258   4.077  1.0086  0.8516  0.2254
  161SAPE  H19S17994   3.507   0.292   3.947 -0.5972  1.3998  1.6388
  161SAPE  C22017995   3.521   0.093   4.037 -0.0945  0.4419 -0.7093
  161SAPE  H20R17996   3.596   0.119   4.115 -0.9785 -1.6174  0.9276
  161SAPE  H20S17997   3.561   0.042   3.946  2.3970  2.9125 -1.1243
  161SAPE  H20T17998   3.466   0.020   4.100  1.2609  1.3308  1.6072
  161SAPE   C3317999   2.269   0.465   2.660  0.4854 -0.2833  0.3395
  161SAPE   H3X18000   2.298   0.563   2.617  0.3150 -0.6738 -0.6857
  161SAPE   H3Y18001   2.344   0.383   2.652 -0.3800 -1.5146  3.2242
  161SAPE   C3418002   2.214   0.474   2.806  0.3269 -0.2095  0.6431
  161SAPE   H4X18003   2.172   0.373   2.827 -0.2675 -0.2860 -0.8653
  161SAPE   H4Y18004   2.129   0.544   2.810 -0.1149 -0.7120  0.1568
  161SAPE   C3518005   2.314   0.519   2.906 -0.3432 -0.0987  0.0065
  161SAPE   H5X18006   2.350   0.620   2.875 -0.2712 -0.3723 -0.8305
  161SAPE   H5Y18007   2.401   0.451   2.902  0.8979  1.4598 -1.4068
  161SAPE   C3618008   2.260   0.530   3.048 -0.3329  0.8599  0.2993
  161SAPE   H6X18009   2.233   0.427   3.080 -1.6664  0.8819 -0.6773
  161SAPE   H6Y18010   2.162   0.581   3.041 -1.6355 -1.5263 -0.0520
  161SAPE   C3718011   2.340   0.608   3.145 -0.8406  0.5363 -0.4461
  161SAPE   H7X18012   2.341   0.719   3.142  2.2860  0.6788  1.3616
  161SAPE   H7Y18013   2.445   0.580   3.120 -0.2528  1.6070  0.7421
  161SAPE   C3818014   2.318   0.574   3.293  0.0735  0.6600  0.0932
  161SAPE   H8X18015   2.378   0.634   3.364  1.7624 -0.1677 -0.5900
  161SAPE   H8Y18016   2.339   0.465   3.303  0.2161  0.6110 -0.6896
  161SAPE   C3918017   2.165   0.598   3.324  0.3694 -0.2485 -0.2804
  161SAPE   H9X18018   2.097   0.539   3.259  1.1029 -0.9110 -0.4685
  161SAPE   H9Y18019   2.140   0.705   3.312  1.2531 -0.1213 -1.1738
  161SAPE  C31018020   2.123   0.558   3.467 -0.0195  0.6392 -0.3448
  161SAPE  H10X18021   2.185   0.611   3.542  0.9590 -0.0543 -0.6485
  161SAPE  H10Y18022   2.131   0.447   3.477  0.6117  0.5209 -1.9556
  161SAPE  C31118023   1.986   0.596   3.504 -0.3051  0.2181 -0.2180
  161SAPE  H11X18024   1.920   0.546   3.431  0.2445 -0.2055 -0.4356
  161SAPE  H11Y18025   1.967   0.706   3.503 -0.8045  0.1732  1.5728
  161SAPE  C31218026   1.956   0.539   3.641 -0.0779  0.8587 -0.0177
  161SAPE  H12X18027   2.016   0.587   3.721  0.2974 -1.4471  1.1761
  161SAPE  H12Y18028   1.979   0.430   3.635 -1.0464  0.6951 -1.2002
  161SAPE  C31318029   1.802   0.550   3.676  0.3595 -0.3263  0.5695
  161SAPE  H13X18030   1.735   0.527   3.590 -2.5581  5.2407  0.9165
  161SAPE  H13Y18031   1.779   0.653   3.711  0.3380  0.1784 -0.8977
  161SAPE  C31418032   1.761   0.462   3.787  0.2756  0.1047  0.0090
  161SAPE  H14X18033   1.814   0.507   3.874  1.9459  0.7859 -1.3060
  161SAPE  H14Y18034   1.793   0.356   3.790  0.4542  0.1771  0.9240
  161SAPE  C31518035   1.610   0.460   3.811 -0.3708  0.3212  0.3297
  161SAPE  H15X18036   1.558   0.457   3.713  0.1806  0.9791  0.0072
  161SAPE  H15Y18037   1.595   0.555   3.866  1.1236 -0.2158  1.7488
  161SAPE  C31618038   1.547   0.350   3.898  0.1191  0.6928 -0.5447
  161SAPE  H16X18039   1.560   0.253   3.844 -0.6598 -0.5572  1.3986
  161SAPE  H16Y18040   1.437   0.351   3.910  0.2919 -2.7040  4.3390
  161SAPE  C31718041   1.611   0.330   4.037  0.3314 -0.3821  0.0839
  161SAPE  H17X18042   1.639   0.433   4.069  1.6424 -0.3200 -1.1532
  161SAPE  H17Y18043   1.707   0.274   4.035  1.1094  0.8814 -1.8698
  161SAPE  C31818044   1.518   0.280   4.155 -0.4601 -0.1118  0.2904
  161SAPE  H18X18045   1.420   0.332   4.158 -1.2527 -1.6047  2.6625
  161SAPE  H18Y18046   1.566   0.277   4.255  0.9557  2.6056 -0.2004
  161SAPE  H18Z18047   1.470   0.187   4.119  1.0640 -0.7103 -0.3224
  162SAPE     N18048   3.196   2.904   1.652  0.1159 -0.5051  0.3010
  162SAPE   HN118049   3.174   2.802   1.649 -1.3250 -0.2872 -4.1038
  162SAPE   HN218050   3.110   2.945   1.609 -1.2053 -2.1491  1.2617
  162SAPE   HN318051   3.281   2.930   1.599  0.4606 -1.0968  0.5505
  162SAPE   C1218052   3.198   2.970   1.790 -1.0697 -0.0649  0.8496
  162SAPE  H12A18053   3.229   3.075   1.776  1.2514 -0.7772  0.1996
  162SAPE  H12B18054   3.293   2.932   1.834  0.2523  0.6488 -1.2382
  162SAPE   C1118055   3.086   2.936   1.883 -0.0706 -0.4225  0.2088
  162SAPE  H11A18056   3.012   3.018   1.874 -0.8160 -1.0250  0.7840
  162SAPE  H11B18057   3.126   2.947   1.986  1.3398  0.4149 -0.3967
  162SAPE     P18058   2.924   2.748   1.972 -0.2061  0.2485  0.2378
  162SAPE   O1318059   2.788   2.785   1.932  0.7130 -0.6635  0.3059
  162SAPE   O1418060   2.947   2.599   1.989  0.6363 -0.1301 -0.2973
  162SAPE   O1218061   3.036   2.800   1.860  0.2954 -1.0609 -0.2282
  162SAPE   O1118062   2.977   2.824   2.103 -0.1050  0.7534  0.1419
  162SAPE    C118063   3.071   2.740   2.182 -0.1020 -0.6621  0.6269
  162SAPE    HA18064   3.013   2.656   2.225 -0.1548 -0.4538  0.9651
  162SAPE    HB18065   3.155   2.699   2.122 -0.2868  0.3965 -0.3868
  162SAPE    C218066   3.129   2.825   2.303 -0.7432 -0.3898 -0.6223
  162SAPE    HS18067   3.035   2.846   2.359 -0.9702  0.7376 -1.3947
  162SAPE   O2118068   3.203   2.950   2.263  0.2706 -0.3784 -0.4791
  162SAPE   C2118069   3.198   3.044   2.364 -0.5403  0.2943  0.0206
  162SAPE   O2218070   3.112   3.042   2.451  0.3482 -0.5967  0.1387
  162SAPE   C2218071   3.302   3.150   2.322 -0.1858 -0.0922 -0.3832
  162SAPE   H2R18072   3.392   3.108   2.272  0.3984  0.7295 -0.0525
  162SAPE   H2S18073   3.259   3.219   2.246  3.0044  1.8261 -0.6529
  162SAPE    C318074   3.217   2.730   2.400 -0.2201 -0.2959 -0.0859
  162SAPE    HX18075   3.301   2.682   2.345  0.5298 -0.4760  1.1724
  162SAPE    HY18076   3.154   2.643   2.428  0.7206 -0.9954 -0.1274
  162SAPE   O3118077   3.268   2.802   2.524 -0.2363  0.3696  0.6546
  162SAPE   C3118078   3.188   2.804   2.625 -0.2229  0.0784 -0.3120
  162SAPE   O3218079   3.079   2.747   2.631  0.0854 -0.0488 -0.1466
  162SAPE   C3218080   3.248   2.880   2.743  0.6868  0.6450 -0.1568
  162SAPE   H2X18081   3.249   2.986   2.711 -1.5659  0.0112 -2.6324
  162SAPE   H2Y18082   3.356   2.854   2.754  1.1054  2.3563  0.1441
  162SAPE   C2318083   3.357   3.250   2.430 -0.6260 -0.0531  0.5140
  162SAPE   H3R18084   3.265   3.297   2.471 -0.3110  1.0185  0.0283
  162SAPE   H3S18085   3.418   3.328   2.379  0.9788 -1.3461  0.3403
  162SAPE   C2418086   3.470   3.183   2.508 -0.5350 -0.1753 -0.1359
  162SAPE   H4R18087   3.559   3.162   2.446 -0.2485  0.9428 -0.1236
  162SAPE   H4S18088   3.424   3.090   2.548 -0.2370 -0.1197  0.3399
  162SAPE   C2518089   3.497   3.276   2.622 -0.2636  0.6184 -0.6558
  162SAPE   H5R18090   3.499   3.381   2.588 -0.2308  0.9915  0.4315
  162SAPE   C2618091   3.502   3.249   2.751 -0.4159  0.1436  0.7035
  162SAPE   H6R18092   3.501   3.333   2.822  1.5116  0.8505 -0.0331
  162SAPE   C2718093   3.509   3.114   2.806 -0.2892  0.3823 -0.4697
  162SAPE   H7R18094   3.502   3.024   2.741 -0.6092 -1.0260  1.3992
  162SAPE   H7S18095   3.432   3.102   2.886  0.1527 -0.6167 -0.1717
  162SAPE   C2818096   3.640   3.098   2.887  0.0278  0.7892 -0.0161
  162SAPE   H8R18097   3.723   3.055   2.829 -0.4779 -0.0172 -0.1718
  162SAPE   C2918098   3.659   3.130   3.016  0.1476 -0.1606 -0.3705
  162SAPE   H9R18099   3.758   3.104   3.057  0.6221  0.2144 -1.2412
  162SAPE  C21018100   3.563   3.194   3.124  0.2068 -0.0139  1.0975
  162SAPE  H10R18101   3.465   3.219   3.078 -1.7441 -1.1733  4.2492
  162SAPE  H10S18102   3.605   3.294   3.146 -3.5513  1.3209  3.0911
  162SAPE  C21118103   3.550   3.104   3.232  0.0735  0.1077  0.0081
  162SAPE  H11R18104   3.551   2.996   3.211 -2.1365  0.3078 -1.4251
  162SAPE  C21218105   3.533   3.141   3.363 -0.0164 -0.4239  0.3727
  162SAPE  H12R18106   3.523   3.059   3.435 -1.7315  2.1029  3.2369
  162SAPE  C21318107   3.522   3.279   3.414  0.2415  0.1722  0.1208
  162SAPE  H13R18108   3.499   3.341   3.324  0.4157 -0.4795 -0.3862
  162SAPE  H13S18109   3.623   3.312   3.449  0.2833 -1.2601  1.4451
  162SAPE  C21418110   3.421   3.304   3.518  0.3586 -0.0231 -0.1116
  162SAPE  H14R18111   3.349   3.382   3.489  0.7378 -0.0775 -1.2469
  162SAPE  C21518112   3.407   3.264   3.646 -0.3133  0.4430 -0.4089
  162SAPE  H15R18113   3.320   3.287   3.709 -0.2679 -1.0690  0.2427
  162SAPE  C21618114   3.481   3.151   3.722 -0.9878 -0.3388 -1.0676
  162SAPE  H16R18115   3.591   3.168   3.713 -1.1808  1.3150 -0.4854
  162SAPE  H16S18116   3.451   3.054   3.677 -1.1360 -0.9784  0.3373
  162SAPE  C21718117   3.442   3.141   3.873 -0.1634  0.1190 -0.3507
  162SAPE  H17R18118   3.498   3.057   3.921  1.4459  2.3894  2.0552
  162SAPE  H17S18119   3.334   3.128   3.892 -0.3340  0.4160 -1.0779
  162SAPE  C21818120   3.478   3.273   3.954 -0.2043 -0.5659  0.1180
  162SAPE  H18R18121   3.410   3.358   3.935 -0.7724 -1.2139 -0.7985
  162SAPE  H18S18122   3.578   3.297   3.911 -0.3875 -1.2499 -0.7212
  162SAPE  C21918123   3.502   3.249   4.107  0.1259  0.2406 -0.4705
  162SAPE  H19R18124   3.569   3.160   4.114 -0.3810 -0.5282 -3.8451
  162SAPE  H19S18125   3.409   3.214   4.156  0.3960  2.3797  1.7490
  162SAPE  C22018126   3.540   3.381   4.178 -0.0651 -0.4151  0.6421
  162SAPE  H20R18127   3.628   3.431   4.132  0.1743 -0.7803  0.6924
  162SAPE  H20S18128   3.560   3.351   4.283 -0.6024  0.0577  0.8810
  162SAPE  H20T18129   3.457   3.454   4.177  0.9221  0.7635  1.8891
  162SAPE   C3318130   3.174   2.836   2.876  0.1080  0.9670 -0.4531
  162SAPE   H3X18131   3.166   2.725   2.877 -0.3128  0.9611 -1.9906
  162SAPE   H3Y18132   3.075   2.885   2.892  0.4743  1.2899  1.0300
  162SAPE   C3418133   3.251   2.876   3.004 -0.3279  0.2786  0.2520
  162SAPE   H4X18134   3.250   2.986   3.016 -0.2077  0.2299  0.7583
  162SAPE   H4Y18135   3.356   2.845   2.986 -1.1118 -1.4441 -1.7925
  162SAPE   C3518136   3.196   2.812   3.138 -0.3968 -0.1711  0.1765
  162SAPE   H5X18137   3.194   2.702   3.129  0.1518 -0.3811  2.1221
  162SAPE   H5Y18138   3.089   2.840   3.150 -0.9486 -1.4508 -1.4212
  162SAPE   C3618139   3.274   2.854   3.266  0.0262 -0.3558  0.5477
  162SAPE   H6X18140   3.302   2.959   3.242  2.1587 -0.8372  0.6720
  162SAPE   H6Y18141   3.365   2.790   3.269  0.5127  0.2356 -0.7823
  162SAPE   C3718142   3.206   2.841   3.402  0.0120  0.7319  0.1997
  162SAPE   H7X18143   3.288   2.809   3.470  1.5479 -0.2994 -1.9923
  162SAPE   H7Y18144   3.121   2.770   3.398 -0.4130  1.2853 -0.8183
  162SAPE   C3818145   3.149   2.970   3.457 -0.2537 -0.2829 -0.3009
  162SAPE   H8X18146   3.054   2.991   3.403 -0.5158 -0.4338  0.0970
  162SAPE   H8Y18147   3.224   3.047   3.428  0.1908 -0.6640 -0.1864
  162SAPE   C3918148   3.131   2.972   3.605 -0.0392  0.4309  0.7440
  162SAPE   H9X18149   3.232   2.966   3.651 -0.1567  0.9042  1.0763
  162SAPE   H9Y18150   3.074   2.880   3.627 -2.0777  1.2629 -0.7392
  162SAPE  C31018151   3.054   3.094   3.649 -0.2859 -0.1229 -0.3039
  162SAPE  H10X18152   3.088   3.183   3.593 -0.0429  0.6607  1.0407
  162SAPE  H10Y18153   3.064   3.139   3.750  1.1318  2.7240 -1.6139
  162SAPE  C31118154   2.901   3.060   3.635 -0.3790 -0.0855 -0.3055
  162SAPE  H11X18155   2.878   2.971   3.699 -0.2248 -1.5101 -2.1406
  162SAPE  H11Y18156   2.900   3.032   3.528  1.0445 -0.9655 -0.1064
  162SAPE  C31218157   2.817   3.189   3.640  0.3553  0.1125  0.3188
  162SAPE  H12X18158   2.720   3.174   3.589  0.3953 -1.0873  0.5833
  162SAPE  H12Y18159   2.868   3.272   3.586  0.4613  0.2264  0.5933
  162SAPE  C31318160   2.782   3.238   3.780 -0.0746  0.1541  0.6866
  162SAPE  H13X18161   2.691   3.302   3.774  1.6205  2.8465  1.8232
  162SAPE  H13Y18162   2.872   3.294   3.811  1.9879 -0.3817 -3.6505
  162SAPE  C31418163   2.759   3.127   3.893  0.2702 -0.4409  0.2121
  162SAPE  H14X18164   2.856   3.083   3.923  2.7942  3.0094 -2.1058
  162SAPE  H14Y18165   2.688   3.049   3.859 -1.1326  0.8086  0.1634
  162SAPE  C31518166   2.703   3.193   4.017 -0.5908 -0.0359 -0.8963
  162SAPE  H15X18167   2.626   3.265   3.980  1.1071  2.9314  0.8827
  162SAPE  H15Y18168   2.780   3.254   4.069 -0.7381 -2.4851  2.4510
  162SAPE  C31618169   2.642   3.087   4.115  0.0620  0.2840 -0.2020
  162SAPE  H16X18170   2.641   2.989   4.062 -2.2641  0.4919 -0.6580
  162SAPE  H16Y18171   2.535   3.117   4.122 -0.1948 -0.4286 -0.8804
  162SAPE  C31718172   2.699   3.076   4.260 -0.4317  0.5815  0.2802
  162SAPE  H17X18173   2.643   2.988   4.298  1.5996 -0.0175  2.1584
  162SAPE  H17Y18174   2.679   3.163   4.326 -0.9320 -0.7613  1.9894
  162SAPE  C31818175   2.845   3.036   4.260 -0.0856  0.4749 -0.4784
  162SAPE  H18X18176   2.865   2.967   4.175 -0.7308  0.3064 -0.4954
  162SAPE  H18Y18177   2.868   2.984   4.355  1.4565  1.0044 -0.5213
  162SAPE  H18Z18178   2.916   3.122   4.262 -1.6301  1.7947 -0.5088
  163SAPE     N18179   1.572   5.568   1.998  0.0965 -0.1197  0.5529
  163SAPE   HN118180   1.493   5.635   1.987  0.4561  0.0928 -0.9241
  163SAPE   HN218181   1.638   5.577   1.918 -0.3898 -0.9397  0.0347
  163SAPE   HN318182   1.530   5.474   1.982 -2.2307  1.2587 -2.5547
  163SAPE   C1218183   1.637   5.585   2.129 -0.1623  0.1758  0.1680
  163SAPE  H12A18184   1.724   5.517   2.138  0.0618  0.6188  1.6759
  163SAPE  H12B18185   1.562   5.557   2.207  0.5704  0.9881  1.1848
  163SAPE   C1118186   1.673   5.729   2.155 -0.1203 -0.0767 -0.1626
  163SAPE  H11A18187   1.731   5.719   2.249  2.8873  0.1313 -1.8709
  163SAPE  H11B18188   1.584   5.793   2.173 -1.3589 -1.7079 -0.1976
  163SAPE     P18189   1.763   5.940   2.032  0.2759 -0.0374 -0.1726
  163SAPE   O1318190   1.899   5.989   1.997  0.1829 -0.3626  0.3726
  163SAPE   O1418191   1.655   5.965   1.930 -0.1412  0.0072 -1.1352
  163SAPE   O1218192   1.766   5.785   2.062  0.4057  0.3335  1.2466
  163SAPE   O1118193   1.733   6.007   2.172 -0.4861 -0.4409 -0.0926
  163SAPE    C118194   1.826   6.066   2.259 -0.9870  0.0029  0.0649
  163SAPE    HA18195   1.932   6.050   2.229 -0.8960  0.4888  0.1249
  163SAPE    HB18196   1.814   6.176   2.246 -0.4889 -0.0386 -0.8105
  163SAPE    C218197   1.808   6.024   2.406 -0.0560  0.6355 -0.3935
  163SAPE    HS18198   1.819   5.914   2.411  1.6788  0.7501 -1.2435
  163SAPE   O2118199   1.683   6.080   2.450  0.3297  0.1302  0.0175
  163SAPE   C2118200   1.619   6.017   2.538 -0.3285  0.2197  0.2426
  163SAPE   O2218201   1.647   5.910   2.593  0.2366  0.1794  0.0655
  163SAPE   C2218202   1.486   6.085   2.575  0.5013 -0.5551  0.1842
  163SAPE   H2R18203   1.512   6.175   2.635 -2.9057 -0.6979  2.1637
  163SAPE   H2S18204   1.432   6.118   2.484  1.1599 -1.0143 -0.3791
  163SAPE    C318205   1.920   6.062   2.497 -0.0162  0.0561 -0.3451
  163SAPE    HX18206   1.935   6.170   2.477 -0.3266  0.1374 -0.1477
  163SAPE    HY18207   2.015   6.015   2.464 -0.0470 -1.8377  1.9863
  163SAPE   O3118208   1.901   6.049   2.637 -0.4500 -0.0603  0.5901
  163SAPE   C3118209   1.916   5.922   2.691  0.0755 -0.7864 -0.3576
  163SAPE   O3218210   1.982   5.836   2.640 -0.1330 -0.6191  0.6118
  163SAPE   C3218211   1.843   5.921   2.830 -0.9065  0.5540 -0.1315
  163SAPE   H2X18212   1.759   5.848   2.826 -0.8012  0.3612  0.8592
  163SAPE   H2Y18213   1.805   6.025   2.842 -1.4330  0.0784  3.1917
  163SAPE   C2318214   1.383   6.005   2.671  0.8931  0.1035 -0.0889
  163SAPE   H3R18215   1.353   5.905   2.634  1.8638 -0.0783 -0.4106
  163SAPE   H3S18216   1.292   6.069   2.674  0.2315 -0.8404  0.6637
  163SAPE   C2418217   1.430   5.984   2.820  0.7086  0.2507  0.6157
  163SAPE   H4R18218   1.460   6.087   2.849 -1.6955  1.4750 -0.9984
  163SAPE   H4S18219   1.515   5.912   2.820  1.0055  0.5091 -1.9397
  163SAPE   C2518220   1.300   5.943   2.900  0.0204  0.1077  0.2344
  163SAPE   H5R18221   1.207   5.997   2.875 -1.1487 -1.1118  1.7675
  163SAPE   C2618222   1.282   5.859   3.002  0.0919 -0.3299  0.3854
  163SAPE   H6R18223   1.182   5.856   3.048  0.6148  0.0877  1.6021
  163SAPE   C2718224   1.372   5.756   3.067 -0.2945 -0.2364  0.0436
  163SAPE   H7R18225   1.440   5.718   2.988 -1.6744 -1.6902 -0.5018
  163SAPE   H7S18226   1.319   5.665   3.103  0.8586 -0.8812  0.1514
  163SAPE   C2818227   1.448   5.822   3.178 -0.9402  0.2919 -0.3053
  163SAPE   H8R18228   1.529   5.886   3.140 -1.1721 -0.0437 -1.4132
  163SAPE   C2918229   1.461   5.784   3.306 -0.1330 -0.2320  0.1333
  163SAPE   H9R18230   1.523   5.845   3.374  1.9887 -0.4679 -1.4952
  163SAPE  C21018231   1.380   5.677   3.384  0.9583 -0.8875 -0.6799
  163SAPE  H10R18232   1.447   5.616   3.449  0.2556 -0.0028  0.9535
  163SAPE  H10S18233   1.314   5.612   3.323  2.2176 -3.2052  0.2825
  163SAPE  C21118234   1.284   5.762   3.462  0.3697 -0.6455 -0.6393
  163SAPE  H11R18235   1.248   5.856   3.419 -0.5155 -1.0210 -0.7429
  163SAPE  C21218236   1.237   5.735   3.588 -0.7923  0.5987  0.5644
  163SAPE  H12R18237   1.180   5.812   3.641  1.0686  1.8752  0.8205
  163SAPE  C21318238   1.274   5.608   3.668 -0.0158 -0.9651  0.2695
  163SAPE  H13R18239   1.313   5.533   3.595  0.2605  0.2521 -0.8749
  163SAPE  H13S18240   1.182   5.558   3.703 -1.6716  0.8071 -1.3378
  163SAPE  C21418241   1.383   5.643   3.771  1.1751 -0.2685 -0.5336
  163SAPE  H14R18242   1.472   5.687   3.722  0.3898  0.2964 -1.4904
  163SAPE  C21518243   1.379   5.658   3.902 -0.5057 -0.7148 -0.8230
  163SAPE  H15R18244   1.471   5.694   3.949 -2.6142  1.1136  2.3408
  163SAPE  C21618245   1.261   5.645   3.995  0.3352  0.4954 -0.5898
  163SAPE  H16R18246   1.212   5.548   3.970 -0.1144  0.7297 -0.6352
  163SAPE  H16S18247   1.190   5.728   3.973 -0.1667  0.1108 -0.4418
  163SAPE  C21718248   1.310   5.650   4.145  0.1843 -0.0764  0.2984
  163SAPE  H17R18249   1.219   5.675   4.203 -0.9263 -1.1683 -0.9327
  163SAPE  H17S18250   1.378   5.737   4.151 -0.4196  0.3982  0.2886
  163SAPE  C21818251   1.393   5.525   4.190  0.1563  0.1141  1.0327
  163SAPE  H18R18252   1.466   5.492   4.113  0.0505 -0.7642  1.2995
  163SAPE  H18S18253   1.331   5.432   4.194  0.4382 -0.0959  0.6444
  163SAPE  C21918254   1.477   5.541   4.316 -0.3760  0.5825  0.1121
  163SAPE  H19R18255   1.404   5.555   4.399  1.0039  0.6010  1.3646
  163SAPE  H19S18256   1.533   5.637   4.313 -1.4420  1.2371  0.2837
  163SAPE  C22018257   1.558   5.413   4.363 -0.2749  0.0425  0.3832
  163SAPE  H20R18258   1.492   5.334   4.404 -1.0560 -0.5722 -1.9234
  163SAPE  H20S18259   1.636   5.427   4.441  1.1048  0.5292 -1.0161
  163SAPE  H20T18260   1.609   5.373   4.273  0.2673 -0.3424  0.8506
  163SAPE   C3318261   1.933   5.886   2.956 -0.2567 -0.0904  0.2909
  163SAPE   H3X18262   2.005   5.969   2.965 -1.0725  0.7497 -0.6336
  163SAPE   H3Y18263   1.979   5.787   2.933 -1.3969 -0.2530 -1.5341
  163SAPE   C3418264   1.843   5.855   3.077 -0.8514  0.3119  0.3337
  163SAPE   H4X18265   1.771   5.771   3.063 -0.5179 -0.0611  0.8201
  163SAPE   H4Y18266   1.781   5.944   3.101 -0.0766  0.9435 -0.0049
  163SAPE   C3518267   1.914   5.826   3.211 -0.2449 -0.4555  0.2419
  163SAPE   H5X18268   1.980   5.911   3.241  1.7553 -1.6332 -0.5910
  163SAPE   H5Y18269   1.972   5.731   3.210 -1.3994 -1.2133  1.5844
  163SAPE   C3618270   1.815   5.818   3.327  0.2514  0.5350  0.3146
  163SAPE   H6X18271   1.753   5.732   3.293  0.8753 -1.6471  4.1482
  163SAPE   H6Y18272   1.748   5.907   3.322 -0.2523  0.1171 -0.6353
  163SAPE   C3718273   1.879   5.794   3.460 -0.3631  0.5675 -0.0662
  163SAPE   H7X18274   1.965   5.864   3.464 -0.0583  0.1564  1.3764
  163SAPE   H7Y18275   1.919   5.692   3.479  0.9142  1.1011  0.1705
  163SAPE   C3818276   1.790   5.818   3.579 -0.4046 -0.0202  0.5468
  163SAPE   H8X18277   1.698   5.756   3.580 -1.2459  1.2006  1.0149
  163SAPE   H8Y18278   1.753   5.922   3.564  1.3877  0.3407 -2.0626
  163SAPE   C3918279   1.865   5.804   3.708 -0.3174  0.0433  0.3855
  163SAPE   H9X18280   1.924   5.898   3.721  1.7815 -0.9523 -1.4223
  163SAPE   H9Y18281   1.934   5.717   3.708 -2.3512 -1.6403  0.7599
  163SAPE  C31018282   1.771   5.785   3.824 -0.2933  0.4039 -0.1342
  163SAPE  H10X18283   1.707   5.694   3.820  0.1962  0.0008  0.9234
  163SAPE  H10Y18284   1.704   5.874   3.832 -0.1293  0.5391 -0.2528
  163SAPE  C31118285   1.843   5.767   3.961 -0.1854  0.1214 -0.2037
  163SAPE  H11X18286   1.910   5.855   3.968 -0.6464  0.5333 -0.8431
  163SAPE  H11Y18287   1.907   5.677   3.949 -0.6444 -0.3349  0.6988
  163SAPE  C31218288   1.741   5.768   4.072 -0.1001  0.3760 -0.2049
  163SAPE  H12X18289   1.706   5.665   4.091  1.6906 -0.6099 -1.8718
  163SAPE  H12Y18290   1.651   5.830   4.053 -0.8198 -1.0123 -1.4523
  163SAPE  C31318291   1.797   5.825   4.201 -0.2982 -0.2527  0.0686
  163SAPE  H13X18292   1.711   5.852   4.268  0.2503  2.0601 -0.0666
  163SAPE  H13Y18293   1.854   5.920   4.191 -2.2127  1.1476  1.5651
  163SAPE  C31418294   1.887   5.727   4.280 -0.7246 -0.1898  0.6396
  163SAPE  H14X18295   1.968   5.681   4.221 -1.3605 -1.4034  0.6792
  163SAPE  H14Y18296   1.816   5.643   4.297 -0.7256 -0.5990 -1.1529
  163SAPE  C31518297   1.947   5.788   4.407  0.5520 -0.0698 -0.4369
  163SAPE  H15X18298   1.993   5.703   4.463 -0.7646 -2.0910 -2.2548
  163SAPE  H15Y18299   1.867   5.832   4.471  1.2918  0.6642  0.0072
  163SAPE  C31618300   2.035   5.912   4.381 -0.4126  0.8545 -0.0669
  163SAPE  H16X18301   1.985   6.004   4.344  1.5937  1.8861 -0.3600
  163SAPE  H16Y18302   2.112   5.882   4.306  0.2063  0.9837  0.5062
  163SAPE  C31718303   2.101   5.962   4.512 -0.7948 -0.0399 -0.6699
  163SAPE  H17X18304   2.143   5.873   4.564  0.0522  0.8880  0.2892
  163SAPE  H17Y18305   2.018   6.006   4.572 -0.3078 -0.2957  0.2115
  163SAPE  C31818306   2.204   6.083   4.492  0.0607 -0.5693  0.0442
  163SAPE  H18X18307   2.267   6.093   4.583 -1.9839  0.1768  1.4754
  163SAPE  H18Y18308   2.149   6.177   4.470 -0.7608 -1.3514 -1.4023
  163SAPE  H18Z18309   2.267   6.049   4.407  1.2987  0.2396  0.6184
  164SAPE     N18310   3.474   0.173   2.338 -0.3493  0.4778 -0.0761
  164SAPE   HN118311   3.412   0.228   2.275  1.5626  3.3061  0.3230
  164SAPE   HN218312   3.487   0.073   2.313 -0.5387  0.0921  1.2715
  164SAPE   HN318313   3.428   0.169   2.431 -0.2792  1.7265  0.0350
  164SAPE   C1218314   3.613   0.221   2.353 -0.5866 -0.5272  0.2957
  164SAPE  H12A18315   3.607   0.321   2.401  3.0605  0.6030 -1.2632
  164SAPE  H12B18316   3.647   0.243   2.250 -1.2785 -0.1661  0.1323
  164SAPE   C1118317   3.695   0.121   2.430  0.3250  0.0198  0.3846
  164SAPE  H11A18318   3.644   0.099   2.527  0.6726 -0.1389  0.5324
  164SAPE  H11B18319   3.794   0.167   2.449  0.4032  0.3709 -0.7860
  164SAPE     P18320   3.839  -0.085   2.358  0.3156 -0.0631 -0.2193
  164SAPE   O1318321   3.832  -0.205   2.275 -0.5133 -0.1305  0.1636
  164SAPE   O1418322   3.954  -0.005   2.324 -0.0792 -0.6278  0.2514
  164SAPE   O1218323   3.708   0.004   2.350 -0.2475 -0.1412  0.3153
  164SAPE   O1118324   3.840  -0.118   2.514 -0.2034 -0.0726 -0.1020
  164SAPE    C118325   3.729  -0.179   2.576 -0.2969  0.1416  0.1838
  164SAPE    HA18326   3.708  -0.126   2.671  0.1999 -2.0435  1.5918
  164SAPE    HB18327   3.638  -0.181   2.511  1.5449 -2.7529 -2.5993
  164SAPE    C218328   3.753  -0.327   2.616 -0.3308  0.6078 -0.0215
  164SAPE    HS18329   3.764  -0.387   2.524 -0.8970 -0.7885  0.7908
  164SAPE   O2118330   3.649  -0.368   2.702  0.3260  0.1790 -0.0651
  164SAPE   C2118331   3.619  -0.498   2.704  0.2108 -0.1490 -0.4196
  164SAPE   O2218332   3.656  -0.582   2.619  0.4883  0.1248  0.1542
  164SAPE   C2218333   3.537  -0.530   2.834 -0.1753 -0.0035  0.2360
  164SAPE   H2R18334   3.573  -0.473   2.922  1.1213 -1.1721  0.4994
  164SAPE   H2S18335   3.433  -0.500   2.810  0.0895 -0.7169 -2.0841
  164SAPE    C318336   3.886  -0.340   2.701 -0.0479  0.0889 -0.4354
  164SAPE    HX18337   3.871  -0.270   2.786  1.0307 -1.6808  1.2921
  164SAPE    HY18338   3.969  -0.309   2.634  1.5118 -0.3799  1.1907
  164SAPE   O3118339   3.899  -0.475   2.753  0.1127 -0.3892 -0.5179
  164SAPE   C3118340   3.981  -0.567   2.686 -0.2864 -0.3778 -0.3452
  164SAPE   O3218341   4.058  -0.543   2.596 -0.2057 -0.4383 -0.4881
  164SAPE   C3218342   3.974  -0.704   2.750  0.3965 -0.2854 -0.3209
  164SAPE   H2X18343   3.889  -0.748   2.692 -0.4477  1.0813 -0.1690
  164SAPE   H2Y18344   3.962  -0.702   2.860  1.6438  0.4332 -0.1819
  164SAPE   C2318345   3.536  -0.680   2.875 -0.0007 -0.1582  0.3076
  164SAPE   H3R18346   3.635  -0.710   2.916 -1.0927 -0.1275  3.1591
  164SAPE   H3S18347   3.512  -0.741   2.785  2.1233  1.8398 -1.7468
  164SAPE   C2418348   3.439  -0.706   2.994  1.0960 -0.6322  0.5718
  164SAPE   H4R18349   3.468  -0.644   3.082 -0.9726 -2.4084  2.6542
  164SAPE   H4S18350   3.455  -0.809   3.033  2.3943 -0.5804  0.2140
  164SAPE   C2518351   3.290  -0.680   2.962  0.2657  0.2549 -0.2504
  164SAPE   H5R18352   3.292  -0.611   2.877 -0.9716 -0.4188 -0.8465
  164SAPE   C2618353   3.183  -0.708   3.036  0.4609  0.2042 -0.6922
  164SAPE   H6R18354   3.086  -0.694   2.986  1.0387 -1.2757 -2.3278
  164SAPE   C2718355   3.182  -0.784   3.166  0.1053  0.4503 -0.4750
  164SAPE   H7R18356   3.277  -0.769   3.222  0.0011 -0.0892 -0.1409
  164SAPE   H7S18357   3.188  -0.891   3.134  2.1265  0.4430 -0.2283
  164SAPE   C2818358   3.053  -0.761   3.243 -0.0687  0.2325 -0.3292
  164SAPE   H8R18359   2.966  -0.716   3.193 -1.3730 -2.0618 -0.2960
  164SAPE   C2918360   3.036  -0.803   3.371 -0.3212  0.1985 -0.6168
  164SAPE   H9R18361   2.937  -0.803   3.420  0.1159 -1.8219  0.3739
  164SAPE  C21018362   3.136  -0.859   3.467 -0.7276 -0.6786  0.6329
  164SAPE  H10R18363   3.235  -0.869   3.417 -0.4026 -2.1690  1.5227
  164SAPE  H10S18364   3.116  -0.968   3.474 -2.0170 -0.5970 -1.0634
  164SAPE  C21118365   3.166  -0.800   3.602 -0.2692  0.9806  0.2539
  164SAPE  H11R18366   3.089  -0.796   3.680 -1.4757 -0.0806 -0.8438
  164SAPE  C21218367   3.284  -0.748   3.645 -0.0942 -0.4943  0.0622
  164SAPE  H12R18368   3.292  -0.717   3.750  0.3447 -1.7653  0.4203
  164SAPE  C21318369   3.414  -0.739   3.576 -0.2361 -0.0509  0.0697
  164SAPE  H13R18370   3.414  -0.646   3.515  0.2361 -0.8854 -1.2324
  164SAPE  H13S18371   3.421  -0.825   3.506 -3.0328 -1.6789  1.6375
  164SAPE  C21418372   3.537  -0.736   3.660 -0.3511  0.2784 -0.1255
  164SAPE  H14R18373   3.517  -0.720   3.767  0.1088  1.5717 -0.2123
  164SAPE  C21518374   3.669  -0.760   3.615  0.5834  0.3177 -0.6074
  164SAPE  H15R18375   3.756  -0.751   3.682  0.3813 -0.8376 -0.1682
  164SAPE  C21618376   3.699  -0.799   3.469 -0.7334 -0.3654  0.0586
  164SAPE  H16R18377   3.610  -0.816   3.406 -0.9777 -0.1328  0.3418
  164SAPE  H16S18378   3.759  -0.891   3.455  0.2137  0.2886 -0.2973
  164SAPE  C21718379   3.758  -0.678   3.390 -0.8772  0.7865 -0.3760
  164SAPE  H17R18380   3.862  -0.656   3.421 -0.8556  0.7794 -0.4423
  164SAPE  H17S18381   3.708  -0.580   3.407 -0.4420  1.0325 -0.4880
  164SAPE  C21818382   3.754  -0.703   3.233  0.2278  0.0605  0.1568
  164SAPE  H18R18383   3.646  -0.707   3.208  0.1661  0.7869  0.2645
  164SAPE  H18S18384   3.810  -0.795   3.206 -1.0944 -0.6070 -0.3580
  164SAPE  C21918385   3.832  -0.592   3.155 -0.6016  0.1803  0.2578
  164SAPE  H19R18386   3.794  -0.493   3.189  1.2728  0.6210  1.1743
  164SAPE  H19S18387   3.802  -0.600   3.048  2.0394  1.1870 -0.6350
  164SAPE  C22018388   3.988  -0.604   3.152 -0.0663  0.7371 -0.2918
  164SAPE  H20R18389   4.028  -0.706   3.133  0.9774  0.6774  1.8822
  164SAPE  H20S18390   4.041  -0.577   3.245  0.3396 -0.9993  0.0098
  164SAPE  H20T18391   4.017  -0.537   3.068  0.0801  0.6871 -0.2825
  164SAPE   C3318392   4.106  -0.782   2.719 -0.2484 -0.1452  0.4324
  164SAPE   H3X18393   4.142  -0.762   2.616 -0.7247 -0.3402  0.2257
  164SAPE   H3Y18394   4.066  -0.886   2.717  0.3495 -0.3796  0.4481
  164SAPE   C3418395   4.220  -0.763   2.825 -0.5847 -0.9942 -0.3458
  164SAPE   H4X18396   4.163  -0.769   2.920 -1.2109 -0.1396 -0.6561
  164SAPE   H4Y18397   4.253  -0.658   2.811 -2.9590 -0.3012 -1.3475
  164SAPE   C3518398   4.325  -0.876   2.821  0.3190  0.1488  0.9194
  164SAPE   H5X18399   4.352  -0.885   2.714  1.2050  1.5499  0.9996
  164SAPE   H5Y18400   4.285  -0.976   2.848  1.8141 -0.3627  1.3244
  164SAPE   C3618401   4.447  -0.853   2.909 -0.3442 -0.8586  0.1050
  164SAPE   H6X18402   4.426  -0.767   2.977  1.4074 -0.2116 -0.0918
  164SAPE   H6Y18403   4.532  -0.818   2.846 -2.5228  0.0582 -2.5040
  164SAPE   C3718404   4.502  -0.969   2.988 -0.6120 -0.2895  0.1107
  164SAPE   H7X18405   4.571  -1.036   2.932 -0.0948  0.5084 -0.2408
  164SAPE   H7Y18406   4.421  -1.041   3.010  1.0464 -1.8454  1.4371
  164SAPE   C3818407   4.581  -0.938   3.115  0.2749 -0.8033  0.2862
  164SAPE   H8X18408   4.528  -0.858   3.172 -0.1645  1.0307 -2.5272
  164SAPE   H8Y18409   4.675  -0.887   3.087 -1.2314  1.4337 -1.0740
  164SAPE   C3918410   4.604  -1.058   3.208 -0.1254  0.2382  1.2255
  164SAPE   H9X18411   4.667  -1.131   3.152 -0.1133  0.3565  1.0837
  164SAPE   H9Y18412   4.506  -1.110   3.219 -1.1172  1.9278  0.7687
  164SAPE  C31018413   4.667  -1.024   3.344 -0.1250 -0.5181 -0.4736
  164SAPE  H10X18414   4.768  -0.982   3.324  0.2427 -0.9355  0.4640
  164SAPE  H10Y18415   4.682  -1.119   3.400 -0.7494 -1.2553 -1.5002
  164SAPE  C31118416   4.593  -0.916   3.426 -0.0415 -0.9393  0.1511
  164SAPE  H11X18417   4.496  -0.959   3.457  0.4055 -1.5850  0.6942
  164SAPE  H11Y18418   4.572  -0.826   3.365 -1.7484 -2.7184 -2.0447
  164SAPE  C31218419   4.664  -0.864   3.554  0.5308  0.2974 -0.2966
  164SAPE  H12X18420   4.607  -0.778   3.595  2.5343  2.2522 -1.3770
  164SAPE  H12Y18421   4.765  -0.829   3.522  0.9082 -0.3988  0.1033
  164SAPE  C31318422   4.670  -0.959   3.672  0.1624  0.6795 -0.4851
  164SAPE  H13X18423   4.720  -1.055   3.647  1.4802  1.2723 -0.2127
  164SAPE  H13Y18424   4.566  -0.979   3.707 -0.7671  2.2187 -2.1650
  164SAPE  C31418425   4.748  -0.907   3.786 -0.1423 -0.4817 -0.4022
  164SAPE  H14X18426   4.724  -0.801   3.809  0.3610 -0.4363 -0.0714
  164SAPE  H14Y18427   4.858  -0.913   3.769 -0.1398 -2.4544  0.0714
  164SAPE  C31518428   4.722  -0.993   3.912 -0.7073  0.4534  0.3097
  164SAPE  H15X18429   4.745  -1.098   3.884 -0.5208  1.1283 -2.2753
  164SAPE  H15Y18430   4.615  -0.986   3.940 -0.3786 -1.1335  2.1513
  164SAPE  C31618431   4.803  -0.954   4.039 -1.0846  0.1672 -0.0465
  164SAPE  H16X18432   4.773  -1.025   4.119 -3.6302  3.4052  2.1664
  164SAPE  H16Y18433   4.762  -0.852   4.057 -0.4873 -0.0214  2.8145
  164SAPE  C31718434   4.962  -0.948   4.020  0.2192 -0.1347 -0.6950
  164SAPE  H17X18435   4.993  -0.895   3.928  0.4598  2.5075  0.8095
  164SAPE  H17Y18436   4.990  -1.055   4.028  0.2065 -0.0834  0.1749
  164SAPE  C31818437   5.021  -0.870   4.139 -0.4849  0.0732 -0.0092
  164SAPE  H18X18438   4.984  -0.766   4.126 -0.6334  0.2475  1.5443
  164SAPE  H18Y18439   5.132  -0.868   4.146 -0.4288 -1.6024  0.0145
  164SAPE  H18Z18440   4.981  -0.901   4.238 -0.6229  0.5564  0.0873
  165SAPE     N18441   3.669   1.376   2.182 -0.4921 -0.6341  0.5447
  165SAPE   HN118442   3.721   1.386   2.271 -3.3580 -0.8203  2.3551
  165SAPE   HN218443   3.615   1.463   2.166  0.0104 -0.8342 -3.2477
  165SAPE   HN318444   3.600   1.298   2.189 -0.1877 -1.2275 -1.9163
  165SAPE   C1218445   3.758   1.355   2.062 -0.2460 -0.0418 -0.1254
  165SAPE  H12A18446   3.689   1.366   1.976  1.8806 -1.8357 -2.2154
  165SAPE  H12B18447   3.787   1.248   2.053 -1.7924 -0.3652 -1.7503
  165SAPE   C1118448   3.881   1.446   2.069  0.2653 -0.5080  0.3593
  165SAPE  H11A18449   3.924   1.438   1.967  0.9321  0.2816  0.5696
  165SAPE  H11B18450   3.938   1.403   2.154  1.5958 -1.8879 -1.1629
  165SAPE     P18451   3.945   1.693   2.112  0.2385  0.0514 -0.4725
  165SAPE   O1318452   4.069   1.628   2.162 -0.0750  0.2109 -0.3751
  165SAPE   O1418453   3.956   1.772   1.987  0.6577 -0.1292 -0.0246
  165SAPE   O1218454   3.835   1.587   2.088  0.4827  0.9992 -0.0907
  165SAPE   O1118455   3.891   1.797   2.219 -0.1558 -0.5722  0.0456
  165SAPE    C118456   3.846   1.750   2.343  0.3921 -0.6234 -0.1203
  165SAPE    HA18457   3.795   1.652   2.340  0.7241 -0.7830 -1.4748
  165SAPE    HB18458   3.940   1.728   2.398  1.7864  2.5003 -1.0095
  165SAPE    C218459   3.776   1.850   2.430  0.0393 -0.6152 -0.2296
  165SAPE    HS18460   3.683   1.883   2.380  0.9246 -0.2017 -1.6575
  165SAPE   O2118461   3.870   1.951   2.471  0.0115  0.3166  0.3663
  165SAPE   C2118462   3.809   2.074   2.479  0.7541  0.1785 -0.5374
  165SAPE   O2218463   3.691   2.090   2.464  0.0912 -0.3909  0.2039
  165SAPE   C2218464   3.904   2.180   2.523 -0.4311  0.0181  0.7091
  165SAPE   H2R18465   4.003   2.133   2.538  0.4102  1.8160  1.0698
  165SAPE   H2S18466   3.914   2.261   2.447  1.2253 -0.9619 -0.1646
  165SAPE    C318467   3.737   1.784   2.568  0.1726  0.5683 -0.9883
  165SAPE    HX18468   3.819   1.715   2.597 -1.0384 -0.2158  0.7243
  165SAPE    HY18469   3.650   1.719   2.542  1.6556 -2.4860  1.0450
  165SAPE   O3118470   3.701   1.877   2.674  0.7696 -0.2145 -0.4479
  165SAPE   C3118471   3.719   1.837   2.802  0.2125 -0.0857 -0.2421
  165SAPE   O3218472   3.769   1.735   2.844  0.1600  0.0579  0.5529
  165SAPE   C3218473   3.661   1.942   2.889 -0.0455  0.3293 -0.5146
  165SAPE   H2X18474   3.551   1.944   2.876 -0.3834 -3.1369  0.7679
  165SAPE   H2Y18475   3.692   2.041   2.848 -0.1031  0.5969  0.0828
  165SAPE   C2318476   3.872   2.250   2.656  0.5938  0.3633  0.2723
  165SAPE   H3R18477   3.846   2.170   2.728 -1.8517  1.3580  0.5846
  165SAPE   H3S18478   3.772   2.298   2.649 -0.5372 -1.9291 -0.1375
  165SAPE   C2418479   3.981   2.343   2.712  0.3070  0.1994  0.0768
  165SAPE   H4R18480   3.985   2.439   2.658  0.5138 -0.5762 -1.3298
  165SAPE   H4S18481   4.077   2.291   2.690  0.5495 -0.0129  1.5076
  165SAPE   C2518482   3.959   2.372   2.864  0.2590 -0.1397 -0.0633
  165SAPE   H5R18483   3.920   2.469   2.897 -1.1426 -1.2474  1.7158
  165SAPE   C2618484   3.984   2.285   2.963  0.4371 -0.3686  0.2915
  165SAPE   H6R18485   3.965   2.319   3.066 -0.5538 -1.2860  0.4270
  165SAPE   C2718486   4.020   2.141   2.951 -0.3313  0.1156 -0.1816
  165SAPE   H7R18487   4.056   2.113   2.849  3.3641  2.1252  0.3786
  165SAPE   H7S18488   3.931   2.083   2.982 -0.0550  0.3337  1.0501
  165SAPE   C2818489   4.136   2.108   3.044  0.1612 -0.5483 -0.1947
  165SAPE   H8R18490   4.234   2.150   3.015 -0.8825  3.6979  1.6882
  165SAPE   C2918491   4.124   2.049   3.162 -0.1117  0.2000  0.4559
  165SAPE   H9R18492   4.218   2.038   3.219 -0.5165  1.1731  1.3408
  165SAPE  C21018493   4.014   1.992   3.245  0.2698  0.0263  0.7117
  165SAPE  H10R18494   3.924   2.031   3.193  1.5054  0.4996 -1.1627
  165SAPE  H10S18495   4.033   2.045   3.340  2.0494  1.7417 -0.5346
  165SAPE  C21118496   4.003   1.843   3.266  0.3152 -0.5029 -0.2672
  165SAPE  H11R18497   4.012   1.783   3.174 -2.1098  0.7499 -1.4208
  165SAPE  C21218498   4.006   1.776   3.381  0.3148  0.2309 -0.0652
  165SAPE  H12R18499   4.006   1.666   3.370 -0.2199  0.3266 -1.1663
  165SAPE  C21318500   4.012   1.828   3.516  0.0269 -0.0011 -0.3269
  165SAPE  H13R18501   3.958   1.758   3.583 -1.1204  1.3697  0.2370
  165SAPE  H13S18502   3.960   1.927   3.515 -0.3382 -0.1890 -0.1237
  165SAPE  C21418503   4.155   1.844   3.563  0.0839  0.2210 -0.3935
  165SAPE  H14R18504   4.230   1.806   3.492 -0.6646  0.6920 -1.4505
  165SAPE  C21518505   4.183   1.917   3.670 -0.3946  0.2940  1.0232
  165SAPE  H15R18506   4.284   1.943   3.704 -0.8751  1.5068  1.5671
  165SAPE  C21618507   4.083   1.976   3.772  0.4189 -0.5393  0.1783
  165SAPE  H16R18508   4.094   1.916   3.865 -1.1005 -2.6526 -0.9357
  165SAPE  H16S18509   3.976   1.962   3.745 -0.6290  2.5716  2.1099
  165SAPE  C21718510   4.111   2.119   3.820 -0.1326 -0.9264  0.4975
  165SAPE  H17R18511   4.117   2.185   3.731  3.2596  0.1135  1.3389
  165SAPE  H17S18512   4.215   2.125   3.859 -0.2304 -2.1429  0.9914
  165SAPE  C21818513   3.993   2.181   3.903 -0.5444 -0.9522 -0.4219
  165SAPE  H18R18514   3.972   2.116   3.990 -1.6552  0.3262  0.2959
  165SAPE  H18S18515   3.904   2.185   3.837 -0.2633 -1.0143 -0.8153
  165SAPE  C21918516   4.019   2.332   3.934  0.2739  0.2098 -0.2703
  165SAPE  H19R18517   4.041   2.378   3.836 -0.8587  0.9466 -0.1960
  165SAPE  H19S18518   4.100   2.334   4.010 -1.0273  1.0153  1.1323
  165SAPE  C22018519   3.895   2.417   3.982  0.1100 -0.0309  0.0399
  165SAPE  H20R18520   3.860   2.363   4.073  0.6656  0.7680  0.7455
  165SAPE  H20S18521   3.819   2.422   3.901  0.1421  0.1783  0.0223
  165SAPE  H20T18522   3.923   2.520   4.011  1.0948 -0.3167  0.1722
  165SAPE   C3318523   3.675   1.943   3.048 -0.3515  0.0283 -0.6275
  165SAPE   H3X18524   3.777   1.912   3.080  0.6883  1.6308 -2.2162
  165SAPE   H3Y18525   3.601   1.866   3.077 -0.6312  0.1436 -1.0304
  165SAPE   C3418526   3.621   2.074   3.111 -0.9618 -0.2972  1.0062
  165SAPE   H4X18527   3.536   2.119   3.056 -0.4566 -0.7614 -0.1988
  165SAPE   H4Y18528   3.698   2.154   3.102  0.0191 -1.3469 -0.3949
  165SAPE   C3518529   3.563   2.050   3.254  0.3817  0.0770 -0.5397
  165SAPE   H5X18530   3.461   2.007   3.244 -1.4196  2.6173  3.8625
  165SAPE   H5Y18531   3.563   2.154   3.293 -0.4374 -0.4095  0.8521
  165SAPE   C3618532   3.654   1.957   3.346  0.4663 -0.4648  0.4229
  165SAPE   H6X18533   3.744   2.022   3.353  0.8466 -0.8445 -0.7561
  165SAPE   H6Y18534   3.683   1.862   3.297  0.8242 -1.2627  2.1084
  165SAPE   C3718535   3.589   1.936   3.474 -0.1879  0.0085  0.2329
  165SAPE   H7X18536   3.649   1.851   3.514  0.1199  0.7674  1.4588
  165SAPE   H7Y18537   3.485   1.913   3.445  0.7657 -0.8150 -2.8974
  165SAPE   C3818538   3.615   2.061   3.564  0.2519  0.0514  0.4590
  165SAPE   H8X18539   3.558   2.143   3.516  0.1651 -0.2135  0.1027
  165SAPE   H8Y18540   3.723   2.083   3.576  0.7368 -1.9124  0.1075
  165SAPE   C3918541   3.557   2.040   3.707 -0.3997 -0.2218 -0.5776
  165SAPE   H9X18542   3.606   1.961   3.767 -2.9229 -2.1699 -0.8944
  165SAPE   H9Y18543   3.447   2.021   3.706 -0.5248  0.4624 -0.4290
  165SAPE  C31018544   3.590   2.160   3.793 -0.2744  0.0921  0.0720
  165SAPE  H10X18545   3.534   2.246   3.751 -2.2751 -0.4729  1.4175
  165SAPE  H10Y18546   3.698   2.184   3.784 -0.2903  0.4504  0.7388
  165SAPE  C31118547   3.553   2.136   3.942 -0.2882  0.4477  0.7442
  165SAPE  H11X18548   3.566   2.229   4.001 -1.5488 -0.1916  2.0863
  165SAPE  H11Y18549   3.631   2.067   3.982  2.5627  2.9150 -0.2031
  165SAPE  C31218550   3.416   2.068   3.974 -0.4136  0.5381  0.0623
  165SAPE  H12X18551   3.423   2.036   4.080  2.3074  1.7494  0.3137
  165SAPE  H12Y18552   3.391   1.981   3.910 -0.4360  1.0697 -0.6638
  165SAPE  C31318553   3.299   2.165   3.961 -0.3811  0.0794  0.4815
  165SAPE  H13X18554   3.306   2.229   3.870  2.5554 -2.0325 -0.9331
  165SAPE  H13Y18555   3.318   2.228   4.051 -0.4773 -0.9903  1.2663
  165SAPE  C31418556   3.166   2.099   3.989  0.0640  0.4056  0.1444
  165SAPE  H14X18557   3.167   2.001   3.937  1.0259 -0.3638  1.5626
  165SAPE  H14Y18558   3.086   2.157   3.939 -0.9756 -0.5373  0.6698
  165SAPE  C31518559   3.132   2.060   4.135  0.1026  0.9048 -0.4435
  165SAPE  H15X18560   3.212   2.002   4.187 -2.0148 -0.5888  1.3242
  165SAPE  H15Y18561   3.047   1.990   4.128  0.4162  0.6439 -2.0410
  165SAPE  C31618562   3.100   2.189   4.219 -0.0104  0.5250  0.0116
  165SAPE  H16X18563   3.021   2.253   4.174 -0.5902 -0.4469 -0.3919
  165SAPE  H16Y18564   3.190   2.254   4.218 -0.4991  1.2253 -1.9599
  165SAPE  C31718565   3.057   2.150   4.359 -0.5520  0.6412  0.0888
  165SAPE  H17X18566   3.033   2.042   4.371  0.2780  0.2785 -1.3590
  165SAPE  H17Y18567   2.956   2.193   4.376 -1.4150 -1.1948 -0.1984
  165SAPE  C31818568   3.147   2.191   4.473 -0.2121 -0.1900  0.3323
  165SAPE  H18X18569   3.163   2.301   4.478 -2.1103  0.1406 -0.3055
  165SAPE  H18Y18570   3.248   2.146   4.461 -0.8528 -1.1410 -2.1789
  165SAPE  H18Z18571   3.101   2.158   4.569  1.0869  0.1508  1.0988
  166SAPE     N18572   4.678   2.021   2.126 -0.3418 -0.4133 -0.2897
  166SAPE   HN118573   4.651   2.051   2.222  1.7951  0.8190 -0.0273
  166SAPE   HN218574   4.776   1.989   2.132  0.6127  2.2620 -0.5680
  166SAPE   HN318575   4.697   2.109   2.074  2.4217 -0.0890  1.1139
  166SAPE   C1218576   4.578   1.926   2.066  0.8398  0.7663 -1.0746
  166SAPE  H12A18577   4.607   1.916   1.959 -0.0251  0.5485 -1.2949
  166SAPE  H12B18578   4.479   1.977   2.067  0.4576  0.0516  0.0040
  166SAPE   C1118579   4.570   1.790   2.141 -0.1551  0.3529  0.3321
  166SAPE  H11A18580   4.490   1.735   2.085 -0.4812  0.7949  0.3571
  166SAPE  H11B18581   4.530   1.809   2.243  0.6378  1.9575  0.3593
  166SAPE     P18582   4.730   1.590   2.096  0.4689  0.0792  0.0723
  166SAPE   O1318583   4.718   1.605   1.952 -0.2695  0.5368  0.6389
  166SAPE   O1418584   4.853   1.538   2.156 -0.2869 -0.2467  0.6398
  166SAPE   O1218585   4.700   1.732   2.156 -0.3096 -0.9682 -0.3685
  166SAPE   O1118586   4.612   1.491   2.149 -0.1326  0.0234 -0.3567
  166SAPE    C118587   4.585   1.486   2.288 -0.2052 -0.0246 -0.4416
  166SAPE    HA18588   4.679   1.499   2.347  2.8172 -1.6819 -4.4813
  166SAPE    HB18589   4.523   1.574   2.319  1.1504  0.3264  1.4456
  166SAPE    C218590   4.527   1.346   2.333 -0.0871 -0.6081 -0.4879
  166SAPE    HS18591   4.440   1.329   2.266 -0.7002 -2.2312  0.6670
  166SAPE   O2118592   4.493   1.355   2.470  0.2241  0.3812 -0.1113
  166SAPE   C2118593   4.369   1.330   2.497 -0.5030 -0.5633 -0.5320
  166SAPE   O2218594   4.276   1.321   2.416 -0.1353 -0.9116 -0.3435
  166SAPE   C2218595   4.354   1.312   2.653 -0.1292  0.2127  0.4135
  166SAPE   H2R18596   4.439   1.246   2.681 -0.6666  0.3457  2.5045
  166SAPE   H2S18597   4.363   1.417   2.688  1.0899  1.1371 -2.4068
  166SAPE    C318598   4.627   1.233   2.314 -0.4532  0.2496 -0.0753
  166SAPE    HX18599   4.707   1.255   2.389  0.3853  0.3524 -0.9818
  166SAPE    HY18600   4.676   1.227   2.215  0.7154  0.6500  0.4582
  166SAPE   O3118601   4.569   1.105   2.355 -0.1205  0.4505  0.0169
  166SAPE   C3118602   4.650   1.022   2.417  0.5399 -0.2804 -0.0730
  166SAPE   O3218603   4.767   1.047   2.437  0.4057  0.0387 -0.4278
  166SAPE   C3218604   4.573   0.903   2.468 -0.3496 -0.1215 -0.4758
  166SAPE   H2X18605   4.518   0.858   2.383 -0.5953 -1.0667  0.1735
  166SAPE   H2Y18606   4.493   0.942   2.534  0.2485 -0.3693  0.4205
  166SAPE   C2318607   4.222   1.238   2.694  0.8461  0.9148  0.3767
  166SAPE   H3R18608   4.213   1.139   2.644 -0.4186  1.9247 -1.5396
  166SAPE   H3S18609   4.139   1.303   2.658 -0.0723  0.1206  1.0342
  166SAPE   C2418610   4.208   1.222   2.847 -0.2768  0.3910 -0.1127
  166SAPE   H4R18611   4.267   1.301   2.898  1.1600 -0.4795 -0.3761
  166SAPE   H4S18612   4.254   1.122   2.858  1.1439  1.1138  0.9055
  166SAPE   C2518613   4.071   1.208   2.909 -0.3955  0.2443 -0.4964
  166SAPE   H5R18614   3.979   1.201   2.849 -0.1102 -0.5010 -0.8695
  166SAPE   C2618615   4.060   1.206   3.048  0.1275  0.3149  0.1161
  166SAPE   H6R18616   3.960   1.198   3.094  0.1498 -3.0259 -0.1876
  166SAPE   C2718617   4.167   1.226   3.149  0.4482  0.6397  0.1223
  166SAPE   H7R18618   4.267   1.203   3.107 -0.5023 -1.8973 -0.9538
  166SAPE   H7S18619   4.133   1.157   3.229 -2.6336  2.8689  0.9662
  166SAPE   C2818620   4.165   1.368   3.197  0.9946  0.0668  0.5581
  166SAPE   H8R18621   4.184   1.443   3.119  0.2922 -1.1095 -0.7790
  166SAPE   C2918622   4.164   1.400   3.325 -0.6763 -0.4281 -0.9267
  166SAPE   H9R18623   4.156   1.504   3.358  2.8567 -0.6908  1.2984
  166SAPE  C21018624   4.166   1.307   3.445 -0.2141  0.2444 -0.0195
  166SAPE  H10R18625   4.195   1.204   3.415 -0.5885  0.2817 -0.5121
  166SAPE  H10S18626   4.061   1.296   3.481 -0.8070  1.7115 -1.2276
  166SAPE  C21118627   4.271   1.349   3.543 -0.9480 -0.3593 -0.0909
  166SAPE  H11R18628   4.375   1.364   3.508 -0.7930 -0.8036  0.1638
  166SAPE  C21218629   4.241   1.367   3.679  0.1793 -1.0805  0.6283
  166SAPE  H12R18630   4.324   1.377   3.752  1.2321 -0.5202 -0.5979
  166SAPE  C21318631   4.102   1.363   3.741 -0.2333 -0.1209 -0.0201
  166SAPE  H13R18632   4.047   1.281   3.690  0.3888 -0.4020 -0.2450
  166SAPE  H13S18633   4.052   1.462   3.734 -0.2604  0.0162  1.6262
  166SAPE  C21418634   4.110   1.334   3.888  0.2743 -0.3218  0.7347
  166SAPE  H14R18635   4.085   1.235   3.930  0.7770 -0.6244  0.3384
  166SAPE  C21518636   4.140   1.435   3.979 -0.2544 -0.2434 -0.2996
  166SAPE  H15R18637   4.157   1.412   4.085 -3.3223  1.2754  0.6429
  166SAPE  C21618638   4.156   1.584   3.956 -0.4052 -0.2098  0.0932
  166SAPE  H16R18639   4.159   1.606   3.848  0.9624 -0.3714  0.0805
  166SAPE  H16S18640   4.259   1.616   3.984  0.0101 -2.5867  1.6819
  166SAPE  C21718641   4.053   1.683   4.025  0.0261  0.1039  0.1493
  166SAPE  H17R18642   4.103   1.782   4.017  2.4780 -1.0790 -0.1787
  166SAPE  H17S18643   4.048   1.656   4.133 -3.3423 -0.4701 -0.0479
  166SAPE  C21818644   3.922   1.668   3.951 -0.6505 -0.0095  0.7697
  166SAPE  H18R18645   3.885   1.564   3.963 -0.7048 -0.2731 -1.4129
  166SAPE  H18S18646   3.932   1.676   3.841 -1.0395 -0.6198  0.6835
  166SAPE  C21918647   3.817   1.764   3.990  0.0428  0.0410 -0.7442
  166SAPE  H19R18648   3.853   1.853   3.934 -1.1466 -0.1393 -1.8482
  166SAPE  H19S18649   3.819   1.786   4.099 -3.1729 -0.0874 -0.5653
  166SAPE  C22018650   3.672   1.730   3.961 -0.8113  0.5118  0.0586
  166SAPE  H20R18651   3.599   1.814   3.959  0.5020  1.6824 -0.2045
  166SAPE  H20S18652   3.642   1.646   4.028 -0.0170 -0.9513 -1.3287
  166SAPE  H20T18653   3.669   1.685   3.859 -0.6361  0.0374  0.2592
  166SAPE   C3318654   4.656   0.793   2.539  0.2333 -0.7095 -0.3317
  166SAPE   H3X18655   4.735   0.758   2.468 -0.2115 -1.1894 -0.5951
  166SAPE   H3Y18656   4.588   0.707   2.557  0.0716 -0.7539 -1.1168
  166SAPE   C3418657   4.716   0.827   2.674  0.4639 -0.6829 -0.4748
  166SAPE   H4X18658   4.633   0.880   2.726 -1.0784 -0.0627 -3.3781
  166SAPE   H4Y18659   4.793   0.905   2.655  0.8078 -1.3489 -1.9247
  166SAPE   C3518660   4.763   0.714   2.756 -0.0177 -0.3986  0.1466
  166SAPE   H5X18661   4.857   0.675   2.712  0.0709 -1.7749  1.4485
  166SAPE   H5Y18662   4.688   0.631   2.755  1.6099 -1.9438  1.2465
  166SAPE   C3618663   4.798   0.747   2.909  0.6758 -0.3124  0.2550
  166SAPE   H6X18664   4.709   0.791   2.958 -0.6456 -1.6945 -0.8146
  166SAPE   H6Y18665   4.871   0.831   2.914  1.1835 -0.7898  1.0499
  166SAPE   C3718666   4.857   0.622   2.979 -0.2898  0.4365  0.0262
  166SAPE   H7X18667   4.940   0.593   2.911  0.7677  0.9360  1.0684
  166SAPE   H7Y18668   4.793   0.531   2.973  2.5579 -1.6525 -1.2555
  166SAPE   C3818669   4.911   0.649   3.115  0.1909 -0.7633  0.0154
  166SAPE   H8X18670   4.970   0.743   3.121 -2.4668  0.9846  0.5501
  166SAPE   H8Y18671   4.976   0.566   3.149 -0.9920 -1.1802  1.3626
  166SAPE   C3918672   4.793   0.661   3.211  0.6625 -0.7126  0.3584
  166SAPE   H9X18673   4.705   0.595   3.192  2.5331 -3.0131 -0.7084
  166SAPE   H9Y18674   4.764   0.765   3.184  0.0851 -1.1949 -0.9716
  166SAPE  C31018675   4.841   0.661   3.359 -0.1889  0.3663  0.7907
  166SAPE  H10X18676   4.937   0.715   3.354 -0.7731  1.3157 -1.0844
  166SAPE  H10Y18677   4.865   0.556   3.387  0.2768  0.5545  1.1066
  166SAPE  C31118678   4.739   0.724   3.456 -0.1180  0.0489  0.0037
  166SAPE  H11X18679   4.716   0.831   3.435  0.1872  0.0437 -0.3710
  166SAPE  H11Y18680   4.786   0.734   3.556 -0.2283 -0.1304  0.0753
  166SAPE  C31218681   4.615   0.629   3.484 -0.6736 -0.0109 -0.0625
  166SAPE  H12X18682   4.631   0.520   3.490 -0.6423 -0.2135 -2.6268
  166SAPE  H12Y18683   4.546   0.629   3.397  1.5619  1.3106 -1.9606
  166SAPE  C31318684   4.544   0.674   3.614  0.8189 -0.0709 -0.0950
  166SAPE  H13X18685   4.450   0.615   3.620  1.1161 -0.7270 -1.5069
  166SAPE  H13Y18686   4.522   0.780   3.592  0.2620 -0.3279 -0.8241
  166SAPE  C31418687   4.618   0.650   3.744  0.0212  0.1394 -0.0104
  166SAPE  H14X18688   4.728   0.650   3.724 -0.1700 -2.2826 -1.4920
  166SAPE  H14Y18689   4.600   0.543   3.765  2.3027 -0.3089 -0.0460
  166SAPE  C31518690   4.569   0.731   3.870 -0.0954 -0.1030 -0.1290
  166SAPE  H15X18691   4.460   0.744   3.851  0.2991 -0.0329 -2.6854
  166SAPE  H15Y18692   4.616   0.830   3.850  0.8947 -0.5650 -0.1279
  166SAPE  C31618693   4.609   0.664   4.000 -0.8056  0.4153 -0.6972
  166SAPE  H16X18694   4.627   0.746   4.073  1.6293  0.4685 -1.2687
  166SAPE  H16Y18695   4.710   0.619   4.010 -0.6621  0.8560 -0.0609
  166SAPE  C31718696   4.514   0.556   4.045  0.0147 -0.2359  0.1320
  166SAPE  H17X18697   4.510   0.486   3.959 -1.9320  0.5202 -0.4463
  166SAPE  H17Y18698   4.412   0.597   4.061 -0.2639 -1.7182  2.7987
  166SAPE  C31818699   4.564   0.484   4.173 -0.1214 -0.3289 -0.0559
  166SAPE  H18X18700   4.664   0.440   4.156  0.2364  0.9154 -1.4110
  166SAPE  H18Y18701   4.506   0.390   4.184  2.3461 -1.7602  1.5381
  166SAPE  H18Z18702   4.558   0.553   4.260  1.3545 -0.2919  0.0362
  167SAPE     N18703   5.579   5.576   2.015  0.4493  0.4466  0.1835
  167SAPE   HN118704   5.532   5.641   2.082 -0.2558  0.5321 -0.3700
  167SAPE   HN218705   5.560   5.606   1.917  3.4489  0.6971 -0.4045
  167SAPE   HN318706   5.534   5.484   2.030 -1.7196  1.9059  4.0901
  167SAPE   C1218707   5.723   5.560   2.036 -0.6519  0.4998 -0.2613
  167SAPE  H12A18708   5.773   5.509   1.951  0.2221 -0.3843  0.7432
  167SAPE  H12B18709   5.735   5.509   2.135  1.9108  3.2398  0.9732
  167SAPE   C1118710   5.788   5.700   2.035  0.8560  0.1321  0.0684
  167SAPE  H11A18711   5.776   5.743   1.933  0.5198  0.4653  0.2451
  167SAPE  H11B18712   5.895   5.682   2.060  1.3251  1.6311 -0.7475
  167SAPE     P18713   5.758   5.939   2.132  0.0713 -0.3857  0.4370
  167SAPE   O1318714   5.854   5.981   2.025  0.5912 -0.1859 -0.1868
  167SAPE   O1418715   5.625   6.007   2.134  0.4185  0.0767  0.3863
  167SAPE   O1218716   5.727   5.783   2.135  0.7003 -0.1978  0.5097
  167SAPE   O1118717   5.830   5.955   2.273 -0.0940  0.2896 -0.6896
  167SAPE    C118718   5.907   5.852   2.338  0.0698 -0.8240 -0.1102
  167SAPE    HA18719   5.858   5.752   2.330  0.6968 -1.1914  0.5212
  167SAPE    HB18720   6.008   5.851   2.292 -0.4910  2.0609 -1.6272
  167SAPE    C218721   5.936   5.880   2.491  0.3478  0.1354 -0.6291
  167SAPE    HS18722   6.005   5.802   2.530  1.6529  1.0907 -0.9427
  167SAPE   O2118723   5.810   5.885   2.558 -0.4174 -0.0781 -0.2165
  167SAPE   C2118724   5.758   5.768   2.582  0.0398 -0.1686 -0.4737
  167SAPE   O2218725   5.820   5.662   2.588  0.1635  0.1034  0.3037
  167SAPE   C2218726   5.607   5.786   2.614  0.0586 -0.2065 -0.4459
  167SAPE   H2R18727   5.550   5.817   2.523  0.6492  0.0332 -0.7375
  167SAPE   H2S18728   5.584   5.684   2.653  0.5038 -0.5066 -0.9565
  167SAPE    C318729   6.008   6.015   2.518  0.3757  0.8065  0.7089
  167SAPE    HX18730   5.939   6.094   2.481 -1.3894 -0.9217  0.1443
  167SAPE    HY18731   6.101   6.025   2.458  0.5483  0.9714  0.9991
  167SAPE   O3118732   6.038   6.016   2.658 -0.0029 -0.7360 -0.4378
  167SAPE   C3118733   6.140   5.945   2.700 -0.2461  0.1007 -0.1104
  167SAPE   O3218734   6.235   5.905   2.638 -0.5217 -0.0615  0.1046
  167SAPE   C3218735   6.122   5.915   2.846 -0.0838  0.7744 -0.2787
  167SAPE   H2X18736   6.214   5.953   2.896  0.4664 -1.2813  0.4172
  167SAPE   H2Y18737   6.121   5.804   2.861  2.6794  0.7219 -0.0100
  167SAPE   C2318738   5.592   5.890   2.730 -0.0818  0.4542 -0.2000
  167SAPE   H3R18739   5.611   5.987   2.679  1.2648 -0.8443 -2.3485
  167SAPE   H3S18740   5.673   5.872   2.804  0.9020 -0.2756 -1.4012
  167SAPE   C2418741   5.457   5.869   2.799 -0.2749  0.1301 -0.4469
  167SAPE   H4R18742   5.461   5.763   2.834 -0.5798 -0.5058 -2.2422
  167SAPE   H4S18743   5.369   5.868   2.731  0.4443 -1.9757 -1.4149
  167SAPE   C2518744   5.455   5.973   2.905 -0.7320  0.7794  0.0821
  167SAPE   H5R18745   5.453   6.076   2.868 -1.6609  0.9067  0.4512
  167SAPE   C2618746   5.461   5.947   3.040  0.2829  0.0260  1.0339
  167SAPE   H6R18747   5.470   6.039   3.099  0.5352 -0.2270  1.3992
  167SAPE   C2718748   5.455   5.809   3.105  0.0262  0.0452  0.1729
  167SAPE   H7R18749   5.451   5.726   3.031 -2.8663 -0.7338  1.0814
  167SAPE   H7S18750   5.356   5.792   3.152  1.3733 -2.5860  2.3334
  167SAPE   C2818751   5.565   5.786   3.202  0.1525 -0.2974 -0.2156
  167SAPE   H8R18752   5.650   5.738   3.152  0.8352  0.4938  0.1553
  167SAPE   C2918753   5.545   5.781   3.336 -0.7050  0.5810  0.0149
  167SAPE   H9R18754   5.637   5.757   3.391  0.0900  1.4564 -0.8965
  167SAPE  C21018755   5.432   5.815   3.422 -0.2198  0.3382  0.4595
  167SAPE  H10R18756   5.377   5.720   3.440 -1.5343  1.2980  1.6623
  167SAPE  H10S18757   5.363   5.871   3.356  0.9812  2.5731  1.0054
  167SAPE  C21118758   5.451   5.907   3.540  0.2644 -0.3699 -0.3932
  167SAPE  H11R18759   5.517   5.994   3.528  1.1583 -0.9905 -0.1749
  167SAPE  C21218760   5.368   5.902   3.653 -0.1475 -0.2003 -0.2437
  167SAPE  H12R18761   5.404   5.961   3.738  0.5669 -0.7580 -0.1473
  167SAPE  C21318762   5.280   5.785   3.691 -0.0653 -0.1649  0.7485
  167SAPE  H13R18763   5.295   5.697   3.626 -1.4102 -0.8069  1.2811
  167SAPE  H13S18764   5.177   5.816   3.664  0.4660  1.9126  0.9079
  167SAPE  C21418765   5.278   5.757   3.838 -0.2228  0.2909  0.0180
  167SAPE  H14R18766   5.228   5.834   3.899 -1.6908  2.2926 -3.3797
  167SAPE  C21518767   5.320   5.643   3.894  0.7762  0.1695 -0.1913
  167SAPE  H15R18768   5.316   5.622   4.002  0.9895  0.2696 -0.1651
  167SAPE  C21618769   5.388   5.539   3.808  0.4191  0.2830  0.1922
  167SAPE  H16R18770   5.478   5.588   3.764  0.6862 -1.1179 -0.9030
  167SAPE  H16S18771   5.325   5.481   3.738  0.6167  0.1947  0.0850
  167SAPE  C21718772   5.438   5.419   3.893 -0.2753 -0.0260  0.1749
  167SAPE  H17R18773   5.513   5.449   3.969 -0.1617 -1.6657  0.7571
  167SAPE  H17S18774   5.491   5.348   3.825 -0.9277  0.4418 -0.8460
  167SAPE  C21818775   5.331   5.344   3.971  0.3592 -0.6646 -0.1176
  167SAPE  H18R18776   5.263   5.296   3.898  2.0735 -0.8713 -1.6576
  167SAPE  H18S18777   5.259   5.413   4.020 -2.4693 -0.1238 -4.5086
  167SAPE  C21918778   5.386   5.245   4.082  0.6194  0.0831  0.4604
  167SAPE  H19R18779   5.439   5.159   4.035  0.2109  0.1138 -0.0698
  167SAPE  H19S18780   5.300   5.199   4.135  0.7025  0.8779  1.3165
  167SAPE  C22018781   5.470   5.309   4.189 -0.3798  0.0244 -0.2222
  167SAPE  H20R18782   5.481   5.238   4.274  1.5701  0.4675 -0.0529
  167SAPE  H20S18783   5.422   5.405   4.221 -0.4049 -0.4073  1.1158
  167SAPE  H20T18784   5.574   5.334   4.159 -0.8463  0.3434 -1.6448
  167SAPE   C3318785   6.009   5.993   2.918 -0.7781  0.0408 -0.1789
  167SAPE   H3X18786   5.911   5.956   2.881 -0.3785 -0.7799 -0.4240
  167SAPE   H3Y18787   6.017   6.102   2.895 -0.0563  0.6383  2.5249
  167SAPE   C3418788   6.016   5.986   3.072  0.5791  0.0126 -0.2852
  167SAPE   H4X18789   6.106   6.029   3.120 -1.0491  2.3452  0.8964
  167SAPE   H4Y18790   6.003   5.879   3.099 -2.2080  0.4309  0.4195
  167SAPE   C3518791   5.897   6.060   3.131 -0.3328 -0.4011 -0.1669
  167SAPE   H5X18792   5.804   6.014   3.092 -0.2092 -2.0562  1.3936
  167SAPE   H5Y18793   5.885   6.170   3.115 -0.6800  0.7043  5.4770
  167SAPE   C3618794   5.897   6.051   3.287 -0.2375  0.1401 -0.3377
  167SAPE   H6X18795   5.987   6.108   3.318 -0.9165  0.9028  0.2757
  167SAPE   H6Y18796   5.929   5.947   3.307  1.8170  0.8126  0.1231
  167SAPE   C3718797   5.769   6.097   3.359  0.0672  0.1123  0.7736
  167SAPE   H7X18798   5.691   6.020   3.342 -0.5573  0.6305  1.2593
  167SAPE   H7Y18799   5.733   6.185   3.301 -2.2861 -1.8986 -1.0146
  167SAPE   C3818800   5.776   6.136   3.508 -0.1468 -0.0363 -0.3380
  167SAPE   H8X18801   5.673   6.163   3.542 -0.6084 -0.3157 -1.4449
  167SAPE   H8Y18802   5.835   6.229   3.512 -1.7370  1.0294 -0.6937
  167SAPE   C3918803   5.824   6.037   3.614 -0.3741 -0.1536  0.7121
  167SAPE   H9X18804   5.931   6.011   3.598 -0.0476  0.9352  1.0593
  167SAPE   H9Y18805   5.773   5.939   3.607  1.1029 -0.8362 -2.2658
  167SAPE  C31018806   5.810   6.082   3.762 -0.2198  0.5125  0.6245
  167SAPE  H10X18807   5.719   6.144   3.749 -0.2754  0.5738  1.2799
  167SAPE  H10Y18808   5.901   6.138   3.795  1.1375 -0.7909 -0.7551
  167SAPE  C31118809   5.793   5.963   3.856 -0.2805 -0.1888 -0.0434
  167SAPE  H11X18810   5.879   5.893   3.849  0.0844  0.1282  1.1169
  167SAPE  H11Y18811   5.699   5.908   3.832 -0.8330  0.9550 -0.5746
  167SAPE  C31218812   5.779   5.989   4.003  0.3593 -0.9035  0.2657
  167SAPE  H12X18813   5.714   6.077   4.022  1.2159  0.0827 -1.2173
  167SAPE  H12Y18814   5.883   6.012   4.032  0.0716  0.2882  0.4174
  167SAPE  C31318815   5.718   5.874   4.084  0.3340  0.6637 -0.0897
  167SAPE  H13X18816   5.614   5.856   4.049  0.6804 -1.9196  0.0039
  167SAPE  H13Y18817   5.709   5.904   4.191  2.2696  1.1651 -0.0384
  167SAPE  C31418818   5.804   5.739   4.071 -0.4893  0.1512 -0.3470
  167SAPE  H14X18819   5.909   5.759   4.100 -0.2121 -0.7301 -0.7226
  167SAPE  H14Y18820   5.812   5.710   3.964  0.5917  1.5882 -0.6923
  167SAPE  C31518821   5.748   5.623   4.153  0.1030 -0.3847 -0.0866
  167SAPE  H15X18822   5.645   5.611   4.112 -0.6663  1.6563  1.1104
  167SAPE  H15Y18823   5.733   5.653   4.258 -0.0735  0.2817 -0.2972
  167SAPE  C31618824   5.838   5.501   4.148 -0.1587 -0.1013 -0.4494
  167SAPE  H16X18825   5.811   5.430   4.229 -1.8203  0.6501 -0.3062
  167SAPE  H16Y18826   5.942   5.531   4.175 -0.9552  0.8281  1.8592
  167SAPE  C31718827   5.845   5.417   4.023 -0.3178 -0.9363  0.5781
  167SAPE  H17X18828   5.910   5.462   3.944  0.5008 -0.5338  1.4628
  167SAPE  H17Y18829   5.744   5.408   3.978  0.0330  2.8135 -1.4514
  167SAPE  C31818830   5.905   5.282   4.046  0.7898 -0.6804 -0.2506
  167SAPE  H18X18831   5.928   5.228   3.953  0.3140  0.4066 -1.0275
  167SAPE  H18Y18832   5.828   5.219   4.095  0.3818 -0.1835 -0.2311
  167SAPE  H18Z18833   5.996   5.279   4.109  0.4511  1.8849  0.4972
  168SAPE     N18834   2.832   0.965   2.112 -0.1700  0.0871 -0.0773
  168SAPE   HN118835   2.757   0.930   2.049 -0.8480  2.9400 -1.0056
  168SAPE   HN218836   2.887   1.027   2.050 -3.3314 -0.1108 -3.4411
  168SAPE   HN318837   2.896   0.892   2.150  0.7468 -0.0178 -1.7094
  168SAPE   C1218838   2.773   1.046   2.217  0.7144  0.0498 -0.3762
  168SAPE  H12A18839   2.844   1.126   2.248  1.6916 -1.3541  1.2033
  168SAPE  H12B18840   2.754   0.983   2.307 -0.6313 -0.4248 -0.9635
  168SAPE   C1118841   2.645   1.108   2.161 -0.5925 -0.0878 -0.4032
  168SAPE  H11A18842   2.659   1.163   2.065  0.3675  4.5247  2.0924
  168SAPE  H11B18843   2.612   1.180   2.238  3.0264  0.5797  0.7259
  168SAPE     P18844   2.486   0.948   2.013 -0.0064  0.0586 -0.4814
  168SAPE   O1318845   2.423   1.068   1.954 -0.8085 -0.3210  0.3966
  168SAPE   O1418846   2.583   0.888   1.927  0.2047  0.6441 -0.5146
  168SAPE   O1218847   2.553   0.996   2.142 -0.7698 -0.2512  0.0667
  168SAPE   O1118848   2.381   0.835   2.045 -0.0398  0.5136 -0.4027
  168SAPE    C118849   2.257   0.861   2.106  0.2596  0.1728 -0.3521
  168SAPE    HA18850   2.194   0.935   2.053  1.0566  1.5232  0.5111
  168SAPE    HB18851   2.211   0.760   2.117  3.6083 -1.6438 -1.5889
  168SAPE    C218852   2.271   0.908   2.256 -0.1276  0.0153 -0.3141
  168SAPE    HS18853   2.326   1.004   2.257  2.2604 -1.2659  0.6353
  168SAPE   O2118854   2.350   0.818   2.343 -0.0668 -0.2003  0.5245
  168SAPE   C2118855   2.417   0.856   2.445 -0.6745  0.3852 -0.1004
  168SAPE   O2218856   2.421   0.961   2.502 -0.2508  0.8331  0.0416
  168SAPE   C2218857   2.515   0.742   2.467  0.5994 -0.4677 -0.1728
  168SAPE   H2R18858   2.446   0.662   2.499 -0.3262  0.4795  0.2774
  168SAPE   H2S18859   2.560   0.723   2.368  0.1723 -1.1072 -0.2502
  168SAPE    C318860   2.119   0.923   2.307 -0.3491  0.2373  0.6776
  168SAPE    HX18861   2.059   0.840   2.265 -0.7372 -0.3367  2.3148
  168SAPE    HY18862   2.084   1.017   2.259  3.3305  1.4028 -0.0359
  168SAPE   O3118863   2.118   0.930   2.451  0.5947  0.8549 -0.2097
  168SAPE   C3118864   2.038   0.850   2.509 -0.1569  0.3153 -0.2295
  168SAPE   O3218865   1.965   0.766   2.459 -0.3370  0.2278 -0.0841
  168SAPE   C3218866   2.053   0.873   2.658  0.0390 -0.5149 -0.6483
  168SAPE   H2X18867   2.033   0.981   2.674 -1.0999 -0.6354 -1.1300
  168SAPE   H2Y18868   2.162   0.869   2.682  0.3439  2.5143 -1.1174
  168SAPE   C2318869   2.622   0.780   2.577  0.2720 -0.2204 -0.0860
  168SAPE   H3R18870   2.568   0.807   2.670  0.3470 -3.4134  0.9880
  168SAPE   H3S18871   2.678   0.864   2.531 -1.0743  0.1695 -1.0844
  168SAPE   C2418872   2.714   0.662   2.611 -0.2741 -0.2674 -0.3324
  168SAPE   H4R18873   2.779   0.706   2.690  0.9168  1.3858 -2.1620
  168SAPE   H4S18874   2.777   0.630   2.526 -0.0994 -1.7791  0.3312
  168SAPE   C2518875   2.639   0.542   2.658 -0.4196 -0.4836 -0.5682
  168SAPE   H5R18876   2.579   0.482   2.587  1.3087 -0.2952 -2.2634
  168SAPE   C2618877   2.663   0.476   2.778  0.0498 -0.1544  0.3193
  168SAPE   H6R18878   2.612   0.382   2.799  0.8368 -0.5010  0.7324
  168SAPE   C2718879   2.761   0.514   2.881  0.0004 -0.1530 -1.6508
  168SAPE   H7R18880   2.855   0.527   2.824  0.1076 -1.8644 -1.9100
  168SAPE   H7S18881   2.779   0.425   2.945  0.5271  1.7648  1.0406
  168SAPE   C2818882   2.721   0.635   2.968 -0.3334 -0.2073 -0.0630
  168SAPE   H8R18883   2.686   0.728   2.920  0.7806 -0.6004 -1.7197
  168SAPE   C2918884   2.720   0.637   3.101  0.4804 -0.4128 -0.9000
  168SAPE   H9R18885   2.711   0.735   3.150  1.8409  0.5117 -2.4050
  168SAPE  C21018886   2.770   0.518   3.184  0.2213  0.7606 -0.3654
  168SAPE  H10R18887   2.854   0.465   3.135 -0.5886 -0.5051 -0.4413
  168SAPE  H10S18888   2.677   0.457   3.183  1.0011 -0.7767  3.3705
  168SAPE  C21118889   2.825   0.536   3.320 -0.6291  0.1271  0.0662
  168SAPE  H11R18890   2.894   0.621   3.326 -1.4145  0.7352  0.6146
  168SAPE  C21218891   2.815   0.453   3.426 -0.4400 -0.0981 -0.1478
  168SAPE  H12R18892   2.870   0.489   3.514 -0.3292 -1.2616  0.2707
  168SAPE  C21318893   2.732   0.324   3.419 -0.2149 -0.2372  0.8822
  168SAPE  H13R18894   2.808   0.245   3.402  0.9229  0.7431  1.2084
  168SAPE  H13S18895   2.685   0.318   3.319  2.8193 -1.8277 -0.5910
  168SAPE  C21418896   2.642   0.309   3.543  0.1466  0.2478  0.4054
  168SAPE  H14R18897   2.539   0.347   3.536  0.3342  1.4702  2.9809
  168SAPE  C21518898   2.683   0.248   3.653  0.2442 -0.6359  0.3157
  168SAPE  H15R18899   2.616   0.255   3.740  1.6059 -0.2342  1.3528
  168SAPE  C21618900   2.818   0.197   3.692  0.3808  0.2101  0.3899
  168SAPE  H16R18901   2.858   0.283   3.750  1.1564  0.6188 -0.7276
  168SAPE  H16S18902   2.879   0.166   3.604 -0.6095  0.4139 -0.3862
  168SAPE  C21718903   2.801   0.071   3.778 -0.4860 -0.5552 -0.1182
  168SAPE  H17R18904   2.734   0.001   3.722  0.9694 -2.3154  0.2427
  168SAPE  H17S18905   2.740   0.088   3.869 -1.0209  0.4674 -0.6550
  168SAPE  C21818906   2.934   0.011   3.806  0.7635  0.2273 -0.6420
  168SAPE  H18R18907   3.007   0.082   3.851  1.5130 -0.7029 -0.3775
  168SAPE  H18S18908   2.978  -0.032   3.713 -1.5304 -1.7375 -0.9182
  168SAPE  C21918909   2.923  -0.095   3.924  0.2548  0.1652  0.3820
  168SAPE  H19R18910   2.836  -0.165   3.914  0.9330 -1.0472  2.4512
  168SAPE  H19S18911   2.889  -0.036   4.012  1.5446 -0.2787  1.2065
  168SAPE  C22018912   3.046  -0.174   3.948  0.7802 -0.1375  0.4405
  168SAPE  H20R18913   3.055  -0.247   3.864 -0.8020 -0.8409  0.8483
  168SAPE  H20S18914   3.053  -0.224   4.047  0.5169 -1.0347  0.0245
  168SAPE  H20T18915   3.136  -0.109   3.945  0.7718 -0.1099  0.7864
  168SAPE   C3318916   1.961   0.776   2.733 -0.4874 -1.0021  0.1571
  168SAPE   H3X18917   2.006   0.674   2.725  0.5786 -0.4369 -1.7282
  168SAPE   H3Y18918   1.862   0.785   2.684  0.3849 -0.4396 -1.5880
  168SAPE   C3418919   1.960   0.819   2.880 -0.0247 -0.4684  0.3417
  168SAPE   H4X18920   1.932   0.927   2.881 -2.1151 -0.9599  1.8733
  168SAPE   H4Y18921   2.057   0.817   2.933 -1.2630 -1.1361  2.7345
  168SAPE   C3518922   1.857   0.737   2.958 -0.2552 -0.1883  1.0697
  168SAPE   H5X18923   1.900   0.635   2.961 -0.2477 -0.5153 -3.3304
  168SAPE   H5Y18924   1.763   0.722   2.901  0.4734 -0.1530 -0.1860
  168SAPE   C3618925   1.822   0.816   3.086  0.2627 -0.0701 -0.5039
  168SAPE   H6X18926   1.779   0.913   3.053 -0.9111 -0.3132  0.2428
  168SAPE   H6Y18927   1.912   0.856   3.137  1.7153 -0.6549 -2.5080
  168SAPE   C3718928   1.726   0.732   3.176 -0.3449  0.1405  0.4217
  168SAPE   H7X18929   1.769   0.631   3.194  0.1016  0.1350 -0.6087
  168SAPE   H7Y18930   1.635   0.732   3.111  0.2195  1.4649 -0.3929
  168SAPE   C3818931   1.716   0.813   3.312 -0.2311 -0.5948  1.1822
  168SAPE   H8X18932   1.702   0.919   3.280  0.0225 -1.0186 -0.4643
  168SAPE   H8Y18933   1.820   0.813   3.350 -0.3376  2.6281  1.7911
  168SAPE   C3918934   1.620   0.772   3.422 -0.0155  0.0893  0.0741
  168SAPE   H9X18935   1.653   0.679   3.473  0.6479 -0.8808 -2.0116
  168SAPE   H9Y18936   1.523   0.744   3.375  0.0744  0.0547 -0.0883
  168SAPE  C31018937   1.590   0.880   3.526  0.3815 -0.5412  0.2072
  168SAPE  H10X18938   1.581   0.976   3.470 -0.4058 -1.2312 -0.8859
  168SAPE  H10Y18939   1.679   0.897   3.589  0.7271 -0.7717 -0.2122
  168SAPE  C31118940   1.475   0.838   3.616 -0.3256 -0.3712  0.1944
  168SAPE  H11X18941   1.500   0.735   3.650  0.7456 -0.5730 -1.1160
  168SAPE  H11Y18942   1.390   0.830   3.545  0.8438 -0.2607 -1.2519
  168SAPE  C31218943   1.436   0.936   3.729 -0.1189  1.4292 -0.0730
  168SAPE  H12X18944   1.349   0.882   3.773  0.2341  0.1120 -0.9535
  168SAPE  H12Y18945   1.399   1.031   3.685 -3.2007  0.4078  0.0308
  168SAPE  C31318946   1.539   0.974   3.834  0.5286 -0.1937 -0.0594
  168SAPE  H13X18947   1.631   1.011   3.783  0.7144  1.8106  1.5800
  168SAPE  H13Y18948   1.576   0.892   3.899  2.0682  0.8223  0.4034
  168SAPE  C31418949   1.483   1.078   3.928  0.2943  0.1661  0.3063
  168SAPE  H14X18950   1.432   1.162   3.876  0.8124  0.3447  0.0869
  168SAPE  H14Y18951   1.559   1.127   3.992 -0.4133  0.1817  1.1683
  168SAPE  C31518952   1.396   1.026   4.041 -0.3103 -0.4915  0.2442
  168SAPE  H15X18953   1.465   0.955   4.092  1.1608  1.4217  1.0413
  168SAPE  H15Y18954   1.304   0.982   3.997  0.4748 -1.1061 -0.8240
  168SAPE  C31618955   1.335   1.137   4.137 -0.0101  0.0967 -1.0425
  168SAPE  H16X18956   1.375   1.236   4.105  1.1898 -0.8013 -2.4052
  168SAPE  H16Y18957   1.371   1.114   4.240  0.7935  0.2909 -1.2787
  168SAPE  C31718958   1.177   1.142   4.130 -0.4610  0.8095 -0.1555
  168SAPE  H17X18959   1.138   1.038   4.121  0.2584  0.4280  0.9057
  168SAPE  H17Y18960   1.139   1.189   4.037  2.1572 -0.2079 -1.8509
  168SAPE  C31818961   1.106   1.205   4.252 -0.2181  0.2935  0.5505
  168SAPE  H18X18962   0.996   1.212   4.239  0.0125  0.4100 -1.7328
  168SAPE  H18Y18963   1.140   1.310   4.253  2.4466 -0.4924  0.1962
  168SAPE  H18Z18964   1.140   1.155   4.345 -0.3051  0.7255  0.8122
  169SAPE     N18965   6.176   4.858   2.188 -0.6504  0.3361  0.6931
  169SAPE   HN118966   6.161   4.920   2.107  0.3740 -1.5405 -1.0305
  169SAPE   HN218967   6.089   4.805   2.208 -0.1495 -0.6260  0.3954
  169SAPE   HN318968   6.196   4.909   2.276 -2.3436  1.2911  0.5692
  169SAPE   C1218969   6.286   4.761   2.146  0.3402  0.0308 -0.6719
  169SAPE  H12A18970   6.293   4.685   2.227 -1.2830 -1.3614 -1.7652
  169SAPE  H12B18971   6.377   4.824   2.155  0.2218  0.0427  0.6273
  169SAPE   C1118972   6.280   4.716   2.000  0.0993  0.2237  0.6499
  169SAPE  H11A18973   6.214   4.628   1.984 -0.1201  0.4672  0.1948
  169SAPE  H11B18974   6.380   4.680   1.968 -0.3423 -0.2572 -0.2408
  169SAPE     P18975   6.302   4.932   1.852 -0.0720 -0.2619 -0.1556
  169SAPE   O1318976   6.424   4.884   1.789  0.4334 -0.1778  0.2710
  169SAPE   O1418977   6.214   5.018   1.770  0.8274  0.1728 -0.4185
  169SAPE   O1218978   6.214   4.808   1.909  0.0107 -0.1283 -0.0801
  169SAPE   O1118979   6.342   5.009   1.981 -0.3795 -0.3166 -0.2703
  169SAPE    C118980   6.445   5.107   1.990  0.5618  0.3499  0.7231
  169SAPE    HA18981   6.542   5.075   1.948  2.0111  1.8243  2.7373
  169SAPE    HB18982   6.411   5.196   1.933 -0.2053 -1.3592 -1.6241
  169SAPE    C218983   6.477   5.143   2.133  0.3546 -0.9438  0.4143
  169SAPE    HS18984   6.540   5.234   2.126 -1.0677 -0.0516 -3.3737
  169SAPE   O2118985   6.528   5.022   2.205  1.0654  0.2425  0.5101
  169SAPE   C2118986   6.655   5.029   2.211  0.2427 -0.6575 -0.4988
  169SAPE   O2218987   6.730   5.103   2.149  0.0341  0.1188 -0.3470
  169SAPE   C2218988   6.704   4.930   2.321  0.7262 -1.2136  0.7275
  169SAPE   H2R18989   6.622   4.857   2.337 -0.1566 -0.8278 -1.5715
  169SAPE   H2S18990   6.789   4.878   2.272  0.1575 -0.6391 -0.9394
  169SAPE    C318991   6.361   5.205   2.214  0.0750 -0.0161 -0.1366
  169SAPE    HX18992   6.268   5.149   2.190 -0.4325  1.5097 -1.9895
  169SAPE    HY18993   6.345   5.309   2.179 -0.5642 -0.4489 -1.1754
  169SAPE   O3118994   6.397   5.206   2.350  1.1808 -0.0932  0.2931
  169SAPE   C3118995   6.338   5.112   2.423  0.1917 -0.1534 -0.0326
  169SAPE   O3218996   6.270   5.023   2.379 -0.1074 -0.3310 -0.2435
  169SAPE   C3218997   6.372   5.136   2.569  0.0470 -0.4641 -1.3683
  169SAPE   H2X18998   6.317   5.222   2.613 -0.3757 -1.2885 -0.2478
  169SAPE   H2Y18999   6.476   5.176   2.570 -0.5145  1.1218  0.2168
  169SAPE   C2319000   6.752   4.999   2.454 -0.4501  0.8667  0.7372
  169SAPE   H3R19001   6.656   5.032   2.500 -0.0868  1.7300  0.9039
  169SAPE   H3S19002   6.809   5.085   2.413 -0.0698 -0.0417 -0.7154
  169SAPE   C2419003   6.841   4.918   2.543  0.0142  0.3362 -0.4463
  169SAPE   H4R19004   6.878   4.977   2.629 -0.1193  0.0612 -0.2001
  169SAPE   H4S19005   6.928   4.889   2.480 -0.5287 -2.9490  0.1775
  169SAPE   C2519006   6.758   4.798   2.600 -0.1596  0.0878  0.1280
  169SAPE   H5R19007   6.686   4.752   2.530 -2.1329 -0.4403  2.3546
  169SAPE   C2619008   6.767   4.747   2.726 -0.6158  0.5578 -0.2256
  169SAPE   H6R19009   6.693   4.675   2.767 -0.6486  0.0475 -1.1646
  169SAPE   C2719010   6.860   4.794   2.833 -0.0655  0.3386 -0.5356
  169SAPE   H7R19011   6.808   4.784   2.931 -0.2390 -0.0626 -0.6681
  169SAPE   H7S19012   6.884   4.903   2.830  1.2015  0.0944  0.0845
  169SAPE   C2819013   6.999   4.721   2.829 -0.3306  0.0734  0.1179
  169SAPE   H8R19014   7.066   4.757   2.748 -0.5758  1.1469  0.3808
  169SAPE   C2919015   7.048   4.638   2.923 -1.1541  0.1180 -1.0802
  169SAPE   H9R19016   7.153   4.608   2.911 -0.9585  1.4113 -3.0044
  169SAPE  C21019017   6.972   4.571   3.039 -1.3386  0.3756 -0.3270
  169SAPE  H10R19018   6.869   4.609   3.055 -1.1987 -0.0551  1.9001
  169SAPE  H10S19019   7.027   4.591   3.134  0.8025 -0.5674 -1.2984
  169SAPE  C21119020   6.956   4.418   3.022  0.0113 -0.4694 -0.1936
  169SAPE  H11R19021   6.923   4.379   2.925  2.4217 -2.6746 -0.2479
  169SAPE  C21219022   6.980   4.325   3.114 -0.0200  0.3193 -0.5839
  169SAPE  H12R19023   6.972   4.222   3.076 -2.5818  0.5483 -0.9076
  169SAPE  C21319024   7.033   4.331   3.256  0.0300 -0.2002 -0.0475
  169SAPE  H13R19025   7.073   4.434   3.270  2.6778 -0.9254 -1.6071
  169SAPE  H13S19026   7.120   4.263   3.252  2.2198  2.4350 -0.2603
  169SAPE  C21419027   6.930   4.287   3.357  0.6082  0.0667  0.1456
  169SAPE  H14R19028   6.834   4.341   3.366 -0.4350 -1.7334  0.2927
  169SAPE  C21519029   6.948   4.192   3.460 -0.4539 -0.7094 -0.0666
  169SAPE  H15R19030   6.869   4.175   3.534  0.2765  0.5920  1.0641
  169SAPE  C21619031   7.081   4.129   3.491  0.1256  0.9272 -0.6090
  169SAPE  H16R19032   7.155   4.125   3.408 -0.8127 -0.2488 -1.4261
  169SAPE  H16S19033   7.070   4.024   3.527  1.2842  1.8441  2.8363
  169SAPE  C21719034   7.145   4.212   3.606 -0.1916  0.3726 -0.4235
  169SAPE  H17R19035   7.080   4.194   3.694 -1.8236  3.7438 -0.7645
  169SAPE  H17S19036   7.150   4.318   3.573 -2.3165  0.6118 -0.0567
  169SAPE  C21819037   7.284   4.163   3.628 -0.0839  0.4833  0.2970
  169SAPE  H18R19038   7.321   4.219   3.716 -0.7473  0.8637  0.3418
  169SAPE  H18S19039   7.348   4.178   3.538  0.3465  0.9629  0.6764
  169SAPE  C21919040   7.308   4.009   3.657  0.7124 -0.4557  0.0872
  169SAPE  H19R19041   7.269   3.944   3.576 -1.1340  0.5450  0.1280
  169SAPE  H19S19042   7.240   3.987   3.742 -0.1114  1.2051 -0.1089
  169SAPE  C22019043   7.446   3.978   3.693 -0.6318 -0.6237 -0.2627
  169SAPE  H20R19044   7.510   4.020   3.612 -0.4259  0.7966  0.6157
  169SAPE  H20S19045   7.458   3.868   3.706 -1.1360 -0.6826 -0.2651
  169SAPE  H20T19046   7.479   4.018   3.791  1.4353  2.0576 -1.9167
  169SAPE   C3319047   6.345   5.015   2.666 -0.4977  0.6339 -0.5002
  169SAPE   H3X19048   6.372   4.915   2.625  2.0516  1.5993 -1.3021
  169SAPE   H3Y19049   6.235   5.008   2.681 -0.0894 -2.7344  2.1711
  169SAPE   C3419050   6.411   5.027   2.808 -0.6228 -0.5144 -0.3522
  169SAPE   H4X19051   6.414   5.128   2.853  0.3445 -0.7716  0.1936
  169SAPE   H4Y19052   6.516   4.994   2.792 -0.4576  0.4354 -1.3083
  169SAPE   C3519053   6.338   4.945   2.914 -0.3160  0.1056 -0.2128
  169SAPE   H5X19054   6.325   4.840   2.879  0.7784  0.0132 -0.3602
  169SAPE   H5Y19055   6.237   4.990   2.929 -0.6756 -1.0326  0.9856
  169SAPE   C3619056   6.397   4.958   3.056  0.3197 -0.1598  0.5068
  169SAPE   H6X19057   6.349   4.896   3.134  0.2667 -1.5971 -0.6126
  169SAPE   H6Y19058   6.380   5.063   3.089  1.3996 -1.0253  4.2734
  169SAPE   C3719059   6.544   4.925   3.065  0.4104 -0.4064 -0.4737
  169SAPE   H7X19060   6.603   4.990   2.997  1.3094  0.3586  0.9669
  169SAPE   H7Y19061   6.563   4.821   3.032  1.7251 -0.4434  0.2925
  169SAPE   C3819062   6.600   4.946   3.208 -0.0637 -0.6336  0.1986
  169SAPE   H8X19063   6.538   4.888   3.280 -0.6444  2.2528  2.2066
  169SAPE   H8Y19064   6.582   5.052   3.240  2.5114 -0.3340  0.8910
  169SAPE   C3919065   6.749   4.900   3.229 -0.2964 -0.7925 -0.6044
  169SAPE   H9X19066   6.817   4.988   3.223 -0.8525 -0.3067 -0.0646
  169SAPE   H9Y19067   6.768   4.827   3.148 -2.0217 -0.6092 -1.2258
  169SAPE  C31019068   6.767   4.838   3.371 -0.3815 -0.4091  0.4533
  169SAPE  H10X19069   6.701   4.749   3.384 -1.7209  0.6043  0.8585
  169SAPE  H10Y19070   6.727   4.913   3.443 -1.3242 -1.4471  1.0473
  169SAPE  C31119071   6.908   4.800   3.395 -0.1283 -0.6244 -0.0320
  169SAPE  H11X19072   6.974   4.887   3.377 -1.6470  0.3595 -1.0977
  169SAPE  H11Y19073   6.935   4.724   3.319 -0.0308 -0.4158 -0.2081
  169SAPE  C31219074   6.915   4.738   3.539 -0.4053  0.2160  1.0975
  169SAPE  H12X19075   6.830   4.668   3.556 -2.0388  1.1426 -2.3627
  169SAPE  H12Y19076   6.915   4.813   3.620  0.6220  0.4101  0.9265
  169SAPE  C31319077   7.038   4.637   3.541  0.7280 -0.3222  0.1042
  169SAPE  H13X19078   7.129   4.692   3.508  1.1910  1.0458  3.2822
  169SAPE  H13Y19079   7.013   4.564   3.460  0.9162 -0.4251  0.1385
  169SAPE  C31419080   7.051   4.567   3.674 -0.1883  0.1363 -0.0405
  169SAPE  H14X19081   7.075   4.644   3.751 -1.3157 -1.0797  1.5820
  169SAPE  H14Y19082   7.130   4.492   3.659 -1.5389 -1.6387  1.2732
  169SAPE  C31519083   6.935   4.474   3.719  0.0519  0.5115 -0.1023
  169SAPE  H15X19084   6.939   4.384   3.654  0.1956 -1.2822  2.2284
  169SAPE  H15Y19085   6.839   4.528   3.708 -0.9543 -1.1775 -0.0252
  169SAPE  C31619086   6.949   4.434   3.869  0.5531 -0.4414 -0.6409
  169SAPE  H16X19087   6.949   4.526   3.932  0.1635 -1.4374  0.8525
  169SAPE  H16Y19088   7.050   4.388   3.878  0.0264 -1.2622  2.0647
  169SAPE  C31719089   6.845   4.343   3.923  0.5042 -0.3489 -0.4603
  169SAPE  H17X19090   6.838   4.260   3.849  3.3798  2.1057 -3.8337
  169SAPE  H17Y19091   6.745   4.391   3.918  0.1810 -0.4762  2.7320
  169SAPE  C31819092   6.873   4.282   4.060  0.3151  0.4942 -0.3887
  169SAPE  H18X19093   6.889   4.364   4.134 -1.6517 -1.8832  2.8734
  169SAPE  H18Y19094   6.971   4.230   4.055  0.7984  0.2876  5.1454
  169SAPE  H18Z19095   6.787   4.226   4.100  2.2492 -0.3738  2.9050
  170SAPE     N19096   6.077   6.113   2.060  0.7388  0.4590 -0.8425
  170SAPE   HN119097   5.998   6.054   2.024  1.6371 -1.1138 -0.3363
  170SAPE   HN219098   6.150   6.046   2.092  1.4711  1.8265  0.4290
  170SAPE   HN319099   6.046   6.164   2.145  1.3293 -3.1591  1.7603
  170SAPE   C1219100   6.138   6.207   1.960 -0.2363  0.3059  0.0809
  170SAPE  H12A19101   6.061   6.286   1.949  0.0125  0.9280  2.1995
  170SAPE  H12B19102   6.161   6.143   1.872  0.0321 -2.5858  2.0889
  170SAPE   C1119103   6.256   6.278   2.035 -0.5144 -0.2161  0.3257
  170SAPE  H11A19104   6.218   6.338   2.120 -0.2085 -0.1649  0.4300
  170SAPE  H11B19105   6.290   6.345   1.953 -0.6118 -0.7440 -0.1543
  170SAPE     P19106   6.507   6.244   2.126  0.2489  0.0325 -0.0202
  170SAPE   O1319107   6.600   6.139   2.175 -0.0911  0.0677 -0.2259
  170SAPE   O1419108   6.566   6.338   2.028 -0.6262  0.3919 -0.4256
  170SAPE   O1219109   6.367   6.190   2.075 -0.5879 -0.0292  0.0019
  170SAPE   O1119110   6.454   6.322   2.253 -0.5041  0.2017  0.1845
  170SAPE    C119111   6.391   6.258   2.361  0.2717 -0.1689 -0.5268
  170SAPE    HA19112   6.296   6.207   2.332 -0.6296  1.9422 -1.5435
  170SAPE    HB19113   6.461   6.184   2.404  0.6977  0.6439  0.2082
  170SAPE    C219114   6.360   6.359   2.472 -0.0133 -0.3535  0.8075
  170SAPE    HS19115   6.295   6.441   2.436 -0.3343 -0.5981  0.8270
  170SAPE   O2119116   6.480   6.414   2.524  0.6798 -0.2199  0.3980
  170SAPE   C2119117   6.521   6.533   2.481 -0.3549 -0.2127  0.5255
  170SAPE   O2219118   6.455   6.615   2.421 -0.3592 -0.0558  0.0089
  170SAPE   C2219119   6.664   6.558   2.517  0.0393 -0.9043  0.2707
  170SAPE   H2R19120   6.718   6.461   2.516 -1.6042 -1.8969  1.6218
  170SAPE   H2S19121   6.718   6.615   2.439 -1.1826  1.3888  1.0340
  170SAPE    C319122   6.284   6.293   2.585  0.5136  0.2159 -0.3198
  170SAPE    HX19123   6.340   6.200   2.609  1.2494  0.2745 -1.6997
  170SAPE    HY19124   6.185   6.259   2.548 -0.3842 -0.4118  2.4595
  170SAPE   O3119125   6.269   6.391   2.692  0.1916 -0.2226 -0.1279
  170SAPE   C3119126   6.253   6.326   2.808  0.1580 -0.5389  0.1509
  170SAPE   O3219127   6.269   6.204   2.823 -0.5761  0.2316  1.1335
  170SAPE   C3219128   6.193   6.432   2.906  0.7794  0.0225  0.8390
  170SAPE   H2X19129   6.104   6.470   2.851  0.2566 -1.7435  0.3878
  170SAPE   H2Y19130   6.269   6.510   2.927  0.7758  0.4005 -0.4472
  170SAPE   C2319131   6.680   6.656   2.643 -0.2912  0.8422 -0.9761
  170SAPE   H3R19132   6.590   6.722   2.641  0.6032  2.0966 -0.5867
  170SAPE   H3S19133   6.770   6.716   2.616  0.3339  0.1794 -0.3955
  170SAPE   C2419134   6.712   6.591   2.779 -0.3626 -0.5857 -0.6898
  170SAPE   H4R19135   6.749   6.676   2.840  1.1848 -1.1190 -0.8516
  170SAPE   H4S19136   6.803   6.530   2.762 -1.1101 -1.3233 -2.2623
  170SAPE   C2519137   6.611   6.495   2.835 -0.2038 -0.1736  0.4299
  170SAPE   H5R19138   6.566   6.432   2.757 -0.2184  1.2011 -0.7133
  170SAPE   C2619139   6.592   6.471   2.967 -0.4570  0.0237  0.2284
  170SAPE   H6R19140   6.510   6.407   3.001  0.4866 -0.8019  1.0274
  170SAPE   C2719141   6.652   6.542   3.085 -0.5383 -0.3183 -0.0965
  170SAPE   H7R19142   6.750   6.593   3.068 -0.4219 -0.5581 -0.1574
  170SAPE   H7S19143   6.659   6.458   3.158 -1.0353 -0.2167  0.0715
  170SAPE   C2819144   6.546   6.631   3.150 -0.3789 -0.4156 -0.3026
  170SAPE   H8R19145   6.511   6.715   3.089  0.0446 -0.7571 -1.0281
  170SAPE   C2919146   6.512   6.634   3.281 -0.3350  0.3907 -0.2133
  170SAPE   H9R19147   6.438   6.712   3.303  2.6580  3.1064  0.9115
  170SAPE  C21019148   6.536   6.545   3.396  0.3492 -0.5935  0.0137
  170SAPE  H10R19149   6.573   6.606   3.482  0.1519  0.9924 -0.9866
  170SAPE  H10S19150   6.609   6.464   3.375  1.0631 -0.2740  1.1312
  170SAPE  C21119151   6.412   6.467   3.419 -0.0283 -0.3296  0.4058
  170SAPE  H11R19152   6.344   6.459   3.333 -1.0919 -1.5066  1.3110
  170SAPE  C21219153   6.387   6.406   3.534  0.1034 -0.2459 -0.1364
  170SAPE  H12R19154   6.295   6.345   3.538  0.5274 -0.8473  1.6030
  170SAPE  C21319155   6.474   6.392   3.647  0.8903 -0.1293  0.1778
  170SAPE  H13R19156   6.576   6.413   3.609  1.4175 -1.9667  0.4792
  170SAPE  H13S19157   6.460   6.285   3.674  0.4024  0.3166  1.7817
  170SAPE  C21419158   6.440   6.471   3.767 -0.3329 -0.6110 -0.2759
  170SAPE  H14R19159   6.364   6.551   3.759 -2.1667 -2.2491 -0.1225
  170SAPE  C21519160   6.489   6.448   3.892  0.8049 -0.3249  0.6264
  170SAPE  H15R19161   6.486   6.525   3.970  1.0525 -0.3856  0.6975
  170SAPE  C21619162   6.589   6.342   3.934  0.3370  0.4001 -0.2813
  170SAPE  H16R19163   6.681   6.396   3.963 -0.6876  2.6184 -1.0091
  170SAPE  H16S19164   6.626   6.283   3.847  2.0096 -1.2173  1.4252
  170SAPE  C21719165   6.536   6.231   4.034 -0.8964  0.3638  0.1808
  170SAPE  H17R19166   6.617   6.157   4.052  0.5121  1.2352 -2.1316
  170SAPE  H17S19167   6.467   6.165   3.978  0.0636  0.0040 -0.5986
  170SAPE  C21819168   6.489   6.287   4.174 -0.3616 -0.0718 -0.2252
  170SAPE  H18R19169   6.387   6.329   4.171 -0.8953 -1.0140  2.2760
  170SAPE  H18S19170   6.565   6.359   4.211 -0.2712  0.0894 -0.7128
  170SAPE  C21919171   6.477   6.174   4.272  0.0404 -0.3309  0.3827
  170SAPE  H19R19172   6.577   6.126   4.278  0.6850  0.8711 -0.3549
  170SAPE  H19S19173   6.408   6.102   4.220  0.4128  0.5580 -1.4363
  170SAPE  C22019174   6.430   6.223   4.412 -0.0122  0.4586 -0.4635
  170SAPE  H20R19175   6.428   6.139   4.484  0.4521  2.8295  2.5023
  170SAPE  H20S19176   6.328   6.267   4.415 -0.4453 -0.4605  3.3048
  170SAPE  H20T19177   6.511   6.291   4.446  1.6166 -0.6691 -1.8550
  170SAPE   C3319178   6.139   6.363   3.028  0.7481  0.6843  0.6582
  170SAPE   H3X19179   6.217   6.313   3.089  1.3193  0.2613 -0.3928
  170SAPE   H3Y19180   6.058   6.292   2.997  0.5598 -0.1835  2.9618
  170SAPE   C3419181   6.070   6.465   3.122  0.4472  0.0660  0.5788
  170SAPE   H4X19182   5.994   6.521   3.064  0.6039  0.9030  1.1582
  170SAPE   H4Y19183   6.139   6.548   3.148  0.3109  1.2072 -2.2993
  170SAPE   C3519184   5.993   6.417   3.246 -0.0849 -0.3165  0.9638
  170SAPE   H5X19185   6.063   6.380   3.323  1.4986  1.7911  0.6393
  170SAPE   H5Y19186   5.918   6.338   3.223 -2.9416  2.6386 -0.7178
  170SAPE   C3619187   5.914   6.540   3.301 -0.7319 -0.1375 -0.1084
  170SAPE   H6X19188   5.840   6.504   3.376  1.0572 -1.9117  0.9148
  170SAPE   H6Y19189   5.864   6.592   3.217  1.0629 -2.4277 -2.7527
  170SAPE   C3719190   5.996   6.649   3.385  0.4079  1.0383  0.1815
  170SAPE   H7X19191   5.937   6.737   3.351 -1.5149  0.1661  1.0711
  170SAPE   H7Y19192   6.102   6.666   3.358  0.1736  0.9614 -0.8140
  170SAPE   C3819193   5.969   6.636   3.538 -0.1081 -0.3866 -0.4206
  170SAPE   H8X19194   5.858   6.628   3.548 -0.0900  0.4164  0.4409
  170SAPE   H8Y19195   6.004   6.729   3.586 -1.1918 -0.5160  0.6733
  170SAPE   C3919196   6.047   6.526   3.603 -0.2618  0.2787  0.0379
  170SAPE   H9X19197   6.157   6.541   3.601 -0.0434 -1.2106 -0.7026
  170SAPE   H9Y19198   6.021   6.432   3.549  0.2301  1.3524 -2.1719
  170SAPE  C31019199   6.019   6.512   3.755  0.0517 -0.0408  0.1657
  170SAPE  H10X19200   5.908   6.507   3.758 -0.0844 -0.7428 -2.9219
  170SAPE  H10Y19201   6.046   6.609   3.801 -0.2310 -0.5447  1.4588
  170SAPE  C31119202   6.090   6.395   3.830  0.2443 -0.2239 -0.1302
  170SAPE  H11X19203   6.194   6.396   3.789  0.7559  2.0177  1.0926
  170SAPE  H11Y19204   6.042   6.298   3.806  0.2794 -0.7066  1.6419
  170SAPE  C31219205   6.099   6.423   3.981  0.4127 -0.0027  0.6585
  170SAPE  H12X19206   6.144   6.521   4.008  1.7028 -0.8302  1.5770
  170SAPE  H12Y19207   6.172   6.349   4.019  0.4260 -1.2421 -1.6223
  170SAPE  C31319208   5.973   6.403   4.068 -0.2480 -0.8795  0.1934
  170SAPE  H13X19209   5.938   6.298   4.065 -0.2727 -0.9136  1.1337
  170SAPE  H13Y19210   5.893   6.463   4.019  0.0717 -0.6152 -0.0102
  170SAPE  C31419211   5.980   6.455   4.211  0.0306  0.5180  0.4890
  170SAPE  H14X19212   5.875   6.484   4.232 -0.2692 -0.1853  0.0266
  170SAPE  H14Y19213   6.039   6.549   4.211  1.2013 -0.1389 -1.7547
  170SAPE  C31519214   6.038   6.362   4.314  1.0055  0.1493 -0.1906
  170SAPE  H15X19215   6.041   6.426   4.405 -0.9180 -2.1377  1.6284
  170SAPE  H15Y19216   6.145   6.345   4.291  0.9234  0.4606 -0.8304
  170SAPE  C31619217   5.972   6.225   4.329  0.4243 -0.3305  0.6997
  170SAPE  H16X19218   6.040   6.169   4.397  2.6232  3.8056  2.2993
  170SAPE  H16Y19219   5.986   6.183   4.227  0.2793 -0.5213  0.7586
  170SAPE  C31719220   5.828   6.215   4.380  0.2067 -0.0204  0.0637
  170SAPE  H17X19221   5.811   6.109   4.407 -0.3096  0.3644  1.3159
  170SAPE  H17Y19222   5.761   6.245   4.297  0.8913 -1.1639 -0.9246
  170SAPE  C31819223   5.794   6.312   4.489 -0.8480 -0.0956 -0.0554
  170SAPE  H18X19224   5.781   6.414   4.449  2.0674 -0.0482 -1.1267
  170SAPE  H18Y19225   5.869   6.319   4.571 -0.1810  1.1781 -0.7440
  170SAPE  H18Z19226   5.693   6.294   4.533 -1.7109  0.6795 -1.6542
  171SAPE     N19227   5.087   6.107   2.168 -0.0925 -0.2918  0.5087
  171SAPE   HN119228   5.108   6.006   2.156 -2.8151 -1.3751  3.4504
  171SAPE   HN219229   4.991   6.108   2.209 -1.0312  1.5461 -1.4935
  171SAPE   HN319230   5.074   6.158   2.078 -1.5290 -0.3743  0.6387
  171SAPE   C1219231   5.186   6.173   2.255 -0.3737 -0.1020 -0.1843
  171SAPE  H12A19232   5.287   6.162   2.209 -0.0698  0.7582  0.2565
  171SAPE  H12B19233   5.201   6.115   2.349 -1.1293 -0.6376 -0.3890
  171SAPE   C1119234   5.154   6.320   2.293  0.7113  0.4536  0.1018
  171SAPE  H11A19235   5.249   6.346   2.344  0.0863 -0.3184  1.7506
  171SAPE  H11B19236   5.068   6.336   2.362 -0.4954  0.2874 -1.2996
  171SAPE     P19237   5.114   6.545   2.176  0.0688 -0.4899  0.0495
  171SAPE   O1319238   5.088   6.589   2.034  0.0971  0.0669  0.0416
  171SAPE   O1419239   5.015   6.576   2.286  0.0550  0.1628 -0.2893
  171SAPE   O1219240   5.138   6.387   2.168 -0.3799  0.3739 -0.4991
  171SAPE   O1119241   5.260   6.584   2.218 -0.2818 -0.1867 -0.0773
  171SAPE    C119242   5.281   6.653   2.344 -0.2782  0.4458 -0.1928
  171SAPE    HA19243   5.252   6.759   2.332  0.0857  0.3614 -2.2468
  171SAPE    HB19244   5.239   6.600   2.432 -1.1076  2.5479  0.7332
  171SAPE    C219245   5.431   6.643   2.374  0.4651 -0.1395  0.4434
  171SAPE    HS19246   5.480   6.705   2.296 -0.6969  1.0037  0.5854
  171SAPE   O2119247   5.469   6.501   2.359 -0.8122 -0.6434 -0.0413
  171SAPE   C2119248   5.602   6.481   2.361 -0.1974 -0.2440  0.3622
  171SAPE   O2219249   5.684   6.570   2.349  0.2516  0.5410  0.1879
  171SAPE   C2219250   5.646   6.335   2.365 -0.1899 -1.0815  0.2700
  171SAPE   H2R19251   5.688   6.310   2.265 -1.0646 -3.9935  0.5265
  171SAPE   H2S19252   5.727   6.331   2.442 -0.6521  0.8443  0.9084
  171SAPE    C319253   5.472   6.708   2.520 -0.7657  0.6670 -0.3850
  171SAPE    HX19254   5.431   6.809   2.497 -2.9938  0.4756  2.1173
  171SAPE    HY19255   5.579   6.711   2.547 -1.0704 -2.9650  1.8693
  171SAPE   O3119256   5.399   6.648   2.630  0.2276 -0.7613 -0.3952
  171SAPE   C3119257   5.372   6.739   2.726  0.4696 -0.6841 -1.1512
  171SAPE   O3219258   5.424   6.847   2.752 -0.4411  0.3418  0.7799
  171SAPE   C3219259   5.253   6.680   2.806 -0.1835  0.0633 -0.2330
  171SAPE   H2X19260   5.268   6.572   2.828 -0.2760 -0.0316 -0.6217
  171SAPE   H2Y19261   5.169   6.686   2.733  1.2699  0.2137 -1.9670
  171SAPE   C2319262   5.540   6.226   2.395 -0.3644 -0.4283 -0.4075
  171SAPE   H3R19263   5.593   6.135   2.359  0.5970  0.1342 -0.4692
  171SAPE   H3S19264   5.451   6.253   2.335 -0.5517  1.6934  0.7278
  171SAPE   C2419265   5.497   6.205   2.551 -0.7732  0.8707  0.1675
  171SAPE   H4R19266   5.495   6.302   2.606 -2.4959  0.2352  1.3308
  171SAPE   H4S19267   5.581   6.142   2.587 -3.0779 -2.4652  0.1485
  171SAPE   C2519268   5.377   6.115   2.572  0.6192 -0.2108 -1.4504
  171SAPE   H5R19269   5.388   6.010   2.542 -0.8568 -1.7357  2.6276
  171SAPE   C2619270   5.272   6.158   2.648  0.1204  0.2638  0.3623
  171SAPE   H6R19271   5.185   6.093   2.658  0.7562 -0.7716 -0.5982
  171SAPE   C2719272   5.255   6.294   2.714  0.5656  0.1427 -0.4747
  171SAPE   H7R19273   5.330   6.371   2.684 -0.1303  0.1676 -2.2951
  171SAPE   H7S19274   5.281   6.272   2.819  3.5603 -0.5015 -1.2323
  171SAPE   C2819275   5.120   6.357   2.697 -0.4834 -0.4091  0.0618
  171SAPE   H8R19276   5.135   6.460   2.661  2.6130 -0.1883  1.6322
  171SAPE   C2919277   5.010   6.336   2.774 -0.3974 -0.0819 -0.1048
  171SAPE   H9R19278   4.917   6.391   2.751 -1.6758 -2.3580 -0.6489
  171SAPE  C21019279   4.988   6.227   2.871 -0.0697 -0.3116 -0.0138
  171SAPE  H10R19280   4.942   6.279   2.958 -0.2853 -0.6007  0.0452
  171SAPE  H10S19281   5.087   6.190   2.906  0.7161  0.9739 -0.8049
  171SAPE  C21119282   4.899   6.114   2.828  0.1188  0.0468  0.2882
  171SAPE  H11R19283   4.832   6.151   2.749 -1.0530  0.3123  1.3913
  171SAPE  C21219284   4.914   5.980   2.846 -0.0929 -0.1314  0.2421
  171SAPE  H12R19285   4.831   5.916   2.813  0.5306 -2.5267  2.9967
  171SAPE  C21319286   5.012   5.918   2.945  0.5709  0.1179 -0.1199
  171SAPE  H13R19287   5.099   5.981   2.970 -0.8720  1.3022  2.3268
  171SAPE  H13S19288   5.050   5.823   2.902  1.3647  1.3953 -2.4197
  171SAPE  C21419289   4.941   5.872   3.070  0.4122  0.0381 -0.9955
  171SAPE  H14R19290   4.865   5.948   3.096  1.0522  0.3675 -0.0486
  171SAPE  C21519291   4.964   5.753   3.137 -0.2381  0.8691 -0.4504
  171SAPE  H15R19292   4.910   5.716   3.225  1.5310 -2.0444 -0.4620
  171SAPE  C21619293   5.071   5.647   3.109 -0.0853  0.2289  0.8624
  171SAPE  H16R19294   5.151   5.702   3.055 -0.0725  0.4583  1.1161
  171SAPE  H16S19295   5.031   5.575   3.034 -0.5520  1.2987  0.0582
  171SAPE  C21719296   5.129   5.576   3.231  0.6516 -0.0527  0.0362
  171SAPE  H17R19297   5.045   5.536   3.291 -1.0740  1.1818 -1.4574
  171SAPE  H17S19298   5.191   5.638   3.299 -1.4080  0.5066  1.4997
  171SAPE  C21819299   5.212   5.451   3.180  0.0491 -0.7669 -0.4706
  171SAPE  H18R19300   5.305   5.489   3.132 -1.9227  4.3323 -0.9129
  171SAPE  H18S19301   5.148   5.399   3.106 -1.3231  1.0911 -0.6769
  171SAPE  C21919302   5.245   5.354   3.291  0.8480 -0.8219 -0.6700
  171SAPE  H19R19303   5.312   5.276   3.248 -0.6749 -1.9291 -1.0918
  171SAPE  H19S19304   5.161   5.295   3.332 -0.0336  0.8867  0.0874
  171SAPE  C22019305   5.321   5.403   3.415 -0.0494 -0.7041 -0.1016
  171SAPE  H20R19306   5.420   5.437   3.376  0.3608 -0.5012  1.0671
  171SAPE  H20S19307   5.339   5.317   3.483 -2.3927 -0.0222  1.4903
  171SAPE  H20T19308   5.267   5.487   3.463  1.1596  0.3672 -0.5503
  171SAPE   C3319309   5.221   6.762   2.929 -0.2325  0.2039 -0.5536
  171SAPE   H3X19310   5.225   6.871   2.907  0.9584  0.1440 -0.7306
  171SAPE   H3Y19311   5.291   6.733   3.010  1.7168  0.3485 -2.1073
  171SAPE   C3419312   5.082   6.742   2.992 -0.2123  0.7979  0.8611
  171SAPE   H4X19313   5.014   6.709   2.910  0.3716  0.9514  0.3120
  171SAPE   H4Y19314   5.042   6.836   3.035  0.2599  2.3110 -1.8333
  171SAPE   C3519315   5.081   6.614   3.079  0.4122 -0.2752  0.0220
  171SAPE   H5X19316   5.158   6.622   3.158  0.3267  0.3929  0.0406
  171SAPE   H5Y19317   5.105   6.530   3.011 -0.2656  0.3594 -1.0335
  171SAPE   C3619318   4.953   6.583   3.145 -0.0560  0.6821  0.6742
  171SAPE   H6X19319   4.866   6.572   3.077 -0.3571 -1.7387  1.3559
  171SAPE   H6Y19320   4.936   6.663   3.221 -0.1327  2.1528 -0.8415
  171SAPE   C3719321   4.979   6.441   3.215  0.7167 -0.2198 -0.2869
  171SAPE   H7X19322   5.060   6.454   3.291 -0.4549  1.3401  0.7595
  171SAPE   H7Y19323   5.014   6.381   3.128 -0.1285  0.5417 -1.1754
  171SAPE   C3819324   4.852   6.389   3.286  0.2676 -0.1230 -0.0803
  171SAPE   H8X19325   4.863   6.281   3.311 -0.0107 -0.0165  0.4959
  171SAPE   H8Y19326   4.764   6.405   3.221 -0.6027 -2.9253  0.2830
  171SAPE   C3919327   4.803   6.473   3.410 -0.1365 -0.1406 -0.0963
  171SAPE   H9X19328   4.762   6.568   3.370  0.6576  0.6472  0.9044
  171SAPE   H9Y19329   4.889   6.486   3.479  0.1860  1.3173 -0.7379
  171SAPE  C31019330   4.694   6.414   3.486  0.0377  0.3799 -0.0061
  171SAPE  H10X19331   4.732   6.320   3.531 -0.2616  0.6233  0.7657
  171SAPE  H10Y19332   4.613   6.385   3.415 -0.3425 -2.0147  1.2836
  171SAPE  C31119333   4.650   6.498   3.607 -0.4553 -1.1211 -0.1178
  171SAPE  H11X19334   4.634   6.600   3.565 -0.2225 -1.3909 -0.8703
  171SAPE  H11Y19335   4.739   6.489   3.672 -0.1019 -0.7818 -0.5461
  171SAPE  C31219336   4.519   6.448   3.673  1.2751 -0.7195  0.3186
  171SAPE  H12X19337   4.456   6.382   3.610 -1.6411  0.0455  2.2295
  171SAPE  H12Y19338   4.454   6.528   3.715  1.0887 -0.4235 -0.5159
  171SAPE  C31319339   4.551   6.361   3.792 -0.5125 -0.0146 -0.0542
  171SAPE  H13X19340   4.628   6.421   3.845  1.0758 -0.7652 -1.4187
  171SAPE  H13Y19341   4.602   6.273   3.747 -1.5575 -1.4256  1.4294
  171SAPE  C31419342   4.431   6.332   3.873 -0.4255 -0.7211 -0.3583
  171SAPE  H14X19343   4.348   6.302   3.806  0.3056  0.6462 -1.9698
  171SAPE  H14Y19344   4.413   6.425   3.930  0.9185 -0.0102 -1.0348
  171SAPE  C31519345   4.443   6.211   3.969 -0.1532 -0.0473 -0.4406
  171SAPE  H15X19346   4.466   6.124   3.904 -2.0841 -0.6127 -0.4075
  171SAPE  H15Y19347   4.348   6.182   4.018 -0.3157  0.9474 -0.1405
  171SAPE  C31619348   4.545   6.238   4.079 -0.6771 -0.1194  0.2506
  171SAPE  H16X19349   4.506   6.336   4.116 -2.4098 -1.3732  1.9848
  171SAPE  H16Y19350   4.646   6.242   4.034 -0.7840 -0.9358 -0.0717
  171SAPE  C31719351   4.553   6.139   4.191 -0.0629  0.1223  0.7578
  171SAPE  H17X19352   4.580   6.040   4.148 -2.5824  0.0661 -0.9214
  171SAPE  H17Y19353   4.454   6.112   4.234 -0.4637 -1.4251 -1.0103
  171SAPE  C31819354   4.635   6.184   4.312  0.1741  0.3845 -1.4273
  171SAPE  H18X19355   4.595   6.260   4.383  1.2060 -1.8290  1.7620
  171SAPE  H18Y19356   4.743   6.199   4.290  0.3976 -0.0980 -0.7031
  171SAPE  H18Z19357   4.640   6.094   4.378  0.5233  0.7533 -0.9445
  172SAPE     N19358   0.063   0.523   2.232  0.3519  0.1370  0.2207
  172SAPE   HN119359   0.134   0.453   2.202 -1.7646 -1.8531 -0.4763
  172SAPE   HN219360  -0.029   0.476   2.248  1.2039 -1.3896  0.8856
  172SAPE   HN319361   0.054   0.595   2.158 -0.9432  2.3130  2.3264
  172SAPE   C1219362   0.086   0.600   2.360  0.5614 -0.5563  0.2025
  172SAPE  H12A19363   0.157   0.680   2.328 -0.7118  1.3667  1.9336
  172SAPE  H12B19364   0.125   0.534   2.440 -1.6313  0.3939  2.1748
  172SAPE   C1119365  -0.049   0.665   2.414  0.1473 -0.0263 -0.3522
  172SAPE  H11A19366  -0.020   0.730   2.500 -0.0369 -2.8621  1.9811
  172SAPE  H11B19367  -0.112   0.584   2.457  0.4900 -0.1769 -0.1345
  172SAPE     P19368  -0.248   0.813   2.335  0.4515 -0.2979  0.1902
  172SAPE   O1319369  -0.198   0.952   2.343  0.2527  0.4488  0.2616
  172SAPE   O1419370  -0.344   0.783   2.226 -0.0802  0.4198  0.3390
  172SAPE   O1219371  -0.120   0.727   2.313 -0.3847  0.0921 -0.2080
  172SAPE   O1119372  -0.311   0.760   2.465 -0.0549  0.1913 -0.2704
  172SAPE    C119373  -0.347   0.834   2.580 -0.7983 -0.2922  0.6916
  172SAPE    HA19374  -0.317   0.941   2.580  2.7190 -1.1378  0.1228
  172SAPE    HB19375  -0.457   0.834   2.594 -0.8720 -0.5805  0.1247
  172SAPE    C219376  -0.275   0.778   2.703  0.7272 -0.0299  0.3184
  172SAPE    HS19377  -0.177   0.830   2.711  0.5931  0.2113  0.4199
  172SAPE   O2119378  -0.264   0.632   2.688 -0.2120 -0.0502 -0.0013
  172SAPE   C2119379  -0.152   0.579   2.728  0.6154 -0.5089  0.0697
  172SAPE   O2219380  -0.055   0.645   2.767 -0.0824 -0.0234 -0.0678
  172SAPE   C2219381  -0.152   0.423   2.709 -0.1522 -0.1221  0.9183
  172SAPE   H2R19382  -0.164   0.400   2.601  1.4591 -1.8811  1.0680
  172SAPE   H2S19383  -0.056   0.373   2.732  0.4487 -0.1520 -1.3769
  172SAPE    C319384  -0.360   0.815   2.834 -0.1675  0.4984  0.2454
  172SAPE    HX19385  -0.456   0.759   2.836  1.2382 -2.1503 -1.2156
  172SAPE    HY19386  -0.390   0.922   2.826 -1.3304  0.1077 -0.8436
  172SAPE   O3119387  -0.294   0.777   2.959 -0.2375 -0.1499  0.6463
  172SAPE   C3119388  -0.234   0.872   3.021  0.7438  0.0718  0.0283
  172SAPE   O3219389  -0.237   0.989   2.987  0.3962 -0.1362 -0.2517
  172SAPE   C3219390  -0.168   0.819   3.144 -0.7224  0.0427 -0.0311
  172SAPE   H2X19391  -0.074   0.765   3.121 -0.9821 -0.2735 -0.3668
  172SAPE   H2Y19392  -0.241   0.757   3.201  1.9103 -2.1679  1.1737
  172SAPE   C2319393  -0.261   0.370   2.801 -0.0416 -0.8229 -0.4745
  172SAPE   H3R19394  -0.359   0.422   2.790 -2.3852 -4.5857  0.9592
  172SAPE   H3S19395  -0.227   0.371   2.906  0.2633  0.5075 -0.5567
  172SAPE   C2419396  -0.298   0.218   2.777  0.6733 -0.0782 -0.1635
  172SAPE   H4R19397  -0.367   0.218   2.690  1.3291 -2.3457 -0.7460
  172SAPE   H4S19398  -0.362   0.185   2.862  1.2362  2.7229  1.4816
  172SAPE   C2519399  -0.177   0.130   2.750  0.2940  0.0604  0.4932
  172SAPE   H5R19400  -0.162   0.107   2.643  0.4506  1.6310  0.1504
  172SAPE   C2619401  -0.097   0.073   2.840 -0.3140  0.1359 -0.2934
  172SAPE   H6R19402   0.003   0.034   2.816 -0.1459  0.5411 -0.2559
  172SAPE   C2719403  -0.124   0.084   2.992  0.2299  1.0655  0.1409
  172SAPE   H7R19404  -0.221   0.032   3.006 -0.2679  1.6295 -1.0491
  172SAPE   H7S19405  -0.143   0.191   3.016 -1.8378  0.2723  2.5921
  172SAPE   C2819406  -0.008   0.032   3.076 -0.5883  0.4085  0.1789
  172SAPE   H8R19407   0.079   0.003   3.014 -1.0412  0.9095 -0.7171
  172SAPE   C2919408  -0.006   0.010   3.208 -0.0634 -0.7119 -0.4272
  172SAPE   H9R19409   0.083  -0.033   3.256  0.4978  1.6428  0.7519
  172SAPE  C21019410  -0.125   0.029   3.294  0.1693 -0.4605  0.2463
  172SAPE  H10R19411  -0.167  -0.065   3.337 -1.3904  1.1490  2.4924
  172SAPE  H10S19412  -0.216   0.067   3.243  0.0225  0.2375  0.9987
  172SAPE  C21119413  -0.090   0.131   3.398  0.7841 -0.4366  0.6276
  172SAPE  H11R19414  -0.052   0.226   3.357  0.5067 -0.3591  0.5449
  172SAPE  C21219415  -0.107   0.125   3.531  0.0500  0.0150  0.0549
  172SAPE  H12R19416  -0.088   0.209   3.599  0.0367 -0.0763  0.1701
  172SAPE  C21319417  -0.167   0.006   3.606  0.4630  0.1141 -0.3924
  172SAPE  H13R19418  -0.268  -0.022   3.572 -0.0652  1.9576 -0.4546
  172SAPE  H13S19419  -0.186   0.032   3.713  2.3226  0.8976 -0.2046
  172SAPE  C21419420  -0.066  -0.106   3.598  0.8613  0.7533  0.3336
  172SAPE  H14R19421  -0.077  -0.162   3.504 -0.8024 -2.4220  2.2675
  172SAPE  C21519422   0.025  -0.141   3.689  0.8338  0.3888  0.0185
  172SAPE  H15R19423   0.078  -0.237   3.687  0.5656  0.1842  1.4064
  172SAPE  C21619424   0.042  -0.091   3.830 -0.6878 -0.2065  0.9736
  172SAPE  H16R19425  -0.018   0.000   3.854  1.9903  1.7257  0.7504
  172SAPE  H16S19426   0.149  -0.068   3.848 -0.2578 -2.1723  1.1162
  172SAPE  C21719427  -0.006  -0.200   3.930 -0.4371 -0.5568  0.1131
  172SAPE  H17R19428   0.076  -0.274   3.938  0.6984  0.5963 -0.5355
  172SAPE  H17S19429  -0.099  -0.251   3.896 -0.1111 -0.3624 -1.1242
  172SAPE  C21819430  -0.035  -0.144   4.072  0.2409 -0.0923  0.6879
  172SAPE  H18R19431  -0.097  -0.052   4.067  1.4260  0.7790  1.4692
  172SAPE  H18S19432   0.061  -0.121   4.123 -0.5312 -0.7320  2.4834
  172SAPE  C21919433  -0.090  -0.259   4.156  0.3678  0.0775 -0.2196
  172SAPE  H19R19434  -0.031  -0.348   4.127 -2.5361 -1.8180 -0.7129
  172SAPE  H19S19435  -0.193  -0.279   4.120  0.9743 -1.5780 -1.1172
  172SAPE  C22019436  -0.093  -0.234   4.305  0.1102 -0.7431  0.1263
  172SAPE  H20R19437  -0.148  -0.315   4.357  0.2411 -0.2464  1.0716
  172SAPE  H20S19438  -0.143  -0.136   4.322  2.0773  0.6085 -1.4056
  172SAPE  H20T19439   0.002  -0.231   4.362  0.1357 -2.1086  0.1857
  172SAPE   C3319440  -0.139   0.940   3.245  0.4012  0.2948 -0.3633
  172SAPE   H3X19441  -0.242   0.976   3.262  0.5556  0.5394  0.0570
  172SAPE   H3Y19442  -0.074   1.015   3.196  1.2136 -0.2116 -0.0838
  172SAPE   C3419443  -0.076   0.898   3.380  0.5813  0.1263 -0.6038
  172SAPE   H4X19444  -0.154   0.840   3.434  0.5840  0.4066 -0.2911
  172SAPE   H4Y19445  -0.049   0.983   3.447  1.1045  0.1924 -0.8925
  172SAPE   C3519446   0.048   0.807   3.365 -0.0992 -0.0441  0.6982
  172SAPE   H5X19447   0.123   0.872   3.314 -0.3403  2.0894  2.8302
  172SAPE   H5Y19448   0.035   0.716   3.304  0.1099 -1.0006  2.0297
  172SAPE   C3619449   0.091   0.763   3.499  0.2932  0.3843 -0.6744
  172SAPE   H6X19450   0.068   0.842   3.573  1.6853  0.3160 -0.1425
  172SAPE   H6Y19451   0.201   0.747   3.495  0.3392 -0.1137  1.3865
  172SAPE   C3719452   0.034   0.619   3.534 -0.3361 -0.4761  0.2789
  172SAPE   H7X19453   0.049   0.554   3.445 -3.3473 -0.2514 -0.4971
  172SAPE   H7Y19454  -0.077   0.619   3.536 -0.3248 -0.3259  1.5608
  172SAPE   C3819455   0.089   0.571   3.664 -0.2499  0.0115 -0.8120
  172SAPE   H8X19456   0.061   0.634   3.751  0.8622 -0.3504 -0.1635
  172SAPE   H8Y19457   0.200   0.567   3.666 -0.2497  0.0159  0.5306
  172SAPE   C3919458   0.043   0.425   3.708 -0.0015 -0.2459 -0.1741
  172SAPE   H9X19459   0.081   0.353   3.633  1.1366 -0.3703  0.5009
  172SAPE   H9Y19460  -0.068   0.415   3.708 -0.1732  1.3282  0.6615
  172SAPE  C31019461   0.102   0.374   3.844  0.2427  0.7879 -0.7118
  172SAPE  H10X19462   0.077   0.444   3.927 -0.2313 -1.3432  1.0371
  172SAPE  H10Y19463   0.212   0.382   3.841  0.2963  1.1573  1.2982
  172SAPE  C31119464   0.078   0.223   3.873  0.4725  0.3036 -0.8260
  172SAPE  H11X19465   0.135   0.165   3.798 -0.9930 -1.1322 -0.8710
  172SAPE  H11Y19466  -0.030   0.196   3.873  0.8753 -1.4360 -1.8904
  172SAPE  C31219467   0.130   0.182   4.013 -0.4627 -0.1972  0.6586
  172SAPE  H12X19468   0.239   0.202   4.000 -0.9836  1.4246 -1.9125
  172SAPE  H12Y19469   0.107   0.075   4.030  1.4313 -0.5766  1.1264
  172SAPE  C31319470   0.093   0.272   4.129 -0.0577 -0.2139 -0.8682
  172SAPE  H13X19471  -0.018   0.271   4.129 -0.0791 -1.1834 -2.0475
  172SAPE  H13Y19472   0.123   0.379   4.124 -1.2305  0.1384 -0.6193
  172SAPE  C31419473   0.139   0.209   4.262 -0.0951  0.7047  0.1412
  172SAPE  H14X19474   0.246   0.182   4.246 -0.6983 -0.3248 -2.7275
  172SAPE  H14Y19475   0.101   0.104   4.270  0.7239  0.4460  0.8144
  172SAPE  C31519476   0.114   0.292   4.387  0.1821 -0.1946 -0.6905
  172SAPE  H15X19477   0.008   0.271   4.411  0.3703  0.7053  1.1029
  172SAPE  H15Y19478   0.126   0.402   4.381 -0.1763 -0.1079  0.1298
  172SAPE  C31619479   0.183   0.248   4.519  0.2560  0.0870 -0.0203
  172SAPE  H16X19480   0.129   0.300   4.601 -1.3847  0.2775 -1.1552
  172SAPE  H16Y19481   0.287   0.286   4.517  1.3744 -2.5998  1.9584
  172SAPE  C31719482   0.169   0.094   4.555 -0.1819  0.5255  0.3204
  172SAPE  H17X19483   0.213   0.040   4.469 -0.0335  1.9874 -0.5545
  172SAPE  H17Y19484   0.060   0.075   4.551 -0.0662 -0.1933  0.5309
  172SAPE  C31819485   0.238   0.067   4.689  0.0685  0.2709 -0.1480
  172SAPE  H18X19486   0.229  -0.041   4.714  0.0084  0.1481 -0.6913
  172SAPE  H18Y19487   0.179   0.115   4.769  0.4253  0.2160  0.1526
  172SAPE  H18Z19488   0.343   0.104   4.694  0.5016 -0.2218 -3.3203
  173SLPC     N19489   6.118   0.567   6.593 -0.1164  0.1572 -0.8766
  173SLPC   C1319490   6.066   0.668   6.690  0.0254  0.3987 -0.2438
  173SLPC  H13A19491   6.140   0.685   6.766 -0.1706  0.0762  0.0256
  173SLPC  H13B19492   6.057   0.765   6.644 -0.1104  0.3687 -0.2795
  173SLPC  H13C19493   5.972   0.636   6.733 -0.2166  2.6477  1.0157
  173SLPC   C1419494   6.012   0.536   6.494  1.7535 -0.0847 -0.3517
  173SLPC  H14A19495   5.971   0.621   6.440 -1.7087 -0.9119  0.7246
  173SLPC  H14B19496   6.039   0.471   6.412 -0.5147  1.5036 -2.5248
  173SLPC  H14C19497   5.922   0.498   6.541  2.6355  0.2317  1.6926
  173SLPC   C1519498   6.146   0.444   6.665 -0.1361  0.2527 -0.0727
  173SLPC  H15A19499   6.191   0.371   6.599  0.9712 -0.5755  1.5343
  173SLPC  H15B19500   6.214   0.459   6.748  1.8416  0.4429 -1.6288
  173SLPC  H15C19501   6.055   0.400   6.702  1.0228 -1.4829  0.8229
  173SLPC   C1219502   6.252   0.627   6.532 -0.4009  0.4544  0.1374
  173SLPC  H12A19503   6.319   0.550   6.497 -0.1447  0.2184  1.1283
  173SLPC  H12B19504   6.307   0.670   6.615 -2.1495 -1.8235  2.6423
  173SLPC   C1119505   6.251   0.745   6.430  0.2019  0.0961  0.0965
  173SLPC  H11A19506   6.196   0.716   6.338  1.6284  0.2135 -0.8200
  173SLPC  H11B19507   6.354   0.754   6.389  1.2904 -2.8563  1.8158
  173SLPC     P19508   6.293   0.962   6.576  0.3572  0.1956 -0.1992
  173SLPC   O1319509   6.215   1.075   6.618 -0.3565  0.0352  0.1736
  173SLPC   O1419510   6.356   0.884   6.686 -0.1710  0.5728  0.4407
  173SLPC   O1219511   6.204   0.861   6.498 -0.0434 -0.2175  0.1204
  173SLPC   O1119512   6.395   1.000   6.462  0.2278  0.7379  0.1745
  173SLPC    C119513   6.335   1.056   6.341  0.3566 -0.2321 -0.6207
  173SLPC    HA19514   6.269   0.977   6.298 -2.1123  0.6515  1.2651
  173SLPC    HB19515   6.279   1.151   6.351 -0.6184 -0.6828 -1.6097
  173SLPC    C219516   6.452   1.068   6.235  0.5110  0.2929 -0.5205
  173SLPC    HS19517   6.522   1.147   6.268 -0.2108  1.3294 -1.4074
  173SLPC   O2119518   6.390   1.083   6.113  0.1724  0.0952  0.7780
  173SLPC   C2119519   6.458   1.155   6.024 -0.0904 -0.1133 -0.2110
  173SLPC   O2219520   6.562   1.213   6.032 -0.4599 -0.0030  0.3836
  173SLPC   C2219521   6.376   1.162   5.898 -0.2065  0.1866  0.3443
  173SLPC   H2R19522   6.341   1.057   5.886  1.4060 -0.5813  1.8945
  173SLPC   H2S19523   6.291   1.234   5.907 -1.0397 -0.9433  2.1767
  173SLPC    C319524   6.551   0.941   6.225  0.3224 -0.2350  0.2962
  173SLPC    HX19525   6.495   0.851   6.259 -0.1455  0.0926  0.4058
  173SLPC    HY19526   6.621   0.959   6.308  0.5165  0.0690  0.0663
  173SLPC   O3119527   6.629   0.929   6.105 -0.1250 -0.0501  0.0461
  173SLPC   C3119528   6.584   0.839   6.023 -0.9490  0.2170  0.0641
  173SLPC   O3219529   6.485   0.764   6.040  0.3070  0.2321  0.1869
  173SLPC   C3219530   6.658   0.862   5.894  0.2353 -0.1393  0.5169
  173SLPC   H2X19531   6.768   0.874   5.908  0.4737  0.2059 -1.4492
  173SLPC   H2Y19532   6.627   0.964   5.863  3.0515  1.2266  1.7603
  173SLPC   C2319533   6.471   1.205   5.772  0.4127  1.1867  0.2897
  173SLPC   H3R19534   6.567   1.150   5.778 -0.5394 -0.6321 -0.3587
  173SLPC   H3S19535   6.490   1.314   5.774  1.1060  1.1609 -2.3695
  173SLPC   C2419536   6.393   1.169   5.648 -0.0142 -0.0738 -0.0754
  173SLPC   H4R19537   6.297   1.216   5.677  1.6513  1.6819  2.9867
  173SLPC   H4S19538   6.381   1.058   5.643 -2.8431  0.1534 -0.1033
  173SLPC   C2519539   6.448   1.205   5.510 -0.0354  0.2926 -0.2579
  173SLPC   H5R19540   6.539   1.142   5.498 -0.1602  0.0190  0.2251
  173SLPC   H5S19541   6.474   1.313   5.516  2.8085 -0.3951  2.1334
  173SLPC   C2619542   6.344   1.186   5.406 -0.3110  0.7345  0.7001
  173SLPC   H6R19543   6.270   1.269   5.406  2.3797  3.3456 -1.4802
  173SLPC   H6S19544   6.292   1.089   5.418  1.5946 -0.7685 -2.2237
  173SLPC   C2719545   6.400   1.176   5.267 -0.3458 -0.8867 -0.0341
  173SLPC   H7R19546   6.328   1.123   5.200 -0.2609  0.8460 -1.5584
  173SLPC   H7S19547   6.499   1.125   5.271  3.1066  4.7644 -2.3596
  173SLPC   C2819548   6.440   1.308   5.208  0.1320  0.1917 -0.3674
  173SLPC   H8R19549   6.506   1.291   5.121 -0.1653 -3.1893 -0.0869
  173SLPC   H8S19550   6.491   1.367   5.286  0.5080  0.3392 -0.7223
  173SLPC   C2919551   6.319   1.388   5.168  0.0813  0.0589  0.3119
  173SLPC   H9R19552   6.304   1.475   5.233  1.1183 -0.1788  0.8809
  173SLPC  C21019553   6.247   1.371   5.055 -0.4979 -0.1385 -0.1269
  173SLPC  H10R19554   6.147   1.417   5.045 -0.7005 -0.8749 -1.8103
  173SLPC  C21119555   6.268   1.259   4.956 -0.1118 -0.6052  0.0499
  173SLPC  H11R19556   6.350   1.189   4.982 -0.2234 -0.9359 -0.4886
  173SLPC  H11S19557   6.310   1.309   4.866  1.0368 -1.7014 -0.0474
  173SLPC  C21219558   6.143   1.175   4.932 -0.1683  0.0875 -0.1079
  173SLPC  H12R19559   6.102   1.135   5.025  0.4931 -0.7615 -0.1678
  173SLPC  C21319560   6.092   1.136   4.813 -0.3493  0.2450 -0.4052
  173SLPC  H13R19561   6.006   1.068   4.812  0.0752 -0.2921 -1.0858
  173SLPC  C21419562   6.154   1.183   4.681  0.3681 -0.0258  0.3752
  173SLPC  H14R19563   6.204   1.095   4.635  0.4040  0.7156 -1.0683
  173SLPC  H14S19564   6.228   1.266   4.685 -0.0785  0.4308 -0.6174
  173SLPC  C21519565   6.054   1.224   4.564  0.5424  0.3483 -0.3802
  173SLPC  H15R19566   5.995   1.137   4.529 -0.4686 -0.6034  3.2733
  173SLPC  H15S19567   6.110   1.261   4.475 -2.3255  3.6735 -1.0038
  173SLPC  C21619568   5.952   1.331   4.611  0.1986 -0.6140  0.2438
  173SLPC  H16R19569   6.002   1.387   4.693  0.2219 -0.9088  0.4321
  173SLPC  H16S19570   5.871   1.271   4.659 -0.0020 -1.2068 -0.8203
  173SLPC  C21719571   5.895   1.417   4.497  0.5795  0.1534  0.4143
  173SLPC  H17R19572   5.799   1.466   4.525  0.8417  1.8295 -1.3916
  173SLPC  H17S19573   5.883   1.363   4.400 -0.7905  1.5354 -0.2267
  173SLPC  C21819574   5.986   1.526   4.452 -0.9449 -0.5115  0.8020
  173SLPC  H18R19575   6.078   1.499   4.395 -0.9277  1.0404  0.0440
  173SLPC  H18S19576   6.031   1.579   4.538 -0.4614  2.1142 -0.9711
  173SLPC  H18T19577   5.935   1.600   4.387  1.2312 -0.5675 -1.0788
  173SLPC   C3319578   6.636   0.751   5.788 -0.3833  0.3430 -0.1206
  173SLPC   H3X19579   6.526   0.743   5.781 -0.4232 -0.4568  1.0278
  173SLPC   H3Y19580   6.693   0.657   5.804 -0.1408  0.5416  0.2012
  173SLPC   C3419581   6.683   0.814   5.653  0.4625 -0.2497 -0.2828
  173SLPC   H4X19582   6.786   0.854   5.666 -0.1495  1.2875  0.0352
  173SLPC   H4Y19583   6.606   0.891   5.634 -1.9817 -2.9089 -2.0219
  173SLPC   C3519584   6.676   0.708   5.533  0.4964  0.0278 -0.3074
  173SLPC   H5X19585   6.574   0.669   5.515  1.2852 -2.6490  0.5555
  173SLPC   H5Y19586   6.742   0.622   5.560  0.3145  0.1600  0.5771
  173SLPC   C3619587   6.734   0.766   5.402  0.7726  0.4785  0.0242
  173SLPC   H6X19588   6.840   0.796   5.417  0.7867  0.7181 -0.5585
  173SLPC   H6Y19589   6.670   0.856   5.388 -0.4103 -0.2625  0.4903
  173SLPC   C3719590   6.728   0.679   5.277  0.3500  0.2704  0.1261
  173SLPC   H7X19591   6.753   0.754   5.199  0.1525  1.1279  0.8805
  173SLPC   H7Y19592   6.622   0.645   5.267  0.2734  0.2555  0.9307
  173SLPC   C3819593   6.821   0.561   5.274  0.2077  0.3373 -0.3661
  173SLPC   H8X19594   6.779   0.461   5.247 -1.1780  0.6590  0.5261
  173SLPC   H8Y19595   6.856   0.548   5.379  0.2149 -0.5147 -0.4597
  173SLPC   C3919596   6.944   0.589   5.186 -0.1249 -0.1768  0.3302
  173SLPC   H9X19597   7.023   0.516   5.213  0.7116  0.7788  0.5609
  173SLPC   H9Y19598   6.988   0.690   5.199  1.3215 -0.5646 -1.2134
  173SLPC  C31019599   6.893   0.582   5.042 -0.1854  0.2806 -0.5968
  173SLPC  H10X19600   6.907   0.683   4.997  0.2860  0.7183  0.5159
  173SLPC  H10Y19601   6.784   0.560   5.041 -0.3411  1.0163 -0.2030
  173SLPC  C31119602   6.972   0.490   4.952  0.5767 -0.0938 -0.7737
  173SLPC  H11X19603   6.932   0.387   4.959  0.3010  0.0350 -0.4554
  173SLPC  H11Y19604   7.076   0.491   4.992 -0.0825  1.8449  1.0621
  173SLPC  C31219605   6.968   0.534   4.801 -0.2508  0.5476 -0.6586
  173SLPC  H12X19606   7.036   0.476   4.735 -1.5937 -0.1096 -1.5094
  173SLPC  H12Y19607   6.996   0.642   4.806 -3.0989  1.3376  0.5428
  173SLPC  C31319608   6.829   0.522   4.736  0.1326 -0.5423 -0.2496
  173SLPC  H13X19609   6.744   0.565   4.793  0.2206 -0.1322 -0.4184
  173SLPC  H13Y19610   6.808   0.414   4.727 -2.2689 -0.2429  1.0989
  173SLPC  C31419611   6.821   0.593   4.598  0.4979  0.9200  0.0394
  173SLPC  H14X19612   6.884   0.535   4.528  1.5291 -0.6657  2.1606
  173SLPC  H14Y19613   6.865   0.695   4.604  1.8839  0.5840 -2.7006
  173SLPC  C31519614   6.673   0.592   4.547 -0.4546  0.2115 -0.6175
  173SLPC  H15X19615   6.661   0.649   4.452  0.1368  2.6329  0.6824
  173SLPC  H15Y19616   6.611   0.646   4.622 -1.1171 -0.9283 -0.3143
  173SLPC  C31619617   6.607   0.460   4.524 -0.4833  0.1139  0.1721
  173SLPC  H16X19618   6.593   0.401   4.617 -1.1148 -0.0071  0.0087
  173SLPC  H16Y19619   6.675   0.398   4.462 -2.2807 -1.2301 -0.5728
  173SLPC  C31719620   6.469   0.463   4.461  0.1718  0.5898  0.0700
  173SLPC  H17X19621   6.474   0.515   4.362 -2.0536  3.7476  1.4273
  173SLPC  H17Y19622   6.408   0.538   4.517  1.7280  1.5835  0.5067
  173SLPC  C31819623   6.403   0.324   4.463 -0.0599 -1.2733  0.6159
  173SLPC  H18X19624   6.462   0.245   4.411  2.2136 -0.1461  1.3166
  173SLPC  H18Y19625   6.303   0.340   4.418 -0.4117 -0.9079  1.4991
  173SLPC  H18Z19626   6.379   0.289   4.566 -1.8214  0.5090  0.8677
  174SLPC     N19627   4.637   1.356   6.610  0.0078  0.1351  0.2383
  174SLPC   C1319628   4.708   1.350   6.735 -0.2202 -0.3025 -0.0850
  174SLPC  H13A19629   4.671   1.282   6.809  1.1654 -0.2853  0.6599
  174SLPC  H13B19630   4.814   1.332   6.727 -0.3944 -1.7956  0.7112
  174SLPC  H13C19631   4.705   1.449   6.779  1.1113  0.8147 -2.3407
  174SLPC   C1419632   4.722   1.429   6.503 -0.5508  0.3332 -0.0783
  174SLPC  H14A19633   4.667   1.446   6.411 -0.5509 -0.0592 -0.1521
  174SLPC  H14B19634   4.753   1.526   6.539 -1.4060  0.2585  0.9150
  174SLPC  H14C19635   4.810   1.372   6.477 -1.2373 -0.4050 -0.8468
  174SLPC   C1519636   4.514   1.438   6.628  0.3905  0.0574  0.0490
  174SLPC  H15A19637   4.456   1.444   6.538 -0.5269  1.5441  0.7076
  174SLPC  H15B19638   4.450   1.388   6.699 -0.8112 -0.3491 -1.2658
  174SLPC  H15C19639   4.544   1.535   6.666 -1.5566  1.4330 -1.6794
  174SLPC   C1219640   4.598   1.223   6.549  0.1867  0.9794 -0.1691
  174SLPC  H12A19641   4.529   1.166   6.609  0.0138 -0.1591 -1.3934
  174SLPC  H12B19642   4.687   1.164   6.532  0.0400  0.2364  1.5079
  174SLPC   C1119643   4.532   1.223   6.413  0.4313 -0.2059 -0.5761
  174SLPC  H11A19644   4.522   1.119   6.375 -2.0444  0.4334 -1.9352
  174SLPC  H11B19645   4.600   1.270   6.338  0.8636  0.1678  0.0455
  174SLPC     P19646   4.266   1.218   6.432  0.0190  0.1810 -0.2040
  174SLPC   O1319647   4.269   1.150   6.564  0.2653  0.2214 -0.0697
  174SLPC   O1419648   4.148   1.310   6.414 -0.1823  0.2318 -0.0788
  174SLPC   O1219649   4.407   1.289   6.419 -0.1536  0.1421 -0.1809
  174SLPC   O1119650   4.268   1.110   6.318 -0.4034 -0.0804 -0.5162
  174SLPC    C119651   4.304   1.135   6.191 -0.0444  0.4576 -0.5353
  174SLPC    HA19652   4.363   1.227   6.173  0.4992  0.0443 -0.9184
  174SLPC    HB19653   4.356   1.043   6.155  0.6150  0.0633  1.2969
  174SLPC    C219654   4.177   1.151   6.108  0.8884  0.4494  0.2892
  174SLPC    HS19655   4.107   1.214   6.167 -1.6618 -1.5978 -0.3897
  174SLPC   O2119656   4.124   1.020   6.096  0.5312 -0.2340 -0.1979
  174SLPC   C2119657   3.990   1.015   6.082  0.3391 -0.1882  0.7474
  174SLPC   O2219658   3.915   1.113   6.086 -0.5884  0.2792  0.0469
  174SLPC   C2219659   3.940   0.877   6.055 -0.4043  0.0657 -0.2672
  174SLPC   H2R19660   3.984   0.812   6.133 -1.7371 -1.7634 -0.9707
  174SLPC   H2S19661   3.830   0.872   6.067 -0.6706 -2.4227 -2.6412
  174SLPC    C319662   4.210   1.210   5.966  0.6981 -0.1258  0.1751
  174SLPC    HX19663   4.268   1.132   5.914  1.7722  1.5274 -1.2293
  174SLPC    HY19664   4.284   1.294   5.962 -0.1355  0.6101 -3.4848
  174SLPC   O3119665   4.101   1.241   5.878  0.1833  0.0159  0.0095
  174SLPC   C3119666   4.024   1.342   5.901 -0.2187  0.2320 -0.1092
  174SLPC   O3219667   4.044   1.435   5.980  0.4219  0.2207 -0.4604
  174SLPC   C3219668   3.910   1.351   5.805  0.0159 -0.1478  0.3828
  174SLPC   H2X19669   3.816   1.342   5.863  0.0154 -1.2737  0.2128
  174SLPC   H2Y19670   3.918   1.264   5.737 -0.4455 -0.3140  0.5321
  174SLPC   C2319671   3.990   0.832   5.916  0.1301 -0.6899 -0.4862
  174SLPC   H3R19672   4.048   0.737   5.924  2.2495  0.6414  0.9260
  174SLPC   H3S19673   4.067   0.896   5.869  1.5297 -2.5207 -0.7910
  174SLPC   C2419674   3.880   0.814   5.809  0.6233 -0.5411 -0.5482
  174SLPC   H4R19675   3.790   0.766   5.851  0.5949 -0.8449 -0.9459
  174SLPC   H4S19676   3.912   0.754   5.721 -1.0083 -0.9576 -0.9038
  174SLPC   C2519677   3.836   0.945   5.741 -0.3130  0.6922  0.0175
  174SLPC   H5R19678   3.927   0.995   5.701 -0.2134  0.2754 -0.2790
  174SLPC   H5S19679   3.789   1.010   5.819 -1.4391  1.0156 -0.9061
  174SLPC   C2619680   3.738   0.930   5.625 -0.1760  0.0853  0.5209
  174SLPC   H6R19681   3.650   0.893   5.681 -1.4389  1.5178 -0.4368
  174SLPC   H6S19682   3.777   0.848   5.560  0.3265  0.7178  0.0114
  174SLPC   C2719683   3.718   1.068   5.568 -0.0968 -0.9081 -0.1940
  174SLPC   H7R19684   3.818   1.100   5.531 -0.0783 -1.4000 -0.5715
  174SLPC   H7S19685   3.677   1.148   5.634  0.0139 -1.4707  0.5714
  174SLPC   C2819686   3.614   1.056   5.450 -0.6103 -0.3975 -0.4186
  174SLPC   H8R19687   3.611   1.158   5.406 -1.6723 -1.4412 -2.9178
  174SLPC   H8S19688   3.516   1.030   5.496 -1.2069  2.9064  0.4450
  174SLPC   C2919689   3.642   0.960   5.340  0.0944 -0.4746 -0.4791
  174SLPC   H9R19690   3.622   0.853   5.359  1.2154 -0.2740  2.3189
  174SLPC  C21019691   3.682   0.987   5.211  0.6588  0.4572 -0.1889
  174SLPC  H10R19692   3.688   0.903   5.140  1.4076 -0.4041  0.8603
  174SLPC  C21119693   3.727   1.117   5.150 -0.5540 -0.2497 -0.1193
  174SLPC  H11R19694   3.666   1.206   5.179 -1.6156 -0.9285 -0.2190
  174SLPC  H11S19695   3.713   1.115   5.039 -2.5423  2.4822 -0.0325
  174SLPC  C21219696   3.867   1.147   5.182 -0.4573 -0.3870  0.6790
  174SLPC  H12R19697   3.903   1.094   5.271 -0.0736 -1.9566 -0.3540
  174SLPC  C21319698   3.939   1.244   5.113 -0.3166  0.5200 -0.3128
  174SLPC  H13R19699   4.039   1.266   5.153 -0.8002  0.9491  0.6985
  174SLPC  C21419700   3.892   1.327   4.990 -0.3507 -0.5414  0.2425
  174SLPC  H14R19701   3.910   1.435   5.006 -0.7891 -0.5359  0.7556
  174SLPC  H14S19702   3.781   1.323   4.976 -0.1915 -0.7413 -1.0449
  174SLPC  C21519703   3.967   1.309   4.861 -0.8250 -0.4921  0.9224
  174SLPC  H15R19704   3.952   1.203   4.829 -1.9537  0.4322 -1.9255
  174SLPC  H15S19705   4.073   1.335   4.877 -0.6813 -0.0324 -0.6563
  174SLPC  C21619706   3.915   1.406   4.756  0.2241 -0.5740  0.0215
  174SLPC  H16R19707   3.970   1.502   4.766 -2.3044  0.9628  0.1844
  174SLPC  H16S19708   3.807   1.431   4.766  0.4087 -0.2554  1.2831
  174SLPC  C21719709   3.940   1.354   4.614 -0.0529  0.0370 -0.6394
  174SLPC  H17R19710   3.885   1.258   4.600 -1.8281  0.2603  3.5316
  174SLPC  H17S19711   4.045   1.319   4.602  0.5021  0.7917  1.6270
  174SLPC  C21819712   3.929   1.457   4.494 -0.1037 -0.5171 -0.8297
  174SLPC  H18R19713   4.011   1.528   4.516  2.2302 -2.9667 -1.0825
  174SLPC  H18S19714   3.830   1.507   4.499  1.9558  3.8725  0.6475
  174SLPC  H18T19715   3.932   1.409   4.393  0.6864 -1.2285 -0.4749
  174SLPC   C3319716   3.912   1.492   5.733 -0.7205  1.0997  0.1332
  174SLPC   H3X19717   4.012   1.507   5.687 -1.6962  0.2953 -2.4241
  174SLPC   H3Y19718   3.903   1.587   5.791  1.3448  3.1336 -2.6141
  174SLPC   C3419719   3.819   1.495   5.618  0.8879 -0.9907 -0.6595
  174SLPC   H4X19720   3.771   1.595   5.616  0.6115 -1.0469  1.4396
  174SLPC   H4Y19721   3.740   1.419   5.636 -1.5128  1.0822 -1.7723
  174SLPC   C3519722   3.884   1.474   5.483  0.8408  0.1496  0.6489
  174SLPC   H5X19723   3.907   1.365   5.476 -1.1219 -0.2233 -1.6010
  174SLPC   H5Y19724   3.970   1.541   5.461  0.8652 -0.2301 -0.4810
  174SLPC   C3619725   3.782   1.489   5.366  0.4495 -0.0789 -0.2284
  174SLPC   H6X19726   3.684   1.454   5.404  1.7293 -2.8178  0.7791
  174SLPC   H6Y19727   3.814   1.437   5.274  2.1768  1.6821 -0.6996
  174SLPC   C3719728   3.744   1.639   5.329 -0.5554  0.1530 -0.2110
  174SLPC   H7X19729   3.838   1.684   5.289  0.5941 -1.0141  1.0963
  174SLPC   H7Y19730   3.704   1.694   5.417 -0.1639 -1.1400  0.8002
  174SLPC   C3819731   3.640   1.642   5.215 -0.1574  0.5849  0.1097
  174SLPC   H8X19732   3.548   1.587   5.246  1.9193 -2.1883  1.8167
  174SLPC   H8Y19733   3.679   1.580   5.132 -1.0632  1.8887 -1.3618
  174SLPC   C3919734   3.592   1.785   5.177  0.7887 -0.1500  0.3707
  174SLPC   H9X19735   3.540   1.832   5.263  1.5131  1.4382 -0.0172
  174SLPC   H9Y19736   3.504   1.777   5.111  1.6716  1.3216 -1.0486
  174SLPC  C31019737   3.695   1.879   5.132 -0.0286  0.5422 -0.2180
  174SLPC  H10X19738   3.766   1.901   5.215 -0.0737  1.2096 -0.3465
  174SLPC  H10Y19739   3.640   1.973   5.110 -0.1412  0.5355  0.0325
  174SLPC  C31119740   3.779   1.838   5.008  0.3210 -1.0521  0.2599
  174SLPC  H11X19741   3.818   1.736   5.028  0.2901 -1.1142  0.0135
  174SLPC  H11Y19742   3.869   1.903   5.015 -1.7598  2.0393  0.3065
  174SLPC  C31219743   3.704   1.838   4.870  0.3129  0.1578 -0.1693
  174SLPC  H12X19744   3.616   1.772   4.884  0.5593  0.0300  0.9304
  174SLPC  H12Y19745   3.782   1.804   4.799  1.9788  0.8123  1.2718
  174SLPC  C31319746   3.647   1.970   4.819 -0.0809 -0.1267  0.6790
  174SLPC  H13X19747   3.734   2.040   4.825 -0.8561  1.0605 -1.0947
  174SLPC  H13Y19748   3.580   2.010   4.898 -0.6265 -0.5687  0.4384
  174SLPC  C31419749   3.584   1.958   4.683  0.1552 -0.8231  0.0246
  174SLPC  H14X19750   3.652   1.890   4.628  1.0833 -0.6934  0.9789
  174SLPC  H14Y19751   3.592   2.057   4.634 -0.3435 -0.2629  1.0189
  174SLPC  C31519752   3.429   1.931   4.680 -0.4541 -0.4735 -0.4695
  174SLPC  H15X19753   3.396   1.925   4.574  2.0263  0.2323 -1.3430
  174SLPC  H15Y19754   3.378   2.019   4.726  0.8010  1.2553 -2.2277
  174SLPC  C31619755   3.382   1.798   4.738  0.4043 -0.9694 -0.2059
  174SLPC  H16X19756   3.274   1.776   4.721 -0.0988 -1.6073  3.0677
  174SLPC  H16Y19757   3.397   1.792   4.848 -1.7142 -0.1255  0.1724
  174SLPC  C31719758   3.460   1.671   4.683  0.0213 -0.6301  0.2234
  174SLPC  H17X19759   3.566   1.701   4.666 -0.7727  2.3587 -0.0076
  174SLPC  H17Y19760   3.422   1.658   4.580 -1.2505  0.6452  0.5061
  174SLPC  C31819761   3.455   1.546   4.765 -0.3162  0.0576 -0.3512
  174SLPC  H18X19762   3.532   1.479   4.721 -1.5719  1.3614 -5.1487
  174SLPC  H18Y19763   3.359   1.491   4.749  0.8113 -1.8148 -0.9994
  174SLPC  H18Z19764   3.473   1.575   4.870  1.9666  1.7235 -1.1342
  175SLPC     N19765   0.837   2.296   6.814  0.5199  0.7500  0.0665
  175SLPC   C1319766   0.775   2.162   6.832 -0.4898  0.5150  0.2564
  175SLPC  H13A19767   0.725   2.131   6.741 -0.7299  1.2385  0.1357
  175SLPC  H13B19768   0.852   2.090   6.859 -2.3576 -2.0415 -0.8021
  175SLPC  H13C19769   0.699   2.165   6.908 -1.5994 -0.9857 -0.7253
  175SLPC   C1419770   0.889   2.333   6.944 -0.7292  0.5289  0.6153
  175SLPC  H14A19771   0.962   2.259   6.975 -0.4033 -1.2453 -3.7454
  175SLPC  H14B19772   0.946   2.424   6.936  1.4185 -0.7499  0.6441
  175SLPC  H14C19773   0.813   2.361   7.016  0.9285  2.6437  1.6433
  175SLPC   C1519774   0.714   2.375   6.770 -0.4686 -0.2333 -0.3934
  175SLPC  H15A19775   0.637   2.371   6.845 -0.1779  2.0077  0.1197
  175SLPC  H15B19776   0.739   2.480   6.757  1.4842 -0.2986  2.0933
  175SLPC  H15C19777   0.675   2.333   6.678  0.1980  2.2064 -1.9056
  175SLPC   C1219778   0.943   2.287   6.704 -0.2477 -0.1741  0.0100
  175SLPC  H12A19779   1.016   2.214   6.735  2.9738  1.8770 -2.2259
  175SLPC  H12B19780   1.003   2.376   6.695  0.1213 -0.5137 -1.0794
  175SLPC   C1119781   0.905   2.250   6.556 -0.2919 -0.9399  0.1970
  175SLPC  H11A19782   1.000   2.249   6.497 -1.3365  0.4821 -1.6261
  175SLPC  H11B19783   0.847   2.333   6.510  0.3283 -1.9988 -2.7151
  175SLPC     P19784   0.901   1.984   6.530 -0.2614  0.7192 -0.0174
  175SLPC   O1319785   1.043   2.001   6.572  0.3552  0.4737  0.5293
  175SLPC   O1419786   0.824   1.872   6.593  0.2236 -0.3932 -0.1765
  175SLPC   O1219787   0.831   2.125   6.542 -0.6371 -0.4217  0.0221
  175SLPC   O1119788   0.893   1.966   6.371  0.5614 -0.2586 -0.2457
  175SLPC    C119789   0.767   1.978   6.302  0.0882  0.3200  0.2278
  175SLPC    HA19790   0.694   2.033   6.365 -0.1605  1.5676 -1.0931
  175SLPC    HB19791   0.771   2.046   6.214  1.2406 -1.0352 -0.8189
  175SLPC    C219792   0.702   1.843   6.250  0.0708  0.3323  0.2551
  175SLPC    HS19793   0.728   1.760   6.319  1.9069 -0.6720 -1.5312
  175SLPC   O2119794   0.756   1.816   6.116  0.2877 -0.0345  0.4167
  175SLPC   C2119795   0.750   1.692   6.079  0.3464 -1.0029  0.3861
  175SLPC   O2219796   0.708   1.597   6.139  0.3998  0.3843 -0.3382
  175SLPC   C2219797   0.813   1.694   5.938  0.2754  0.0416 -0.5954
  175SLPC   H2R19798   0.765   1.760   5.862  3.3615  0.0264 -2.7776
  175SLPC   H2S19799   0.918   1.728   5.953 -0.0652  2.2906 -2.5942
  175SLPC    C319800   0.552   1.854   6.253  0.2243  0.2861  0.1473
  175SLPC    HX19801   0.512   1.838   6.356 -4.0366 -0.3766 -1.4099
  175SLPC    HY19802   0.520   1.763   6.198 -1.9128  1.5859 -0.9100
  175SLPC   O3119803   0.506   1.981   6.194 -0.9274  0.1385  0.3276
  175SLPC   C3119804   0.430   1.964   6.087  0.2916 -0.6845 -0.8267
  175SLPC   O3219805   0.392   1.861   6.041 -0.0516  0.7079  0.4704
  175SLPC   C3219806   0.409   2.093   6.016  0.3982 -0.1827 -0.0691
  175SLPC   H2X19807   0.443   2.187   6.065 -1.8822  2.3818 -2.9314
  175SLPC   H2Y19808   0.300   2.113   6.014  0.4232 -0.1346 -1.5555
  175SLPC   C2319809   0.818   1.552   5.878 -0.5888 -0.2338  0.1571
  175SLPC   H3R19810   0.712   1.523   5.863 -0.5675  0.6792 -2.2081
  175SLPC   H3S19811   0.856   1.470   5.943  0.3708 -0.5983 -0.8351
  175SLPC   C2419812   0.883   1.547   5.740  0.1389  0.0697  0.0885
  175SLPC   H4R19813   0.989   1.581   5.738  0.0860  0.2879  0.7095
  175SLPC   H4S19814   0.819   1.621   5.686 -2.9086 -0.8741  2.1537
  175SLPC   C2519815   0.892   1.412   5.667 -0.1230 -0.7467  0.0637
  175SLPC   H5R19816   0.794   1.375   5.630  0.6168 -0.9605 -1.7942
  175SLPC   H5S19817   0.940   1.336   5.732 -2.9823 -2.5969  0.1732
  175SLPC   C2619818   0.985   1.405   5.543 -0.0676  0.2297 -0.1800
  175SLPC   H6R19819   0.967   1.300   5.511 -1.7255 -0.3472  2.3667
  175SLPC   H6S19820   1.088   1.427   5.578  0.0755  0.0901 -0.5056
  175SLPC   C2719821   0.961   1.501   5.426  0.0730 -0.1066  0.1999
  175SLPC   H7R19822   0.974   1.603   5.468  1.4830  0.4639 -1.4667
  175SLPC   H7S19823   0.857   1.481   5.390  0.1521 -0.7675  0.3235
  175SLPC   C2819824   1.055   1.483   5.306  0.4437 -0.1157 -0.3793
  175SLPC   H8R19825   1.072   1.375   5.283  1.1164  0.5304 -3.3424
  175SLPC   H8S19826   1.159   1.517   5.326  0.3668 -0.4377  0.6367
  175SLPC   C2919827   1.010   1.548   5.179 -0.1899  0.0254 -0.3189
  175SLPC   H9R19828   1.027   1.656   5.190 -1.4516  0.0664  1.7728
  175SLPC  C21019829   0.954   1.493   5.067 -0.4095  0.1578 -0.2659
  175SLPC  H10R19830   0.912   1.565   4.995 -0.6773 -0.1505 -0.4247
  175SLPC  C21119831   0.944   1.348   5.049  0.0295 -0.7447 -0.3979
  175SLPC  H11R19832   0.907   1.308   5.146 -0.7838 -2.2742 -1.3008
  175SLPC  H11S19833   1.045   1.304   5.034  1.5577  1.3332  2.6148
  175SLPC  C21219834   0.853   1.301   4.933 -0.2833  0.2553 -0.5377
  175SLPC  H12R19835   0.746   1.300   4.958 -0.2557  0.2108 -0.4219
  175SLPC  C21319836   0.888   1.239   4.817 -0.2963  0.3676  0.1525
  175SLPC  H13R19837   0.819   1.197   4.743  0.8783  1.9380 -1.9691
  175SLPC  C21419838   1.026   1.237   4.767 -0.4439 -0.8361  0.6286
  175SLPC  H14R19839   1.040   1.154   4.694  4.6136  0.9781 -0.9254
  175SLPC  H14S19840   1.103   1.219   4.846 -0.7932 -2.8756  0.5716
  175SLPC  C21519841   1.051   1.375   4.694 -0.0685  0.9812 -0.3375
  175SLPC  H15R19842   1.159   1.382   4.667 -0.8152  1.5216 -3.6024
  175SLPC  H15S19843   1.039   1.456   4.769  0.9212  0.2767  0.6115
  175SLPC  C21619844   0.964   1.410   4.579  0.5717 -0.2747 -0.1274
  175SLPC  H16R19845   0.857   1.410   4.610  0.8575  1.6303  1.0515
  175SLPC  H16S19846   0.991   1.346   4.492 -0.3842  0.5382 -1.0463
  175SLPC  C21719847   0.991   1.557   4.537 -0.0261 -0.1057  0.1175
  175SLPC  H17R19848   0.969   1.626   4.621  0.3285  0.8383 -0.5395
  175SLPC  H17S19849   0.915   1.570   4.457  0.1858  1.5346  0.1393
  175SLPC  C21819850   1.127   1.594   4.476  0.8363 -0.6264 -0.6416
  175SLPC  H18R19851   1.192   1.633   4.557  0.4694 -0.0751 -0.6134
  175SLPC  H18S19852   1.117   1.672   4.397  1.0495 -2.0475 -2.1466
  175SLPC  H18T19853   1.161   1.498   4.431 -0.4734 -1.8462  0.8928
  175SLPC   C3319854   0.449   2.089   5.865 -0.6588 -0.6681  0.6629
  175SLPC   H3X19855   0.544   2.031   5.858 -0.3181 -0.2333  1.5301
  175SLPC   H3Y19856   0.470   2.189   5.823 -1.7338 -1.0699 -0.9248
  175SLPC   C3419857   0.345   2.024   5.767 -0.2576  0.0875 -0.1826
  175SLPC   H4X19858   0.248   2.067   5.801 -0.6510 -1.0250  0.1431
  175SLPC   H4Y19859   0.324   1.916   5.785  0.1528 -0.4270 -2.5592
  175SLPC   C3519860   0.391   2.037   5.621  0.6963 -0.1902 -0.6771
  175SLPC   H5X19861   0.475   1.965   5.606 -0.1007 -0.7571 -2.7451
  175SLPC   H5Y19862   0.421   2.143   5.602  0.0326 -0.0480 -0.9614
  175SLPC   C3619863   0.273   2.007   5.522  0.0051 -0.4264 -0.6372
  175SLPC   H6X19864   0.205   2.094   5.513  0.0752 -0.2121  0.6724
  175SLPC   H6Y19865   0.214   1.919   5.557  0.0401 -0.9053 -1.7518
  175SLPC   C3719866   0.319   1.977   5.376  0.1482 -0.4584 -0.1357
  175SLPC   H7X19867   0.356   1.872   5.374  0.2207 -0.5042  1.6414
  175SLPC   H7Y19868   0.409   2.039   5.357  0.3500 -0.9288 -0.7542
  175SLPC   C3819869   0.215   2.009   5.272 -0.1223  0.4889  0.0043
  175SLPC   H8X19870   0.189   2.115   5.249 -0.4031 -0.2180 -3.4633
  175SLPC   H8Y19871   0.119   1.981   5.321  1.4332 -1.2209  2.2863
  175SLPC   C3919872   0.249   1.927   5.143  0.2427 -0.6263 -0.0043
  175SLPC   H9X19873   0.262   1.822   5.177 -0.2242  0.2231  3.1750
  175SLPC   H9Y19874   0.345   1.964   5.101  0.4169  0.1190  1.0059
  175SLPC  C31019875   0.149   1.930   5.035  0.0275  0.2665 -0.3888
  175SLPC  H10X19876   0.149   2.029   4.984 -2.5660  0.7036  0.2889
  175SLPC  H10Y19877   0.047   1.904   5.072 -1.1569 -1.6990 -4.3952
  175SLPC  C31119878   0.188   1.821   4.931  0.1583  0.4547 -0.0326
  175SLPC  H11X19879   0.193   1.725   4.986 -0.7152  0.4071 -0.0204
  175SLPC  H11Y19880   0.290   1.849   4.897  1.3846 -0.5428  2.5461
  175SLPC  C31219881   0.098   1.806   4.799 -0.2008 -0.8512  0.1511
  175SLPC  H12X19882  -0.006   1.801   4.838  0.1583 -4.0756  1.0066
  175SLPC  H12Y19883   0.118   1.706   4.754 -1.8410 -0.6391 -1.1463
  175SLPC  C31319884   0.131   1.926   4.707  0.3557 -0.5548  0.5655
  175SLPC  H13X19885   0.123   2.024   4.759 -0.3374 -0.0599 -0.4267
  175SLPC  H13Y19886   0.041   1.928   4.642 -0.2233  2.5855  1.2847
  175SLPC  C31419887   0.264   1.919   4.633 -0.2220 -0.5168  0.1270
  175SLPC  H14X19888   0.266   1.823   4.577  0.7005 -1.2717  1.4136
  175SLPC  H14Y19889   0.343   1.942   4.708 -1.1042  2.8502  0.1925
  175SLPC  C31519890   0.285   2.037   4.522  0.4617  0.2779 -0.6203
  175SLPC  H15X19891   0.215   2.120   4.550 -0.2864 -0.3274 -0.6722
  175SLPC  H15Y19892   0.254   1.995   4.424 -5.4631  0.7885  0.6362
  175SLPC  C31619893   0.420   2.097   4.528 -0.3229 -0.3459  0.1158
  175SLPC  H16X19894   0.452   2.127   4.630  0.4277  0.2778 -0.2916
  175SLPC  H16Y19895   0.428   2.194   4.473  1.2814 -0.0365  0.8454
  175SLPC  C31719896   0.528   2.010   4.458  0.5767  0.2095 -0.4464
  175SLPC  H17X19897   0.514   2.026   4.349 -1.3909  0.8052 -0.1338
  175SLPC  H17Y19898   0.511   1.902   4.477 -0.0040  0.4723  0.5943
  175SLPC  C31819899   0.673   2.025   4.502  0.4597 -0.6514  0.1887
  175SLPC  H18X19900   0.707   2.124   4.464  2.7978 -0.6028  2.1458
  175SLPC  H18Y19901   0.739   1.950   4.455  0.4717 -1.1217  0.9343
  175SLPC  H18Z19902   0.690   2.008   4.611  0.8018 -2.4289 -0.1155
  176SLPC     N19903   6.675   1.314   6.635 -0.4287  0.0149  0.0818
  176SLPC   C1319904   6.594   1.369   6.750 -0.3869 -0.5433 -0.9438
  176SLPC  H13A19905   6.490   1.341   6.741  0.0587 -1.6374 -4.0236
  176SLPC  H13B19906   6.638   1.353   6.847  0.8788  5.3423 -0.2028
  176SLPC  H13C19907   6.586   1.476   6.742 -3.4674 -0.5167  0.9409
  176SLPC   C1419908   6.663   1.161   6.637 -0.1025  0.4481  0.1568
  176SLPC  H14A19909   6.557   1.140   6.629 -0.1838  0.7896  0.2931
  176SLPC  H14B19910   6.725   1.115   6.561  0.3796 -2.1771  2.0158
  176SLPC  H14C19911   6.704   1.126   6.730  0.6311  0.9442  0.0272
  176SLPC   C1519912   6.814   1.349   6.663 -0.0901 -0.3947  0.0417
  176SLPC  H15A19913   6.876   1.331   6.576 -0.6410 -0.8515 -0.2649
  176SLPC  H15B19914   6.831   1.451   6.692  1.0528 -1.4477  3.4705
  176SLPC  H15C19915   6.850   1.290   6.745 -0.9392 -2.1055 -0.7649
  176SLPC   C1219916   6.632   1.370   6.498  0.2040  0.3200  0.5200
  176SLPC  H12A19917   6.680   1.332   6.409 -0.6484  2.3724 -0.8879
  176SLPC  H12B19918   6.636   1.477   6.487 -0.0474  0.0835 -3.3213
  176SLPC   C1119919   6.487   1.330   6.458 -0.1035 -0.3941 -0.3519
  176SLPC  H11A19920   6.473   1.226   6.493 -0.5019  0.1345  1.1207
  176SLPC  H11B19921   6.464   1.337   6.350 -2.5505 -0.2920  0.1230
  176SLPC     P19922   6.370   1.568   6.517 -0.1545 -0.5326 -0.0482
  176SLPC   O1319923   6.268   1.609   6.616 -0.2805 -0.3114  0.6442
  176SLPC   O1419924   6.495   1.642   6.514 -0.4945 -0.3244  0.3741
  176SLPC   O1219925   6.396   1.412   6.528  0.4882 -0.3924 -0.1810
  176SLPC   O1119926   6.317   1.570   6.366 -0.1322  0.1816  0.0007
  176SLPC    C119927   6.192   1.506   6.342  0.5032 -0.1096  0.6052
  176SLPC    HA19928   6.180   1.412   6.398 -2.6488 -1.3670 -1.8739
  176SLPC    HB19929   6.105   1.571   6.366  0.1846  0.5509 -1.9611
  176SLPC    C219930   6.166   1.474   6.186  0.3772  0.0669 -0.1640
  176SLPC    HS19931   6.071   1.526   6.163 -0.0691 -0.9307 -0.6363
  176SLPC   O2119932   6.152   1.333   6.182 -0.2013  0.1534 -0.0328
  176SLPC   C2119933   6.061   1.295   6.094 -0.2023 -0.3767  0.3265
  176SLPC   O2219934   5.990   1.379   6.033 -0.4852  0.1999 -0.7326
  176SLPC   C2219935   6.051   1.146   6.074  0.0401  0.0188 -0.3852
  176SLPC   H2R19936   6.153   1.106   6.060  0.6570  0.9188  1.3169
  176SLPC   H2S19937   6.012   1.105   6.169  1.5405  0.8284  0.6075
  176SLPC    C319938   6.274   1.530   6.098  0.4681 -0.1189 -0.3735
  176SLPC    HX19939   6.363   1.473   6.134  0.1447  0.8258  2.0629
  176SLPC    HY19940   6.281   1.640   6.112 -0.8974 -0.0449 -0.1566
  176SLPC   O3119941   6.260   1.490   5.960  0.3312 -0.5413 -0.2071
  176SLPC   C3119942   6.187   1.576   5.884  0.1547 -0.1020 -1.3654
  176SLPC   O3219943   6.131   1.677   5.929  0.6949  0.0862 -0.3027
  176SLPC   C3219944   6.184   1.531   5.743  0.6301  0.5331 -0.4286
  176SLPC   H2X19945   6.090   1.472   5.730 -0.8470  2.8315 -0.6776
  176SLPC   H2Y19946   6.267   1.458   5.726 -1.4366 -1.9846 -0.3804
  176SLPC   C2319947   5.971   1.108   5.944  0.0622  0.2541  0.0149
  176SLPC   H3R19948   5.877   1.167   5.942 -0.3129 -0.3036 -2.2967
  176SLPC   H3S19949   5.939   1.001   5.951  1.0576  0.0148  1.2209
  176SLPC   C2419950   6.051   1.123   5.816  1.0287  0.2851  0.3192
  176SLPC   H4R19951   6.110   1.029   5.811 -0.1233 -0.4860  0.9308
  176SLPC   H4S19952   6.107   1.219   5.812 -0.0082  0.8965 -2.9514
  176SLPC   C2519953   5.950   1.129   5.693  0.3833 -0.1042  0.0238
  176SLPC   H5R19954   5.871   1.202   5.720 -1.3685 -2.0673  0.4918
  176SLPC   H5S19955   5.887   1.038   5.684 -3.3187  2.3700 -2.2779
  176SLPC   C2619956   6.009   1.172   5.557  0.7184 -0.8210 -0.2420
  176SLPC   H6R19957   6.105   1.117   5.550  1.6620  0.6235  0.7020
  176SLPC   H6S19958   6.018   1.283   5.559 -3.9759 -0.1080 -2.9180
  176SLPC   C2719959   5.920   1.136   5.440 -0.1669  0.2025 -0.5517
  176SLPC   H7R19960   5.822   1.186   5.453 -1.2709 -1.4534 -2.0455
  176SLPC   H7S19961   5.911   1.026   5.430 -0.6194  0.3856 -2.5380
  176SLPC   C2819962   5.982   1.194   5.305  0.1692  0.0601  0.1233
  176SLPC   H8R19963   6.073   1.131   5.296 -1.1429 -2.2690  2.0616
  176SLPC   H8S19964   6.017   1.299   5.315  0.6553  0.2202 -2.5137
  176SLPC   C2919965   5.891   1.176   5.184  0.5987  0.2651  1.1221
  176SLPC   H9R19966   5.883   1.069   5.159 -0.7122  0.7857 -0.8758
  176SLPC  C21019967   5.837   1.272   5.109 -0.4249  0.3632 -0.1566
  176SLPC  H10R19968   5.765   1.237   5.034  0.4969 -0.4106 -0.6984
  176SLPC  C21119969   5.858   1.422   5.124 -0.7425 -0.0645  0.0841
  176SLPC  H11R19970   5.943   1.442   5.192  1.2117 -0.4062 -2.1325
  176SLPC  H11S19971   5.770   1.472   5.170  0.4351  0.0298  2.3143
  176SLPC  C21219972   5.887   1.481   4.986 -0.1060 -0.0044 -0.1321
  176SLPC  H12R19973   5.981   1.458   4.933 -0.8214 -2.2875 -0.5257
  176SLPC  C21319974   5.803   1.545   4.904  0.0479  0.2624 -0.2819
  176SLPC  H13R19975   5.843   1.578   4.807 -0.3546  1.5009 -0.0424
  176SLPC  C21419976   5.665   1.589   4.937 -0.7663 -0.0045 -0.4266
  176SLPC  H14R19977   5.653   1.700   4.943  4.5801  0.7744  1.1774
  176SLPC  H14S19978   5.628   1.549   5.034  3.1030 -0.8920  0.8711
  176SLPC  C21519979   5.576   1.540   4.827 -0.6707 -0.1494  0.6897
  176SLPC  H15R19980   5.572   1.429   4.836  0.3857 -0.2016  0.6309
  176SLPC  H15S19981   5.603   1.563   4.722 -2.4895 -0.1622  0.1803
  176SLPC  C21619982   5.428   1.580   4.843  0.0238 -0.9958 -0.5316
  176SLPC  H16R19983   5.394   1.564   4.948  0.8660 -0.0211 -0.0930
  176SLPC  H16S19984   5.370   1.516   4.772 -2.9055 -0.5709  1.3037
  176SLPC  C21719985   5.399   1.726   4.793 -0.3543 -0.0143 -0.1776
  176SLPC  H17R19986   5.425   1.730   4.685  1.6081 -3.5149 -0.0074
  176SLPC  H17S19987   5.467   1.799   4.843 -1.2697  1.0955 -0.5231
  176SLPC  C21819988   5.252   1.763   4.794  0.0114  0.6021 -0.2376
  176SLPC  H18R19989   5.207   1.756   4.896  1.0817 -2.9454  0.1448
  176SLPC  H18S19990   5.182   1.697   4.737 -0.4831  2.7280 -2.2186
  176SLPC  H18T19991   5.238   1.863   4.750  1.9631  1.0365  0.0518
  176SLPC   C3319992   6.198   1.643   5.639  0.7008  0.0427  0.4298
  176SLPC   H3X19993   6.294   1.697   5.643  0.5287  0.5402 -1.4980
  176SLPC   H3Y19994   6.111   1.710   5.655 -0.6545 -1.6457  0.4400
  176SLPC   C3419995   6.187   1.600   5.490  0.1046 -0.0014 -1.1004
  176SLPC   H4X19996   6.098   1.535   5.476  0.7789 -1.0248 -0.7559
  176SLPC   H4Y19997   6.275   1.551   5.443  0.5116  0.9411 -1.3420
  176SLPC   C3519998   6.170   1.730   5.416  1.2147 -0.2103  0.2896
  176SLPC   H5X19999   6.270   1.778   5.404  0.2067  1.5436 -2.0621
  176SLPC   H5Y20000   6.101   1.799   5.470  1.8921 -1.3460  2.7304
  176SLPC   C3620001   6.118   1.705   5.264 -0.1711 -0.3785  0.6306
  176SLPC   H6X20002   6.016   1.750   5.261 -0.1641 -0.2987  1.3684
  176SLPC   H6Y20003   6.089   1.603   5.234 -0.9159 -0.3096  1.0821
  176SLPC   C3720004   6.217   1.754   5.158 -0.7161 -0.2536 -0.6928
  176SLPC   H7X20005   6.312   1.697   5.165 -1.5966 -1.7874 -0.7082
  176SLPC   H7Y20006   6.237   1.863   5.169 -1.2267 -0.1325 -0.9268
  176SLPC   C3820007   6.178   1.731   5.008 -0.1869 -0.0645 -0.3218
  176SLPC   H8X20008   6.081   1.777   4.977 -1.0516  0.2748  2.5424
  176SLPC   H8Y20009   6.179   1.620   4.997  0.3680 -0.3105  1.6993
  176SLPC   C3920010   6.277   1.781   4.907 -0.3665  0.0878  0.1931
  176SLPC   H9X20011   6.381   1.762   4.942  0.7152  1.3343 -2.1135
  176SLPC   H9Y20012   6.266   1.891   4.902  0.7155  0.2742  1.2341
  176SLPC  C31020013   6.259   1.714   4.769  0.1783 -0.4334  0.3829
  176SLPC  H10X20014   6.157   1.738   4.731  0.6601  2.2289  0.5584
  176SLPC  H10Y20015   6.257   1.604   4.780 -2.6512 -0.6899 -1.4441
  176SLPC  C31120016   6.371   1.747   4.668  0.3989 -0.0260  0.4660
  176SLPC  H11X20017   6.474   1.723   4.700  0.8739  0.6132 -0.5370
  176SLPC  H11Y20018   6.381   1.857   4.651  0.9475 -0.1001  0.2959
  176SLPC  C31220019   6.344   1.683   4.531  0.1823 -0.1680 -1.0771
  176SLPC  H12X20020   6.236   1.691   4.508  0.4138 -0.1620 -2.1999
  176SLPC  H12Y20021   6.355   1.574   4.547  1.9070  0.2016  0.7186
  176SLPC  C31320022   6.438   1.743   4.424  0.7505 -0.1148  0.0928
  176SLPC  H13X20023   6.540   1.724   4.465  0.7309  3.2941  2.0578
  176SLPC  H13Y20024   6.423   1.853   4.423  1.8961  0.0873  1.5836
  176SLPC  C31420025   6.401   1.677   4.293  0.0226  0.5623 -0.1924
  176SLPC  H14X20026   6.400   1.568   4.271  0.3699  0.5695 -0.2505
  176SLPC  H14Y20027   6.472   1.718   4.218 -0.0336  0.9194 -0.0541
  176SLPC  C31520028   6.271   1.731   4.231 -0.0952 -0.3158 -0.0112
  176SLPC  H15X20029   6.261   1.838   4.260 -1.1064  0.2297 -2.2208
  176SLPC  H15Y20030   6.181   1.687   4.279 -2.4744  1.2229 -2.7729
  176SLPC  C31620031   6.273   1.734   4.076  0.4889  0.0933  0.9282
  176SLPC  H16X20032   6.167   1.731   4.041  1.7299 -0.6510 -3.2527
  176SLPC  H16Y20033   6.320   1.639   4.043 -0.3223 -0.6994  1.9461
  176SLPC  C31720034   6.327   1.864   4.018  0.4110 -0.1127  0.2440
  176SLPC  H17X20035   6.325   1.857   3.907 -1.8069 -1.0115  0.2815
  176SLPC  H17Y20036   6.433   1.869   4.052  0.0717  0.2362  1.2594
  176SLPC  C31820037   6.266   1.999   4.060 -0.9894  0.2461 -0.6429
  176SLPC  H18X20038   6.158   1.987   4.040 -0.2546 -3.4126 -3.6621
  176SLPC  H18Y20039   6.302   2.088   4.004  2.1092 -0.0650  0.6230
  176SLPC  H18Z20040   6.299   2.019   4.164 -1.4577 -0.7176 -0.2975
  177SLPC     N20041   0.775   3.055   6.572  0.1007 -0.1000 -0.4742
  177SLPC   C1320042   0.909   3.113   6.540  0.2138 -0.1975  0.4425
  177SLPC  H13A20043   0.955   3.144   6.633  1.2353  0.0600 -0.1298
  177SLPC  H13B20044   0.971   3.034   6.499  0.6977 -1.7934  3.8694
  177SLPC  H13C20045   0.900   3.202   6.478 -0.9491 -1.0456 -0.6551
  177SLPC   C1420046   0.682   3.165   6.612  0.0065 -0.4892 -0.5895
  177SLPC  H14A20047   0.698   3.205   6.711  3.2365 -1.0179 -0.7764
  177SLPC  H14B20048   0.683   3.238   6.533 -1.0177 -1.5706 -1.6583
  177SLPC  H14C20049   0.582   3.124   6.606 -1.0420  1.7822  0.3618
  177SLPC   C1520050   0.799   2.953   6.680 -0.4803 -0.1471  0.1820
  177SLPC  H15A20051   0.721   2.891   6.721  2.2212 -2.2754  2.4952
  177SLPC  H15B20052   0.881   2.889   6.650  0.0337 -0.0001  1.2493
  177SLPC  H15C20053   0.827   3.017   6.762  0.1448  2.7440 -2.1131
  177SLPC   C1220054   0.717   2.998   6.445 -0.8912 -0.6977 -0.5299
  177SLPC  H12A20055   0.787   2.920   6.417  0.6229  1.3465 -2.9307
  177SLPC  H12B20056   0.715   3.079   6.374 -2.0744  1.1237  1.4653
  177SLPC   C1120057   0.573   2.933   6.450 -0.4299  0.0650 -0.7387
  177SLPC  H11A20058   0.561   2.875   6.356  2.3304 -1.5836 -0.1660
  177SLPC  H11B20059   0.508   3.024   6.445  2.0593  1.8589 -3.3858
  177SLPC     P20060   0.426   2.855   6.650 -0.2250  0.2234  0.0430
  177SLPC   O1320061   0.466   2.807   6.780  0.7812  0.3987 -0.3254
  177SLPC   O1420062   0.368   2.987   6.636  0.3606 -0.5826 -0.4973
  177SLPC   O1220063   0.560   2.836   6.558  1.1011 -0.6480  0.0809
  177SLPC   O1120064   0.324   2.746   6.604  0.1664 -0.6109  0.7246
  177SLPC    C120065   0.373   2.626   6.535  0.2164 -0.5079 -0.4300
  177SLPC    HA20066   0.466   2.648   6.477 -1.0089 -0.9029 -2.6302
  177SLPC    HB20067   0.395   2.549   6.612 -1.1906 -0.1595  0.3468
  177SLPC    C220068   0.287   2.590   6.408 -0.7592 -0.2133 -0.3520
  177SLPC    HS20069   0.362   2.540   6.342  0.8429 -0.2296  1.4172
  177SLPC   O2120070   0.207   2.695   6.359 -0.4240 -0.8218 -0.3328
  177SLPC   C2120071   0.246   2.731   6.234  0.9779 -0.2857 -0.3690
  177SLPC   O2220072   0.319   2.667   6.169  0.0175  0.2221  0.8214
  177SLPC   C2220073   0.168   2.848   6.186 -0.1500 -0.2820  0.3847
  177SLPC   H2R20074   0.059   2.825   6.187 -0.5856  1.0341 -2.9202
  177SLPC   H2S20075   0.182   2.938   6.249 -0.4402  0.0403 -0.0010
  177SLPC    C320076   0.186   2.476   6.450 -0.2507  0.6140  0.2161
  177SLPC    HX20077   0.127   2.518   6.535 -0.2954 -0.0250  0.5091
  177SLPC    HY20078   0.255   2.401   6.495 -0.4799 -0.2903 -0.8975
  177SLPC   O3120079   0.093   2.430   6.347 -0.2323  0.4343  0.1228
  177SLPC   C3120080   0.145   2.372   6.233 -0.4753  0.2507 -0.6024
  177SLPC   O3220081   0.261   2.332   6.232  0.9594 -0.2794 -0.1374
  177SLPC   C3220082   0.040   2.345   6.130 -0.8091 -0.3095  0.1535
  177SLPC   H2X20083  -0.056   2.386   6.170  0.2731  1.6542  0.8873
  177SLPC   H2Y20084   0.031   2.235   6.121  1.6140 -0.5553  0.0707
  177SLPC   C2320085   0.197   2.893   6.039 -0.4715  0.3795  0.1650
  177SLPC   H3R20086   0.305   2.905   6.018 -0.6905  0.8081 -0.7224
  177SLPC   H3S20087   0.150   2.993   6.029 -0.9153 -0.0049 -2.1033
  177SLPC   C2420088   0.129   2.812   5.933 -0.0139  0.2491 -0.0522
  177SLPC   H4R20089   0.021   2.820   5.954  0.0703 -1.3718  1.2445
  177SLPC   H4S20090   0.164   2.706   5.940  0.7181  0.5535  1.3123
  177SLPC   C2520091   0.151   2.857   5.785  0.0439  0.9387 -0.2322
  177SLPC   H5R20092   0.260   2.855   5.761 -0.2255  0.2579 -1.4747
  177SLPC   H5S20093   0.105   2.958   5.777  0.5794  1.0933 -1.8102
  177SLPC   C2620094   0.070   2.786   5.684 -0.0283 -0.2845  0.7504
  177SLPC   H6R20095  -0.034   2.791   5.723 -0.1692 -1.5915  0.6056
  177SLPC   H6S20096   0.084   2.677   5.669 -2.5349 -0.4808 -0.7615
  177SLPC   C2720097   0.075   2.864   5.547 -0.5386  0.2285 -0.0814
  177SLPC   H7R20098   0.177   2.905   5.532  0.5802 -1.7251  1.6112
  177SLPC   H7S20099   0.014   2.956   5.552 -1.9618 -0.7275  1.8551
  177SLPC   C2820100   0.028   2.781   5.425 -0.1606 -0.4843 -0.3180
  177SLPC   H8R20101  -0.045   2.708   5.466 -0.9487  0.7895  0.6114
  177SLPC   H8S20102   0.108   2.711   5.392 -0.6536 -2.4594  2.3377
  177SLPC   C2920103  -0.043   2.853   5.316 -0.6161 -0.0694 -0.1246
  177SLPC   H9R20104  -0.152   2.838   5.327 -0.4240 -0.1115  2.2629
  177SLPC  C21020105   0.020   2.891   5.206 -0.4783 -0.0207 -0.4721
  177SLPC  H10R20106  -0.034   2.940   5.123 -0.9612 -0.8916 -0.6808
  177SLPC  C21120107   0.169   2.869   5.185 -0.1799  0.3858  0.1816
  177SLPC  H11R20108   0.222   2.873   5.283  0.8083  0.1615 -0.3321
  177SLPC  H11S20109   0.212   2.951   5.125 -0.3289 -0.0106 -0.4802
  177SLPC  C21220110   0.190   2.732   5.119  0.7648  0.0865  0.2225
  177SLPC  H12R20111   0.147   2.647   5.174 -0.4467 -0.3231 -1.2950
  177SLPC  C21320112   0.277   2.706   5.018 -0.2922 -0.5685 -0.4973
  177SLPC  H13R20113   0.292   2.602   4.987 -1.6031 -1.0122  0.2770
  177SLPC  C21420114   0.350   2.808   4.937 -0.1403 -0.7926 -0.4677
  177SLPC  H14R20115   0.453   2.770   4.923 -0.7761 -3.0122  0.2813
  177SLPC  H14S20116   0.344   2.907   4.986 -1.9975 -0.6312 -0.9341
  177SLPC  C21520117   0.297   2.835   4.798 -0.2760  0.2507 -0.3522
  177SLPC  H15R20118   0.187   2.849   4.793 -0.0533  2.0306 -0.8840
  177SLPC  H15S20119   0.333   2.747   4.740 -1.1271  1.3190 -2.6316
  177SLPC  C21620120   0.358   2.954   4.718  0.0832  0.1591  0.5776
  177SLPC  H16R20121   0.468   2.943   4.726  0.0459 -1.0349 -0.3073
  177SLPC  H16S20122   0.318   3.046   4.766 -1.2123  0.5577 -1.1425
  177SLPC  C21720123   0.323   2.942   4.567 -0.0547  0.2531 -0.2742
  177SLPC  H17R20124   0.214   2.932   4.546  0.0477 -0.4228 -0.5155
  177SLPC  H17S20125   0.365   2.840   4.553  1.1980  0.7869 -0.5020
  177SLPC  C21820126   0.390   3.050   4.484 -0.6525  0.6652  0.0515
  177SLPC  H18R20127   0.406   3.018   4.379  0.5618  0.6645  0.2263
  177SLPC  H18S20128   0.492   3.067   4.524  0.0256 -1.0831 -0.8388
  177SLPC  H18T20129   0.348   3.153   4.494  0.2849  0.9805  0.9370
  177SLPC   C3320130   0.084   2.399   5.990 -0.4139 -0.0196 -0.2373
  177SLPC   H3X20131   0.194   2.390   5.988 -0.3709  0.0479  0.9736
  177SLPC   H3Y20132   0.061   2.508   5.987 -2.5901 -0.3531  1.7072
  177SLPC   C3420133   0.015   2.319   5.878 -0.6694  0.6332 -0.7101
  177SLPC   H4X20134  -0.089   2.359   5.881  0.2244  3.0554  0.6428
  177SLPC   H4Y20135   0.014   2.211   5.903  2.2650  0.2880 -1.6548
  177SLPC   C3520136   0.071   2.342   5.733  0.4179  0.4092 -0.1576
  177SLPC   H5X20137   0.172   2.298   5.738 -0.1267 -1.0033 -1.0238
  177SLPC   H5Y20138   0.079   2.452   5.716  1.3862  0.1504 -1.5727
  177SLPC   C3620139  -0.012   2.275   5.627 -0.4050  0.1739 -0.1743
  177SLPC   H6X20140  -0.121   2.278   5.643 -0.6732  1.3382 -1.9289
  177SLPC   H6Y20141   0.007   2.165   5.636  0.7031  0.3818  0.1977
  177SLPC   C3720142   0.009   2.328   5.485  0.1980 -0.4044 -0.3341
  177SLPC   H7X20143   0.110   2.303   5.445 -0.6421 -0.3285 -2.6517
  177SLPC   H7Y20144  -0.006   2.438   5.481  1.0367 -0.2552  0.2007
  177SLPC   C3820145  -0.091   2.254   5.392  0.2394 -0.1626 -1.5150
  177SLPC   H8X20146  -0.187   2.251   5.448  0.8902  1.2666 -0.2683
  177SLPC   H8Y20147  -0.067   2.146   5.378  1.2347 -0.1643 -0.0436
  177SLPC   C3920148  -0.112   2.321   5.255 -0.2392  0.4938  0.3878
  177SLPC   H9X20149  -0.114   2.431   5.274 -1.4563  0.1410  2.7467
  177SLPC   H9Y20150  -0.214   2.297   5.217  0.8754 -0.2852 -2.3875
  177SLPC  C31020151  -0.002   2.289   5.142  0.4795  0.5907 -0.3547
  177SLPC  H10X20152  -0.010   2.178   5.142 -1.8557  0.6311  2.6243
  177SLPC  H10Y20153   0.102   2.312   5.174  0.9662 -0.7222 -0.9218
  177SLPC  C31120154  -0.016   2.355   5.011  0.3349 -0.2931 -0.1855
  177SLPC  H11X20155  -0.007   2.464   5.029  2.6999 -0.4018 -0.4543
  177SLPC  H11Y20156  -0.123   2.342   4.986  0.4378  1.4294 -1.6722
  177SLPC  C31220157   0.074   2.295   4.897 -0.1469 -0.1818 -0.2124
  177SLPC  H12X20158   0.029   2.205   4.849  0.6702  0.5490 -2.4935
  177SLPC  H12Y20159   0.167   2.267   4.950 -1.5609  0.2973  2.7389
  177SLPC  C31320160   0.101   2.404   4.787  0.6821  0.0314 -0.2845
  177SLPC  H13X20161   0.192   2.365   4.738  0.6641 -2.5040  1.5204
  177SLPC  H13Y20162   0.137   2.502   4.825  2.8761  0.1712 -2.4804
  177SLPC  C31420163  -0.011   2.433   4.685 -0.3279  0.3086  0.4649
  177SLPC  H14X20164  -0.106   2.458   4.736 -1.4363 -1.9875 -0.3356
  177SLPC  H14Y20165  -0.031   2.341   4.625 -0.7359  1.0747 -0.6184
  177SLPC  C31520166   0.038   2.544   4.591 -0.6231  0.2393 -0.5525
  177SLPC  H15X20167   0.130   2.515   4.536  0.1796  2.1656 -0.2835
  177SLPC  H15Y20168   0.067   2.633   4.650  0.3152  0.8595 -1.9009
  177SLPC  C31620169  -0.073   2.591   4.491  0.1288 -0.0701 -0.2388
  177SLPC  H16X20170  -0.166   2.621   4.544 -1.2479  0.0611 -2.6353
  177SLPC  H16Y20171  -0.094   2.497   4.436  1.6489  0.5422 -1.9505
  177SLPC  C31720172  -0.027   2.704   4.394  0.5727  0.6248 -1.0160
  177SLPC  H17X20173   0.054   2.651   4.339  0.3823  0.1010 -0.7940
  177SLPC  H17Y20174  -0.004   2.799   4.446 -0.8292  0.2960  0.3115
  177SLPC  C31820175  -0.132   2.730   4.294 -0.6232 -0.0265 -0.1960
  177SLPC  H18X20176  -0.175   2.632   4.266 -2.1270  0.2485  0.9732
  177SLPC  H18Y20177  -0.076   2.792   4.221 -1.5423  0.3667 -0.5766
  177SLPC  H18Z20178  -0.220   2.794   4.317 -2.7346 -1.8983 -2.5592
  178SLPC     N20179   4.384   6.065   6.880 -0.0553 -0.0487  0.3775
  178SLPC   C1320180   4.398   5.935   6.955  0.1721  0.2279 -0.4686
  178SLPC  H13A20181   4.355   5.856   6.896 -1.6386 -1.8250  3.2486
  178SLPC  H13B20182   4.498   5.907   6.983 -0.4412 -0.1151  1.5512
  178SLPC  H13C20183   4.349   5.949   7.051 -0.2526  2.0393 -0.8998
  178SLPC   C1420184   4.476   6.167   6.942  0.8464 -0.0828 -0.2895
  178SLPC  H14A20185   4.456   6.256   6.884  1.2011 -0.5146 -1.1043
  178SLPC  H14B20186   4.457   6.170   7.048 -0.2838  1.2439 -0.5081
  178SLPC  H14C20187   4.581   6.170   6.916  1.1375  0.5475  0.9090
  178SLPC   C1520188   4.248   6.106   6.889  1.5405  0.2161  0.7074
  178SLPC  H15A20189   4.217   6.116   6.991 -0.4837  3.2333 -0.0627
  178SLPC  H15B20190   4.233   6.205   6.848 -0.8072  0.3925  1.8377
  178SLPC  H15C20191   4.187   6.032   6.841  0.6356  1.4218 -0.0532
  178SLPC   C1220192   4.422   6.040   6.731  0.2546 -0.1145 -0.7533
  178SLPC  H12A20193   4.521   5.998   6.724  0.2796 -0.1690 -0.1759
  178SLPC  H12B20194   4.424   6.134   6.678  0.0579  0.2947 -0.0608
  178SLPC   C1120195   4.328   5.953   6.640  0.0246  0.6056 -0.1459
  178SLPC  H11A20196   4.356   5.964   6.533  1.8297 -1.3399  0.0516
  178SLPC  H11B20197   4.228   6.002   6.649 -1.2467 -1.7668 -0.4312
  178SLPC     P20198   4.447   5.726   6.625  0.4778  0.4239  0.0811
  178SLPC   O1320199   4.573   5.784   6.657  0.0143  0.3067 -0.0426
  178SLPC   O1420200   4.430   5.588   6.671 -0.6963  0.2692 -0.7746
  178SLPC   O1220201   4.334   5.818   6.687 -0.1216  0.2958 -0.0378
  178SLPC   O1120202   4.422   5.724   6.467 -0.3496 -0.2113 -0.2166
  178SLPC    C120203   4.354   5.618   6.403  0.1147  0.1892  0.4231
  178SLPC    HA20204   4.414   5.526   6.414 -0.5335 -0.5644 -1.9346
  178SLPC    HB20205   4.250   5.598   6.438  0.1782  1.2897  1.3087
  178SLPC    C220206   4.352   5.652   6.249  0.1586 -0.8094  0.0771
  178SLPC    HS20207   4.308   5.560   6.206  0.8493 -0.5942 -1.1337
  178SLPC   O2120208   4.483   5.683   6.186 -0.1071  0.8083 -0.1183
  178SLPC   C2120209   4.570   5.589   6.207  0.4322 -0.2813  0.2444
  178SLPC   O2220210   4.555   5.480   6.258 -0.0733 -0.1152 -0.0751
  178SLPC   C2220211   4.707   5.627   6.138  0.3971  0.1668 -0.7062
  178SLPC   H2R20212   4.689   5.726   6.090  1.1024  0.1475 -1.0241
  178SLPC   H2S20213   4.784   5.644   6.215  1.0225 -2.4304 -0.6461
  178SLPC    C320214   4.266   5.778   6.229  0.5794 -0.1939  0.2242
  178SLPC    HX20215   4.327   5.866   6.260  1.5911 -0.9530  0.4216
  178SLPC    HY20216   4.177   5.787   6.295 -0.6542  0.8920 -1.5015
  178SLPC   O3120217   4.233   5.772   6.086  0.3270 -0.0604 -0.2110
  178SLPC   C3120218   4.169   5.881   6.048 -0.2417  0.0301 -0.2078
  178SLPC   O3220219   4.111   5.966   6.117 -0.0126 -0.0793  0.2794
  178SLPC   C3220220   4.149   5.888   5.892 -0.6246 -0.4784 -0.1303
  178SLPC   H2X20221   4.133   5.997   5.872 -1.6097 -0.6862 -0.5270
  178SLPC   H2Y20222   4.067   5.817   5.872 -0.8859  0.2437 -1.7924
  178SLPC   C2320223   4.744   5.553   6.012 -0.0353  0.1035  0.2091
  178SLPC   H3R20224   4.654   5.540   5.949 -0.3024 -0.5556  0.7162
  178SLPC   H3S20225   4.776   5.451   6.043  1.3037  1.4498  3.8213
  178SLPC   C2420226   4.850   5.620   5.924 -0.6484  0.2511  0.1368
  178SLPC   H4R20227   4.933   5.634   5.996  0.7227 -0.1649 -1.3028
  178SLPC   H4S20228   4.821   5.722   5.892  0.1886  0.7568  0.9541
  178SLPC   C2520229   4.926   5.529   5.824  0.1494 -0.1695  1.2455
  178SLPC   H5R20230   4.902   5.421   5.838 -0.2264 -0.1528  0.7669
  178SLPC   H5S20231   5.035   5.540   5.839  0.4589 -1.8846  0.5720
  178SLPC   C2620232   4.890   5.544   5.676 -0.7890  0.4838 -0.1642
  178SLPC   H6R20233   4.781   5.563   5.667 -0.2357  3.2815 -2.4365
  178SLPC   H6S20234   4.916   5.462   5.605  0.5044  0.9827 -0.2961
  178SLPC   C2720235   4.943   5.672   5.621  0.0049 -0.7180 -0.5971
  178SLPC   H7R20236   5.042   5.653   5.575  0.3417  0.3697 -0.3464
  178SLPC   H7S20237   4.955   5.746   5.703 -0.9021 -1.0540 -0.1412
  178SLPC   C2820238   4.850   5.726   5.507 -0.0148  0.5754 -0.3472
  178SLPC   H8R20239   4.764   5.778   5.554  0.4685  0.3374  0.8287
  178SLPC   H8S20240   4.813   5.633   5.457  0.5085 -0.4576  1.1200
  178SLPC   C2920241   4.919   5.820   5.406  0.1334 -1.0084 -0.5235
  178SLPC   H9R20242   4.942   5.922   5.439  0.5056 -0.8639 -1.2117
  178SLPC  C21020243   4.928   5.796   5.276 -0.0582  0.0290  0.0326
  178SLPC  H10R20244   4.980   5.877   5.222  1.4039  0.1469  1.5409
  178SLPC  C21120245   4.900   5.678   5.187  0.3276  0.1312  0.0800
  178SLPC  H11R20246   4.849   5.701   5.091  3.0582  0.6242 -1.3586
  178SLPC  H11S20247   4.851   5.594   5.241 -0.9684 -0.2863 -1.6637
  178SLPC  C21220248   5.023   5.604   5.161  0.1909 -0.3308  0.5052
  178SLPC  H12R20249   5.083   5.577   5.250  2.3813 -0.0336 -0.7946
  178SLPC  C21320250   5.058   5.574   5.033  0.8587  0.2642  0.4612
  178SLPC  H13R20251   5.151   5.519   5.012  0.2193  0.0208 -1.9253
  178SLPC  C21420252   4.999   5.625   4.903 -0.3158  0.2141  1.2752
  178SLPC  H14R20253   4.892   5.599   4.888  0.2669 -1.2464 -0.7474
  178SLPC  H14S20254   5.030   5.554   4.823 -2.7168  0.7564 -0.2320
  178SLPC  C21520255   5.058   5.756   4.853 -0.2397  0.5522 -0.2621
  178SLPC  H15R20256   5.053   5.753   4.742 -0.1510  0.1423 -0.2545
  178SLPC  H15S20257   5.168   5.759   4.867 -0.0721  1.6045 -1.5645
  178SLPC  C21620258   4.985   5.880   4.903 -0.3655  0.2172  0.2765
  178SLPC  H16R20259   4.991   5.886   5.014 -0.8075 -0.2139  0.3227
  178SLPC  H16S20260   4.879   5.874   4.873 -0.9907 -1.1778  2.5644
  178SLPC  C21720261   5.051   6.003   4.844 -0.2442  0.0391  0.2199
  178SLPC  H17R20262   5.073   5.990   4.736  0.1384 -0.3653  0.3489
  178SLPC  H17S20263   5.149   6.028   4.891 -0.1284 -1.4323  0.7886
  178SLPC  C21820264   4.961   6.121   4.853  0.2077  0.2475 -0.9285
  178SLPC  H18R20265   4.991   6.205   4.787  2.0794  0.1690 -0.2510
  178SLPC  H18S20266   4.957   6.160   4.958  0.2724 -1.6117 -0.1993
  178SLPC  H18T20267   4.860   6.085   4.827  0.0179  0.1040 -0.0469
  178SLPC   C3320268   4.281   5.845   5.811  1.1342 -0.3418 -0.2729
  178SLPC   H3X20269   4.313   5.740   5.832 -0.5099 -0.7135  0.5311
  178SLPC   H3Y20270   4.364   5.912   5.842  0.7828  0.0368 -0.1471
  178SLPC   C3420271   4.252   5.859   5.665  0.1211 -0.3837  0.2821
  178SLPC   H4X20272   4.248   5.964   5.628 -0.8063 -0.9143 -1.1862
  178SLPC   H4Y20273   4.150   5.822   5.646 -0.6185  1.6413  0.0613
  178SLPC   C3520274   4.371   5.818   5.578 -0.5460  0.6015  0.5714
  178SLPC   H5X20275   4.391   5.709   5.586 -2.5013 -0.3914 -4.1416
  178SLPC   H5Y20276   4.461   5.876   5.608 -0.8899  0.9077  1.0030
  178SLPC   C3620277   4.341   5.833   5.431 -0.7847 -0.2227  0.1935
  178SLPC   H6X20278   4.297   5.928   5.395 -2.6420 -1.0382  0.2072
  178SLPC   H6Y20279   4.268   5.751   5.414 -0.2189 -0.2002 -2.7839
  178SLPC   C3720280   4.476   5.816   5.348  0.2764 -0.2251 -0.3704
  178SLPC   H7X20281   4.521   5.715   5.360  0.8397 -0.0721 -1.1157
  178SLPC   H7Y20282   4.560   5.887   5.361 -0.2243  0.4776 -0.8950
  178SLPC   C3820283   4.447   5.817   5.197  0.8659  0.8341  0.3142
  178SLPC   H8X20284   4.403   5.911   5.159  0.9558 -0.2344 -2.6547
  178SLPC   H8Y20285   4.368   5.741   5.183  0.4698  0.8722  2.0891
  178SLPC   C3920286   4.579   5.783   5.125 -0.4579 -0.9323  0.4334
  178SLPC   H9X20287   4.620   5.682   5.147  0.9212 -0.6057 -0.5014
  178SLPC   H9Y20288   4.663   5.850   5.156  0.1700 -0.9948 -1.0590
  178SLPC  C31020289   4.565   5.788   4.970 -0.7225  0.2726 -0.6650
  178SLPC  H10X20290   4.490   5.712   4.939 -1.6984  1.7604 -2.0866
  178SLPC  H10Y20291   4.661   5.766   4.919 -0.6828  0.8071 -0.8303
  178SLPC  C31120292   4.512   5.923   4.908 -0.0692 -0.3089 -0.0504
  178SLPC  H11X20293   4.581   6.006   4.936  0.5951 -0.7654 -0.2985
  178SLPC  H11Y20294   4.404   5.936   4.930 -0.8408 -1.9600 -2.5453
  178SLPC  C31220295   4.508   5.925   4.756  0.6317  0.3606  0.6018
  178SLPC  H12X20296   4.597   5.871   4.718 -1.7653 -4.9722  1.7624
  178SLPC  H12Y20297   4.508   6.034   4.732 -1.8992  0.3145  0.1359
  178SLPC  C31320298   4.380   5.850   4.709 -0.1247 -0.0129  0.0418
  178SLPC  H13X20299   4.286   5.890   4.752  0.4964  0.4358  1.0267
  178SLPC  H13Y20300   4.376   5.744   4.741  0.8269 -0.2119 -0.4377
  178SLPC  C31420301   4.358   5.864   4.554 -0.2999  0.4263 -0.2875
  178SLPC  H14X20302   4.455   5.850   4.501 -0.1505 -0.7966  0.2816
  178SLPC  H14Y20303   4.322   5.967   4.532 -1.6436 -0.1254 -0.7700
  178SLPC  C31520304   4.244   5.775   4.502 -0.1339  0.3451 -0.1826
  178SLPC  H15X20305   4.284   5.676   4.471  1.4399  0.9342 -0.0823
  178SLPC  H15Y20306   4.213   5.830   4.411 -1.2840 -0.3478 -0.2419
  178SLPC  C31620307   4.120   5.763   4.586 -0.0252  0.1945  0.1419
  178SLPC  H16X20308   4.096   5.870   4.604 -0.4849 -0.1461  1.7391
  178SLPC  H16Y20309   4.138   5.712   4.683  1.7684  0.6454  0.0946
  178SLPC  C31720310   4.004   5.685   4.517 -0.3726 -0.3572  0.3540
  178SLPC  H17X20311   4.049   5.583   4.508 -0.6921 -0.4068 -0.8184
  178SLPC  H17Y20312   3.983   5.723   4.415 -1.4586  0.9948  1.0496
  178SLPC  C31820313   3.885   5.692   4.608 -0.7600  0.7474  0.1915
  178SLPC  H18X20314   3.804   5.617   4.590 -1.4957  1.4526  0.4972
  178SLPC  H18Y20315   3.829   5.788   4.604  0.7448  1.6255 -2.4899
  178SLPC  H18Z20316   3.918   5.674   4.712  0.5081  0.7934 -0.1829
  179SLPC     N20317   5.014   3.089   1.360 -0.2338 -0.5498 -0.1912
  179SLPC   C1320318   5.006   3.196   1.254 -0.1781 -0.2930  1.1402
  179SLPC  H13A20319   4.912   3.192   1.202  0.5715 -2.6024 -0.1901
  179SLPC  H13B20320   5.030   3.292   1.297  3.7611 -0.2872 -0.5510
  179SLPC  H13C20321   5.092   3.205   1.189  0.4548  0.6127  2.0662
  179SLPC   C1420322   5.140   3.108   1.431 -0.5260  0.0321 -0.5100
  179SLPC  H14A20323   5.230   3.107   1.372  2.0663 -1.1225  3.1287
  179SLPC  H14B20324   5.143   3.197   1.491 -0.0412  0.6834 -1.4827
  179SLPC  H14C20325   5.154   3.024   1.498  1.7295  1.1806  0.5530
  179SLPC   C1520326   5.030   2.953   1.295  0.2725  0.4888  0.5439
  179SLPC  H15A20327   5.096   2.961   1.209 -1.0023  0.0426 -0.5049
  179SLPC  H15B20328   5.072   2.878   1.360 -0.2652  1.5121  2.0998
  179SLPC  H15C20329   4.943   2.903   1.256  0.6616 -2.7980  3.4663
  179SLPC   C1220330   4.896   3.086   1.456 -0.3419 -0.2881  0.4903
  179SLPC  H12A20331   4.907   3.009   1.531 -0.6012 -2.8934 -1.9985
  179SLPC  H12B20332   4.806   3.058   1.403 -0.8375  0.4891  0.8956
  179SLPC   C1120333   4.849   3.223   1.532  0.0272 -0.0983 -0.5314
  179SLPC  H11A20334   4.751   3.195   1.576 -1.3063  0.6311 -2.8827
  179SLPC  H11B20335   4.838   3.297   1.451  0.3330  1.8454  1.1281
  179SLPC     P20336   4.990   3.194   1.764  0.0422  0.3450  0.0122
  179SLPC   O1320337   5.016   3.054   1.727 -0.0549  0.1420  0.3954
  179SLPC   O1420338   5.103   3.273   1.811  0.1360 -0.1771  0.2188
  179SLPC   O1220339   4.947   3.271   1.625  0.1532  0.4702 -0.0150
  179SLPC   O1120340   4.860   3.209   1.853 -0.0173  0.3032  0.1972
  179SLPC    C120341   4.812   3.344   1.889  0.5951 -0.5102  0.7182
  179SLPC    HA20342   4.878   3.406   1.953 -1.6764  2.0942  0.6732
  179SLPC    HB20343   4.797   3.403   1.797  1.6687  1.5646  1.8042
  179SLPC    C220344   4.684   3.353   1.971 -0.4223  0.1127  0.8555
  179SLPC    HS20345   4.661   3.458   1.999 -0.2319  0.6788 -0.9702
  179SLPC   O2120346   4.690   3.262   2.085 -0.0651 -0.2331 -0.5584
  179SLPC   C2120347   4.789   3.271   2.176 -0.6209  0.3710 -0.1614
  179SLPC   O2220348   4.884   3.350   2.179  0.1328 -0.3576 -0.3838
  179SLPC   C2220349   4.762   3.162   2.285 -0.1949 -0.4756 -0.3584
  179SLPC   H2R20350   4.719   3.072   2.235 -0.1215 -2.1396  2.3975
  179SLPC   H2S20351   4.863   3.145   2.327 -0.7856  1.3119  2.0219
  179SLPC    C320352   4.563   3.305   1.885  0.1468 -0.1791  0.1313
  179SLPC    HX20353   4.583   3.199   1.857  1.3210  0.2551 -0.7426
  179SLPC    HY20354   4.571   3.358   1.788 -0.6389  0.7509  0.5521
  179SLPC   O3120355   4.439   3.320   1.947  0.1988  0.9168  0.3711
  179SLPC   C3120356   4.388   3.218   2.013 -0.1287  0.1169 -0.2329
  179SLPC   O3220357   4.433   3.104   2.014 -0.4139 -0.1108  0.2451
  179SLPC   C3220358   4.264   3.270   2.078  0.4737 -0.1706  0.9878
  179SLPC   H2X20359   4.188   3.306   2.005  0.9637 -0.4763  0.3198
  179SLPC   H2Y20360   4.287   3.357   2.142  0.0678 -0.4415  1.5119
  179SLPC   C2320361   4.662   3.213   2.391  0.6450 -0.1563 -0.6017
  179SLPC   H3R20362   4.574   3.240   2.329  0.6225  2.2264  0.3574
  179SLPC   H3S20363   4.690   3.310   2.439 -1.9347  0.3158  0.0933
  179SLPC   C2420364   4.647   3.103   2.501  0.2781  0.8387  0.1028
  179SLPC   H4R20365   4.746   3.052   2.505 -0.2217 -0.0638  2.3578
  179SLPC   H4S20366   4.561   3.037   2.477 -0.4336  1.0081  2.0120
  179SLPC   C2520367   4.619   3.164   2.636  0.2562 -0.7092 -0.4254
  179SLPC   H5R20368   4.536   3.236   2.621 -0.1576 -1.5028 -2.2407
  179SLPC   H5S20369   4.708   3.220   2.670  1.4787 -1.7250 -1.8000
  179SLPC   C2620370   4.582   3.058   2.742  0.1810 -0.8785 -0.8965
  179SLPC   H6R20371   4.663   2.983   2.749  0.4821 -0.5173 -0.3862
  179SLPC   H6S20372   4.488   3.008   2.713 -0.5739 -0.4846  0.7451
  179SLPC   C2720373   4.557   3.122   2.879  0.6278 -0.7242  0.3704
  179SLPC   H7R20374   4.475   3.197   2.882 -1.2179 -2.5707 -1.2405
  179SLPC   H7S20375   4.653   3.169   2.910 -0.5680 -0.0773  3.4651
  179SLPC   C2820376   4.522   3.031   2.998  0.5788  0.5546  0.2691
  179SLPC   H8R20377   4.602   2.958   3.021 -0.1589  0.1851  1.7694
  179SLPC   H8S20378   4.453   2.953   2.958  1.7494 -0.7100  0.6432
  179SLPC   C2920379   4.491   3.096   3.135 -0.2320  0.4667  0.0862
  179SLPC   H9R20380   4.577   3.143   3.183 -0.6043  2.4146 -1.0552
  179SLPC  C21020381   4.372   3.092   3.193 -0.2572  0.1859  0.3165
  179SLPC  H10R20382   4.360   3.139   3.291 -0.6083 -1.6214  1.1825
  179SLPC  C21120383   4.244   3.035   3.141 -0.4943 -0.1013 -0.2722
  179SLPC  H11R20384   4.251   3.002   3.035 -1.5695 -1.8789  0.1687
  179SLPC  H11S20385   4.156   3.102   3.127 -0.9146 -0.3854  0.8275
  179SLPC  C21220386   4.195   2.923   3.225 -0.4481  0.5526  0.0890
  179SLPC  H12R20387   4.276   2.864   3.271  0.0047  1.0032 -0.1165
  179SLPC  C21320388   4.068   2.877   3.237 -0.2653  0.1917  0.2933
  179SLPC  H13R20389   4.051   2.796   3.309 -0.7846  0.4168  0.4273
  179SLPC  C21420390   3.944   2.926   3.172 -0.3782 -0.2852 -0.7346
  179SLPC  H14R20391   3.960   2.956   3.066  1.1915 -0.7470 -0.6464
  179SLPC  H14S20392   3.912   3.020   3.223 -1.4008 -1.5205  0.9935
  179SLPC  C21520393   3.826   2.816   3.164 -0.4542 -0.7018 -0.5189
  179SLPC  H15R20394   3.731   2.872   3.152 -1.0221 -1.8768 -1.7762
  179SLPC  H15S20395   3.822   2.753   3.255 -0.0046 -0.5176 -0.3684
  179SLPC  C21620396   3.838   2.714   3.044  0.0299 -0.3434 -0.0012
  179SLPC  H16R20397   3.939   2.669   3.053  0.4674  0.8052  1.1447
  179SLPC  H16S20398   3.844   2.756   2.942 -1.9874 -0.6132 -0.2881
  179SLPC  C21720399   3.715   2.622   3.033 -0.4350  0.3945  0.5679
  179SLPC  H17R20400   3.744   2.546   2.957  2.6854 -0.6141  2.5665
  179SLPC  H17S20401   3.625   2.673   2.993 -0.6276 -0.2035  0.2144
  179SLPC  C21820402   3.673   2.569   3.163 -0.2097  0.3066  0.8011
  179SLPC  H18R20403   3.584   2.505   3.143  0.7459 -0.7942 -0.0591
  179SLPC  H18S20404   3.642   2.638   3.245 -0.4234 -1.4544  2.2700
  179SLPC  H18T20405   3.753   2.507   3.208  0.5211  0.6051 -0.0654
  179SLPC   C3320406   4.196   3.166   2.165  0.6567  0.4595 -0.5110
  179SLPC   H3X20407   4.171   3.081   2.099  1.6745  1.5332 -2.3576
  179SLPC   H3Y20408   4.100   3.209   2.202 -0.8745 -1.4991 -1.9687
  179SLPC   C3420409   4.272   3.134   2.295 -0.2189 -0.0313  0.3248
  179SLPC   H4X20410   4.274   3.220   2.365 -3.1427  0.4622 -0.1006
  179SLPC   H4Y20411   4.373   3.092   2.276  0.2383  0.0660  2.2801
  179SLPC   C3520412   4.194   3.023   2.367 -0.0011  0.0250 -0.6935
  179SLPC   H5X20413   4.090   3.053   2.392  0.0727  1.6987 -2.1986
  179SLPC   H5Y20414   4.186   2.945   2.289 -0.2678  0.9853 -1.6502
  179SLPC   C3620415   4.268   2.967   2.489 -0.4502 -0.3389 -0.0149
  179SLPC   H6X20416   4.257   3.038   2.573  2.1509 -1.1403  1.0951
  179SLPC   H6Y20417   4.377   2.952   2.471 -0.0900  0.5340  1.3555
  179SLPC   C3720418   4.198   2.843   2.548 -0.0638 -0.9662  0.6981
  179SLPC   H7X20419   4.196   2.784   2.454  0.9184  0.0148  0.0351
  179SLPC   H7Y20420   4.092   2.871   2.568  0.1306  0.2932  0.0877
  179SLPC   C3820421   4.276   2.762   2.649 -0.2027 -0.3935  0.4331
  179SLPC   H8X20422   4.384   2.759   2.621 -0.6153 -0.5527 -1.2222
  179SLPC   H8Y20423   4.254   2.655   2.631 -1.5353 -0.0281 -0.1752
  179SLPC   C3920424   4.235   2.787   2.789  0.7493  0.2766 -1.0249
  179SLPC   H9X20425   4.130   2.752   2.796  1.2454 -0.9468  2.7286
  179SLPC   H9Y20426   4.240   2.897   2.805 -0.9149 -0.1668  4.9035
  179SLPC  C31020427   4.318   2.709   2.884  0.5503  0.8697 -0.5123
  179SLPC  H10X20428   4.306   2.750   2.987 -2.6046 -0.1526 -0.3494
  179SLPC  H10Y20429   4.418   2.735   2.843  0.4704 -2.8332 -3.5897
  179SLPC  C31120430   4.291   2.557   2.891 -0.1972  0.6166 -0.0693
  179SLPC  H11X20431   4.305   2.521   2.787 -0.2921  0.7690 -0.1355
  179SLPC  H11Y20432   4.186   2.547   2.926  0.4944  1.7615  2.6397
  179SLPC  C31220433   4.386   2.477   2.987 -0.4882  0.1557 -0.6512
  179SLPC  H12X20434   4.493   2.487   2.961  0.2889 -0.1510  2.1610
  179SLPC  H12Y20435   4.361   2.369   2.984  1.2982 -0.2674 -1.8873
  179SLPC  C31320436   4.364   2.518   3.133  0.1711 -0.2582  0.6256
  179SLPC  H13X20437   4.379   2.628   3.140 -0.0659 -0.0459 -1.6238
  179SLPC  H13Y20438   4.445   2.473   3.195  3.5991  3.9998 -0.2870
  179SLPC  C31420439   4.217   2.481   3.184 -1.1253 -0.0454  0.0323
  179SLPC  H14X20440   4.221   2.371   3.170  0.0436 -0.0219  0.0759
  179SLPC  H14Y20441   4.129   2.514   3.125  0.1530 -0.1512 -2.0282
  179SLPC  C31520442   4.203   2.535   3.328  0.6224 -0.2019 -0.3170
  179SLPC  H15X20443   4.205   2.645   3.315 -2.0521  0.1304  1.3015
  179SLPC  H15Y20444   4.285   2.503   3.395  1.2705 -0.9862 -1.4354
  179SLPC  C31620445   4.058   2.509   3.387 -0.2974  0.2684  0.5552
  179SLPC  H16X20446   3.985   2.567   3.328  0.0310  1.8652  1.6571
  179SLPC  H16Y20447   4.060   2.544   3.492  0.9276 -1.1334  1.0340
  179SLPC  C31720448   4.020   2.366   3.393  0.2927 -0.0735  0.0061
  179SLPC  H17X20449   4.100   2.305   3.440  1.6323  2.3093  0.9857
  179SLPC  H17Y20450   4.017   2.338   3.286 -2.0226  0.6813 -0.1803
  179SLPC  C31820451   3.889   2.322   3.451 -0.3428  0.3915  0.1993
  179SLPC  H18X20452   3.888   2.343   3.560 -0.9621 -1.3175  0.5595
  179SLPC  H18Y20453   3.880   2.215   3.419  2.7630  0.0808  0.0926
  179SLPC  H18Z20454   3.814   2.379   3.392 -1.5807 -1.3735 -0.0474
  180SLPC     N20455   1.382   1.014   1.884 -0.0581  0.0577 -0.2467
  180SLPC   C1320456   1.390   1.142   1.822 -0.6241 -0.5223  0.4526
  180SLPC  H13A20457   1.350   1.228   1.875  0.4852  0.9534 -0.9922
  180SLPC  H13B20458   1.489   1.170   1.790 -0.4237 -1.1993  0.4687
  180SLPC  H13C20459   1.327   1.128   1.736  1.1316  0.0502 -1.0083
  180SLPC   C1420460   1.428   0.908   1.789  0.3264  0.9823 -0.1062
  180SLPC  H14A20461   1.522   0.931   1.741  1.3877 -1.4020  0.6557
  180SLPC  H14B20462   1.441   0.815   1.843  1.0690  2.0797  1.6827
  180SLPC  H14C20463   1.347   0.885   1.721 -1.2643  1.2519  1.5958
  180SLPC   C1520464   1.232   1.003   1.915 -0.1381  0.0575 -0.6605
  180SLPC  H15A20465   1.201   0.905   1.947  0.2009  0.8449  2.3871
  180SLPC  H15B20466   1.205   1.076   1.991  2.0773 -1.0254  1.2984
  180SLPC  H15C20467   1.172   1.031   1.830 -0.9893  0.2268 -0.0168
  180SLPC   C1220468   1.472   1.003   2.007  0.3662 -0.3534  0.2043
  180SLPC  H12A20469   1.482   1.096   2.061  0.8157 -0.5471  0.4617
  180SLPC  H12B20470   1.571   0.990   1.965 -0.6665 -0.6438 -2.3102
  180SLPC   C1120471   1.443   0.884   2.112  0.4726  0.1556 -0.7776
  180SLPC  H11A20472   1.339   0.895   2.150 -0.1973 -2.0641 -1.7844
  180SLPC  H11B20473   1.508   0.901   2.201  2.7750 -0.4656 -2.2356
  180SLPC     P20474   1.586   0.686   2.036  0.1222  0.0726  0.2534
  180SLPC   O1320475   1.569   0.572   1.942  0.1279  0.4579 -0.1966
  180SLPC   O1420476   1.685   0.788   2.004  0.1035  0.1092 -0.1550
  180SLPC   O1220477   1.449   0.760   2.038 -0.0060 -0.2220 -0.9771
  180SLPC   O1120478   1.610   0.627   2.188  0.1123 -0.2640  0.0123
  180SLPC    C120479   1.530   0.521   2.242  0.2784  0.1927  0.6053
  180SLPC    HA20480   1.459   0.475   2.169 -0.6993  0.9980  1.0083
  180SLPC    HB20481   1.587   0.442   2.295  2.0935  1.7787  1.1247
  180SLPC    C220482   1.428   0.582   2.340 -0.2653 -0.2167  0.5673
  180SLPC    HS20483   1.391   0.676   2.296 -2.2590 -1.7698 -1.2620
  180SLPC   O2120484   1.500   0.619   2.462  0.3136 -0.3912  0.0331
  180SLPC   C2120485   1.425   0.688   2.545 -0.0113 -0.0996  0.0342
  180SLPC   O2220486   1.312   0.734   2.528 -0.1590  0.4780  0.1556
  180SLPC   C2220487   1.502   0.693   2.680  0.4669 -0.0634  0.2231
  180SLPC   H2R20488   1.593   0.630   2.673 -0.1962 -0.9501 -0.7325
  180SLPC   H2S20489   1.533   0.799   2.696 -2.8103  0.9100  0.8602
  180SLPC    C320490   1.302   0.485   2.361  0.0142 -0.6485 -0.5251
  180SLPC    HX20491   1.270   0.476   2.255 -0.0894 -0.4058 -0.5148
  180SLPC    HY20492   1.241   0.551   2.427  1.4848  0.1994  0.0454
  180SLPC   O3120493   1.343   0.373   2.433 -0.0406  0.0708  0.3305
  180SLPC   C3120494   1.249   0.280   2.464  0.1162 -0.0484 -0.4476
  180SLPC   O3220495   1.131   0.293   2.447  0.4059 -0.1921  1.0235
  180SLPC   C3220496   1.323   0.169   2.542  0.1770  0.4373 -0.0063
  180SLPC   H2X20497   1.404   0.207   2.607  0.8857 -0.9493 -0.0296
  180SLPC   H2Y20498   1.377   0.096   2.478 -1.7597  0.4096 -1.7107
  180SLPC   C2320499   1.410   0.653   2.797  0.5852  0.5461 -0.3527
  180SLPC   H3R20500   1.308   0.689   2.774 -0.3874 -1.2396  0.9125
  180SLPC   H3S20501   1.441   0.712   2.886  1.1583 -0.7192  0.3322
  180SLPC   C2420502   1.428   0.500   2.825 -0.2413  0.4402  0.3521
  180SLPC   H4R20503   1.525   0.495   2.879 -0.8536  1.1893  1.5659
  180SLPC   H4S20504   1.435   0.451   2.726  0.2812  0.5067  0.3541
  180SLPC   C2520505   1.329   0.445   2.928  0.4053 -0.5281 -0.2707
  180SLPC   H5R20506   1.231   0.445   2.875  0.2647  3.3286 -0.2769
  180SLPC   H5S20507   1.311   0.509   3.016 -2.6189 -1.4979 -0.0608
  180SLPC   C2620508   1.359   0.313   2.993  0.0456 -0.9997 -0.1913
  180SLPC   H6R20509   1.401   0.253   2.909 -0.2541 -1.5812  0.0695
  180SLPC   H6S20510   1.262   0.266   3.018 -1.0187 -0.0361 -2.2554
  180SLPC   C2720511   1.456   0.324   3.111 -0.1308 -0.0052  0.0514
  180SLPC   H7R20512   1.547   0.368   3.065 -1.0954  1.5277 -0.4553
  180SLPC   H7S20513   1.474   0.219   3.142 -0.6328  0.4410  2.0541
  180SLPC   C2820514   1.410   0.408   3.237 -0.0545  0.2950 -0.1527
  180SLPC   H8R20515   1.326   0.353   3.283 -0.5367  0.9685 -0.2039
  180SLPC   H8S20516   1.381   0.510   3.203 -1.2818 -1.4818 -5.4366
  180SLPC   C2920517   1.523   0.423   3.335  0.6573 -0.1833  0.3430
  180SLPC   H9R20518   1.584   0.512   3.312 -0.3641  0.4041 -0.1781
  180SLPC  C21020519   1.544   0.344   3.444 -0.7463  0.3293  0.4866
  180SLPC  H10R20520   1.635   0.350   3.505 -0.4305 -2.3176  0.4009
  180SLPC  C21120521   1.455   0.232   3.484 -0.1341  0.1901 -0.3869
  180SLPC  H11R20522   1.522   0.145   3.500 -0.0921 -0.0546 -1.7271
  180SLPC  H11S20523   1.389   0.197   3.401 -0.8698 -2.5642  1.2417
  180SLPC  C21220524   1.380   0.252   3.614  0.4887 -0.1148 -0.4504
  180SLPC  H12R20525   1.373   0.159   3.671  1.4722  0.4323  0.6038
  180SLPC  C21320526   1.305   0.356   3.660  0.3002 -0.5752 -0.3804
  180SLPC  H13R20527   1.261   0.338   3.759  0.0362 -1.5612 -0.6615
  180SLPC  C21420528   1.297   0.490   3.590 -0.1958 -0.1939  0.5422
  180SLPC  H14R20529   1.234   0.472   3.500 -0.6318 -2.1466  1.1814
  180SLPC  H14S20530   1.396   0.536   3.569 -1.0521  1.5463  0.1625
  180SLPC  C21520531   1.231   0.602   3.679 -0.3667 -0.0214 -0.0711
  180SLPC  H15R20532   1.239   0.695   3.618 -0.0855 -0.2415 -0.3747
  180SLPC  H15S20533   1.282   0.616   3.776 -2.9568  1.7609  1.1549
  180SLPC  C21620534   1.085   0.579   3.713  0.2779 -0.1274 -0.2660
  180SLPC  H16R20535   1.076   0.485   3.772  0.8466  0.7025  1.1986
  180SLPC  H16S20536   1.029   0.571   3.617 -0.6252  2.4896 -0.0367
  180SLPC  C21720537   1.023   0.693   3.796 -0.2347  0.0940  0.5838
  180SLPC  H17R20538   1.043   0.793   3.752 -1.9760  0.2999  0.1650
  180SLPC  H17S20539   1.066   0.698   3.898  0.6123  1.8797  0.1801
  180SLPC  C21820540   0.870   0.675   3.800 -0.0556  0.2052  0.4736
  180SLPC  H18R20541   0.824   0.737   3.879 -0.2635 -1.7943  1.9906
  180SLPC  H18S20542   0.849   0.569   3.825  1.5208 -0.2683 -0.0911
  180SLPC  H18T20543   0.834   0.679   3.695  2.3383 -0.0112 -0.4410
  180SLPC   C3320544   1.227   0.092   2.637  0.0052 -0.8755 -1.0542
  180SLPC   H3X20545   1.165   0.029   2.570 -0.3675 -0.3754 -1.1840
  180SLPC   H3Y20546   1.173   0.166   2.700  1.9933  0.1750 -0.5050
  180SLPC   C3420547   1.313   0.017   2.746  0.3135  0.3355  0.6644
  180SLPC   H4X20548   1.399   0.078   2.779  0.1545  1.4706 -0.9091
  180SLPC   H4Y20549   1.348  -0.075   2.695  1.8687  1.7625 -0.9549
  180SLPC   C3520550   1.207  -0.020   2.855 -0.8082 -0.0792  0.2628
  180SLPC   H5X20551   1.106  -0.043   2.816 -0.3751 -2.5024  0.3837
  180SLPC   H5Y20552   1.202   0.078   2.906 -0.7253  0.8597 -1.4597
  180SLPC   C3620553   1.252  -0.131   2.950 -0.1293 -0.4678  0.0608
  180SLPC   H6X20554   1.270  -0.230   2.903 -0.3971  0.4262 -2.0430
  180SLPC   H6Y20555   1.167  -0.158   3.017  1.0148 -1.0529  1.3144
  180SLPC   C3720556   1.367  -0.096   3.036 -0.1076 -0.3999  1.1324
  180SLPC   H7X20557   1.380   0.014   3.048  2.8886 -0.7209  1.5696
  180SLPC   H7Y20558   1.458  -0.124   2.979  0.4290  2.8578  0.1750
  180SLPC   C3820559   1.354  -0.163   3.170  0.1929  0.2355 -0.1408
  180SLPC   H8X20560   1.335  -0.273   3.165  0.4302  0.2429 -2.1990
  180SLPC   H8Y20561   1.264  -0.122   3.221 -1.6896 -4.1082  0.4959
  180SLPC   C3920562   1.473  -0.151   3.260  0.1628  0.4897  0.1222
  180SLPC   H9X20563   1.509  -0.052   3.296  1.9617 -0.5814  1.4320
  180SLPC   H9Y20564   1.549  -0.197   3.194  0.2060  1.1515 -0.3022
  180SLPC  C31020565   1.457  -0.238   3.383  0.1657  0.5867  0.5710
  180SLPC  H10X20566   1.554  -0.287   3.408  0.8391 -0.7183 -3.8145
  180SLPC  H10Y20567   1.389  -0.325   3.370 -0.7705  1.1966  1.3079
  180SLPC  C31120568   1.428  -0.154   3.504 -0.3626 -0.5152 -0.2898
  180SLPC  H11X20569   1.330  -0.102   3.496  0.0325  1.0016  3.0977
  180SLPC  H11Y20570   1.501  -0.072   3.522 -1.4960  0.0376  2.0331
  180SLPC  C31220571   1.416  -0.228   3.636 -0.2261  0.4151  0.8363
  180SLPC  H12X20572   1.501  -0.298   3.649  0.2022  1.1011  1.8715
  180SLPC  H12Y20573   1.320  -0.283   3.646 -0.3507  0.5989  0.6647
  180SLPC  C31320574   1.412  -0.143   3.757 -0.5231 -0.7264 -0.3746
  180SLPC  H13X20575   1.323  -0.076   3.755  1.2409  1.7452 -1.2639
  180SLPC  H13Y20576   1.502  -0.078   3.763 -0.3140 -1.1226  3.0057
  180SLPC  C31420577   1.417  -0.219   3.891  0.7931 -0.7343 -0.8380
  180SLPC  H14X20578   1.331  -0.289   3.890 -0.3711  0.6336 -0.1133
  180SLPC  H14Y20579   1.407  -0.160   3.985 -2.2253 -2.1288 -0.1686
  180SLPC  C31520580   1.533  -0.312   3.919  0.2354 -0.1022 -0.1608
  180SLPC  H15X20581   1.627  -0.261   3.892  0.3368  1.1715  2.3551
  180SLPC  H15Y20582   1.535  -0.396   3.846 -1.5027  0.4481 -0.9047
  180SLPC  C31620583   1.547  -0.376   4.055  0.0150 -0.1931  0.0981
  180SLPC  H16X20584   1.633  -0.445   4.046 -0.5630 -1.0519  0.8912
  180SLPC  H16Y20585   1.456  -0.438   4.069 -1.6538  2.0432 -0.1221
  180SLPC  C31720586   1.553  -0.281   4.178 -0.3405 -1.2017  0.0858
  180SLPC  H17X20587   1.450  -0.246   4.194 -0.0329 -0.6362  0.8456
  180SLPC  H17Y20588   1.623  -0.199   4.151 -0.7136 -0.9485 -0.1071
  180SLPC  C31820589   1.608  -0.340   4.305 -0.8247  0.0113 -0.0553
  180SLPC  H18X20590   1.609  -0.264   4.386  1.4898 -2.1332  2.1090
  180SLPC  H18Y20591   1.709  -0.386   4.297 -0.9681 -0.1220 -1.2030
  180SLPC  H18Z20592   1.551  -0.431   4.333 -0.7357  0.2679  1.0084
  181SLPC     N20593   5.649   1.564   2.036  0.1269  0.6560 -0.3706
  181SLPC   C1320594   5.547   1.518   2.136  0.6118  0.1509 -0.3744
  181SLPC  H13A20595   5.573   1.433   2.197 -0.0652 -1.0943 -1.7791
  181SLPC  H13B20596   5.500   1.601   2.187  0.7322  1.0470 -1.6843
  181SLPC  H13C20597   5.468   1.466   2.085  1.7408  1.0113 -3.2036
  181SLPC   C1420598   5.589   1.666   1.938  0.1219 -0.3389 -0.0567
  181SLPC  H14A20599   5.513   1.619   1.878  0.5837  1.1615 -1.9037
  181SLPC  H14B20600   5.546   1.748   1.993 -1.5268 -1.6860  0.7426
  181SLPC  H14C20601   5.669   1.705   1.877  0.8869 -2.6446 -0.6428
  181SLPC   C1520602   5.680   1.444   1.954  0.5446 -0.4840 -0.1456
  181SLPC  H15A20603   5.581   1.409   1.927  0.3419 -1.1514  1.3920
  181SLPC  H15B20604   5.738   1.478   1.869 -0.3326  2.7712  0.4018
  181SLPC  H15C20605   5.723   1.365   2.013  0.9246 -1.5650 -1.7973
  181SLPC   C1220606   5.770   1.621   2.111  0.0111 -0.3174  0.4886
  181SLPC  H12A20607   5.842   1.663   2.042  2.6432 -2.2504  1.8396
  181SLPC  H12B20608   5.825   1.544   2.164 -1.0278 -1.2503  0.2408
  181SLPC   C1120609   5.747   1.740   2.208 -0.4604  0.7234  0.5231
  181SLPC  H11A20610   5.827   1.749   2.285  0.7969  1.8754 -0.8328
  181SLPC  H11B20611   5.661   1.714   2.272  0.5362 -2.5093  0.7310
  181SLPC     P20612   5.611   1.951   2.156  0.1686 -0.2653  0.3104
  181SLPC   O1320613   5.527   1.933   2.038 -0.5181 -0.0734  0.0376
  181SLPC   O1420614   5.552   1.928   2.288  0.4248  0.0035 -0.3496
  181SLPC   O1220615   5.738   1.863   2.140  0.2088 -0.0953  0.2279
  181SLPC   O1120616   5.668   2.096   2.158  0.3643 -0.0992 -0.2829
  181SLPC    C120617   5.798   2.140   2.181  0.0520 -0.0196 -0.0997
  181SLPC    HA20618   5.860   2.111   2.094 -0.6672  1.6031 -1.2065
  181SLPC    HB20619   5.799   2.250   2.194  0.3387 -0.3101  2.9245
  181SLPC    C220620   5.867   2.083   2.308  0.0432 -0.1669  0.6157
  181SLPC    HS20621   5.876   1.973   2.297  0.0861 -0.0516 -0.7517
  181SLPC   O2120622   5.794   2.118   2.418 -0.0992 -0.2374 -0.0898
  181SLPC   C2120623   5.757   2.018   2.499  0.4543  0.2725 -0.2461
  181SLPC   O2220624   5.797   1.902   2.492 -0.0009  0.2737 -0.3044
  181SLPC   C2220625   5.661   2.081   2.600 -0.5238 -0.4731 -0.4995
  181SLPC   H2R20626   5.711   2.170   2.644  1.6037 -1.6792 -0.3207
  181SLPC   H2S20627   5.568   2.106   2.545 -1.1124 -1.7921 -0.1501
  181SLPC    C320628   6.016   2.134   2.327 -0.2328 -0.1354  0.0683
  181SLPC    HX20629   6.005   2.243   2.343 -1.7680 -0.4000  1.0360
  181SLPC    HY20630   6.056   2.113   2.225 -2.3377 -0.8385 -0.6720
  181SLPC   O3120631   6.091   2.060   2.430 -0.0553  0.8522  0.4002
  181SLPC   C3120632   6.097   2.117   2.551 -0.2716  0.1508  0.4223
  181SLPC   O3220633   6.046   2.224   2.584 -0.6647  0.2448  0.1047
  181SLPC   C3220634   6.183   2.026   2.650 -0.1100  0.4041 -0.5003
  181SLPC   H2X20635   6.281   2.024   2.598  1.2701  0.5550  1.9572
  181SLPC   H2Y20636   6.140   1.924   2.656 -0.2537  0.4799 -0.2101
  181SLPC   C2320637   5.626   1.981   2.716  0.2276 -0.2030  0.2330
  181SLPC   H3R20638   5.724   1.944   2.752 -1.2522 -1.1207  3.7306
  181SLPC   H3S20639   5.561   1.896   2.686  0.4260 -0.1862 -0.2622
  181SLPC   C2420640   5.549   2.053   2.823  0.2097 -0.1726 -0.0742
  181SLPC   H4R20641   5.453   2.096   2.787  1.3439  3.0580  0.3401
  181SLPC   H4S20642   5.608   2.140   2.861 -1.2065  0.7241  0.1635
  181SLPC   C2520643   5.526   1.962   2.942 -0.6206  0.2479 -0.0149
  181SLPC   H5R20644   5.493   1.863   2.906  2.9823 -0.5300 -1.6245
  181SLPC   H5S20645   5.440   2.004   2.999 -1.9897 -0.6324 -1.3558
  181SLPC   C2620646   5.650   1.966   3.035  0.3914  0.7323  0.1021
  181SLPC   H6R20647   5.656   2.056   3.100 -2.4540  1.1536 -0.0530
  181SLPC   H6S20648   5.731   1.962   2.959 -1.3060  2.8941 -1.9810
  181SLPC   C2720649   5.654   1.841   3.124 -0.7238  0.3374 -0.9021
  181SLPC   H7R20650   5.749   1.842   3.181  0.9874  0.1053 -3.6095
  181SLPC   H7S20651   5.656   1.746   3.068 -0.1647  0.2371 -0.7188
  181SLPC   C2820652   5.533   1.831   3.223  0.3663 -0.0432  0.2622
  181SLPC   H8R20653   5.543   1.737   3.281  0.0648 -0.1779  0.0982
  181SLPC   H8S20654   5.436   1.823   3.170  0.5350 -2.8423  0.2415
  181SLPC   C2920655   5.521   1.952   3.317  0.4052  0.3941 -0.3383
  181SLPC   H9R20656   5.509   2.053   3.277  0.2999  0.2742 -0.6114
  181SLPC  C21020657   5.481   1.946   3.448  0.4137  0.2145  0.1518
  181SLPC  H10R20658   5.474   2.039   3.508  0.5907  0.5608 -0.3548
  181SLPC  C21120659   5.467   1.817   3.527 -0.5397  0.0891 -0.5747
  181SLPC  H11R20660   5.469   1.725   3.464  0.8357  0.8957 -1.7544
  181SLPC  H11S20661   5.371   1.829   3.581  0.4653 -2.0040  1.8690
  181SLPC  C21220662   5.584   1.788   3.624  0.0059 -0.9880 -0.4999
  181SLPC  H12R20663   5.684   1.810   3.584 -1.1043  1.6386 -2.0836
  181SLPC  C21320664   5.572   1.752   3.750 -0.5188 -0.2270 -0.5810
  181SLPC  H13R20665   5.664   1.748   3.810 -1.4996 -0.0008  1.0086
  181SLPC  C21420666   5.451   1.708   3.821  1.1197  0.9270 -0.7344
  181SLPC  H14R20667   5.449   1.597   3.833 -2.3172  1.0355  1.2517
  181SLPC  H14S20668   5.367   1.739   3.755  0.8049 -0.5202 -1.0494
  181SLPC  C21520669   5.436   1.765   3.961  0.3730 -0.5777  0.1715
  181SLPC  H15R20670   5.437   1.876   3.948  0.2533 -0.6432 -0.4305
  181SLPC  H15S20671   5.517   1.753   4.035 -1.2041  1.7237  2.4574
  181SLPC  C21620672   5.312   1.733   4.052  0.6423  0.5989  0.1568
  181SLPC  H16R20673   5.212   1.768   4.018  0.8391  1.4619  0.4457
  181SLPC  H16S20674   5.339   1.795   4.139  0.4604  0.7880  0.0785
  181SLPC  C21720675   5.298   1.585   4.090  0.1950 -0.0624  0.1281
  181SLPC  H17R20676   5.391   1.535   4.125  0.8071  0.4050 -0.7546
  181SLPC  H17S20677   5.271   1.535   3.994 -0.9699 -0.2145  0.5270
  181SLPC  C21820678   5.188   1.574   4.197 -0.0594  0.1349  0.7352
  181SLPC  H18R20679   5.095   1.617   4.155 -0.2381 -0.1266  0.8677
  181SLPC  H18S20680   5.204   1.642   4.283 -0.5221  1.0901  0.0863
  181SLPC  H18T20681   5.168   1.467   4.218 -3.9123  0.3447 -1.0985
  181SLPC   C3320682   6.189   2.095   2.785  0.0819 -0.3086  1.1901
  181SLPC   H3X20683   6.187   2.206   2.774 -2.9824 -0.0900  2.7584
  181SLPC   H3Y20684   6.286   2.062   2.828  0.1319 -0.2588  1.1166
  181SLPC   C3420685   6.084   2.041   2.888 -0.3936  0.3369  0.6393
  181SLPC   H4X20686   6.112   1.934   2.899 -1.3840  0.1915  2.0605
  181SLPC   H4Y20687   5.983   2.046   2.842  1.3953  2.2769 -3.6571
  181SLPC   C3520688   6.077   2.124   3.009 -0.3600  0.0479 -0.4198
  181SLPC   H5X20689   6.045   2.227   2.980 -0.7325 -0.4953 -2.0642
  181SLPC   H5Y20690   6.181   2.145   3.042 -0.6956  1.0727  0.0156
  181SLPC   C3620691   6.005   2.070   3.134 -0.2749 -0.5332 -0.3286
  181SLPC   H6X20692   5.897   2.061   3.108 -0.1115  0.6966 -1.5740
  181SLPC   H6Y20693   6.013   2.145   3.214  0.7685 -0.7319 -0.2378
  181SLPC   C3720694   6.050   1.927   3.171 -0.1281  0.7385  0.8081
  181SLPC   H7X20695   6.153   1.915   3.131 -0.5139  0.8165 -0.2473
  181SLPC   H7Y20696   5.999   1.850   3.109  0.6530  0.1019  0.9263
  181SLPC   C3820697   6.031   1.887   3.318 -0.5734  0.3709  0.3552
  181SLPC   H8X20698   6.049   1.778   3.320 -0.4485  0.3519 -0.8005
  181SLPC   H8Y20699   5.922   1.896   3.340 -0.5429  1.6603  0.0965
  181SLPC   C3920700   6.115   1.970   3.418  0.2153  0.1966  0.2098
  181SLPC   H9X20701   6.102   2.077   3.392 -0.5436  0.3766  1.2605
  181SLPC   H9Y20702   6.215   1.933   3.386  0.3851 -0.1927  1.1455
  181SLPC  C31020703   6.101   1.918   3.567  0.1195  0.2846  0.9994
  181SLPC  H10X20704   6.198   1.946   3.613 -0.0676  1.6146  0.6165
  181SLPC  H10Y20705   6.094   1.807   3.570  1.3594  0.1700  0.2535
  181SLPC  C31120706   5.981   1.981   3.635 -0.3086  0.8431 -0.2127
  181SLPC  H11X20707   5.883   1.952   3.590 -0.1160  1.5603 -1.1153
  181SLPC  H11Y20708   5.985   2.091   3.640 -1.7081  1.0112 -1.9703
  181SLPC  C31220709   5.979   1.945   3.783 -0.2222  0.1392 -0.2788
  181SLPC  H12X20710   6.074   1.975   3.831 -0.9395  1.7834  0.1681
  181SLPC  H12Y20711   5.973   1.835   3.800 -1.4937  0.0826 -0.8916
  181SLPC  C31320712   5.852   2.001   3.862  0.1872 -0.0406 -0.3812
  181SLPC  H13X20713   5.768   1.942   3.821 -0.1436 -0.2021  0.4942
  181SLPC  H13Y20714   5.847   2.107   3.829  0.9106  0.1937  0.2269
  181SLPC  C31420715   5.852   1.979   4.011 -0.2608  1.0031 -0.5643
  181SLPC  H14X20716   5.760   2.024   4.054  0.2110  1.0572  0.4305
  181SLPC  H14Y20717   5.940   2.036   4.048 -0.9288  1.0902  0.9710
  181SLPC  C31520718   5.846   1.831   4.062 -0.5808 -0.5105  0.3136
  181SLPC  H15X20719   5.946   1.782   4.070 -0.0782  0.4595  0.1285
  181SLPC  H15Y20720   5.788   1.780   3.982  0.9740 -0.0261 -1.1887
  181SLPC  C31620721   5.765   1.825   4.183 -0.2096 -0.2428 -0.3159
  181SLPC  H16X20722   5.751   1.720   4.217  0.3206 -0.3121 -0.3078
  181SLPC  H16Y20723   5.661   1.863   4.179 -1.1159 -2.4329  0.5182
  181SLPC  C31720724   5.832   1.902   4.295 -0.1437 -0.4215 -0.2026
  181SLPC  H17X20725   5.846   2.006   4.258  1.3821 -0.7744 -0.6841
  181SLPC  H17Y20726   5.931   1.855   4.316 -1.1665 -1.2459  3.5635
  181SLPC  C31820727   5.745   1.903   4.429 -0.2171  0.9731 -0.4619
  181SLPC  H18X20728   5.791   1.973   4.502  2.6154 -0.6483 -0.5351
  181SLPC  H18Y20729   5.732   1.801   4.469  0.3124  1.5078  1.1900
  181SLPC  H18Z20730   5.644   1.941   4.404 -0.1276  0.4023 -1.7557
  182SLPC     N20731   5.296   2.278   2.114 -0.5918  0.7815 -0.4815
  182SLPC   C1320732   5.269   2.418   2.146 -0.4956  0.8734 -0.0932
  182SLPC  H13A20733   5.261   2.474   2.054 -0.9656  1.0849  0.0747
  182SLPC  H13B20734   5.176   2.431   2.200  0.0162 -0.8454  1.2738
  182SLPC  H13C20735   5.351   2.473   2.189  0.9162 -0.9463 -0.3645
  182SLPC   C1420736   5.422   2.273   2.041  0.1035 -0.1697 -0.2613
  182SLPC  H14A20737   5.448   2.174   2.007  0.4288 -0.0181 -0.4639
  182SLPC  H14B20738   5.407   2.340   1.957 -0.3027 -0.2823 -0.2813
  182SLPC  H14C20739   5.506   2.313   2.095 -1.6148  2.1990  0.8722
  182SLPC   C1520740   5.200   2.232   2.008 -0.1440  0.0406  0.2912
  182SLPC  H15A20741   5.103   2.240   2.055  0.7731  1.4965  2.0799
  182SLPC  H15B20742   5.202   2.296   1.920 -1.1659  1.6202  1.3646
  182SLPC  H15C20743   5.215   2.133   1.968 -1.8488  0.3719 -1.3537
  182SLPC   C1220744   5.294   2.188   2.241 -0.0637 -0.3483  0.8864
  182SLPC  H12A20745   5.372   2.225   2.307 -1.0025  1.6121  0.9669
  182SLPC  H12B20746   5.311   2.086   2.211 -0.5465  0.1006 -1.0353
  182SLPC   C1120747   5.170   2.188   2.335  0.2645  0.1369  0.4436
  182SLPC  H11A20748   5.143   2.291   2.365 -1.9720  0.1114 -1.2876
  182SLPC  H11B20749   5.200   2.129   2.425  1.7603  0.0250 -0.0913
  182SLPC     P20750   5.045   1.980   2.246 -0.2115  0.1750 -0.2979
  182SLPC   O1320751   4.945   1.965   2.138  0.0868 -0.7586 -0.0950
  182SLPC   O1420752   5.180   1.927   2.219 -0.3234  0.2245  0.1585
  182SLPC   O1220753   5.061   2.132   2.269  0.4582  0.1379 -0.2940
  182SLPC   O1120754   4.991   1.922   2.385  0.2632 -0.7274  0.1241
  182SLPC    C120755   4.855   1.918   2.409 -0.4165  0.3786  0.0191
  182SLPC    HA20756   4.824   2.024   2.407  0.7995  0.7500  0.3694
  182SLPC    HB20757   4.805   1.853   2.334 -1.6839 -0.1225  1.2417
  182SLPC    C220758   4.821   1.857   2.548  0.0959 -0.1975  0.5923
  182SLPC    HS20759   4.730   1.903   2.591  0.6684  1.9390 -0.3554
  182SLPC   O2120760   4.932   1.871   2.643  0.7699  0.5320  0.2573
  182SLPC   C2120761   4.972   1.991   2.665 -0.8090 -0.1441 -0.0172
  182SLPC   O2220762   4.903   2.089   2.632  0.2108  1.0174 -0.4584
  182SLPC   C2220763   5.116   1.991   2.727  0.2035 -0.3096  0.0204
  182SLPC   H2R20764   5.170   1.946   2.641  0.7483  3.6502 -1.8829
  182SLPC   H2S20765   5.138   2.099   2.738 -3.1295  0.3618  1.2566
  182SLPC    C320766   4.766   1.711   2.543 -0.0439  0.8713  0.2473
  182SLPC    HX20767   4.837   1.643   2.491 -0.8057  0.9330 -0.9151
  182SLPC    HY20768   4.677   1.713   2.477 -0.6695  3.2443  1.0595
  182SLPC   O3120769   4.748   1.668   2.676  0.5865 -0.3955 -0.1961
  182SLPC   C3120770   4.622   1.642   2.717 -0.0289  0.4449 -0.3732
  182SLPC   O3220771   4.533   1.621   2.638  0.0351  0.7773 -0.6172
  182SLPC   C3220772   4.607   1.649   2.869  0.1463  0.2042  0.6331
  182SLPC   H2X20773   4.606   1.758   2.893  0.1628  0.2253  0.5405
  182SLPC   H2Y20774   4.699   1.614   2.919  0.8811  1.4095  0.1841
  182SLPC   C2320775   5.128   1.915   2.859 -0.0846  0.1796  0.2274
  182SLPC   H3R20776   5.233   1.936   2.890  1.1145 -0.8115 -2.7403
  182SLPC   H3S20777   5.130   1.804   2.849  2.0191  0.3331 -2.4091
  182SLPC   C2420778   5.038   1.947   2.973  0.3559 -0.1042 -0.2449
  182SLPC   H4R20779   4.929   1.936   2.952 -0.0267  1.8904  0.4176
  182SLPC   H4S20780   5.046   2.056   2.994 -1.4566  0.1139 -0.4840
  182SLPC   C2520781   5.082   1.865   3.094 -0.0495 -0.7330 -0.4500
  182SLPC   H5R20782   5.184   1.896   3.124  0.4702 -2.1817 -0.6581
  182SLPC   H5S20783   5.087   1.755   3.081 -1.2987 -1.1529  2.0598
  182SLPC   C2620784   4.994   1.908   3.217 -0.3632  0.3310 -0.1603
  182SLPC   H6R20785   4.894   1.859   3.214 -0.2673  0.1698 -0.8008
  182SLPC   H6S20786   4.969   2.016   3.215  2.5181  1.0803  0.7653
  182SLPC   C2720787   5.062   1.878   3.349 -0.0132  0.5172 -0.4132
  182SLPC   H7R20788   5.158   1.934   3.357 -0.7750  1.9987 -1.3341
  182SLPC   H7S20789   5.097   1.772   3.352  2.8325  1.3429 -0.8506
  182SLPC   C2820790   4.975   1.914   3.474 -0.3101  0.2667 -0.4358
  182SLPC   H8R20791   4.878   1.862   3.459  0.8833 -1.6017 -2.1337
  182SLPC   H8S20792   4.953   2.023   3.462 -2.2829 -0.3416 -3.2583
  182SLPC   C2920793   5.043   1.867   3.608 -0.2579  0.2210  0.5339
  182SLPC   H9R20794   5.028   1.759   3.626  1.1544  0.2419  1.9990
  182SLPC  C21020795   5.109   1.944   3.698  0.4940 -0.3203  0.6335
  182SLPC  H10R20796   5.140   1.885   3.786  0.5288 -1.0610  0.1350
  182SLPC  C21120797   5.137   2.089   3.677 -0.9702 -0.2360 -0.4661
  182SLPC  H11R20798   5.048   2.154   3.674 -0.5964  0.3383  0.4603
  182SLPC  H11S20799   5.190   2.104   3.581 -0.8563 -0.0329 -0.3715
  182SLPC  C21220800   5.232   2.127   3.781 -0.0005 -0.5488 -0.0030
  182SLPC  H12R20801   5.322   2.064   3.793  0.5042 -0.4354 -2.6462
  182SLPC  C21320802   5.203   2.215   3.883 -0.5433  0.2758 -0.1619
  182SLPC  H13R20803   5.289   2.249   3.943  0.0731 -0.5453 -0.5545
  182SLPC  C21420804   5.073   2.276   3.915 -0.0447  0.0256 -0.0807
  182SLPC  H14R20805   4.997   2.195   3.920  2.1360 -2.1537 -0.2498
  182SLPC  H14S20806   5.050   2.345   3.832  1.4155  0.1560 -0.4103
  182SLPC  C21520807   5.071   2.346   4.055 -0.1252  0.0439 -0.4808
  182SLPC  H15R20808   5.100   2.276   4.136  2.5501  0.7691 -0.7180
  182SLPC  H15S20809   4.967   2.380   4.074 -0.7373  0.3287 -3.7362
  182SLPC  C21620810   5.158   2.477   4.067 -0.3782  0.3207  1.0307
  182SLPC  H16R20811   5.129   2.547   3.986 -0.5085  0.6032  1.3194
  182SLPC  H16S20812   5.265   2.452   4.051 -0.6870 -0.0045 -0.7328
  182SLPC  C21720813   5.134   2.547   4.202 -0.1616  0.4367 -0.5562
  182SLPC  H17R20814   5.025   2.557   4.221 -0.2644  0.8783 -1.3354
  182SLPC  H17S20815   5.176   2.650   4.195  2.3804 -0.3520  1.4160
  182SLPC  C21820816   5.200   2.484   4.322 -0.9147  0.0346 -0.0281
  182SLPC  H18R20817   5.308   2.502   4.309 -1.2470  1.1464 -1.4934
  182SLPC  H18S20818   5.183   2.374   4.320 -1.5217  0.1152  0.3525
  182SLPC  H18T20819   5.171   2.527   4.420  0.2332  0.3552  0.1833
  182SLPC   C3320820   4.482   1.572   2.914  0.5061  1.0651 -0.4648
  182SLPC   H3X20821   4.477   1.466   2.883 -3.1684  1.8949 -3.4549
  182SLPC   H3Y20822   4.393   1.619   2.867  2.7702  0.9320 -5.5213
  182SLPC   C3420823   4.470   1.566   3.066  0.0475  0.3445  0.5812
  182SLPC   H4X20824   4.573   1.550   3.103  1.4731  0.7887 -2.8391
  182SLPC   H4Y20825   4.397   1.491   3.105 -0.8152  0.7878 -0.1289
  182SLPC   C3520826   4.407   1.702   3.113 -0.3388 -0.2060  0.7096
  182SLPC   H5X20827   4.303   1.707   3.075 -0.2526 -5.4258 -0.9399
  182SLPC   H5Y20828   4.455   1.784   3.054 -0.1129 -0.7422  0.1364
  182SLPC   C3620829   4.407   1.717   3.266  0.1148 -0.0485 -0.2699
  182SLPC   H6X20830   4.342   1.636   3.304 -1.7649  1.7151  0.4402
  182SLPC   H6Y20831   4.351   1.809   3.294  0.6667 -0.6989  3.4760
  182SLPC   C3720832   4.542   1.699   3.336 -0.3728 -0.4889 -0.1818
  182SLPC   H7X20833   4.617   1.752   3.273  1.0015 -1.8864  0.2044
  182SLPC   H7Y20834   4.572   1.592   3.328 -1.0483 -0.5712 -1.9706
  182SLPC   C3820835   4.561   1.737   3.488 -0.4811 -0.3688  0.5083
  182SLPC   H8X20836   4.505   1.831   3.508 -0.4719 -0.8058  2.9377
  182SLPC   H8Y20837   4.670   1.744   3.512 -0.3258 -2.9611  0.8665
  182SLPC   C3920838   4.494   1.628   3.583 -0.3584  0.3538 -0.2234
  182SLPC   H9X20839   4.555   1.536   3.569  1.0197  1.1335  0.4382
  182SLPC   H9Y20840   4.392   1.627   3.539 -1.2226  2.0436  1.5968
  182SLPC  C31020841   4.474   1.672   3.737 -0.7744  0.0622  0.6160
  182SLPC  H10X20842   4.449   1.576   3.788  0.9750 -0.4194  0.6295
  182SLPC  H10Y20843   4.395   1.750   3.743  1.0420  2.3106 -2.0235
  182SLPC  C31120844   4.607   1.721   3.795 -0.6079  0.0289 -0.1003
  182SLPC  H11X20845   4.583   1.761   3.896 -0.3253 -0.1437  0.0379
  182SLPC  H11Y20846   4.643   1.801   3.728 -0.1511 -1.5884 -1.8873
  182SLPC  C31220847   4.725   1.620   3.810  0.2698  0.1019 -0.3938
  182SLPC  H12X20848   4.773   1.625   3.710  0.3195 -0.6421 -0.4092
  182SLPC  H12Y20849   4.694   1.518   3.842 -0.0534  0.3682  0.1567
  182SLPC  C31320850   4.835   1.673   3.904  0.4116  0.2012  0.3902
  182SLPC  H13X20851   4.838   1.784   3.901 -0.9138  0.2511  0.1804
  182SLPC  H13Y20852   4.933   1.635   3.868  0.0963 -0.3542  0.1125
  182SLPC  C31420853   4.810   1.629   4.043 -0.3224  0.8424 -0.5114
  182SLPC  H14X20854   4.706   1.645   4.080 -0.0034 -2.1254  2.0950
  182SLPC  H14Y20855   4.882   1.676   4.113 -0.2698  0.5858 -0.3945
  182SLPC  C31520856   4.830   1.474   4.067 -0.4699 -0.3393  0.3178
  182SLPC  H15X20857   4.736   1.422   4.041  0.2980 -0.8848 -1.5549
  182SLPC  H15Y20858   4.847   1.456   4.175  1.6317  0.1039  0.1080
  182SLPC  C31620859   4.944   1.412   3.982 -0.4972 -0.8052  0.5336
  182SLPC  H16X20860   5.029   1.483   3.977 -0.9358 -0.2587  0.7058
  182SLPC  H16Y20861   4.914   1.401   3.875  0.4328 -2.2786  0.4007
  182SLPC  C31720862   4.979   1.277   4.034  0.4253 -0.1500  0.1690
  182SLPC  H17X20863   4.898   1.203   4.018  0.5111 -0.0826 -0.6022
  182SLPC  H17Y20864   5.004   1.286   4.142 -2.1617  2.0863  0.7078
  182SLPC  C31820865   5.102   1.209   3.970  0.0773 -0.1720 -0.0401
  182SLPC  H18X20866   5.190   1.276   3.982 -0.8030  1.1660 -0.8670
  182SLPC  H18Y20867   5.089   1.193   3.861  1.8786  0.6539 -0.4155
  182SLPC  H18Z20868   5.106   1.108   4.018 -0.8345 -0.4133 -0.4589
  183SLPC     N20869   6.024   4.160   1.784 -0.1412  0.2628  0.1163
  183SLPC   C1320870   6.052   4.015   1.743  0.2282  0.1818  0.3541
  183SLPC  H13A20871   6.083   3.939   1.813  2.4552  2.2434  1.7973
  183SLPC  H13B20872   5.962   3.985   1.692 -0.4820  0.1184  1.5945
  183SLPC  H13C20873   6.124   4.010   1.663  0.3616 -0.8599  0.5309
  183SLPC   C1420874   5.910   4.165   1.881  0.0214  0.1885  0.5969
  183SLPC  H14A20875   5.810   4.145   1.844  0.7548  0.4693 -1.7016
  183SLPC  H14B20876   5.927   4.093   1.960  0.0184 -0.3710  0.1023
  183SLPC  H14C20877   5.908   4.265   1.920  1.3019  0.6196 -0.3927
  183SLPC   C1520878   5.996   4.244   1.664  0.2527 -0.6602 -0.5118
  183SLPC  H15A20879   6.089   4.266   1.614 -0.7968 -0.6567 -2.5549
  183SLPC  H15B20880   5.925   4.196   1.598 -2.3633 -0.7013  2.0845
  183SLPC  H15C20881   5.954   4.340   1.693 -1.4130 -1.0566 -1.4886
  183SLPC   C1220882   6.152   4.210   1.856 -0.0240  0.5367 -0.0969
  183SLPC  H12A20883   6.236   4.198   1.790  0.0226 -0.3817  0.1091
  183SLPC  H12B20884   6.171   4.141   1.938  1.5083 -1.2020 -1.8235
  183SLPC   C1120885   6.153   4.358   1.907  0.5170  0.1575 -0.4166
  183SLPC  H11A20886   6.144   4.428   1.821  2.0388 -1.1669 -1.7193
  183SLPC  H11B20887   6.254   4.370   1.952 -0.0150 -1.4467  1.3767
  183SLPC     P20888   6.080   4.385   2.155  0.0846  0.0584 -0.3534
  183SLPC   O1320889   6.179   4.285   2.187  0.3467 -0.0063  0.5756
  183SLPC   O1420890   6.106   4.525   2.203 -0.1406  0.8020  0.0048
  183SLPC   O1220891   6.049   4.396   2.003  0.5292 -0.0951 -0.5610
  183SLPC   O1120892   5.946   4.334   2.218  0.1279  0.0695 -0.6676
  183SLPC    C120893   5.823   4.400   2.173 -0.3530  0.9827 -0.3598
  183SLPC    HA20894   5.829   4.460   2.079 -0.1714  0.9807 -0.3484
  183SLPC    HB20895   5.747   4.322   2.151  0.2564  0.4132 -0.4585
  183SLPC    C220896   5.769   4.489   2.290 -0.0965 -0.8065 -0.0071
  183SLPC    HS20897   5.848   4.567   2.294  0.0634 -0.9910  0.5266
  183SLPC   O2120898   5.764   4.406   2.411 -0.7118  0.0069 -0.0046
  183SLPC   C2120899   5.756   4.474   2.528 -0.1236 -0.1499  0.7938
  183SLPC   O2220900   5.776   4.592   2.536  0.0185  0.2113 -0.3132
  183SLPC   C2220901   5.724   4.375   2.642  0.0391  0.2462 -0.3874
  183SLPC   H2R20902   5.650   4.300   2.606  0.3927 -0.3798  0.1679
  183SLPC   H2S20903   5.818   4.328   2.677 -1.5284 -0.7884  2.8494
  183SLPC    C320904   5.630   4.555   2.262 -0.1099 -0.0790  0.1769
  183SLPC    HX20905   5.642   4.619   2.172  0.7539 -0.9184 -0.3313
  183SLPC    HY20906   5.598   4.614   2.350 -2.0385 -1.1108  0.2174
  183SLPC   O3120907   5.535   4.444   2.237 -0.7174 -0.7260  0.0285
  183SLPC   C3120908   5.460   4.407   2.339 -0.4731 -0.2032 -0.2379
  183SLPC   O3220909   5.446   4.476   2.439  0.2612  0.0317  0.6998
  183SLPC   C3220910   5.394   4.267   2.311 -0.1861 -0.0176  0.2963
  183SLPC   H2X20911   5.456   4.190   2.362  1.7845 -1.2191 -3.5712
  183SLPC   H2Y20912   5.410   4.234   2.206 -1.9438 -1.3156  0.3971
  183SLPC   C2320913   5.660   4.438   2.769  0.4169  0.0414  0.5215
  183SLPC   H3R20914   5.687   4.546   2.771  0.6624  0.1334 -2.6556
  183SLPC   H3S20915   5.691   4.385   2.862  1.1351 -0.7270 -0.1383
  183SLPC   C2420916   5.511   4.421   2.762 -0.7825 -0.2476 -0.4340
  183SLPC   H4R20917   5.487   4.313   2.757  0.1098 -0.4531 -0.4526
  183SLPC   H4S20918   5.461   4.474   2.678  0.1602  1.1745 -0.1319
  183SLPC   C2520919   5.433   4.482   2.880 -0.2998 -0.9356 -0.2042
  183SLPC   H5R20920   5.332   4.468   2.836  0.4250 -1.2900 -1.8179
  183SLPC   H5S20921   5.459   4.589   2.890 -0.4717 -0.8750 -0.4042
  183SLPC   C2620922   5.458   4.418   3.015  0.6119 -0.6027  0.6726
  183SLPC   H6R20923   5.558   4.447   3.054  1.2970 -2.6475  0.5173
  183SLPC   H6S20924   5.454   4.310   2.992 -1.7727 -0.2014 -1.3489
  183SLPC   C2720925   5.348   4.459   3.118 -0.2951  0.0840 -0.0198
  183SLPC   H7R20926   5.246   4.435   3.082 -1.0015  2.0318  0.5528
  183SLPC   H7S20927   5.351   4.570   3.128 -1.3143  0.2303 -1.1502
  183SLPC   C2820928   5.370   4.386   3.256 -0.0530 -0.9014 -0.0550
  183SLPC   H8R20929   5.371   4.276   3.239  0.4358 -1.1444  1.4014
  183SLPC   H8S20930   5.292   4.400   3.334 -1.1459 -2.0296 -0.8982
  183SLPC   C2920931   5.499   4.442   3.314  0.6192  0.0476  0.2297
  183SLPC   H9R20932   5.581   4.425   3.244 -1.3283 -0.7693 -2.0080
  183SLPC  C21020933   5.512   4.509   3.435  0.2691 -0.3170 -1.6780
  183SLPC  H10R20934   5.608   4.547   3.472 -0.1281 -1.4536  0.7528
  183SLPC  C21120935   5.396   4.533   3.531  0.0937 -0.7146 -0.4881
  183SLPC  H11R20936   5.352   4.439   3.571 -4.1846  1.2115 -0.1500
  183SLPC  H11S20937   5.310   4.580   3.478  0.5405  1.4032  0.5642
  183SLPC  C21220938   5.432   4.628   3.643  0.2521 -0.1226  0.0887
  183SLPC  H12R20939   5.468   4.722   3.599 -0.1563 -1.4360 -3.3747
  183SLPC  C21320940   5.428   4.601   3.774  0.2751 -0.2486  0.7072
  183SLPC  H13R20941   5.452   4.693   3.829  2.7366 -0.3876 -0.0175
  183SLPC  C21420942   5.378   4.475   3.840 -0.6379  0.9319 -0.1171
  183SLPC  H14R20943   5.338   4.399   3.769 -1.9016  0.9478  0.5569
  183SLPC  H14S20944   5.290   4.502   3.903  0.8777  1.2685  1.9579
  183SLPC  C21520945   5.487   4.406   3.929  0.6825  0.2563 -0.0810
  183SLPC  H15R20946   5.581   4.391   3.872  0.0151 -1.8311 -0.7099
  183SLPC  H15S20947   5.444   4.304   3.938 -1.0355  1.0254  0.7895
  183SLPC  C21620948   5.495   4.459   4.069  0.0620  0.2374  0.0250
  183SLPC  H16R20949   5.395   4.497   4.097 -0.2664 -1.0104  0.6039
  183SLPC  H16S20950   5.557   4.551   4.065  0.2735  0.0741 -0.8384
  183SLPC  C21720951   5.546   4.366   4.173 -0.2267  0.3638 -0.1058
  183SLPC  H17R20952   5.468   4.287   4.178  0.3464 -0.3159 -1.4338
  183SLPC  H17S20953   5.548   4.418   4.271  1.2152  1.4763 -0.7089
  183SLPC  C21820954   5.686   4.307   4.150  0.1476 -0.2587  0.5707
  183SLPC  H18R20955   5.688   4.223   4.078  0.8939 -1.7353  2.2349
  183SLPC  H18S20956   5.731   4.284   4.249  0.5648  0.5102  0.5698
  183SLPC  H18T20957   5.751   4.374   4.089 -0.6606  0.6081  0.6460
  183SLPC   C3320958   5.245   4.255   2.357 -0.7621  0.4759  0.0908
  183SLPC   H3X20959   5.202   4.175   2.294 -1.4090  0.3584  0.6686
  183SLPC   H3Y20960   5.195   4.347   2.322  0.1092  1.1727  0.6279
  183SLPC   C3420961   5.225   4.236   2.505 -0.0112  0.1168 -0.5614
  183SLPC   H4X20962   5.295   4.302   2.560  0.1726 -0.2414 -0.3647
  183SLPC   H4Y20963   5.262   4.136   2.535 -1.2165 -0.2801 -0.3263
  183SLPC   C3520964   5.092   4.247   2.578  0.5363 -0.1333  0.5731
  183SLPC   H5X20965   5.030   4.164   2.539  0.9118  0.5758 -1.6981
  183SLPC   H5Y20966   5.039   4.344   2.562 -0.7861 -0.5833  2.0072
  183SLPC   C3620967   5.116   4.241   2.735 -0.5112 -0.0261 -0.2535
  183SLPC   H6X20968   5.184   4.326   2.758  0.0407 -0.9269  1.6202
  183SLPC   H6Y20969   5.172   4.148   2.757  0.2437  0.4282 -0.2168
  183SLPC   C3720970   4.988   4.249   2.820 -0.1825 -0.3758  0.0677
  183SLPC   H7X20971   4.907   4.179   2.791 -0.3552  0.0631 -0.5345
  183SLPC   H7Y20972   4.946   4.350   2.802  4.1651  1.3473 -1.8248
  183SLPC   C3820973   5.012   4.241   2.968  1.0851  0.3084 -0.0434
  183SLPC   H8X20974   4.948   4.297   3.040  1.9858  2.3363 -0.7557
  183SLPC   H8Y20975   5.109   4.290   2.990  0.9157 -0.0028  1.5282
  183SLPC   C3920976   5.012   4.097   3.020  0.5228 -0.2766 -0.2523
  183SLPC   H9X20977   5.052   4.022   2.948 -1.8254 -1.0660 -0.8523
  183SLPC   H9Y20978   4.907   4.071   3.046  0.3397  1.1694  0.5577
  183SLPC  C31020979   5.087   4.090   3.156 -0.3327  0.2713  0.7889
  183SLPC  H10X20980   5.189   4.132   3.148 -0.3224  0.4040  1.5494
  183SLPC  H10Y20981   5.106   3.981   3.168 -1.3064 -0.0721 -0.5198
  183SLPC  C31120982   5.019   4.153   3.278 -0.4405 -0.3436  0.8078
  183SLPC  H11X20983   4.913   4.121   3.276 -0.7131  0.5091 -1.4509
  183SLPC  H11Y20984   5.035   4.261   3.258 -1.2995 -0.8450 -3.7232
  183SLPC  C31220985   5.095   4.105   3.402 -0.4502  0.1134  0.2510
  183SLPC  H12X20986   5.205   4.118   3.392 -0.5933  0.2721 -1.3336
  183SLPC  H12Y20987   5.071   3.998   3.416 -1.0726  0.1339 -0.5760
  183SLPC  C31320988   5.064   4.180   3.533  0.2786  0.2450  0.4402
  183SLPC  H13X20989   4.958   4.171   3.562 -0.0572 -2.0509 -1.2506
  183SLPC  H13Y20990   5.076   4.288   3.509 -2.0017  0.9264  2.1036
  183SLPC  C31420991   5.153   4.137   3.652 -0.2320  1.6792  0.3101
  183SLPC  H14X20992   5.261   4.147   3.630  0.3431 -0.1624  1.9781
  183SLPC  H14Y20993   5.142   4.027   3.665  1.3560  1.2156 -1.7408
  183SLPC  C31520994   5.107   4.201   3.790  0.0502 -0.5297  0.1547
  183SLPC  H15X20995   4.997   4.187   3.797 -0.2163  1.4342  0.5478
  183SLPC  H15Y20996   5.133   4.309   3.776  1.0623 -0.7991 -0.1462
  183SLPC  C31620997   5.169   4.127   3.912  0.4786  0.5485 -0.1593
  183SLPC  H16X20998   5.273   4.115   3.875  0.4845 -1.6065  0.4513
  183SLPC  H16Y20999   5.125   4.025   3.908 -0.7346  1.0204  0.7273
  183SLPC  C31721000   5.167   4.199   4.041  0.1860 -0.0098 -0.1239
  183SLPC  H17X21001   5.222   4.295   4.039 -1.7975  1.2099  0.3479
  183SLPC  H17Y21002   5.216   4.135   4.117  0.5283  1.4930  0.9658
  183SLPC  C31821003   5.028   4.224   4.101  0.2174 -0.3472  0.0372
  183SLPC  H18X21004   4.980   4.314   4.058  2.8291  1.0595 -0.1106
  183SLPC  H18Y21005   5.027   4.250   4.209 -0.7991  0.4994 -0.1585
  183SLPC  H18Z21006   4.965   4.133   4.090  2.0994 -1.9516  1.7818
  184SLPC     N21007   4.340   6.153   2.260  0.9867  0.7576  0.2860
  184SLPC   C1321008   4.378   6.049   2.161  0.5197  0.4481  0.3983
  184SLPC  H13A21009   4.363   5.945   2.187  2.0410 -0.7601 -2.8866
  184SLPC  H13B21010   4.320   6.059   2.070  1.5764 -0.2377 -0.3760
  184SLPC  H13C21011   4.482   6.045   2.132  0.2779 -1.0337 -0.4277
  184SLPC   C1421012   4.193   6.148   2.272 -0.2626  0.1709 -0.2348
  184SLPC  H14A21013   4.170   6.045   2.294  3.0864 -0.7446 -0.3735
  184SLPC  H14B21014   4.159   6.208   2.354  0.1935  0.1403 -0.0181
  184SLPC  H14C21015   4.138   6.168   2.181  2.7171  0.8279 -2.0285
  184SLPC   C1521016   4.375   6.288   2.213  0.0356  0.4103 -0.3189
  184SLPC  H15A21017   4.481   6.286   2.195  0.0330 -1.2027 -0.3403
  184SLPC  H15B21018   4.322   6.323   2.126 -1.2825  1.8881  0.9927
  184SLPC  H15C21019   4.347   6.349   2.298 -0.4840  0.3148 -0.4156
  184SLPC   C1221020   4.397   6.119   2.395 -0.4902  0.1250 -0.6768
  184SLPC  H12A21021   4.502   6.106   2.374  0.0190  0.3632  1.5087
  184SLPC  H12B21022   4.353   6.024   2.422 -1.2685  0.4272 -0.8626
  184SLPC   C1121023   4.382   6.214   2.510 -0.1681 -0.6092 -0.0330
  184SLPC  H11A21024   4.423   6.171   2.604 -0.6203  0.2476  0.5715
  184SLPC  H11B21025   4.273   6.233   2.522  0.1006  1.3139 -0.4450
  184SLPC     P21026   4.597   6.367   2.549 -0.2819  0.4437  0.2056
  184SLPC   O1321027   4.680   6.245   2.524 -0.2092 -0.4180  0.0099
  184SLPC   O1421028   4.645   6.487   2.483 -0.4710 -0.0948  0.5769
  184SLPC   O1221029   4.454   6.337   2.489 -0.2576  0.3607  0.0447
  184SLPC   O1121030   4.599   6.389   2.701 -0.1278 -0.4246  0.6698
  184SLPC    C121031   4.478   6.447   2.766  0.5757 -0.3500  0.3134
  184SLPC    HA21032   4.397   6.373   2.783 -1.5052  1.6796 -0.2161
  184SLPC    HB21033   4.513   6.479   2.867  0.8894 -0.9879  0.4127
  184SLPC    C221034   4.415   6.586   2.711 -0.1245 -0.6100 -0.6047
  184SLPC    HS21035   4.378   6.558   2.610 -1.3500 -2.6166  0.3356
  184SLPC   O2121036   4.527   6.676   2.696 -0.3296  0.0501  0.3867
  184SLPC   C2121037   4.504   6.790   2.618 -0.6725  0.5771  0.2089
  184SLPC   O2221038   4.407   6.810   2.550 -0.1688  0.3220  0.0514
  184SLPC   C2221039   4.629   6.873   2.624  0.4425 -0.0235 -0.5303
  184SLPC   H2R21040   4.692   6.841   2.709  0.2800 -0.1125 -0.4429
  184SLPC   H2S21041   4.692   6.866   2.533  2.0112  3.1854  0.1667
  184SLPC    C321042   4.290   6.650   2.786 -0.7557  0.5326  0.5912
  184SLPC    HX21043   4.210   6.574   2.788  0.1197 -0.4155  2.5945
  184SLPC    HY21044   4.252   6.731   2.720  0.9845  0.1925 -0.9404
  184SLPC   O3121045   4.330   6.694   2.919  0.0231  0.1210  0.8834
  184SLPC   C3121046   4.309   6.607   3.014 -0.0070  1.3871 -0.7875
  184SLPC   O3221047   4.270   6.494   2.994 -0.1673 -0.4600 -0.2841
  184SLPC   C3221048   4.346   6.672   3.155 -0.0203 -0.2119 -0.7784
  184SLPC   H2X21049   4.306   6.774   3.172 -0.4451 -0.5229  0.1817
  184SLPC   H2Y21050   4.457   6.686   3.159 -0.2453  1.7025  1.9570
  184SLPC   C2321051   4.600   7.028   2.642  0.5780 -0.1571  0.2480
  184SLPC   H3R21052   4.527   7.044   2.559  0.5140 -2.7676 -0.2658
  184SLPC   H3S21053   4.702   7.069   2.624  0.8522 -0.5356  0.9230
  184SLPC   C2421054   4.546   7.071   2.787  0.4767  0.4090 -0.4117
  184SLPC   H4R21055   4.451   7.020   2.816  2.4987 -2.4709  1.6546
  184SLPC   H4S21056   4.543   7.182   2.794 -1.5194  0.4564 -1.2527
  184SLPC   C2521057   4.648   7.022   2.897  0.2684  0.0577  0.5312
  184SLPC   H5R21058   4.754   7.033   2.865  0.0522 -2.8422 -1.6645
  184SLPC   H5S21059   4.626   6.913   2.902  3.1207 -0.5477  4.0539
  184SLPC   C2621060   4.613   7.075   3.037  0.0777  0.1804  0.9161
  184SLPC   H6R21061   4.545   6.999   3.080  0.3811 -0.5022  0.1969
  184SLPC   H6S21062   4.558   7.171   3.031  0.9794  0.6118 -1.8213
  184SLPC   C2721063   4.728   7.090   3.135 -0.5763 -0.1273 -0.3771
  184SLPC   H7R21064   4.808   7.162   3.106  0.5302 -1.3976 -0.5889
  184SLPC   H7S21065   4.789   6.999   3.150 -1.7072 -0.5565  2.1566
  184SLPC   C2821066   4.674   7.129   3.270  0.6046  0.2658  0.7217
  184SLPC   H8R21067   4.581   7.073   3.294 -0.6486  2.0077  0.1483
  184SLPC   H8S21068   4.640   7.235   3.265  0.3943  0.1798  0.3087
  184SLPC   C2921069   4.787   7.113   3.371 -0.0628  0.1009  0.2751
  184SLPC   H9R21070   4.884   7.142   3.328  0.5132 -2.8960 -0.6802
  184SLPC  C21021071   4.780   7.060   3.494 -0.1524  0.2103 -0.2649
  184SLPC  H10R21072   4.875   7.049   3.550  0.5398 -0.5552 -1.5301
  184SLPC  C21121073   4.660   7.007   3.574 -0.3198 -0.4763  1.0927
  184SLPC  H11R21074   4.694   6.921   3.634  3.4900 -0.4026 -0.7165
  184SLPC  H11S21075   4.589   6.961   3.501  0.2326  1.6926 -0.9715
  184SLPC  C21221076   4.577   7.112   3.646 -0.1907 -0.3157 -0.4951
  184SLPC  H12R21077   4.525   7.191   3.590 -0.2029  0.5031  0.6390
  184SLPC  C21321078   4.557   7.117   3.777 -0.2191 -0.2763 -0.2969
  184SLPC  H13R21079   4.499   7.206   3.807  0.2466  0.1832 -0.7484
  184SLPC  C21421080   4.608   7.018   3.883 -0.7566  0.0829 -0.0125
  184SLPC  H14R21081   4.634   6.917   3.845 -0.3757 -0.7596  2.3350
  184SLPC  H14S21082   4.524   6.992   3.950 -1.0854 -2.2666 -1.2332
  184SLPC  C21521083   4.731   7.069   3.965 -0.0305  0.1010 -0.1001
  184SLPC  H15R21084   4.764   7.009   4.052 -0.9164 -0.6832 -0.3028
  184SLPC  H15S21085   4.712   7.174   3.996  1.8085  0.2603  0.6224
  184SLPC  C21621086   4.852   7.080   3.873  0.3251 -0.2744  0.3374
  184SLPC  H16R21087   4.814   7.128   3.780  0.1065 -1.5464 -0.2512
  184SLPC  H16S21088   4.891   6.983   3.837  3.5929  0.6861  0.9850
  184SLPC  C21721089   4.958   7.159   3.948 -0.3353 -0.2122  0.1277
  184SLPC  H17R21090   4.937   7.146   4.056  0.1396  0.1523  0.2674
  184SLPC  H17S21091   4.957   7.268   3.926  2.2138 -0.0212  0.6597
  184SLPC  C21821092   5.101   7.106   3.929  0.7672 -0.8139  0.3651
  184SLPC  H18R21093   5.129   7.124   3.823 -1.7109  0.3737 -0.1604
  184SLPC  H18S21094   5.115   6.999   3.958  1.3391 -0.6306  0.7805
  184SLPC  H18T21095   5.167   7.176   3.984  2.1165 -0.9122 -1.0370
  184SLPC   C3321096   4.303   6.589   3.283 -0.0407  0.4536  0.3223
  184SLPC   H3X21097   4.332   6.483   3.269  1.8244  0.9172  0.4939
  184SLPC   H3Y21098   4.192   6.601   3.276  0.0157  0.6559 -0.3360
  184SLPC   C3421099   4.344   6.644   3.420  0.1069  0.0935 -0.2930
  184SLPC   H4X21100   4.455   6.646   3.423  0.1236 -0.8474  0.1127
  184SLPC   H4Y21101   4.302   6.580   3.500  0.9794 -0.8176 -0.5505
  184SLPC   C3521102   4.291   6.784   3.454 -0.1103 -0.3703  0.2056
  184SLPC   H5X21103   4.181   6.769   3.452  0.2286 -3.1965 -0.6375
  184SLPC   H5Y21104   4.319   6.860   3.377 -0.9115 -1.0971 -0.8299
  184SLPC   C3621105   4.348   6.833   3.590  0.3828 -0.3113  0.9281
  184SLPC   H6X21106   4.355   6.942   3.609  0.3540 -0.2039  0.3303
  184SLPC   H6Y21107   4.455   6.802   3.596  0.6575 -0.0274 -1.6306
  184SLPC   C3721108   4.279   6.771   3.705 -0.6212 -0.3199 -0.5106
  184SLPC   H7X21109   4.258   6.665   3.678  0.3414 -0.5433 -0.4098
  184SLPC   H7Y21110   4.183   6.827   3.711  0.2517  1.0444  2.8384
  184SLPC   C3821111   4.369   6.787   3.829  0.0857  0.3367  0.1110
  184SLPC   H8X21112   4.383   6.892   3.864 -0.0499  0.2041  0.5723
  184SLPC   H8Y21113   4.471   6.748   3.808  0.3900  1.2226 -0.1141
  184SLPC   C3921114   4.320   6.700   3.952  0.2394  0.4409  1.1695
  184SLPC   H9X21115   4.296   6.598   3.916 -0.9987  0.7512  1.0534
  184SLPC   H9Y21116   4.228   6.752   3.988 -1.0566 -0.2684 -0.9478
  184SLPC  C31021117   4.433   6.692   4.054 -0.1838 -0.1196  0.0652
  184SLPC  H10X21118   4.474   6.794   4.072  1.3785 -0.7370  0.1528
  184SLPC  H10Y21119   4.526   6.643   4.020  0.1876  1.3041 -1.0666
  184SLPC  C31121120   4.377   6.632   4.178  0.4593  0.0337  0.2031
  184SLPC  H11X21121   4.337   6.534   4.147  0.7807  0.6056 -2.2719
  184SLPC  H11Y21122   4.288   6.690   4.211 -0.1842  0.8619 -2.6918
  184SLPC  C31221123   4.466   6.603   4.300  0.3075 -0.1706 -0.2576
  184SLPC  H12X21124   4.506   6.697   4.344  0.5581 -0.7170  0.7256
  184SLPC  H12Y21125   4.552   6.538   4.272  0.6279  0.1215  0.0367
  184SLPC  C31321126   4.379   6.539   4.413 -0.2913 -0.6021  0.3852
  184SLPC  H13X21127   4.326   6.449   4.376 -1.4829  0.1750  0.1516
  184SLPC  H13Y21128   4.307   6.619   4.439  1.1148  0.8511  0.0092
  184SLPC  C31421129   4.456   6.505   4.541  0.8066 -0.6753  0.0151
  184SLPC  H14X21130   4.479   6.608   4.576 -1.4047 -0.2085  0.2377
  184SLPC  H14Y21131   4.543   6.436   4.535 -0.7725 -2.7406 -0.3832
  184SLPC  C31521132   4.361   6.441   4.647 -0.1049  0.4280 -0.2513
  184SLPC  H15X21133   4.254   6.455   4.623 -0.4476 -0.2285  0.8769
  184SLPC  H15Y21134   4.382   6.484   4.747  2.4525 -0.0872 -0.4808
  184SLPC  C31621135   4.389   6.291   4.640 -0.7838  0.5406 -0.2919
  184SLPC  H16X21136   4.487   6.279   4.693 -0.6127  1.5594 -0.3538
  184SLPC  H16Y21137   4.399   6.266   4.533  2.9209 -2.1255  0.4602
  184SLPC  C31721138   4.268   6.208   4.703 -0.0455  0.1832 -0.5531
  184SLPC  H17X21139   4.280   6.102   4.673  0.9854 -0.4308  1.8129
  184SLPC  H17Y21140   4.174   6.241   4.655  0.2996  0.2869 -1.1707
  184SLPC  C31821141   4.266   6.219   4.856  0.2068  0.4355 -0.0278
  184SLPC  H18X21142   4.362   6.175   4.889  0.8534  0.7704 -1.4186
  184SLPC  H18Y21143   4.180   6.165   4.903 -0.2805  1.4286  0.2515
  184SLPC  H18Z21144   4.271   6.327   4.883  0.5731  1.0949 -2.5246
  185POPC     N21145   3.398   2.971   6.556  0.9590  0.5684 -0.1571
  185POPC   C1221146   3.276   2.973   6.468  0.3930  0.1720 -0.6718
  185POPC  H12A21147   3.307   2.965   6.364  0.3733 -1.3863 -0.5803
  185POPC  H12B21148   3.225   3.068   6.473  0.3949  0.2094 -1.2835
  185POPC   C1321149   3.360   2.972   6.699 -0.1436 -0.0901 -0.1288
  185POPC  H13A21150   3.442   2.950   6.765 -1.3178 -1.1763  1.0182
  185POPC  H13B21151   3.315   3.063   6.736  3.0157  0.7847  1.8728
  185POPC  H13C21152   3.285   2.896   6.717  1.2968 -1.5291 -0.0177
  185POPC   C1421153   3.476   2.845   6.518 -0.1122 -1.1673 -0.2994
  185POPC  H14A21154   3.413   2.757   6.518  0.3565 -1.5484  1.8855
  185POPC  H14B21155   3.529   2.854   6.424  1.3224 -1.1939  0.4707
  185POPC  H14C21156   3.552   2.815   6.588 -1.3605 -4.2801 -0.1316
  185POPC   C1521157   3.484   3.091   6.534  0.3346 -0.1080  0.4854
  185POPC  H15A21158   3.465   3.174   6.601  2.2841  1.9529 -1.3503
  185POPC  H15B21159   3.480   3.122   6.430  0.6648 -1.9605 -0.1248
  185POPC  H15C21160   3.585   3.063   6.561  0.4658 -0.9967 -0.8360
  185POPC   C1121161   3.161   2.869   6.504  0.0199 -0.3151 -0.4454
  185POPC  H11A21162   3.215   2.773   6.493 -0.3427 -0.7598  1.3829
  185POPC  H11B21163   3.100   2.867   6.411  0.9036  0.1834 -1.0508
  185POPC     P21164   2.952   2.827   6.646 -0.1425  0.2773  0.0033
  185POPC   O1321165   2.874   2.905   6.747 -0.2878 -0.3730  0.3944
  185POPC   O1421166   2.979   2.686   6.680  0.3304  0.6118 -0.3239
  185POPC   O1221167   3.089   2.903   6.622  0.0517 -1.0439 -0.4427
  185POPC   O1121168   2.874   2.837   6.509  0.1084 -0.3404 -0.7869
  185POPC    C121169   2.744   2.777   6.495  0.0209  0.4121  0.9622
  185POPC    HA21170   2.671   2.845   6.447 -0.1972 -2.0571 -2.5965
  185POPC    HB21171   2.702   2.748   6.594 -0.6139 -2.0352  0.0413
  185POPC    C221172   2.747   2.656   6.402  0.4203  0.1782  0.4301
  185POPC    HS21173   2.817   2.590   6.458  3.8072  0.7633 -2.7171
  185POPC   O2121174   2.808   2.700   6.276  0.8924  0.0807 -0.2493
  185POPC   C2121175   2.929   2.648   6.257  0.2868  0.0310  0.5297
  185POPC   O2221176   2.991   2.575   6.330 -0.5346 -0.3138 -0.5107
  185POPC   C2221177   2.984   2.697   6.119  0.4300 -0.6697 -0.2862
  185POPC   H2R21178   3.095   2.697   6.116  0.4248 -2.3851 -1.4024
  185POPC   H2S21179   2.944   2.800   6.113 -0.0932 -0.9453 -2.2491
  185POPC    C321180   2.606   2.598   6.378  0.0147  0.1302 -0.2441
  185POPC    HX21181   2.536   2.673   6.336 -0.1434 -0.6243 -1.3581
  185POPC    HY21182   2.557   2.567   6.473  1.3080 -0.7450  0.1674
  185POPC   O3121183   2.606   2.483   6.293 -0.4668 -0.4895 -0.1984
  185POPC   C3121184   2.619   2.360   6.350  0.1678 -0.7964 -0.0044
  185POPC   O3221185   2.644   2.335   6.467  0.1435 -0.3492  0.0220
  185POPC   C3221186   2.600   2.251   6.248  0.2518  0.4399  0.0165
  185POPC   H2X21187   2.573   2.306   6.155  0.4094  0.9824  0.2891
  185POPC   H2Y21188   2.517   2.187   6.285  1.4706 -1.0270  0.2929
  185POPC   C2321189   2.924   2.626   6.002 -0.0103 -0.2340  0.0041
  185POPC   H3R21190   2.819   2.603   6.030 -0.2726  2.9627  2.2036
  185POPC   H3S21191   2.979   2.530   5.991  4.3216  1.7251  2.1823
  185POPC   C2421192   2.942   2.709   5.867 -0.2352 -0.2027 -0.6000
  185POPC   H4R21193   3.050   2.697   5.845 -0.4807 -1.3872 -1.2561
  185POPC   H4S21194   2.918   2.817   5.879  2.2688  0.5012 -1.3119
  185POPC   C2521195   2.855   2.647   5.759 -0.1126  0.0728 -0.4229
  185POPC   H5R21196   2.746   2.662   5.779 -0.4883 -0.4480 -1.9622
  185POPC   H5S21197   2.866   2.537   5.756 -0.2188  0.0694 -0.7185
  185POPC   C2621198   2.880   2.702   5.619  0.4307  0.3587 -0.9819
  185POPC   H6R21199   2.979   2.664   5.586  1.3556  3.0677 -1.5945
  185POPC   H6S21200   2.891   2.812   5.624 -1.8927  0.5756  0.9233
  185POPC   C2721201   2.782   2.669   5.503  0.1925  0.2354  0.1120
  185POPC   H7R21202   2.689   2.729   5.516 -1.3340 -2.2896  1.6387
  185POPC   H7S21203   2.758   2.561   5.514 -0.4223  0.3193 -0.3308
  185POPC   C2821204   2.847   2.687   5.370  1.2155 -0.5626  0.2088
  185POPC   H8R21205   2.938   2.624   5.364  1.3566 -0.3200 -0.2589
  185POPC   H8S21206   2.875   2.794   5.382 -1.1206 -0.1063  2.2869
  185POPC   C2921207   2.743   2.659   5.257  0.0191  0.3451  0.5172
  185POPC   H9121208   2.639   2.649   5.291 -0.4571 -0.7459 -1.1411
  185POPC  C21021209   2.772   2.649   5.124  0.0071 -0.0367  0.2758
  185POPC  H10121210   2.693   2.623   5.052  0.8388  0.3631 -0.8094
  185POPC  C21121211   2.911   2.669   5.064  0.2025  0.0382  0.2184
  185POPC  H11R21212   2.972   2.580   5.093  1.6512  1.3935  1.5260
  185POPC  H11S21213   2.956   2.757   5.116 -2.3768  0.4070  2.0149
  185POPC  C21221214   2.914   2.694   4.916 -0.2696  0.1297  0.6405
  185POPC  H12R21215   2.906   2.802   4.893 -0.5221 -0.3681 -1.9268
  185POPC  H12S21216   2.831   2.640   4.865 -2.2035  0.7003  2.9773
  185POPC  C21321217   3.051   2.671   4.855 -0.4427  0.3397  0.0194
  185POPC  H13R21218   3.062   2.561   4.859  2.7166  0.5786  1.7754
  185POPC  H13S21219   3.134   2.713   4.916 -1.1542 -0.3446  1.5089
  185POPC  C21421220   3.056   2.708   4.708 -0.5585 -0.2248 -0.4142
  185POPC  H14R21221   3.048   2.819   4.701  3.5609  0.3325  1.1219
  185POPC  H14S21222   2.956   2.674   4.672 -0.4172 -2.8070  1.3972
  185POPC  C21521223   3.167   2.659   4.622 -0.3260 -0.1826  0.7937
  185POPC  H15R21224   3.162   2.548   4.624 -1.2603 -0.2876 -2.3270
  185POPC  H15S21225   3.267   2.685   4.663  1.0459  0.3782 -2.5836
  185POPC  C21621226   3.166   2.693   4.475  0.5588 -0.4705  0.6097
  185POPC  H16R21227   3.257   2.656   4.424 -0.5007 -1.6802 -0.4595
  185POPC  H16S21228   3.182   2.803   4.464  0.5064 -0.4019  1.2230
  185POPC  C21721229   3.028   2.666   4.400  0.1490 -1.0914 -0.0828
  185POPC  H17R21230   2.942   2.698   4.463  1.2155  1.7835  0.1106
  185POPC  H17S21231   3.012   2.557   4.403 -3.4382 -0.6540  1.6523
  185POPC  C21821232   3.028   2.716   4.257  0.3544 -0.3015 -0.5108
  185POPC  H18R21233   3.068   2.819   4.258  1.7075 -0.8062  0.9180
  185POPC  H18S21234   2.923   2.717   4.220 -0.1177 -0.3820  0.7937
  185POPC  H18T21235   3.090   2.648   4.195  1.5648  0.7981 -0.5452
  185POPC   C3321236   2.728   2.162   6.229  0.0011  0.2878 -0.2771
  185POPC   H3X21237   2.716   2.067   6.172  0.2958 -0.3491  0.6901
  185POPC   H3Y21238   2.762   2.135   6.331  0.9481 -0.4037 -0.7592
  185POPC   C3421239   2.831   2.244   6.145  0.3862 -0.8604 -0.1522
  185POPC   H4X21240   2.927   2.189   6.145 -0.2102 -1.9202  0.3026
  185POPC   H4Y21241   2.843   2.346   6.188 -2.6721 -0.2376 -0.5345
  185POPC   C3521242   2.799   2.249   5.990  0.2069 -0.7223 -0.5065
  185POPC   H5X21243   2.879   2.310   5.945 -0.4103  1.0224  0.6630
  185POPC   H5Y21244   2.703   2.302   5.969  1.0337  1.4834  0.9396
  185POPC   C3621245   2.788   2.113   5.928 -0.3785  0.9905 -0.4889
  185POPC   H6X21246   2.704   2.053   5.969 -0.8799  1.9420 -0.0882
  185POPC   H6Y21247   2.878   2.057   5.959 -1.1913  0.6849  1.4447
  185POPC   C3721248   2.778   2.095   5.770 -0.1767 -0.4338  0.3037
  185POPC   H7X21249   2.852   2.156   5.714 -2.8108  0.8841 -1.9740
  185POPC   H7Y21250   2.684   2.151   5.752 -0.2695 -0.4253  0.7957
  185POPC   C3821251   2.771   1.952   5.721  0.2150 -0.8762  0.4215
  185POPC   H8X21252   2.694   1.894   5.776 -2.6861  1.1187 -1.2832
  185POPC   H8Y21253   2.864   1.895   5.744  2.8936  2.8275 -0.3044
  185POPC   C3921254   2.722   1.946   5.570 -0.1645 -0.0458 -0.1577
  185POPC   H9X21255   2.788   2.006   5.505 -2.3583  1.1041 -1.4565
  185POPC   H9Y21256   2.627   2.005   5.574 -0.6014 -0.7343  3.5846
  185POPC  C31021257   2.690   1.807   5.536 -0.8507 -0.2369 -0.4937
  185POPC  H10X21258   2.638   1.754   5.618  0.3665 -0.8577 -0.0992
  185POPC  H10Y21259   2.786   1.751   5.533 -1.8295 -1.9164 -2.6290
  185POPC  C31121260   2.620   1.805   5.399  0.0473 -0.2572  0.0519
  185POPC  H11X21261   2.685   1.839   5.315 -1.6801  2.2243 -0.3797
  185POPC  H11Y21262   2.541   1.882   5.390  0.5954  0.1587 -1.6810
  185POPC  C31221263   2.559   1.667   5.373 -0.2384 -0.0425  0.1798
  185POPC  H12X21264   2.478   1.660   5.448 -0.4568 -1.2766 -0.1562
  185POPC  H12Y21265   2.624   1.582   5.404 -0.2795 -1.4363 -3.1661
  185POPC  C31321266   2.502   1.642   5.233 -0.0508 -0.0734 -0.3518
  185POPC  H13X21267   2.585   1.639   5.159  0.2229  0.0675 -0.0495
  185POPC  H13Y21268   2.444   1.732   5.204 -0.9037 -0.0816  1.2303
  185POPC  C31421269   2.404   1.526   5.221 -0.5798 -0.4420 -0.1695
  185POPC  H14X21270   2.327   1.548   5.298 -0.4355 -0.6536  0.0347
  185POPC  H14Y21271   2.447   1.427   5.250 -4.5436 -1.8296  1.6137
  185POPC  C31521272   2.354   1.508   5.076 -0.3183 -0.1367 -0.9776
  185POPC  H15X21273   2.315   1.602   5.032  0.0986  0.9250  0.8276
  185POPC  H15Y21274   2.270   1.435   5.084 -0.5487  0.1548 -0.7291
  185POPC  C31621275   2.463   1.452   4.991 -0.5961  0.9022  0.6881
  185POPC  H16X21276   2.560   1.501   5.016  1.2585 -2.0422 -0.2983
  185POPC  H16Y21277   2.437   1.459   4.883  2.2896 -0.7681 -0.2219
  185POPC  H16Z21278   2.482   1.352   5.034  4.5311  2.8186  3.7288
  186POPC     N21279   4.094   3.969   6.656 -0.7556  0.3652  0.2291
  186POPC   C1221280   4.220   4.052   6.621 -0.7117  0.5579 -0.4127
  186POPC  H12A21281   4.262   4.027   6.525 -0.1022 -0.7690  0.1596
  186POPC  H12B21282   4.292   4.034   6.700 -1.1269 -2.0133 -0.5464
  186POPC   C1321283   4.118   3.823   6.663  0.5745 -0.6369  0.1730
  186POPC  H13A21284   4.204   3.800   6.724  1.3301  1.3488 -0.0643
  186POPC  H13B21285   4.030   3.771   6.698 -0.3197  1.7073  1.6206
  186POPC  H13C21286   4.136   3.790   6.562  0.3712 -0.5988  0.1235
  186POPC   C1421287   4.053   4.006   6.798 -0.2010  0.0217 -0.1357
  186POPC  H14A21288   4.130   3.994   6.874  0.7254 -0.6907 -1.1612
  186POPC  H14B21289   4.009   4.104   6.786 -0.3769 -0.1702 -1.1128
  186POPC  H14C21290   3.972   3.940   6.826 -0.0010 -0.6542 -1.0972
  186POPC   C1521291   3.991   4.002   6.551  0.3483  0.3309 -0.2681
  186POPC  H15A21292   3.951   4.101   6.568  2.9640  1.1661  1.7639
  186POPC  H15B21293   3.907   3.934   6.550 -0.0108  0.7490  0.5625
  186POPC  H15C21294   4.032   3.999   6.452  0.5430 -0.9520 -0.1553
  186POPC   C1121295   4.202   4.208   6.625  0.2500  0.0167  0.1413
  186POPC  H11A21296   4.119   4.232   6.556  0.8496 -0.2407 -0.6799
  186POPC  H11B21297   4.288   4.258   6.575  0.5191 -1.7046 -1.2451
  186POPC     P21298   4.316   4.287   6.844  0.1610 -0.1183 -0.1261
  186POPC   O1321299   4.389   4.161   6.854 -0.1307 -0.8374  0.1539
  186POPC   O1421300   4.266   4.348   6.968 -0.2207  0.0894  0.0546
  186POPC   O1221301   4.184   4.265   6.750 -0.1390  0.2423 -0.3010
  186POPC   O1121302   4.409   4.392   6.771 -0.0637 -0.2673  0.4053
  186POPC    C121303   4.364   4.510   6.708 -0.1079  0.0669 -0.3588
  186POPC    HA21304   4.335   4.582   6.787  3.0438 -1.1583  2.1068
  186POPC    HB21305   4.279   4.498   6.638 -0.4295  2.3466 -0.4293
  186POPC    C221306   4.470   4.578   6.617 -0.0949 -0.2049 -0.9645
  186POPC    HS21307   4.533   4.623   6.697 -1.1210  2.0126 -1.3265
  186POPC   O2121308   4.399   4.675   6.542  0.4635  0.0741 -0.4235
  186POPC   C2121309   4.468   4.777   6.495 -0.1143 -0.3835  0.2803
  186POPC   O2221310   4.573   4.819   6.538 -0.0056 -0.0486 -0.3825
  186POPC   C2221311   4.394   4.826   6.370 -0.7296 -0.0988 -0.4006
  186POPC   H2R21312   4.286   4.827   6.395 -0.2972  1.1849  1.6855
  186POPC   H2S21313   4.412   4.740   6.302  0.2334 -1.3480  1.3647
  186POPC    C321314   4.540   4.476   6.530 -0.2527  1.0926 -0.4605
  186POPC    HX21315   4.466   4.433   6.460  1.6463 -0.3764 -1.6568
  186POPC    HY21316   4.572   4.396   6.600 -1.1680  2.2603  1.3615
  186POPC   O3121317   4.650   4.530   6.455 -0.3062 -0.0541 -0.2815
  186POPC   C3121318   4.721   4.449   6.383 -0.0396  0.7360  0.2234
  186POPC   O3221319   4.709   4.328   6.380  0.2312  0.4672 -0.0416
  186POPC   C3221320   4.839   4.519   6.318  0.2809 -1.0422 -0.4348
  186POPC   H2X21321   4.930   4.523   6.382  0.8333 -0.5236 -1.2353
  186POPC   H2Y21322   4.804   4.620   6.287  1.1132 -0.1207  1.4324
  186POPC   C2321323   4.442   4.971   6.324 -0.1228  0.1172 -0.1310
  186POPC   H3R21324   4.551   4.988   6.333 -0.1747  0.6550 -0.4273
  186POPC   H3S21325   4.392   5.048   6.387  2.1106  1.4881  0.0526
  186POPC   C2421326   4.414   5.009   6.187  0.4271 -0.0545  0.2811
  186POPC   H4R21327   4.316   4.959   6.167 -0.2885  1.0438  0.9083
  186POPC   H4S21328   4.485   4.979   6.108 -1.1097  0.5032 -1.3991
  186POPC   C2521329   4.418   5.164   6.170 -0.2789 -0.2139  0.3266
  186POPC   H5R21330   4.513   5.206   6.211 -1.5842  0.3867  2.9616
  186POPC   H5S21331   4.340   5.203   6.239  0.5820 -1.1582  1.8938
  186POPC   C2621332   4.387   5.208   6.029  0.1390 -0.3920 -0.0339
  186POPC   H6R21333   4.337   5.307   6.036  1.0338 -0.0035  1.2801
  186POPC   H6S21334   4.312   5.143   5.979 -1.0222 -0.3387  1.5814
  186POPC   C2721335   4.517   5.228   5.948  0.0653  0.6427 -0.3796
  186POPC   H7R21336   4.562   5.127   5.940 -1.1450 -0.0847  1.4355
  186POPC   H7S21337   4.592   5.280   6.012  1.9522 -3.5735  1.1807
  186POPC   C2821338   4.502   5.301   5.816 -0.1020 -0.1316 -0.1089
  186POPC   H8R21339   4.601   5.307   5.765  1.3221 -2.4184  2.1021
  186POPC   H8S21340   4.475   5.405   5.845 -0.2603 -0.5060  1.1616
  186POPC   C2921341   4.399   5.232   5.730 -0.0619 -0.0571  0.4078
  186POPC   H9121342   4.327   5.161   5.773 -1.9151 -0.0430 -2.3685
  186POPC  C21021343   4.385   5.249   5.592  0.0212 -0.3437  0.0614
  186POPC  H10121344   4.302   5.196   5.542  1.0977 -0.3666 -1.8103
  186POPC  C21121345   4.470   5.331   5.499 -0.5173 -0.2101 -0.6460
  186POPC  H11R21346   4.565   5.360   5.549 -0.4569 -1.9164  0.2733
  186POPC  H11S21347   4.422   5.430   5.480 -0.6863  0.7055  3.6258
  186POPC  C21221348   4.511   5.255   5.376 -0.9936  0.1427 -0.1069
  186POPC  H12R21349   4.425   5.216   5.317  0.8963 -0.4777 -2.5962
  186POPC  H12S21350   4.589   5.178   5.386  1.5306  2.2952 -1.7497
  186POPC  C21321351   4.581   5.354   5.274  0.4730  0.2046  0.4984
  186POPC  H13R21352   4.665   5.409   5.321  0.3493 -0.4741  1.5588
  186POPC  H13S21353   4.511   5.428   5.231 -0.1743 -0.6198  0.0956
  186POPC  C21421354   4.653   5.278   5.162  0.3491 -0.1884  0.6824
  186POPC  H14R21355   4.671   5.170   5.182 -0.4922 -0.3093  0.8381
  186POPC  H14S21356   4.749   5.329   5.142  1.3191 -0.7838  3.4040
  186POPC  C21521357   4.575   5.268   5.032 -0.0142 -0.5858 -0.0369
  186POPC  H15R21358   4.530   5.369   5.020  1.6012  0.4990  2.4611
  186POPC  H15S21359   4.490   5.197   5.042  0.2321 -0.9375 -0.3709
  186POPC  C21621360   4.657   5.217   4.910  0.3417 -0.2202 -0.1791
  186POPC  H16R21361   4.723   5.133   4.938 -0.8286 -1.9271 -2.2479
  186POPC  H16S21362   4.720   5.302   4.875  0.0240  0.2901  0.4588
  186POPC  C21721363   4.567   5.156   4.795 -0.0720 -0.5331  0.2832
  186POPC  H17R21364   4.487   5.228   4.772  0.1908  0.3509  1.9446
  186POPC  H17S21365   4.515   5.065   4.835  1.0785 -0.6537  1.5948
  186POPC  C21821366   4.635   5.111   4.665 -0.3383 -0.2462 -0.7573
  186POPC  H18R21367   4.667   5.006   4.681 -1.3688 -0.3798  0.6020
  186POPC  H18S21368   4.720   5.171   4.625 -1.2607  1.2162 -0.6062
  186POPC  H18T21369   4.561   5.103   4.582 -0.2596  0.5674 -0.9242
  186POPC   C3321370   4.880   4.435   6.187  0.5952  0.4225  0.1265
  186POPC   H3X21371   4.789   4.398   6.135  0.7015 -1.0372  0.9133
  186POPC   H3Y21372   4.941   4.351   6.227  1.4889  1.3151  0.6863
  186POPC   C3421373   4.951   4.521   6.084  0.1254 -0.0289  0.8150
  186POPC   H4X21374   5.053   4.551   6.118  0.2771  1.0472 -0.4975
  186POPC   H4Y21375   4.885   4.608   6.062  2.1399  1.7880  1.5386
  186POPC   C3521376   4.965   4.440   5.954  0.0919  0.2205  0.0564
  186POPC   H5X21377   4.867   4.402   5.920 -0.8700  1.6335  1.1102
  186POPC   H5Y21378   5.024   4.347   5.966 -1.2731 -0.4621  1.8809
  186POPC   C3621379   5.025   4.533   5.853 -0.4340 -0.1424 -0.0602
  186POPC   H6X21380   5.113   4.593   5.883  0.0135 -0.2165 -1.1704
  186POPC   H6Y21381   4.954   4.617   5.840  0.6597  0.7340 -0.4590
  186POPC   C3721382   5.056   4.467   5.712  0.5886  0.1778  0.0384
  186POPC   H7X21383   4.958   4.428   5.677 -1.2028  4.1193  0.1577
  186POPC   H7Y21384   5.136   4.390   5.707  1.7807  1.4710 -2.7387
  186POPC   C3821385   5.088   4.581   5.607 -0.0046  0.0133  0.1099
  186POPC   H8X21386   5.191   4.621   5.608  0.3208 -0.7827 -0.3221
  186POPC   H8Y21387   5.026   4.671   5.627  1.3415  0.6455  1.6974
  186POPC   C3921388   5.066   4.531   5.463  0.0100 -0.4284 -0.5387
  186POPC   H9X21389   4.968   4.480   5.455  0.3139 -1.3357  1.0145
  186POPC   H9Y21390   5.146   4.457   5.442 -0.3037 -1.2713  1.0911
  186POPC  C31021391   5.091   4.643   5.359  0.2864 -0.9381 -0.3510
  186POPC  H10X21392   5.194   4.679   5.380 -0.5252  0.4515  1.5824
  186POPC  H10Y21393   5.011   4.717   5.382  2.7198  1.2148  1.7982
  186POPC  C31121394   5.087   4.574   5.220  0.3444  0.7198  0.1549
  186POPC  H11X21395   5.005   4.618   5.160 -1.5874 -1.9873  0.6181
  186POPC  H11Y21396   5.073   4.464   5.210  2.4620  0.5465 -1.4667
  186POPC  C31221397   5.215   4.586   5.146 -0.0614  0.4570 -0.0810
  186POPC  H12X21398   5.298   4.542   5.205 -0.3072  2.1465  1.6468
  186POPC  H12Y21399   5.232   4.695   5.131 -2.3924  0.7633 -0.9898
  186POPC  C31321400   5.201   4.538   4.996 -0.1891 -0.9133 -0.1805
  186POPC  H13X21401   5.109   4.583   4.953  0.1336  0.2399  0.2959
  186POPC  H13Y21402   5.187   4.429   5.009  1.3426 -1.1682 -0.4193
  186POPC  C31421403   5.332   4.574   4.911  0.4730 -0.2016 -0.1705
  186POPC  H14X21404   5.414   4.562   4.985 -0.8248 -2.5820  0.9999
  186POPC  H14Y21405   5.328   4.684   4.893  1.1335  0.0173  0.9270
  186POPC  C31521406   5.337   4.488   4.785  1.1684 -0.0508  0.3572
  186POPC  H15X21407   5.256   4.533   4.724 -0.2050 -0.3318  1.9150
  186POPC  H15Y21408   5.302   4.386   4.812  2.5875 -0.5854  0.2518
  186POPC  C31621409   5.466   4.478   4.716 -0.4329 -0.0804 -0.5598
  186POPC  H16X21410   5.453   4.480   4.605  1.4046 -0.4083 -0.8187
  186POPC  H16Y21411   5.513   4.380   4.741  1.3396  1.3475  2.1886
  186POPC  H16Z21412   5.533   4.565   4.730 -0.1780 -0.2680 -0.5965
  187POPC     N21413   4.080   0.215   1.538 -0.4600 -0.2762  0.5959
  187POPC   C1221414   3.981   0.329   1.543 -0.3153  0.4944  0.1450
  187POPC  H12A21415   3.923   0.309   1.632  0.2300 -0.5564  0.2850
  187POPC  H12B21416   3.909   0.328   1.463  0.3638  0.2979 -0.4742
  187POPC   C1321417   4.169   0.236   1.419 -0.2336  0.1528 -0.2140
  187POPC  H13A21418   4.211   0.335   1.427  0.0699  0.1948 -1.9892
  187POPC  H13B21419   4.246   0.161   1.430 -3.6359 -3.3819  1.9986
  187POPC  H13C21420   4.121   0.206   1.327 -2.6456  0.3436  0.9222
  187POPC   C1421421   4.170   0.209   1.660 -0.3309 -0.5486 -0.5767
  187POPC  H14A21422   4.252   0.142   1.639  1.5361  0.2809  3.1223
  187POPC  H14B21423   4.213   0.306   1.678 -1.3114 -0.2276  0.1360
  187POPC  H14C21424   4.131   0.174   1.755  0.3262  3.2934  1.3140
  187POPC   C1521425   4.003   0.089   1.525  0.5694  0.6651  0.6892
  187POPC  H15A21426   4.057  -0.002   1.506 -1.6249 -0.2316 -1.8111
  187POPC  H15B21427   3.938   0.089   1.438  0.9435 -1.4497  0.3677
  187POPC  H15C21428   3.942   0.078   1.613 -1.4971  4.0677 -0.0910
  187POPC   C1121429   4.035   0.470   1.551 -0.4296 -0.7662  0.2821
  187POPC  H11A21430   3.953   0.541   1.530 -2.3479 -2.6463  1.1232
  187POPC  H11B21431   4.116   0.484   1.475 -1.1176  1.4423 -0.1175
  187POPC     P21432   3.997   0.527   1.800  0.4013 -0.0938  0.1086
  187POPC   O1321433   3.884   0.434   1.792  0.3568  0.1361 -0.0058
  187POPC   O1421434   3.958   0.669   1.818 -0.1946  0.0041 -0.1380
  187POPC   O1221435   4.091   0.513   1.674 -0.9785 -0.1550  0.1438
  187POPC   O1121436   4.089   0.483   1.915  0.4453  0.3587  0.0005
  187POPC    C121437   4.194   0.572   1.965  0.5402 -0.3597  0.6496
  187POPC    HA21438   4.210   0.663   1.903  0.9154 -0.4652  0.5886
  187POPC    HB21439   4.290   0.517   1.964  1.5043  1.2528  0.0507
  187POPC    C221440   4.172   0.605   2.113  0.0994 -0.3704  0.5709
  187POPC    HS21441   4.256   0.671   2.143  0.6106 -0.1097 -1.3053
  187POPC   O2121442   4.155   0.489   2.196  0.6162 -0.2379  0.2928
  187POPC   C2121443   4.223   0.491   2.302  0.5836  0.4571 -0.2315
  187POPC   O2221444   4.315   0.573   2.323 -0.3622  0.4092 -0.1386
  187POPC   C2221445   4.175   0.398   2.418 -0.8296 -0.4040 -0.2287
  187POPC   H2R21446   4.241   0.309   2.425  1.4419  1.1506 -0.7095
  187POPC   H2S21447   4.068   0.375   2.395 -1.4183  2.5043 -0.8785
  187POPC    C321448   4.048   0.689   2.133 -0.1256 -0.4401 -0.0872
  187POPC    HX21449   3.957   0.628   2.112 -1.1466  0.6870  0.9134
  187POPC    HY21450   4.044   0.777   2.066  1.1155 -0.4113 -0.1456
  187POPC   O3121451   4.026   0.727   2.273 -0.1931 -0.6283  0.6801
  187POPC   C3121452   4.105   0.830   2.311  0.5668  0.0073 -0.0308
  187POPC   O3221453   4.177   0.894   2.234  0.3491 -0.1302  0.0062
  187POPC   C3221454   4.087   0.852   2.465  0.8421  0.7378  0.2457
  187POPC   H2X21455   4.022   0.771   2.502  0.6162  0.3219 -1.0103
  187POPC   H2Y21456   4.039   0.948   2.492  0.3288  0.1275  1.6010
  187POPC   C2321457   4.176   0.478   2.553 -0.0480 -0.5229 -0.1504
  187POPC   H3R21458   4.107   0.565   2.542 -0.1682 -0.5417  0.3905
  187POPC   H3S21459   4.271   0.516   2.596 -1.5340  2.7570  0.5957
  187POPC   C2421460   4.089   0.405   2.659 -1.1122 -0.0733  0.0427
  187POPC   H4R21461   3.982   0.413   2.629 -0.5758 -0.6083 -2.1697
  187POPC   H4S21462   4.103   0.466   2.751  1.1729  0.3674 -0.5373
  187POPC   C2521463   4.120   0.261   2.681  0.6243 -0.2608 -0.5617
  187POPC   H5R21464   4.224   0.231   2.657  0.1474 -1.0607 -1.7687
  187POPC   H5S21465   4.056   0.196   2.617  2.2130 -3.5004  0.9019
  187POPC   C2621466   4.073   0.213   2.821 -0.5309  0.4519 -0.3527
  187POPC   H6R21467   4.022   0.114   2.812  0.9237 -0.3123 -0.5410
  187POPC   H6S21468   4.014   0.292   2.871  1.8093  0.2716  3.0399
  187POPC   C2721469   4.195   0.193   2.921  0.5412 -0.1675  1.0011
  187POPC   H7R21470   4.254   0.285   2.902  1.5185 -1.0668 -0.5521
  187POPC   H7S21471   4.252   0.103   2.892 -0.2529 -0.5972  0.7297
  187POPC   C2821472   4.147   0.198   3.068  0.2175 -0.0567  0.5650
  187POPC   H8R21473   4.083   0.109   3.087 -1.5949  1.2318  0.6868
  187POPC   H8S21474   4.077   0.279   3.096 -0.3571 -1.1313  2.4570
  187POPC   C2921475   4.260   0.193   3.158 -0.7080  0.3215  0.5270
  187POPC   H9121476   4.325   0.105   3.145 -0.7308  0.5818 -1.6393
  187POPC  C21021477   4.291   0.279   3.255  0.9256  0.5131 -0.4547
  187POPC  H10121478   4.371   0.260   3.328 -0.9364 -0.0584  1.5392
  187POPC  C21121479   4.208   0.403   3.289 -0.8769 -0.4119  0.3819
  187POPC  H11R21480   4.145   0.431   3.202  0.3107 -1.6762 -0.9550
  187POPC  H11S21481   4.283   0.484   3.303 -1.0869 -0.0339 -0.5920
  187POPC  C21221482   4.130   0.391   3.417  0.2536 -0.0313  0.2559
  187POPC  H12R21483   4.039   0.327   3.409 -0.5176  1.0941 -0.1127
  187POPC  H12S21484   4.096   0.493   3.444 -3.2529 -1.3207  1.3272
  187POPC  C21321485   4.223   0.348   3.536 -0.3685 -0.0045 -0.2260
  187POPC  H13R21486   4.304   0.423   3.536  0.0311 -0.3909  1.8691
  187POPC  H13S21487   4.256   0.243   3.517 -1.6469 -0.0389 -2.6913
  187POPC  C21421488   4.146   0.360   3.668  0.8893  0.2900  0.7709
  187POPC  H14R21489   4.061   0.289   3.669 -1.0093  2.3444 -1.6699
  187POPC  H14S21490   4.097   0.460   3.673 -4.1876 -1.6538 -2.4940
  187POPC  C21521491   4.226   0.340   3.795 -0.0962  0.2298  0.0966
  187POPC  H15R21492   4.287   0.429   3.820  1.4128 -0.7629  0.0430
  187POPC  H15S21493   4.289   0.249   3.783  0.3908  0.8706 -3.5014
  187POPC  C21621494   4.140   0.306   3.917 -0.2210  0.0700  0.3210
  187POPC  H16R21495   4.093   0.206   3.906 -3.8155  1.5746  0.5003
  187POPC  H16S21496   4.055   0.378   3.924  0.8760  1.5584 -1.0656
  187POPC  C21721497   4.224   0.309   4.041  0.5987  0.2413 -0.1556
  187POPC  H17R21498   4.262   0.409   4.070  1.1614 -0.6258  2.3893
  187POPC  H17S21499   4.311   0.240   4.032 -0.2223 -0.8850  0.2886
  187POPC  C21821500   4.150   0.258   4.164  0.7574  0.1039 -0.2398
  187POPC  H18R21501   4.201   0.287   4.258  0.2301 -0.0379  0.0961
  187POPC  H18S21502   4.146   0.148   4.175  0.3700  0.3194  2.2126
  187POPC  H18T21503   4.048   0.303   4.171  0.2750 -1.1309  0.9628
  187POPC   C3321504   4.222   0.841   2.528  0.2794  0.1388 -0.3229
  187POPC   H3X21505   4.282   0.934   2.515 -0.0185  0.1814 -1.5870
  187POPC   H3Y21506   4.276   0.750   2.494 -1.3326 -0.7592 -0.5865
  187POPC   C3421507   4.207   0.829   2.680  0.0256 -0.5918 -0.7173
  187POPC   H4X21508   4.131   0.750   2.699 -0.9732 -0.4932 -3.7736
  187POPC   H4Y21509   4.166   0.923   2.722  1.5142 -0.4014  0.4226
  187POPC   C3521510   4.342   0.796   2.750 -0.1744  0.0035  0.0622
  187POPC   H5X21511   4.398   0.890   2.773 -0.0399 -0.3566  1.2970
  187POPC   H5Y21512   4.392   0.730   2.677 -1.2005 -0.6195 -0.0940
  187POPC   C3621513   4.324   0.723   2.884 -0.0197  0.2205  0.1721
  187POPC   H6X21514   4.421   0.678   2.913  0.8085  3.3942  2.9028
  187POPC   H6Y21515   4.240   0.650   2.893  1.6497 -1.7127  0.7688
  187POPC   C3721516   4.309   0.831   2.988 -1.1191 -0.8049 -0.7843
  187POPC   H7X21517   4.217   0.891   2.973 -0.0889  0.9160 -0.5324
  187POPC   H7Y21518   4.386   0.909   2.972  1.1677 -2.7846 -0.1032
  187POPC   C3821519   4.299   0.771   3.124 -0.9788  0.2233  0.3924
  187POPC   H8X21520   4.383   0.703   3.146 -1.1772  0.2384  1.2327
  187POPC   H8Y21521   4.204   0.717   3.142 -1.3555  0.7831  0.1083
  187POPC   C3921522   4.298   0.872   3.234 -0.2222  0.4544 -0.3307
  187POPC   H9X21523   4.227   0.953   3.207 -0.3012  0.4594 -0.1158
  187POPC   H9Y21524   4.401   0.912   3.241  0.2020 -0.6437 -0.1090
  187POPC  C31021525   4.261   0.820   3.369 -0.2888 -0.2294 -0.4275
  187POPC  H10X21526   4.344   0.751   3.395  1.4233  1.3160 -1.5127
  187POPC  H10Y21527   4.162   0.771   3.365 -1.4759  2.1188 -1.6045
  187POPC  C31121528   4.249   0.925   3.477 -0.2404 -0.0745 -0.5221
  187POPC  H11X21529   4.176   0.997   3.434 -0.3129 -0.1689 -0.5581
  187POPC  H11Y21530   4.337   0.990   3.501 -3.2570  3.2626  2.7783
  187POPC  C31221531   4.214   0.863   3.614 -0.0689 -1.0227  0.6596
  187POPC  H12X21532   4.304   0.807   3.647  1.7934  2.1595  1.3932
  187POPC  H12Y21533   4.137   0.783   3.610 -0.0507 -1.0048 -0.2270
  187POPC  C31321534   4.175   0.972   3.716 -0.0422  0.4523  0.1282
  187POPC  H13X21535   4.077   1.018   3.692  0.2104  1.5843  1.1379
  187POPC  H13Y21536   4.240   1.062   3.713 -0.1505  0.6401  1.9910
  187POPC  C31421537   4.165   0.930   3.864 -0.6420  0.1878  0.1545
  187POPC  H14X21538   4.095   0.997   3.919 -2.4576 -2.1320  0.8488
  187POPC  H14Y21539   4.263   0.943   3.914 -1.0520  1.5187  0.6432
  187POPC  C31521540   4.108   0.783   3.890  0.0190  0.2713  0.3736
  187POPC  H15X21541   4.164   0.714   3.824 -1.9895  1.3675 -2.7296
  187POPC  H15Y21542   4.002   0.776   3.855  0.5054  0.3952 -1.1990
  187POPC  C31621543   4.118   0.739   4.038  0.9243 -0.2750 -0.0822
  187POPC  H16X21544   4.220   0.735   4.081  0.9511  0.9050 -0.0051
  187POPC  H16Y21545   4.062   0.643   4.044 -0.0449  0.0695 -2.6428
  187POPC  H16Z21546   4.063   0.817   4.095  0.3605  0.8139 -2.0642
  188POPC     N21547   3.623   5.176   1.353 -0.4948 -0.2663 -0.4050
  188POPC   C1221548   3.635   5.173   1.500  0.6979 -0.4871 -0.3244
  188POPC  H12A21549   3.550   5.225   1.543  0.8788  0.2300 -0.8188
  188POPC  H12B21550   3.719   5.231   1.536 -0.2858  1.3541 -0.8695
  188POPC   C1321551   3.500   5.100   1.292 -0.0418 -0.3797  0.2998
  188POPC  H13A21552   3.500   5.091   1.185 -1.4337 -0.1811  0.2599
  188POPC  H13B21553   3.487   5.003   1.339 -0.4860 -0.5535 -0.1692
  188POPC  H13C21554   3.407   5.149   1.317 -0.0566 -1.2513  2.1519
  188POPC   C1421555   3.607   5.319   1.301 -0.0653 -0.3450  0.4788
  188POPC  H14A21556   3.614   5.324   1.194 -0.4797 -1.8393  0.3644
  188POPC  H14B21557   3.514   5.366   1.330 -0.4991 -0.8539 -0.0642
  188POPC  H14C21558   3.689   5.383   1.331 -0.9471  1.0604  0.0011
  188POPC   C1521559   3.750   5.117   1.289 -0.3010  0.2804 -0.9100
  188POPC  H15A21560   3.746   5.081   1.188 -0.4582  0.0682 -0.8292
  188POPC  H15B21561   3.766   5.027   1.345  1.6124 -0.2396 -2.2256
  188POPC  H15C21562   3.835   5.183   1.299 -0.1556 -0.0282  0.0332
  188POPC   C1121563   3.628   5.029   1.567  0.6196 -0.4532  0.2590
  188POPC  H11A21564   3.546   4.970   1.519 -0.3902  1.8149 -0.9597
  188POPC  H11B21565   3.599   5.057   1.671  2.6679  3.6390 -0.0821
  188POPC     P21566   3.824   4.879   1.659  0.0656  0.1961 -0.0517
  188POPC   O1321567   3.949   4.820   1.605 -0.3967 -0.0967 -0.5318
  188POPC   O1421568   3.730   4.773   1.705  0.2606  0.0160 -0.5687
  188POPC   O1221569   3.759   4.969   1.549 -0.6585  0.4407  0.1009
  188POPC   O1121570   3.866   4.974   1.779  0.8775  0.5572 -0.1909
  188POPC    C121571   3.794   4.999   1.902 -0.1445 -0.2088  0.4343
  188POPC    HA21572   3.687   5.014   1.877 -0.5471 -2.3672  0.6862
  188POPC    HB21573   3.835   5.096   1.937  1.6543 -0.1086 -1.7507
  188POPC    C221574   3.801   4.884   2.009 -0.2363 -0.3834  0.3239
  188POPC    HS21575   3.743   4.794   1.980  1.0465 -0.9752 -0.5099
  188POPC   O2121576   3.748   4.941   2.127 -0.8990  0.1096 -0.2365
  188POPC   C2121577   3.681   4.864   2.211 -0.1746 -0.4210  0.6135
  188POPC   O2221578   3.656   4.747   2.192  0.5485 -0.0034  0.5990
  188POPC   C2221579   3.654   4.939   2.341  0.2044  0.1155  0.1325
  188POPC   H2R21580   3.577   5.013   2.312 -1.1249 -1.1917  0.1881
  188POPC   H2S21581   3.752   4.983   2.370  0.5161 -1.6889  2.1411
  188POPC    C321582   3.950   4.834   2.033  0.4694 -0.4762 -0.0342
  188POPC    HX21583   4.017   4.921   2.051 -0.8785  0.3267  1.4069
  188POPC    HY21584   3.990   4.780   1.945 -0.8827 -0.4631 -0.6778
  188POPC   O3121585   3.945   4.753   2.155 -0.7924 -0.1729 -0.0481
  188POPC   C3121586   4.072   4.697   2.186  0.2175  0.0482 -0.2169
  188POPC   O3221587   4.174   4.731   2.147  0.0764  0.0891 -0.2186
  188POPC   C3221588   4.050   4.577   2.282  1.1721 -0.0521  0.0850
  188POPC   H2X21589   4.130   4.500   2.273 -1.0178 -2.4121 -0.2032
  188POPC   H2Y21590   3.948   4.538   2.261 -1.1944  3.0038  4.2709
  188POPC   C2321591   3.601   4.852   2.455  0.2146 -0.0246  1.1801
  188POPC   H3R21592   3.681   4.802   2.514  0.9230 -0.4156 -0.0692
  188POPC   H3S21593   3.531   4.773   2.420 -0.8441  1.2672  0.2644
  188POPC   C2421594   3.540   4.954   2.558 -0.1334 -0.1363  0.5338
  188POPC   H4R21595   3.456   5.002   2.505  0.8614  1.6945  0.5456
  188POPC   H4S21596   3.620   5.025   2.589 -0.2716 -0.6565  2.1909
  188POPC   C2521597   3.491   4.883   2.687 -0.1022 -0.1278  0.0959
  188POPC   H5R21598   3.416   4.806   2.661  2.4864 -2.9376  0.4421
  188POPC   H5S21599   3.448   4.967   2.746 -1.8115 -1.5237  0.9423
  188POPC   C2621600   3.609   4.825   2.770 -0.0460  0.3923 -0.0761
  188POPC   H6R21601   3.690   4.899   2.789 -0.6713  0.6430  1.7954
  188POPC   H6S21602   3.651   4.739   2.714  0.3661  0.5343  0.0176
  188POPC   C2721603   3.560   4.768   2.900 -0.4643  0.1278 -0.1225
  188POPC   H7R21604   3.473   4.705   2.871  0.7923 -1.6542 -0.2063
  188POPC   H7S21605   3.535   4.855   2.964  0.2711 -0.8155  1.5059
  188POPC   C2821606   3.657   4.675   2.976  0.4666 -0.0620 -0.4203
  188POPC   H8R21607   3.736   4.730   3.032  0.9382 -0.7010 -0.4528
  188POPC   H8S21608   3.699   4.603   2.903 -2.7186 -2.5439 -0.0170
  188POPC   C2921609   3.581   4.591   3.077  0.0172  0.3811  0.2909
  188POPC   H9121610   3.544   4.496   3.037  1.0685  0.6358 -1.3957
  188POPC  C21021611   3.573   4.611   3.206 -0.3456 -0.1373 -0.1354
  188POPC  H10121612   3.509   4.539   3.259 -1.2964 -2.0799 -3.6210
  188POPC  C21121613   3.619   4.736   3.283  0.3677 -0.7194 -0.3010
  188POPC  H11R21614   3.546   4.765   3.361  0.4806  0.4013 -0.5925
  188POPC  H11S21615   3.623   4.822   3.212 -0.5251  0.2222  0.7436
  188POPC  C21221616   3.758   4.729   3.350  0.2896  0.1677 -1.1243
  188POPC  H12R21617   3.787   4.832   3.381  0.1138  0.6929 -2.5899
  188POPC  H12S21618   3.840   4.685   3.289  2.6586 -1.9289  3.0856
  188POPC  C21321619   3.752   4.641   3.478 -0.6679 -0.5188 -0.1059
  188POPC  H13R21620   3.725   4.541   3.436  1.2180  0.0863 -3.1137
  188POPC  H13S21621   3.666   4.673   3.540 -1.2266 -3.0167  0.5142
  188POPC  C21421622   3.867   4.643   3.574 -0.2322  0.4720 -0.0185
  188POPC  H14R21623   3.959   4.641   3.513 -1.7401 -1.5134 -2.4143
  188POPC  H14S21624   3.850   4.558   3.644  0.0340 -0.2472 -0.8207
  188POPC  C21521625   3.865   4.778   3.652 -0.1955  0.0410 -0.3369
  188POPC  H15R21626   3.764   4.772   3.699 -0.5470  1.5698 -0.8419
  188POPC  H15S21627   3.859   4.862   3.580  0.0218  2.5894  2.4141
  188POPC  C21621628   3.977   4.805   3.758  0.1630 -0.2293  0.1521
  188POPC  H16R21629   3.984   4.713   3.820  1.0532 -0.9421 -0.9686
  188POPC  H16S21630   3.955   4.890   3.827  2.8762  0.6433  0.0945
  188POPC  C21721631   4.114   4.843   3.694 -0.8248  1.0593  0.1673
  188POPC  H17R21632   4.134   4.769   3.614 -1.3574 -1.6932  2.4232
  188POPC  H17S21633   4.198   4.833   3.765 -0.1409 -0.8073 -0.8542
  188POPC  C21821634   4.116   4.989   3.669 -0.9502  0.6852 -0.2638
  188POPC  H18R21635   4.019   5.028   3.631 -0.7196  0.3054 -1.2621
  188POPC  H18S21636   4.202   5.024   3.609  0.8703  0.1780  1.8850
  188POPC  H18T21637   4.130   5.051   3.760  2.3473 -0.6462  0.2792
  188POPC   C3321638   4.045   4.618   2.431  0.6671 -0.4038  0.1062
  188POPC   H3X21639   3.945   4.663   2.446 -0.0992 -1.6803 -0.9839
  188POPC   H3Y21640   4.112   4.707   2.438 -1.4556  1.5559 -2.2346
  188POPC   C3421641   4.077   4.507   2.524 -0.1075 -0.1146  0.1967
  188POPC   H4X21642   4.168   4.453   2.490  1.2036  2.2830 -0.2463
  188POPC   H4Y21643   3.998   4.428   2.521 -0.1145 -0.1960  1.9002
  188POPC   C3521644   4.093   4.557   2.668 -0.2438 -0.1089 -0.6391
  188POPC   H5X21645   3.995   4.606   2.687  0.8751  1.8589  0.4209
  188POPC   H5Y21646   4.157   4.648   2.675 -1.7673  0.8678  1.4940
  188POPC   C3621647   4.139   4.452   2.765 -0.2376 -0.0289 -0.0376
  188POPC   H6X21648   4.228   4.398   2.726 -0.3920 -0.7166  0.5492
  188POPC   H6Y21649   4.078   4.360   2.776  0.1092 -0.3711 -0.9201
  188POPC   C3721650   4.169   4.501   2.910  0.1215  0.5288  0.0715
  188POPC   H7X21651   4.075   4.535   2.959 -0.5411  0.4068 -1.0704
  188POPC   H7Y21652   4.239   4.586   2.893  3.8988 -2.4040 -0.1993
  188POPC   C3821653   4.235   4.391   2.996 -0.2927 -0.1690 -0.7168
  188POPC   H8X21654   4.338   4.361   2.967  1.0386  1.1886  2.2161
  188POPC   H8Y21655   4.167   4.302   2.991  0.9281 -1.3157  1.3745
  188POPC   C3921656   4.255   4.419   3.145 -0.1118  0.8938 -0.6032
  188POPC   H9X21657   4.161   4.448   3.198  1.0415  0.2748  1.8840
  188POPC   H9Y21658   4.334   4.494   3.164  2.6027 -2.2437  1.5706
  188POPC  C31021659   4.297   4.296   3.224 -0.5343 -0.0809 -0.4927
  188POPC  H10X21660   4.401   4.281   3.188 -0.3940  0.7879 -0.4852
  188POPC  H10Y21661   4.237   4.205   3.205  0.3875 -0.7970 -0.0317
  188POPC  C31121662   4.311   4.323   3.372 -0.1323 -0.1909 -0.0914
  188POPC  H11X21663   4.398   4.385   3.405  1.3986 -2.6913  0.8281
  188POPC  H11Y21664   4.318   4.220   3.413 -1.2835 -0.6094 -0.8964
  188POPC  C31221665   4.177   4.365   3.437  0.0310 -0.3163  0.4317
  188POPC  H12X21666   4.093   4.312   3.388  0.2097  0.4465 -0.7298
  188POPC  H12Y21667   4.163   4.475   3.428 -1.2009 -0.4770  0.2186
  188POPC  C31321668   4.183   4.342   3.585  0.1639 -0.2062 -0.2542
  188POPC  H13X21669   4.219   4.238   3.598  1.8369  0.5056  1.3676
  188POPC  H13Y21670   4.091   4.355   3.646  1.4892  0.3368  1.7648
  188POPC  C31421671   4.292   4.433   3.646  0.9585  0.6303 -0.3171
  188POPC  H14X21672   4.324   4.510   3.572  0.4597  2.5267  1.3444
  188POPC  H14Y21673   4.382   4.371   3.662  0.4405  0.4648  2.2634
  188POPC  C31521674   4.247   4.500   3.771 -0.0947 -0.5169  0.3548
  188POPC  H15X21675   4.185   4.432   3.832  0.7795 -0.5849  1.1931
  188POPC  H15Y21676   4.185   4.588   3.742 -0.4403  0.0022  2.5299
  188POPC  C31621677   4.361   4.559   3.858 -0.3838  0.1812  0.1352
  188POPC  H16X21678   4.314   4.609   3.946 -1.7134 -2.2395  0.8943
  188POPC  H16Y21679   4.418   4.639   3.807  0.5725 -1.4299 -1.4222
  188POPC  H16Z21680   4.429   4.485   3.905  0.6515  0.5656 -0.7143
  189SAPI   C1221681   3.081   3.767   6.780  0.9054  0.3008  0.1274
  189SAPI    H221682   3.085   3.764   6.670 -2.8721 -2.0279 -0.1470
  189SAPI    O221683   3.091   3.637   6.832 -0.8729  0.0240 -0.5887
  189SAPI   HO221684   3.022   3.582   6.795  0.3756 -1.0961 -1.3661
  189SAPI   C1321685   3.198   3.850   6.818  0.0432  0.2939  0.0265
  189SAPI    H321686   3.180   3.949   6.771 -0.1807  0.6912  0.9374
  189SAPI    O321687   3.323   3.802   6.760  0.5664  0.4363  0.6237
  189SAPI   HO321688   3.349   3.718   6.799  2.7304  0.5430 -0.4446
  189SAPI   C1421689   3.211   3.875   6.970  0.3070 -0.7333  0.8757
  189SAPI    H421690   3.261   3.785   7.011  2.9445  1.3175  2.4904
  189SAPI    O421691   3.298   3.983   6.987 -0.2228 -0.3375  0.2974
  189SAPI   HO421692   3.269   4.053   6.928 -1.1538 -1.7953 -1.0622
  189SAPI   C1521693   3.082   3.903   7.045  0.0578 -0.2701  0.3397
  189SAPI    H521694   3.074   4.013   7.059 -0.7987 -0.1590 -0.9096
  189SAPI    O521695   3.099   3.843   7.175  0.0658 -0.4380 -0.4223
  189SAPI   HO521696   3.095   3.747   7.180  2.3692 -0.5713 -0.0351
  189SAPI   C1621697   2.951   3.853   6.984 -0.8318 -0.3490  0.6867
  189SAPI    H621698   2.913   3.755   7.022 -1.9801 -0.2670 -0.2097
  189SAPI    O621699   2.847   3.943   7.021  0.3215  0.0782  0.1245
  189SAPI   HO621700   2.852   4.025   6.971 -0.2359 -0.0762 -0.1976
  189SAPI   C1121701   2.954   3.837   6.829 -0.0729 -0.2594  0.3816
  189SAPI    H121702   2.960   3.945   6.803  1.1260  0.3766  2.9021
  189SAPI     P21703   2.754   3.806   6.654 -0.1494 -0.4593  0.1508
  189SAPI   O1321704   2.717   3.952   6.657  0.7518  0.1305 -0.0190
  189SAPI   O1421705   2.647   3.702   6.638  0.7804  0.4697  0.5215
  189SAPI   O1221706   2.835   3.766   6.793 -0.0911  0.2253 -0.4589
  189SAPI   O1121707   2.866   3.784   6.535 -0.7649  0.2261 -0.4523
  189SAPI    C121708   2.820   3.818   6.399  0.1488  0.1786  0.4110
  189SAPI    HA21709   2.710   3.810   6.384 -0.0238 -0.0966  1.6747
  189SAPI    HB21710   2.841   3.926   6.387 -1.2973  0.3869 -0.4727
  189SAPI    C221711   2.897   3.745   6.292 -0.4798  0.1883  0.5123
  189SAPI    HS21712   3.006   3.750   6.311 -0.1781 -0.1437 -0.9848
  189SAPI   O2121713   2.859   3.790   6.161  0.0884 -0.5869  0.6765
  189SAPI   C2121714   2.945   3.870   6.097  0.7448 -0.0908  0.1837
  189SAPI   O2221715   3.040   3.928   6.144 -0.8227  0.0482  0.7577
  189SAPI   C2221716   2.907   3.880   5.950 -0.3237 -0.5555  0.4506
  189SAPI   H2R21717   2.852   3.790   5.915 -0.4022  0.9989 -4.1142
  189SAPI   H2S21718   2.837   3.966   5.944  1.9048  1.3267  0.1109
  189SAPI    C321719   2.864   3.597   6.293 -0.2324 -0.2727  0.4833
  189SAPI    HX21720   2.753   3.586   6.298 -0.0684 -1.7997  1.6004
  189SAPI    HY21721   2.904   3.540   6.379  1.3918  0.6083  0.3606
  189SAPI   O3121722   2.911   3.528   6.167  0.2299 -0.0313  0.4639
  189SAPI   C3121723   3.041   3.508   6.164 -0.8054 -0.2468 -0.5187
  189SAPI   O3221724   3.116   3.541   6.254 -0.2147  0.6908  0.5672
  189SAPI   C3221725   3.083   3.442   6.038  0.5721  0.3859 -0.2256
  189SAPI   H2X21726   3.051   3.336   6.042  0.2973  0.3875 -1.7299
  189SAPI   H2Y21727   3.194   3.443   6.034  0.6313 -2.4030 -2.7554
  189SAPI   C2321728   3.025   3.913   5.858  0.5574  0.1088  0.9540
  189SAPI   H3R21729   3.084   3.819   5.845 -1.5523 -1.2127  0.3902
  189SAPI   H3S21730   3.090   3.997   5.891 -0.9276  2.0982 -0.8802
  189SAPI   C2421731   2.966   3.951   5.716 -0.6199 -0.0818  0.3601
  189SAPI   H4R21732   2.919   4.049   5.738 -0.4251 -0.2830  1.7516
  189SAPI   H4S21733   2.902   3.867   5.682 -0.4989  0.5922 -1.6965
  189SAPI   C2521734   3.078   3.987   5.617 -0.2440 -0.1553  0.2191
  189SAPI   H5R21735   3.161   4.044   5.660  1.1039  0.1776 -2.5978
  189SAPI   C2621736   3.087   3.960   5.485  0.5528 -0.2575 -0.4303
  189SAPI   H6R21737   3.178   3.989   5.431  0.0004 -1.6123 -2.1879
  189SAPI   C2721738   2.977   3.898   5.402  0.2841  0.3850  0.3562
  189SAPI   H7R21739   2.935   3.983   5.344  1.9396 -0.0205 -1.5590
  189SAPI   H7S21740   2.900   3.841   5.458  3.1473 -2.2213  1.9620
  189SAPI   C2821741   3.049   3.805   5.312  0.7598 -0.3057  0.8412
  189SAPI   H8R21742   3.081   3.712   5.362 -0.5396 -0.2884  1.7400
  189SAPI   C2921743   3.080   3.826   5.180 -0.7369  0.1188 -0.8346
  189SAPI   H9R21744   3.145   3.753   5.131 -2.2913 -1.9783  0.0563
  189SAPI  C21021745   3.034   3.950   5.100  0.5150 -0.1756 -0.5594
  189SAPI  H10R21746   3.019   4.035   5.170  0.0354 -1.8840  1.5321
  189SAPI  H10S21747   2.940   3.919   5.048  2.0705 -1.7701 -2.5724
  189SAPI  C21121748   3.132   3.994   4.991 -0.5055 -0.6087 -0.5843
  189SAPI  H11R21749   3.238   3.986   5.022 -0.3045  1.6381 -0.5842
  189SAPI  C21221750   3.101   4.031   4.868 -0.3584  0.5430 -0.4567
  189SAPI  H12R21751   3.186   4.069   4.808  0.2460  1.8553  1.1689
  189SAPI  C21321752   2.963   4.037   4.800 -0.2946  0.0070 -0.2428
  189SAPI  H13R21753   2.922   4.140   4.803 -0.7960 -0.1593 -1.1472
  189SAPI  H13S21754   2.892   3.974   4.858 -0.6981  0.0584 -0.6792
  189SAPI  C21421755   2.971   3.978   4.662  0.6528 -0.2132  0.5949
  189SAPI  H14R21756   2.950   3.870   4.662 -0.1520 -0.0733  1.7202
  189SAPI  C21521757   2.982   4.053   4.547 -0.0131  0.3121  0.4611
  189SAPI  H15R21758   2.994   4.001   4.450  1.6702  0.5646  0.4974
  189SAPI  C21621759   2.987   4.199   4.528 -0.4098 -0.3649 -0.0832
  189SAPI  H16R21760   3.084   4.225   4.480 -0.0950  2.0978  1.6825
  189SAPI  H16S21761   2.981   4.253   4.625  1.5125  0.2779 -0.2814
  189SAPI  C21721762   2.866   4.263   4.452 -0.3253  0.6664 -0.3258
  189SAPI  H17R21763   2.780   4.267   4.523 -0.9637 -0.4211 -1.0141
  189SAPI  H17S21764   2.838   4.203   4.364  0.5507 -0.4755  0.1557
  189SAPI  C21821765   2.909   4.402   4.402  0.2325  0.1084  0.0168
  189SAPI  H18R21766   2.835   4.434   4.326  0.2407  0.3911  0.1272
  189SAPI  H18S21767   3.012   4.403   4.361 -1.1378  2.9659 -3.9675
  189SAPI  C21921768   2.905   4.503   4.516 -0.0569 -0.4843  0.1266
  189SAPI  H19R21769   2.951   4.466   4.609 -1.1806 -0.8035  0.5724
  189SAPI  H19S21770   2.798   4.517   4.544  0.0338 -4.2074  3.0001
  189SAPI  C22021771   2.955   4.639   4.464  0.4806  0.3578 -0.2009
  189SAPI  H20R21772   2.895   4.659   4.373  0.8308  0.7997 -0.3382
  189SAPI  H20S21773   3.062   4.638   4.433  0.6418 -0.9067  0.3103
  189SAPI  H20T21774   2.952   4.714   4.546  0.6742  1.6618 -1.3627
  189SAPI   C3321775   3.018   3.503   5.906  0.1815  0.4833  0.1264
  189SAPI   H3X21776   3.059   3.603   5.881  0.3794 -0.2021 -2.5507
  189SAPI   H3Y21777   2.907   3.508   5.910  0.1461  0.0364 -0.2310
  189SAPI   C3421778   3.057   3.405   5.798 -0.2310 -0.4363  0.3372
  189SAPI   H4X21779   3.001   3.310   5.811 -1.0121  0.1504  1.3996
  189SAPI   H4Y21780   3.164   3.379   5.814 -0.2972 -0.0639  1.4736
  189SAPI   C3521781   3.042   3.485   5.674  0.6492 -0.3136  0.3238
  189SAPI   H5X21782   3.125   3.556   5.658  1.0512 -1.4365 -3.3838
  189SAPI   H5Y21783   2.940   3.529   5.661  0.4165 -1.0885 -0.5175
  189SAPI   C3621784   3.053   3.385   5.555 -0.5397  0.5096  0.6582
  189SAPI   H6X21785   2.989   3.295   5.563 -0.1347  0.1689  0.1378
  189SAPI   H6Y21786   3.161   3.357   5.561 -0.6502 -0.1586 -0.3488
  189SAPI   C3721787   3.039   3.449   5.412  0.2406  0.6456  0.4708
  189SAPI   H7X21788   3.111   3.533   5.419  1.1459  0.0187 -0.9054
  189SAPI   H7Y21789   2.938   3.490   5.387  0.3886 -0.4795 -2.2848
  189SAPI   C3821790   3.088   3.365   5.295 -0.0578  0.0835 -0.2055
  189SAPI   H8X21791   3.021   3.281   5.267  1.3366 -1.0824 -0.1187
  189SAPI   H8Y21792   3.188   3.323   5.315 -0.0218 -0.1577 -0.8469
  189SAPI   C3921793   3.086   3.455   5.167  0.4809  0.5070 -0.4044
  189SAPI   H9X21794   3.156   3.538   5.193  0.8630 -0.0499  0.3796
  189SAPI   H9Y21795   2.989   3.505   5.145 -0.7197 -2.0240 -1.1611
  189SAPI  C31021796   3.103   3.369   5.048  0.5178  0.2949  0.0018
  189SAPI  H10X21797   3.034   3.282   5.042  0.3083  0.5652 -3.6194
  189SAPI  H10Y21798   3.202   3.318   5.045  1.8645  2.6848  0.8736
  189SAPI  C31121799   3.073   3.449   4.918 -0.4077  0.2462  0.3357
  189SAPI  H11X21800   3.122   3.549   4.919 -0.3721  0.2287  0.3478
  189SAPI  H11Y21801   2.963   3.446   4.902 -0.6115 -2.0509  1.6295
  189SAPI  C31221802   3.116   3.374   4.797 -0.4990 -0.1894 -0.6992
  189SAPI  H12X21803   3.114   3.264   4.814 -0.1163 -0.1029 -0.0492
  189SAPI  H12Y21804   3.219   3.401   4.765 -0.3796 -1.1704 -1.2016
  189SAPI  C31321805   3.035   3.411   4.667  0.2481 -0.1421 -0.7228
  189SAPI  H13X21806   2.932   3.370   4.675  0.9756 -2.0087 -0.3615
  189SAPI  H13Y21807   3.070   3.361   4.575  1.3044 -0.0674 -0.3766
  189SAPI  C31421808   3.012   3.566   4.638  0.0888 -0.5598 -0.5055
  189SAPI  H14X21809   3.115   3.604   4.622  0.3432 -1.2110 -0.4421
  189SAPI  H14Y21810   2.980   3.609   4.736 -0.0655 -0.4839 -0.5893
  189SAPI  C31521811   2.919   3.610   4.521  0.2352 -0.4965  0.2698
  189SAPI  H15X21812   2.919   3.721   4.512  3.3481 -0.5490 -3.1188
  189SAPI  H15Y21813   2.816   3.572   4.537 -0.7723  1.7078 -0.6218
  189SAPI  C31621814   2.985   3.575   4.391 -0.5262  0.2735  0.7951
  189SAPI  H16X21815   3.095   3.564   4.403 -0.3863 -1.8285 -1.5588
  189SAPI  H16Y21816   2.959   3.647   4.310 -3.3424  0.1078  1.4467
  189SAPI  C31721817   2.937   3.441   4.337 -0.3644  0.1806 -0.5113
  189SAPI  H17X21818   2.836   3.448   4.292  0.6094 -0.7093 -2.9754
  189SAPI  H17Y21819   2.913   3.372   4.420  1.2176  0.3211  0.1047
  189SAPI  C31821820   3.044   3.374   4.249  0.2064 -0.4242 -0.0089
  189SAPI  H18X21821   3.005   3.280   4.204 -0.2523 -0.0901 -0.3156
  189SAPI  H18Y21822   3.133   3.367   4.316  0.5479  1.6652 -0.1803
  189SAPI  H18Z21823   3.071   3.448   4.170  0.3101  2.0729  2.2219
  190SAPI   C1221824   1.046   3.511   6.849  0.1456  0.8226  0.2182
  190SAPI    H221825   1.149   3.523   6.810  1.3516 -1.3660  2.4358
  190SAPI    O221826   1.046   3.379   6.908 -0.1063 -0.1515 -0.1444
  190SAPI   HO221827   1.092   3.322   6.845 -0.2083  1.1264 -1.4172
  190SAPI   C1321828   1.024   3.615   6.955  0.5389  0.6488 -0.3758
  190SAPI    H321829   1.036   3.712   6.901  1.1705  0.4882 -0.5258
  190SAPI    O321830   1.125   3.610   7.052  0.6391 -0.4664  0.7873
  190SAPI   HO321831   1.123   3.520   7.087  1.6303 -1.1787 -0.8659
  190SAPI   C1421832   0.886   3.610   7.020 -0.0675 -0.3843 -0.0972
  190SAPI    H421833   0.886   3.518   7.082 -0.7882 -0.0010  0.4840
  190SAPI    O421834   0.862   3.717   7.112  0.0854 -0.1834 -0.0011
  190SAPI   HO421835   0.890   3.700   7.202 -1.4172  2.6343  1.1297
  190SAPI   C1521836   0.778   3.594   6.918  0.0289 -1.2475 -0.2236
  190SAPI    H521837   0.749   3.697   6.888  0.2454 -0.8580  0.8642
  190SAPI    O521838   0.666   3.535   6.982 -0.1999 -0.1966 -0.1258
  190SAPI   HO521839   0.592   3.573   6.933  0.2235 -0.3933 -0.9294
  190SAPI   C1621840   0.810   3.521   6.784  0.6364  0.0802 -0.5319
  190SAPI    H621841   0.796   3.414   6.807  0.7356  0.1791  0.0110
  190SAPI    O621842   0.717   3.558   6.682 -0.2117  0.2989 -0.3670
  190SAPI   HO621843   0.767   3.544   6.601  1.9293  2.0690  0.5279
  190SAPI   C1121844   0.953   3.529   6.735  0.5113  0.5389 -0.4410
  190SAPI    H121845   0.963   3.630   6.691  5.6986  0.4369 -0.0608
  190SAPI     P21846   1.006   3.478   6.482  0.2037  0.2773 -0.4171
  190SAPI   O1321847   1.055   3.358   6.413 -0.1611 -0.0294  0.4750
  190SAPI   O1421848   1.081   3.604   6.480 -0.0892 -0.5793 -0.1234
  190SAPI   O1221849   0.983   3.425   6.643 -0.1202 -0.9703  0.0495
  190SAPI   O1121850   0.851   3.515   6.436 -0.6940 -0.5519  1.0616
  190SAPI    C121851   0.768   3.422   6.376 -0.4079 -0.4675  0.3257
  190SAPI    HA21852   0.809   3.319   6.383  0.4966 -0.1744 -0.4174
  190SAPI    HB21853   0.670   3.435   6.426  0.6053 -0.0500  2.2978
  190SAPI    C221854   0.722   3.467   6.238  0.2092  0.2088 -0.5381
  190SAPI    HS21855   0.613   3.444   6.228  0.1325 -0.3634  1.2947
  190SAPI   O2121856   0.794   3.394   6.139 -1.0018 -0.1445 -0.1833
  190SAPI   C2121857   0.786   3.263   6.127 -0.0229 -0.0597 -0.2108
  190SAPI   O2221858   0.702   3.196   6.180 -0.0795  0.5655  0.2815
  190SAPI   C2221859   0.889   3.207   6.029  0.6766  0.0712 -0.4430
  190SAPI   H2R21860   0.836   3.211   5.932  2.4644  4.4113 -1.4597
  190SAPI   H2S21861   0.972   3.280   6.026  1.9753 -1.1667  2.0473
  190SAPI    C321862   0.749   3.615   6.219 -0.0376 -0.3814 -0.0494
  190SAPI    HX21863   0.860   3.625   6.221  0.0709 -1.5881  0.9741
  190SAPI    HY21864   0.708   3.676   6.302 -1.2896  0.4545 -1.2392
  190SAPI   O3121865   0.697   3.653   6.095  0.9531  0.3168 -0.8949
  190SAPI   C3121866   0.573   3.707   6.097 -0.4059  0.7364  0.1578
  190SAPI   O3221867   0.493   3.705   6.190 -0.0819  0.1943  0.0085
  190SAPI   C3221868   0.557   3.774   5.958 -0.2246  0.3023  0.2735
  190SAPI   H2X21869   0.637   3.849   5.945 -0.1944  0.1096 -0.7420
  190SAPI   H2Y21870   0.468   3.837   5.979  0.2435  0.5721  1.5534
  190SAPI   C2321871   0.922   3.071   6.081 -0.9492 -0.3785 -0.1868
  190SAPI   H3R21872   0.832   3.007   6.090 -0.1288 -1.2840  2.3303
  190SAPI   H3S21873   0.956   3.089   6.185  2.5341  0.8777 -1.3834
  190SAPI   C2421874   1.042   3.016   6.002  0.2079  0.3918  0.6531
  190SAPI   H4R21875   1.099   2.939   6.059 -0.9932 -1.0104  0.0290
  190SAPI   H4S21876   1.114   3.100   5.992 -1.0003  1.2265 -2.1938
  190SAPI   C2521877   0.991   2.960   5.875  0.4353 -0.6617  0.5258
  190SAPI   H5R21878   0.906   2.891   5.884  0.5814 -0.8461  0.4921
  190SAPI   C2621879   1.040   2.990   5.755 -0.8434 -0.3742 -0.1914
  190SAPI   H6R21880   0.994   2.942   5.667  0.3852 -0.6116 -0.7149
  190SAPI   C2721881   1.158   3.081   5.722  0.5279  0.1908 -0.2808
  190SAPI   H7R21882   1.230   3.084   5.806  0.2859  0.5942 -0.0823
  190SAPI   H7S21883   1.116   3.184   5.729 -1.0574 -0.2283 -2.4240
  190SAPI   C2821884   1.218   3.055   5.586 -0.5725  0.0047  0.3816
  190SAPI   H8R21885   1.242   2.948   5.576 -2.8683 -0.5709  0.4868
  190SAPI   C2921886   1.253   3.154   5.500 -0.3974  0.8981 -0.6076
  190SAPI   H9R21887   1.287   3.117   5.402 -1.2913  0.4753 -0.7591
  190SAPI  C21021888   1.244   3.300   5.538  0.4046  0.6192 -0.0718
  190SAPI  H10R21889   1.291   3.315   5.637  2.0354 -0.6151 -0.6159
  190SAPI  H10S21890   1.138   3.329   5.550  0.1666 -0.7190  1.4014
  190SAPI  C21121891   1.313   3.401   5.446  0.0832 -0.1811 -0.4712
  190SAPI  H11R21892   1.408   3.441   5.483  0.1490 -0.2561 -0.5608
  190SAPI  C21221893   1.288   3.435   5.318  0.0145 -0.0261  0.5614
  190SAPI  H12R21894   1.343   3.523   5.283  0.0768  0.0811  0.9190
  190SAPI  C21321895   1.184   3.369   5.233  0.2385 -0.4527 -0.4511
  190SAPI  H13R21896   1.098   3.325   5.288 -0.7657  3.0694  1.0991
  190SAPI  H13S21897   1.235   3.289   5.175  0.4133 -0.9757  0.4070
  190SAPI  C21421898   1.115   3.469   5.137 -0.4037  0.3218  0.3072
  190SAPI  H14R21899   1.071   3.561   5.178  0.5274  0.4156  1.1462
  190SAPI  C21521900   1.067   3.441   5.015 -0.3310  0.0494 -0.6570
  190SAPI  H15R21901   1.003   3.517   4.968 -0.3585  1.4199  1.4818
  190SAPI  C21621902   1.072   3.312   4.941 -0.9756  0.0624 -0.0959
  190SAPI  H16R21903   0.985   3.244   4.955 -0.8173  0.0576  1.0066
  190SAPI  H16S21904   1.168   3.262   4.967 -1.4099 -0.4363  0.5965
  190SAPI  C21721905   1.067   3.344   4.795  0.1431 -0.4716 -0.3233
  190SAPI  H17R21906   0.983   3.403   4.753 -0.5779 -1.3689 -0.1852
  190SAPI  H17S21907   1.065   3.245   4.743 -0.7961 -0.6803  0.0805
  190SAPI  C21821908   1.188   3.427   4.752  0.5858 -0.0090 -0.1658
  190SAPI  H18R21909   1.275   3.396   4.814  0.6266 -3.4810 -1.7409
  190SAPI  H18S21910   1.171   3.532   4.784 -0.0540  0.2032 -1.1587
  190SAPI  C21921911   1.211   3.419   4.604  0.0890  0.4709  0.6885
  190SAPI  H19R21912   1.298   3.353   4.584  0.3806  0.4263  2.0169
  190SAPI  H19S21913   1.254   3.518   4.579 -0.2589  0.2018 -1.0874
  190SAPI  C22021914   1.107   3.386   4.505 -0.0522  0.0046  0.2068
  190SAPI  H20R21915   1.031   3.465   4.523 -0.6056 -0.2161 -1.0564
  190SAPI  H20S21916   1.066   3.287   4.532  0.8635 -0.7903 -1.2173
  190SAPI  H20T21917   1.137   3.384   4.398  0.0666  0.6263  0.2217
  190SAPI   C3321918   0.527   3.677   5.847  0.0630  0.1492  0.6388
  190SAPI   H3X21919   0.460   3.596   5.882  0.3715 -0.5252 -0.3040
  190SAPI   H3Y21920   0.625   3.632   5.820 -0.4706 -0.9423  0.4644
  190SAPI   C3421921   0.474   3.741   5.717  0.3046 -0.4661  0.0012
  190SAPI   H4X21922   0.552   3.806   5.672  0.3910 -1.0119 -0.6625
  190SAPI   H4Y21923   0.380   3.793   5.744 -1.1553 -2.6140 -0.6305
  190SAPI   C3521924   0.429   3.636   5.611 -0.6065 -0.3207  0.6481
  190SAPI   H5X21925   0.364   3.554   5.648  0.9014 -2.8216 -1.7992
  190SAPI   H5Y21926   0.517   3.582   5.570 -1.5946  0.1582 -2.3364
  190SAPI   C3621927   0.359   3.706   5.488 -0.1922  0.6784 -0.4742
  190SAPI   H6X21928   0.433   3.757   5.423  0.0326  0.1826 -0.6101
  190SAPI   H6Y21929   0.281   3.781   5.513  0.2736  1.3327 -0.9420
  190SAPI   C3721930   0.295   3.609   5.393 -0.5287  0.4429 -1.0423
  190SAPI   H7X21931   0.207   3.562   5.442  1.8693 -2.8734  0.3818
  190SAPI   H7Y21932   0.361   3.520   5.387 -0.3575  0.3385  1.3696
  190SAPI   C3821933   0.264   3.670   5.260 -0.2941  0.3150  0.7060
  190SAPI   H8X21934   0.277   3.589   5.185 -0.2895  0.0160  1.0293
  190SAPI   H8Y21935   0.340   3.740   5.218  0.5246 -0.3089  1.1357
  190SAPI   C3921936   0.129   3.742   5.250 -0.5819 -0.2251 -0.0047
  190SAPI   H9X21937   0.126   3.819   5.330  0.3796 -0.6022  0.3995
  190SAPI   H9Y21938   0.051   3.673   5.289 -0.7323  0.7081  1.4103
  190SAPI  C31021939   0.098   3.790   5.103  0.7276 -1.0108 -0.0460
  190SAPI  H10X21940   0.113   3.705   5.032  1.6711 -1.0977  0.2425
  190SAPI  H10Y21941   0.183   3.860   5.089  1.3008 -1.3766  1.4271
  190SAPI  C31121942  -0.035   3.868   5.117 -0.2467 -0.4676 -0.1334
  190SAPI  H11X21943  -0.035   3.948   5.194 -2.6050 -2.5607  2.2126
  190SAPI  H11Y21944  -0.121   3.800   5.138 -0.5907 -0.5514 -1.6828
  190SAPI  C31221945  -0.050   3.962   4.994 -0.0493 -0.1843  0.4094
  190SAPI  H12X21946   0.050   4.006   4.972  0.1954 -1.7966 -2.1931
  190SAPI  H12Y21947  -0.124   4.043   5.013  0.5687  0.8175 -1.2166
  190SAPI  C31321948  -0.072   3.894   4.860  0.9423  0.5793  0.1837
  190SAPI  H13X21949  -0.169   3.841   4.866  0.2029  2.0581  2.5405
  190SAPI  H13Y21950   0.003   3.812   4.855 -0.1689 -0.4098 -0.8400
  190SAPI  C31421951  -0.071   3.989   4.738  0.8601 -0.0185  0.4585
  190SAPI  H14X21952   0.015   4.057   4.717  1.6685 -1.5221 -1.4070
  190SAPI  H14Y21953  -0.152   4.062   4.761 -0.0973 -0.8803 -0.0928
  190SAPI  C31521954  -0.096   3.912   4.609 -0.2267  0.1850 -0.2803
  190SAPI  H15X21955  -0.175   3.836   4.618  0.8445 -0.7319  2.4322
  190SAPI  H15Y21956  -0.002   3.853   4.612 -0.8272 -0.7485  0.5830
  190SAPI  C31621957  -0.103   3.994   4.482  0.6782  0.1401  0.4906
  190SAPI  H16X21958  -0.018   4.065   4.471  0.5881  0.1314 -0.2852
  190SAPI  H16Y21959  -0.198   4.051   4.486 -0.0228 -0.8092 -1.4462
  190SAPI  C31721960  -0.115   3.904   4.355  0.3773 -0.6452 -0.5201
  190SAPI  H17X21961  -0.123   3.798   4.387  3.1687 -1.1766 -1.3076
  190SAPI  H17Y21962  -0.029   3.925   4.287 -1.7055  0.9599 -2.8570
  190SAPI  C31821963  -0.239   3.927   4.270 -0.1184  0.2680 -0.7464
  190SAPI  H18X21964  -0.256   4.034   4.244  0.7884  0.4299 -0.7033
  190SAPI  H18Y21965  -0.330   3.879   4.311 -1.0674  0.5861 -2.3907
  190SAPI  H18Z21966  -0.230   3.880   4.170 -0.8538  1.3543 -1.3485
  191SAPI   C1221967   3.043   6.369   2.128 -0.0166 -0.1199  0.1318
  191SAPI    H221968   3.149   6.397   2.150 -0.6495  2.2847  0.3869
  191SAPI    O221969   3.006   6.412   1.996 -0.1423  0.4525  0.4644
  191SAPI   HO221970   2.985   6.506   1.998 -0.9462  0.2980  0.0386
  191SAPI   C1321971   3.042   6.218   2.140  0.8446 -0.4822  0.5900
  191SAPI    H321972   3.080   6.184   2.238  1.4277  4.5654  2.3955
  191SAPI    O321973   3.137   6.168   2.047 -0.2246 -0.4016  0.5609
  191SAPI   HO321974   3.184   6.090   2.078  0.8989 -0.2499 -0.6689
  191SAPI   C1421975   2.897   6.167   2.116 -0.6597  0.1302  0.1014
  191SAPI    H421976   2.858   6.198   2.017 -1.1965 -0.7223  0.0343
  191SAPI    O421977   2.897   6.026   2.121 -0.1556  0.4121 -0.1803
  191SAPI   HO421978   2.918   5.999   2.031  1.1283  1.8377 -0.3463
  191SAPI   C1521979   2.792   6.228   2.206  0.3923  0.3803 -0.6765
  191SAPI    H521980   2.803   6.176   2.303  0.6497  2.7847  0.6542
  191SAPI    O521981   2.661   6.199   2.166  1.1087 -0.1728  0.6873
  191SAPI   HO521982   2.640   6.255   2.091  0.4517  2.4466  2.6359
  191SAPI   C1621983   2.814   6.375   2.231 -0.2048  0.0589  0.5763
  191SAPI    H621984   2.772   6.417   2.138  0.2894 -2.1274 -0.7022
  191SAPI    O621985   2.745   6.418   2.348 -0.2337 -0.0803 -0.4693
  191SAPI   HO621986   2.770   6.510   2.361  3.5575 -0.7528 -1.7296
  191SAPI   C1121987   2.960   6.428   2.237 -0.2696 -0.1473 -0.8298
  191SAPI    H121988   3.005   6.395   2.333 -0.1810  1.1413 -0.4123
  191SAPI     P21989   3.104   6.665   2.283  0.0834  0.4540  0.2583
  191SAPI   O1321990   3.053   6.805   2.284  0.1701 -0.0348 -0.4448
  191SAPI   O1421991   3.223   6.654   2.196 -0.4141  0.4533 -0.0805
  191SAPI   O1221992   2.973   6.571   2.235  0.0030  0.0500  0.0324
  191SAPI   O1121993   3.141   6.616   2.424  0.0089  0.0977  0.1080
  191SAPI    C121994   3.262   6.537   2.442 -0.6974  0.9798  0.3278
  191SAPI    HA21995   3.251   6.438   2.394  1.7907  1.1568 -0.7504
  191SAPI    HB21996   3.353   6.588   2.404 -0.2927 -0.6237 -0.9412
  191SAPI    C221997   3.293   6.515   2.593  0.0011 -0.3232  0.1683
  191SAPI    HS21998   3.368   6.437   2.616 -1.3911 -1.6558  0.3601
  191SAPI   O2121999   3.174   6.468   2.649 -0.3865  0.2234 -0.3090
  191SAPI   C2122000   3.149   6.337   2.638  0.0104 -0.1642  0.2293
  191SAPI   O2222001   3.221   6.259   2.582 -0.1588  0.1733  0.3547
  191SAPI   C2222002   3.017   6.315   2.706  0.1907 -0.2688  0.0339
  191SAPI   H2R22003   3.022   6.345   2.813  0.6306 -0.6444  0.1204
  191SAPI   H2S22004   2.932   6.368   2.657 -2.2989 -3.4466  0.6442
  191SAPI    C322005   3.324   6.650   2.663 -0.4017  0.7455  0.0973
  191SAPI    HX22006   3.240   6.723   2.666 -0.5615  0.5601  2.9776
  191SAPI    HY22007   3.408   6.695   2.605  0.5074  0.4196  1.1156
  191SAPI   O3122008   3.372   6.636   2.796  0.3459 -0.4642  0.4976
  191SAPI   C3122009   3.383   6.747   2.857 -0.2757 -0.0165 -1.1132
  191SAPI   O3222010   3.387   6.857   2.805  0.0024 -0.1517  0.0777
  191SAPI   C3222011   3.378   6.722   3.007  0.0325 -0.1784 -1.3217
  191SAPI   H2X22012   3.329   6.816   3.042 -0.6952  0.2547 -3.3432
  191SAPI   H2Y22013   3.483   6.720   3.041 -0.2706 -2.1741 -0.3779
  191SAPI   C2322014   2.975   6.166   2.696  0.1791  0.3162  0.0713
  191SAPI   H3R22015   3.053   6.099   2.738 -0.3390 -0.0577  0.4502
  191SAPI   H3S22016   2.960   6.125   2.594  2.3516 -1.9797  0.5862
  191SAPI   C2422017   2.836   6.145   2.772 -0.6706  0.8890  0.2602
  191SAPI   H4R22018   2.768   6.220   2.725 -3.3303 -2.3384 -1.5271
  191SAPI   H4S22019   2.846   6.176   2.878 -0.8492 -0.0238  0.5544
  191SAPI   C2522020   2.778   6.009   2.745  0.1405 -0.3494  0.6156
  191SAPI   H5R22021   2.762   6.004   2.637  3.9873  1.6435 -0.2264
  191SAPI   C2622022   2.726   5.917   2.823  0.5107  0.4308  0.5571
  191SAPI   H6R22023   2.697   5.823   2.774  0.2282  0.5547  0.4861
  191SAPI   C2722024   2.716   5.905   2.970  0.2393  0.1335 -0.5611
  191SAPI   H7R22025   2.636   5.829   2.983 -0.2646  0.6702 -0.4907
  191SAPI   H7S22026   2.674   5.997   3.017  0.2906 -1.1915  2.3091
  191SAPI   C2822027   2.841   5.867   3.051 -1.0744  0.1983  0.1129
  191SAPI   H8R22028   2.938   5.895   3.007 -1.8878  0.5163 -1.5673
  191SAPI   C2922029   2.846   5.806   3.163  0.1303 -0.3108  0.5837
  191SAPI   H9R22030   2.947   5.784   3.199 -0.2105  0.7647  2.3274
  191SAPI  C21022031   2.726   5.763   3.246 -0.1240 -0.6191 -0.2285
  191SAPI  H10R22032   2.741   5.667   3.298 -1.0616  0.2442  1.7310
  191SAPI  H10S22033   2.641   5.751   3.176 -0.1956  0.0362 -0.2669
  191SAPI  C21122034   2.693   5.874   3.342 -0.0816 -0.6561 -1.2250
  191SAPI  H11R22035   2.619   5.953   3.319  0.7492  0.1197 -1.2979
  191SAPI  C21222036   2.718   5.862   3.474 -0.7192 -0.3086 -0.2893
  191SAPI  H12R22037   2.680   5.942   3.538  1.0458  1.0015 -0.7997
  191SAPI  C21322038   2.791   5.758   3.552  0.5185 -0.1487 -0.7327
  191SAPI  H13R22039   2.864   5.707   3.486 -1.2227 -0.7645 -2.2663
  191SAPI  H13S22040   2.719   5.680   3.586 -2.5301  2.5987 -0.4362
  191SAPI  C21422041   2.860   5.806   3.679  0.5793  1.4504 -0.2247
  191SAPI  H14R22042   2.967   5.827   3.663  0.9207 -0.3907 -0.5294
  191SAPI  C21522043   2.810   5.827   3.808 -0.2054  0.3195 -0.2410
  191SAPI  H15R22044   2.881   5.855   3.887  0.7720 -0.3596 -0.8612
  191SAPI  C21622045   2.670   5.804   3.855  0.7305  0.4138  0.3005
  191SAPI  H16R22046   2.605   5.773   3.770  2.7738 -1.3675 -0.7206
  191SAPI  H16S22047   2.623   5.894   3.900 -0.3220  0.4370 -0.8025
  191SAPI  C21722048   2.649   5.686   3.952  0.1276  0.0381 -0.4224
  191SAPI  H17R22049   2.684   5.592   3.906  0.0094  0.8835 -2.3335
  191SAPI  H17S22050   2.538   5.680   3.959 -0.0489 -0.6557 -2.9776
  191SAPI  C21822051   2.695   5.719   4.097  0.7545  0.3493  0.5410
  191SAPI  H18R22052   2.634   5.805   4.133 -0.4051 -0.2581  0.0982
  191SAPI  H18S22053   2.802   5.746   4.093  1.0456 -0.9711 -2.3223
  191SAPI  C21922054   2.684   5.603   4.202  0.4219 -0.4192 -0.1070
  191SAPI  H19R22055   2.576   5.574   4.203  1.1401 -3.3591  1.4933
  191SAPI  H19S22056   2.717   5.624   4.306  2.4751 -2.9864 -0.1464
  191SAPI  C22022057   2.756   5.481   4.154  0.0348  0.2329 -0.4216
  191SAPI  H20R22058   2.713   5.441   4.060 -1.1654 -1.3778  0.7429
  191SAPI  H20S22059   2.754   5.395   4.225 -1.9761 -0.8666 -1.7140
  191SAPI  H20T22060   2.863   5.501   4.131  0.0390  0.1568 -0.4712
  191SAPI   C3322061   3.309   6.599   3.066  0.5021  0.2456  0.3545
  191SAPI   H3X22062   3.362   6.507   3.032  1.4566  0.9397 -0.0614
  191SAPI   H3Y22063   3.206   6.582   3.028 -0.2947  2.9820  1.0595
  191SAPI   C3422064   3.306   6.612   3.215  0.1941  0.0386  0.4464
  191SAPI   H4X22065   3.217   6.677   3.234 -0.6279 -0.7636 -0.5237
  191SAPI   H4Y22066   3.395   6.659   3.261 -0.9972  0.2686  2.6413
  191SAPI   C3522067   3.291   6.478   3.293  0.1941  0.1455  0.7592
  191SAPI   H5X22068   3.382   6.415   3.281  0.3237  0.4209  0.2421
  191SAPI   H5Y22069   3.211   6.412   3.252  1.8649 -0.7979 -1.1511
  191SAPI   C3622070   3.288   6.504   3.443  1.2005  0.0483 -0.6902
  191SAPI   H6X22071   3.291   6.406   3.495  1.4466 -0.3509 -1.4347
  191SAPI   H6Y22072   3.184   6.536   3.464  0.3123 -3.0579  0.1923
  191SAPI   C3722073   3.393   6.588   3.506 -0.2390 -0.1307 -0.2719
  191SAPI   H7X22074   3.391   6.694   3.471 -2.3612 -0.2272 -0.5360
  191SAPI   H7Y22075   3.493   6.542   3.491  0.5136  1.0192  0.9727
  191SAPI   C3822076   3.371   6.599   3.657  0.6416  0.5171  0.8799
  191SAPI   H8X22077   3.262   6.601   3.678  0.2604  2.3453 -0.9034
  191SAPI   H8Y22078   3.403   6.696   3.702  0.0223  0.0949  2.2767
  191SAPI   C3922079   3.451   6.497   3.739  0.3836  0.0131  0.6495
  191SAPI   H9X22080   3.558   6.493   3.710  0.0939  0.7255 -0.6059
  191SAPI   H9Y22081   3.399   6.404   3.705 -0.8847  0.7790  0.4199
  191SAPI  C31022082   3.455   6.511   3.896  0.0897  0.1499  0.8140
  191SAPI  H10X22083   3.354   6.509   3.944  0.4530 -0.5335  1.5687
  191SAPI  H10Y22084   3.510   6.605   3.918 -0.8153  0.9804 -0.3747
  191SAPI  C31122085   3.535   6.384   3.940  0.7654  0.0833 -0.2423
  191SAPI  H11X22086   3.639   6.389   3.903  0.4040 -0.5355 -1.3804
  191SAPI  H11Y22087   3.492   6.288   3.904  1.4127 -0.8623  1.3891
  191SAPI  C31222088   3.541   6.378   4.093 -0.2582 -0.8330  0.7463
  191SAPI  H12X22089   3.443   6.358   4.140  0.5311 -0.4094  2.6932
  191SAPI  H12Y22090   3.576   6.476   4.132  2.3375 -0.4032 -2.2299
  191SAPI  C31322091   3.616   6.261   4.150 -0.1691  0.0376 -0.1124
  191SAPI  H13X22092   3.723   6.279   4.124 -0.4398  2.5721  0.2805
  191SAPI  H13Y22093   3.578   6.167   4.104 -0.7210  0.6914 -1.0387
  191SAPI  C31422094   3.605   6.250   4.307  0.0662  0.0944 -0.2621
  191SAPI  H14X22095   3.499   6.228   4.332  0.1880  1.0410  1.2197
  191SAPI  H14Y22096   3.618   6.353   4.347 -0.8472  0.2568 -0.3720
  191SAPI  C31522097   3.704   6.157   4.374 -0.2053 -0.5330 -0.4128
  191SAPI  H15X22098   3.802   6.148   4.324 -0.2283  0.2890 -0.6124
  191SAPI  H15Y22099   3.657   6.056   4.377 -0.3943 -0.4306  1.5481
  191SAPI  C31622100   3.737   6.195   4.520 -0.1450  0.0362 -0.6648
  191SAPI  H16X22101   3.641   6.184   4.575  0.4994  1.0710  0.7136
  191SAPI  H16Y22102   3.773   6.300   4.515 -0.1340  0.0062 -1.3668
  191SAPI  C31722103   3.842   6.103   4.570  0.7850 -0.5721  0.1434
  191SAPI  H17X22104   3.933   6.099   4.507  0.9543  0.2391  0.3242
  191SAPI  H17Y22105   3.799   6.000   4.566 -2.7963  0.8033 -0.3313
  191SAPI  C31822106   3.900   6.127   4.716  0.6996  0.2769  0.2906
  191SAPI  H18X22107   3.823   6.134   4.795  0.6657  3.6759  0.1231
  191SAPI  H18Y22108   3.943   6.230   4.722 -0.9325  0.8846  4.3219
  191SAPI  H18Z22109   3.983   6.057   4.736  2.0559  2.1604  1.6063
  192SAPI   C1222110   0.878   1.773   2.391 -0.0955 -0.0964 -0.1568
  192SAPI    H222111   0.952   1.692   2.407  1.3833  1.1426 -0.4454
  192SAPI    O222112   0.807   1.757   2.273  0.5472  0.2097  0.4833
  192SAPI   HO222113   0.869   1.717   2.212 -0.1581 -2.1530  1.1859
  192SAPI   C1322114   0.783   1.779   2.508  0.5042  0.1400 -0.3472
  192SAPI    H322115   0.846   1.803   2.597  1.1442 -0.7733 -0.5420
  192SAPI    O322116   0.733   1.644   2.531  0.6528 -0.5641  0.2585
  192SAPI   HO322117   0.660   1.636   2.470 -0.7639 -0.1891  1.8294
  192SAPI   C1422118   0.665   1.866   2.479 -0.9755 -0.6014 -0.4986
  192SAPI    H422119   0.614   1.836   2.385  0.0202 -1.4187 -0.7918
  192SAPI    O422120   0.566   1.860   2.583 -0.4614 -0.0777  0.1386
  192SAPI   HO422121   0.488   1.902   2.546 -0.2095  2.1919  1.9060
  192SAPI   C1522122   0.715   2.014   2.451 -0.0695  0.5566  0.9879
  192SAPI    H522123   0.731   2.063   2.549 -0.0127  1.6262  0.4594
  192SAPI    O522124   0.609   2.086   2.385  0.0381 -0.0536 -0.3635
  192SAPI   HO522125   0.617   2.172   2.426 -1.2652  0.1046 -0.3974
  192SAPI   C1622126   0.855   2.034   2.379  0.4517 -0.7280 -0.2063
  192SAPI    H622127   0.827   2.045   2.272  1.5215  0.0456 -0.4121
  192SAPI    O622128   0.922   2.156   2.402 -0.1426  0.0343  0.2897
  192SAPI   HO622129   0.998   2.158   2.344  0.8871  0.9010  1.5978
  192SAPI   C1122130   0.952   1.904   2.386  0.1039  1.0451 -0.0809
  192SAPI    H122131   1.006   1.920   2.482  1.3247  0.8709 -0.7234
  192SAPI     P22132   1.196   1.957   2.274  0.3036  0.1429 -0.2076
  192SAPI   O1322133   1.246   1.931   2.135  0.5121 -0.1470 -0.7187
  192SAPI   O1422134   1.281   1.895   2.380 -0.1559 -0.0432  0.1184
  192SAPI   O1222135   1.041   1.902   2.279 -0.4585 -0.3911  0.8695
  192SAPI   O1122136   1.156   2.101   2.291 -0.0318 -0.0188  0.0801
  192SAPI    C122137   1.216   2.222   2.229  0.0336 -0.0184 -0.2336
  192SAPI    HA22138   1.271   2.200   2.134 -0.0566  1.9026 -0.7650
  192SAPI    HB22139   1.132   2.292   2.210  0.7489  0.8886 -0.1124
  192SAPI    C222140   1.313   2.281   2.337 -0.1340 -0.0516 -0.0640
  192SAPI    HS22141   1.390   2.202   2.352  0.8606  0.8283 -0.4125
  192SAPI   O2122142   1.235   2.320   2.448  0.0128 -0.5259 -0.3562
  192SAPI   C2122143   1.262   2.264   2.557  0.3312 -0.1420 -0.1217
  192SAPI   O2222144   1.357   2.192   2.584 -0.0376 -0.3678  0.7762
  192SAPI   C2222145   1.164   2.305   2.664  0.5238 -0.0636 -0.2168
  192SAPI   H2R22146   1.214   2.372   2.737  0.0781 -0.8328  0.8444
  192SAPI   H2S22147   1.072   2.347   2.618 -1.3236 -0.2685  2.9684
  192SAPI    C322148   1.393   2.400   2.276  0.5735  0.0379 -0.4409
  192SAPI    HX22149   1.319   2.468   2.228 -0.6681 -0.2901  0.9174
  192SAPI    HY22150   1.454   2.356   2.195  2.3807  0.7385  0.4836
  192SAPI   O3122151   1.471   2.467   2.377 -0.0118 -0.1273  0.4503
  192SAPI   C3122152   1.566   2.400   2.426  0.4135 -0.3875 -0.7660
  192SAPI   O3222153   1.613   2.295   2.386  0.5967 -0.1863 -0.3488
  192SAPI   C3222154   1.630   2.479   2.544  0.0701 -0.2453 -0.0080
  192SAPI   H2X22155   1.650   2.580   2.503  1.4014 -1.1068 -1.5872
  192SAPI   H2Y22156   1.726   2.427   2.562  0.5519  0.7547  0.3206
  192SAPI   C2322157   1.116   2.175   2.737  0.4325  0.4747 -0.1123
  192SAPI   H3R22158   1.205   2.108   2.735  1.8174  2.2129  0.4931
  192SAPI   H3S22159   1.042   2.116   2.679  0.8245  1.6670 -1.9284
  192SAPI   C2422160   1.083   2.203   2.882 -0.7385  1.3967  0.8973
  192SAPI   H4R22161   1.174   2.253   2.922  1.5128 -2.4420  1.0293
  192SAPI   H4S22162   1.077   2.106   2.935  0.2036  0.1321 -1.2065
  192SAPI   C2522163   0.955   2.285   2.899 -0.2128  0.0937  0.2123
  192SAPI   H5R22164   0.859   2.232   2.889 -0.9344  0.8758  2.3026
  192SAPI   C2622165   0.943   2.419   2.907 -0.2064 -0.0025  0.2693
  192SAPI   H6R22166   0.842   2.461   2.898  0.2116  0.5514 -2.6015
  192SAPI   C2722167   1.055   2.524   2.908 -0.3133 -0.7661  0.3385
  192SAPI   H7R22168   1.062   2.564   2.805 -0.1862 -0.4527  0.4679
  192SAPI   H7S22169   1.157   2.485   2.930 -0.7247 -0.7743  2.4578
  192SAPI   C2822170   1.031   2.647   2.996 -0.1050  0.3361  0.4910
  192SAPI   H8R22171   1.030   2.743   2.940  0.7981  0.1528  0.1553
  192SAPI   C2922172   1.015   2.654   3.128  0.4311  0.0365 -0.1581
  192SAPI   H9R22173   0.986   2.752   3.170  0.0901 -0.6262  1.2064
  192SAPI  C21022174   1.023   2.539   3.225 -0.5843 -0.0389  0.0179
  192SAPI  H10R22175   1.008   2.442   3.174 -0.7283 -1.5136  2.7071
  192SAPI  H10S22176   0.929   2.550   3.283 -1.0262  1.5855 -0.9255
  192SAPI  C21122177   1.153   2.532   3.311  1.0397 -0.8188  0.0282
  192SAPI  H11R22178   1.244   2.554   3.252 -0.3549  1.3520 -1.4760
  192SAPI  C21222179   1.159   2.486   3.436 -0.0589 -0.2942  0.0722
  192SAPI  H12R22180   1.257   2.474   3.485  0.4481  0.5230 -0.7171
  192SAPI  C21322181   1.043   2.457   3.528 -0.0915  0.1214 -0.1833
  192SAPI  H13R22182   0.944   2.483   3.485  1.1737  1.9393 -2.1851
  192SAPI  H13S22183   1.065   2.526   3.613 -2.2790  1.4400 -0.6175
  192SAPI  C21422184   1.046   2.316   3.548 -0.3384 -0.3444  0.6536
  192SAPI  H14R22185   1.067   2.252   3.462 -1.7909  0.3037 -0.2197
  192SAPI  C21522186   1.045   2.255   3.662 -0.1787  0.4818 -0.4127
  192SAPI  H15R22187   1.058   2.146   3.668  1.7266  0.4954 -2.9975
  192SAPI  C21622188   1.018   2.309   3.802  0.3070  0.8256  0.5095
  192SAPI  H16R22189   1.018   2.420   3.791  1.8394  0.5915 -3.4884
  192SAPI  H16S22190   1.089   2.270   3.877  0.8883 -2.0396 -1.3695
  192SAPI  C21722191   0.878   2.262   3.849  0.3707 -0.0191 -0.6863
  192SAPI  H17R22192   0.875   2.151   3.839 -0.1359  0.0870 -1.9897
  192SAPI  H17S22193   0.806   2.315   3.783  0.4971  0.7457 -0.2197
  192SAPI  C21822194   0.850   2.306   3.990  0.2786  0.5070 -0.5150
  192SAPI  H18R22195   0.843   2.417   3.996 -1.6043  0.3674  0.4207
  192SAPI  H18S22196   0.939   2.277   4.050  0.2850 -0.0714 -0.8007
  192SAPI  C21922197   0.719   2.256   4.045  0.1225 -0.1511 -0.2492
  192SAPI  H19R22198   0.703   2.146   4.046  0.1824 -0.1574  0.3316
  192SAPI  H19S22199   0.637   2.303   3.986 -0.4976  0.0807  0.7694
  192SAPI  C22022200   0.680   2.309   4.189 -0.0226  0.2000  0.3329
  192SAPI  H20R22201   0.706   2.235   4.268  0.3415  0.9765  0.9644
  192SAPI  H20S22202   0.569   2.303   4.189  0.0630 -2.1930 -0.7195
  192SAPI  H20T22203   0.717   2.412   4.212 -0.1519  0.4917 -0.7432
  192SAPI   C3322204   1.539   2.467   2.669  0.2672  0.4678  0.0608
  192SAPI   H3X22205   1.554   2.362   2.701 -1.2626 -0.0739 -0.9194
  192SAPI   H3Y22206   1.442   2.497   2.625 -1.1920 -3.7120  0.0058
  192SAPI   C3422207   1.569   2.566   2.783  0.0847 -0.3199 -0.4880
  192SAPI   H4X22208   1.567   2.669   2.740  1.7738  0.5338  1.2985
  192SAPI   H4Y22209   1.672   2.545   2.817 -0.2711 -1.0224  0.1798
  192SAPI   C3522210   1.484   2.544   2.911 -0.0659  0.0493 -0.0551
  192SAPI   H5X22211   1.382   2.568   2.873  0.1510  0.7351 -0.2210
  192SAPI   H5Y22212   1.514   2.617   2.990 -2.4271  0.7232  0.3039
  192SAPI   C3622213   1.484   2.399   2.966 -0.1456 -0.3976  0.1135
  192SAPI   H6X22214   1.591   2.368   2.961 -0.0178  0.1689 -1.0209
  192SAPI   H6Y22215   1.435   2.329   2.896 -0.1422 -0.8447  0.5549
  192SAPI   C3722216   1.422   2.384   3.095 -0.0607 -0.0559 -0.5459
  192SAPI   H7X22217   1.312   2.395   3.082 -0.0343 -1.4527 -2.3442
  192SAPI   H7Y22218   1.451   2.470   3.159 -0.1765 -0.0957 -0.4380
  192SAPI   C3822219   1.444   2.257   3.167 -0.2500 -0.5679 -0.1949
  192SAPI   H8X22220   1.552   2.242   3.193 -0.7292 -1.7855  1.2783
  192SAPI   H8Y22221   1.425   2.177   3.093  0.5707  0.6947 -1.8449
  192SAPI   C3922222   1.369   2.254   3.309  0.2513  0.9625  0.2878
  192SAPI   H9X22223   1.264   2.240   3.275  0.2963 -1.7631  1.0055
  192SAPI   H9Y22224   1.378   2.348   3.367 -0.2177  1.0123  0.2854
  192SAPI  C31022225   1.427   2.136   3.383  0.7225 -0.7154 -0.0054
  192SAPI  H10X22226   1.535   2.146   3.409  0.3159  0.0453  1.4846
  192SAPI  H10Y22227   1.423   2.040   3.328  1.2758 -1.9646  2.0212
  192SAPI  C31122228   1.362   2.121   3.527 -0.4514 -0.5344 -1.3135
  192SAPI  H11X22229   1.254   2.095   3.521  0.2593 -3.5557 -4.2388
  192SAPI  H11Y22230   1.375   2.216   3.583  0.0437 -1.7161  0.6577
  192SAPI  C31222231   1.417   1.991   3.602  0.1974 -1.1623  0.0667
  192SAPI  H12X22232   1.525   2.007   3.624  0.3189  0.0139 -1.1974
  192SAPI  H12Y22233   1.418   1.901   3.536  0.9702  0.8021 -2.8205
  192SAPI  C31322234   1.346   1.961   3.731 -0.4907  0.4463 -0.1340
  192SAPI  H13X22235   1.398   1.879   3.785 -0.4056  1.4118  1.2922
  192SAPI  H13Y22236   1.243   1.931   3.700 -0.0596 -0.0363 -1.1440
  192SAPI  C31422237   1.341   2.077   3.834 -0.3005  0.3048  0.8141
  192SAPI  H14X22238   1.275   2.156   3.792 -0.7836  0.6998  2.2600
  192SAPI  H14Y22239   1.441   2.124   3.847 -0.7661  2.0436 -1.2888
  192SAPI  C31522240   1.280   2.037   3.963 -0.0673 -0.0425  0.6461
  192SAPI  H15X22241   1.257   2.130   4.019 -0.7795 -0.1020  0.4649
  192SAPI  H15Y22242   1.346   1.975   4.026 -1.2551  3.2360  5.7016
  192SAPI  C31622243   1.142   1.967   3.946 -0.0846  0.2232  0.1989
  192SAPI  H16X22244   1.156   1.865   3.904 -3.2072 -0.8196  1.3986
  192SAPI  H16Y22245   1.070   2.016   3.877  0.0081  1.4361  0.9441
  192SAPI  C31722246   1.073   1.946   4.081 -0.0791  0.4343 -0.5865
  192SAPI  H17X22247   0.974   1.898   4.065  0.1077 -0.0490 -0.3380
  192SAPI  H17Y22248   1.061   2.045   4.129 -2.2150  1.0641 -2.2595
  192SAPI  C31822249   1.159   1.864   4.181 -0.0721  0.6893  0.1842
  192SAPI  H18X22250   1.261   1.908   4.186 -0.5877  2.1447 -1.1793
  192SAPI  H18Y22251   1.151   1.764   4.134 -1.9221  1.1182 -0.5209
  192SAPI  H18Z22252   1.102   1.851   4.276 -0.2566  0.1636  0.0041
  193SOD    SOD22253   1.006   0.314   2.043  0.0826  0.2967  0.4054
  194SOD    SOD22254   5.232   2.028   6.813 -0.0914  0.2397  0.0802
  195SOD    SOD22255   4.129   5.252   1.568  0.1726  0.2022  0.1644
  196SOD    SOD22256   6.449   4.322   7.078  0.1586 -0.4665 -0.1888
  197SOD    SOD22257   6.368   6.498   6.769 -0.4516  0.3649  0.1934
  198SOD    SOD22258   0.734   4.502   7.582 -0.0762 -0.4024 -0.0819
  199SOD    SOD22259   3.334   2.353   7.466  0.0404 -0.2366 -0.5419
  200SOD    SOD22260   6.281   4.386   1.310  0.1902  0.2072  0.0885
  201SOD    SOD22261   1.634   5.731   1.600 -0.1312 -0.2386  0.1744
  202SOD    SOD22262   1.325   4.019   7.455 -0.1454  0.3915 -0.1285
  203SOD    SOD22263   5.935   5.184   7.078 -0.2589  0.2563 -0.5937
  204SOD    SOD22264   6.295   3.860   7.909 -0.1270 -0.1487 -0.2479
  205SOD    SOD22265   3.236   5.039   0.731 -0.0058 -0.6558 -0.1206
  206SOD    SOD22266   4.316   5.505   7.363  0.7288  0.2554 -0.0076
  207SOD    SOD22267   6.467   5.905   1.727  0.0631 -0.3435  0.3136
  208SOD    SOD22268   3.919   1.545   6.136  0.1386 -0.5117 -0.2204
  209SOD    SOD22269   5.818   1.349   7.954  0.0814  0.0491 -0.1339
  210SOD    SOD22270   1.203   1.652   6.857  0.0952 -0.1275  0.3771
  211SOD    SOD22271   0.106   1.692   0.371  0.1089  0.2323 -0.0489
  212SOD    SOD22272   4.505   2.307   8.365  0.4018 -0.1083 -0.2161
  213SOD    SOD22273   2.207   5.333   1.857 -0.1869 -0.0050  0.3777
  214SOD    SOD22274   2.691   4.890   1.174 -0.0869  0.5512  1.2786
  215SOD    SOD22275   1.902   5.179   1.334  0.2717 -0.1712  0.0110
  216SOD    SOD22276   5.779   3.379   1.341  0.0347  0.0576 -0.0767
  217SOD    SOD22277   2.162   0.047   8.025  0.3265 -0.2199 -0.5866
  218SOD    SOD22278   3.135   0.243   7.082 -0.4058  0.3660  0.2786
  219SOD    SOD22279   4.180   6.179   1.118 -0.3537 -0.4669 -0.3066
  220SOD    SOD22280   4.241   1.247   1.981  0.3725  0.4313  0.4432
  221SOD    SOD22281   6.157   1.653   7.043 -0.5637 -0.2740 -0.1707
  222SOD    SOD22282   5.074   5.727   0.534  0.0881 -0.1807  0.0224
  223SOD    SOD22283   0.573   3.236   7.385  0.3142 -0.0982  0.2337
  224SOD    SOD22284   5.333   3.614   0.048 -0.2093 -0.3826  0.3020
  225SOD    SOD22285   2.517   5.279   0.795 -0.5223  0.6730  0.0003
  226SOD    SOD22286   3.469   4.613   8.195  0.2659 -0.8797 -0.1048
  227SOD    SOD22287   1.692   3.058   0.706 -0.0966  0.5904  0.2313
  228SOD    SOD22288   2.229   4.450   1.185  0.1346 -0.1563 -0.0496
  229SOD    SOD22289   1.952   0.396   2.163  0.0403 -0.1174  0.0224
  230SOD    SOD22290   2.918   0.511   0.185 -0.2735  0.2470  0.0005
  231SOD    SOD22291   6.618   3.504   7.665  0.0949 -0.1610  0.6580
  232SOD    SOD22292   5.434   6.190   1.834 -0.3686 -0.4848 -0.2108
  233SOD    SOD22293   4.160   1.857   7.013  0.3164 -0.1826 -0.4755
  234CLA    CLA22294   2.690   5.238   7.953 -0.0554 -0.4044 -0.6190
  235CLA    CLA22295   1.039   0.848   0.800 -0.0528 -0.0978 -0.0370
  236CLA    CLA22296   0.286   2.471   7.230 -0.1944 -0.0395 -0.3085
  237CLA    CLA22297   1.751   5.976   0.971 -0.2605 -0.1814  0.1070
  238CLA    CLA22298   2.191   3.029   1.100 -0.2481  0.0517 -0.4508
  239CLA    CLA22299   3.935   4.351   0.448 -0.0363 -0.4322 -0.1824
  240CLA    CLA22300   1.170   5.467   0.090  0.1857  0.2825 -0.5495
  241CLA    CLA22301   6.143   1.887   7.189 -0.2690  0.3355  0.4756
  242CLA    CLA22302   4.531   1.539   8.281 -0.2233 -0.0247 -0.2815
  243CLA    CLA22303   4.191   3.899   8.492 -0.1989 -0.1973 -0.3340
  244CLA    CLA22304   4.370   2.263   6.929  0.4795 -0.1539 -0.0596
  245CLA    CLA22305   2.380   1.398   8.302  0.0880 -0.5862 -0.1081
  246CLA    CLA22306   6.698   4.574   8.248 -0.2541  0.0975  0.0657
  247CLA    CLA22307   4.618   2.135   0.212  0.0011 -0.2602 -0.3680
  248CLA    CLA22308   4.407   6.551   0.066  0.2742 -0.0044 -0.1473
  249CLA    CLA22309   3.899   3.867   7.207 -0.3136 -0.2858 -0.0854
  250CLA    CLA22310   2.424   2.207   8.613 -0.1176  0.8270  0.2404
  251TIP3   OH222311   1.254   1.845   8.096 -0.5403  0.4081 -0.7029
  251TIP3    H122312   1.340   1.807   8.079 -1.0203 -0.4525 -1.2596
  251TIP3    H222313   1.191   1.780   8.064 -1.4012  1.1207 -0.5212
  252TIP3   OH222314   4.112   5.681   7.814 -0.6388  0.3360 -0.2497
  252TIP3    H122315   4.151   5.596   7.829  0.6994  0.7855 -1.0540
  252TIP3    H222316   4.044   5.688   7.881 -0.3838 -1.1047  0.1935
  253TIP3   OH222317   1.674   2.828   2.432 -0.2320 -0.4770 -0.0822
  253TIP3    H122318   1.713   2.877   2.360 -0.2866  0.7997  0.7346
  253TIP3    H222319   1.746   2.774   2.467  0.6264  1.2154  0.8684
  254TIP3   OH222320   6.609   1.005   1.170 -0.4924  0.2339  0.4917
  254TIP3    H122321   6.562   0.934   1.213  0.5013 -0.1088  1.0454
  254TIP3    H222322   6.633   0.969   1.084 -4.1231  1.5507 -1.2676
  255TIP3   OH222323   4.037   4.665   7.423 -0.2988  0.5449 -0.6818
  255TIP3    H122324   4.130   4.642   7.413 -0.4677 -0.2456 -0.5064
  255TIP3    H222325   3.990   4.585   7.399 -0.8774  0.1229  1.6586
  256TIP3   OH222326   5.884   5.121   0.523  0.0474  0.1212 -0.7477
  256TIP3    H122327   5.875   5.034   0.562 -4.0188  0.1380 -1.1546
  256TIP3    H222328   5.912   5.177   0.595 -1.2286 -0.9161  0.6248
  257TIP3   OH222329   6.168   1.874   6.555  0.1497 -0.1324  0.2821
  257TIP3    H122330   6.162   1.783   6.584 -0.4609  0.0116  0.6277
  257TIP3    H222331   6.109   1.879   6.479 -0.3892  0.1488  0.7174
  258TIP3   OH222332   1.753   0.654   6.830 -0.2710 -0.6872 -0.5285
  258TIP3    H122333   1.722   0.650   6.740 -1.9603  3.3143 -0.3311
  258TIP3    H222334   1.815   0.727   6.831 -0.1567 -0.7430  1.5054
  259TIP3   OH222335   6.815   2.665   1.394 -0.3937 -0.2249  0.4938
  259TIP3    H122336   6.800   2.570   1.393 -1.5939 -0.0550  0.5474
  259TIP3    H222337   6.826   2.688   1.302 -1.9774 -0.1668  0.2922
  260TIP3   OH222338   2.626   5.549   6.075 -0.0119  0.0452  0.1920
  260TIP3    H122339   2.538   5.583   6.094 -0.7449 -1.7486  0.2360
  260TIP3    H222340   2.637   5.563   5.981 -1.7659 -2.6466 -0.5191
  261TIP3   OH222341   1.157   2.510   0.190  0.3607  0.4353  0.4051
  261TIP3    H122342   1.233   2.473   0.236  0.3136  1.0983  1.0474
  261TIP3    H222343   1.092   2.523   0.259 -0.1472  0.3519 -0.0569
  262TIP3   OH222344   1.778   3.166   1.880 -0.3428  0.0957  0.0293
  262TIP3    H122345   1.769   3.252   1.920  0.3982  0.4230 -0.5057
  262TIP3    H222346   1.723   3.109   1.934 -0.3068  0.7656  0.7804
  263TIP3   OH222347   1.268   4.695   0.644 -0.3992 -0.1062  0.0377
  263TIP3    H122348   1.197   4.758   0.660 -0.3682  0.6893 -2.4870
  263TIP3    H222349   1.224   4.611   0.639 -1.0001  0.2215 -0.3250
  264TIP3   OH222350   5.347   5.325   7.903 -0.3223  0.0879  0.4259
  264TIP3    H122351   5.421   5.385   7.915  0.4420 -0.9188  0.8972
  264TIP3    H222352   5.323   5.335   7.811  0.4212  0.4085  0.2583
  265TIP3   OH222353   6.578   2.266   7.090  0.5066  0.3842 -0.1574
  265TIP3    H122354   6.501   2.321   7.074  1.0871  1.3457  0.3023
  265TIP3    H222355   6.611   2.295   7.176  0.8859 -0.6078  0.0438
  266TIP3   OH222356   6.429   3.045   7.870 -0.5525  0.5462 -0.3766
  266TIP3    H122357   6.512   3.042   7.823 -0.2285  2.2666  0.0120
  266TIP3    H222358   6.390   3.129   7.845 -1.0116  0.8848  1.3004
  267TIP3   OH222359   6.664   3.506   6.978  0.0984  0.0133  0.3145
  267TIP3    H122360   6.682   3.471   7.065  0.8533  1.1737  0.6468
  267TIP3    H222361   6.751   3.517   6.939 -0.1563  0.9904  0.0185
  268TIP3   OH222362   2.392   5.216   8.472  0.2245 -0.7254 -0.0326
  268TIP3    H122363   2.379   5.125   8.444 -3.1378 -0.2783 -0.2698
  268TIP3    H222364   2.434   5.258   8.397  1.0400 -1.8551 -0.2401
  269TIP3   OH222365   4.801   3.283   0.064 -0.1614  0.2465  0.1888
  269TIP3    H122366   4.790   3.188   0.063 -3.3258  0.4803  0.5167
  269TIP3    H222367   4.831   3.303   0.152 -0.1646 -0.4107  0.3438
  270TIP3   OH222368   5.043   5.906   0.375  0.6149  0.5602 -0.2072
  270TIP3    H122369   5.109   5.959   0.330  2.1640 -1.1253 -0.0342
  270TIP3    H222370   4.965   5.911   0.319  2.3987 -1.2944 -3.0625
  271TIP3   OH222371   4.992   3.609   6.344 -0.0344 -0.3349 -0.3992
  271TIP3    H122372   4.937   3.686   6.331 -1.5486 -1.5223 -1.2731
  271TIP3    H222373   5.034   3.594   6.259  0.8530 -0.0589 -0.0262
  272TIP3   OH222374   2.764   4.198   8.270  0.7960  0.2637 -0.1738
  272TIP3    H122375   2.695   4.136   8.293  0.1680  1.1128  0.2728
  272TIP3    H222376   2.845   4.146   8.272  0.2282 -0.6417 -0.2941
  273TIP3   OH222377   0.087   6.660   7.904 -0.3990  0.6118  0.1120
  273TIP3    H122378   0.015   6.667   7.967 -0.9695 -1.7094 -0.1826
  273TIP3    H222379   0.044   6.671   7.819 -0.7032 -1.7958 -0.1342
  274TIP3   OH222380   1.141   5.459   0.721 -0.3519  0.5406  0.2895
  274TIP3    H122381   1.229   5.430   0.746 -1.4563 -1.2935  2.3448
  274TIP3    H222382   1.102   5.383   0.678 -0.7041  1.6252 -1.4351
  275TIP3   OH222383   5.844   1.705   0.341 -0.3075 -0.1692  0.0575
  275TIP3    H122384   5.858   1.639   0.408  1.0127  0.6786  0.6451
  275TIP3    H222385   5.929   1.716   0.299 -0.1030  2.2028  0.9719
  276TIP3   OH222386   6.364   2.890   0.884  0.0587 -0.8257 -0.6052
  276TIP3    H122387   6.405   2.868   0.968  0.4556 -1.2905 -0.9169
  276TIP3    H222388   6.271   2.897   0.904  0.2322 -0.2154  0.0205
  277TIP3   OH222389   4.723   0.030   8.514 -0.0999  0.4589  0.2357
  277TIP3    H122390   4.693  -0.040   8.573 -1.3790 -0.5303 -1.4938
  277TIP3    H222391   4.818   0.030   8.522 -0.0635 -1.5274  0.2662
  278TIP3   OH222392   0.378   4.569   0.603  0.5661  0.1327 -0.1913
  278TIP3    H122393   0.428   4.645   0.632  0.6593  0.5834 -1.4956
  278TIP3    H222394   0.313   4.604   0.542 -1.3680 -0.4343  1.4390
  279TIP3   OH222395   1.076   3.982   6.747 -0.0910  0.2844 -0.3728
  279TIP3    H122396   0.993   4.023   6.721  1.7229  3.1794 -2.2104
  279TIP3    H222397   1.089   3.912   6.683 -0.1715  1.1866 -1.4131
  280TIP3   OH222398   0.548   5.126   8.506  0.2086  0.0525 -0.0535
  280TIP3    H122399   0.505   5.186   8.446 -0.7512 -0.6658 -0.1137
  280TIP3    H222400   0.642   5.136   8.488 -0.0718 -0.3603 -1.8797
  281TIP3   OH222401   0.612   4.946   7.307 -0.4415 -0.0591 -0.2026
  281TIP3    H122402   0.698   4.914   7.280 -1.2694 -3.1940  0.4935
  281TIP3    H222403   0.571   4.974   7.225 -0.1708 -2.3768 -1.2197
  282TIP3   OH222404   0.431   1.931   0.272  0.5946 -0.5636  0.0525
  282TIP3    H122405   0.416   1.915   0.179 -0.3222  0.6429 -0.0391
  282TIP3    H222406   0.424   2.026   0.282 -1.8790 -0.8052  1.7129
  283TIP3   OH222407   6.134   5.786   7.024 -0.1746  0.4517 -0.0168
  283TIP3    H122408   6.134   5.763   6.931 -0.1561 -2.1030  0.5330
  283TIP3    H222409   6.064   5.850   7.032 -0.7183  0.1366 -1.6733
  284TIP3   OH222410   2.614   6.859   0.575 -0.2186 -0.4104  0.3022
  284TIP3    H122411   2.598   6.943   0.617 -0.5612 -1.4858  2.4503
  284TIP3    H222412   2.596   6.794   0.643  1.3594 -2.1842 -0.8766
  285TIP3   OH222413   0.315   5.458   7.190  0.1703 -0.1247 -0.4791
  285TIP3    H122414   0.378   5.387   7.184  0.1211 -0.3211  1.0456
  285TIP3    H222415   0.282   5.454   7.280  0.6498  2.2239 -0.1266
  286TIP3   OH222416   1.753   3.569   7.414 -0.6219 -0.0937 -0.3744
  286TIP3    H122417   1.709   3.654   7.421 -0.5200 -0.0800  0.1512
  286TIP3    H222418   1.684   3.505   7.428 -0.9169 -0.1338 -1.8953
  287TIP3   OH222419   2.431   4.520   1.096  0.2322  0.1362  0.1039
  287TIP3    H122420   2.423   4.539   1.002 -0.3009  0.7096  0.2579
  287TIP3    H222421   2.521   4.489   1.106  1.0474  2.1810 -0.2666
  288TIP3   OH222422   6.350   2.111   8.108  0.1357 -0.6855  0.1662
  288TIP3    H122423   6.445   2.117   8.096  0.0032  0.2673 -0.4950
  288TIP3    H222424   6.313   2.144   8.026 -0.7858  0.7013  1.1085
  289TIP3   OH222425   6.224   4.272   8.088  0.4583  0.1173 -0.3622
  289TIP3    H122426   6.278   4.309   8.159  0.4225  0.1603 -0.3574
  289TIP3    H222427   6.264   4.188   8.069  0.5628  0.1750 -0.3979
  290TIP3   OH222428   0.700   3.494   2.148 -0.3610 -0.2688  0.7229
  290TIP3    H122429   0.739   3.547   2.218 -0.3048 -0.4900  0.8605
  290TIP3    H222430   0.694   3.406   2.185  1.5929 -0.8826 -0.2355
  291TIP3   OH222431   3.901   2.938   1.179  0.3903  0.0733  0.2460
  291TIP3    H122432   3.904   2.846   1.153  0.7394  0.0938  0.2034
  291TIP3    H222433   3.903   2.936   1.275 -0.2504  0.0177  0.2594
  292TIP3   OH222434   5.270   0.014   6.464 -0.9843  0.3331  0.4803
  292TIP3    H122435   5.358   0.025   6.430 -1.4158 -1.9911 -1.6156
  292TIP3    H222436   5.236  -0.064   6.420 -3.0297 -0.6299  3.4640
  293TIP3   OH222437   5.831   2.169   1.695  0.0228  0.3974  0.6933
  293TIP3    H122438   5.796   2.091   1.738  1.0272 -1.4837 -1.7077
  293TIP3    H222439   5.925   2.152   1.689  0.4740  2.4363  1.2689
  294TIP3   OH222440   6.610   2.137   8.080 -0.2194 -0.2993 -0.4051
  294TIP3    H122441   6.656   2.128   7.997 -1.3319  0.5743 -1.1649
  294TIP3    H222442   6.662   2.199   8.130  1.4120 -2.1637  0.3108
  295TIP3   OH222443   5.666   0.093   2.723  0.1375  0.1662 -0.3516
  295TIP3    H122444   5.625   0.173   2.689 -0.3681  0.3194  0.5986
  295TIP3    H222445   5.595   0.028   2.723 -0.3009  0.5673  1.7823
  296TIP3   OH222446   5.104   5.721   6.282  0.0352  0.3081  0.1687
  296TIP3    H122447   5.036   5.778   6.246 -0.5483 -1.0359 -0.9809
  296TIP3    H222448   5.060   5.636   6.293  0.9456 -0.0101  1.5484
  297TIP3   OH222449   6.355   0.052   8.415 -0.1302  0.4286  0.0191
  297TIP3    H122450   6.428  -0.003   8.386  0.1133 -0.8330  2.6506
  297TIP3    H222451   6.324   0.095   8.336  0.9890 -1.9428 -1.8532
  298TIP3   OH222452   3.762   1.466   8.428 -0.0126 -0.0552 -0.5482
  298TIP3    H122453   3.850   1.474   8.391 -0.5003  0.1166 -1.7380
  298TIP3    H222454   3.762   1.382   8.472  0.5000 -0.4509 -1.2730
  299TIP3   OH222455   4.742   3.995   1.114 -0.3232  0.2496  0.3829
  299TIP3    H122456   4.752   3.940   1.036  2.5386  1.7434 -0.4409
  299TIP3    H222457   4.827   3.990   1.157 -1.1560  1.2190  2.2219
  300TIP3   OH222458   0.836   5.478   6.369  0.3680  0.0236 -0.3817
  300TIP3    H122459   0.876   5.402   6.328  1.1113  0.2152 -0.0414
  300TIP3    H222460   0.850   5.464   6.463 -1.4239 -0.4773 -0.1665
  301TIP3   OH222461   0.990   0.094   0.812 -0.5777  0.0618 -0.8841
  301TIP3    H122462   0.990   0.025   0.746  1.2332 -0.1996 -0.6451
  301TIP3    H222463   0.897   0.109   0.830 -1.0527 -1.1349 -2.1448
  302TIP3   OH222464   4.156   1.724   0.584 -0.0449  0.1766 -0.1472
  302TIP3    H122465   4.251   1.725   0.581 -0.0570  2.1302 -1.7769
  302TIP3    H222466   4.129   1.704   0.495 -1.1884 -0.1071  0.2376
  303TIP3   OH222467   3.480   0.899   0.803  0.3175  0.0488 -0.0784
  303TIP3    H122468   3.395   0.909   0.845  0.6861  0.8879  0.4924
  303TIP3    H222469   3.474   0.817   0.755 -0.8545  0.1554 -0.1370
  304TIP3   OH222470   0.707   3.847   1.747  0.3857  0.1498  0.6758
  304TIP3    H122471   0.666   3.792   1.814  2.1665 -0.6331  1.1812
  304TIP3    H222472   0.795   3.865   1.781  0.6469  1.3744 -0.5668
  305TIP3   OH222473   5.050   1.959   7.560  0.4350 -1.2821  0.6009
  305TIP3    H122474   5.004   1.903   7.497 -0.0630 -0.2147 -0.0214
  305TIP3    H222475   5.143   1.946   7.540  0.2919  0.8808 -2.1508
  306TIP3   OH222476   6.722   4.280   1.121 -0.0156  0.7578  0.3302
  306TIP3    H122477   6.799   4.303   1.174  0.8028 -1.5362  0.2729
  306TIP3    H222478   6.755   4.278   1.031 -0.3128  0.4916  0.2262
  307TIP3   OH222479   6.598   6.164   6.536  0.1500 -0.3511  0.1035
  307TIP3    H122480   6.685   6.144   6.569  0.5714 -2.2421 -1.8891
  307TIP3    H222481   6.571   6.085   6.489 -1.5664  1.0756 -1.4828
  308TIP3   OH222482   0.759   0.033   8.020 -0.2366  0.1192 -0.5320
  308TIP3    H122483   0.756  -0.018   7.939  1.2344 -0.2774 -0.3687
  308TIP3    H222484   0.685   0.002   8.071  0.0648 -1.1640 -0.8457
  309TIP3   OH222485   1.842   1.799   1.675 -0.1786 -0.6487  0.3995
  309TIP3    H122486   1.882   1.801   1.588  2.4458  1.3170  1.5195
  309TIP3    H222487   1.865   1.713   1.710  2.4507  0.0668  0.6319
  310TIP3   OH222488   3.281   2.044   1.686 -0.4883 -0.1133  0.0515
  310TIP3    H122489   3.281   2.136   1.657  1.4333  0.1030  0.6153
  310TIP3    H222490   3.358   2.006   1.646 -1.3202 -1.5461 -0.2535
  311TIP3   OH222491   2.968   0.236   7.251 -0.0102  0.1537 -0.1305
  311TIP3    H122492   2.987   0.241   7.344  0.7818 -1.7214 -0.1526
  311TIP3    H222493   2.877   0.205   7.247 -0.6953  2.0282 -0.0230
  312TIP3   OH222494   2.643   5.267   8.637  0.3577 -0.0972  0.3049
  312TIP3    H122495   2.569   5.238   8.584 -0.0986 -0.5239  1.1541
  312TIP3    H222496   2.686   5.334   8.584 -1.1020  0.7432  0.1145
  313TIP3   OH222497   3.658   5.342   6.643 -0.0499 -0.1851 -0.3177
  313TIP3    H122498   3.619   5.259   6.617  0.9821 -0.8747  0.2493
  313TIP3    H222499   3.747   5.319   6.672 -0.3157  0.8576  1.4904
  314TIP3   OH222500   5.761   2.657   6.942  0.0469 -0.5573  0.4736
  314TIP3    H122501   5.808   2.735   6.913 -0.4205 -1.1223 -2.0287
  314TIP3    H222502   5.831   2.595   6.965  0.4226  0.3796  1.9444
  315TIP3   OH222503   4.413   2.273   0.684  0.5299  0.1951 -0.1046
  315TIP3    H122504   4.351   2.227   0.740 -1.2665  1.1726 -1.1683
  315TIP3    H222505   4.358   2.316   0.618  2.2442  2.1875 -0.3503
  316TIP3   OH222506   1.608   1.083   0.142  0.0131 -0.0173  0.2125
  316TIP3    H122507   1.692   1.124   0.126  0.4906 -0.6422  1.0330
  316TIP3    H222508   1.596   1.089   0.237 -0.0169 -1.5497  0.3251
  317TIP3   OH222509   1.044   2.062   8.551 -0.1756 -0.1574  0.1232
  317TIP3    H122510   1.029   1.983   8.499 -1.9689  0.0113  0.3504
  317TIP3    H222511   1.004   2.132   8.500  0.1922  0.4029  0.5944
  318TIP3   OH222512   4.683   0.096   2.036 -0.5005  0.3292 -0.2693
  318TIP3    H122513   4.593   0.117   2.062 -0.2913 -0.3641  1.1586
  318TIP3    H222514   4.719   0.049   2.112  0.8308 -0.0574 -1.1030
  319TIP3   OH222515   5.726   1.426   6.133  0.4066 -0.0763  0.3065
  319TIP3    H122516   5.741   1.467   6.219  1.7466 -0.3202  0.1986
  319TIP3    H222517   5.812   1.423   6.092 -0.3323  0.8043 -1.4166
  320TIP3   OH222518   5.509   4.907   6.689  0.7614  1.1304 -0.1079
  320TIP3    H122519   5.567   4.834   6.709  0.3173  1.1210  1.2223
  320TIP3    H222520   5.424   4.866   6.671  1.1797  1.1149 -2.3723
  321TIP3   OH222521   3.541   5.787   1.301  0.2542 -0.2033  0.2476
  321TIP3    H122522   3.451   5.774   1.274 -0.2961  2.7615  0.3275
  321TIP3    H222523   3.535   5.826   1.388  1.4597  1.8643 -0.5117
  322TIP3   OH222524   1.156   1.173   1.645 -0.0441  0.1215 -0.2898
  322TIP3    H122525   1.211   1.181   1.567 -0.9836 -1.0279 -1.1017
  322TIP3    H222526   1.072   1.141   1.612 -0.7797  0.5847  1.0814
  323TIP3   OH222527   4.009   0.167   8.033  0.2022  0.1319 -0.7451
  323TIP3    H122528   4.018   0.236   8.099 -2.3846  1.0329 -1.2248
  323TIP3    H222529   4.066   0.097   8.064  0.6304  1.3146  1.3531
  324TIP3   OH222530   4.481   2.935   0.442  0.2435  0.8286 -0.1709
  324TIP3    H122531   4.520   2.848   0.456  2.6459  1.6674 -1.0731
  324TIP3    H222532   4.525   2.991   0.505 -1.1514  1.4736  0.2669
  325TIP3   OH222533   2.786   6.148   8.300 -0.5055 -0.6292  0.3861
  325TIP3    H122534   2.779   6.193   8.384  0.4334 -0.9923  0.6625
  325TIP3    H222535   2.862   6.091   8.309  0.4435  0.3228 -1.1671
  326TIP3   OH222536   1.479   3.429   7.332 -0.3029  0.0225 -0.5631
  326TIP3    H122537   1.396   3.397   7.297 -0.8323  0.0611  0.5950
  326TIP3    H222538   1.546   3.383   7.281 -0.9901  0.9586 -2.4040
  327TIP3   OH222539   6.545   1.514   1.970 -0.3219  1.1336  0.6436
  327TIP3    H122540   6.635   1.484   1.957  0.2147  2.4760  1.0162
  327TIP3    H222541   6.501   1.442   2.014  0.5139  0.3727  0.2515
  328TIP3   OH222542   2.999   4.360   5.912 -0.0502 -0.6681  0.2704
  328TIP3    H122543   2.926   4.422   5.903  1.7274  1.8556  2.0701
  328TIP3    H222544   2.957   4.275   5.928 -2.5708  0.2562 -0.9442
  329TIP3   OH222545   6.288   1.287   7.655  0.5832  0.4402  0.4920
  329TIP3    H122546   6.345   1.282   7.578 -2.0357 -0.4199 -1.5232
  329TIP3    H222547   6.264   1.380   7.661  0.0195  0.3643 -0.3871
  330TIP3   OH222548   5.767   3.393   0.620 -0.3510  0.3816  0.2402
  330TIP3    H122549   5.710   3.333   0.571  0.9450  0.1066 -0.9934
  330TIP3    H222550   5.787   3.346   0.701 -1.6256  0.3683  0.5672
  331TIP3   OH222551   3.839   3.803   6.900  0.0336 -0.2161 -0.4437
  331TIP3    H122552   3.858   3.828   6.991 -0.8242 -1.9890  0.2698
  331TIP3    H222553   3.752   3.840   6.883  0.7808  1.3353 -1.0723
  332TIP3   OH222554   6.831   6.483   6.703  0.3143  0.6573 -0.4188
  332TIP3    H122555   6.909   6.532   6.679  0.6522 -0.5347 -1.9202
  332TIP3    H222556   6.793   6.455   6.619 -1.1324  0.3173  0.3165
  333TIP3   OH222557   4.202   4.361   8.214 -0.2544  0.2662 -0.0916
  333TIP3    H122558   4.237   4.284   8.259 -1.2941 -0.6075 -0.7312
  333TIP3    H222559   4.144   4.402   8.278  0.2062  0.4603  0.2074
  334TIP3   OH222560   4.713   4.502   0.152  0.3057 -0.0113 -0.2037
  334TIP3    H122561   4.642   4.439   0.140 -0.5200  0.4318  1.8667
  334TIP3    H222562   4.759   4.471   0.230  1.5087  0.5300 -0.6705
  335TIP3   OH222563   0.146   3.282   0.973  0.3551  0.1764 -0.5497
  335TIP3    H122564   0.142   3.241   1.059  0.2493 -0.1245 -0.6980
  335TIP3    H222565   0.067   3.252   0.928 -1.4447  3.0384  0.4368
  336TIP3   OH222566   6.836   2.942   0.652  0.0254  0.0741 -0.4309
  336TIP3    H122567   6.898   2.907   0.716 -0.3808  0.7317  0.3388
  336TIP3    H222568   6.887   3.003   0.600 -0.0202  0.8607  0.4119
  337TIP3   OH222569   3.051   0.260   0.227  0.4701  0.9778  0.0200
  337TIP3    H122570   3.026   0.203   0.155  0.0039  0.2414  0.7426
  337TIP3    H222571   3.049   0.203   0.304  0.7513  1.7945  0.6404
  338TIP3   OH222572   3.144   1.496   1.020 -0.4184 -0.8299 -0.3800
  338TIP3    H122573   3.168   1.412   0.980 -1.4533 -0.8232 -1.0455
  338TIP3    H222574   3.179   1.562   0.960  0.0390 -0.7858 -0.0682
  339TIP3   OH222575   3.192   0.164   2.301  0.0234 -0.1039  0.1432
  339TIP3    H122576   3.128   0.094   2.289 -0.1927  0.2491 -0.8329
  339TIP3    H222577   3.173   0.227   2.232  1.2612  0.1421 -0.0029
  340TIP3   OH222578   6.771   2.155   1.391  0.3646  0.2160  0.1122
  340TIP3    H122579   6.725   2.237   1.411  0.4100  0.6234 -1.3453
  340TIP3    H222580   6.751   2.098   1.465 -0.6643  1.1406  0.5799
  341TIP3   OH222581   3.255   4.709   6.363  0.5037  0.4405  0.0923
  341TIP3    H122582   3.182   4.653   6.337  0.2705  1.1013 -0.7077
  341TIP3    H222583   3.268   4.690   6.456  2.1143 -2.8414 -0.6355
  342TIP3   OH222584   5.220   1.180   7.221  0.3012 -0.2784 -0.0065
  342TIP3    H122585   5.222   1.145   7.311 -0.6672  0.1295  0.1873
  342TIP3    H222586   5.127   1.187   7.200  0.4836  1.1026 -0.4593
  343TIP3   OH222587   5.009   2.760   2.195  0.1277  0.1795 -0.1815
  343TIP3    H122588   5.103   2.777   2.185  0.5336 -1.4892  0.4407
  343TIP3    H222589   5.004   2.670   2.226 -1.6773  0.3564  0.1708
  344TIP3   OH222590   5.756   1.498   6.400 -0.0920  0.9608  0.3950
  344TIP3    H122591   5.777   1.430   6.465 -1.8230 -0.1473 -0.1298
  344TIP3    H222592   5.724   1.571   6.452 -0.5768  0.4296  0.8682
  345TIP3   OH222593   4.759   0.709   7.445 -0.0993  0.3324  0.1172
  345TIP3    H122594   4.701   0.740   7.376  0.0583  0.6813  0.1422
  345TIP3    H222595   4.829   0.663   7.398  1.4046  2.7474 -0.1668
  346TIP3   OH222596   0.920   6.566   7.815  0.1069 -0.3496  0.6396
  346TIP3    H122597   0.983   6.605   7.876  0.2164 -0.1387  0.3950
  346TIP3    H222598   0.924   6.472   7.833  0.2454 -0.3028  0.8573
  347TIP3   OH222599   5.083   5.479   7.233  0.3332  0.2482 -0.2782
  347TIP3    H122600   5.145   5.407   7.237  0.1498  0.0860 -0.3394
  347TIP3    H222601   5.107   5.529   7.155  0.2682  0.0772 -0.4080
  348TIP3   OH222602   0.428   4.702   1.164 -0.2937 -0.4329  0.1544
  348TIP3    H122603   0.483   4.663   1.232  0.4418  0.8244  0.3103
  348TIP3    H222604   0.415   4.793   1.193 -0.9575 -0.2161 -0.7920
  349TIP3   OH222605   0.132   4.320   6.779  0.3836  0.4784 -0.4128
  349TIP3    H122606   0.090   4.365   6.852 -0.5022  0.8960 -1.1657
  349TIP3    H222607   0.120   4.379   6.704 -0.3909 -0.7774 -1.3209
  350TIP3   OH222608   6.700   2.485   6.725  0.2978 -0.2503  0.4511
  350TIP3    H122609   6.630   2.547   6.705 -1.2841 -1.2665  2.4740
  350TIP3    H222610   6.725   2.448   6.640  0.2384  1.9996 -0.6140
  351TIP3   OH222611   2.215   3.676   8.063  0.1589  0.1178 -0.1865
  351TIP3    H122612   2.237   3.759   8.021 -1.3684  0.3040 -0.6938
  351TIP3    H222613   2.199   3.615   7.991  0.8734 -0.5217  0.1803
  352TIP3   OH222614   3.413   0.408   1.735 -0.0881 -0.6679 -0.1310
  352TIP3    H122615   3.501   0.369   1.741  0.1607 -0.4721 -1.9421
  352TIP3    H222616   3.421   0.473   1.665 -2.1001 -1.8805 -1.5687
  353TIP3   OH222617   5.307   1.203   8.327  0.0285 -0.4510  0.7168
  353TIP3    H122618   5.346   1.289   8.312 -0.3746 -0.4118 -0.1629
  353TIP3    H222619   5.221   1.223   8.365  0.3002 -0.4992  1.3718
  354TIP3   OH222620   4.561   0.512   7.061 -0.6851 -0.1230 -0.0823
  354TIP3    H122621   4.563   0.468   7.146  1.1456 -2.0802 -1.0316
  354TIP3    H222622   4.641   0.483   7.018 -1.0239  1.6782 -2.0851
  355TIP3   OH222623   0.057   6.405   6.953 -0.3280 -0.4702  0.3485
  355TIP3    H122624   0.105   6.336   6.907  0.6932  0.3855  0.1090
  355TIP3    H222625  -0.013   6.430   6.893  0.0715 -0.4167 -0.0928
  356TIP3   OH222626   5.911   2.909   0.735  1.0704 -0.1285  0.4243
  356TIP3    H122627   5.837   2.940   0.683  2.6765 -0.8094 -2.5045
  356TIP3    H222628   5.890   2.817   0.754  1.1083 -0.2980 -0.3229
  357TIP3   OH222629   5.010   1.824   0.088  0.0942 -0.0088 -0.1566
  357TIP3    H122630   5.045   1.848   0.003  2.6669  0.4046  0.9309
  357TIP3    H222631   5.020   1.902   0.142  0.5370 -0.8821  1.0849
  358TIP3   OH222632   6.174   1.693   1.164 -0.4740 -0.0849  0.3464
  358TIP3    H122633   6.103   1.753   1.188 -1.3677 -0.7293 -0.6165
  358TIP3    H222634   6.159   1.674   1.071  0.9973 -0.1975  0.1110
  359TIP3   OH222635   5.115   2.673   6.184 -0.2199  0.2537 -0.6461
  359TIP3    H122636   5.066   2.644   6.261  1.9971 -0.3452  0.6348
  359TIP3    H222637   5.091   2.765   6.173 -0.1100  0.5258  1.1765
  360TIP3   OH222638   2.634   3.742   8.150 -0.2051  0.1786  0.3823
  360TIP3    H122639   2.613   3.703   8.066  1.6175  1.3259 -0.6718
  360TIP3    H222640   2.691   3.679   8.194 -0.5216 -0.0780  0.4238
  361TIP3   OH222641   6.170   4.916   1.523  0.6877 -1.1344 -0.0540
  361TIP3    H122642   6.245   4.930   1.464  0.2839  1.7735 -0.0266
  361TIP3    H222643   6.186   4.976   1.596 -0.4261 -2.3669  1.2710
  362TIP3   OH222644   1.513   3.777   1.555 -0.0588  0.0821 -0.1757
  362TIP3    H122645   1.547   3.718   1.623 -1.2717  0.0335  0.4239
  362TIP3    H222646   1.428   3.740   1.532 -1.2252  1.9659  0.7703
  363TIP3   OH222647   5.059   6.372   7.745 -0.3081 -0.1483 -0.7219
  363TIP3    H122648   5.133   6.327   7.786  0.8949 -0.1231 -2.7036
  363TIP3    H222649   4.999   6.302   7.719  0.0410 -0.3620 -0.9656
  364TIP3   OH222650   5.743   5.117   2.023 -0.4273  0.0605  0.2065
  364TIP3    H122651   5.717   5.135   1.933  1.5538 -1.9350 -0.8702
  364TIP3    H222652   5.679   5.055   2.055 -0.2100 -0.5066 -0.4368
  365TIP3   OH222653   5.733   6.738   7.122  0.2452 -0.0020 -0.2729
  365TIP3    H122654   5.673   6.812   7.135 -0.9993 -0.6747 -1.8099
  365TIP3    H222655   5.749   6.705   7.211 -0.3302  1.2063  0.3156
  366TIP3   OH222656   2.473   1.987   0.188 -0.1211 -0.4459 -0.1406
  366TIP3    H122657   2.451   2.039   0.111  1.6577 -0.2680 -0.5748
  366TIP3    H222658   2.492   1.899   0.153 -3.2487 -1.5296  0.5952
  367TIP3   OH222659   2.887   4.853   6.848  0.1846  0.4074  0.0353
  367TIP3    H122660   2.881   4.909   6.770 -1.2232  1.7741  1.0800
  367TIP3    H222661   2.981   4.848   6.867  0.4036  1.5988 -0.6531
  368TIP3   OH222662   0.401   3.763   1.216  0.3236 -0.1024 -0.3699
  368TIP3    H122663   0.401   3.754   1.311  0.2697  0.0399 -0.3559
  368TIP3    H222664   0.345   3.839   1.199  3.7450  2.6830 -0.2583
  369TIP3   OH222665   0.843   1.571   7.192  0.2574  0.1644 -0.6605
  369TIP3    H122666   0.759   1.571   7.237  0.0705 -0.6427 -1.0003
  369TIP3    H222667   0.871   1.663   7.194 -0.4566  0.3802 -0.2297
  370TIP3   OH222668   4.607   4.150   8.302 -0.8813  0.3482  0.4703
  370TIP3    H122669   4.667   4.203   8.354  1.4556  0.1382 -1.7600
  370TIP3    H222670   4.642   4.061   8.310 -2.5239 -0.2621  1.2023
  371TIP3   OH222671   1.291   0.529   2.016  0.1870 -0.2660 -0.3281
  371TIP3    H122672   1.338   0.607   1.986  1.3296 -0.9876 -0.4654
  371TIP3    H222673   1.209   0.563   2.052 -0.1791  0.8320 -2.0923
  372TIP3   OH222674   2.932   3.289   0.659 -0.0874 -0.4044 -0.2900
  372TIP3    H122675   2.873   3.264   0.730 -1.1540 -2.0338 -1.6756
  372TIP3    H222676   3.017   3.302   0.701 -0.4408 -2.3523  1.1396
  373TIP3   OH222677   0.069   2.615   0.045 -0.1872  0.0577 -0.2728
  373TIP3    H122678   0.004   2.643   0.110 -0.3515 -0.4564 -0.2097
  373TIP3    H222679   0.037   2.651  -0.038 -0.3873  0.0662 -0.1925
  374TIP3   OH222680   4.811   2.831   0.262 -0.5456 -0.1428  0.1841
  374TIP3    H122681   4.889   2.783   0.290 -0.8264  0.0388  1.2997
  374TIP3    H222682   4.742   2.766   0.258 -0.1228 -0.5400 -1.9295
  375TIP3   OH222683   3.210   2.708   7.361 -0.0017 -0.3500  0.8250
  375TIP3    H122684   3.209   2.803   7.363  0.1698 -0.3450  0.6713
  375TIP3    H222685   3.127   2.684   7.318  1.0732 -0.1980 -1.4837
  376TIP3   OH222686   1.295   5.054   0.204  0.1336 -0.1353  0.1860
  376TIP3    H122687   1.217   5.094   0.165  0.2962 -0.9695 -1.0552
  376TIP3    H222688   1.361   5.123   0.198 -0.3499  0.3816  0.7141
  377TIP3   OH222689   6.581   1.387   0.084  0.0996 -0.0939 -0.2808
  377TIP3    H122690   6.614   1.475   0.066  0.2469 -0.4827 -2.0522
  377TIP3    H222691   6.497   1.383   0.040  0.8765 -1.3842 -1.7216
  378TIP3   OH222692   2.357   4.436   1.363  0.0455 -0.3342  0.0176
  378TIP3    H122693   2.442   4.467   1.396  0.5371 -1.2944 -0.3024
  378TIP3    H222694   2.333   4.365   1.422  0.8971 -2.0270 -1.5647
  379TIP3   OH222695   3.200   4.569   6.605  0.7905 -0.3257  0.6550
  379TIP3    H122696   3.282   4.568   6.654  1.3304  0.0248 -0.2152
  379TIP3    H222697   3.195   4.483   6.563  0.8650 -0.2379  0.4648
  380TIP3   OH222698   5.089   4.464   8.402 -0.2521  0.6251 -0.6189
  380TIP3    H122699   5.165   4.412   8.426 -2.2798 -1.0227  3.0939
  380TIP3    H222700   5.046   4.413   8.333  0.3907 -0.0508 -0.5347
  381TIP3   OH222701   5.081   3.455   1.476 -0.3127 -0.2657 -0.5768
  381TIP3    H122702   5.124   3.505   1.545 -0.1175  0.3615 -1.1375
  381TIP3    H222703   5.039   3.382   1.521 -0.6143  0.4148  0.2616
  382TIP3   OH222704   6.459   4.012   7.973 -0.3061 -0.6266  0.2333
  382TIP3    H122705   6.521   4.030   8.044  0.9678 -2.2212 -0.4183
  382TIP3    H222706   6.514   3.997   7.896 -1.6507  2.9966 -1.6968
  383TIP3   OH222707   0.441   6.731   7.468  0.2840  0.4126 -0.0362
  383TIP3    H122708   0.456   6.645   7.428 -0.6815  0.6342 -0.9232
  383TIP3    H222709   0.512   6.786   7.435 -0.4074  0.5482 -1.3454
  384TIP3   OH222710   0.170   1.927   7.147  0.4345  0.5312 -0.4871
  384TIP3    H122711   0.209   1.878   7.074 -0.0675 -0.9436  0.1917
  384TIP3    H222712   0.100   1.978   7.107  0.5792  0.2335 -1.1328
  385TIP3   OH222713   5.914   5.236   1.210 -0.2920  0.1643  0.1184
  385TIP3    H122714   5.911   5.327   1.178  2.0397  0.4754  0.6216
  385TIP3    H222715   5.879   5.184   1.138 -2.1860  1.4771  0.0224
  386TIP3   OH222716   0.906   3.055   0.981  0.3555 -0.3227 -0.2103
  386TIP3    H122717   0.950   3.018   0.905 -0.9620 -0.0808 -1.1328
  386TIP3    H222718   0.814   3.032   0.968 -0.5329  3.0108 -0.7247
  387TIP3   OH222719   3.422   4.711   2.077 -0.3213 -0.2090  0.4080
  387TIP3    H122720   3.447   4.643   2.014 -0.3470  1.0255 -0.9889
  387TIP3    H222721   3.501   4.727   2.129  0.3040  0.1260 -0.6222
  388TIP3   OH222722   2.676   3.101   6.736  0.0576 -0.0560 -0.6286
  388TIP3    H122723   2.746   3.036   6.732  0.3537  0.3039 -1.4911
  388TIP3    H222724   2.696   3.153   6.814  0.6595 -0.0633 -0.7726
  389TIP3   OH222725   0.240   3.220   2.046  0.7074 -0.5641 -0.4375
  389TIP3    H122726   0.182   3.145   2.037  1.2615 -0.8403 -2.1421
  389TIP3    H222727   0.181   3.296   2.046 -0.0064 -0.9490  3.0063
  390TIP3   OH222728   2.223   5.750   1.309 -0.1537 -0.7040  0.5031
  390TIP3    H122729   2.283   5.824   1.301 -0.1506 -0.7786 -0.2584
  390TIP3    H222730   2.136   5.789   1.299 -0.5812 -0.0641  4.7007
  391TIP3   OH222731   2.042   3.613   7.464  0.5032  0.0537  0.4593
  391TIP3    H122732   2.084   3.569   7.389 -0.4748 -1.8167  0.9592
  391TIP3    H222733   1.954   3.634   7.433  0.9768  1.8048  0.2073
  392TIP3   OH222734   0.301   4.992   7.706  0.3378  0.1050 -0.2225
  392TIP3    H122735   0.217   5.035   7.720 -0.1614 -0.9419  0.1411
  392TIP3    H222736   0.340   5.038   7.632 -2.1935 -1.6523 -2.8753
  393TIP3   OH222737   2.179   6.202   1.493 -0.6651  0.3846 -0.4113
  393TIP3    H122738   2.106   6.252   1.531 -0.3271 -1.0796  2.4055
  393TIP3    H222739   2.254   6.261   1.501 -0.9115  0.6782 -0.2287
  394TIP3   OH222740   2.970   0.304   8.557  0.4585 -0.3230 -0.7806
  394TIP3    H122741   3.018   0.328   8.477 -0.3393 -0.3356 -1.2779
  394TIP3    H222742   2.925   0.223   8.534 -1.5372  0.8072 -1.0758
  395TIP3   OH222743   3.027   0.938   7.980 -0.1445 -0.6449 -0.4816
  395TIP3    H122744   2.939   0.942   7.944  0.1420  0.2742 -1.1455
  395TIP3    H222745   3.061   0.853   7.951 -0.3880 -0.4793 -1.2880
  396TIP3   OH222746   5.927   6.367   1.130  0.2753 -0.2055  0.2346
  396TIP3    H122747   5.897   6.314   1.056 -0.3324 -0.6850  0.8234
  396TIP3    H222748   5.850   6.416   1.158  0.8108  0.9905 -0.2674
  397TIP3   OH222749   5.340   0.897   7.255 -0.0902 -0.1967 -0.1932
  397TIP3    H122750   5.375   0.874   7.169 -0.5973 -2.1025  0.0543
  397TIP3    H222751   5.245   0.889   7.245 -0.2410  0.9567  0.1915
  398TIP3   OH222752   4.581   5.750   0.999 -0.1719  0.2220  0.1324
  398TIP3    H122753   4.618   5.837   0.984  1.3098 -0.2832  0.6296
  398TIP3    H222754   4.610   5.698   0.924 -1.1796  0.1687 -0.2413
  399TIP3   OH222755   0.922   1.663   7.771  0.3072 -0.3764 -0.5890
  399TIP3    H122756   0.910   1.741   7.825  1.0848 -1.3778  1.1397
  399TIP3    H222757   0.963   1.695   7.691  2.0350  0.8412  0.7119
  400TIP3   OH222758   6.359   6.396   1.663 -0.4683  0.1211 -0.1583
  400TIP3    H122759   6.301   6.460   1.704 -2.3436 -0.8726 -1.1466
  400TIP3    H222760   6.304   6.319   1.648  0.6665 -0.3076 -2.6077
  401TIP3   OH222761   3.042   5.247   1.459  0.2511  0.9535  0.1084
  401TIP3    H122762   2.964   5.271   1.508 -0.4098 -3.2595  1.5207
  401TIP3    H222763   3.111   5.239   1.526  0.4688 -0.5854 -0.2753
  402TIP3   OH222764   5.726   4.143   6.888 -0.5352  0.0974 -0.2450
  402TIP3    H122765   5.741   4.152   6.793 -0.9028  0.6480 -0.2532
  402TIP3    H222766   5.631   4.155   6.898 -0.2144  2.4655  0.4532
  403TIP3   OH222767   0.089   6.102   0.275 -0.2983 -0.2905 -0.8495
  403TIP3    H122768   0.169   6.051   0.257 -0.3480 -0.1449 -1.4938
  403TIP3    H222769   0.025   6.037   0.304  0.4265 -0.2565  0.9723
  404TIP3   OH222770   5.527   5.146   0.930 -0.0023  0.4323  0.4129
  404TIP3    H122771   5.469   5.121   1.002 -1.6937  1.3984 -0.5357
  404TIP3    H222772   5.490   5.100   0.854  0.5764  0.9547 -0.1905
  405TIP3   OH222773   2.361   3.510   7.194 -0.0643 -0.1187  0.4459
  405TIP3    H122774   2.266   3.511   7.194 -0.0731  0.7788 -0.6194
  405TIP3    H222775   2.385   3.601   7.215  0.5142  0.2200 -1.4990
  406TIP3   OH222776   3.737   5.794   0.436 -0.1589 -0.3652  0.4287
  406TIP3    H122777   3.738   5.796   0.532 -0.2465  3.0045  0.4698
  406TIP3    H222778   3.646   5.774   0.414 -0.3062 -0.4184  1.0500
  407TIP3   OH222779   6.370   1.546   7.694 -0.3564 -0.3176 -0.7181
  407TIP3    H122780   6.460   1.517   7.681  0.6177  2.8384 -1.7435
  407TIP3    H222781   6.378   1.630   7.738 -2.8471 -0.0979 -0.5370
  408TIP3   OH222782   2.321   6.216   6.328  0.2634 -0.1494 -0.1019
  408TIP3    H122783   2.253   6.215   6.396  1.7394 -0.6730  1.4512
  408TIP3    H222784   2.332   6.308   6.305  0.5567  0.1827  1.2849
  409TIP3   OH222785   6.172   2.246   6.339 -0.4740 -0.0567  0.1213
  409TIP3    H122786   6.105   2.296   6.293 -0.7158 -0.5301 -0.0486
  409TIP3    H222787   6.140   2.156   6.338  0.5681 -0.4358 -0.6934
  410TIP3   OH222788   2.541   0.568   0.440  0.0196  0.1670 -0.2595
  410TIP3    H122789   2.614   0.615   0.481 -0.5699  2.2164 -1.4603
  410TIP3    H222790   2.472   0.570   0.506  0.7326 -1.1041  0.5807
  411TIP3   OH222791   2.714   4.616   7.664  0.6077  0.3331  0.3641
  411TIP3    H122792   2.722   4.652   7.752 -0.4929 -0.1309  0.6651
  411TIP3    H222793   2.745   4.687   7.607 -0.4043  1.3353  1.0183
  412TIP3   OH222794   5.177   6.522   1.436 -0.5921  0.0248  0.3738
  412TIP3    H122795   5.257   6.513   1.385 -0.5686 -1.2505  0.5886
  412TIP3    H222796   5.128   6.592   1.393 -0.3590 -0.6915 -1.1307
  413TIP3   OH222797   5.970   0.319   6.870  0.0075 -0.1737 -0.5359
  413TIP3    H122798   5.921   0.282   6.796  0.0908  1.2793 -1.3607
  413TIP3    H222799   5.922   0.289   6.947 -1.5068  0.2170 -1.2700
  414TIP3   OH222800   1.793   5.997   6.205  0.8452  0.4956 -0.5858
  414TIP3    H122801   1.771   5.913   6.165 -0.8774  0.1429  0.9292
  414TIP3    H222802   1.886   5.990   6.227  1.0826 -0.4244 -1.7829
  415TIP3   OH222803   1.076   4.995   0.852 -0.2540  0.1839  0.9315
  415TIP3    H122804   1.065   5.054   0.778 -1.8584  0.2264  1.1749
  415TIP3    H222805   1.030   4.915   0.827  1.9808 -1.0756  0.5588
  416TIP3   OH222806   0.613   3.411   7.234 -0.3277 -0.4969 -0.0211
  416TIP3    H122807   0.661   3.451   7.161 -1.3603 -0.3156 -0.6321
  416TIP3    H222808   0.521   3.434   7.217 -0.6460 -0.9045  1.0582
  417TIP3   OH222809   1.261   2.768   0.095  0.4448  0.0941 -0.0768
  417TIP3    H122810   1.172   2.800   0.108  1.2208  2.0430  0.9429
  417TIP3    H222811   1.259   2.677   0.127 -1.5195 -0.4927 -1.6781
  418TIP3   OH222812   1.128   0.870   1.233 -0.5908  0.1092  0.4987
  418TIP3    H122813   1.190   0.938   1.208 -0.0030 -0.8808 -0.8721
  418TIP3    H222814   1.109   0.887   1.325  0.7498  1.1728  0.6060
  419TIP3   OH222815   4.616   2.812   7.938  0.1105 -0.6266 -0.3236
  419TIP3    H122816   4.606   2.727   7.894 -2.4386  0.2439 -1.5684
  419TIP3    H222817   4.689   2.798   7.999 -0.0725 -3.6467 -0.6288
  420TIP3   OH222818   3.476   2.061   7.894  0.5764  0.0263 -0.2782
  420TIP3    H122819   3.554   2.015   7.923  0.5885  0.7532  0.8804
  420TIP3    H222820   3.500   2.153   7.895 -0.5797  0.3530  1.1137
  421TIP3   OH222821   0.224   1.626   8.230 -0.1258 -0.1748 -0.2986
  421TIP3    H122822   0.172   1.701   8.257 -1.2920 -0.7852 -0.7998
  421TIP3    H222823   0.285   1.612   8.302 -1.2442  0.0075  0.7101
  422TIP3   OH222824   2.601   6.754   1.177  0.4129  0.1759 -0.0896
  422TIP3    H122825   2.646   6.697   1.115  1.3111 -0.0244  0.7066
  422TIP3    H222826   2.661   6.760   1.252 -0.1776  1.2257  0.3353
  423TIP3   OH222827   0.319   6.722   0.645  0.0375  0.2453 -0.2569
  423TIP3    H122828   0.382   6.661   0.683 -0.4354 -0.0516  0.0541
  423TIP3    H222829   0.372   6.797   0.617  0.4158  0.4150  0.8636
  424TIP3   OH222830   1.703   2.624   1.890  0.2786  0.0700 -0.1609
  424TIP3    H122831   1.710   2.553   1.953  2.8798 -0.6550 -1.1373
  424TIP3    H222832   1.706   2.704   1.942  2.6998 -0.5077  0.6757
  425TIP3   OH222833   4.903   0.563   7.199 -0.3648 -0.5711 -0.1335
  425TIP3    H122834   4.822   0.514   7.211  0.0718 -1.5881 -1.0555
  425TIP3    H222835   4.908   0.579   7.104  0.3360 -0.2213 -0.0499
  426TIP3   OH222836   6.565   4.071   1.331  0.4537 -0.2511  0.1524
  426TIP3    H122837   6.589   4.154   1.372  0.9039 -0.2518 -0.1104
  426TIP3    H222838   6.648   4.034   1.299  0.3752 -1.1656  0.9382
  427TIP3   OH222839   1.923   3.441   0.790 -0.7913 -0.0283  0.1519
  427TIP3    H122840   1.935   3.523   0.741  0.1278  0.7926  1.6523
  427TIP3    H222841   1.886   3.469   0.874  0.1734 -1.0533  0.9574
  428TIP3   OH222842   0.006   1.614   1.742 -0.2555 -0.1323  0.9140
  428TIP3    H122843   0.008   1.702   1.705 -0.1425  0.0447  1.3404
  428TIP3    H222844  -0.087   1.592   1.748 -0.2642 -0.2967  0.2081
  429TIP3   OH222845   0.162   2.456   2.320  0.2117  0.5798  0.6380
  429TIP3    H122846   0.090   2.515   2.299  0.4573 -0.1224 -2.9938
  429TIP3    H222847   0.129   2.369   2.298  1.4333 -0.0060  1.0068
  430TIP3   OH222848   4.142   1.430   0.168  0.3591 -0.4284 -0.0157
  430TIP3    H122849   4.063   1.427   0.113 -0.4327 -0.8379  1.1115
  430TIP3    H222850   4.146   1.344   0.209  2.3432 -1.0045 -1.2950
  431TIP3   OH222851   3.267   2.412   7.827  0.5663  0.0871 -0.3207
  431TIP3    H122852   3.286   2.408   7.734 -2.7148  3.0735 -1.3228
  431TIP3    H222853   3.209   2.338   7.843 -1.6604  1.4529 -1.5844
  432TIP3   OH222854   0.964   6.583   8.552 -0.4182 -0.1174 -0.6437
  432TIP3    H122855   0.908   6.623   8.619 -0.1214  2.4495 -1.8089
  432TIP3    H222856   1.047   6.629   8.559  0.9881 -2.5257 -0.2499
  433TIP3   OH222857   4.674   2.328   1.425 -0.3928 -0.0101 -0.3444
  433TIP3    H122858   4.745   2.348   1.364  0.2566 -0.3869  0.2635
  433TIP3    H222859   4.719   2.297   1.504 -1.0444  2.9315  1.3336
  434TIP3   OH222860   4.162   2.178   0.802  0.8444 -0.0072 -0.4277
  434TIP3    H122861   4.153   2.271   0.820  1.0702 -0.0505 -0.0877
  434TIP3    H222862   4.117   2.135   0.874  1.2998 -0.1729 -0.2398
  435TIP3   OH222863   5.011   4.897   7.593 -0.3108  0.3204 -0.2514
  435TIP3    H122864   4.959   4.972   7.564 -1.8733 -0.0350  1.4682
  435TIP3    H222865   5.055   4.927   7.673  0.6069 -0.0169 -0.6083
  436TIP3   OH222866   0.501   5.469   1.042  0.2345  0.1067 -0.3865
  436TIP3    H122867   0.516   5.468   1.137  0.9757 -0.9805 -0.4995
  436TIP3    H222868   0.419   5.517   1.031  0.8703  1.5001  0.6896
  437TIP3   OH222869   6.438   1.839   0.227  0.0313  0.2442  0.6599
  437TIP3    H122870   6.432   1.744   0.223  2.0731  0.1137 -0.5961
  437TIP3    H222871   6.385   1.871   0.154 -0.4443  0.0716  0.9267
  438TIP3   OH222872   4.784   1.336   7.393  0.3120  0.5753 -0.4555
  438TIP3    H122873   4.855   1.394   7.421  1.0298 -0.2531 -0.5015
  438TIP3    H222874   4.820   1.248   7.402 -1.1165  0.0663  0.6120
  439TIP3   OH222875   6.178   4.040   2.144  0.2068  0.0208 -0.1756
  439TIP3    H122876   6.083   4.025   2.148  0.3046 -0.4500  0.5811
  439TIP3    H222877   6.188   4.133   2.162 -0.1291  0.1126 -0.4594
  440TIP3   OH222878   2.659   3.886   7.249  0.2132 -0.2318  0.0421
  440TIP3    H122879   2.683   3.834   7.172  1.7123  0.9745 -0.3637
  440TIP3    H222880   2.678   3.977   7.223 -1.0704  0.3944  1.1828
  441TIP3   OH222881   1.524   3.272   1.648  0.4694 -0.5199  0.4402
  441TIP3    H122882   1.460   3.212   1.684  1.7292 -1.1089  1.7751
  441TIP3    H222883   1.544   3.237   1.561  0.5652 -1.5401  0.8697
  442TIP3   OH222884   6.862   1.180   0.390 -0.0105 -0.1844  1.1780
  442TIP3    H122885   6.772   1.202   0.367  0.0787 -0.9366  0.0234
  442TIP3    H222886   6.859   1.161   0.484 -0.6555  1.6881  1.5680
  443TIP3   OH222887   4.106   2.555   8.212  0.2840  0.6747  0.0165
  443TIP3    H122888   4.032   2.498   8.232 -0.5596  0.3287 -3.3720
  443TIP3    H222889   4.087   2.636   8.258 -0.2964 -0.5669  2.1021
  444TIP3   OH222890   5.245   5.411   6.569 -0.6587 -0.3916 -0.4541
  444TIP3    H122891   5.153   5.393   6.552 -0.7956  0.6511 -0.9277
  444TIP3    H222892   5.269   5.352   6.641 -1.9266 -0.0775  0.2522
  445TIP3   OH222893   1.401   3.966   6.603  0.7346 -0.0941 -0.2323
  445TIP3    H122894   1.460   3.910   6.553 -0.3369  0.0608 -1.7150
  445TIP3    H222895   1.315   3.950   6.566  0.1152  1.0947  0.6144
  446TIP3   OH222896   6.219   2.720   1.202 -0.1345  0.1707  0.0370
  446TIP3    H122897   6.190   2.630   1.214  0.6827 -0.0047  0.7435
  446TIP3    H222898   6.153   2.773   1.247 -0.5234 -0.0776 -0.2387
  447TIP3   OH222899   0.629   2.463   6.422 -0.2752  0.8416  0.1458
  447TIP3    H122900   0.601   2.371   6.425 -1.2417  1.1285  2.5435
  447TIP3    H222901   0.689   2.467   6.348 -1.2637 -1.4038 -0.8836
  448TIP3   OH222902   3.122   2.459   8.681  0.0185  0.3732  0.0868
  448TIP3    H122903   3.155   2.371   8.699 -0.6720  0.0330 -0.2763
  448TIP3    H222904   3.064   2.479   8.755  2.4802  1.7786  1.7902
  449TIP3   OH222905   3.071   1.043   8.228 -0.4186 -0.1281 -0.1561
  449TIP3    H122906   3.100   1.134   8.225  0.0010 -0.0980  2.4536
  449TIP3    H222907   3.050   1.022   8.138  1.7141  1.8102 -1.2152
  450TIP3   OH222908   1.297   1.828   6.986 -0.0525  0.0417  0.0816
  450TIP3    H122909   1.355   1.901   7.010 -0.2744  0.7305 -1.3656
  450TIP3    H222910   1.211   1.868   6.974 -0.2591 -0.5186 -0.3769
  451TIP3   OH222911   5.360   5.589   7.145 -0.4808 -0.1972  0.3661
  451TIP3    H122912   5.448   5.567   7.113 -0.7516 -0.2995 -0.3097
  451TIP3    H222913   5.301   5.567   7.073 -0.8963  1.4501  0.1570
  452TIP3   OH222914   6.620   5.790   0.302 -0.1038  0.3778 -0.1969
  452TIP3    H122915   6.673   5.730   0.248 -0.1229  0.2016 -0.0207
  452TIP3    H222916   6.545   5.812   0.246 -0.2258  0.0371 -0.1687
  453TIP3   OH222917   6.485   5.490   7.293  0.4498 -0.1043  0.3249
  453TIP3    H122918   6.408   5.434   7.299 -0.1867  0.7465  0.2901
  453TIP3    H222919   6.465   5.566   7.347  0.9300  0.5059 -0.3141
  454TIP3   OH222920   3.218   1.547   7.194  0.6171 -0.5422 -0.2458
  454TIP3    H122921   3.253   1.497   7.268  0.2474 -1.0408 -0.4061
  454TIP3    H222922   3.140   1.589   7.229  1.3810  0.6063  0.1242
  455TIP3   OH222923   2.192   3.947   1.912  0.4529  0.2326 -0.3846
  455TIP3    H122924   2.143   3.870   1.940  1.9206 -0.5146  0.2647
  455TIP3    H222925   2.278   3.936   1.953  0.2870  2.9133  0.8408
  456TIP3   OH222926   3.998   3.005   6.850 -0.1995  0.2977  0.0454
  456TIP3    H122927   3.948   3.053   6.916  0.6298  0.2808  0.7059
  456TIP3    H222928   3.996   2.914   6.880  1.5185  0.5144  0.9567
  457TIP3   OH222929   3.983   0.091   1.189  0.4779  0.0430 -0.1035
  457TIP3    H122930   3.958   0.119   1.101  1.2450  1.0012 -0.0387
  457TIP3    H222931   4.065   0.044   1.176  0.6930  0.3531  0.1134
  458TIP3   OH222932   0.926   1.065   1.583 -0.7522  0.6066 -0.6511
  458TIP3    H122933   0.882   1.036   1.663  0.4187  0.3845 -0.0739
  458TIP3    H222934   0.855   1.077   1.520 -1.5535 -0.5629 -0.0006
  459TIP3   OH222935   1.542   0.423   0.777 -0.2436  0.4672  0.0098
  459TIP3    H122936   1.563   0.368   0.702 -0.3910 -0.3279  0.5467
  459TIP3    H222937   1.556   0.513   0.745 -2.4067  0.3030 -1.6494
  460TIP3   OH222938   6.005   0.274   1.660 -0.0051 -0.4963  0.5701
  460TIP3    H122939   5.988   0.224   1.739 -0.6182 -0.2638  0.5938
  460TIP3    H222940   6.094   0.306   1.670 -0.6521  0.9939  1.9935
  461TIP3   OH222941   5.595   0.939   1.594 -0.1304 -0.4232 -0.0010
  461TIP3    H122942   5.508   0.902   1.611 -0.9555  1.4598  0.0304
  461TIP3    H222943   5.580   1.008   1.530  1.5990 -1.0901 -1.2050
  462TIP3   OH222944   2.294   2.589   0.122 -0.1812 -0.0976 -0.1448
  462TIP3    H122945   2.231   2.661   0.120 -1.1729 -0.9357  0.2527
  462TIP3    H222946   2.268   2.533   0.049  0.5409 -0.1058 -0.4043
  463TIP3   OH222947   0.493   4.065   1.938 -0.0997 -0.4388  0.1880
  463TIP3    H122948   0.518   4.122   2.010  0.9648 -0.8896  0.1910
  463TIP3    H222949   0.560   4.078   1.871 -0.4874 -0.8163 -0.2883
  464TIP3   OH222950   5.390   1.092   0.960 -0.0738 -0.7233 -0.5417
  464TIP3    H122951   5.359   1.183   0.968 -0.2489 -0.5803 -2.4478
  464TIP3    H222952   5.312   1.039   0.977  0.1964 -0.5854  1.3683
  465TIP3   OH222953   6.081   2.114   1.267  0.0073 -0.0328  0.6516
  465TIP3    H122954   6.176   2.109   1.255  0.0196  1.8078 -0.4244
  465TIP3    H222955   6.051   2.172   1.197 -2.0367 -1.2465  0.4444
  466TIP3   OH222956   2.133   2.727   1.165  0.4663 -0.2312 -0.2411
  466TIP3    H122957   2.157   2.698   1.077  0.1097 -0.8785 -0.1273
  466TIP3    H222958   2.142   2.822   1.162  1.8740 -0.3447 -0.5565
  467TIP3   OH222959   6.796   3.566   7.810  0.5470 -0.1371 -0.3597
  467TIP3    H122960   6.827   3.477   7.828  0.1657  0.2001  2.4581
  467TIP3    H222961   6.875   3.617   7.795  0.8385 -0.6882 -0.7388
  468TIP3   OH222962   6.797   0.388   1.397 -0.0663 -0.4123  0.0463
  468TIP3    H122963   6.816   0.397   1.490  2.6550 -1.1468 -0.3513
  468TIP3    H222964   6.803   0.477   1.362  1.8158 -0.4706  0.1445
  469TIP3   OH222965   3.072   0.145   8.176  0.2359  0.2211  0.6835
  469TIP3    H122966   3.098   0.143   8.084 -1.9911  1.3251 -0.0442
  469TIP3    H222967   3.120   0.073   8.217 -0.5510 -1.8757 -1.8506
  470TIP3   OH222968   5.171   4.865   0.782  0.0271 -0.1860  0.7178
  470TIP3    H122969   5.089   4.867   0.733 -0.1257 -0.5994  0.9578
  470TIP3    H222970   5.214   4.948   0.760 -1.3620  0.9618  2.1540
  471TIP3   OH222971   5.090   0.509   0.818  0.4574  0.1197  0.2328
  471TIP3    H122972   5.028   0.439   0.841 -0.7179  0.3531 -1.8864
  471TIP3    H222973   5.167   0.463   0.785  0.2541 -0.1807  0.1701
  472TIP3   OH222974   4.552   1.578   6.949 -0.0458 -0.3491  0.3217
  472TIP3    H122975   4.540   1.635   6.873  0.2987 -0.4908  0.1610
  472TIP3    H222976   4.635   1.607   6.988 -0.4724  0.0683  0.9470
  473TIP3   OH222977   4.479   0.332   1.759  0.0145 -0.1822  0.0489
  473TIP3    H122978   4.442   0.405   1.711 -1.5910 -0.6941  0.4339
  473TIP3    H222979   4.494   0.264   1.693 -0.1075 -0.1087 -0.0538
  474TIP3   OH222980   2.536   1.826   1.844  0.2804 -0.1298 -0.2124
  474TIP3    H122981   2.584   1.747   1.819  2.0883  0.8860 -0.0917
  474TIP3    H222982   2.444   1.804   1.827  0.7560 -2.1494 -0.4334
  475TIP3   OH222983   4.300   0.260   8.031 -0.3575  0.1795 -0.3785
  475TIP3    H122984   4.390   0.267   8.063 -0.2956  1.5079 -0.8030
  475TIP3    H222985   4.293   0.170   7.999  0.7051 -0.0508  0.0031
  476TIP3   OH222986   6.339   4.602   7.367  0.5001  0.4395  0.6159
  476TIP3    H122987   6.312   4.693   7.354  0.6615  0.3108 -0.7434
  476TIP3    H222988   6.382   4.578   7.285 -0.1038 -1.0567  0.7094
  477TIP3   OH222989   1.014   6.133   7.728  0.6948  0.4860  0.3340
  477TIP3    H122990   1.005   6.184   7.809 -1.3592 -1.0129  1.1193
  477TIP3    H222991   1.078   6.065   7.750  0.6519  0.4946  0.4915
  478TIP3   OH222992   2.200   1.228   2.396 -0.4764 -0.1117  0.2196
  478TIP3    H122993   2.128   1.178   2.433  1.2087 -1.1830  2.3017
  478TIP3    H222994   2.274   1.167   2.395  1.1323  1.7159  0.9331
  479TIP3   OH222995   3.782   6.419   7.621  0.2592 -0.4716  0.5175
  479TIP3    H122996   3.759   6.406   7.713 -1.1525  1.5448  0.5142
  479TIP3    H222997   3.748   6.341   7.577 -0.4893 -0.7276  1.5080
  480TIP3   OH222998   4.433   6.325   6.635  0.7160 -1.0684 -0.2547
  480TIP3    H122999   4.386   6.398   6.594 -1.1183 -1.0677  1.6782
  480TIP3    H223000   4.521   6.360   6.651  0.7896 -0.3357 -2.0723
  481TIP3   OH223001   3.214   3.410   7.657  0.8982  0.1126 -0.4273
  481TIP3    H123002   3.252   3.441   7.739 -0.7290 -0.1801  0.4858
  481TIP3    H223003   3.145   3.474   7.637  0.8397 -0.1821 -1.2256
  482TIP3   OH223004   0.890   4.349   8.247  0.3910 -0.2538  0.0105
  482TIP3    H123005   0.933   4.377   8.167  0.2261  0.2490  0.0944
  482TIP3    H223006   0.856   4.430   8.286  0.3108 -0.5134  0.4918
  483TIP3   OH223007   2.760   6.153   1.796 -0.1550  0.0561 -0.0489
  483TIP3    H123008   2.838   6.192   1.757  0.7028 -0.2831  1.2559
  483TIP3    H223009   2.709   6.227   1.828 -0.0890  0.2493 -0.3901
  484TIP3   OH223010   5.435   0.516   0.299  0.0703  0.8174 -0.2425
  484TIP3    H123011   5.372   0.584   0.319  1.0033  1.7423 -0.3599
  484TIP3    H223012   5.400   0.472   0.221  0.6952  2.8553 -1.7585
  485TIP3   OH223013   3.783   2.847   0.258 -0.3635  0.2261  0.0429
  485TIP3    H123014   3.754   2.929   0.218 -1.7701 -0.7819 -1.1468
  485TIP3    H223015   3.735   2.779   0.210  0.4499 -1.2738  1.2552
  486TIP3   OH223016   3.923   2.394   1.521 -0.9044  0.0176  0.1823
  486TIP3    H123017   4.012   2.402   1.487 -0.5443  1.4155  1.3478
  486TIP3    H223018   3.871   2.363   1.447  0.3906  0.0168 -0.7478
  487TIP3   OH223019   5.648   2.894   6.674 -0.2587 -0.2031 -0.0161
  487TIP3    H123020   5.714   2.891   6.743 -0.6552  1.4149  0.4781
  487TIP3    H223021   5.597   2.973   6.693 -1.6482 -0.8213 -1.0135
  488TIP3   OH223022   2.681   3.642   0.680 -0.3898  0.5008 -0.5390
  488TIP3    H123023   2.622   3.568   0.662 -0.2227  0.7796 -2.3904
  488TIP3    H223024   2.623   3.717   0.691 -0.4397  0.6066 -1.4695
  489TIP3   OH223025   1.649   4.351   0.728  0.5522 -0.4578  0.5113
  489TIP3    H123026   1.707   4.281   0.757 -0.3033 -1.1377  0.6161
  489TIP3    H223027   1.603   4.314   0.653  0.8262  0.3593 -0.0718
  490TIP3   OH223028   1.280   6.808   8.203 -0.3305  0.1016 -0.1202
  490TIP3    H123029   1.260   6.877   8.266 -0.4686 -0.2945  0.2789
  490TIP3    H223030   1.285   6.853   8.119 -0.1294  0.6419  0.1754
  491TIP3   OH223031   6.333   4.335   7.558 -0.1857 -0.2242  0.8995
  491TIP3    H123032   6.366   4.418   7.524  0.1861 -0.2951  1.0770
  491TIP3    H223033   6.294   4.358   7.642 -2.4814  0.2103 -0.2121
  492TIP3   OH223034   0.706   2.366   7.198  0.1240 -0.7139 -0.3921
  492TIP3    H123035   0.647   2.339   7.269 -1.2350 -0.9231 -1.5491
  492TIP3    H223036   0.648   2.379   7.123  1.7095 -2.2760 -1.9834
  493TIP3   OH223037   0.074   1.858   8.302  0.1242  0.6638  0.0001
  493TIP3    H123038   0.093   1.935   8.250  0.2321  0.4762 -0.2380
  493TIP3    H223039   0.098   1.883   8.392 -3.0499  2.1029  0.5647
  494TIP3   OH223040   4.651   4.670   1.239  0.1242  0.4204 -0.1384
  494TIP3    H123041   4.743   4.663   1.214 -0.0733  0.5597 -0.9133
  494TIP3    H223042   4.653   4.672   1.335  0.9010  0.0823 -0.1370
  495TIP3   OH223043   4.237   3.067   8.054 -0.3251  0.0250  0.4534
  495TIP3    H123044   4.251   3.117   7.974  0.2235  0.6354  0.9162
  495TIP3    H223045   4.180   3.123   8.108  0.3908  0.2233  1.0233
  496TIP3   OH223046   4.437   3.714   6.742 -0.0677 -0.7221  0.6921
  496TIP3    H123047   4.427   3.699   6.648  0.7191  0.0339  0.4792
  496TIP3    H223048   4.405   3.633   6.783 -0.7411 -0.9173 -0.2023
  497TIP3   OH223049   2.930   0.185   0.518 -0.4348 -0.5428 -0.0670
  497TIP3    H123050   2.859   0.202   0.457 -0.5019  1.2188  0.4512
  497TIP3    H223051   3.000   0.244   0.491 -0.3715  0.0860  1.3515
  498TIP3   OH223052   3.503   4.832   6.820  0.3975  0.2158 -0.1237
  498TIP3    H123053   3.569   4.850   6.752  0.0007  0.8129 -0.3559
  498TIP3    H223054   3.454   4.757   6.786  1.7313 -1.0363  0.6165
  499TIP3   OH223055   0.060   4.834   6.828 -0.1499  0.6431  0.1614
  499TIP3    H123056   0.024   4.871   6.909 -0.2849  1.0763 -0.0904
  499TIP3    H223057   0.052   4.905   6.764 -1.1132 -0.0646 -0.5341
  500TIP3   OH223058   2.227   2.937   8.062  0.3991  0.1538 -0.4480
  500TIP3    H123059   2.265   3.025   8.056 -0.5887  0.6580  0.5340
  500TIP3    H223060   2.198   2.918   7.973 -1.0887  1.6116 -0.3113
  501TIP3   OH223061   4.637   1.266   0.532 -0.2498 -0.0594  0.2409
  501TIP3    H123062   4.562   1.217   0.565 -0.7524  1.9505  2.3386
  501TIP3    H223063   4.692   1.281   0.608 -0.1098  2.5280 -0.2826
  502TIP3   OH223064   0.632   3.577   0.490 -0.2115 -0.8842  0.9599
  502TIP3    H123065   0.667   3.531   0.567  0.2929 -2.9798 -0.4382
  502TIP3    H223066   0.659   3.668   0.502  0.3122 -1.2545  2.9847
  503TIP3   OH223067   0.683   5.398   6.897  0.1071  0.1826  0.5651
  503TIP3    H123068   0.684   5.462   6.825  2.8193 -1.2499 -0.8411
  503TIP3    H223069   0.653   5.317   6.856 -1.4897  0.0713  1.8816
  504TIP3   OH223070   5.651   6.764   0.028  0.1942  0.0137  0.0125
  504TIP3    H123071   5.712   6.795   0.095 -0.3694  0.5774  0.2758
  504TIP3    H223072   5.696   6.779  -0.055 -0.0458  1.5066  0.1337
  505TIP3   OH223073   4.535   3.067   6.736 -0.4596  0.2374  0.5676
  505TIP3    H123074   4.447   3.033   6.742  0.3003 -1.9537  0.1097
  505TIP3    H223075   4.578   3.039   6.817  0.0314  0.6312  0.4511
  506TIP3   OH223076   6.751   1.718   0.283 -0.2101  0.1084 -0.4897
  506TIP3    H123077   6.728   1.794   0.336 -0.3343 -0.2270 -0.0549
  506TIP3    H223078   6.709   1.644   0.328 -1.0315 -0.0713 -1.5247
  507TIP3   OH223079   2.661   2.493   7.529 -0.3298 -0.4907 -0.0236
  507TIP3    H123080   2.738   2.469   7.477  0.6993 -0.0998  1.2679
  507TIP3    H223081   2.697   2.539   7.605 -1.8434 -0.3448  0.6334
  508TIP3   OH223082   3.155   2.589   8.096  0.3115  0.3372  0.4420
  508TIP3    H123083   3.246   2.588   8.065  0.0954  1.0981 -0.2450
  508TIP3    H223084   3.157   2.539   8.177  1.2266 -0.1961  0.1013
  509TIP3   OH223085   1.277   4.337   0.066  0.3367  0.0369 -0.4248
  509TIP3    H123086   1.283   4.278   0.142 -0.6622  1.4937  0.8593
  509TIP3    H223087   1.230   4.286   0.000 -0.3236 -0.6940  0.5715
  510TIP3   OH223088   0.589   1.688   0.594 -0.3797  0.3528 -0.1960
  510TIP3    H123089   0.573   1.779   0.566  0.1662  0.7631  0.7662
  510TIP3    H223090   0.579   1.636   0.514 -0.1941  1.3188 -0.8663
  511TIP3   OH223091   6.226   2.406   2.002  0.0961 -0.3958 -0.0575
  511TIP3    H123092   6.202   2.342   1.935 -0.4649 -0.9075  0.6050
  511TIP3    H223093   6.294   2.362   2.053  1.5522  0.5468 -1.1353
  512TIP3   OH223094   6.321   0.875   0.060 -0.0024 -0.2055 -0.1137
  512TIP3    H123095   6.251   0.911   0.114  0.3631 -1.1915  1.0696
  512TIP3    H223096   6.350   0.949   0.006 -0.3054  0.8722  1.1245
  513TIP3   OH223097   3.239   3.269   7.406  0.3113  0.0749 -0.2080
  513TIP3    H123098   3.320   3.310   7.376 -0.9798  1.8601 -1.4723
  513TIP3    H223099   3.221   3.311   7.490 -0.9728  2.1952 -1.4689
  514TIP3   OH223100   6.690   5.739   7.240  0.0545  0.0841  0.1994
  514TIP3    H123101   6.644   5.821   7.221 -0.8012 -0.5385 -0.4944
  514TIP3    H223102   6.688   5.732   7.336  0.2314  0.9227  0.2713
  515TIP3   OH223103   3.669   5.114   8.275 -0.0831  0.5964  0.7206
  515TIP3    H123104   3.611   5.145   8.344 -0.2559  1.7000  0.1067
  515TIP3    H223105   3.746   5.171   8.280 -0.0526  0.6268  0.0752
  516TIP3   OH223106   4.735   6.011   7.550  0.0833  0.2396 -0.1074
  516TIP3    H123107   4.722   6.009   7.455  0.9164 -0.0127 -0.2246
  516TIP3    H223108   4.682   5.938   7.582  0.9708 -0.6307 -0.5472
  517TIP3   OH223109   5.992   5.570   0.044  0.4757  0.0776 -0.5738
  517TIP3    H123110   5.937   5.529  -0.023  0.9780  0.8047 -1.4627
  517TIP3    H223111   6.005   5.502   0.110 -0.5528 -0.4553 -0.9065
  518TIP3   OH223112   6.856   4.109   1.723  0.1789  0.0348 -0.2028
  518TIP3    H123113   6.812   4.035   1.764 -0.0000  0.1430 -0.1995
  518TIP3    H223114   6.808   4.186   1.753 -0.3432  0.0807 -1.1011
  519TIP3   OH223115   2.508   2.482   8.231 -0.0533  0.4230  0.0225
  519TIP3    H123116   2.446   2.554   8.218 -1.1650 -0.7147 -1.3462
  519TIP3    H223117   2.570   2.490   8.159 -0.5608 -0.3294 -0.5171
  520TIP3   OH223118   5.911   4.013   0.131 -0.2072  0.6903  0.4490
  520TIP3    H123119   6.004   3.997   0.145  0.3768  1.0421 -2.3743
  520TIP3    H223120   5.880   3.933   0.089 -1.3251  0.3805  1.8213
  521TIP3   OH223121   0.122   4.121   7.211 -0.4227  0.3477  0.0902
  521TIP3    H123122   0.046   4.146   7.158 -1.8888 -0.1785  1.7932
  521TIP3    H223123   0.130   4.027   7.199 -0.2430  0.3563  0.1423
  522TIP3   OH223124   6.147   3.816   8.308  0.1631 -0.9207 -0.8179
  522TIP3    H123125   6.148   3.878   8.381 -0.2150 -1.4267 -0.3771
  522TIP3    H223126   6.236   3.821   8.272  0.7388 -1.5612  0.4413
  523TIP3   OH223127   5.536   6.277   0.226 -0.3635  0.2319 -0.1740
  523TIP3    H123128   5.457   6.326   0.208 -0.1974  0.6087  0.1220
  523TIP3    H223129   5.608   6.337   0.206 -0.1650  0.4138  0.9993
  524TIP3   OH223130   5.366   6.023   1.201 -0.9135  0.1297  0.4383
  524TIP3    H123131   5.300   6.049   1.138  0.8104  0.1704 -1.4436
  524TIP3    H223132   5.414   5.952   1.159  1.8376  1.7378  0.5977
  525TIP3   OH223133   6.625   1.125   8.153  0.2138 -0.2363  0.0248
  525TIP3    H123134   6.706   1.119   8.203 -1.3566  0.7518  2.9712
  525TIP3    H223135   6.576   1.046   8.178 -0.7504  0.4582  0.3902
  526TIP3   OH223136   3.072   4.317   7.240  0.3149 -0.2358  0.0890
  526TIP3    H123137   3.036   4.256   7.303 -1.4270  1.5437  0.9192
  526TIP3    H223138   3.020   4.397   7.251  1.6776  1.0005 -1.7829
  527TIP3   OH223139   2.360   3.076   8.305  0.3289  0.2513 -0.2146
  527TIP3    H123140   2.331   3.009   8.366  0.0491  1.0410  0.5443
  527TIP3    H223141   2.284   3.132   8.292  0.7024  0.7215 -0.4186
  528TIP3   OH223142   2.754   0.061   7.232 -0.5541  0.2418  0.0562
  528TIP3    H123143   2.660   0.077   7.220 -0.6541  0.2640  0.8372
  528TIP3    H223144   2.776  -0.004   7.166 -0.8121  1.2676 -1.0899
  529TIP3   OH223145   4.020   2.604   2.290  0.1829  0.2213  0.6666
  529TIP3    H123146   3.961   2.556   2.233  0.1599  1.1938 -0.1594
  529TIP3    H223147   3.962   2.660   2.343  0.1932 -0.7530  1.7566
  530TIP3   OH223148   4.302   5.092   1.582 -0.1343  0.4130 -0.9861
  530TIP3    H123149   4.395   5.077   1.601 -0.5470 -0.4307  0.5606
  530TIP3    H223150   4.257   5.018   1.623 -1.6360  1.6907 -0.2236
  531TIP3   OH223151   0.252   3.174   6.229  0.3571 -0.3997 -0.1759
  531TIP3    H123152   0.257   3.146   6.321  0.2159 -1.1835 -0.4040
  531TIP3    H223153   0.161   3.160   6.205  0.3972 -0.2014 -0.4464
  532TIP3   OH223154   4.255   4.234   0.990 -0.0264  0.3356 -0.3703
  532TIP3    H123155   4.323   4.176   0.956  0.5132  1.1295 -0.6763
  532TIP3    H223156   4.297   4.281   1.062 -0.0243  1.3289 -1.0031
  533TIP3   OH223157   4.442   5.608   1.408  0.5879  0.2424  0.2155
  533TIP3    H123158   4.382   5.625   1.480 -2.3678 -1.3384 -1.6498
  533TIP3    H223159   4.454   5.513   1.408  3.1016  0.4878  0.4213
  534TIP3   OH223160   3.792   2.395   6.714 -0.7592 -0.2359  0.1462
  534TIP3    H123161   3.880   2.371   6.745 -0.7982  1.6853  1.9682
  534TIP3    H223162   3.751   2.312   6.691  0.9673 -1.3382  0.8637
  535TIP3   OH223163   3.660   2.572   7.268  0.3260 -0.4672  0.1104
  535TIP3    H123164   3.677   2.665   7.252  1.7943 -0.6598  0.4594
  535TIP3    H223165   3.708   2.552   7.349 -1.8807 -0.9820  1.3905
  536TIP3   OH223166   2.959   5.974   1.506 -0.9245  0.2056 -0.8679
  536TIP3    H123167   2.970   5.898   1.564 -1.0261  0.8452  0.0139
  536TIP3    H223168   3.044   5.984   1.464 -0.6961  0.0158 -0.4585
  537TIP3   OH223169   4.794   5.474   8.684 -0.6634 -0.3827 -0.1074
  537TIP3    H123170   4.863   5.539   8.697 -0.7858 -0.1161 -0.7940
  537TIP3    H223171   4.781   5.436   8.771 -0.3677  0.2838  0.2356
  538TIP3   OH223172   3.614   3.462   0.519  0.1372 -0.6296 -0.1188
  538TIP3    H123173   3.580   3.548   0.545  1.3805 -0.4874  1.1357
  538TIP3    H223174   3.547   3.427   0.461  0.3916  1.9526 -2.1899
  539TIP3   OH223175   1.641   1.323   1.189 -0.3862 -0.0008 -0.0232
  539TIP3    H123176   1.566   1.377   1.215  0.0134  0.4674  0.1624
  539TIP3    H223177   1.610   1.233   1.200 -0.8192  0.1901  0.3595
  540TIP3   OH223178   5.743   5.786   7.967  0.0564 -0.7176 -0.2342
  540TIP3    H123179   5.837   5.768   7.962 -0.0876 -1.5930  0.0859
  540TIP3    H223180   5.737   5.868   8.017  0.6807 -0.1921 -0.9967
  541TIP3   OH223181   0.235   1.070   7.458 -0.4090  0.0865  0.4185
  541TIP3    H123182   0.315   1.120   7.472  0.0479 -0.2614 -0.7703
  541TIP3    H223183   0.184   1.082   7.538 -0.6949  3.1077 -0.1096
  542TIP3   OH223184   4.645   5.471   8.465 -0.3744 -0.2673 -0.3927
  542TIP3    H123185   4.670   5.484   8.556 -1.6322 -0.9372  0.0666
  542TIP3    H223186   4.724   5.436   8.423  0.6343  1.3342  0.0980
  543TIP3   OH223187   1.764   0.147   8.278 -0.4778 -0.2683 -0.1699
  543TIP3    H123188   1.710   0.191   8.213 -1.9382 -0.6073  0.7658
  543TIP3    H223189   1.704   0.089   8.324  0.6422 -0.5054  1.0679
  544TIP3   OH223190   5.510   4.963   7.380  0.0509  0.0172 -0.1143
  544TIP3    H123191   5.454   4.993   7.451  1.0551  2.1539 -0.1438
  544TIP3    H223192   5.453   4.963   7.303 -0.6085 -0.6866  0.3533
  545TIP3   OH223193   1.078   4.740   8.095 -0.7950 -0.1046  0.0877
  545TIP3    H123194   1.068   4.783   8.180  0.2944  1.4770 -0.5359
  545TIP3    H223195   0.993   4.752   8.052 -0.6371  1.1089  0.0820
  546TIP3   OH223196   5.419   4.521   8.496  0.0982 -0.0140 -0.0348
  546TIP3    H123197   5.403   4.529   8.590  0.2189  0.8931 -0.0879
  546TIP3    H223198   5.514   4.524   8.488  0.0555  1.2339 -0.2859
  547TIP3   OH223199   6.559   6.572   0.642  0.4292  0.9030 -0.1991
  547TIP3    H123200   6.532   6.480   0.630  0.3789  0.4805  2.6610
  547TIP3    H223201   6.653   6.567   0.655  0.2514  1.0572  1.3189
  548TIP3   OH223202   3.346   4.285   7.272 -0.1693 -0.6191 -0.9639
  548TIP3    H123203   3.356   4.198   7.233  1.1137  0.0632 -2.2224
  548TIP3    H223204   3.251   4.300   7.272 -0.9775 -3.6731  3.2019
  549TIP3   OH223205   0.936   1.322   2.345 -0.1983 -0.2489 -1.0541
  549TIP3    H123206   0.846   1.291   2.334 -0.7784  1.6129 -1.8936
  549TIP3    H223207   0.986   1.243   2.366 -1.9412 -1.3877 -0.9778
  550TIP3   OH223208   0.937   6.403   1.596 -0.2862  0.2910 -0.5581
  550TIP3    H123209   0.916   6.415   1.504 -0.6930  1.2898 -0.3535
  550TIP3    H223210   0.873   6.458   1.642 -0.9786 -1.2543  0.4002
  551TIP3   OH223211   3.528   5.703   8.186  0.1488  0.4145  0.5689
  551TIP3    H123212   3.536   5.797   8.167  1.6966  0.1571 -0.1941
  551TIP3    H223213   3.522   5.662   8.100 -1.2982 -0.1548  0.9149
  552TIP3   OH223214   1.268   4.331   7.733 -0.2120 -0.1924  0.1802
  552TIP3    H123215   1.261   4.325   7.828  0.4679 -1.1079  0.1822
  552TIP3    H223216   1.268   4.425   7.715 -2.1639 -0.0010  0.9242
  553TIP3   OH223217   3.053   0.510   1.844 -0.2917 -0.7694 -0.7361
  553TIP3    H123218   3.037   0.428   1.891  0.5640 -0.6833 -0.2739
  553TIP3    H223219   3.034   0.578   1.908 -0.8818 -0.6060 -1.0830
  554TIP3   OH223220   3.665   1.730   8.368  0.1220 -0.4015 -0.2374
  554TIP3    H123221   3.751   1.692   8.385  0.0572 -0.9459 -1.0810
  554TIP3    H223222   3.608   1.655   8.354  0.0124 -0.0106 -2.0573
  555TIP3   OH223223   6.551   5.981   7.183  0.4777 -0.7283 -0.1225
  555TIP3    H123224   6.543   6.017   7.095  0.5086 -1.9182 -0.6383
  555TIP3    H223225   6.596   6.049   7.233 -0.1106  0.2220 -0.8522
  556TIP3   OH223226   2.168   0.133   0.751  0.2143 -0.0619 -0.2174
  556TIP3    H123227   2.224   0.058   0.731 -0.7806 -1.3055  1.4500
  556TIP3    H223228   2.080   0.102   0.732 -0.3581  0.1333  1.9314
  557TIP3   OH223229   5.966   0.273   1.073  0.0735 -0.7754  0.0669
  557TIP3    H123230   6.013   0.195   1.043  0.2860  0.2962 -2.6576
  557TIP3    H223231   5.874   0.252   1.061  0.0809 -1.0388  0.4769
  558TIP3   OH223232   1.892   4.473   0.654  0.0998 -0.2006  0.2790
  558TIP3    H123233   1.855   4.480   0.566  1.0849  0.4672 -0.1078
  558TIP3    H223234   1.824   4.429   0.705 -0.8806  0.2520 -0.5827
  559TIP3   OH223235   2.761   1.222   1.601  0.4558  0.4339 -0.1210
  559TIP3    H123236   2.815   1.270   1.539  1.3293  0.4410  0.6224
  559TIP3    H223237   2.672   1.226   1.565  0.9265  0.5393 -1.2910
  560TIP3   OH223238   5.622   0.395   0.496  0.0165 -0.1049 -0.3528
  560TIP3    H123239   5.690   0.419   0.433 -0.9546  3.3982 -0.2660
  560TIP3    H223240   5.546   0.448   0.472 -1.8312 -1.8641  1.2055
  561TIP3   OH223241   3.657   1.806   7.810  0.6963  0.4670 -0.1304
  561TIP3    H123242   3.618   1.736   7.757 -0.7440  2.2598 -1.5513
  561TIP3    H223243   3.613   1.799   7.894  1.3016 -0.9321  0.1064
  562TIP3   OH223244   1.469   0.868   8.673  0.0178  0.9015  0.2101
  562TIP3    H123245   1.517   0.916   8.740 -0.1548 -0.3345  1.2521
  562TIP3    H223246   1.485   0.776   8.693 -0.4466  0.5028 -1.1553
  563TIP3   OH223247   0.596   0.502   1.126  0.3341  0.0391  0.0666
  563TIP3    H123248   0.527   0.558   1.090  0.9637  1.7637  1.3848
  563TIP3    H223249   0.625   0.450   1.052  0.3896  2.2092 -1.5510
  564TIP3   OH223250   4.888   2.281   0.181  0.2291  0.4321 -0.2852
  564TIP3    H123251   4.851   2.346   0.121  0.2627 -1.6258 -2.7117
  564TIP3    H223252   4.812   2.232   0.213  0.4310 -0.5666 -1.2846
  565TIP3   OH223253   1.694   0.989   1.667  0.0655 -0.3851  0.1611
  565TIP3    H123254   1.760   0.922   1.648 -0.0489 -0.0388 -1.5820
  565TIP3    H223255   1.729   1.034   1.744  2.2572  0.2011 -1.0604
  566TIP3   OH223256   1.282   1.330   2.093 -0.4390 -0.1620 -0.2568
  566TIP3    H123257   1.212   1.275   2.058 -0.0722 -0.7028 -0.1607
  566TIP3    H223258   1.267   1.330   2.187 -1.3721  1.2178 -0.3818
  567TIP3   OH223259   4.707   5.443   0.557 -0.5194 -0.0114  0.1503
  567TIP3    H123260   4.620   5.444   0.516 -0.6805  0.3607  0.5018
  567TIP3    H223261   4.727   5.350   0.569 -1.4584 -0.0769  1.3175
  568TIP3   OH223262   0.615   6.044   6.624  0.4577 -0.1945  0.0444
  568TIP3    H123263   0.686   6.032   6.561  1.6572 -0.2303  1.3772
  568TIP3    H223264   0.627   5.974   6.688 -2.3673 -1.8675 -1.0841
  569TIP3   OH223265   3.775   5.411   6.982 -0.9561  0.1460  0.4792
  569TIP3    H123266   3.718   5.364   7.042  0.5765 -3.0398 -0.3355
  569TIP3    H223267   3.716   5.466   6.931 -2.8010 -0.3329  1.9794
  570TIP3   OH223268   0.584   5.351   0.479  0.2659  0.9098  0.2020
  570TIP3    H123269   0.544   5.381   0.398  0.7463  0.0621 -0.3509
  570TIP3    H223270   0.651   5.418   0.499 -1.1041  2.1340  0.9383
  571TIP3   OH223271   6.688   3.083   7.783  0.3896  0.0339 -0.3668
  571TIP3    H123272   6.678   3.014   7.717 -1.2182  0.7629 -0.9232
  571TIP3    H223273   6.714   3.036   7.863 -3.3108 -1.6409  0.0572
  572TIP3   OH223274   2.594   4.373   7.587  0.3509 -0.0168 -0.0305
  572TIP3    H123275   2.635   4.453   7.618  1.3521 -0.4503 -0.2034
  572TIP3    H223276   2.542   4.343   7.662 -2.4879  2.3131 -0.8794
  573TIP3   OH223277   4.663   3.713   7.652  0.3459 -0.0583  0.1689
  573TIP3    H123278   4.629   3.802   7.645  2.5414  0.7236 -1.8763
  573TIP3    H223279   4.586   3.659   7.668 -1.7861  1.6777 -3.2056
  574TIP3   OH223280   6.254   1.776   0.478  0.3774  0.3806  0.0724
  574TIP3    H123281   6.337   1.756   0.521  1.1570  1.2121 -0.9788
  574TIP3    H223282   6.261   1.732   0.393 -0.5950 -0.1785  0.2669
  575TIP3   OH223283   1.707   6.291   7.135  0.3648  0.0887 -0.2081
  575TIP3    H123284   1.654   6.368   7.112 -1.7860 -1.4283 -0.6000
  575TIP3    H223285   1.682   6.225   7.070  1.6799 -1.1541  0.5136
  576TIP3   OH223286   2.941   6.680   1.948 -0.3763  0.4274  0.1371
  576TIP3    H123287   2.886   6.698   1.872 -2.3190  1.8398  1.7621
  576TIP3    H223288   2.948   6.764   1.994  2.6274  0.1526  0.4187
  577TIP3   OH223289   4.272   6.846   8.018  0.0756  0.2303 -0.4176
  577TIP3    H123290   4.345   6.805   7.971  1.1705  2.8930 -1.2213
  577TIP3    H223291   4.312   6.883   8.097 -1.1449 -1.3743  1.0249
  578TIP3   OH223292   2.765   5.190   0.364  0.2429  0.4473 -0.0470
  578TIP3    H123293   2.764   5.132   0.287  1.0570 -1.0519  1.0004
  578TIP3    H223294   2.855   5.222   0.368  0.3768  0.0126  0.6084
  579TIP3   OH223295   2.443   1.997   7.086  0.0831 -0.3255 -0.0742
  579TIP3    H123296   2.448   2.061   7.157 -0.3537 -0.4660  0.0805
  579TIP3    H223297   2.422   2.049   7.009  1.6488 -0.0097 -0.3326
  580TIP3   OH223298   0.579   5.005   7.031  0.2684  0.7771  0.0072
  580TIP3    H123299   0.610   4.925   6.988  0.6673  1.6805 -1.4565
  580TIP3    H223300   0.579   5.071   6.962  2.6170  2.7592  1.7266
  581TIP3   OH223301   6.645   4.426   8.517 -0.2324  0.1761 -0.1501
  581TIP3    H123302   6.694   4.483   8.458  0.5026  1.0171  1.2101
  581TIP3    H223303   6.704   4.353   8.536  0.2680  0.8402  0.9493
  582TIP3   OH223304   5.588   1.879   0.375 -0.3853 -0.3952 -0.5172
  582TIP3    H123305   5.595   1.974   0.364 -1.6662 -0.2137  0.0742
  582TIP3    H223306   5.650   1.843   0.311 -0.0651  0.8283 -0.9240
  583TIP3   OH223307   2.878   1.043   0.016 -0.0065 -0.2676  0.2305
  583TIP3    H123308   2.822   1.052  -0.062 -2.1208 -1.6084  1.5062
  583TIP3    H223309   2.937   0.971  -0.006 -1.8146 -1.9056  0.4558
  584TIP3   OH223310   6.558   1.310   8.412  0.3993  0.3268  0.0022
  584TIP3    H123311   6.517   1.368   8.476  0.6127 -0.1104  0.5432
  584TIP3    H223312   6.494   1.304   8.341 -0.3130 -0.0267  0.6575
  585TIP3   OH223313   6.745   1.681   6.550 -0.7317 -0.2396  0.2681
  585TIP3    H123314   6.792   1.651   6.472  0.6347  0.0646  0.9383
  585TIP3    H223315   6.653   1.680   6.525 -0.3634 -0.7255 -1.1467
  586TIP3   OH223316   2.345   4.929   8.438 -0.6663  0.5775 -0.3682
  586TIP3    H123317   2.310   4.852   8.482  0.5844 -0.0593 -0.4255
  586TIP3    H223318   2.436   4.934   8.468 -0.5960  1.7764 -0.7125
  587TIP3   OH223319   6.362   6.501   0.334  0.3762  0.5412 -0.4344
  587TIP3    H123320   6.357   6.480   0.241  1.5322 -1.1652 -0.1592
  587TIP3    H223321   6.453   6.530   0.347  0.3867  0.2224  0.2451
  588TIP3   OH223322   2.564   1.722   2.318 -0.2175  0.2469  0.1594
  588TIP3    H123323   2.549   1.641   2.269 -2.2251 -0.0303  1.1254
  588TIP3    H223324   2.655   1.717   2.347  0.0749 -1.0392 -0.8798
  589TIP3   OH223325   1.078   1.805   1.359  1.1157 -0.0969  0.4954
  589TIP3    H123326   1.135   1.764   1.294  0.8467 -2.6887  1.7904
  589TIP3    H223327   1.000   1.749   1.361  0.2768  1.0634  1.6706
  590TIP3   OH223328   6.757   4.480   7.711  0.0801 -0.3166 -1.0317
  590TIP3    H123329   6.690   4.541   7.742 -0.1489 -1.3216  0.6218
  590TIP3    H223330   6.725   4.449   7.627 -0.0015  1.4851 -1.6992
  591TIP3   OH223331   0.286   5.486   8.564 -0.1640  0.1298  0.2475
  591TIP3    H123332   0.374   5.502   8.599  0.0028 -0.5098  0.1367
  591TIP3    H223333   0.243   5.432   8.631 -1.5712  2.9620  1.7960
  592TIP3   OH223334   2.384   2.631   0.654 -0.4560 -0.4351  0.1716
  592TIP3    H123335   2.401   2.573   0.727 -0.0339  1.7666  1.9287
  592TIP3    H223336   2.469   2.639   0.609  0.4233  1.4577  2.0132
  593TIP3   OH223337   1.408   5.175   7.645  0.9150 -0.3261  0.3752
  593TIP3    H123338   1.468   5.250   7.650  0.3931  0.1573 -0.3603
  593TIP3    H223339   1.378   5.175   7.554 -0.3205 -0.4699  0.7739
  594TIP3   OH223340   4.826   6.272   8.255 -0.0214 -0.0961  0.8472
  594TIP3    H123341   4.732   6.263   8.271 -0.1599  0.1206  0.1842
  594TIP3    H223342   4.835   6.359   8.218  0.1190 -0.9735 -1.3318
  595TIP3   OH223343   1.761   1.801   8.428  0.0118  0.2707  0.4849
  595TIP3    H123344   1.793   1.891   8.435 -0.4588  0.4720  0.1249
  595TIP3    H223345   1.666   1.809   8.440 -0.2361  0.0310 -1.1312
  596TIP3   OH223346   4.827   2.096   1.764  0.0722 -0.3408  0.0292
  596TIP3    H123347   4.787   2.122   1.846 -1.7251 -0.8653 -0.6213
  596TIP3    H223348   4.920   2.084   1.784 -0.1180  0.6942  1.6719
  597TIP3   OH223349   1.576   3.065   2.057 -0.1604 -0.3562  0.2638
  597TIP3    H123350   1.529   2.993   2.015  1.3787 -1.6642  0.6649
  597TIP3    H223351   1.509   3.130   2.076 -1.5442 -1.5096 -0.4913
  598TIP3   OH223352   6.286   3.018   6.319 -0.6581  0.2513  0.6165
  598TIP3    H123353   6.320   2.996   6.232 -2.3051  0.1389 -0.0264
  598TIP3    H223354   6.336   2.962   6.379 -2.4982 -3.0464 -0.6884
  599TIP3   OH223355   0.661   2.983   7.141 -1.2491  0.2007 -0.3524
  599TIP3    H123356   0.671   3.010   7.050 -1.5320  1.0717 -0.1304
  599TIP3    H223357   0.728   2.915   7.153  0.0291  1.3397 -0.7172
  600TIP3   OH223358   5.918   6.431   0.783 -0.1237 -0.1402  0.2189
  600TIP3    H123359   5.928   6.375   0.860  0.0578 -0.3204  0.0666
  600TIP3    H223360   5.844   6.488   0.804 -0.3323 -0.4603  0.3602
  601TIP3   OH223361   6.520   6.602   7.163 -0.2551  0.9311 -0.1352
  601TIP3    H123362   6.589   6.602   7.097 -0.0525 -0.5483  0.0407
  601TIP3    H223363   6.552   6.661   7.231  0.6244  0.6306 -0.2721
  602TIP3   OH223364   2.895   5.558   1.479 -0.4185 -0.0123  0.3622
  602TIP3    H123365   2.852   5.563   1.394  1.8962  1.2725 -0.8404
  602TIP3    H223366   2.861   5.478   1.518 -1.2954 -0.8525 -1.9262
  603TIP3   OH223367   1.603   2.999   0.507 -0.6320 -0.6134  0.4442
  603TIP3    H123368   1.556   2.918   0.489 -1.3188  0.2751 -2.2017
  603TIP3    H223369   1.638   3.026   0.422 -0.6151  1.9902  1.1933
  604TIP3   OH223370   4.624   6.221   1.059  0.1597  0.3413 -0.1602
  604TIP3    H123371   4.616   6.143   1.114  3.0485  1.1524  1.6108
  604TIP3    H223372   4.680   6.194   0.986  0.1020  0.4468 -0.2445
  605TIP3   OH223373   6.869   1.586   6.323  0.0550  0.5330 -0.2519
  605TIP3    H123374   6.818   1.549   6.251 -0.9570  0.2306  0.5885
  605TIP3    H223375   6.955   1.543   6.317  0.2293  1.0410 -1.6870
  606TIP3   OH223376   2.456   4.537   6.689 -0.4711  0.2138 -0.0860
  606TIP3    H123377   2.528   4.588   6.726 -0.7090  1.4959 -1.2824
  606TIP3    H223378   2.379   4.591   6.704 -0.8122 -0.0246 -0.9241
  607TIP3   OH223379   5.454   2.345   7.123 -0.0759  0.2079  0.4312
  607TIP3    H123380   5.540   2.373   7.152  0.6468 -0.5148 -0.9424
  607TIP3    H223381   5.418   2.297   7.197  1.2390 -0.6047  0.5695
  608TIP3   OH223382   4.079   6.407   6.265  0.2363  0.4777  0.1654
  608TIP3    H123383   3.990   6.373   6.274 -0.6356  2.3728 -0.9112
  608TIP3    H223384   4.108   6.376   6.179 -0.2504  1.6763 -0.4548
  609TIP3   OH223385   0.524   6.123   7.884  0.0326  0.2332 -0.0532
  609TIP3    H123386   0.485   6.082   7.807  2.7711  0.3056 -1.6074
  609TIP3    H223387   0.574   6.053   7.927  3.3386  1.3136 -1.7763
  610TIP3   OH223388   2.885   0.060   1.190 -0.4768 -0.2453  0.0022
  610TIP3    H123389   2.958   0.121   1.190 -0.6515 -0.0369  0.0717
  610TIP3    H223390   2.889   0.018   1.104  0.6740 -1.3766  0.5740
  611TIP3   OH223391   1.637   0.746   7.777  0.0633 -0.2078  0.2793
  611TIP3    H123392   1.679   0.822   7.736  1.1192 -1.3902 -0.9851
  611TIP3    H223393   1.586   0.706   7.706  0.3813 -1.2530  0.6188
  612TIP3   OH223394   6.348   6.314   6.927 -0.3164  0.0743 -0.3605
  612TIP3    H123395   6.314   6.225   6.938 -0.8544  0.4112  0.7891
  612TIP3    H223396   6.352   6.350   7.016  3.6154 -0.1334 -0.2663
  613TIP3   OH223397   1.067   5.101   6.691 -0.1411  0.4104 -0.5221
  613TIP3    H123398   1.152   5.058   6.685 -0.0394  0.5424 -0.0830
  613TIP3    H223399   1.050   5.107   6.785 -1.2040 -0.7494 -0.6002
  614TIP3   OH223400   0.683   2.043   7.542 -0.0801  0.2206  0.0400
  614TIP3    H123401   0.710   2.070   7.630 -1.3813 -1.2091  0.9275
  614TIP3    H223402   0.708   1.951   7.536  0.0175  0.3018 -1.1087
  615TIP3   OH223403   1.000   3.022   7.147 -0.2361  0.0348 -0.3952
  615TIP3    H123404   0.940   3.051   7.078 -1.6966  1.4175  1.3812
  615TIP3    H223405   0.993   3.089   7.215  3.0190  0.0242  0.1086
  616TIP3   OH223406   1.731   3.404   1.030  0.2067 -0.2980  0.8015
  616TIP3    H123407   1.788   3.479   1.050  2.7123 -1.5357 -1.0867
  616TIP3    H223408   1.660   3.442   0.977  3.8166  0.4886 -4.2585
  617TIP3   OH223409   5.295   6.344   1.926 -0.0388 -0.2276 -0.1836
  617TIP3    H123410   5.246   6.365   2.005 -0.0340 -2.8724  0.6335
  617TIP3    H223411   5.233   6.363   1.855 -2.3972 -3.2716  0.8057
  618TIP3   OH223412   1.376   6.305   7.318 -0.0879  0.0655 -0.0864
  618TIP3    H123413   1.317   6.313   7.243 -1.1407  0.3542  0.7344
  618TIP3    H223414   1.399   6.212   7.321  0.5523  0.1700 -1.1700
  619TIP3   OH223415   4.594   0.642   0.900  0.1270  0.3526  0.2140
  619TIP3    H123416   4.533   0.687   0.842 -1.3528 -0.1260  1.3413
  619TIP3    H223417   4.598   0.697   0.979  0.4035 -0.1138  0.5354
  620TIP3   OH223418   2.503   5.846   7.414 -0.5748  0.1844  0.2929
  620TIP3    H123419   2.558   5.911   7.458  1.1525 -0.2641 -1.0756
  620TIP3    H223420   2.529   5.762   7.452  0.7322 -0.1784 -1.2754
  621TIP3   OH223421   6.408   2.272   7.791 -0.4948  0.1349  0.2246
  621TIP3    H123422   6.393   2.183   7.820 -1.2531 -0.2369 -1.2125
  621TIP3    H223423   6.481   2.266   7.728 -2.4226 -0.0167 -2.1596
  622TIP3   OH223424   4.791   2.012   6.711 -0.1438 -0.3024  0.0386
  622TIP3    H123425   4.788   2.075   6.639 -1.5303 -0.6368 -0.2095
  622TIP3    H223426   4.702   2.010   6.746  0.4042 -0.4696  1.4969
  623TIP3   OH223427   4.645   2.884   6.543 -0.0361 -0.3255  0.2997
  623TIP3    H123428   4.711   2.816   6.555  0.9990  0.7042  0.5272
  623TIP3    H223429   4.658   2.944   6.616 -0.7015  0.3098 -0.0927
  624TIP3   OH223430   1.516   2.541   1.370  0.6288 -0.1113  0.0749
  624TIP3    H123431   1.534   2.579   1.455  1.7147 -0.3571 -0.0321
  624TIP3    H223432   1.477   2.612   1.319  0.0852  0.0679  0.7319
  625TIP3   OH223433   0.723   5.591   8.483  0.1399  1.0820  0.0943
  625TIP3    H123434   0.778   5.513   8.476 -1.2321 -0.2171  2.3965
  625TIP3    H223435   0.704   5.616   8.393  0.1330 -1.6393 -0.7368
  626TIP3   OH223436   2.741   5.458   6.301  0.2031 -0.0054 -0.3314
  626TIP3    H123437   2.828   5.492   6.281 -0.4737  3.6718  2.1402
  626TIP3    H223438   2.687   5.487   6.228  0.1401  2.3279  0.5665
  627TIP3   OH223439   0.483   1.869   0.936  0.0725  0.5294  0.2652
  627TIP3    H123440   0.426   1.942   0.962  0.6079  0.7368  0.9048
  627TIP3    H223441   0.566   1.886   0.982  1.0853  0.9146 -1.5953
  628TIP3   OH223442   0.152   3.114   8.122 -0.5075  0.0287  0.2625
  628TIP3    H123443   0.172   3.127   8.030  1.5398  0.6480  0.7438
  628TIP3    H223444   0.187   3.192   8.166  1.2521 -1.5393  1.8733
  629TIP3   OH223445   5.696   1.026   6.115  0.6031  0.5801  0.5989
  629TIP3    H123446   5.733   1.062   6.196  0.3098  0.7036  0.6781
  629TIP3    H223447   5.630   1.090   6.088  1.4361  1.0868 -0.3130
  630TIP3   OH223448   6.655   3.941   8.156 -1.4213  0.0924 -0.2450
  630TIP3    H123449   6.598   3.899   8.220 -1.0098 -0.8517 -0.4894
  630TIP3    H223450   6.662   3.878   8.085  0.4020 -0.0770  0.0477
  631TIP3   OH223451   3.785   3.468   7.771 -0.1889  0.2156 -0.6481
  631TIP3    H123452   3.722   3.426   7.830 -2.1378  2.5571 -0.9207
  631TIP3    H223453   3.743   3.465   7.685 -0.3091  2.3906 -0.7166
  632TIP3   OH223454   0.134   2.599   6.994  0.0030 -0.2049 -0.1159
  632TIP3    H123455   0.202   2.575   7.057  0.9401  1.2038 -0.5326
  632TIP3    H223456   0.098   2.515   6.964  0.6289 -0.9352  1.1035
  633TIP3   OH223457   6.564   6.137   0.379  0.0344  0.2255 -0.2620
  633TIP3    H123458   6.483   6.144   0.329  0.2652  0.1608 -0.6488
  633TIP3    H223459   6.623   6.199   0.336  0.2323  0.1730 -0.0649
  634TIP3   OH223460   0.618   3.646   8.417  0.5988  0.6695 -0.1429
  634TIP3    H123461   0.663   3.571   8.457  0.4148  1.5370  1.8074
  634TIP3    H223462   0.680   3.718   8.425 -0.4754  1.5050  1.1658
  635TIP3   OH223463   1.932   3.928   1.663 -0.0782 -0.0621 -0.1951
  635TIP3    H123464   1.940   3.987   1.588 -0.3288 -0.1613 -0.2997
  635TIP3    H223465   2.018   3.886   1.670  0.7914  1.7526  1.0895
  636TIP3   OH223466   2.824   5.859   2.339  0.3324 -0.3193 -0.2330
  636TIP3    H123467   2.850   5.897   2.255  0.1282  0.6674  0.1247
  636TIP3    H223468   2.902   5.815   2.371  1.0023  0.9267 -0.0797
  637TIP3   OH223469   5.654   0.074   0.751 -0.7459  0.6964  0.4329
  637TIP3    H123470   5.589   0.008   0.774  0.5577 -0.2249  1.6399
  637TIP3    H223471   5.683   0.051   0.663  0.3637 -0.9394  1.1898
  638TIP3   OH223472   2.431   3.375   0.396 -0.8015  0.0714 -0.2548
  638TIP3    H123473   2.474   3.350   0.477  1.7891  2.4980 -0.7156
  638TIP3    H223474   2.347   3.411   0.423 -1.8500 -2.8953  0.8803
  639TIP3   OH223475   3.717   6.412   1.100 -0.0283 -0.8193  0.5459
  639TIP3    H123476   3.624   6.389   1.098 -0.2804  0.1711  0.0772
  639TIP3    H223477   3.742   6.402   1.192 -0.4531 -1.6264  0.5782
  640TIP3   OH223478   2.118   0.088   1.232 -0.0498  0.1016  0.2724
  640TIP3    H123479   2.124   0.159   1.168  0.1760 -1.5095 -1.5799
  640TIP3    H223480   2.162   0.014   1.190  0.3027 -0.9747  2.4031
  641TIP3   OH223481   1.755   1.384   7.517 -0.3851  0.2699  0.9835
  641TIP3    H123482   1.816   1.408   7.447 -1.3032 -3.2866 -1.3122
  641TIP3    H223483   1.811   1.370   7.594  1.5651 -1.2491 -0.6043
  642TIP3   OH223484   1.535   5.430   7.683 -0.6225  0.4266 -0.0994
  642TIP3    H123485   1.625   5.450   7.709 -0.7886  0.3238  0.5658
  642TIP3    H223486   1.520   5.484   7.605 -0.5798  1.7996  0.8187
  643TIP3   OH223487   3.513   0.902   6.742  0.1034 -0.1174 -0.1510
  643TIP3    H123488   3.560   0.981   6.712 -0.8786  0.6048  0.1619
  643TIP3    H223489   3.525   0.901   6.837 -1.2900  0.6291  0.0649
  644TIP3   OH223490   3.867   2.415   8.275 -0.2327  0.3872 -0.8431
  644TIP3    H123491   3.890   2.331   8.236  0.7842  0.4945 -0.4952
  644TIP3    H223492   3.823   2.463   8.205 -0.1384 -0.1426 -1.2707
  645TIP3   OH223493   4.719   6.170   8.580 -0.3228  0.1418 -0.2650
  645TIP3    H123494   4.646   6.227   8.557 -0.2004  0.0754 -0.8416
  645TIP3    H223495   4.793   6.205   8.531  0.7722  1.9651  2.4434
  646TIP3   OH223496   6.334   1.227   0.944 -0.2849 -0.0031  0.4663
  646TIP3    H123497   6.365   1.136   0.941 -1.1027 -0.2713 -0.5818
  646TIP3    H223498   6.277   1.230   1.021 -0.5055 -0.4801  0.3308
  647TIP3   OH223499   2.569   0.435   8.580 -0.0995  0.4329 -0.2682
  647TIP3    H123500   2.495   0.436   8.641 -0.6431 -0.0658 -0.9040
  647TIP3    H223501   2.548   0.366   8.518  1.4247 -0.4381  0.1520
  648TIP3   OH223502   0.869   0.396   2.451 -0.5040 -0.0546 -0.1193
  648TIP3    H123503   0.960   0.375   2.474 -0.4281  1.7413  1.5149
  648TIP3    H223504   0.869   0.491   2.440 -2.0425 -0.1188 -0.9173
  649TIP3   OH223505   4.691   2.587   1.006  0.7970  0.0757  0.8246
  649TIP3    H123506   4.622   2.649   1.030  0.1405 -0.5383  0.5732
  649TIP3    H223507   4.665   2.555   0.920  1.1274 -0.5549  0.9530
  650TIP3   OH223508   2.692   6.597   0.017  0.0409  0.0272 -0.1129
  650TIP3    H123509   2.782   6.580  -0.008 -0.1387 -1.2097  0.0595
  650TIP3    H223510   2.671   6.529   0.081 -0.8164  0.6768  0.3181
  651TIP3   OH223511   2.469   4.567   1.722 -0.4495  0.6638 -0.0084
  651TIP3    H123512   2.487   4.481   1.760 -2.7765 -0.1811 -0.6348
  651TIP3    H223513   2.492   4.629   1.791 -1.1344 -0.6177  1.4330
  652TIP3   OH223514   4.985   3.080   0.684  0.2710  0.7063 -0.4141
  652TIP3    H123515   4.972   3.002   0.631  0.5007  0.0439  0.4850
  652TIP3    H223516   5.061   3.060   0.739 -0.4391  1.0667  0.7235
  653TIP3   OH223517   4.230   5.288   7.418 -0.0801 -0.7275  0.3252
  653TIP3    H123518   4.282   5.265   7.496  0.5734  0.4659  0.2704
  653TIP3    H223519   4.198   5.204   7.385  2.5968 -1.6439 -0.1722
  654TIP3   OH223520   1.504   1.949   8.599  0.2170 -0.0831 -0.0896
  654TIP3    H123521   1.527   1.917   8.686  0.6445  1.9034  0.6026
  654TIP3    H223522   1.563   2.024   8.585  0.7091 -0.8196 -2.4394
  655TIP3   OH223523   0.507   2.360   7.795 -0.0442 -0.0882 -0.6903
  655TIP3    H123524   0.437   2.350   7.731  0.3636  2.0772 -1.5677
  655TIP3    H223525   0.575   2.299   7.766 -0.4646 -0.2103 -1.4427
  656TIP3   OH223526   5.175   4.231   0.432  0.3735  0.2999 -0.0161
  656TIP3    H123527   5.110   4.163   0.416  1.5766 -0.8814 -0.1263
  656TIP3    H223528   5.224   4.237   0.350  1.4689 -0.0684  0.5817
  657TIP3   OH223529   2.502   6.276   0.579 -0.0075 -0.0944 -0.2518
  657TIP3    H123530   2.459   6.200   0.617  0.8962 -1.4031 -1.7201
  657TIP3    H223531   2.440   6.348   0.592 -1.0240 -1.1235  0.8748
  658TIP3   OH223532   3.593   2.785   7.560  0.4976  0.3685  0.1498
  658TIP3    H123533   3.511   2.827   7.535  1.1876  0.9256 -1.2701
  658TIP3    H223534   3.634   2.760   7.477  0.4934 -2.4362  0.8862
  659TIP3   OH223535   5.429   5.797   8.110 -0.3345 -0.3019 -0.0780
  659TIP3    H123536   5.454   5.888   8.093  0.3324 -0.8303 -2.3187
  659TIP3    H223537   5.340   5.791   8.076 -0.9112 -0.1840  1.3477
  660TIP3   OH223538   3.372   1.859   6.629 -0.2938  0.3226 -0.0766
  660TIP3    H123539   3.278   1.878   6.630 -0.3831  0.0698 -1.2632
  660TIP3    H223540   3.408   1.921   6.566  0.2736  0.1581  0.0809
  661TIP3   OH223541   4.752   6.808   2.246 -0.4269 -0.1117  0.4746
  661TIP3    H123542   4.839   6.831   2.280 -0.8629  0.0957  1.4844
  661TIP3    H223543   4.743   6.715   2.263 -1.2855  0.2860  2.4930
  662TIP3   OH223544   4.037   2.577   6.653 -0.0089 -0.2078  0.5370
  662TIP3    H123545   3.947   2.595   6.629 -0.0706 -1.3276 -0.1497
  662TIP3    H223546   4.065   2.509   6.592  1.0664 -0.3927  1.2025
  663TIP3   OH223547   4.133   2.976   7.649  0.5910 -0.1766  0.3490
  663TIP3    H123548   4.193   2.999   7.579  0.7506  0.3210  0.6420
  663TIP3    H223549   4.118   3.058   7.696 -0.1877 -0.3238  0.3828
  664TIP3   OH223550   4.983   1.518   7.430 -0.7627  0.6067  0.2722
  664TIP3    H123551   4.959   1.523   7.338  0.2230 -0.2247 -0.0355
  664TIP3    H223552   5.001   1.609   7.455 -0.4104  0.7511 -0.5161
  665TIP3   OH223553   1.938   3.672   6.510  0.0459  0.2472 -0.3529
  665TIP3    H123554   1.933   3.767   6.505 -1.9281  0.2111  0.1073
  665TIP3    H223555   1.855   3.645   6.550  0.9451 -1.6066  0.4197
  666TIP3   OH223556   4.953   3.903   1.340  0.1301  0.1991  0.2483
  666TIP3    H123557   4.968   3.841   1.411  1.5309 -1.9527 -1.7952
  666TIP3    H223558   5.039   3.940   1.321  0.1152 -0.4796 -1.3293
  667TIP3   OH223559   6.400   6.786   7.578 -0.2119 -0.2720 -0.5391
  667TIP3    H123560   6.449   6.733   7.640 -0.7915  1.4641  1.5510
  667TIP3    H223561   6.308   6.774   7.603 -0.4286  0.8271 -0.7179
  668TIP3   OH223562   6.201   2.504   7.713 -0.2582 -0.0589 -0.2582
  668TIP3    H123563   6.162   2.484   7.628 -1.8599  1.2681  0.1149
  668TIP3    H223564   6.205   2.420   7.758  0.8779 -0.8380 -1.6977
  669TIP3   OH223565   3.793   0.272   6.963  0.3173 -0.7881  1.2123
  669TIP3    H123566   3.789   0.305   6.873  1.6891 -2.6020  0.4053
  669TIP3    H223567   3.708   0.295   7.001 -0.3023  0.0074 -0.5475
  670TIP3   OH223568   4.910   5.343   8.064 -0.1464 -0.5833 -0.1904
  670TIP3    H123569   4.965   5.328   8.141 -1.2908 -0.7401  0.6258
  670TIP3    H223570   4.863   5.261   8.051 -1.7719  0.2024  0.4586
  671TIP3   OH223571   5.315   1.228   2.431 -1.0929 -0.2880 -0.4591
  671TIP3    H123572   5.236   1.282   2.445 -1.3006 -0.0122 -2.4762
  671TIP3    H223573   5.379   1.289   2.394  0.0175 -0.5892  0.8621
  672TIP3   OH223574   2.924   6.129   0.033  0.1647 -0.2858  0.3567
  672TIP3    H123575   2.977   6.050   0.025  2.3517  1.2820 -2.3385
  672TIP3    H223576   2.980   6.190   0.081 -0.3153  0.5149 -0.0876
  673TIP3   OH223577   5.306   3.924   7.092  0.0860  0.3675 -0.0119
  673TIP3    H123578   5.352   3.996   7.048 -0.6181  0.7822 -0.0824
  673TIP3    H223579   5.279   3.866   7.021  0.3313  0.2195  0.0139
  674TIP3   OH223580   1.888   2.939   0.673 -0.4499 -0.2379  0.2720
  674TIP3    H123581   1.960   2.974   0.726 -0.0665 -0.7167  0.0712
  674TIP3    H223582   1.926   2.927   0.586 -0.8949 -0.0812  0.0543
  675TIP3   OH223583   3.350   3.916   0.657 -0.2044  0.1144  0.0923
  675TIP3    H123584   3.374   3.866   0.735  0.6644 -0.7524 -0.7053
  675TIP3    H223585   3.258   3.895   0.642 -1.0769  2.0650  2.1526
  676TIP3   OH223586   0.947   4.866   8.669 -0.6875  0.5841 -0.0418
  676TIP3    H123587   0.935   4.929   8.740 -0.4574  0.3325  0.2234
  676TIP3    H223588   0.863   4.822   8.661 -0.6995  0.5789  0.1080
  677TIP3   OH223589   3.222   5.155   0.267 -0.1065  0.0314 -0.0372
  677TIP3    H123590   3.286   5.108   0.213  0.2726 -0.0750  0.4992
  677TIP3    H223591   3.273   5.190   0.339 -0.9026 -1.4884  1.3406
  678TIP3   OH223592   0.729   6.340   7.225 -0.2825 -0.0103 -0.2985
  678TIP3    H123593   0.808   6.289   7.241 -1.0109 -0.9879  0.3367
  678TIP3    H223594   0.657   6.277   7.238 -1.1602  0.8366 -0.8900
  679TIP3   OH223595   5.784   2.162   7.349 -0.1840  0.4106  0.7338
  679TIP3    H123596   5.834   2.110   7.286 -1.3198 -0.8239  0.8068
  679TIP3    H223597   5.752   2.098   7.413 -0.8813  1.3304  1.3339
  680TIP3   OH223598   3.778   2.064   7.917 -0.5492 -0.3495  0.1120
  680TIP3    H123599   3.819   2.112   7.845  2.5432 -1.7101  0.7938
  680TIP3    H223600   3.749   1.981   7.877  2.3061 -1.6524  0.5177
  681TIP3   OH223601   1.470   6.373   8.292 -0.2132 -0.0052 -0.4257
  681TIP3    H123602   1.486   6.456   8.248  0.3898 -0.9588 -2.1381
  681TIP3    H223603   1.375   6.370   8.305 -0.4806  0.1618 -2.0900
  682TIP3   OH223604   6.869   2.785   7.746  0.6443  0.1284 -0.1886
  682TIP3    H123605   6.944   2.750   7.699  1.1938 -1.3025  1.6103
  682TIP3    H223606   6.907   2.834   7.819 -0.1676  0.7455 -0.1668
  683TIP3   OH223607   3.426   0.762   0.553 -0.5387  0.1947 -0.4198
  683TIP3    H123608   3.338   0.777   0.589 -0.2299  1.0110  0.0314
  683TIP3    H223609   3.454   0.849   0.523 -0.6387 -0.3968 -2.3472
  684TIP3   OH223610   0.268   5.495   8.008  0.1369  0.2429 -1.0572
  684TIP3    H123611   0.362   5.513   8.002  0.4418 -1.0258 -0.2873
  684TIP3    H223612   0.232   5.571   8.053  1.0771 -0.0581  0.2533
  685TIP3   OH223613   6.297   3.276   7.621 -0.3743 -0.5818  0.4097
  685TIP3    H123614   6.309   3.188   7.586 -0.3794 -1.0288  1.5162
  685TIP3    H223615   6.302   3.333   7.544  3.1319 -1.2012  0.0323
  686TIP3   OH223616   4.030   6.062   8.596  0.6292  0.5086 -0.1819
  686TIP3    H123617   4.043   6.135   8.536 -1.3982 -0.1138 -1.4917
  686TIP3    H223618   4.031   5.984   8.540 -0.6862 -0.1449  0.6540
  687TIP3   OH223619   0.536   0.582   7.394  0.2220  0.2638 -0.0905
  687TIP3    H123620   0.604   0.648   7.380 -0.0072  0.2778 -1.2532
  687TIP3    H223621   0.480   0.619   7.462 -0.0980  1.4351 -0.9739
  688TIP3   OH223622   2.733   0.612   0.049  0.1370 -0.3755 -0.4579
  688TIP3    H123623   2.672   0.674   0.090 -0.0643  1.2571 -3.0030
  688TIP3    H223624   2.676   0.548   0.006  0.1839  0.4182 -1.7567
  689TIP3   OH223625   0.104   3.515   8.577  0.3256 -0.0328  0.2854
  689TIP3    H123626   0.044   3.453   8.534 -0.6813  1.2632 -0.2417
  689TIP3    H223627   0.167   3.459   8.623  0.5961 -1.4843 -1.7064
  690TIP3   OH223628   2.907   6.413   0.892  0.5323  0.0156  0.6350
  690TIP3    H123629   2.924   6.462   0.971 -0.9031  0.5178  0.6646
  690TIP3    H223630   2.962   6.454   0.825  1.9353 -0.5737  1.4055
  691TIP3   OH223631   5.493   1.796   0.806  0.0141  0.4207 -0.0383
  691TIP3    H123632   5.560   1.864   0.800  1.1241 -0.7312 -4.8257
  691TIP3    H223633   5.533   1.728   0.861  1.6523  0.9372 -0.5286
  692TIP3   OH223634   0.205   5.166   8.073  0.1754  0.0175 -0.2513
  692TIP3    H123635   0.262   5.089   8.068 -0.7088 -0.6339 -0.6895
  692TIP3    H223636   0.147   5.148   8.147  0.3727  0.5570  0.0371
  693TIP3   OH223637   3.365   5.466   1.444  0.3669 -0.9153 -0.0183
  693TIP3    H123638   3.343   5.392   1.500  1.5284 -0.6461  0.8339
  693TIP3    H223639   3.430   5.515   1.494  0.3938  0.1051 -1.0192
  694TIP3   OH223640   5.728   2.912   0.001 -0.0723  0.0083 -0.5407
  694TIP3    H123641   5.801   2.934   0.059  0.9790 -1.9207 -1.0206
  694TIP3    H223642   5.763   2.843  -0.056 -2.0188 -0.3576 -1.3821
  695TIP3   OH223643   4.441   4.099   8.581 -0.2615  0.4125  0.7562
  695TIP3    H123644   4.483   4.077   8.664  1.1491 -2.2824 -0.5653
  695TIP3    H223645   4.380   4.027   8.564 -1.4388  1.5366 -0.0064
  696TIP3   OH223646   4.085   6.716   7.883  0.0026 -0.2165  0.3489
  696TIP3    H123647   4.143   6.706   7.808 -1.1093 -2.2174 -0.3128
  696TIP3    H223648   4.131   6.778   7.940  1.4619  0.3969 -1.3808
  697TIP3   OH223649   5.770   2.213   8.362 -0.4568  0.0885  0.0121
  697TIP3    H123650   5.784   2.138   8.420  1.1966 -0.9765 -1.6317
  697TIP3    H223651   5.679   2.206   8.334 -0.8887 -0.1425  1.4087
  698TIP3   OH223652   2.101   4.548   6.198  0.6942  0.5077 -0.5447
  698TIP3    H123653   2.147   4.470   6.228 -0.5244 -0.4760 -1.1534
  698TIP3    H223654   2.078   4.595   6.278 -1.6709 -1.5870  0.1476
  699TIP3   OH223655   5.794   1.489   8.645  0.0864 -0.3246  0.2145
  699TIP3    H123656   5.789   1.523   8.555  0.3486  0.6299  0.5513
  699TIP3    H223657   5.816   1.565   8.698 -2.3484 -0.3656  1.4210
  700TIP3   OH223658   0.446   3.543   0.278  0.7193 -0.2710  0.0726
  700TIP3    H123659   0.439   3.448   0.284  0.9494 -0.2286  1.1661
  700TIP3    H223660   0.513   3.567   0.342  0.0401  0.7142  0.4506
  701TIP3   OH223661   4.745   0.971   0.684  0.7852  0.2293 -0.7054
  701TIP3    H123662   4.700   0.973   0.600  2.2340 -0.0564 -1.5211
  701TIP3    H223663   4.801   0.893   0.679  2.0205  1.0413 -0.0968
  702TIP3   OH223664   2.352   5.708   0.638 -0.0191 -0.0704 -0.1289
  702TIP3    H123665   2.306   5.758   0.571 -0.6380  0.9546  1.0244
  702TIP3    H223666   2.423   5.766   0.667 -1.7417  0.9273  2.3988
  703TIP3   OH223667   0.146   4.547   7.771 -0.3305  0.3747 -0.2436
  703TIP3    H123668   0.060   4.504   7.774 -0.4555  0.5697 -0.8718
  703TIP3    H223669   0.139   4.608   7.698 -0.2361  1.6395  0.7716
  704TIP3   OH223670   0.576   3.698   7.347 -0.9986  0.1747 -0.9555
  704TIP3    H123671   0.659   3.683   7.391 -0.5146 -2.0366 -2.4656
  704TIP3    H223672   0.567   3.793   7.344  1.7023  0.4973 -1.1201
  705TIP3   OH223673   6.197   0.599   0.701 -0.0557 -0.5292  0.2094
  705TIP3    H123674   6.208   0.556   0.785  1.1543 -1.5245 -0.4154
  705TIP3    H223675   6.166   0.530   0.642 -0.6678  0.0941 -0.2205
  706TIP3   OH223676   1.647   5.571   7.077 -0.3759  0.4971 -0.3358
  706TIP3    H123677   1.707   5.584   7.004  0.4631 -0.2959  0.1866
  706TIP3    H223678   1.665   5.482   7.108 -2.5409 -0.1560 -0.7947
  707TIP3   OH223679   4.756   4.169   6.744  0.1292  0.2200  0.2266
  707TIP3    H123680   4.697   4.099   6.716  1.0106 -0.0925 -0.9269
  707TIP3    H223681   4.732   4.186   6.835 -0.7139 -0.9397  0.2398
  708TIP3   OH223682   2.459   3.773   1.607  0.2100 -0.1833  0.4827
  708TIP3    H123683   2.460   3.859   1.566 -1.0828 -0.4535 -0.1574
  708TIP3    H223684   2.460   3.791   1.701 -0.2253  0.5313  0.3548
  709TIP3   OH223685   2.496   1.911   6.086  0.3026 -0.4067 -0.0303
  709TIP3    H123686   2.469   1.826   6.050  0.2178 -0.4636  0.1671
  709TIP3    H223687   2.480   1.903   6.180  1.9501 -0.7943  0.2321
  710TIP3   OH223688   4.548   3.991   6.725 -0.2370 -0.4994  0.4581
  710TIP3    H123689   4.478   4.047   6.757 -1.8350 -0.7151 -2.3825
  710TIP3    H223690   4.504   3.912   6.693  1.3965 -1.1440 -0.3296
  711TIP3   OH223691   2.783   2.549   1.323 -0.1360  0.0277  0.3545
  711TIP3    H123692   2.717   2.578   1.260  0.8027  2.6879  0.4697
  711TIP3    H223693   2.866   2.579   1.286  0.6895 -0.4706  1.7290
  712TIP3   OH223694   5.599   0.308   2.588 -0.3613  0.4551 -0.2137
  712TIP3    H123695   5.690   0.295   2.563  0.8939  2.1609  2.9001
  712TIP3    H223696   5.578   0.396   2.556 -1.3857 -0.3341 -1.8776
  713TIP3   OH223697   4.416   1.405   1.419 -0.2889 -0.2136 -0.1270
  713TIP3    H123698   4.495   1.381   1.468 -0.8115 -1.5759  0.1090
  713TIP3    H223699   4.354   1.434   1.486 -0.4029 -0.3692 -0.1618
  714TIP3   OH223700   3.932   2.126   8.537  0.1335  0.8290  0.3584
  714TIP3    H123701   3.977   2.166   8.612  0.1335 -0.4138  1.0420
  714TIP3    H223702   3.993   2.138   8.464  1.6858 -0.9120  1.2925
  715TIP3   OH223703   1.427   1.166   7.138 -0.5168  0.4030  0.1932
  715TIP3    H123704   1.460   1.171   7.228  0.8064 -0.3282 -0.2193
  715TIP3    H223705   1.435   1.074   7.115  0.4690  0.7785 -1.1166
  716TIP3   OH223706   2.564   5.087   6.335  0.0005  0.1368 -0.0636
  716TIP3    H123707   2.606   5.032   6.401 -0.4591 -0.0143  0.1050
  716TIP3    H223708   2.636   5.134   6.294  0.5388 -1.3831 -0.9526
  717TIP3   OH223709   2.448   2.722   1.066 -0.4199 -0.1469 -0.6668
  717TIP3    H123710   2.437   2.627   1.075 -1.7498  0.1926  3.3820
  717TIP3    H223711   2.374   2.750   1.012 -0.3692 -1.3426 -1.3812
  718TIP3   OH223712   1.394   4.969   0.798  0.1031  0.0754  0.4638
  718TIP3    H123713   1.307   4.929   0.796  0.2827 -0.2970  0.0501
  718TIP3    H223714   1.408   4.991   0.890 -0.1636 -0.4465  0.6338
  719TIP3   OH223715   5.444   6.111   7.011  0.2886  0.1252  0.4825
  719TIP3    H123716   5.529   6.151   7.030 -0.0650  0.9414  0.4269
  719TIP3    H223717   5.414   6.158   6.933 -0.6081  0.4611  1.0229
  720TIP3   OH223718   4.063   6.275   7.711  0.4295 -0.0878 -0.1861
  720TIP3    H123719   4.016   6.268   7.628 -0.4912  1.0078  0.2147
  720TIP3    H223720   4.008   6.332   7.765  0.5463 -1.4902  1.5007
  721TIP3   OH223721   0.806   3.284   1.983  0.2329  0.1880  0.5862
  721TIP3    H123722   0.791   3.373   2.016 -0.4931  0.5453 -0.6096
  721TIP3    H223723   0.757   3.227   2.042 -1.1120  0.8167  0.1219
  722TIP3   OH223724   4.666   2.407   7.243 -0.2011 -0.6375 -0.0352
  722TIP3    H123725   4.646   2.314   7.256 -0.9474 -0.4221  0.4813
  722TIP3    H223726   4.650   2.422   7.150  0.6193 -1.1821 -0.2672
  723TIP3   OH223727   2.870   4.585   1.762 -0.4140 -0.5122  0.4033
  723TIP3    H123728   2.857   4.491   1.768 -1.6353 -0.3780  0.0603
  723TIP3    H223729   2.838   4.620   1.845 -0.2847 -0.3662  0.3938
  724TIP3   OH223730   1.971   5.844   1.211 -0.5574  0.2693 -0.4467
  724TIP3    H123731   1.979   5.933   1.245 -2.1471  0.8240 -1.4083
  724TIP3    H223732   1.909   5.852   1.138 -0.4306 -1.5656 -0.8002
  725TIP3   OH223733   1.051   2.037   7.664  0.2143  0.0846  0.4120
  725TIP3    H123734   1.066   1.994   7.580 -1.1176  0.0548  0.1654
  725TIP3    H223735   1.047   2.131   7.643 -3.5490 -0.0324 -0.2520
  726TIP3   OH223736   1.307   5.945   0.202  0.2468  0.6120  0.0283
  726TIP3    H123737   1.239   5.892   0.160 -1.2035  1.3064  1.4148
  726TIP3    H223738   1.343   5.998   0.131 -2.0565  1.6665 -0.4550
  727TIP3   OH223739   6.593   5.131   8.357 -0.0553 -0.2152 -0.3330
  727TIP3    H123740   6.641   5.214   8.352  0.2549 -0.4543 -3.9496
  727TIP3    H223741   6.661   5.064   8.357 -0.3439 -0.5487  1.1785
  728TIP3   OH223742   3.862   6.310   8.529 -0.1259 -0.7229 -0.5202
  728TIP3    H123743   3.792   6.280   8.587  0.4159 -1.4953 -0.2372
  728TIP3    H223744   3.941   6.304   8.582  0.2739 -0.7112 -1.1025
  729TIP3   OH223745   1.642   5.441   0.286 -0.0062 -0.0929 -0.4443
  729TIP3    H123746   1.658   5.479   0.199  0.5387  1.8337  0.4372
  729TIP3    H223747   1.691   5.497   0.346 -0.0831 -1.5926  1.0944
  730TIP3   OH223748   4.634   6.811   0.690 -0.6187  0.3225  0.1166
  730TIP3    H123749   4.612   6.904   0.690 -0.5284  0.3443  0.1786
  730TIP3    H223750   4.636   6.787   0.783 -1.0025  0.1739  0.0866
  731TIP3   OH223751   1.033   1.489   8.252  0.0588  0.3085  0.0441
  731TIP3    H123752   1.009   1.410   8.204 -1.3523 -0.6950  2.2652
  731TIP3    H223753   1.126   1.477   8.273  0.5725  0.5325 -1.8470
  732TIP3   OH223754   0.616   0.084   7.424  0.7532  0.1558 -0.0982
  732TIP3    H123755   0.595   0.166   7.380  2.0614 -0.0462 -1.1579
  732TIP3    H223756   0.624   0.108   7.516 -1.2837  0.7278 -0.0127
  733TIP3   OH223757   4.676   2.466   7.536 -0.5892 -0.3425 -0.2866
  733TIP3    H123758   4.641   2.446   7.449 -3.1684  1.8271  0.0952
  733TIP3    H223759   4.634   2.403   7.594 -0.7376 -0.2845 -0.3299
  734TIP3   OH223760   4.927   1.751   1.139  0.4116  0.1078  0.1776
  734TIP3    H123761   4.877   1.791   1.067 -1.2537  0.3867  1.4156
  734TIP3    H223762   4.866   1.687   1.177  1.4845 -0.4785  0.9491
  735TIP3   OH223763   0.363   2.188   7.187 -1.3227 -0.3439  0.5490
  735TIP3    H123764   0.325   2.156   7.106  1.6035 -0.0070 -1.1091
  735TIP3    H223765   0.323   2.274   7.199 -0.3221  0.5421 -1.7873
  736TIP3   OH223766   1.940   3.022   8.469 -0.0691  0.4685  0.4513
  736TIP3    H123767   1.936   3.112   8.502 -2.0350  0.5572  0.0817
  736TIP3    H223768   2.031   2.995   8.484  0.2579  2.0893  1.6867
  737TIP3   OH223769   3.645   5.952   7.665  0.6581 -0.4966  0.1490
  737TIP3    H123770   3.610   5.878   7.715  0.1501 -0.6801 -0.4603
  737TIP3    H223771   3.581   6.023   7.680 -0.2410 -0.9582 -1.3060
  738TIP3   OH223772   5.655   3.543   1.240  0.0075 -0.1851 -0.0124
  738TIP3    H123773   5.564   3.575   1.239  0.0066 -0.1857  0.0578
  738TIP3    H223774   5.692   3.575   1.158 -0.1884 -0.5695 -0.2499
  739TIP3   OH223775   0.541   5.004   7.966  0.4666  0.3016  0.0196
  739TIP3    H123776   0.508   4.922   7.929 -0.9294  0.5202  0.7362
  739TIP3    H223777   0.547   4.988   8.060  0.7210  0.8485  0.1024
  740TIP3   OH223778   0.138   0.457   8.287  0.4839 -0.4622 -0.2624
  740TIP3    H123779   0.137   0.551   8.302  0.0075 -0.5619  0.3839
  740TIP3    H223780   0.085   0.421   8.358  0.4935 -1.2004 -0.6208
  741TIP3   OH223781   4.977   1.527   7.157  0.4200 -0.1981 -0.3467
  741TIP3    H123782   4.929   1.447   7.138 -1.7054  1.0629 -0.5694
  741TIP3    H223783   5.024   1.546   7.076 -0.5812 -0.2268 -0.9548
  742TIP3   OH223784   0.841   6.280   8.657  0.3671 -0.0786 -0.2084
  742TIP3    H123785   0.800   6.217   8.716 -1.2592 -0.1541 -1.3556
  742TIP3    H223786   0.931   6.287   8.689  0.0721 -1.5472  1.0916
  743TIP3   OH223787   3.886   3.968   1.924  0.2633  0.5213 -0.1262
  743TIP3    H123788   3.828   4.042   1.942  1.3753  1.0372  1.5475
  743TIP3    H223789   3.830   3.890   1.935 -0.4836  1.0443 -0.1469
  744TIP3   OH223790   1.061   1.920   0.224 -0.1336 -0.0258  0.1801
  744TIP3    H123791   1.111   1.965   0.157 -0.5440  0.0303 -0.0916
  744TIP3    H223792   1.104   1.835   0.233 -0.5657 -0.3475 -0.7373
  745TIP3   OH223793   6.408   2.815   0.299 -0.0282 -0.0253 -0.2706
  745TIP3    H123794   6.385   2.732   0.342 -0.7128  0.1871 -0.2201
  745TIP3    H223795   6.468   2.857   0.361 -1.0272  0.2897  0.5145
  746TIP3   OH223796   1.668   1.660   7.277 -0.3240 -0.0850  0.4118
  746TIP3    H123797   1.619   1.700   7.348 -0.7412 -1.6998  1.0656
  746TIP3    H223798   1.619   1.581   7.254  0.6161 -0.4012 -0.6274
  747TIP3   OH223799   2.997   5.073   7.635  0.6919  0.1965  0.4507
  747TIP3    H123800   3.000   5.002   7.700 -0.3104  1.6338  2.1692
  747TIP3    H223801   2.997   5.028   7.551 -1.0571 -1.9281  1.4754
  748TIP3   OH223802   5.460   4.949   1.534 -0.1541  0.3121 -0.1918
  748TIP3    H123803   5.538   4.930   1.481 -0.2093  1.1069 -0.5714
  748TIP3    H223804   5.390   4.898   1.493 -0.0671  0.4545 -0.5203
  749TIP3   OH223805   2.670   1.447   6.939 -0.2115 -0.5144 -0.4651
  749TIP3    H123806   2.759   1.421   6.963 -0.5793 -0.7436  0.7038
  749TIP3    H223807   2.652   1.396   6.860  0.8600 -0.1003 -1.0037
  750TIP3   OH223808   3.253   3.823   8.544 -0.0966  0.0561 -0.1311
  750TIP3    H123809   3.177   3.767   8.558  0.9786 -0.9743  1.9191
  750TIP3    H223810   3.328   3.763   8.540  1.0574  1.2432  1.8353
  751TIP3   OH223811   0.227   1.006   8.507 -0.4154 -0.5148  0.1081
  751TIP3    H123812   0.226   1.059   8.587 -0.9982 -0.4020  0.0311
  751TIP3    H223813   0.250   1.067   8.438 -3.5855  0.3112 -0.4035
  752TIP3   OH223814   6.432   5.356   0.672 -0.3474  0.6901 -0.3208
  752TIP3    H123815   6.344   5.320   0.660 -0.5528  0.8982  0.4861
  752TIP3    H223816   6.434   5.434   0.616 -0.4926  0.3913 -0.7456
  753TIP3   OH223817   4.278   0.746   6.832  0.0582 -0.5361  0.0043
  753TIP3    H123818   4.332   0.819   6.802 -0.5923  0.1804  0.5312
  753TIP3    H223819   4.313   0.670   6.786 -0.0942  0.3152 -1.5960
  754TIP3   OH223820   1.322   6.778   7.486  0.0903 -0.3571  0.9840
  754TIP3    H123821   1.233   6.760   7.518 -0.9253  0.2855 -1.3122
  754TIP3    H223822   1.337   6.711   7.420  1.5357 -0.7504  1.6891
  755TIP3   OH223823   3.479   4.500   8.401  0.0372 -0.5415 -0.0600
  755TIP3    H123824   3.407   4.533   8.454  0.7726  0.4743  0.3535
  755TIP3    H223825   3.471   4.405   8.404  0.0164 -0.5002  1.7971
  756TIP3   OH223826   4.821   1.262   1.711 -0.7446  0.5634  0.6653
  756TIP3    H123827   4.893   1.324   1.700  1.8170 -1.6609  3.1446
  756TIP3    H223828   4.746   1.315   1.737  0.2482  2.8909 -0.9421
  757TIP3   OH223829   6.432   6.679   6.624 -0.3961  0.1840 -0.4979
  757TIP3    H123830   6.448   6.766   6.661  0.2294 -0.1788  0.1140
  757TIP3    H223831   6.491   6.672   6.549  0.7246 -0.2902  0.3949
  758TIP3   OH223832   4.297   5.649   1.653 -0.8441 -0.2633  0.8407
  758TIP3    H123833   4.298   5.558   1.682  0.4513 -0.3811  0.4846
  758TIP3    H223834   4.205   5.667   1.633 -0.9373 -1.9404 -0.4637
  759TIP3   OH223835   3.215   1.864   8.137 -0.4076  0.9084  0.1700
  759TIP3    H123836   3.131   1.857   8.182 -0.9861  2.6438 -0.5622
  759TIP3    H223837   3.248   1.950   8.162  0.6318  0.7027 -0.4405
  760TIP3   OH223838   4.093   0.642   8.535 -0.0484 -0.6551 -0.1548
  760TIP3    H123839   4.079   0.693   8.456  2.2073 -0.3910 -0.4448
  760TIP3    H223840   4.075   0.552   8.510 -2.8779 -0.2224  0.0440
  761TIP3   OH223841   6.060   3.281   8.182  0.7724  0.0750 -0.2348
  761TIP3    H123842   6.146   3.265   8.143  1.1628  2.5571 -0.5309
  761TIP3    H223843   6.061   3.373   8.207 -2.1359  0.4605 -1.1218
  762TIP3   OH223844   2.256   3.517   8.513  0.1467 -0.0079 -0.0231
  762TIP3    H123845   2.240   3.603   8.550 -0.9452  0.6184 -1.8482
  762TIP3    H223846   2.303   3.470   8.582  0.7341  2.0069  1.0291
  763TIP3   OH223847   0.734   4.201   1.819 -0.2416  0.1991 -0.3429
  763TIP3    H123848   0.804   4.137   1.834  1.2748  1.3168 -2.1157
  763TIP3    H223849   0.720   4.241   1.905  1.0006 -0.3605  0.1510
  764TIP3   OH223850   6.093   2.691   2.544 -0.3974  0.1111 -0.0512
  764TIP3    H123851   6.099   2.773   2.592  2.0536 -0.4471  0.7240
  764TIP3    H223852   6.013   2.650   2.577 -0.1635  0.9346  1.6508
  765TIP3   OH223853   6.715   5.798   7.508  0.4678  0.2345  0.4684
  765TIP3    H123854   6.638   5.853   7.493 -0.0426 -0.8865 -1.2765
  765TIP3    H223855   6.684   5.731   7.570  0.1798  0.0845  0.1655
  766TIP3   OH223856   4.573   1.455   0.080 -0.2122 -0.2572  0.2686
  766TIP3    H123857   4.631   1.474   0.153 -1.4069  2.4487  0.6386
  766TIP3    H223858   4.605   1.511   0.009  0.7933 -2.6646 -1.2976
  767TIP3   OH223859   5.157   6.747   0.684 -0.2392 -0.2332 -0.5345
  767TIP3    H123860   5.177   6.721   0.774 -2.6728  2.2288  0.8723
  767TIP3    H223861   5.112   6.672   0.647  0.4068 -1.1326  0.4399
  768TIP3   OH223862   3.763   3.612   5.983  0.0805 -0.4005 -0.2131
  768TIP3    H123863   3.797   3.687   5.933 -0.4403 -0.1823 -0.2481
  768TIP3    H223864   3.769   3.639   6.074 -0.3706 -0.2012 -0.2403
  769TIP3   OH223865   0.230   2.127   1.321  0.3859  0.1519 -0.4219
  769TIP3    H123866   0.144   2.156   1.352  0.8121  1.4185 -0.3887
  769TIP3    H223867   0.285   2.126   1.399  0.2221 -1.4613 -0.2906
  770TIP3   OH223868   0.630   3.341   7.588  0.0328  0.6716  0.0648
  770TIP3    H123869   0.692   3.406   7.622 -0.3416  0.5470  1.0177
  770TIP3    H223870   0.644   3.264   7.642  0.3380  0.0065 -0.9428
  771TIP3   OH223871   3.812   4.804   6.972 -0.1316 -0.1826 -0.3534
  771TIP3    H123872   3.759   4.741   6.923  0.2027  0.0255 -1.0073
  771TIP3    H223873   3.843   4.865   6.905 -0.6461  0.8243  0.3050
  772TIP3   OH223874   2.300   1.517   0.305 -0.2946 -0.6546  0.9187
  772TIP3    H123875   2.340   1.430   0.311  1.0656  0.0547  3.1645
  772TIP3    H223876   2.314   1.557   0.391 -1.7447  1.4457  0.2715
  773TIP3   OH223877   5.066   6.683   6.945 -0.3410 -0.2179 -0.1586
  773TIP3    H123878   5.114   6.761   6.975  2.5832 -0.7916 -2.7850
  773TIP3    H223879   5.015   6.714   6.870 -0.5220 -0.5295 -0.1653
  774TIP3   OH223880   6.490   6.486   8.529 -0.2973  0.2097  0.3357
  774TIP3    H123881   6.501   6.497   8.435  1.9102  0.1707  0.5243
  774TIP3    H223882   6.537   6.560   8.568  1.1284 -1.1569  1.3821
  775TIP3   OH223883   4.044   5.854   8.408  0.0301 -0.5760  0.3856
  775TIP3    H123884   3.992   5.786   8.365  0.0848  0.0535 -0.7226
  775TIP3    H223885   4.132   5.843   8.372 -0.3269  1.1599 -1.2295
  776TIP3   OH223886   6.397   1.978   7.798  0.6670  0.2591 -0.3975
  776TIP3    H123887   6.382   1.939   7.712 -1.6180  1.8151 -0.7784
  776TIP3    H223888   6.489   2.007   7.796  0.8319 -0.3047 -2.0441
  777TIP3   OH223889   1.904   4.774   0.192 -0.0823 -0.2644  0.0235
  777TIP3    H123890   1.922   4.746   0.282  0.3904  0.0346  0.0222
  777TIP3    H223891   1.809   4.780   0.188 -0.1404 -0.9121  0.3156
  778TIP3   OH223892   2.962   1.837   7.917 -0.2856  0.5645 -0.0432
  778TIP3    H123893   2.963   1.837   8.013 -0.2603  2.1561 -0.0191
  778TIP3    H223894   3.042   1.884   7.892  0.4383 -1.0251 -0.8925
  779TIP3   OH223895   5.683   0.705   7.392 -0.1474  0.2299 -0.2081
  779TIP3    H123896   5.745   0.675   7.325 -1.1121  0.4009 -1.2052
  779TIP3    H223897   5.667   0.797   7.371  0.0509  0.4769  0.6771
  780TIP3   OH223898   1.872   5.277   6.543 -0.0891 -0.1802  0.1030
  780TIP3    H123899   1.963   5.290   6.518  0.2316 -0.5756  1.0411
  780TIP3    H223900   1.822   5.312   6.469  0.8160 -1.1067 -0.9864
  781TIP3   OH223901   5.655   4.196   0.820 -0.0201 -0.2998 -0.2879
  781TIP3    H123902   5.675   4.104   0.806  1.1204 -0.0755 -0.2742
  781TIP3    H223903   5.741   4.236   0.838 -0.4287  0.8532 -0.8475
  782TIP3   OH223904   2.280   1.910   2.568  0.5124  0.7307  0.0007
  782TIP3    H123905   2.254   1.818   2.570  2.6760  0.0588 -0.0398
  782TIP3    H223906   2.232   1.948   2.494 -0.6544 -0.2544  0.2247
  783TIP3   OH223907   4.652   0.264   1.379  0.5642 -0.2280 -0.0560
  783TIP3    H123908   4.705   0.295   1.452 -0.0181  1.1090 -0.1797
  783TIP3    H223909   4.716   0.243   1.310  1.0303 -0.3893  0.4188
  784TIP3   OH223910   6.461   5.678   1.756  0.2657 -0.2470 -0.3309
  784TIP3    H123911   6.553   5.659   1.774  0.5632  0.1266 -1.3826
  784TIP3    H223912   6.412   5.614   1.808  1.1178 -0.4478  0.2340
  785TIP3   OH223913   2.031   1.964   7.689  0.5460  0.0179 -0.3214
  785TIP3    H123914   2.024   1.897   7.757  1.8651 -0.5646 -0.7334
  785TIP3    H223915   2.109   2.015   7.713 -0.1620  1.1208 -0.2767
  786TIP3   OH223916   2.861   2.911   0.923  0.3286 -0.1289  0.1278
  786TIP3    H123917   2.769   2.886   0.912  0.4389 -0.4873 -0.0106
  786TIP3    H223918   2.860   2.975   0.994  0.1145 -1.0986  1.0390
  787TIP3   OH223919   0.080   0.113   7.234 -0.4035  0.0879  0.2557
  787TIP3    H123920   0.156   0.165   7.261 -0.7602  0.6884  0.1279
  787TIP3    H223921   0.070   0.047   7.302 -1.1867  1.4646  1.5384
  788TIP3   OH223922   5.028   1.068   2.237 -0.0062 -0.5886 -0.0202
  788TIP3    H123923   4.996   1.154   2.210  1.0514 -0.6273 -1.5121
  788TIP3    H223924   5.027   1.071   2.333 -1.4526  0.5040 -0.0352
  789TIP3   OH223925   3.318   2.942   0.080 -0.1237 -0.2017 -0.4246
  789TIP3    H123926   3.284   3.025   0.047  0.2075  0.1725  0.1552
  789TIP3    H223927   3.384   2.916   0.016 -0.6183 -0.3022 -0.8989
  790TIP3   OH223928   0.341   4.241   1.027  0.0698  0.3876  0.1686
  790TIP3    H123929   0.344   4.204   0.939  1.4371  1.3336 -0.2271
  790TIP3    H223930   0.432   4.242   1.056 -0.0093  2.4781  0.5232
  791TIP3   OH223931   2.722   5.028   0.575 -0.4363 -0.4329 -0.6116
  791TIP3    H123932   2.785   5.078   0.627 -0.9470 -0.1589 -0.2456
  791TIP3    H223933   2.700   5.086   0.502 -3.3445  1.2524  1.3966
  792TIP3   OH223934   1.682   0.295   0.225 -0.2671  0.0865 -0.0464
  792TIP3    H123935   1.726   0.252   0.299 -0.1716 -0.2951 -0.3213
  792TIP3    H223936   1.731   0.266   0.148  0.0378  0.9973 -0.2121
  793TIP3   OH223937   5.373   6.434   1.262 -0.0939 -0.1802  0.3185
  793TIP3    H123938   5.418   6.353   1.284  0.0603 -0.1698  0.0511
  793TIP3    H223939   5.296   6.405   1.212 -0.3760 -0.1974  0.7554
  794TIP3   OH223940   4.366   0.079   8.260  0.3151  0.1060  0.1141
  794TIP3    H123941   4.381   0.172   8.276 -0.6325  0.9324 -2.9782
  794TIP3    H223942   4.435   0.034   8.308 -0.3449  2.2036  3.3191
  795TIP3   OH223943   3.789   5.550   8.008 -0.4368  0.2581 -1.0509
  795TIP3    H123944   3.804   5.602   8.087 -1.5003 -0.2979 -0.4605
  795TIP3    H223945   3.819   5.462   8.031 -0.2156  0.2216 -1.4667
  796TIP3   OH223946   4.992   1.944   1.570  0.3046 -0.1192 -0.2985
  796TIP3    H123947   4.949   1.925   1.653  1.4695  2.1636  0.9378
  796TIP3    H223948   5.084   1.924   1.585  0.6566  1.0501 -0.7437
  797TIP3   OH223949   1.225   1.372   0.093  0.5084 -0.5614  0.2914
  797TIP3    H123950   1.130   1.369   0.095  0.5026  0.0086  1.7174
  797TIP3    H223951   1.251   1.293   0.046 -0.6360 -1.1334  0.5996
  798TIP3   OH223952   4.597   0.207   0.024  0.5926 -0.2580 -0.0529
  798TIP3    H123953   4.666   0.189  -0.040  0.8353  1.5424 -0.3387
  798TIP3    H223954   4.593   0.302   0.030 -0.9865 -0.3411  0.9325
  799TIP3   OH223955   3.484   4.692   1.690 -0.6631  0.4235  0.4484
  799TIP3    H123956   3.572   4.729   1.700 -1.2276  1.6508  1.1952
  799TIP3    H223957   3.480   4.622   1.755  0.6803 -1.5605 -1.4911
  800TIP3   OH223958   1.281   2.434   7.714 -0.2680  0.5941  0.2301
  800TIP3    H123959   1.345   2.486   7.665  0.9851 -1.0809 -0.0123
  800TIP3    H223960   1.331   2.397   7.787 -0.9776 -0.7021  0.0781
  801TIP3   OH223961   1.634   4.720   0.246  0.2071  0.2816  0.0254
  801TIP3    H123962   1.576   4.695   0.174  0.4719 -3.8619  1.0345
  801TIP3    H223963   1.574   4.737   0.319  0.0838 -1.9730  0.5078
  802TIP3   OH223964   0.656   6.483   7.000  0.7920 -0.0499 -0.1093
  802TIP3    H123965   0.673   6.421   7.071  0.6835  1.5934  1.4599
  802TIP3    H223966   0.679   6.437   6.920  0.7344 -2.0643  0.9827
  803TIP3   OH223967   1.085   3.317   0.546 -0.3389 -0.0662  0.7765
  803TIP3    H123968   1.129   3.397   0.519 -0.1692 -0.4109  0.0039
  803TIP3    H223969   1.152   3.267   0.592 -0.2083 -0.1365  0.5110
  804TIP3   OH223970   1.238   3.178   0.089  0.8307  0.0843 -0.1655
  804TIP3    H123971   1.195   3.248   0.040  1.2328 -0.3763 -1.2232
  804TIP3    H223972   1.175   3.152   0.156  0.6534  1.4052  0.1956
  805TIP3   OH223973   4.533   1.365   7.336  0.2420  0.5626 -0.9570
  805TIP3    H123974   4.623   1.364   7.369 -0.1184  0.7713  0.0706
  805TIP3    H223975   4.518   1.275   7.305  0.4952  0.2765 -0.2696
  806TIP3   OH223976   4.397   0.605   0.042 -0.1688 -0.3239  0.0683
  806TIP3    H123977   4.386   0.616   0.137 -1.2333  0.4294 -0.1341
  806TIP3    H223978   4.348   0.525   0.022  0.1285 -0.5320  0.1557
  807TIP3   OH223979   2.273   5.602   6.372 -0.1546 -0.1337  0.5207
  807TIP3    H123980   2.301   5.642   6.291 -0.9002  0.5425  0.5879
  807TIP3    H223981   2.329   5.525   6.381  1.0178  0.6581  0.1905
  808TIP3   OH223982   5.307   0.507   1.241  0.0824  0.1280 -0.6461
  808TIP3    H123983   5.212   0.505   1.244  0.1207 -1.9983  1.6956
  808TIP3    H223984   5.333   0.558   1.318  0.8365 -0.0873 -0.7482
  809TIP3   OH223985   2.775   3.907   7.736 -0.0222 -0.0202 -0.1713
  809TIP3    H123986   2.689   3.904   7.693 -1.4881  0.4260  2.5105
  809TIP3    H223987   2.768   3.981   7.796  3.0182  1.2947 -1.2738
  810TIP3   OH223988   3.502   4.300   1.144  0.3001 -0.1745 -0.1897
  810TIP3    H123989   3.478   4.302   1.237  2.2072  2.6052  0.3426
  810TIP3    H223990   3.596   4.315   1.143  0.5379 -1.3456 -2.5860
  811TIP3   OH223991   2.812   5.919   8.508  0.7108 -0.3597  0.9837
  811TIP3    H123992   2.897   5.935   8.467  0.4147 -0.3105  0.3760
  811TIP3    H223993   2.804   5.824   8.510  0.3681 -0.3501  0.1717
  812TIP3   OH223994   0.987   2.283   0.613  0.0024  0.1566 -0.0025
  812TIP3    H123995   0.926   2.348   0.647 -0.3310 -0.2180  0.1144
  812TIP3    H223996   0.976   2.287   0.518  0.1722  0.4547 -0.0112
  813TIP3   OH223997   4.056   5.961   7.527 -0.2304 -0.3872  0.1422
  813TIP3    H123998   4.150   5.955   7.543 -0.2315  0.0731  0.3275
  813TIP3    H223999   4.043   5.919   7.442  0.0432 -1.1134  0.4555
  814TIP3   OH224000   0.163   2.230   7.446 -0.4348 -0.2293 -0.0920
  814TIP3    H124001   0.210   2.253   7.366  1.8741 -0.0378  1.2351
  814TIP3    H224002   0.178   2.135   7.456  2.1786  0.2626  1.7409
  815TIP3   OH224003   1.057   6.275   0.126  0.1480  0.6613  0.9211
  815TIP3    H124004   0.996   6.245   0.194  0.4083  2.2299  1.9095
  815TIP3    H224005   1.112   6.339   0.171  2.9515 -1.0887  0.2402
  816TIP3   OH224006   4.699   1.045   7.723 -0.3411 -0.2450  0.4577
  816TIP3    H124007   4.623   1.005   7.682 -0.8632  2.1736 -1.1604
  816TIP3    H224008   4.667   1.075   7.809 -2.0331  2.7057 -1.0297
  817TIP3   OH224009   4.624   6.867   1.780  0.2996 -0.0781  0.6791
  817TIP3    H124010   4.697   6.895   1.835  0.8502  2.8630 -1.2959
  817TIP3    H224011   4.548   6.871   1.837  1.4352 -1.9158  2.4254
  818TIP3   OH224012   2.982   4.930   1.500 -0.3097  0.0145  0.0347
  818TIP3    H124013   2.927   4.918   1.578  1.5283  1.4729  1.6661
  818TIP3    H224014   2.987   5.025   1.489  1.9193 -0.0623 -0.0008
  819TIP3   OH224015   1.914   4.423   0.196 -0.0072  0.7762 -0.2622
  819TIP3    H124016   1.899   4.488   0.265 -1.1821  2.0755 -1.6820
  819TIP3    H224017   1.831   4.375   0.190  0.5433 -0.2776  0.1234
  820TIP3   OH224018   1.428   5.414   7.264  0.4198  0.1258  0.5313
  820TIP3    H124019   1.409   5.486   7.324  1.5614  1.5952 -0.7496
  820TIP3    H224020   1.382   5.438   7.183  0.9562 -0.4884  0.0365
  821TIP3   OH224021   3.084   5.508   6.510  1.0021  0.3433 -0.8581
  821TIP3    H124022   3.119   5.422   6.485  0.0023 -0.3350 -0.0064
  821TIP3    H224023   3.048   5.494   6.597  0.1446  1.4447 -1.0286
  822TIP3   OH224024   3.797   0.044   7.484 -0.0349  0.4466 -0.4598
  822TIP3    H124025   3.887   0.038   7.452  0.7575 -0.4995  1.7414
  822TIP3    H224026   3.765  -0.046   7.483 -0.6052  0.6406 -0.2317
  823TIP3   OH224027   5.803   4.491   1.053 -0.4401  0.4552 -0.1168
  823TIP3    H124028   5.810   4.569   1.108 -0.3697 -0.5963  1.4256
  823TIP3    H224029   5.735   4.513   0.989  1.0887  2.5613 -1.1366
  824TIP3   OH224030   6.190   2.222   0.214  0.2521 -0.5489 -0.8292
  824TIP3    H124031   6.195   2.159   0.142  2.8661 -1.3511 -0.0452
  824TIP3    H224032   6.170   2.169   0.291 -0.8635  0.0843 -0.6568
  825TIP3   OH224033   2.783   6.508   7.162 -0.2086  0.2509 -0.8082
  825TIP3    H124034   2.769   6.542   7.250 -1.8881 -2.3738  0.0268
  825TIP3    H224035   2.759   6.581   7.104 -1.1650  1.3312  0.8749
  826TIP3   OH224036   4.633   0.592   1.346  0.5162  0.3402 -0.3062
  826TIP3    H124037   4.692   0.541   1.401 -0.9179 -2.2091 -1.0132
  826TIP3    H224038   4.690   0.633   1.281  1.4944 -3.8128 -2.3716
  827TIP3   OH224039   4.833   5.565   8.221  0.0624  0.9681  0.0129
  827TIP3    H124040   4.846   5.477   8.186 -0.6827  0.3482  1.2065
  827TIP3    H224041   4.760   5.600   8.170  0.3153  0.8694 -0.4199
  828TIP3   OH224042   6.593   5.632   7.690 -0.0751  0.5220  0.2657
  828TIP3    H124043   6.508   5.623   7.732  0.1988  0.9108  0.9251
  828TIP3    H224044   6.656   5.629   7.762  0.2944  3.2057  0.1544
  829TIP3   OH224045   3.275   5.458   7.510  0.3069 -0.4224 -0.2721
  829TIP3    H124046   3.314   5.396   7.448  1.5948 -0.1946  0.2836
  829TIP3    H224047   3.227   5.403   7.572  0.9428 -0.8280 -0.1299
  830TIP3   OH224048   1.828   1.596   7.068  0.4235  0.6646  0.3938
  830TIP3    H124049   1.780   1.513   7.057 -0.2677  1.3044 -2.0534
  830TIP3    H224050   1.804   1.626   7.155 -1.7111 -0.2607  0.1843
  831TIP3   OH224051   6.185   3.993   8.505  0.2746 -0.0276 -0.4262
  831TIP3    H124052   6.124   4.065   8.517  2.5682  1.7662  1.6517
  831TIP3    H224053   6.211   3.969   8.595 -0.0564 -3.1883 -1.0637
  832TIP3   OH224054   4.524   4.286   7.605 -0.0314  0.3570  0.4483
  832TIP3    H124055   4.524   4.250   7.694 -0.9403  0.3594  0.4582
  832TIP3    H224056   4.578   4.224   7.555  0.2381  0.1897  0.9313
  833TIP3   OH224057   5.137   5.662   6.762  0.3535  0.0135  0.2719
  833TIP3    H124058   5.044   5.640   6.750  0.3165  0.7488 -0.9544
  833TIP3    H224059   5.152   5.737   6.705  1.6986 -0.0445  0.5070
  834TIP3   OH224060   0.067   2.238   0.372 -0.3714 -0.1212 -0.4119
  834TIP3    H124061   0.098   2.323   0.342  0.7983 -0.5101 -0.3422
  834TIP3    H224062   0.082   2.179   0.298  1.4599 -0.8403  0.4669
  835TIP3   OH224063   5.892   6.725   6.619  0.0808  0.3306 -0.2974
  835TIP3    H124064   5.877   6.783   6.694  1.1836  1.6914 -1.0832
  835TIP3    H224065   5.987   6.725   6.608  0.1414 -1.7519 -0.2724
  836TIP3   OH224066   1.911   6.244   6.908  0.6127 -0.5857  0.4061
  836TIP3    H124067   1.971   6.313   6.935  0.9721 -1.1979  1.2596
  836TIP3    H224068   1.965   6.164   6.908 -0.0795 -1.0642  0.7092
  837TIP3   OH224069   5.317   2.644   1.024 -0.4211  0.2180  0.0929
  837TIP3    H124070   5.355   2.572   0.973 -0.2653  0.9479 -0.8658
  837TIP3    H224071   5.389   2.707   1.033 -0.6481  0.4029  0.6196
  838TIP3   OH224072   2.759   2.022   1.862  0.1730 -0.2079 -0.0567
  838TIP3    H124073   2.724   1.934   1.847  2.2412 -0.9043 -1.1485
  838TIP3    H224074   2.796   2.047   1.778  0.5824  1.2695  0.5452
  839TIP3   OH224075   2.963   2.417   7.710 -0.0298  0.4168  0.0804
  839TIP3    H124076   2.986   2.507   7.690 -1.7249  1.2721  1.6139
  839TIP3    H224077   2.943   2.418   7.804  3.6961 -2.4207  1.1266
  840TIP3   OH224078   6.752   5.433   8.670  0.3299  0.2365 -0.1501
  840TIP3    H124079   6.666   5.422   8.629  0.9332  0.4598 -1.5174
  840TIP3    H224080   6.798   5.494   8.613  0.8212  1.5036  1.4966
  841TIP3   OH224081   3.616   2.230   8.141  0.2079  0.2971 -0.0047
  841TIP3    H124082   3.616   2.303   8.203 -1.0308  1.8458 -1.7035
  841TIP3    H224083   3.631   2.152   8.195  1.3572  1.7516  1.9140
  842TIP3   OH224084   6.646   6.766   8.583  0.2151 -0.4564  0.2488
  842TIP3    H124085   6.604   6.849   8.606 -0.8434 -0.9804  0.2507
  842TIP3    H224086   6.677   6.779   8.493  1.9645  0.6595  0.9667
  843TIP3   OH224087   0.806   1.134   0.839  0.3034 -0.2361  0.2108
  843TIP3    H124088   0.863   1.069   0.800 -0.7368 -0.6470 -0.6822
  843TIP3    H224089   0.806   1.114   0.932  1.3582 -0.4133  0.1822
  844TIP3   OH224090   2.517   4.463   8.145  0.5517 -0.2285 -0.6242
  844TIP3    H124091   2.505   4.490   8.236  2.5216 -0.0346 -0.3823
  844TIP3    H224092   2.611   4.446   8.137 -0.0181 -3.6323 -1.6862
  845TIP3   OH224093   3.082   3.911   1.869  0.0875 -0.5197 -0.0227
  845TIP3    H124094   3.034   3.994   1.867  1.2744  0.2404  1.1222
  845TIP3    H224095   3.018   3.845   1.842 -1.4152  0.5223  0.8413
  846TIP3   OH224096   1.782   5.308   6.817  0.0642 -0.2196 -0.4365
  846TIP3    H124097   1.840   5.278   6.747  0.5356 -1.0181  0.2766
  846TIP3    H224098   1.827   5.282   6.898  0.3147  2.0966  0.2355
  847TIP3   OH224099   3.113   1.668   1.597  0.4176 -0.0556 -0.3048
  847TIP3    H124100   3.022   1.678   1.569 -0.2192  1.7044  1.9782
  847TIP3    H224101   3.165   1.695   1.521 -1.0651  1.6571 -0.7822
  848TIP3   OH224102   4.906   5.942   0.008 -0.3168  0.8724  0.0731
  848TIP3    H124103   4.960   5.952  -0.070  0.8008  0.3938  0.7645
  848TIP3    H224104   4.839   6.010  -0.001  0.3312  1.4170 -0.8468
  849TIP3   OH224105   2.624   2.364   6.939  0.5833  0.8776  0.1046
  849TIP3    H124106   2.556   2.363   6.871  1.3440  1.4338 -0.6994
  849TIP3    H224107   2.692   2.420   6.902  2.3660 -1.2274  0.0258
  850TIP3   OH224108   0.330   3.175   7.012  0.6554  0.5058  0.0998
  850TIP3    H124109   0.329   3.086   6.976  1.3293  0.7288 -0.4985
  850TIP3    H224110   0.356   3.163   7.104  1.4462  0.1422 -0.1633
  851TIP3   OH224111   6.836   5.478   6.250  0.2053 -0.9352 -0.0773
  851TIP3    H124112   6.833   5.569   6.221  0.1555 -1.0478 -0.4269
  851TIP3    H224113   6.763   5.436   6.205  1.5377 -1.6523 -1.6660
  852TIP3   OH224114   1.216   2.126   0.661  0.0007  0.0833  0.3342
  852TIP3    H124115   1.199   2.045   0.709  0.1765  0.3070  0.7788
  852TIP3    H224116   1.134   2.174   0.666  0.2670  0.4740  1.1382
  853TIP3   OH224117   5.454   1.165   0.220  0.2300 -0.5134  0.1065
  853TIP3    H124118   5.361   1.180   0.240 -0.2730  0.4816 -2.6158
  853TIP3    H224119   5.456   1.151   0.125  2.4805 -3.9359  0.5038
  854TIP3   OH224120   3.691   4.015   6.511 -0.7142  0.1825 -0.4977
  854TIP3    H124121   3.722   3.925   6.520  1.0200  0.7088 -0.7054
  854TIP3    H224122   3.627   4.026   6.581 -0.9246 -1.1859 -0.4490
  855TIP3   OH224123   4.309   1.236   1.732 -0.5763 -0.2890 -0.3866
  855TIP3    H124124   4.273   1.190   1.656  1.8313  1.4210 -2.7301
  855TIP3    H224125   4.306   1.328   1.708  1.0332  0.2487  1.2467
  856TIP3   OH224126   1.700   2.850   6.940 -0.2759  0.2059  0.2314
  856TIP3    H124127   1.748   2.802   7.008  0.6889  2.5295  1.3032
  856TIP3    H224128   1.643   2.909   6.989 -1.9667 -0.2912 -1.0462
  857TIP3   OH224129   6.818   4.180   7.407  0.0950 -0.8257  0.3081
  857TIP3    H124130   6.852   4.258   7.451  0.9427 -2.1545  2.1321
  857TIP3    H224131   6.881   4.163   7.337  0.0189 -0.0323  0.0296
  858TIP3   OH224132   5.462   4.501   7.248  0.5247 -0.1454  0.1512
  858TIP3    H124133   5.535   4.554   7.282  1.7384 -0.0451 -2.3536
  858TIP3    H224134   5.387   4.560   7.251  1.0167  0.4788  0.8050
  859TIP3   OH224135   6.822   4.893   1.728  0.1816  0.0222 -0.0484
  859TIP3    H124136   6.749   4.863   1.783 -1.0545  1.6726 -0.6976
  859TIP3    H224137   6.851   4.975   1.769  1.1985 -0.2458 -0.2115
  860TIP3   OH224138   1.593   2.613   0.209 -0.0325  0.1896  0.4434
  860TIP3    H124139   1.570   2.705   0.194 -0.3214 -0.0277 -0.5026
  860TIP3    H224140   1.682   2.606   0.175  0.6193  0.4755  1.9761
  861TIP3   OH224141   0.059   4.820   0.782  0.3269  0.0586 -0.2715
  861TIP3    H124142   0.002   4.753   0.817 -1.5676  0.7024 -1.9319
  861TIP3    H224143   0.147   4.793   0.808 -0.5488 -1.9796  0.7733
  862TIP3   OH224144   5.654   3.995   8.134 -0.3681  0.0606  0.2725
  862TIP3    H124145   5.711   3.922   8.109 -1.1253 -0.3520 -0.2869
  862TIP3    H224146   5.700   4.073   8.101  0.9503 -0.0210  1.7628
  863TIP3   OH224147   1.605   1.515   0.758 -0.1833  0.3225  0.2555
  863TIP3    H124148   1.648   1.432   0.778 -0.5733  0.4278  1.6096
  863TIP3    H224149   1.678   1.577   0.748  0.0454  0.1817  1.0089
  864TIP3   OH224150   3.795   3.138   7.637  0.6266  0.0015 -0.2899
  864TIP3    H124151   3.732   3.206   7.661  2.6021  2.1217 -0.7350
  864TIP3    H224152   3.874   3.160   7.687  2.4633  0.2069 -3.0724
  865TIP3   OH224153   0.762   3.379   8.258  0.5166 -0.8050 -0.1127
  865TIP3    H124154   0.798   3.352   8.343 -1.6098 -1.0264  0.7753
  865TIP3    H224155   0.740   3.296   8.215 -0.7692 -0.6535  0.2220
  866TIP3   OH224156   3.844   4.349   0.870  0.2276 -0.0815  0.0518
  866TIP3    H124157   3.754   4.361   0.841  0.9512  0.8891 -1.9727
  866TIP3    H224158   3.869   4.263   0.836  0.3611  0.0783 -0.2620
  867TIP3   OH224159   4.488   2.937   8.489  0.1299  0.2525  0.5654
  867TIP3    H124160   4.426   2.878   8.446  1.0587  0.0892 -0.6092
  867TIP3    H224161   4.478   3.020   8.444  0.4619  0.3468  0.6603
  868TIP3   OH224162   5.369   6.835   7.851 -0.5626  0.5223  0.1206
  868TIP3    H124163   5.438   6.843   7.785  0.8747  0.7413  1.5950
  868TIP3    H224164   5.395   6.896   7.921 -1.6413 -0.2394  1.2254
  869TIP3   OH224165   2.959   3.702   8.599  0.3349  0.4976  0.7364
  869TIP3    H124166   2.912   3.667   8.674 -1.2306  1.6418  0.3310
  869TIP3    H224167   2.960   3.631   8.535  0.5287 -0.0375  1.3233
  870TIP3   OH224168   0.841   1.844   0.014 -1.5028  0.6147 -0.4775
  870TIP3    H124169   0.899   1.880   0.082 -1.6516 -1.2282  0.7164
  870TIP3    H224170   0.900   1.796  -0.044 -1.5039  1.3067 -1.0642
  871TIP3   OH224171   4.397   5.047   7.840  0.6366  0.3172  0.5815
  871TIP3    H124172   4.473   5.009   7.797  0.7479 -0.6697  1.6043
  871TIP3    H224173   4.357   4.974   7.888 -1.6173  0.5147 -0.8066
  872TIP3   OH224174   0.211   2.074   6.911  0.4474  0.4899  1.0006
  872TIP3    H124175   0.132   2.062   6.858 -0.4237  0.2103  2.3377
  872TIP3    H224176   0.280   2.086   6.846 -0.4378 -0.7079 -0.2233
  873TIP3   OH224177   0.909   5.832   6.031  0.4224 -0.0523  0.3588
  873TIP3    H124178   0.902   5.747   6.075 -1.1316 -1.8493 -2.9541
  873TIP3    H224179   0.818   5.859   6.018  0.8346  0.8657 -0.7871
  874TIP3   OH224180   1.663   1.016   6.159  0.3722  0.6368  0.1088
  874TIP3    H124181   1.625   1.098   6.127  1.0623  0.2310 -1.8616
  874TIP3    H224182   1.593   0.952   6.150  0.2139  0.7438  0.5228
  875TIP3   OH224183   4.526   1.111   5.908 -0.3908  0.2245  0.2514
  875TIP3    H124184   4.583   1.093   5.834 -1.1080 -0.9048 -0.0624
  875TIP3    H224185   4.568   1.183   5.955  0.1304  0.8791 -1.1773
  876TIP3   OH224186   1.241   1.686   1.173  0.2183 -0.6323  0.1181
  876TIP3    H124187   1.313   1.654   1.119 -1.0312 -1.2997 -1.2495
  876TIP3    H224188   1.163   1.644   1.135 -0.8279 -0.3934  1.8961
  877TIP3   OH224189   1.220   6.268   0.911 -0.4863  0.4462 -0.5011
  877TIP3    H124190   1.188   6.178   0.914 -0.5073  0.4420 -0.8031
  877TIP3    H224191   1.263   6.275   0.826 -0.2598  0.6459 -0.3715
  878TIP3   OH224192   6.140   5.369   0.195  0.2925  0.0620  0.0184
  878TIP3    H124193   6.061   5.316   0.199 -0.0297  0.4562 -0.8145
  878TIP3    H224194   6.203   5.315   0.147 -0.0490  0.4218 -0.8680
  879TIP3   OH224195   3.643   1.176   8.553  0.1749  0.7629  0.1725
  879TIP3    H124196   3.597   1.182   8.469  0.7629  2.2393 -0.0781
  879TIP3    H224197   3.696   1.096   8.545 -1.5327 -0.4123  0.0845
  880TIP3   OH224198   3.653   2.976   0.487 -0.2006 -0.1487 -0.3836
  880TIP3    H124199   3.727   2.932   0.445  0.3302  1.5339 -1.2898
  880TIP3    H224200   3.577   2.947   0.437  0.0821 -0.3249 -0.7188
  881TIP3   OH224201   5.672   0.325   1.987  0.1195 -0.5195  0.2698
  881TIP3    H124202   5.621   0.398   1.953 -0.6251 -1.5579 -0.9148
  881TIP3    H224203   5.640   0.248   1.940 -1.7669 -2.3232  4.0343
  882TIP3   OH224204   4.463   5.014   7.118 -0.5780 -0.4673 -0.6222
  882TIP3    H124205   4.418   4.963   7.185  1.1024 -0.2520  0.7389
  882TIP3    H224206   4.513   4.949   7.068 -0.0713 -0.4046 -0.2105
  883TIP3   OH224207   1.003   6.501   7.366  0.5007  0.0458  0.3642
  883TIP3    H124208   0.910   6.524   7.363  0.2220 -0.9356  0.8614
  883TIP3    H224209   1.046   6.578   7.401 -0.1741  0.3901  0.4593
  884TIP3   OH224210   4.348   3.809   7.584  0.4278 -0.3435 -0.2557
  884TIP3    H124211   4.364   3.880   7.646 -1.9593  1.2027 -1.2577
  884TIP3    H224212   4.314   3.738   7.639  1.1054 -0.0637  0.5539
  885TIP3   OH224213   1.458   1.182   1.000  0.2282  0.1340  0.0237
  885TIP3    H124214   1.412   1.257   1.035  2.0047  1.6487 -0.7133
  885TIP3    H224215   1.413   1.106   1.037 -0.0978  1.5627  2.7549
  886TIP3   OH224216   4.240   6.264   0.505  0.1126  0.7448  0.9626
  886TIP3    H124217   4.297   6.337   0.479 -1.3629  1.9121  0.9013
  886TIP3    H224218   4.255   6.197   0.438  1.3550  1.0524  0.9135
  887TIP3   OH224219   0.585   5.532   0.791  0.1073 -0.3337 -0.2244
  887TIP3    H124220   0.539   5.532   0.875 -1.4427  0.2944 -1.0270
  887TIP3    H224221   0.669   5.490   0.809  0.4196  1.0668  1.9653
  888TIP3   OH224222   0.164   1.545   0.857  0.5110  0.0289  0.0971
  888TIP3    H124223   0.259   1.548   0.843  0.5109 -0.1860  0.0440
  888TIP3    H224224   0.147   1.614   0.922  0.7050  0.0588  0.1175
  889TIP3   OH224225   6.414   2.805   8.016 -0.3960 -0.1376 -0.5076
  889TIP3    H124226   6.446   2.750   7.944  4.1182  1.3042  0.0141
  889TIP3    H224227   6.397   2.890   7.974  0.3497  0.1684 -0.2084
  890TIP3   OH224228   1.423   0.397   1.383 -0.1335 -0.5167 -0.0135
  890TIP3    H124229   1.390   0.308   1.398  1.2044 -1.1261 -0.5540
  890TIP3    H224230   1.501   0.385   1.329 -1.6659  1.1875 -2.8855
  891TIP3   OH224231   4.921   5.014   8.210 -0.0414 -0.0462 -0.2406
  891TIP3    H124232   4.982   5.011   8.284  0.0222  1.7810 -0.1770
  891TIP3    H224233   4.967   5.064   8.143  0.1088 -2.1101 -1.7756
  892TIP3   OH224234   2.741   3.085   7.913  0.0558 -0.0862 -0.0758
  892TIP3    H124235   2.741   3.180   7.905  0.5470 -0.0490  0.2786
  892TIP3    H224236   2.674   3.055   7.852 -1.0201  0.5703  0.7632
  893TIP3   OH224237   5.237   2.952   0.765  0.2810 -0.2174 -0.3929
  893TIP3    H124238   5.277   2.873   0.727  2.1709 -0.6275  2.1360
  893TIP3    H224239   5.284   3.025   0.725  0.1817 -0.4725 -0.9850
  894TIP3   OH224240   4.195   3.725   7.268  0.1171 -0.8838 -0.4782
  894TIP3    H124241   4.100   3.740   7.271  0.0294 -1.3688  2.3020
  894TIP3    H224242   4.233   3.812   7.278 -0.1806 -0.9961  2.4960
  895TIP3   OH224243   1.380   2.886   8.310 -0.1935 -0.1377 -0.0667
  895TIP3    H124244   1.436   2.828   8.260  0.4856 -1.0833  1.6931
  895TIP3    H224245   1.437   2.960   8.334 -0.7206  0.6896 -1.2674
  896TIP3   OH224246   2.261   6.145   0.976 -0.5958  0.1894 -0.2095
  896TIP3    H124247   2.203   6.090   0.924  0.5687  0.0268 -1.4036
  896TIP3    H224248   2.222   6.232   0.972  0.2154  0.5224 -2.6804
  897TIP3   OH224249   1.245   2.322   7.281 -0.2386  0.2201 -0.3222
  897TIP3    H124250   1.265   2.415   7.270 -1.9566  1.0139  2.3453
  897TIP3    H224251   1.168   2.321   7.338 -0.4814 -2.8674 -0.5559
  898TIP3   OH224252   5.839   3.159   8.031  0.2282 -0.6813  0.1578
  898TIP3    H124253   5.846   3.238   7.977 -1.2558  0.4270  1.5079
  898TIP3    H224254   5.909   3.168   8.095  0.7329 -1.0119 -0.3368
  899TIP3   OH224255   5.270   4.625   0.907 -0.1281  0.1342  0.5322
  899TIP3    H124256   5.289   4.547   0.857 -3.8042 -0.3982 -0.3279
  899TIP3    H224257   5.252   4.693   0.842  1.2310  1.2721  1.2618
  900TIP3   OH224258   4.028   6.601   6.510 -0.4021  0.9033 -0.0827
  900TIP3    H124259   4.106   6.649   6.535 -0.2067  1.4093 -1.5756
  900TIP3    H224260   4.046   6.569   6.421 -2.3283  2.0847 -0.9688
  901TIP3   OH224261   5.329   2.143   6.972 -0.0900  0.4276 -0.5972
  901TIP3    H124262   5.398   2.209   6.961  0.0948  0.0719 -1.7199
  901TIP3    H224263   5.318   2.135   7.066  0.2245  1.7092 -0.4413
  902TIP3   OH224264   0.642   1.154   8.603  0.5578 -0.3575 -0.1285
  902TIP3    H124265   0.579   1.156   8.531 -0.0007 -1.3775  0.3024
  902TIP3    H224266   0.619   1.228   8.658 -0.4856 -0.8862  0.1832
  903TIP3   OH224267   6.417   2.033   7.306 -0.0749  0.1360 -0.0670
  903TIP3    H124268   6.395   2.113   7.354  0.6184  0.2808  0.0172
  903TIP3    H224269   6.334   2.005   7.267 -0.7319 -0.1919  1.5017
  904TIP3   OH224270   0.764   6.519   0.299  0.7370  0.1345  0.1826
  904TIP3    H124271   0.673   6.525   0.328  0.1655  1.4492 -1.6640
  904TIP3    H224272   0.808   6.466   0.366 -1.0370  0.7197  1.8972
  905TIP3   OH224273   1.785   2.368   0.145  0.3958 -0.3428 -0.2586
  905TIP3    H124274   1.824   2.355   0.231  1.0496  1.2615 -0.2764
  905TIP3    H224275   1.795   2.462   0.128 -0.7896 -0.4220 -1.5711
  906TIP3   OH224276   0.899   4.089   0.034  0.9782  0.2337 -0.3492
  906TIP3    H124277   0.866   4.118   0.119 -0.6873 -2.2619 -0.0233
  906TIP3    H224278   0.957   4.159   0.005  3.2985  0.3502  3.7670
  907TIP3   OH224279   1.846   5.124   8.626  0.4169  0.0869 -0.1182
  907TIP3    H124280   1.783   5.052   8.624 -0.4028  0.6576  2.3461
  907TIP3    H224281   1.906   5.102   8.697  0.9733  1.2033 -0.2155
  908TIP3   OH224282   1.594   4.210   8.070  0.4228  0.2787  0.1697
  908TIP3    H124283   1.587   4.187   8.163  0.2738 -0.0343  0.0846
  908TIP3    H224284   1.639   4.294   8.069  0.3485  0.3243  0.5317
  909TIP3   OH224285   4.348   6.537   0.394 -0.1834  0.2177  0.2321
  909TIP3    H124286   4.323   6.522   0.303 -1.6789  0.6582  0.5435
  909TIP3    H224287   4.411   6.609   0.390 -0.8267  0.7543 -0.3935
  910TIP3   OH224288   6.254   5.762   7.979  0.5564 -0.4127 -0.0738
  910TIP3    H124289   6.275   5.705   8.053 -0.6183  0.3925  0.9199
  910TIP3    H224290   6.312   5.837   7.989 -0.3047  0.1841  0.6720
  911TIP3   OH224291   1.945   2.315   0.378 -0.3297  0.3078  0.0333
  911TIP3    H124292   1.964   2.266   0.458  1.1073 -1.3561 -1.2263
  911TIP3    H224293   2.029   2.351   0.352 -0.2307 -1.1419 -1.9057
  912TIP3   OH224294   3.125   4.597   0.189 -0.3533  0.2466 -0.6662
  912TIP3    H124295   3.208   4.609   0.236  0.7719  1.3497 -2.7602
  912TIP3    H224296   3.060   4.584   0.258  1.4615 -0.1434  1.0800
  913TIP3   OH224297   6.080   4.430   7.655  0.3445 -0.3336 -0.2987
  913TIP3    H124298   6.126   4.420   7.739 -0.2779 -1.3012 -0.0527
  913TIP3    H224299   6.066   4.340   7.625 -1.4083 -0.0882 -0.3399
  914TIP3   OH224300   3.205   0.791   0.926 -0.3868 -0.1942  0.3419
  914TIP3    H124301   3.156   0.859   0.971  0.8288  1.1042 -0.2331
  914TIP3    H224302   3.247   0.741   0.997  0.8607  1.3269  0.7293
  915TIP3   OH224303   5.304   3.429   0.183 -0.1294 -0.0067  0.8913
  915TIP3    H124304   5.242   3.392   0.119 -0.0512 -1.2019  1.4778
  915TIP3    H224305   5.382   3.376   0.174  0.8971  1.5682  0.0809
  916TIP3   OH224306   0.617   3.420   7.956 -0.6873  0.0311 -0.2987
  916TIP3    H124307   0.564   3.409   7.876  0.3974 -1.5927 -0.8664
  916TIP3    H224308   0.707   3.410   7.925 -0.1854  0.5588  0.9691
  917TIP3   OH224309   4.677   1.462   0.325 -0.1724 -0.4077  0.4140
  917TIP3    H124310   4.726   1.539   0.354  0.0170 -0.0366 -0.8203
  917TIP3    H224311   4.679   1.403   0.400  0.1748  0.5545  1.1824
  918TIP3   OH224312   4.612   6.003   1.221  0.5658 -0.0671 -0.0513
  918TIP3    H124313   4.548   5.971   1.285  1.7322  2.2376  2.4547
  918TIP3    H224314   4.695   5.968   1.250  1.0639  0.6866 -0.5191
  919TIP3   OH224315   1.119   1.704   0.566 -0.4857 -0.0458 -0.0621
  919TIP3    H124316   1.124   1.619   0.610 -1.4834  0.3130  0.7939
  919TIP3    H224317   1.046   1.749   0.609  0.8390  1.7662  0.4086
  920TIP3   OH224318   1.633   3.983   7.957  0.3618  0.3708  0.2590
  920TIP3    H124319   1.609   4.071   7.988 -0.2091  0.7498 -1.1894
  920TIP3    H224320   1.550   3.935   7.957  0.4911  0.1511  0.0215
  921TIP3   OH224321   3.153   5.485   1.921  0.3983 -0.3095  0.4927
  921TIP3    H124322   3.077   5.536   1.952  0.9169 -0.4321  2.0233
  921TIP3    H224323   3.115   5.418   1.865 -0.5873 -0.0219  0.7921
  922TIP3   OH224324   1.815   0.612   8.478  0.1018  0.1329 -0.2950
  922TIP3    H124325   1.767   0.616   8.396 -2.9068 -0.6627  1.2858
  922TIP3    H224326   1.817   0.702   8.509  1.1953  0.4266 -1.1467
  923TIP3   OH224327   5.373   2.137   8.257 -0.1185  0.8687 -0.6087
  923TIP3    H124328   5.355   2.205   8.191 -1.8806 -0.4197 -1.5194
  923TIP3    H224329   5.301   2.075   8.248  1.4574 -1.1765  0.1601
  924TIP3   OH224330   4.539   4.312   0.822  0.2573  0.0313  0.3351
  924TIP3    H124331   4.449   4.285   0.801 -0.2721  1.3587  0.7947
  924TIP3    H224332   4.553   4.282   0.912 -0.9607  2.6554  1.4942
  925TIP3   OH224333   3.984   1.679   7.837  0.6537  0.2778  0.6233
  925TIP3    H124334   3.968   1.585   7.829  1.1926  0.1567  0.8638
  925TIP3    H224335   3.908   1.721   7.796  0.9506 -0.2629 -0.5148
  926TIP3   OH224336   4.836   0.819   7.040  0.1903 -0.3008 -0.3973
  926TIP3    H124337   4.895   0.764   6.987  0.4499  0.0014 -0.4226
  926TIP3    H224338   4.750   0.780   7.026  0.4376 -1.0156 -0.0119
  927TIP3   OH224339   4.903   4.343   7.635  0.9040 -0.2078  0.5236
  927TIP3    H124340   4.879   4.253   7.658  1.0929 -0.2070  0.7270
  927TIP3    H224341   4.834   4.397   7.675  0.5502 -0.2890  0.0299
  928TIP3   OH224342   2.061   4.078   7.103  0.0175  0.0187  0.2872
  928TIP3    H124343   2.094   4.015   7.039  1.9476 -1.9386  2.9894
  928TIP3    H224344   2.138   4.131   7.127 -0.8040  1.1136  0.6046
  929TIP3   OH224345   4.091   5.801   6.791 -0.1554  0.0781  0.3348
  929TIP3    H124346   4.053   5.766   6.711 -0.2235  1.2834 -0.1860
  929TIP3    H224347   4.171   5.845   6.763  0.3708 -0.3712  1.0868
  930TIP3   OH224348   0.566   5.451   1.327 -0.3100  0.0583 -0.3229
  930TIP3    H124349   0.555   5.389   1.399  1.3688  1.1104  0.9060
  930TIP3    H224350   0.532   5.534   1.362 -0.7673  0.2728 -1.2585
  931TIP3   OH224351   3.014   6.811   6.779 -0.1981  0.8575 -0.7717
  931TIP3    H124352   2.940   6.801   6.720 -1.5228  0.8595  0.8236
  931TIP3    H224353   3.071   6.736   6.760 -0.4498  1.0070 -2.2045
  932TIP3   OH224354   0.382   2.532   1.760  1.1211  0.0352 -0.3413
  932TIP3    H124355   0.299   2.569   1.731  1.0808  0.6617  0.5208
  932TIP3    H224356   0.369   2.437   1.755  0.7616  0.1279 -1.3049
  933TIP3   OH224357   1.518   4.627   7.230  0.4557 -0.4993 -0.1365
  933TIP3    H124358   1.435   4.674   7.238  0.6000 -0.4347  1.4640
  933TIP3    H224359   1.582   4.695   7.205 -0.0067 -0.6165 -1.7276
  934TIP3   OH224360   2.599   2.386   1.759  0.4189 -0.9130  0.0682
  934TIP3    H124361   2.556   2.304   1.733 -0.4035 -0.2618 -0.7325
  934TIP3    H224362   2.676   2.358   1.809 -0.0600 -2.1581  0.1620
  935TIP3   OH224363   2.140   4.355   0.728 -0.4910 -0.5112  0.0583
  935TIP3    H124364   2.045   4.366   0.730 -0.2983  1.6129  0.5048
  935TIP3    H224365   2.166   4.390   0.643  0.0754  1.4087  0.9606
  936TIP3   OH224366   2.244   2.086   7.809  0.0715  0.4020 -0.2652
  936TIP3    H124367   2.332   2.049   7.822  0.6472  1.6030 -0.5889
  936TIP3    H224368   2.213   2.105   7.898  0.1632  0.0564 -0.1547
  937TIP3   OH224369   1.747   5.715   0.824 -0.0869 -0.0313 -0.4065
  937TIP3    H124370   1.763   5.801   0.862  0.0993  0.7372 -2.1185
  937TIP3    H224371   1.784   5.721   0.736  2.0335 -2.6306  0.1809
  938TIP3   OH224372   5.623   5.385   0.948 -0.3858 -0.9470 -0.0848
  938TIP3    H124373   5.560   5.435   0.896 -2.6245  0.6151  3.6973
  938TIP3    H224374   5.591   5.295   0.945 -0.2042 -0.9782 -1.6815
  939TIP3   OH224375   0.130   3.070   1.670 -0.1345  0.0248  0.3560
  939TIP3    H124376   0.062   3.003   1.665  0.7417 -0.9448  0.9075
  939TIP3    H224377   0.102   3.128   1.741 -1.3942  0.8426 -0.7728
  940TIP3   OH224378   4.936   2.148   7.012  0.3082  0.2865  0.2532
  940TIP3    H124379   4.840   2.144   7.009  0.3605 -0.5730 -1.2986
  940TIP3    H224380   4.961   2.195   6.933  1.1867 -0.1320  0.2685
  941TIP3   OH224381   3.965   1.468   0.585  0.3843 -0.2025 -0.5718
  941TIP3    H124382   3.950   1.525   0.510  1.3938  0.3299 -0.3846
  941TIP3    H224383   4.059   1.450   0.583  0.0172 -2.2962 -0.9267
  942TIP3   OH224384   5.490   3.454   8.645 -0.1814  0.0933 -0.1576
  942TIP3    H124385   5.470   3.410   8.563 -0.8369 -1.6353  0.8716
  942TIP3    H224386   5.581   3.432   8.663 -0.5084 -0.9248  0.3568
  943TIP3   OH224387   2.864   6.251   1.452  0.0725  0.1993  0.1668
  943TIP3    H124388   2.898   6.285   1.535 -1.2658 -0.1726  0.8903
  943TIP3    H224389   2.894   6.161   1.448  2.0337  0.8463 -0.8572
  944TIP3   OH224390   3.189   2.883   0.993 -0.1067  0.1734  0.3332
  944TIP3    H124391   3.277   2.845   0.986  0.2104  0.9002  0.3372
  944TIP3    H224392   3.134   2.809   1.020  0.7324  0.0091  1.7229
  945TIP3   OH224393   2.211   3.812   2.301  0.5133 -0.2487 -0.0859
  945TIP3    H124394   2.156   3.735   2.318 -1.0105  0.9477  0.5499
  945TIP3    H224395   2.198   3.869   2.376  2.0889  0.4194 -0.2622
  946TIP3   OH224396   1.833   5.658   1.397  0.0851 -0.6370  0.1795
  946TIP3    H124397   1.768   5.691   1.335  0.2790 -1.0488 -0.2443
  946TIP3    H224398   1.878   5.736   1.429  0.9188 -0.5087 -1.2287
  947TIP3   OH224399   2.155   5.986   7.405 -0.5249 -0.5311 -0.6338
  947TIP3    H124400   2.136   5.893   7.400  0.7555 -0.8275 -0.0714
  947TIP3    H224401   2.169   6.004   7.498 -1.0217  0.2933 -0.6968
  948TIP3   OH224402   2.622   6.362   1.946  0.2607  0.7005  0.1656
  948TIP3    H124403   2.628   6.457   1.934  0.5467  0.7539  0.7198
  948TIP3    H224404   2.533   6.340   1.919  0.5853  0.9410 -1.1561
  949TIP3   OH224405   5.714   5.166   1.384 -0.3020 -1.0959 -0.3319
  949TIP3    H124406   5.794   5.190   1.337  1.2754 -1.7586  1.8830
  949TIP3    H224407   5.720   5.072   1.397 -1.0289 -1.0361  0.5791
  950TIP3   OH224408   6.338   2.276   7.397 -0.5962  0.2857  0.4046
  950TIP3    H124409   6.365   2.368   7.395 -0.1193  0.2189  2.0477
  950TIP3    H224410   6.242   2.279   7.394 -0.5909  0.8540  0.7310
  951TIP3   OH224411   6.729   4.949   0.577  0.0584  0.0558  0.3022
  951TIP3    H124412   6.751   4.945   0.485  1.5302 -0.1901  0.6479
  951TIP3    H224413   6.790   4.889   0.620 -0.1060  0.7235  1.5185
  952TIP3   OH224414   3.470   3.079   1.065  0.5992 -0.1092  0.4349
  952TIP3    H124415   3.424   3.163   1.054  0.6832  0.1728  1.9959
  952TIP3    H224416   3.409   3.025   1.115 -0.1272 -1.6043 -1.9205
  953TIP3   OH224417   0.899   1.790   0.697  0.3109 -0.3422  0.2765
  953TIP3    H124418   0.825   1.765   0.643  0.5815 -1.1164  0.2472
  953TIP3    H224419   0.879   1.753   0.784  0.7630 -0.7596  0.2079
  954TIP3   OH224420   0.024   1.847   1.603 -0.2732 -0.1900 -0.0870
  954TIP3    H124421  -0.017   1.818   1.521  0.0673  0.2673 -0.4266
  954TIP3    H224422   0.008   1.941   1.606  1.9999  0.3056 -0.9980
  955TIP3   OH224423   1.422   2.632   7.594 -0.2049  0.4169  0.0916
  955TIP3    H124424   1.377   2.615   7.511 -1.1387 -1.1614  0.8642
  955TIP3    H224425   1.377   2.707   7.631 -2.0617 -0.9386  0.6966
  956TIP3   OH224426   2.584   5.916   7.897 -0.0359  0.7390  0.2357
  956TIP3    H124427   2.577   6.010   7.913  0.8276  0.9615 -0.5980
  956TIP3    H224428   2.582   5.908   7.801  2.3024  0.1487  0.1662
  957TIP3   OH224429   1.374   5.307   1.018 -0.3768  0.4967  0.3948
  957TIP3    H124430   1.367   5.321   0.924 -1.6226 -1.9352  0.0533
  957TIP3    H224431   1.467   5.315   1.037 -0.2384  2.2583 -0.7793
  958TIP3   OH224432   4.108   0.853   1.743 -0.3044 -0.1060 -0.1742
  958TIP3    H124433   4.059   0.785   1.789 -1.1108  1.2217  1.0474
  958TIP3    H224434   4.200   0.832   1.760 -0.5387  0.8240  3.0515
  959TIP3   OH224435   4.674   5.752   1.530  0.9674  0.6337  0.1509
  959TIP3    H124436   4.693   5.680   1.589  0.4674  1.1725  0.9889
  959TIP3    H224437   4.586   5.733   1.496  1.2938  0.2745 -0.5008
  960TIP3   OH224438   2.448   1.134   0.619 -0.0332 -0.4245  0.2520
  960TIP3    H124439   2.458   1.042   0.593 -3.6661 -1.0977  0.6104
  960TIP3    H224440   2.452   1.133   0.715  1.4973  0.0936  0.2124
  961TIP3   OH224441   4.724   5.355   0.255  0.2339 -0.4399 -0.7225
  961TIP3    H124442   4.646   5.401   0.288  0.9294  0.3372 -0.1044
  961TIP3    H224443   4.727   5.274   0.306  0.1205 -0.2230 -0.3638
  962TIP3   OH224444   3.111   0.784   8.329  0.4330  0.6390  0.2204
  962TIP3    H124445   3.108   0.852   8.263 -0.9854  0.3533 -0.0234
  962TIP3    H224446   3.204   0.759   8.333  0.9843  2.5415  0.3147
  963TIP3   OH224447   4.516   0.371   2.024  0.0737  0.4778 -0.1533
  963TIP3    H124448   4.467   0.300   2.065  0.2187  0.3505 -0.1996
  963TIP3    H224449   4.516   0.349   1.931  0.6875  0.1887 -0.0919
  964TIP3   OH224450   3.842   3.428   8.262 -0.2478  0.2596  0.0214
  964TIP3    H124451   3.790   3.402   8.339  0.9492 -0.7401  0.5361
  964TIP3    H224452   3.898   3.499   8.294 -0.6704  0.7412 -0.2960
  965TIP3   OH224453   0.378   0.655   1.068 -0.5704  0.0132  0.2155
  965TIP3    H124454   0.333   0.571   1.054 -0.3367  0.1560 -1.7083
  965TIP3    H224455   0.347   0.685   1.153  0.9492 -3.0134  2.0103
  966TIP3   OH224456   4.370   1.198   0.602  0.3485  0.2527 -0.2728
  966TIP3    H124457   4.354   1.258   0.530 -0.0563  1.0820  0.4825
  966TIP3    H224458   4.291   1.203   0.656 -0.1778 -1.8385 -0.7685
  967TIP3   OH224459   5.287   3.530   7.111 -0.1585 -0.2948  0.2908
  967TIP3    H124460   5.247   3.471   7.174 -0.1199 -0.3903  0.2265
  967TIP3    H224461   5.213   3.567   7.062 -0.1414 -0.8995 -0.2076
  968TIP3   OH224462   4.000   3.832   7.528  0.1594 -0.0542  0.3986
  968TIP3    H124463   4.062   3.904   7.534  1.7123 -1.1352 -1.4599
  968TIP3    H224464   3.960   3.841   7.442  1.9680 -2.5345 -0.8027
  969TIP3   OH224465   3.911   2.936   7.489 -0.7767 -0.0271 -0.1232
  969TIP3    H124466   3.987   2.904   7.538 -0.5789 -1.0386 -1.0521
  969TIP3    H224467   3.872   3.002   7.546  0.4398  0.0665  0.6374
  970TIP3   OH224468   2.424   5.156   1.347 -0.2155 -0.9451 -0.5430
  970TIP3    H124469   2.427   5.110   1.263  0.7633  1.8135 -2.1406
  970TIP3    H224470   2.473   5.099   1.407  3.0919 -1.0116 -3.0098
  971TIP3   OH224471   1.943   1.344   8.127 -0.0577  0.0462  0.3029
  971TIP3    H124472   1.989   1.417   8.169  0.8307  0.2947 -1.0211
  971TIP3    H224473   2.012   1.281   8.106 -0.1975  0.5971 -2.0662
  972TIP3   OH224474   1.894   5.286   1.565 -0.5372  0.1256 -0.1766
  972TIP3    H124475   1.877   5.219   1.632  1.4476 -1.7991 -1.4691
  972TIP3    H224476   1.936   5.358   1.613  0.6761 -1.1287  0.7254
  973TIP3   OH224477   2.936   2.442   7.438  0.3292  0.4450 -0.0475
  973TIP3    H124478   2.938   2.432   7.533  0.1809  1.3164  0.0596
  973TIP3    H224479   3.015   2.397   7.407 -0.2356 -0.8863  0.3629
  974TIP3   OH224480   6.758   4.886   8.359  0.2995  0.7647 -0.0430
  974TIP3    H124481   6.703   4.814   8.329 -0.9763  1.8733 -0.4625
  974TIP3    H224482   6.822   4.844   8.417  1.3914 -1.1167 -2.3927
  975TIP3   OH224483   2.785   1.279   0.229 -0.3136 -0.0354  0.3911
  975TIP3    H124484   2.737   1.341   0.174 -0.5970  0.7231  1.4545
  975TIP3    H224485   2.772   1.194   0.186 -2.4481  0.1624  0.5027
  976TIP3   OH224486   5.538   2.850   8.330 -0.4090 -0.1603 -0.5997
  976TIP3    H124487   5.496   2.770   8.362  1.0676 -0.1978  1.4390
  976TIP3    H224488   5.466   2.913   8.323 -1.1134 -0.7098  1.0878
  977TIP3   OH224489   5.967   5.797   8.358 -0.1217  0.0441 -0.0506
  977TIP3    H124490   5.932   5.736   8.423 -0.0485 -0.4306 -0.4472
  977TIP3    H224491   5.908   5.787   8.282 -0.6632  1.1536  0.2115
  978TIP3   OH224492   1.691   5.506   2.424 -0.3665 -0.4327 -0.3856
  978TIP3    H124493   1.679   5.566   2.498  1.5381  0.1819 -0.5052
  978TIP3    H224494   1.721   5.425   2.464  0.7782 -0.0636 -0.4543
  979TIP3   OH224495   2.062   4.427   1.858 -0.3294  0.0012 -0.3470
  979TIP3    H124496   2.125   4.415   1.787  0.7499  0.1199  0.5465
  979TIP3    H224497   2.089   4.509   1.900  0.9014 -1.4491  1.9262
  980TIP3   OH224498   0.234   6.330   0.416 -0.1948  0.2109 -0.1814
  980TIP3    H124499   0.158   6.383   0.440 -1.2434 -0.1105 -2.5508
  980TIP3    H224500   0.201   6.270   0.350  2.0089 -0.3288 -0.8547
  981TIP3   OH224501   5.939   6.506   0.526 -0.5795 -0.3680 -0.0503
  981TIP3    H124502   5.932   6.468   0.614 -0.9183  1.8527  0.9799
  981TIP3    H224503   6.029   6.540   0.522 -0.7588  0.0828 -0.3110
  982TIP3   OH224504   5.267   5.723   0.658  0.3373 -0.1036 -0.6424
  982TIP3    H124505   5.231   5.662   0.723 -0.1950  0.8263 -0.0481
  982TIP3    H224506   5.327   5.778   0.708 -0.0235  0.5755 -0.9499
  983TIP3   OH224507   6.032   2.076   8.335 -0.1952  0.2133 -0.0516
  983TIP3    H124508   6.090   2.013   8.291  1.3586  1.0066  0.7753
  983TIP3    H224509   5.972   2.022   8.386  2.1529 -0.6700  1.9769
  984TIP3   OH224510   3.417   0.159   2.612  0.1530  0.2701  0.1370
  984TIP3    H124511   3.385   0.101   2.682 -0.4073  0.9343  0.4506
  984TIP3    H224512   3.477   0.219   2.656 -0.5401  0.9735  0.1475
  985TIP3   OH224513   4.201   2.777   1.173  0.0808  0.1394  0.2744
  985TIP3    H124514   4.241   2.702   1.128  0.2487 -0.0817  0.7809
  985TIP3    H224515   4.107   2.768   1.155 -0.1118 -1.1772  1.7167
  986TIP3   OH224516   0.008   1.709   2.004 -0.8714  0.3430 -0.0069
  986TIP3    H124517   0.005   1.803   1.989  0.5487  0.9549  2.9754
  986TIP3    H224518   0.020   1.672   1.916 -1.0772  2.9136 -1.2244
  987TIP3   OH224519   5.292   4.248   7.347 -0.9649 -0.0034 -0.4991
  987TIP3    H124520   5.344   4.316   7.303 -0.7783 -0.5795 -1.1932
  987TIP3    H224521   5.266   4.287   7.430  1.3606 -0.0172  0.3041
  988TIP3   OH224522   4.774   0.176   0.357  0.1925  0.0234 -0.0370
  988TIP3    H124523   4.754   0.201   0.448 -2.1055 -0.4708 -0.3509
  988TIP3    H224524   4.807   0.087   0.363  0.4042  0.1253  0.3395
  989TIP3   OH224525   4.749   4.009   7.974  0.0039  0.0371  0.4255
  989TIP3    H124526   4.721   4.088   8.019 -2.2401 -0.4744  0.0489
  989TIP3    H224527   4.700   3.939   8.016 -0.1917 -0.7798 -1.0911
  990TIP3   OH224528   1.112   2.282   7.551  0.4397  0.5774 -0.0936
  990TIP3    H124529   1.156   2.361   7.583  1.7284 -0.0285 -0.3234
  990TIP3    H224530   1.023   2.312   7.528  0.1796  1.4874  1.8981
  991TIP3   OH224531   3.470   3.315   0.765  0.1019 -0.0470  0.2596
  991TIP3    H124532   3.539   3.325   0.700 -0.4388 -1.0338 -0.5007
  991TIP3    H224533   3.458   3.220   0.773  0.4884  0.0266  2.1730
  992TIP3   OH224534   4.525   1.653   7.287 -0.1108  0.1430 -0.1720
  992TIP3    H124535   4.549   1.699   7.206  0.1410 -0.8698 -0.6945
  992TIP3    H224536   4.593   1.587   7.297  0.3289  0.7805  1.3380
  993TIP3   OH224537   1.012   1.801   6.914  0.3043  0.3080 -0.9182
  993TIP3    H124538   0.937   1.772   6.863 -1.2319  1.9073  0.2920
  993TIP3    H224539   0.987   1.787   7.005  1.1836  1.4508 -0.4606
  994TIP3   OH224540   5.789   3.311   0.007 -0.4465 -0.0082 -0.0837
  994TIP3    H124541   5.813   3.376   0.073 -0.1355  0.4388 -0.6419
  994TIP3    H224542   5.869   3.261  -0.009 -0.5700 -0.2400  0.0066
  995TIP3   OH224543   4.772   6.267   2.183  0.1570 -0.4598  0.6413
  995TIP3    H124544   4.691   6.271   2.131  0.8749 -0.7037 -0.5291
  995TIP3    H224545   4.774   6.350   2.230  0.0177  0.2545 -0.5605
  996TIP3   OH224546   1.776   4.428   8.029  0.0230 -0.3101 -0.0824
  996TIP3    H124547   1.755   4.514   8.065 -0.5849 -0.9378  1.1415
  996TIP3    H224548   1.851   4.443   7.972 -1.1151  1.3097 -1.2368
  997TIP3   OH224549   4.264   6.860   7.675  0.3982  0.0689  0.7706
  997TIP3    H124550   4.348   6.863   7.631  0.0459  0.0689  0.0837
  997TIP3    H224551   4.235   6.951   7.680 -0.0788 -0.0253 -0.0346
  998TIP3   OH224552   5.829   2.227   0.886 -0.5601  0.2085  0.1567
  998TIP3    H124553   5.784   2.155   0.928 -0.6786  0.8187  1.1072
  998TIP3    H224554   5.922   2.213   0.906 -0.5221  0.0209 -0.1389
  999TIP3   OH224555   6.691   4.995   6.482  0.2565 -1.0295 -0.6593
  999TIP3    H124556   6.740   5.022   6.404  0.5321 -0.5909 -0.3400
  999TIP3    H224557   6.743   5.027   6.556  0.0649 -1.5514 -0.2872
 1000TIP3   OH224558   3.704   3.453   7.027  0.0792  0.3917  0.4023
 1000TIP3    H124559   3.761   3.408   6.964  1.0140  0.7689  0.9588
 1000TIP3    H224560   3.729   3.545   7.020 -2.5653  1.0710 -1.5060
 1001TIP3   OH224561   4.990   3.637   6.603  0.7597  0.0452 -0.2964
 1001TIP3    H124562   5.001   3.627   6.508  0.2512  1.4684 -0.5175
 1001TIP3    H224563   4.896   3.643   6.616  0.8533  0.4662  0.2311
 1002TIP3   OH224564   5.810   0.358   7.372  0.3358 -0.3337 -0.6239
 1002TIP3    H124565   5.828   0.434   7.315  0.2822  0.7041  0.6975
 1002TIP3    H224566   5.715   0.358   7.383  0.4725  0.4307  0.7111
 1003TIP3   OH224567   0.362   0.727   0.125  0.0209  0.0195 -0.6719
 1003TIP3    H124568   0.445   0.768   0.150  0.4295 -0.7791 -0.6870
 1003TIP3    H224569   0.322   0.700   0.207 -0.1207  0.2144 -0.6778
 1004TIP3   OH224570   1.560   1.514   1.733  0.3589  0.2366 -0.5281
 1004TIP3    H124571   1.514   1.518   1.816  0.4099  0.2367 -0.4995
 1004TIP3    H224572   1.642   1.469   1.754  0.0517 -0.4291 -0.7219
 1005TIP3   OH224573   5.318   5.105   0.740 -0.0304 -0.1061 -0.5075
 1005TIP3    H124574   5.401   5.146   0.716 -0.2553  0.3826 -0.4393
 1005TIP3    H224575   5.262   5.115   0.663 -0.5436  0.9252 -0.0194
 1006TIP3   OH224576   2.785   0.585   7.964  0.1412  0.1027 -0.0609
 1006TIP3    H124577   2.821   0.584   8.053  0.3088 -3.8893 -0.0036
 1006TIP3    H224578   2.695   0.556   7.975  0.0301  0.0043 -1.1714
 1007TIP3   OH224579   2.101   5.760   2.326  0.2066  0.1330 -0.0832
 1007TIP3    H124580   2.033   5.697   2.301  1.2840 -0.6582 -1.1696
 1007TIP3    H224581   2.109   5.750   2.421 -2.3810  1.5248  0.3693
 1008TIP3   OH224582   0.241   1.457   1.772  0.3095  0.0648 -0.2946
 1008TIP3    H124583   0.161   1.507   1.754 -0.6925 -1.0260  0.9061
 1008TIP3    H224584   0.272   1.430   1.686 -0.0075  1.3920 -0.8507
 1009TIP3   OH224585   0.020   1.139   1.066 -0.7573  0.2946 -0.0970
 1009TIP3    H124586  -0.009   1.084   0.993  1.2148  0.0204 -0.7265
 1009TIP3    H224587   0.105   1.102   1.091 -0.8939  1.0761  1.6160
 1010TIP3   OH224588   1.697   1.313   8.234  0.1057  0.2809 -0.5322
 1010TIP3    H124589   1.771   1.328   8.176  0.1510  3.1903  0.1330
 1010TIP3    H224590   1.621   1.344   8.185 -0.2299  0.2790 -0.0183
 1011TIP3   OH224591   6.595   6.203   8.631  0.4597  0.0996  0.1749
 1011TIP3    H124592   6.646   6.255   8.693  0.8004 -0.1427  0.0983
 1011TIP3    H224593   6.518   6.256   8.613 -0.5375 -0.5369  2.1476
 1012TIP3   OH224594   2.119   3.987   0.897  0.2181  0.0835 -0.0610
 1012TIP3    H124595   2.163   4.005   0.814  0.6250  0.9810  0.3395
 1012TIP3    H224596   2.063   4.063   0.912 -0.5740 -0.5071  0.0267
 1013TIP3   OH224597   3.285   5.584   6.754 -0.0532  0.3819  0.5395
 1013TIP3    H124598   3.263   5.492   6.742  1.2545  0.2515 -1.2196
 1013TIP3    H224599   3.264   5.602   6.845  1.1230 -2.0657  1.3607
 1014TIP3   OH224600   1.726   5.574   6.533  0.1459 -0.2343  0.2865
 1014TIP3    H124601   1.702   5.517   6.460  1.6843 -0.2974 -0.2197
 1014TIP3    H224602   1.765   5.651   6.491  0.6906 -0.0989  1.0226
 1015TIP3   OH224603   4.982   0.886   0.368 -0.7534 -0.9489 -0.3534
 1015TIP3    H124604   4.899   0.891   0.321 -2.3920 -1.6214  2.2699
 1015TIP3    H224605   4.980   0.801   0.411  1.3928 -1.0231 -0.2911
 1016TIP3   OH224606   2.160   6.349   6.516  0.3285 -0.0512 -0.3750
 1016TIP3    H124607   2.152   6.432   6.469  0.7743  0.3416  0.2208
 1016TIP3    H224608   2.205   6.373   6.597  0.6764 -0.9198 -0.3095
 1017TIP3   OH224609   0.434   4.229   6.477  0.4943  0.0989  0.1418
 1017TIP3    H124610   0.505   4.223   6.542 -3.2848 -0.5880  4.8204
 1017TIP3    H224611   0.403   4.139   6.467 -1.2332  0.6346  0.2912
 1018TIP3   OH224612   6.706   3.456   8.396  0.1235  0.0546 -0.3493
 1018TIP3    H124613   6.706   3.448   8.301 -1.0861 -1.3109 -0.2814
 1018TIP3    H224614   6.654   3.534   8.414  0.6495  0.5146 -0.8085
 1019TIP3   OH224615   0.027   3.723   0.835  0.1685  0.2810 -0.7332
 1019TIP3    H124616   0.093   3.791   0.827 -0.8872  1.2313 -1.9504
 1019TIP3    H224617   0.075   3.645   0.863  1.6035  1.2028 -0.5384
 1020TIP3   OH224618   5.525   4.172   8.484 -0.0737 -0.3171  0.0124
 1020TIP3    H124619   5.568   4.240   8.433  0.9830 -0.8260  0.2077
 1020TIP3    H224620   5.580   4.095   8.473  0.3307 -0.3906  2.1071
 1021TIP3   OH224621   2.614   5.622   7.590  0.3251  0.6281  0.3723
 1021TIP3    H124622   2.556   5.614   7.666  1.6470  4.5696  2.0560
 1021TIP3    H224623   2.695   5.579   7.617  1.1393  2.8794  1.7396
 1022TIP3   OH224624   2.525   6.874   7.674 -0.3309  0.3885  0.9172
 1022TIP3    H124625   2.539   6.808   7.742  0.5796  0.4381  0.7877
 1022TIP3    H224626   2.490   6.824   7.600  1.4248 -0.1961  0.4128
 1023TIP3   OH224627   5.496   2.053   1.782 -0.1401  0.8630  0.3997
 1023TIP3    H124628   5.404   2.061   1.758  0.4022  0.0975 -2.2982
 1023TIP3    H224629   5.496   2.003   1.863 -2.0858 -2.4048 -1.3874
 1024TIP3   OH224630   4.189   6.336   7.387 -0.3357  0.1976 -0.5484
 1024TIP3    H124631   4.205   6.399   7.457 -0.0059  0.5445 -0.9358
 1024TIP3    H224632   4.097   6.310   7.399 -0.5618  0.9718 -0.5715
 1025TIP3   OH224633   6.289   4.376   6.897 -0.3334  0.2638 -0.1683
 1025TIP3    H124634   6.267   4.363   6.805 -1.6418 -0.0527  0.1715
 1025TIP3    H224635   6.219   4.432   6.931 -0.1145 -0.0041  0.7455
 1026TIP3   OH224636   5.739   4.964   1.105  0.3835 -0.0461 -0.3702
 1026TIP3    H124637   5.755   5.016   1.026  2.1759 -0.7543 -0.5250
 1026TIP3    H224638   5.794   4.886   1.094 -1.7269 -1.7256  0.1383
 1027TIP3   OH224639   1.154   5.707   1.356 -0.6080  0.3492  0.1700
 1027TIP3    H124640   1.190   5.723   1.268 -0.8816 -0.3077 -0.0651
 1027TIP3    H224641   1.165   5.614   1.370 -2.5544  0.0259 -0.0758
 1028TIP3   OH224642   2.237   4.392   7.010  0.0256  0.2576  0.0501
 1028TIP3    H124643   2.310   4.440   6.971 -1.2211  1.1505 -1.3118
 1028TIP3    H224644   2.279   4.327   7.067  1.8237  1.4719  0.1992
 1029TIP3   OH224645   3.732   1.495   2.664  0.1986  0.0874 -0.2693
 1029TIP3    H124646   3.715   1.466   2.754  0.9683 -1.2422 -0.5152
 1029TIP3    H224647   3.809   1.552   2.671 -1.1305  1.9065  0.1814
 1030TIP3   OH224648   4.383   3.771   0.785 -0.2528  0.0864 -0.6859
 1030TIP3    H124649   4.472   3.779   0.750 -0.1821 -0.2619 -0.5882
 1030TIP3    H224650   4.350   3.690   0.748 -0.4340  0.0779 -0.5084
 1031TIP3   OH224651   6.695   5.505   7.907  0.4784  0.0013 -0.2417
 1031TIP3    H124652   6.711   5.481   7.998 -0.7811 -1.2070 -0.2971
 1031TIP3    H224653   6.611   5.463   7.886  0.1520  1.2496 -1.5982
 1032TIP3   OH224654   4.161   6.746   2.077 -0.1195 -0.0921 -0.3459
 1032TIP3    H124655   4.069   6.733   2.057 -0.1692  1.4444 -1.2242
 1032TIP3    H224656   4.162   6.779   2.167 -0.3488 -0.9580 -0.0187
 1033TIP3   OH224657   6.031   4.133   7.626  0.6228 -0.1359 -0.1367
 1033TIP3    H124658   5.970   4.105   7.695  0.5386  0.8438  0.2152
 1033TIP3    H224659   5.974   4.169   7.558  0.7645 -0.0178 -0.1917
 1034TIP3   OH224660   5.303   0.877   7.984 -0.0526  0.3649 -0.2870
 1034TIP3    H124661   5.259   0.828   8.054  0.5429  0.3699  0.0910
 1034TIP3    H224662   5.342   0.809   7.929  0.6223  0.3974  0.1391
 1035TIP3   OH224663   1.810   0.562   0.753 -0.3644  0.1308 -0.3497
 1035TIP3    H124664   1.862   0.576   0.674 -1.3976 -0.1539 -1.1079
 1035TIP3    H224665   1.746   0.634   0.753 -0.2973  0.1907  0.2834
 1036TIP3   OH224666   3.187   6.540   8.153  0.0298 -0.1000  0.2400
 1036TIP3    H124667   3.132   6.616   8.172  1.6186  1.2387 -0.3365
 1036TIP3    H224668   3.275   6.566   8.180  0.3643 -2.3864  1.6702
 1037TIP3   OH224669   2.466   4.593   7.275  0.0614 -0.1796  0.2970
 1037TIP3    H124670   2.468   4.687   7.255 -0.7913 -0.2469 -0.1415
 1037TIP3    H224671   2.553   4.562   7.248 -0.1127  0.2413 -0.8166
 1038TIP3   OH224672   5.608   1.463   7.850  0.7981 -0.1969 -0.0782
 1038TIP3    H124673   5.550   1.429   7.783 -0.3771  0.0161  0.7997
 1038TIP3    H224674   5.655   1.536   7.808  1.4004 -1.1816 -1.1710
 1039TIP3   OH224675   1.587   1.462   6.349 -0.4899  0.0251 -0.6041
 1039TIP3    H124676   1.655   1.500   6.404 -0.9544 -0.0346  0.0232
 1039TIP3    H224677   1.549   1.538   6.303  1.3554 -0.1502 -2.5628
 1040TIP3   OH224678   2.301   6.762   7.952 -0.3013  0.4092  0.1642
 1040TIP3    H124679   2.396   6.770   7.957 -0.1790  1.5146 -2.3917
 1040TIP3    H224680   2.284   6.671   7.977  1.5265 -0.1070 -0.2912
 1041TIP3   OH224681   3.923   5.580   2.131  0.3999 -0.3018 -0.1358
 1041TIP3    H124682   3.979   5.512   2.169  0.5642  0.4882  1.0989
 1041TIP3    H224683   3.846   5.583   2.189  0.4591  0.6402 -0.0821
 1042TIP3   OH224684   5.100   4.284   6.824 -0.6808  0.2487 -0.4462
 1042TIP3    H124685   5.048   4.297   6.903  1.0159 -1.1923  0.9899
 1042TIP3    H224686   5.173   4.344   6.832 -0.4479  0.0356 -0.8957
 1043TIP3   OH224687   2.523   1.618   7.880 -0.0872  0.3001 -0.5903
 1043TIP3    H124688   2.589   1.677   7.918 -0.7791  1.0550 -0.5340
 1043TIP3    H224689   2.477   1.672   7.815 -1.3415  0.1187  0.1126
 1044TIP3   OH224690   6.405   0.624   0.053 -0.1537 -0.4128  0.1016
 1044TIP3    H124691   6.428   0.604   0.144 -0.4750 -0.1658  0.2367
 1044TIP3    H224692   6.387   0.718   0.052  2.7759  0.2742 -0.8294
 1045TIP3   OH224693   3.371   3.718   2.083  0.0405 -0.3393  0.8104
 1045TIP3    H124694   3.449   3.679   2.124 -0.1289 -0.1068  1.3585
 1045TIP3    H224695   3.369   3.808   2.115 -0.8674 -0.5542  1.4051
 1046TIP3   OH224696   0.609   4.014   7.984  0.1130  0.3293 -0.5527
 1046TIP3    H124697   0.678   4.023   8.050  0.4690 -4.4996  0.0755
 1046TIP3    H224698   0.529   4.001   8.035 -0.4625  1.1078 -1.2254
 1047TIP3   OH224699   0.553   1.902   7.804  0.1686  0.7166 -0.1628
 1047TIP3    H124700   0.582   1.811   7.807  1.7917  1.2172  0.1752
 1047TIP3    H224701   0.459   1.896   7.783  0.5253 -0.9670 -1.5511
 1048TIP3   OH224702   5.263   5.764   1.292  0.2228  0.8687  0.3938
 1048TIP3    H124703   5.244   5.724   1.207 -1.0010  1.1011  0.5414
 1048TIP3    H224704   5.228   5.853   1.284 -0.3357  0.7390  1.2923
 1049TIP3   OH224705   0.540   4.554   8.634 -0.6244 -0.1266 -0.2134
 1049TIP3    H124706   0.476   4.571   8.704  1.7451  0.0976  2.0383
 1049TIP3    H224707   0.542   4.459   8.626 -0.0138 -0.2265  0.9647
 1050TIP3   OH224708   1.229   5.495   8.477  0.7378 -0.2572 -0.0927
 1050TIP3    H124709   1.280   5.423   8.442  0.3295 -1.6929  2.0701
 1050TIP3    H224710   1.228   5.480   8.572 -0.5511  1.8107  0.2883
 1051TIP3   OH224711   1.469   1.407   7.552 -0.3647 -0.1520  0.9288
 1051TIP3    H124712   1.466   1.434   7.644  1.1254  0.6811  0.7446
 1051TIP3    H224713   1.562   1.400   7.531 -0.6613  0.3521 -0.7156
 1052TIP3   OH224714   0.063   5.107   8.311  0.1024 -0.4509 -0.1386
 1052TIP3    H124715   0.132   5.106   8.377  0.6693 -0.1576 -0.7195
 1052TIP3    H224716   0.003   5.038   8.339  0.4948 -0.5417  0.5087
 1053TIP3   OH224717   1.599   2.294   0.810 -0.3753 -0.1618  0.0146
 1053TIP3    H124718   1.564   2.379   0.782 -2.7782  0.0128  3.0493
 1053TIP3    H224719   1.692   2.310   0.822 -0.2873  1.2633 -1.9758
 1054TIP3   OH224720   4.767   1.015   1.342  0.1787  0.5253  0.3453
 1054TIP3    H124721   4.807   0.947   1.288  0.0201  0.5626  0.1785
 1054TIP3    H224722   4.744   0.971   1.423  0.4684  0.4808  0.4042
 1055TIP3   OH224723   4.455   4.912   0.796  0.7498  0.0605  0.7187
 1055TIP3    H124724   4.432   4.823   0.768  1.2768 -0.1935  1.0627
 1055TIP3    H224725   4.372   4.950   0.825  0.5000 -0.2828  0.4689
 1056TIP3   OH224726   5.274   1.676   0.671 -0.0015  0.1274  0.7131
 1056TIP3    H124727   5.321   1.672   0.588  0.2444  0.3967  0.8367
 1056TIP3    H224728   5.336   1.716   0.732 -0.4136  0.5622  0.8613
 1057TIP3   OH224729   1.004   4.094   7.735 -0.6694  0.6752  0.1715
 1057TIP3    H124730   1.038   4.059   7.653  2.0649  1.2730  0.9375
 1057TIP3    H224731   0.933   4.035   7.759  0.5806 -1.4363 -1.0253
 1058TIP3   OH224732   4.762   1.751   0.411  0.0150 -0.2376 -0.1964
 1058TIP3    H124733   4.807   1.834   0.422  3.0048 -1.6379 -0.9956
 1058TIP3    H224734   4.706   1.764   0.334  3.5412 -0.0368 -2.9913
 1059TIP3   OH224735   4.883   5.894   7.828  0.4390 -0.0849 -0.3531
 1059TIP3    H124736   4.800   5.858   7.798  0.9918 -1.0885 -0.7337
 1059TIP3    H224737   4.859   5.966   7.886 -0.6621  1.1311 -2.2255
 1060TIP3   OH224738   1.113   6.371   7.656 -0.4804  0.5250  0.1806
 1060TIP3    H124739   1.040   6.425   7.624 -0.6015  0.5689  0.5302
 1060TIP3    H224740   1.071   6.292   7.690 -0.2728  0.0220 -0.7002
 1061TIP3   OH224741   3.749   5.974   1.285  0.2216 -0.0258  0.3305
 1061TIP3    H124742   3.729   6.006   1.197 -1.3734  1.3763  1.1353
 1061TIP3    H224743   3.699   5.893   1.293  2.5742 -1.7473 -0.9563
 1062TIP3   OH224744   5.286   5.126   8.514  0.0521  0.0357  0.1529
 1062TIP3    H124745   5.309   5.124   8.421  1.5366  0.2945  0.4810
 1062TIP3    H224746   5.191   5.131   8.515  0.0498  1.0728 -1.3666
 1063TIP3   OH224747   2.426   3.229   7.086  0.1061 -0.2625  0.4418
 1063TIP3    H124748   2.405   3.302   7.144  1.8553  0.0503  0.7396
 1063TIP3    H224749   2.407   3.261   6.998 -0.8555 -0.1132  0.6904
 1064TIP3   OH224750   2.978   4.136   7.408 -0.4897 -0.3726  0.0687
 1064TIP3    H124751   3.008   4.049   7.382  1.7713  0.2158  0.4531
 1064TIP3    H224752   2.942   4.124   7.496 -0.0418 -0.8965  0.1868
 1065TIP3   OH224753   0.273   4.819   7.194 -0.7296 -0.4300  0.1212
 1065TIP3    H124754   0.281   4.776   7.109 -0.4667  1.1277 -0.6805
 1065TIP3    H224755   0.290   4.911   7.175  0.7327 -0.2457  2.1108
 1066TIP3   OH224756   4.817   5.058   8.663  0.0151 -0.0374 -0.1432
 1066TIP3    H124757   4.904   5.056   8.703  0.3752  0.2460 -0.8812
 1066TIP3    H224758   4.789   4.966   8.661  0.7614 -0.2630 -0.8514
 1067TIP3   OH224759   0.941   6.323   7.954 -0.3730 -0.0357  0.1334
 1067TIP3    H124760   1.004   6.339   8.024 -0.5124  0.4476  0.1519
 1067TIP3    H224761   0.857   6.315   7.999 -0.4501  0.1896  0.0308
 1068TIP3   OH224762   0.739   5.989   6.390  0.7135  0.3490  0.8875
 1068TIP3    H124763   0.719   5.897   6.406  0.6626  0.4597  1.5007
 1068TIP3    H224764   0.667   6.021   6.337  0.7461  0.0281  0.6492
 1069TIP3   OH224765   1.895   3.915   6.587  0.3826 -0.2343 -0.3569
 1069TIP3    H124766   1.932   3.886   6.670  0.3061 -0.1632 -0.2969
 1069TIP3    H224767   1.804   3.938   6.608  1.3620  3.6392  0.4657
 1070TIP3   OH224768   6.436   4.088   6.995 -0.6536 -0.3872 -0.2319
 1070TIP3    H124769   6.348   4.056   7.014 -0.5137 -1.5327 -1.3811
 1070TIP3    H224770   6.484   4.011   6.967  0.4872  0.3676 -0.4284
 1071TIP3   OH224771   5.712   5.827   8.596  0.1500 -0.5930  0.3022
 1071TIP3    H124772   5.668   5.763   8.540  0.6149 -0.5787 -0.0889
 1071TIP3    H224773   5.665   5.908   8.580  0.3331 -0.5687 -0.1501
 1072TIP3   OH224774   4.762   2.808   0.685 -0.5080  0.5955  0.3378
 1072TIP3    H124775   4.851   2.796   0.652 -0.3559  1.7036  0.2869
 1072TIP3    H224776   4.708   2.747   0.635  0.3331 -0.6619  0.9279
 1073TIP3   OH224777   2.004   1.174   6.052 -0.0790  0.1372  0.4133
 1073TIP3    H124778   2.072   1.240   6.069  0.0737  0.5426 -1.5546
 1073TIP3    H224779   1.945   1.216   5.990 -0.8941 -0.9991  0.3919
 1074TIP3   OH224780   2.729   6.505   7.718 -0.5098  0.4189  0.6604
 1074TIP3    H124781   2.694   6.440   7.658  0.8738  1.0708 -0.9474
 1074TIP3    H224782   2.823   6.488   7.719 -0.6414 -1.3111  4.8505
 1075TIP3   OH224783   6.551   6.522   1.838 -0.3048  0.2255  0.4667
 1075TIP3    H124784   6.598   6.461   1.896  2.0724  0.5870 -0.9637
 1075TIP3    H224785   6.490   6.467   1.790  0.9612 -0.8689  0.0590
 1076TIP3   OH224786   6.640   2.067   7.785  0.3794 -0.2090  0.2605
 1076TIP3    H124787   6.714   2.031   7.834  0.0354 -0.4651  0.5964
 1076TIP3    H224788   6.680   2.109   7.709  0.8925 -0.1066  0.5805
 1077TIP3   OH224789   3.289   0.196   1.862  0.3936 -0.2080 -0.3637
 1077TIP3    H124790   3.347   0.144   1.917  1.0071 -0.2254 -1.0209
 1077TIP3    H224791   3.346   0.262   1.822 -0.2924  0.7119  0.1203
 1078TIP3   OH224792   0.529   5.209   0.959 -0.2995  0.2288 -0.2661
 1078TIP3    H124793   0.502   5.299   0.978  0.4218  0.6218 -1.0618
 1078TIP3    H224794   0.448   5.166   0.931 -1.1686 -0.0449  2.3417
 1079TIP3   OH224795   5.232   4.684   0.097 -0.7609 -0.2850 -0.2769
 1079TIP3    H124796   5.314   4.635   0.092 -0.2475  0.6464 -1.4187
 1079TIP3    H224797   5.257   4.775   0.081 -1.4385  0.7096  3.3320
 1080TIP3   OH224798   3.390   3.499   0.956 -0.1305  0.1782 -0.4378
 1080TIP3    H124799   3.352   3.449   1.028 -0.4805  1.2830  0.1671
 1080TIP3    H224800   3.429   3.433   0.899 -0.7841 -0.7916  0.2114
 1081TIP3   OH224801   6.187   4.974   0.651 -0.4132 -0.0704 -0.5702
 1081TIP3    H124802   6.249   4.907   0.621 -0.4353 -0.2669 -0.1801
 1081TIP3    H224803   6.136   4.931   0.720 -0.8273  0.1663 -0.7258
 1082TIP3   OH224804   0.062   0.256   8.602  0.0709 -0.0488 -0.2561
 1082TIP3    H124805   0.118   0.333   8.591 -0.4581  0.4998  0.7232
 1082TIP3    H224806  -0.012   0.271   8.544  0.5646 -0.4131 -0.9860
 1083TIP3   OH224807   3.290   0.295   6.886  0.1130 -0.0707  0.3898
 1083TIP3    H124808   3.235   0.367   6.856 -0.6161 -0.5698  0.5009
 1083TIP3    H224809   3.359   0.288   6.820  0.3539  0.9035  0.5241
 1084TIP3   OH224810   2.276   5.839   0.164 -0.0214  0.6425 -0.2805
 1084TIP3    H124811   2.286   5.920   0.114  0.6175  0.0254 -1.1919
 1084TIP3    H224812   2.359   5.828   0.210 -0.6676  1.2936  1.0854
 1085TIP3   OH224813   0.373   4.663   8.360 -0.1261 -0.0813 -0.9915
 1085TIP3    H124814   0.434   4.639   8.429 -0.2905  0.2808 -0.7184
 1085TIP3    H224815   0.288   4.631   8.391 -0.1519 -0.1873 -1.1668
 1086TIP3   OH224816   1.442   4.921   0.415 -0.7972  0.3998 -0.0914
 1086TIP3    H124817   1.362   4.914   0.468 -1.1059 -2.3365 -0.7738
 1086TIP3    H224818   1.420   4.985   0.347 -1.6734  1.1668  0.8714
 1087TIP3   OH224819   0.622   1.961   8.571  0.2163 -0.1045  0.1729
 1087TIP3    H124820   0.669   1.994   8.495 -0.5350  1.1781  0.2303
 1087TIP3    H224821   0.689   1.945   8.637  0.6955  0.4864 -0.1647
 1088TIP3   OH224822   4.406   5.978   1.763 -0.3057 -0.1612  0.4338
 1088TIP3    H124823   4.353   5.967   1.683  0.0542 -1.5069  0.3529
 1088TIP3    H224824   4.345   6.016   1.827 -0.8605  0.0416 -0.1964
 1089TIP3   OH224825   5.895   2.616   1.701 -0.0404 -0.0734 -0.0147
 1089TIP3    H124826   5.973   2.619   1.645 -0.8671 -0.6746 -1.2447
 1089TIP3    H224827   5.930   2.610   1.790  1.4568  5.4130  0.1371
 1090TIP3   OH224828   5.308   2.316   1.735 -0.4783 -0.0903 -0.7151
 1090TIP3    H124829   5.241   2.374   1.698 -0.1835 -1.1712 -3.1383
 1090TIP3    H224830   5.358   2.285   1.659 -0.9459 -3.8881  0.2822
 1091TIP3   OH224831   2.007   4.913   7.954  0.0305 -0.2970  0.0492
 1091TIP3    H124832   2.073   4.962   7.906 -0.3066  0.8774  0.7333
 1091TIP3    H224833   2.057   4.852   8.008  0.4328 -1.1349 -1.2421
 1092TIP3   OH224834   5.139   3.382   8.298  0.0828  0.1168 -0.2359
 1092TIP3    H124835   5.214   3.437   8.273  0.5942 -0.3247  0.2826
 1092TIP3    H224836   5.063   3.440   8.290  0.4172  0.4497 -1.1988
 1093TIP3   OH224837   4.029   5.410   8.644  0.5527 -0.3137  0.6098
 1093TIP3    H124838   4.045   5.409   8.550 -0.1770  0.7821  0.4667
 1093TIP3    H224839   4.064   5.326   8.675  2.0753 -0.0965 -0.4194
 1094TIP3   OH224840   2.477   3.589   6.821  0.6260  0.0533 -0.3497
 1094TIP3    H124841   2.409   3.652   6.847  0.5141  0.0072 -0.5254
 1094TIP3    H224842   2.508   3.622   6.736  0.9922  0.2068 -0.1580
 1095TIP3   OH224843   4.483   0.123   6.885 -0.2407 -0.2063 -0.8418
 1095TIP3    H124844   4.431   0.204   6.885 -0.4187 -0.2915 -2.4560
 1095TIP3    H224845   4.435   0.064   6.826 -0.8651 -2.0268  1.3241
 1096TIP3   OH224846   6.307   1.991   1.023 -0.4455 -0.6270  0.0422
 1096TIP3    H124847   6.220   1.984   0.983 -0.2384  1.7059 -0.9802
 1096TIP3    H224848   6.367   2.003   0.949  0.6130 -1.1460  0.7860
 1097TIP3   OH224849   5.262   5.792   1.693 -0.1406 -0.1643 -0.1895
 1097TIP3    H124850   5.319   5.754   1.760 -1.9127  0.4716  1.8072
 1097TIP3    H224851   5.216   5.862   1.739  0.4173  2.0830 -2.7946
 1098TIP3   OH224852   2.873   6.742   0.665 -0.0455  0.2298 -0.3795
 1098TIP3    H124853   2.795   6.696   0.696  0.2254 -1.3286 -1.8414
 1098TIP3    H224854   2.842   6.791   0.588  0.3250 -0.1521 -0.7797
 1099TIP3   OH224855   6.035   4.151   7.150 -0.0815  0.9453 -0.6872
 1099TIP3    H124856   5.972   4.211   7.109 -1.4817 -1.1993 -1.9458
 1099TIP3    H224857   5.981   4.097   7.208  1.0324  0.5892  0.0341
 1100TIP3   OH224858   3.464   1.324   0.035  0.2290 -0.1148 -0.3388
 1100TIP3    H124859   3.483   1.392  -0.030  0.1967  1.4538  1.2074
 1100TIP3    H224860   3.514   1.248   0.005  0.4191  0.6186 -2.0355
 1101TIP3   OH224861   5.349   1.335   1.650 -0.3522  0.3697  0.5103
 1101TIP3    H124862   5.444   1.328   1.658 -0.3573 -0.2583  0.0818
 1101TIP3    H224863   5.317   1.342   1.740  0.1808  1.8703  0.6156
 1102TIP3   OH224864   0.453   0.679   6.351 -0.0715  0.6003  0.4416
 1102TIP3    H124865   0.504   0.598   6.353 -1.9561 -0.7690 -1.7512
 1102TIP3    H224866   0.518   0.749   6.361  2.3983 -1.0046 -2.7791
 1103TIP3   OH224867   4.316   6.486   6.432  0.3366  0.0222 -0.3104
 1103TIP3    H124868   4.337   6.574   6.402 -1.8966  0.7139 -0.0529
 1103TIP3    H224869   4.226   6.472   6.402  0.9672 -2.5664 -1.1914
 1104TIP3   OH224870   0.517   4.384   7.609  0.1950  0.8051  0.1759
 1104TIP3    H124871   0.454   4.408   7.541  1.2788 -0.9482 -1.5376
 1104TIP3    H224872   0.467   4.391   7.690 -1.3454  2.3147 -0.8197
 1105TIP3   OH224873   1.186   3.766   1.015 -1.1288 -0.4515 -0.7691
 1105TIP3    H124874   1.109   3.714   1.038 -1.0809 -0.1068  0.2271
 1105TIP3    H224875   1.154   3.856   1.012 -0.2998  0.0927  2.4435
 1106TIP3   OH224876   6.675   4.032   7.810 -0.0540  0.5670 -0.8412
 1106TIP3    H124877   6.707   4.100   7.869 -0.1181  1.3217 -1.6564
 1106TIP3    H224878   6.754   3.996   7.770  0.0576 -0.5414  0.3100
 1107TIP3   OH224879   5.909   5.513   6.541 -0.3054 -0.5645  0.3749
 1107TIP3    H124880   5.835   5.569   6.560 -0.6665 -0.9079 -0.0060
 1107TIP3    H224881   5.872   5.424   6.537 -0.0990 -0.6176 -0.9788
 1108TIP3   OH224882   4.154   0.987   0.979  0.2110 -0.6542 -0.3853
 1108TIP3    H124883   4.149   0.955   1.069  0.2978 -1.2259 -0.5802
 1108TIP3    H224884   4.119   1.076   0.983 -0.5513 -0.9692  0.0648
 1109TIP3   OH224885   4.287   6.801   0.231 -0.0570  0.1985  0.1793
 1109TIP3    H124886   4.318   6.732   0.173  0.3074 -1.5548  2.3509
 1109TIP3    H224887   4.367   6.843   0.263  0.0726 -1.7361  2.7058
 1110TIP3   OH224888   2.889   4.515   1.484 -0.0977 -0.3919 -0.2737
 1110TIP3    H124889   2.940   4.593   1.463 -0.5382 -0.5024 -1.8804
 1110TIP3    H224890   2.902   4.502   1.578  1.1896  0.7353 -0.2737
 1111TIP3   OH224891   3.024   3.896   7.959 -0.3286  0.5361 -0.1086
 1111TIP3    H124892   2.942   3.884   7.911  0.2970  0.2410 -1.1301
 1111TIP3    H224893   3.084   3.831   7.921  0.8043  1.6977 -0.3946
 1112TIP3   OH224894   3.667   6.085   8.271 -0.1953 -0.4594 -0.5758
 1112TIP3    H124895   3.697   6.033   8.346  0.0261  0.8860  0.2923
 1112TIP3    H224896   3.745   6.133   8.243 -0.4641 -0.3859 -1.2019
 1113TIP3   OH224897   0.327   4.806   0.852  0.0403  0.0392  0.5490
 1113TIP3    H124898   0.378   4.733   0.888 -2.0195 -1.6456  0.2303
 1113TIP3    H224899   0.365   4.822   0.766 -1.6335 -3.1794 -0.9520
 1114TIP3   OH224900   6.259   1.013   0.722  0.3175  0.6807 -0.2311
 1114TIP3    H124901   6.282   0.987   0.812  1.7704 -0.2571 -0.8302
 1114TIP3    H224902   6.167   0.990   0.713  0.5974 -0.8377  0.4921
 1115TIP3   OH224903   5.962   4.530   0.253  0.3104 -0.1889 -0.2261
 1115TIP3    H124904   5.923   4.589   0.318  1.3267  0.1035  0.1423
 1115TIP3    H224905   5.916   4.447   0.266 -1.1560  0.5049 -0.7723
 1116TIP3   OH224906   5.561   5.369   7.309  0.1092  0.2450  0.1757
 1116TIP3    H124907   5.475   5.374   7.350 -1.6617 -1.0199 -3.0158
 1116TIP3    H224908   5.571   5.453   7.264  0.0592  0.0076 -0.2860
 1117TIP3   OH224909   0.960   0.751   1.074  0.2429  0.0610 -0.1367
 1117TIP3    H124910   0.976   0.794   0.990 -0.2898 -0.2707 -0.4165
 1117TIP3    H224911   1.019   0.794   1.135 -0.5547  1.4695 -0.3182
 1118TIP3   OH224912   4.129   6.237   6.550  0.4598 -0.0075  0.1492
 1118TIP3    H124913   4.086   6.160   6.512 -0.3799  0.1515  0.7545
 1118TIP3    H224914   4.205   6.252   6.494  1.0347 -1.6838  0.4035
 1119TIP3   OH224915   6.105   3.904   0.412  0.3999 -0.4365 -0.0033
 1119TIP3    H124916   6.107   3.821   0.365 -0.1511  0.0322 -0.8993
 1119TIP3    H224917   6.013   3.931   0.408  0.4465 -0.1112  0.8752
 1120TIP3   OH224918   1.680   1.598   8.021 -0.4429  0.3535 -0.3490
 1120TIP3    H124919   1.688   1.512   7.980  0.5166 -0.4024  1.3617
 1120TIP3    H224920   1.739   1.596   8.096 -0.4532  2.4841 -0.2022
 1121TIP3   OH224921   5.823   2.421   2.467 -0.5223  0.0383 -0.2672
 1121TIP3    H124922   5.886   2.357   2.499  0.7742  0.3604 -1.9734
 1121TIP3    H224923   5.834   2.497   2.524 -0.5545 -0.4927  0.4577
 1122TIP3   OH224924   1.575   0.348   7.544 -0.2468 -0.0818 -0.1071
 1122TIP3    H124925   1.486   0.337   7.576 -0.3786 -1.0352 -0.7487
 1122TIP3    H224926   1.564   0.363   7.450  0.2640 -0.0667 -0.1652
 1123TIP3   OH224927   4.955   5.889   1.520 -0.1836  0.5094  0.4330
 1123TIP3    H124928   4.919   5.977   1.506 -2.3949 -0.5246 -0.9776
 1123TIP3    H224929   4.941   5.844   1.437 -0.6991 -1.7028  1.6508
 1124TIP3   OH224930   2.953   1.317   0.810 -0.4098 -0.2134  0.2097
 1124TIP3    H124931   2.897   1.250   0.771 -2.2542  0.3365  1.7531
 1124TIP3    H224932   2.948   1.390   0.748 -0.6867 -0.4887 -0.1037
 1125TIP3   OH224933   1.232   0.259   2.127 -0.0436  0.4532 -0.0702
 1125TIP3    H124934   1.320   0.247   2.093 -0.6486 -0.2148 -1.5123
 1125TIP3    H224935   1.225   0.196   2.198  0.8464  0.9683  0.4810
 1126TIP3   OH224936   6.636   1.252   7.037 -0.4310  0.3366 -0.0719
 1126TIP3    H124937   6.697   1.182   7.012  0.9074  0.3202  2.8173
 1126TIP3    H224938   6.552   1.208   7.045 -0.4751 -0.0665 -2.1518
 1127TIP3   OH224939   2.282   5.668   8.474 -0.3514  0.7397 -0.2895
 1127TIP3    H124940   2.277   5.756   8.436  1.7849  2.2449  2.5235
 1127TIP3    H224941   2.201   5.660   8.524  0.0565  1.7701  0.5907
 1128TIP3   OH224942   1.215   5.972   1.422  0.2885 -0.3082 -0.6259
 1128TIP3    H124943   1.146   6.034   1.444  0.8946  0.1425  0.0508
 1128TIP3    H224944   1.170   5.901   1.376 -0.5573  0.1662 -0.5516
 1129TIP3   OH224945   2.116   0.079   0.439 -0.4828  0.2614  0.2213
 1129TIP3    H124946   2.146   0.022   0.369 -0.1135  0.5176  0.1694
 1129TIP3    H224947   2.163   0.161   0.425  0.9005 -0.2139  1.7725
 1130TIP3   OH224948   5.526   4.274   1.966  0.0639  0.1646  0.1810
 1130TIP3    H124949   5.514   4.204   2.030 -0.4558 -0.9194 -1.0545
 1130TIP3    H224950   5.564   4.230   1.889 -2.8167  0.6370 -1.6488
 1131TIP3   OH224951   2.896   5.098   0.805  0.4882  0.6048  0.0430
 1131TIP3    H124952   2.829   5.072   0.869  0.9353 -1.6456 -0.3502
 1131TIP3    H224953   2.970   5.039   0.821  1.2366  1.0633 -1.5004
 1132TIP3   OH224954   0.453   1.858   6.751  0.1984  0.4237  0.3207
 1132TIP3    H124955   0.452   1.921   6.679  0.7320 -0.0498 -0.1042
 1132TIP3    H224956   0.425   1.776   6.711  1.2343 -0.0177  0.4895
 1133TIP3   OH224957   3.905   2.778   7.980  0.6734  0.1433  0.2858
 1133TIP3    H124958   3.841   2.839   7.942 -0.4410  0.2284  2.1771
 1133TIP3    H224959   3.990   2.810   7.948 -0.1513  0.1291 -2.1462
 1134TIP3   OH224960   5.684   3.129   6.977  0.2344  0.0764  0.3769
 1134TIP3    H124961   5.629   3.119   6.900 -2.4841 -0.3825  2.2307
 1134TIP3    H224962   5.642   3.198   7.028  1.7331  0.1168  1.6273
 1135TIP3   OH224963   4.710   1.597   8.536 -0.1856  0.5307  0.4032
 1135TIP3    H124964   4.649   1.568   8.469 -1.1780 -0.6223  1.7657
 1135TIP3    H224965   4.787   1.542   8.524 -1.0097 -0.8562  1.2312
 1136TIP3   OH224966   2.044   4.814   5.746 -0.4009 -0.3030  0.1828
 1136TIP3    H124967   2.137   4.815   5.725 -0.9708  0.0306 -2.7817
 1136TIP3    H224968   2.035   4.743   5.810  1.9411  0.0799  1.0411
 1137TIP3   OH224969   3.476   3.423   7.406 -0.4737 -0.5924 -0.3223
 1137TIP3    H124970   3.467   3.502   7.459  0.3357 -0.0314 -0.9938
 1137TIP3    H224971   3.569   3.421   7.382 -0.6016 -1.4460 -0.7765
 1138TIP3   OH224972   0.128   4.215   7.667  0.0990 -0.5556  0.4222
 1138TIP3    H124973   0.136   4.264   7.586  1.8032 -0.2871  0.7257
 1138TIP3    H224974   0.213   4.224   7.710 -0.8993 -0.2327  2.5005
 1139TIP3   OH224975   0.595   0.906   7.463 -0.2637  0.4082  0.1262
 1139TIP3    H124976   0.635   0.992   7.447 -0.2797  0.3664 -0.1298
 1139TIP3    H224977   0.664   0.856   7.507 -0.5086  0.8052  0.9946
 1140TIP3   OH224978   2.849   6.766   7.016  0.0781 -0.0620  0.6936
 1140TIP3    H124979   2.778   6.743   6.956 -0.3666 -2.2615  1.9636
 1140TIP3    H224980   2.908   6.820   6.962 -1.7688  0.6035 -0.8056
 1141TIP3   OH224981   6.082   2.664   1.490  0.3172  0.0479  0.1182
 1141TIP3    H124982   6.046   2.594   1.435 -0.9004  0.2748  0.6132
 1141TIP3    H224983   6.050   2.745   1.451  0.4028  0.2630  0.4946
 1142TIP3   OH224984   1.421   0.673   0.445 -0.4034 -0.2631 -0.0634
 1142TIP3    H124985   1.410   0.636   0.357 -0.1798 -0.9690  0.1953
 1142TIP3    H224986   1.332   0.685   0.477 -0.4876 -1.1129  0.0564
 1143TIP3   OH224987   5.831   0.850   6.613 -0.1481 -0.1434 -0.3378
 1143TIP3    H124988   5.867   0.921   6.666  1.1138 -0.8114 -0.2552
 1143TIP3    H224989   5.795   0.788   6.676 -0.6547  0.1035 -0.3793
 1144TIP3   OH224990   4.744   1.722   0.838 -0.0049 -0.1722 -0.1456
 1144TIP3    H124991   4.694   1.641   0.837  0.3198 -0.3740 -1.2973
 1144TIP3    H224992   4.679   1.791   0.854 -0.5869 -0.4803 -1.1174
 1145TIP3   OH224993   6.530   5.185   0.146  0.0328  0.0059  0.2700
 1145TIP3    H124994   6.526   5.242   0.069  0.1057  0.9946  0.9759
 1145TIP3    H224995   6.572   5.239   0.213 -0.9051 -0.5012  1.2948
 1146TIP3   OH224996   4.947   6.382   7.017 -0.0321  0.0506 -0.6792
 1146TIP3    H124997   4.866   6.420   6.982 -0.2866  1.0426  0.8529
 1146TIP3    H224998   4.921   6.346   7.102  1.1913  0.7145  0.0062
 1147TIP3   OH224999   1.499   0.933   6.791  0.5729 -0.1768 -0.1191
 1147TIP3    H125000   1.483   0.908   6.881 -1.2583  0.5013 -0.2185
 1147TIP3    H225001   1.490   0.852   6.741 -2.0445 -0.0008 -0.0655
 1148TIP3   OH225002   0.333   3.269   6.617 -0.2544 -1.1000 -0.0580
 1148TIP3    H125003   0.393   3.314   6.677  2.9000 -1.6120 -2.5047
 1148TIP3    H225004   0.340   3.177   6.641 -1.2684 -1.0266  0.5658
 1149TIP3   OH225005   4.661   0.243   6.624  0.5203  0.6582 -0.1662
 1149TIP3    H125006   4.639   0.167   6.570 -0.2129  1.7477 -1.4605
 1149TIP3    H225007   4.590   0.248   6.689  1.0291 -0.2440  0.4767
 1150TIP3   OH225008   3.798   0.330   0.347  0.5170  0.2370  0.2572
 1150TIP3    H125009   3.731   0.282   0.298  0.6705 -0.0309  0.3097
 1150TIP3    H225010   3.778   0.313   0.439 -0.3131  1.4733  0.3241
 1151TIP3   OH225011   4.083   5.980   0.175 -0.6935  0.2474 -0.2822
 1151TIP3    H125012   4.035   6.029   0.242 -2.0507 -1.2919 -0.0727
 1151TIP3    H225013   4.051   6.015   0.092 -0.2304  1.0112 -0.1503
 1152TIP3   OH225014   6.107   3.549   8.231 -0.3977  0.1297  0.3528
 1152TIP3    H125015   6.139   3.639   8.238 -1.4977  0.4394  2.5625
 1152TIP3    H225016   6.159   3.501   8.295  0.8153 -1.0807 -1.4519
 1153TIP3   OH225017   3.165   5.220   0.848  0.0720 -0.3156 -0.3099
 1153TIP3    H125018   3.121   5.300   0.879  2.4048  0.2947  1.7332
 1153TIP3    H225019   3.169   5.164   0.925  0.9347 -1.2527 -1.0195
 1154TIP3   OH225020   0.250   1.225   0.306  0.5751 -0.4949 -0.0431
 1154TIP3    H125021   0.158   1.197   0.304  0.3923  0.0691  0.1553
 1154TIP3    H225022   0.265   1.250   0.398  1.1365 -1.2544  0.0786
 1155TIP3   OH225023   6.727   0.150   8.386 -0.1509 -0.3312 -0.1244
 1155TIP3    H125024   6.769   0.108   8.311 -1.3496 -1.2031 -0.3424
 1155TIP3    H225025   6.701   0.236   8.354 -1.2877 -0.9560 -0.9752
 1156TIP3   OH225026   1.398   0.235   7.084 -1.1202  0.4239 -0.0646
 1156TIP3    H125027   1.479   0.251   7.133 -2.1275 -0.2031  1.8886
 1156TIP3    H225028   1.374   0.145   7.106 -1.2475 -0.1680 -2.3379
 1157TIP3   OH225029   6.591   0.335   0.676 -0.3491 -0.1941  0.0540
 1157TIP3    H125030   6.647   0.408   0.703 -0.4750 -0.3757  0.8400
 1157TIP3    H225031   6.530   0.323   0.750 -0.4081 -1.0083 -0.1201
 1158TIP3   OH225032   6.154   0.497   8.204 -0.5618  0.3980  0.1941
 1158TIP3    H125033   6.109   0.577   8.177  1.2807  1.4780  0.1020
 1158TIP3    H225034   6.152   0.499   8.299 -2.7356 -0.8317  0.2362
 1159TIP3   OH225035   0.260   0.446   1.531  0.0376 -0.0945  0.0071
 1159TIP3    H125036   0.341   0.472   1.486 -1.0353  0.3731 -1.7563
 1159TIP3    H225037   0.235   0.364   1.490 -0.7457  0.1253  0.0366
 1160TIP3   OH225038   5.093   5.008   7.851 -0.6238 -0.3558  0.0873
 1160TIP3    H125039   5.171   4.954   7.853  0.0709  0.4319 -2.1846
 1160TIP3    H225040   5.116   5.086   7.901 -1.2891 -1.6418  2.5250
 1161TIP3   OH225041   3.773   4.552   8.433 -0.1986 -0.4614 -0.0721
 1161TIP3    H125042   3.699   4.504   8.470 -0.3344 -0.3297 -0.1707
 1161TIP3    H225043   3.734   4.609   8.367  0.1011 -1.0573 -0.7819
 1162TIP3   OH225044   3.042   5.203   7.165  0.2974 -0.4340  0.2347
 1162TIP3    H125045   3.062   5.232   7.076  1.6802 -2.4732 -0.2119
 1162TIP3    H225046   2.947   5.205   7.171  0.2532  1.5023 -0.6238
 1163TIP3   OH225047   6.733   6.312   0.211 -0.2739 -0.1616 -0.3345
 1163TIP3    H125048   6.823   6.281   0.204 -0.4795 -0.8554 -0.0928
 1163TIP3    H225049   6.737   6.383   0.275  0.2299  0.3980 -0.9739
 1164TIP3   OH225050   0.590   5.826   0.636 -0.2621 -0.5167 -0.5192
 1164TIP3    H125051   0.502   5.850   0.667 -0.0167  1.5960 -1.2965
 1164TIP3    H225052   0.630   5.782   0.711 -1.1679  0.6543  0.7097
 1165TIP3   OH225053   2.084   5.101   7.078 -0.8345 -0.2719 -0.1535
 1165TIP3    H125054   2.025   5.176   7.081 -1.0427 -0.4382 -0.0145
 1165TIP3    H225055   2.164   5.131   7.119  0.0604  0.7131 -2.4493
 1166TIP3   OH225056   6.824   3.230   1.359 -0.2200 -0.2015  0.0516
 1166TIP3    H125057   6.796   3.239   1.450 -0.6987 -1.4726  0.0513
 1166TIP3    H225058   6.745   3.201   1.313  0.4360 -1.2492 -0.4451
 1167TIP3   OH225059   3.061   4.805   7.161 -0.5777 -0.4009  0.1329
 1167TIP3    H125060   3.113   4.726   7.173  2.6500  1.6139  0.6093
 1167TIP3    H225061   3.079   4.833   7.071 -1.2092  0.1235  0.1566
 1168TIP3   OH225062   0.005   3.873   7.175  0.1587 -0.3913 -0.2012
 1168TIP3    H125063  -0.064   3.926   7.135 -2.1511 -2.4523  0.7058
 1168TIP3    H225064   0.031   3.811   7.107 -1.4718 -1.8301  0.3987
 1169TIP3   OH225065   4.506   1.812   0.219  0.2314  0.5621  0.4470
 1169TIP3    H125066   4.497   1.801   0.124 -2.1775 -0.0252  0.6742
 1169TIP3    H225067   4.517   1.907   0.231 -0.0593  0.7139 -0.3930
 1170TIP3   OH225068   3.429   4.330   6.411 -0.2708  0.2502 -0.3629
 1170TIP3    H125069   3.423   4.402   6.348  0.8594 -1.4603 -2.5866
 1170TIP3    H225070   3.506   4.280   6.383 -1.7417 -2.5624  0.2269
 1171TIP3   OH225071   2.051   6.100   1.291 -0.5198  0.3240  0.3469
 1171TIP3    H125072   2.093   6.144   1.365  0.5414  1.1300 -0.6895
 1171TIP3    H225073   2.010   6.171   1.242 -0.8257 -0.1440 -0.0783
 1172TIP3   OH225074   1.392   4.871   8.380  0.3132 -0.0873 -0.2218
 1172TIP3    H125075   1.447   4.860   8.302  0.2335 -0.4610 -0.2308
 1172TIP3    H225076   1.435   4.817   8.447  1.1884  1.3460  0.4254
 1173TIP3   OH225077   5.558   3.755   1.428 -0.4018  0.4100 -0.3378
 1173TIP3    H125078   5.471   3.722   1.405 -1.1955  1.5957  0.7774
 1173TIP3    H225079   5.617   3.682   1.410 -1.8749 -1.0851  0.6025
 1174TIP3   OH225080   4.767   2.828   6.112 -0.4227  0.0378  0.4885
 1174TIP3    H125081   4.857   2.856   6.093  0.0734 -1.5400  0.3235
 1174TIP3    H225082   4.713   2.874   6.049  0.2766  0.9767  0.5540
 1175TIP3   OH225083   5.813   6.372   2.064  0.2557 -0.1305 -0.3682
 1175TIP3    H125084   5.900   6.411   2.070  0.7214 -1.1023 -0.6544
 1175TIP3    H225085   5.753   6.444   2.086  1.1057  0.6351 -0.4940
 1176TIP3   OH225086   0.935   5.495   0.890 -0.1630 -0.0575  0.2360
 1176TIP3    H125087   1.007   5.475   0.830 -0.3362  2.2059 -0.8363
 1176TIP3    H225088   0.892   5.411   0.904  2.2018 -1.3403  0.3074
 1177TIP3   OH225089   1.033   5.209   1.772  0.0390  0.5462 -0.7944
 1177TIP3    H125090   1.017   5.133   1.828  3.7826 -0.2134 -0.4390
 1177TIP3    H225091   0.950   5.255   1.769 -1.8347 -2.4016  0.7402
 1178TIP3   OH225092   3.997   4.114   8.389  0.1563  0.5510  0.4432
 1178TIP3    H125093   4.060   4.051   8.421  1.1334  1.5952  0.6418
 1178TIP3    H225094   3.971   4.164   8.467 -0.6460  0.3775  0.2999
 1179TIP3   OH225095   6.836   2.185   7.622 -0.1326  0.6042 -0.0795
 1179TIP3    H125096   6.812   2.257   7.681 -1.4143  2.1502 -2.3289
 1179TIP3    H225097   6.894   2.225   7.558  0.3857 -0.7754 -0.5083
 1180TIP3   OH225098   1.474   1.418   2.355  0.1804  0.5099 -0.2976
 1180TIP3    H125099   1.562   1.445   2.331  0.6949  0.0776  1.0149
 1180TIP3    H225100   1.466   1.441   2.447 -0.5420 -0.7740 -0.0058
 1181TIP3   OH225101   3.269   0.865   0.237  0.1803 -0.2863 -0.0644
 1181TIP3    H125102   3.248   0.958   0.227 -0.2798 -0.5721 -2.3902
 1181TIP3    H225103   3.364   0.861   0.225  0.3130 -0.0707  0.7975
 1182TIP3   OH225104   4.124   0.681   1.308 -0.3189  0.0042  0.2551
 1182TIP3    H125105   4.059   0.739   1.347  0.7621  1.5753 -0.1937
 1182TIP3    H225106   4.205   0.731   1.310  1.5688 -2.7198  3.0780
 1183TIP3   OH225107   2.638   5.007   8.482 -0.1966  0.2323  0.3433
 1183TIP3    H125108   2.696   4.983   8.555  0.2026 -1.7004 -0.5590
 1183TIP3    H225109   2.697   5.033   8.412 -0.4976  0.2474  0.0942
 1184TIP3   OH225110   4.472   2.304   7.604  0.3498  0.3487  0.1177
 1184TIP3    H125111   4.461   2.228   7.660 -1.5530  1.1438  0.9144
 1184TIP3    H225112   4.383   2.339   7.594  0.9229  1.3962 -1.7454
 1185TIP3   OH225113   1.425   0.312   8.133  0.0194 -0.6434  0.0964
 1185TIP3    H125114   1.373   0.257   8.074  1.0272 -0.5156 -0.9379
 1185TIP3    H225115   1.369   0.389   8.148 -0.8967 -1.3911  0.5959
 1186TIP3   OH225116   0.553   6.732   6.289  0.0736  0.0283  0.2994
 1186TIP3    H125117   0.478   6.715   6.347 -0.6368  0.6554 -0.4088
 1186TIP3    H225118   0.611   6.658   6.303 -0.5698 -0.3549  1.0426
 1187TIP3   OH225119   3.214   2.915   8.341 -0.2719  0.1961  0.5131
 1187TIP3    H125120   3.145   2.970   8.378  0.2902  0.6154  0.9514
 1187TIP3    H225121   3.213   2.835   8.395  0.7618  0.9369  1.6873
 1188TIP3   OH225122   4.261   4.299   7.525 -0.2512 -0.1463  0.1039
 1188TIP3    H125123   4.255   4.356   7.448 -3.2491 -0.4096  0.0233
 1188TIP3    H225124   4.353   4.276   7.530  0.4742  1.9003 -1.9136
 1189TIP3   OH225125   4.859   2.906   7.239  0.3861  0.1782  0.4377
 1189TIP3    H125126   4.885   2.832   7.184  0.0222  0.3520  0.0277
 1189TIP3    H225127   4.808   2.866   7.310  0.1551  0.0323  0.1941
 1190TIP3   OH225128   0.808   4.000   7.084  0.0141  0.1601  0.1388
 1190TIP3    H125129   0.747   4.025   7.016 -0.2273 -0.4865  0.1051
 1190TIP3    H225130   0.795   3.905   7.095  0.1271  0.2286  0.9995
 1191TIP3   OH225131   1.962   0.121   8.489 -0.3980 -0.6884  0.0596
 1191TIP3    H125132   1.920   0.152   8.409 -0.4157  0.1718  0.3912
 1191TIP3    H225133   1.905   0.051   8.521 -1.3425  0.1407  0.2494
 1192TIP3   OH225134   0.291   0.601   0.373 -0.2527 -0.3376 -0.1311
 1192TIP3    H125135   0.223   0.545   0.337  0.2562 -0.6003 -0.7163
 1192TIP3    H225136   0.372   0.568   0.334  0.0296  0.9931 -0.7442
 1193TIP3   OH225137   1.340   4.856   7.550 -0.0607 -0.0962  0.4182
 1193TIP3    H125138   1.360   4.802   7.627 -1.7562 -2.1078 -0.4281
 1193TIP3    H225139   1.259   4.901   7.574 -0.5650 -0.6891 -0.1308
 1194TIP3   OH225140   6.331   3.888   0.613  0.0860 -0.5485  0.1446
 1194TIP3    H125141   6.313   3.808   0.662 -0.1394 -0.6674 -0.1256
 1194TIP3    H225142   6.245   3.916   0.581 -0.3926  1.5402  2.8206
 1195TIP3   OH225143   3.261   4.817   2.400  0.3255  0.3751  0.1360
 1195TIP3    H125144   3.294   4.845   2.486  2.2963 -0.7919 -0.1765
 1195TIP3    H225145   3.276   4.722   2.399  2.0815  0.5800 -2.1396
 1196TIP3   OH225146   2.011   6.452   0.080  0.6481 -0.1457  0.8639
 1196TIP3    H125147   2.060   6.512   0.024  0.6693  0.0032  1.0419
 1196TIP3    H225148   1.961   6.397   0.019  0.2947  0.3337  0.7125
 1197TIP3   OH225149   6.860   5.527   0.991  0.2538  0.1056  0.2679
 1197TIP3    H125150   6.924   5.456   0.994  1.7673  1.3563  4.2874
 1197TIP3    H225151   6.912   5.606   0.999 -1.5214  1.7070 -2.3734
 1198TIP3   OH225152   0.862   3.976   7.505  0.1037  0.0429 -0.4585
 1198TIP3    H125153   0.871   4.046   7.441 -0.1468 -0.7830 -1.4219
 1198TIP3    H225154   0.797   4.008   7.568  1.5220  1.5146  0.3207
 1199TIP3   OH225155   4.918   3.635   0.767  0.2323 -0.2012  0.0851
 1199TIP3    H125156   4.919   3.540   0.761 -1.2237 -0.2362  0.2233
 1199TIP3    H225157   4.847   3.663   0.710  0.9097  0.8451 -0.2851
 1200TIP3   OH225158   0.750   3.091   7.378  1.1633  0.5624 -0.4277
 1200TIP3    H125159   0.758   3.011   7.326  0.3612 -0.2510  0.6409
 1200TIP3    H225160   0.815   3.081   7.447 -0.9769 -0.7094  1.5564
 1201TIP3   OH225161   5.271   1.888   1.979  0.2635  0.2764  0.2395
 1201TIP3    H125162   5.363   1.890   2.008  0.1028  0.2903  0.7465
 1201TIP3    H225163   5.222   1.925   2.052 -0.1600  0.1628  0.0125
 1202TIP3   OH225164   1.728   0.609   8.202  0.0581 -0.0771 -0.8856
 1202TIP3    H125165   1.660   0.651   8.150 -0.3733 -0.7894 -0.9022
 1202TIP3    H225166   1.810   0.643   8.165 -0.2669  0.2797 -1.2945
 1203TIP3   OH225167   3.050   0.091   1.796  0.1226  0.0169  0.2991
 1203TIP3    H125168   3.139   0.128   1.793 -0.0791  0.4704 -0.4624
 1203TIP3    H225169   3.042   0.055   1.884  0.9855  0.1701  0.4504
 1204TIP3   OH225170   6.722   4.636   1.552 -0.0774 -0.0793 -0.3920
 1204TIP3    H125171   6.654   4.652   1.617  0.9710  0.5350  0.5800
 1204TIP3    H225172   6.759   4.722   1.533  1.9099 -0.6145  0.7675
 1205TIP3   OH225173   4.529   5.770   0.605  0.0683 -0.4982 -0.0508
 1205TIP3    H125174   4.439   5.765   0.635 -0.1077 -2.4991 -0.7899
 1205TIP3    H225175   4.577   5.710   0.663  0.4262 -1.3967 -1.2371
 1206TIP3   OH225176   6.797   2.850   8.030  0.0407  0.0518 -0.0781
 1206TIP3    H125177   6.885   2.814   8.021  0.2686 -0.2852  2.5688
 1206TIP3    H225178   6.749   2.782   8.078 -1.7303  0.1598 -1.6243
 1207TIP3   OH225179   3.127   0.108   0.722  0.0465 -0.1315  0.1619
 1207TIP3    H125180   3.052   0.133   0.667  0.0712 -1.7525 -0.6741
 1207TIP3    H225181   3.203   0.122   0.667  0.2969  0.5725  0.6711
 1208TIP3   OH225182   0.657   1.320   0.342 -0.1464  0.3934 -0.1302
 1208TIP3    H125183   0.748   1.347   0.334 -0.2566  0.4337 -1.5502
 1208TIP3    H225184   0.615   1.389   0.393  0.6075  0.3876  0.5092
 1209TIP3   OH225185   6.002   4.726   7.153  0.0861  0.1661 -0.6578
 1209TIP3    H125186   5.957   4.646   7.124  0.4243  0.1871 -1.2516
 1209TIP3    H225187   6.085   4.725   7.106  0.6058  0.2675  0.2259
 1210TIP3   OH225188   0.515   1.613   7.722  0.3622 -0.3985 -0.1441
 1210TIP3    H125189   0.587   1.560   7.686  0.9155 -0.2069  0.6645
 1210TIP3    H225190   0.526   1.607   7.817 -1.7514 -1.8455  0.0712
 1211TIP3   OH225191   0.623   4.555   6.363 -0.2941 -0.4992 -0.3633
 1211TIP3    H125192   0.527   4.552   6.361 -0.4905  1.6936  1.4209
 1211TIP3    H225193   0.647   4.582   6.274 -1.3719 -0.5704 -0.6951
 1212TIP3   OH225194   3.299   4.101   0.022 -1.0391 -0.6995 -0.6515
 1212TIP3    H125195   3.264   4.046   0.093  0.7270 -1.4993 -0.3383
 1212TIP3    H225196   3.385   4.063   0.003 -0.5909  0.7985 -1.7821
 1213TIP3   OH225197   1.161   3.850   7.502  0.7197  0.5849  0.0092
 1213TIP3    H125198   1.085   3.830   7.446  0.2135  2.1674  0.0876
 1213TIP3    H225199   1.142   3.807   7.585  0.3559  0.2044 -0.2660
 1214TIP3   OH225200   4.071   6.336   0.700  0.0127 -0.2423  0.0874
 1214TIP3    H125201   4.133   6.287   0.645 -0.3635 -1.6943  0.8964
 1214TIP3    H225202   3.993   6.345   0.645 -0.0140 -0.8129  0.0244
 1215TIP3   OH225203   6.536   0.923   6.901  0.6926 -0.6220 -0.4920
 1215TIP3    H125204   6.486   0.962   6.973  0.2236 -2.1275  0.0383
 1215TIP3    H225205   6.475   0.925   6.827 -0.3558 -2.6812  0.2145
 1216TIP3   OH225206   3.585   6.005   0.626  0.4800  0.0724 -0.5202
 1216TIP3    H125207   3.620   6.077   0.573 -1.1813  0.4858 -1.1232
 1216TIP3    H225208   3.493   5.998   0.599 -0.3668  0.0861  2.0844
 1217TIP3   OH225209   4.925   0.976   0.979 -0.2929  0.3016 -0.7208
 1217TIP3    H125210   4.937   1.061   0.936 -2.5822  0.6665 -0.7416
 1217TIP3    H225211   4.868   0.927   0.919 -0.1845 -0.7099 -0.0210
 1218TIP3   OH225212   3.082   2.472   1.082 -0.2182  0.0691 -0.1751
 1218TIP3    H125213   2.992   2.482   1.113 -0.2704 -3.0603  1.0257
 1218TIP3    H225214   3.093   2.543   1.019 -2.6290  2.1638  1.5421
 1219TIP3   OH225215   4.265   3.028   5.862  0.2848  0.5469  0.5389
 1219TIP3    H125216   4.245   3.034   5.956  0.5374 -1.0575  0.7094
 1219TIP3    H225217   4.360   3.021   5.858  0.2166 -0.2601  0.2168
 1220TIP3   OH225218   5.164   4.011   7.428  0.5117 -0.1349 -0.3266
 1220TIP3    H125219   5.227   4.081   7.410 -0.7740  0.9334 -0.7694
 1220TIP3    H225220   5.108   4.008   7.350 -1.1133  0.1826  0.7786
 1221TIP3   OH225221   0.996   2.713   1.044 -0.2225 -0.5604  0.2124
 1221TIP3    H125222   1.015   2.619   1.045 -0.3948 -0.6243  2.5339
 1221TIP3    H225223   0.901   2.719   1.030 -0.1138 -0.6767 -0.6333
 1222TIP3   OH225224   6.238   4.546   1.144  0.3291  0.3834 -0.9811
 1222TIP3    H125225   6.201   4.626   1.181  2.3354  0.5141  0.8942
 1222TIP3    H225226   6.233   4.559   1.049 -1.7951  1.5443 -0.7659
 1223TIP3   OH225227   1.295   6.830   0.116 -0.1237  0.4296  0.1458
 1223TIP3    H125228   1.218   6.793   0.161  0.5070 -1.6665 -0.3849
 1223TIP3    H225229   1.355   6.853   0.187  0.7205 -2.5226  0.5475
 1224TIP3   OH225230   5.418   1.623   1.603  0.5121  0.2828 -0.1848
 1224TIP3    H125231   5.381   1.557   1.545  0.6007  0.3242 -0.2894
 1224TIP3    H225232   5.359   1.626   1.678  1.3482 -1.0363  0.5612
 1225TIP3   OH225233   0.570   6.299   8.285  0.2300  0.4195 -0.1373
 1225TIP3    H125234   0.661   6.283   8.312  0.2478  0.1985 -0.3226
 1225TIP3    H225235   0.575   6.308   8.189 -0.2714 -2.0262 -0.4574
 1226TIP3   OH225236   3.052   4.499   0.631 -0.0327 -0.8117  0.0290
 1226TIP3    H125237   3.113   4.532   0.697  0.7179 -0.9973 -0.5586
 1226TIP3    H225238   3.077   4.408   0.617 -1.7490 -1.5265  1.2511
 1227TIP3   OH225239   4.698   2.306   7.854  0.0705  0.4339  0.4810
 1227TIP3    H125240   4.745   2.314   7.937  0.9236 -0.6754  0.1293
 1227TIP3    H225241   4.665   2.217   7.853  2.4777 -0.5707 -1.5457
 1228TIP3   OH225242   5.856   3.985   0.512 -0.3770  0.7482 -0.1508
 1228TIP3    H125243   5.919   4.005   0.581 -0.1175 -2.1248  0.5514
 1228TIP3    H225244   5.781   4.040   0.531 -0.0769  0.4553  2.0939
 1229TIP3   OH225245   6.239   4.591   0.156  0.3128 -0.2167  0.5034
 1229TIP3    H125246   6.269   4.649   0.086  0.2919  1.9871  2.2042
 1229TIP3    H225247   6.143   4.591   0.147  0.3270 -0.2071  0.3395
 1230TIP3   OH225248   3.179   6.587   1.782  0.0380 -0.5888  0.2131
 1230TIP3    H125249   3.140   6.587   1.694  1.3286 -0.6068 -0.3840
 1230TIP3    H225250   3.106   6.606   1.841 -0.3687  2.2942 -1.0800
 1231TIP3   OH225251   2.377   0.862   1.401 -0.0063 -0.4387 -0.3704
 1231TIP3    H125252   2.432   0.918   1.457  0.7204  0.0499 -1.5252
 1231TIP3    H225253   2.288   0.889   1.421  0.2852  0.3947 -0.1419
 1232TIP3   OH225254   5.855   6.761   8.522  0.9587 -0.2244  0.3773
 1232TIP3    H125255   5.779   6.814   8.497  0.2425 -1.0076  0.8121
 1232TIP3    H225256   5.928   6.799   8.473  0.6003  1.5091  1.1189
 1233TIP3   OH225257   2.652   0.029   8.105  0.0879  0.2127 -0.4033
 1233TIP3    H125258   2.709   0.029   8.029  0.4627 -1.9927 -0.1912
 1233TIP3    H225259   2.594  -0.045   8.091 -0.4091  0.2983  1.0473
 1234TIP3   OH225260   4.708   2.436   6.530  0.6509 -0.0452 -0.6220
 1234TIP3    H125261   4.738   2.421   6.440  0.3609 -0.3351 -0.6735
 1234TIP3    H225262   4.761   2.509   6.561  0.6578  0.1481 -1.0781
 1235TIP3   OH225263   6.416   3.446   6.689 -0.4583 -0.6958  0.5351
 1235TIP3    H125264   6.450   3.464   6.777  0.3495  1.7613 -0.2067
 1235TIP3    H225265   6.482   3.390   6.649 -0.7686 -1.7245  1.4103
 1236TIP3   OH225266   2.775   0.965   7.056 -0.1656  0.2932 -0.0716
 1236TIP3    H125267   2.699   0.990   7.003  0.4786 -0.5144 -1.4388
 1236TIP3    H225268   2.830   0.915   6.996  0.3888 -1.0679  1.4911
 1237TIP3   OH225269   4.645   6.515   0.911  0.4732  0.1832 -0.1968
 1237TIP3    H125270   4.683   6.473   0.834  0.4156  0.1375 -0.2005
 1237TIP3    H225271   4.551   6.500   0.903  0.5344 -0.5312  0.2999
 1238TIP3   OH225272   6.202   5.203   1.270 -1.4255  0.0121  0.2526
 1238TIP3    H125273   6.255   5.283   1.273 -1.4398  0.0220  0.2464
 1238TIP3    H225274   6.112   5.235   1.278 -1.4855  0.0590 -0.5765
 1239TIP3   OH225275   2.796   2.711   6.981 -0.2048 -0.3332  0.3187
 1239TIP3    H125276   2.859   2.767   6.936  0.2867 -0.4976  0.7870
 1239TIP3    H225277   2.798   2.629   6.932 -0.2643 -0.2392  0.1602
 1240TIP3   OH225278   4.109   4.905   6.690  0.2715 -0.0320 -0.1204
 1240TIP3    H125279   4.019   4.925   6.713  0.8945  1.4158  1.2187
 1240TIP3    H225280   4.115   4.809   6.696 -0.6020 -0.0026  2.0846
 1241TIP3   OH225281   4.921   1.017   8.352 -0.0091 -0.4830  0.1935
 1241TIP3    H125282   4.928   0.940   8.297 -1.2604 -0.2161 -0.3674
 1241TIP3    H225283   4.835   1.054   8.332  0.7369  1.3423  0.0636
 1242TIP3   OH225284   2.064   5.356   8.312  0.4175 -0.1937  0.2354
 1242TIP3    H125285   1.983   5.323   8.352 -0.5027  1.8663  0.2002
 1242TIP3    H225286   2.091   5.427   8.369  2.3191 -0.9195  0.3058
 1243TIP3   OH225287   4.132   1.709   0.193 -0.5496  0.4297 -0.1201
 1243TIP3    H125288   4.081   1.744   0.120  0.7882  0.9629 -0.8438
 1243TIP3    H225289   4.156   1.621   0.164 -1.1445  0.1310  0.2747
 1244TIP3   OH225290   2.565   5.978   1.735 -0.6439  0.0562  0.1635
 1244TIP3    H125291   2.619   6.041   1.781 -1.3355 -0.1178  1.2702
 1244TIP3    H225292   2.476   6.012   1.743 -0.9622 -0.7714  0.3082
 1245TIP3   OH225293   2.263   0.513   7.610 -0.1211  0.9444  0.2888
 1245TIP3    H125294   2.219   0.584   7.656  0.6532  2.0179 -0.5718
 1245TIP3    H225295   2.343   0.552   7.576 -0.5323  0.1513 -1.7450
 1246TIP3   OH225296   4.834   2.581   1.727 -0.1996  0.0849  0.2258
 1246TIP3    H125297   4.850   2.673   1.749 -0.7539  0.0440  0.8498
 1246TIP3    H225298   4.765   2.554   1.788  1.6799 -1.4641  1.8182
 1247TIP3   OH225299   4.035   0.533   6.806 -0.0183  0.2378 -0.4551
 1247TIP3    H125300   4.054   0.441   6.823 -2.7355 -0.6868 -1.8891
 1247TIP3    H225301   4.032   0.574   6.893 -0.0474 -1.2955  0.2868
 1248TIP3   OH225302   2.831   0.808   1.026  0.5859  0.1237  0.6657
 1248TIP3    H125303   2.737   0.794   1.042  0.5080 -3.2956 -1.6676
 1248TIP3    H225304   2.873   0.727   1.055  2.5717  0.8666  0.0314
 1249TIP3   OH225305   4.478   2.684   6.436 -0.2747 -0.1927  0.0893
 1249TIP3    H125306   4.495   2.607   6.489  0.8216 -0.7692 -1.0411
 1249TIP3    H225307   4.535   2.752   6.472  0.1068 -0.4404 -0.0473
 1250TIP3   OH225308   3.748   2.668   6.468 -0.3554 -0.2188  0.1842
 1250TIP3    H125309   3.739   2.686   6.561 -0.3703  0.4681  0.0536
 1250TIP3    H225310   3.738   2.753   6.425  1.3401 -0.2546 -0.3434
 1251TIP3   OH225311   3.291   6.666   0.634 -0.4588 -0.0874  0.1210
 1251TIP3    H125312   3.303   6.757   0.609  0.6879 -0.2236  0.0948
 1251TIP3    H225313   3.361   6.650   0.698 -0.0714 -1.1805 -0.5429
 1252TIP3   OH225314   1.211   4.197   1.949 -0.6999 -0.1174 -0.0004
 1252TIP3    H125315   1.290   4.199   2.002  0.4872  2.3636 -1.6718
 1252TIP3    H225316   1.174   4.109   1.963  1.2199 -0.6322  2.3712
 1253TIP3   OH225317   3.869   1.809   1.068 -0.0622 -0.4122 -0.3475
 1253TIP3    H125318   3.892   1.729   1.115 -0.2152  0.1770  0.7565
 1253TIP3    H225319   3.790   1.840   1.112  0.6844  1.0088  0.0461
 1254TIP3   OH225320   6.543   5.463   1.454  0.5946 -0.6876 -0.3747
 1254TIP3    H125321   6.521   5.485   1.545 -2.5028 -1.5000 -0.7933
 1254TIP3    H225322   6.600   5.534   1.425 -0.4422  1.0081  1.4660
 1255TIP3   OH225323   3.489   1.676   1.091  0.3185 -0.4188 -0.0856
 1255TIP3    H125324   3.418   1.673   1.028 -0.4002  2.3342  0.4828
 1255TIP3    H225325   3.546   1.603   1.067 -3.5031 -3.9333  0.5631
 1256TIP3   OH225326   4.614   3.587   6.160 -0.3593  0.2531  0.0008
 1256TIP3    H125327   4.669   3.632   6.224 -0.3010 -0.1394  0.2257
 1256TIP3    H225328   4.549   3.541   6.212 -0.1972 -0.2193 -0.2121
 1257TIP3   OH225329   3.815   3.370   0.912 -0.2050  0.0503  0.2099
 1257TIP3    H125330   3.783   3.308   0.847  1.8695 -0.8879  0.0084
 1257TIP3    H225331   3.803   3.325   0.996  0.3114 -0.1876  0.1584
 1258TIP3   OH225332   4.313   2.871   2.072  0.4049  0.0428 -0.4421
 1258TIP3    H125333   4.398   2.831   2.092  0.4519  0.8440  1.1050
 1258TIP3    H225334   4.331   2.965   2.072 -0.1066  0.1679 -2.0596
 1259TIP3   OH225335   2.398   1.025   7.456  0.2623 -0.2133 -0.1559
 1259TIP3    H125336   2.444   1.034   7.372  1.5294 -1.9349  0.2975
 1259TIP3    H225337   2.424   1.102   7.506  0.9213 -0.0624 -0.7046
 1260TIP3   OH225338   2.995   5.645   1.169  0.7090 -0.2496  0.4202
 1260TIP3    H125339   2.979   5.733   1.134  1.5637 -0.1270  0.3278
 1260TIP3    H225340   2.911   5.620   1.208 -0.2416 -0.3681 -1.6141
 1261TIP3   OH225341   2.362   5.521   7.460 -0.2341  0.2079  0.2950
 1261TIP3    H125342   2.400   5.459   7.522  1.7592  0.2339 -0.8240
 1261TIP3    H225343   2.425   5.525   7.388 -2.6825 -0.2242 -2.0269
 1262TIP3   OH225344   1.234   3.139   6.781 -0.4566  0.2140 -0.1226
 1262TIP3    H125345   1.220   3.150   6.687 -0.9928 -1.8737 -0.3458
 1262TIP3    H225346   1.185   3.059   6.803  0.5217  0.0692  1.7168
 1263TIP3   OH225347   2.016   2.499   7.239  0.2704 -0.0272  0.4449
 1263TIP3    H125348   2.100   2.501   7.193  0.7687 -0.2212  1.3299
 1263TIP3    H225349   1.973   2.420   7.205  0.6646 -0.2148  0.3709
 1264TIP3   OH225350   0.683   4.724   6.581  0.1522 -0.2707 -0.1747
 1264TIP3    H125351   0.767   4.679   6.593  1.2637  1.6768 -0.1821
 1264TIP3    H225352   0.637   4.672   6.516  0.3862 -2.6292  1.4350
 1265TIP3   OH225353   0.497   0.539   8.066  0.0525  0.3144 -0.0636
 1265TIP3    H125354   0.549   0.483   8.123 -1.0089 -3.0751 -2.1090
 1265TIP3    H225355   0.540   0.531   7.980 -2.0899 -0.2158 -1.1451
 1266TIP3   OH225356   4.664   3.566   0.299  0.7329  0.2052 -0.4305
 1266TIP3    H125357   4.712   3.511   0.361  0.7662 -1.7964 -2.1161
 1266TIP3    H225358   4.610   3.505   0.249 -0.7055  1.9613 -1.1431
 1267TIP3   OH225359   6.065   5.177   7.786  0.7868 -0.4523  0.0460
 1267TIP3    H125360   6.147   5.224   7.769  1.7714 -2.8587 -2.6429
 1267TIP3    H225361   6.018   5.233   7.847  3.8073  1.7212  0.6200
 1268TIP3   OH225362   4.597   4.706   7.278 -0.1576  0.2499  0.1646
 1268TIP3    H125363   4.520   4.762   7.283 -0.2847  0.1941 -0.9296
 1268TIP3    H225364   4.571   4.626   7.324 -0.9506  0.0272 -0.6472
 1269TIP3   OH225365   2.547   4.149   0.935  0.3507  0.1759  0.4857
 1269TIP3    H125366   2.630   4.189   0.961  2.1708 -2.4409 -0.9401
 1269TIP3    H225367   2.558   4.056   0.953 -0.2426 -1.0881 -4.3036
 1270TIP3   OH225368   0.669   6.153   0.185  0.6573  0.0532 -0.4821
 1270TIP3    H125369   0.684   6.087   0.253 -0.2700  0.4929  0.1648
 1270TIP3    H225370   0.596   6.206   0.218  0.2988  0.3797 -1.7475
 1271TIP3   OH225371   2.773   5.327   6.983 -0.5641 -0.4487 -0.4512
 1271TIP3    H125372   2.777   5.311   7.077  1.0483  0.6124 -0.3008
 1271TIP3    H225373   2.844   5.389   6.966 -0.1393 -1.4079 -2.5274
 1272TIP3   OH225374   1.915   2.069   2.067 -0.0092 -0.2362 -0.4720
 1272TIP3    H125375   1.934   2.162   2.082 -0.0190 -0.1698 -0.8473
 1272TIP3    H225376   1.827   2.056   2.102 -0.2050  0.0149 -0.8588
 1273TIP3   OH225377   2.683   5.891   1.508 -0.6622 -0.0816  0.1257
 1273TIP3    H125378   2.643   5.924   1.588 -1.0032  1.6532 -0.7057
 1273TIP3    H225379   2.763   5.942   1.499 -0.6842 -0.1838 -0.7016
 1274TIP3   OH225380   5.388   4.465   1.134 -0.1519  0.3078  0.0800
 1274TIP3    H125381   5.348   4.536   1.083 -0.6259  0.6493  0.9062
 1274TIP3    H225382   5.433   4.411   1.069 -1.9793 -0.1087 -0.9059
 1275TIP3   OH225383   5.835   3.156   1.120 -0.0648  0.3105 -0.3495
 1275TIP3    H125384   5.916   3.201   1.143 -0.4948  1.3802 -0.8273
 1275TIP3    H225385   5.818   3.098   1.194  0.8597  0.4623 -0.0064
 1276TIP3   OH225386   0.983   1.242   8.120  0.0147  0.2375  0.2360
 1276TIP3    H125387   0.910   1.184   8.143  1.5305 -1.0993  2.0329
 1276TIP3    H225388   1.056   1.182   8.101  1.2112  1.5220  0.5957
 1277TIP3   OH225389   3.995   0.887   1.461 -0.5745  0.7102  0.4429
 1277TIP3    H125390   4.039   0.873   1.545 -2.4300  1.5191  1.6136
 1277TIP3    H225391   3.964   0.978   1.465  0.8023  1.3814 -1.8905
 1278TIP3   OH225392   2.414   2.821   7.318 -1.0390 -0.2909 -0.4666
 1278TIP3    H125393   2.451   2.780   7.396 -1.7983  1.2367  0.7433
 1278TIP3    H225394   2.487   2.870   7.279 -0.7219 -0.8571 -0.5932
 1279TIP3   OH225395   3.993   0.238   7.765  0.4698 -0.7850 -0.1103
 1279TIP3    H125396   3.991   0.216   7.858  0.0790  0.6925  0.2546
 1279TIP3    H225397   4.086   0.249   7.745  0.5304 -0.7204  0.2039
 1280TIP3   OH225398   1.589   3.089   2.618 -0.2789  0.0583  0.0404
 1280TIP3    H125399   1.516   3.079   2.557  0.8327  0.0810 -1.3486
 1280TIP3    H225400   1.637   3.006   2.613  1.7910  1.2697 -1.8389
 1281TIP3   OH225401   5.651   3.432   1.509  0.9435  0.6496  0.1639
 1281TIP3    H125402   5.634   3.394   1.596  0.3164 -0.0892 -0.2654
 1281TIP3    H225403   5.574   3.484   1.490  1.3982  1.4006  0.3480
 1282TIP3   OH225404   1.925   4.774   8.496 -0.1819  0.0678 -0.3885
 1282TIP3    H125405   2.003   4.731   8.531 -0.1299  0.4812  0.0246
 1282TIP3    H225406   1.958   4.855   8.458 -0.4813  0.5738  0.3977
 1283TIP3   OH225407   1.167   3.586   0.608  0.0070  0.3002  0.2797
 1283TIP3    H125408   1.089   3.641   0.613  0.4735  0.9639  0.2826
 1283TIP3    H225409   1.221   3.614   0.682 -0.2819 -0.9983  1.0278
 1284TIP3   OH225410   0.259   3.884   6.283 -0.4275 -0.1423  0.0042
 1284TIP3    H125411   0.324   3.885   6.354 -0.6836 -0.2668  0.2413
 1284TIP3    H225412   0.266   3.796   6.245 -0.3760 -0.1163 -0.0468
 1285TIP3   OH225413   3.117   3.479   1.531  0.1450 -0.6302  0.4800
 1285TIP3    H125414   3.198   3.521   1.506  0.3068 -0.5163  1.1621
 1285TIP3    H225415   3.141   3.420   1.603 -0.5402  0.2209  1.4396
 1286TIP3   OH225416   3.127   3.531   8.159  0.7694 -0.4399  0.1517
 1286TIP3    H125417   3.179   3.493   8.230  1.0350  0.1165  0.2562
 1286TIP3    H225418   3.128   3.625   8.176  0.4883 -0.3425 -0.3576
 1287TIP3   OH225419   2.764   5.499   1.211 -0.1653  0.3276 -0.0894
 1287TIP3    H125420   2.690   5.558   1.229 -0.4289  0.4624 -1.5014
 1287TIP3    H225421   2.728   5.411   1.226 -1.0667  0.3001 -1.9963
 1288TIP3   OH225422   1.793   4.400   7.076  0.0314  0.0393  0.5090
 1288TIP3    H125423   1.751   4.399   7.162 -0.2113 -2.5227  0.4321
 1288TIP3    H225424   1.721   4.396   7.013  0.2218  1.4859  0.1783
 1289TIP3   OH225425   0.838   6.532   0.779 -0.2741 -0.3561 -0.2883
 1289TIP3    H125426   0.908   6.548   0.843 -0.2617 -0.4494 -0.2788
 1289TIP3    H225427   0.833   6.437   0.771 -1.5905 -0.4174  1.0047
 1290TIP3   OH225428   1.370   3.260   0.543 -0.2410  0.0946  0.0974
 1290TIP3    H125429   1.387   3.212   0.462  1.2858  1.3335 -0.3424
 1290TIP3    H225430   1.413   3.208   0.611 -0.7500 -0.4579  0.0151
 1291TIP3   OH225431   5.493   6.633   7.371  0.5424  0.2945  0.0161
 1291TIP3    H125432   5.480   6.549   7.414 -0.9695  0.7570  0.5336
 1291TIP3    H225433   5.579   6.663   7.402  0.9226 -0.8727  0.1236
 1292TIP3   OH225434   0.635   0.751   0.308 -0.3773 -0.2749  0.4108
 1292TIP3    H125435   0.626   0.658   0.327  1.7614 -0.4437  0.8613
 1292TIP3    H225436   0.719   0.759   0.263 -0.3106  1.4781  0.7556
 1293TIP3   OH225437   5.473   4.596   1.658  0.6844 -0.2432  0.5139
 1293TIP3    H125438   5.401   4.656   1.677  0.9641 -0.0914  1.1234
 1293TIP3    H225439   5.512   4.630   1.577 -0.9999 -1.3471 -0.8243
 1294TIP3   OH225440   0.097   2.445   1.865  0.4402 -0.3062  0.3091
 1294TIP3    H125441   0.056   2.410   1.944  0.8207 -0.5276  0.4138
 1294TIP3    H225442   0.055   2.529   1.851 -0.4001 -0.7394  0.1374
 1295TIP3   OH225443   4.004   3.428   1.835  0.8868  0.4544  0.1221
 1295TIP3    H125444   3.985   3.483   1.911  1.4235 -0.2545  0.7937
 1295TIP3    H225445   4.049   3.486   1.774  2.5100  0.5327  1.2997
 1296TIP3   OH225446   5.401   1.846   8.401  0.6159  0.3872 -0.1859
 1296TIP3    H125447   5.335   1.811   8.342 -0.8018  0.0061  1.5225
 1296TIP3    H225448   5.354   1.863   8.483  2.2385  1.9539  0.5072
 1297TIP3   OH225449   0.324   2.423   8.247  0.5764 -0.4650  0.3828
 1297TIP3    H125450   0.382   2.489   8.284 -0.1670 -0.3015  1.3170
 1297TIP3    H225451   0.382   2.359   8.207  1.3074  1.3789 -1.7276
 1298TIP3   OH225452   1.677   3.450   8.177 -0.1167  0.1107  0.7070
 1298TIP3    H125453   1.617   3.478   8.247 -1.1758 -0.7049  0.1584
 1298TIP3    H225454   1.694   3.531   8.128  1.6677  0.9706  2.5910
 1299TIP3   OH225455   1.938   4.667   1.450 -0.0839  0.0867 -0.7012
 1299TIP3    H125456   1.881   4.673   1.527  0.0975  1.4814 -0.6478
 1299TIP3    H225457   1.898   4.724   1.385 -0.1717 -0.9869 -1.6342
 1300TIP3   OH225458   2.761   1.033   7.610 -0.4133  0.2232 -0.0006
 1300TIP3    H125459   2.842   0.984   7.626 -0.9073 -0.5719  0.1006
 1300TIP3    H225460   2.702   1.004   7.679 -0.7898  0.8102 -0.0683
 1301TIP3   OH225461   2.719   1.871   2.546  0.1722 -0.0867  0.1862
 1301TIP3    H125462   2.754   1.924   2.474 -0.0951 -2.1003 -1.5460
 1301TIP3    H225463   2.789   1.868   2.610  2.1172 -1.5322 -1.8509
 1302TIP3   OH225464   1.676   5.359   8.643 -0.2039 -0.2238  0.0805
 1302TIP3    H125465   1.593   5.347   8.596 -0.2836  1.3398 -0.2494
 1302TIP3    H225466   1.724   5.277   8.629 -0.0377  0.2983 -3.1711
 1303TIP3   OH225467   0.429   2.670   8.348 -0.2121  0.7790  0.2865
 1303TIP3    H125468   0.348   2.722   8.351 -1.3367 -0.9220  1.0557
 1303TIP3    H225469   0.453   2.660   8.440  0.7439  1.0493  0.0694
 1304TIP3   OH225470   6.147   2.608   2.273  0.1004  0.2577 -0.3085
 1304TIP3    H125471   6.223   2.552   2.286  1.8861  2.3686 -1.1729
 1304TIP3    H225472   6.138   2.656   2.356 -0.3672 -0.0369 -0.1819
 1305TIP3   OH225473   6.362   2.067   6.536  0.1882 -0.1164 -0.0956
 1305TIP3    H125474   6.286   2.009   6.529  0.4556 -0.3096 -2.0490
 1305TIP3    H225475   6.432   2.021   6.490  1.3965  0.2580  1.2890
 1306TIP3   OH225476   0.460   3.505   1.756  0.2393  0.5550  0.7115
 1306TIP3    H125477   0.379   3.506   1.705  0.6139  0.9922  0.1183
 1306TIP3    H225478   0.529   3.495   1.691  0.5936 -1.5718  1.3348
 1307TIP3   OH225479   2.473   2.278   0.223  0.0774 -0.3929 -0.1623
 1307TIP3    H125480   2.421   2.199   0.235 -0.8488  0.2505  0.1257
 1307TIP3    H225481   2.480   2.288   0.128 -0.7432 -0.2242 -0.2125
 1308TIP3   OH225482   2.260   1.750   0.775  0.1634 -0.1063 -0.5722
 1308TIP3    H125483   2.207   1.771   0.698 -0.2501 -1.2127 -0.5954
 1308TIP3    H225484   2.304   1.668   0.753  0.1685 -0.3491  0.3106
 1309TIP3   OH225485   6.542   2.111   2.542  0.2314  0.2159 -0.4087
 1309TIP3    H125486   6.627   2.108   2.586 -0.2954  1.1906  0.7389
 1309TIP3    H225487   6.553   2.175   2.473  0.1115  1.2694  0.5182
 1310TIP3   OH225488   5.849   4.232   7.409  0.6149  0.1498 -0.0210
 1310TIP3    H125489   5.833   4.263   7.320  0.5411  0.4470  0.0946
 1310TIP3    H225490   5.765   4.196   7.438  0.9831 -1.2121 -0.5630
 1311TIP3   OH225491   3.699   0.091   0.818 -0.3360  0.4094 -0.0541
 1311TIP3    H125492   3.623   0.102   0.876 -1.8304 -0.4281 -1.7685
 1311TIP3    H225493   3.692   0.001   0.786 -0.5725  1.3320 -2.8512
 1312TIP3   OH225494   2.153   0.688   0.316 -0.4029 -0.0180  0.3114
 1312TIP3    H125495   2.224   0.708   0.255 -0.0452 -0.0804  0.7028
 1312TIP3    H225496   2.078   0.668   0.260 -0.6411  1.8700 -0.1167
 1313TIP3   OH225497   0.593   1.462   6.565 -0.2532 -0.3235 -0.0109
 1313TIP3    H125498   0.606   1.410   6.486 -2.4147 -0.4638 -0.3113
 1313TIP3    H225499   0.680   1.498   6.584  0.5764 -1.3279 -1.6889
 1314TIP3   OH225500   0.333   0.734   1.336  0.1140  0.1358 -0.0364
 1314TIP3    H125501   0.393   0.661   1.345 -0.3072 -0.0850  1.2968
 1314TIP3    H225502   0.347   0.787   1.415 -0.9556  0.4330 -0.0212
 1315TIP3   OH225503   0.558   1.787   7.009  0.0499  0.3739  0.2770
 1315TIP3    H125504   0.490   1.770   7.073  0.7229 -0.8124  0.7099
 1315TIP3    H225505   0.511   1.800   6.926 -0.7283  0.1721  0.6854
 1316TIP3   OH225506   3.779   6.095   6.115  0.5500  0.7866  0.1338
 1316TIP3    H125507   3.684   6.085   6.116  0.4398  0.9862 -2.2518
 1316TIP3    H225508   3.811   6.028   6.174 -0.9751 -1.1221 -1.0746
 1317TIP3   OH225509   3.467   0.889   8.092 -0.0106  0.7497  0.2024
 1317TIP3    H125510   3.534   0.869   8.027  0.6097  2.1594  0.3665
 1317TIP3    H225511   3.385   0.863   8.051  0.4020  1.2999 -1.0014
 1318TIP3   OH225512   0.854   2.015   0.388 -0.0098  0.1719 -0.2824
 1318TIP3    H125513   0.923   1.974   0.335  0.7029  0.3126  0.5280
 1318TIP3    H225514   0.898   2.086   0.435 -1.0173  1.2371 -0.8800
 1319TIP3   OH225515   2.166   2.977   1.780  0.1954  0.0020  0.2116
 1319TIP3    H125516   2.186   3.067   1.805  1.3907 -0.7992  2.2946
 1319TIP3    H225517   2.074   2.966   1.802  0.4787  0.2218  1.5492
 1320TIP3   OH225518   3.276   4.364   0.326 -0.1362  0.9481 -0.7807
 1320TIP3    H125519   3.216   4.320   0.387  1.7681 -0.9050 -0.1343
 1320TIP3    H225520   3.359   4.318   0.337  1.4767  3.5156 -1.5393
 1321TIP3   OH225521   1.432   1.579   6.806  0.0881 -0.1247 -0.6257
 1321TIP3    H125522   1.487   1.644   6.763  3.8832 -3.5057 -1.4555
 1321TIP3    H225523   1.401   1.524   6.734 -1.7925 -0.2026  0.1934
 1322TIP3   OH225524   6.696   5.114   7.250  0.1980  0.0812 -0.3293
 1322TIP3    H125525   6.635   5.098   7.322  2.3190  0.1079  1.5838
 1322TIP3    H225526   6.736   5.199   7.271  1.5648 -0.3746 -0.9981
 1323TIP3   OH225527   3.145   1.059   1.344  0.4123  0.3153 -0.0742
 1323TIP3    H125528   3.097   1.073   1.425  0.6210  0.6373 -0.0025
 1323TIP3    H225529   3.232   1.031   1.372  0.7565  1.2748 -0.1631
 1324TIP3   OH225530   1.387   0.045   1.157 -0.2637 -0.1629  0.6653
 1324TIP3    H125531   1.445   0.064   1.083  0.4038  0.2675  1.2855
 1324TIP3    H225532   1.373  -0.049   1.153  0.0361 -0.1924  0.1920
 1325TIP3   OH225533   1.227   5.772   0.432  0.1623 -0.2926  0.1278
 1325TIP3    H125534   1.319   5.787   0.452 -0.2408  1.9484  0.5421
 1325TIP3    H225535   1.220   5.790   0.338  0.0273  0.2497  0.2392
 1326TIP3   OH225536   6.387   4.908   0.844  0.3551 -1.3760 -0.3488
 1326TIP3    H125537   6.294   4.920   0.826 -0.3234  0.8280  3.4836
 1326TIP3    H225538   6.430   4.973   0.788 -0.6431 -0.8564 -0.5438
 1327TIP3   OH225539   6.194   4.317   0.717 -0.1498  0.6473  0.0466
 1327TIP3    H125540   6.283   4.295   0.743 -0.8828 -0.4994  1.7831
 1327TIP3    H225541   6.181   4.270   0.634  0.3965 -0.3319  0.5021
 1328TIP3   OH225542   5.471   0.775   1.048  0.7671 -0.4923  0.6758
 1328TIP3    H125543   5.399   0.715   1.032 -0.6376  1.0785  0.8409
 1328TIP3    H225544   5.462   0.801   1.139  1.4116 -0.0932  0.6372
 1329TIP3   OH225545   4.034   5.741   1.643  0.7681 -0.1078 -0.4594
 1329TIP3    H125546   4.027   5.739   1.738 -0.7827 -0.7098 -0.5532
 1329TIP3    H225547   4.068   5.828   1.623  1.4672 -0.1091  0.6533
 1330TIP3   OH225548   6.087   0.519   7.047  0.0659 -0.4891 -0.2040
 1330TIP3    H125549   6.060   0.444   6.993  1.5012 -0.0130 -1.6449
 1330TIP3    H225550   6.181   0.506   7.060  0.0672  0.3480  0.7307
 1331TIP3   OH225551   3.176   1.178   7.932 -0.0717  0.0316  0.1234
 1331TIP3    H125552   3.092   1.219   7.952 -0.4217  0.2832 -1.7113
 1331TIP3    H225553   3.163   1.086   7.954 -0.3631  0.3072  1.1475
 1332TIP3   OH225554   4.619   3.990   0.436  0.6357 -0.7190  0.0287
 1332TIP3    H125555   4.538   3.939   0.441  0.2290 -0.0873  0.0512
 1332TIP3    H225556   4.591   4.077   0.408  1.1442 -0.1428  1.2181
 1333TIP3   OH225557   1.987   2.775   1.946 -0.5374  0.0638  0.3973
 1333TIP3    H125558   1.938   2.823   1.880 -0.9110  0.0400  0.6553
 1333TIP3    H225559   2.071   2.756   1.905 -0.4679  0.7533  0.2158
 1334TIP3   OH225560   6.497   1.640   7.951  0.1543  0.0053  0.6344
 1334TIP3    H125561   6.538   1.705   8.009 -0.4601  2.2506 -1.2679
 1334TIP3    H225562   6.517   1.556   7.991  1.4291  1.3235  2.9991
 1335TIP3   OH225563   1.647   6.099   6.951 -0.2018 -0.1059 -0.0724
 1335TIP3    H125564   1.668   6.010   6.924 -1.4688 -0.4506  0.0119
 1335TIP3    H225565   1.564   6.118   6.908 -0.2034  0.8490  0.3225
 1336TIP3   OH225566   6.837   1.083   2.535  0.2021  0.0690  0.4381
 1336TIP3    H125567   6.928   1.056   2.524 -0.1135 -0.1064 -2.3652
 1336TIP3    H225568   6.789   1.032   2.470 -1.2897  3.0468 -0.9626
 1337TIP3   OH225569   5.288   3.804   1.737  0.5739 -0.1613  0.0857
 1337TIP3    H125570   5.300   3.749   1.659  2.2265 -0.1083  0.2621
 1337TIP3    H225571   5.339   3.760   1.805  1.0761  1.0461  0.5082
 1338TIP3   OH225572   1.338   5.309   6.776 -0.0946 -0.0537  0.5700
 1338TIP3    H125573   1.343   5.326   6.682  0.7986  0.8480  0.7651
 1338TIP3    H225574   1.263   5.250   6.786 -0.8303  0.6401 -0.5899
 1339TIP3   OH225575   6.389   5.774   7.125  0.1278  0.0321  0.4197
 1339TIP3    H125576   6.299   5.796   7.103 -0.5747  0.1695  3.0553
 1339TIP3    H225577   6.436   5.858   7.121  0.3689 -0.1714 -1.7497
 1340TIP3   OH225578   6.481   0.554   8.483  0.1994  0.9417 -0.2151
 1340TIP3    H125579   6.548   0.614   8.450  0.2377  0.6621 -0.6474
 1340TIP3    H225580   6.444   0.599   8.559 -0.1922  1.7887 -0.8840
 1341TIP3   OH225581   3.637   6.243   0.017 -0.0458  0.0180  0.1154
 1341TIP3    H125582   3.640   6.149   0.038  1.1765  0.3649  1.6924
 1341TIP3    H225583   3.662   6.286   0.099 -0.8712  1.7472 -0.5089
 1342TIP3   OH225584   2.317   3.417   1.237 -0.6414 -0.8142  0.3707
 1342TIP3    H125585   2.283   3.480   1.301 -0.2312  1.1316 -1.2538
 1342TIP3    H225586   2.375   3.468   1.181  1.5335 -3.1235  0.3474
 1343TIP3   OH225587   3.950   1.198   8.500 -0.2128 -0.0194  0.1784
 1343TIP3    H125588   4.016   1.184   8.432 -1.7103  0.7756 -1.5237
 1343TIP3    H225589   3.901   1.116   8.503 -1.2763  0.5419 -1.0354
 1344TIP3   OH225590   4.303   4.619   7.050 -0.2635  0.5702  0.0564
 1344TIP3    H125591   4.211   4.643   7.035 -0.1669  1.0788  0.2767
 1344TIP3    H225592   4.308   4.528   7.020 -0.5847  0.8761 -0.9839
 1345TIP3   OH225593   5.713   3.949   0.793 -0.3987 -0.2339 -0.2043
 1345TIP3    H125594   5.808   3.953   0.782 -0.4790  0.4852 -0.6982
 1345TIP3    H225595   5.689   3.861   0.765  0.0776 -0.2820 -0.4687
 1346TIP3   OH225596   2.026   4.453   1.290 -0.0850 -0.4938 -0.1404
 1346TIP3    H125597   1.991   4.477   1.205  1.0164 -0.5182 -0.6251
 1346TIP3    H225598   2.004   4.526   1.347  2.4660  1.3860 -1.3836
 1347TIP3   OH225599   4.959   0.609   0.538  0.2611  0.1963 -0.1056
 1347TIP3    H125600   5.033   0.610   0.599 -0.9521  0.1178  1.4224
 1347TIP3    H225601   4.893   0.555   0.581 -0.9820  0.8849 -1.0828
 1348TIP3   OH225602   0.105   4.751   8.075 -0.6589 -0.5494 -0.9595
 1348TIP3    H125603   0.044   4.697   8.125 -0.1591 -1.8368 -1.6764
 1348TIP3    H225604   0.154   4.688   8.022 -0.0054  0.6234 -1.7922
 1349TIP3   OH225605   5.400   6.850   0.083  0.0138  0.3011 -0.2362
 1349TIP3    H125606   5.411   6.905   0.161 -0.7288  1.7775 -1.1250
 1349TIP3    H225607   5.488   6.838   0.049  0.1075  2.0117 -0.6964
 1350TIP3   OH225608   3.740   3.119   7.010 -0.4842  0.9617 -0.2422
 1350TIP3    H125609   3.753   3.190   7.072 -2.7432  0.8252  0.4579
 1350TIP3    H225610   3.659   3.076   7.038  0.0537 -1.0223 -1.4806
 1351TIP3   OH225611   6.705   4.391   8.007 -0.0334  0.0260  0.5211
 1351TIP3    H125612   6.678   4.441   8.084 -1.4977 -0.1257  0.1296
 1351TIP3    H225613   6.706   4.454   7.935 -2.7934 -0.5961 -0.1707
 1352TIP3   OH225614   1.412   4.603   0.084  0.3431  0.4360  0.0737
 1352TIP3    H125615   1.340   4.666   0.080 -0.0088  0.1030  0.8719
 1352TIP3    H225616   1.368   4.517   0.084  0.7962  0.1971 -0.5984
 1353TIP3   OH225617   0.502   6.582   7.708  0.2056 -0.1515 -0.5473
 1353TIP3    H125618   0.465   6.494   7.708  0.5883 -0.3215  0.3753
 1353TIP3    H225619   0.460   6.625   7.633 -0.0503 -1.0795 -0.9534
 1354TIP3   OH225620   0.022   1.926   0.480 -0.3928  0.1970 -0.4923
 1354TIP3    H125621  -0.061   1.974   0.476  0.5094  1.7872 -1.3597
 1354TIP3    H225622   0.084   1.989   0.516  0.2188 -1.3859  1.4344
 1355TIP3   OH225623   0.156   2.857   8.294 -0.6319 -0.1607  0.1386
 1355TIP3    H125624   0.198   2.939   8.319 -0.0104 -1.1244  2.5243
 1355TIP3    H225625   0.131   2.870   8.202 -1.0761  2.8830  0.5752
 1356TIP3   OH225626   4.512   0.069   0.288 -0.4934  0.7020  0.6106
 1356TIP3    H125627   4.588   0.119   0.256 -0.1244 -1.5787 -2.6215
 1356TIP3    H225628   4.550   0.000   0.342 -0.7719  2.1672  2.7934
 1357TIP3   OH225629   5.753   1.709   0.940 -0.6073 -0.0406  0.4946
 1357TIP3    H125630   5.829   1.678   0.890 -0.2661  1.3375  0.1295
 1357TIP3    H225631   5.723   1.631   0.988  0.6050 -0.7733  0.1134
 1358TIP3   OH225632   0.849   1.384   0.949  0.1018 -0.6562  0.4091
 1358TIP3    H125633   0.765   1.365   0.992 -1.3156  0.1982 -1.8049
 1358TIP3    H225634   0.859   1.314   0.884 -0.5635  0.8982 -1.4922
 1359TIP3   OH225635   5.177   6.421   0.695  0.0075 -0.2663  0.2238
 1359TIP3    H125636   5.117   6.434   0.621 -0.4310  0.1901  0.6493
 1359TIP3    H225637   5.165   6.329   0.719  1.3400 -0.8571 -1.2750
 1360TIP3   OH225638   1.421   0.884   7.152  0.0132  0.2410  0.1609
 1360TIP3    H125639   1.429   0.814   7.086  1.0084  0.9867 -0.5335
 1360TIP3    H225640   1.326   0.899   7.159 -0.1027  0.7638 -1.8024
 1361TIP3   OH225641   2.867   5.924   7.258 -0.3225 -0.0603  0.7141
 1361TIP3    H125642   2.961   5.945   7.256 -0.4015  0.9333  3.5301
 1361TIP3    H225643   2.833   5.971   7.333 -2.7320 -1.9586  0.9456
 1362TIP3   OH225644   1.694   3.456   0.509 -0.1450 -0.2715 -0.0595
 1362TIP3    H125645   1.631   3.456   0.582  0.3751  0.3176  0.4026
 1362TIP3    H225646   1.743   3.375   0.520 -0.7816 -0.7182 -0.4004
 1363TIP3   OH225647   6.617   3.953   7.395  0.5589 -0.1128  0.4346
 1363TIP3    H125648   6.545   3.987   7.447  0.4026 -0.4957  0.4685
 1363TIP3    H225649   6.689   4.014   7.412 -0.1927  1.1818 -0.8190
 1364TIP3   OH225650   5.882   0.468   8.671 -0.3834 -0.4343 -0.0230
 1364TIP3    H125651   5.803   0.519   8.658  0.2748  0.7677  0.5537
 1364TIP3    H225652   5.856   0.397   8.729 -0.8426  0.5015  0.9514
 1365TIP3   OH225653   3.245   3.506   0.264  0.1746  0.0059  0.8272
 1365TIP3    H125654   3.302   3.429   0.270 -1.6811 -1.4679  0.7277
 1365TIP3    H225655   3.240   3.539   0.353  0.3506 -0.5060  1.0342
 1366TIP3   OH225656   5.138   4.032   8.223  0.3934  0.5186  0.0086
 1366TIP3    H125657   5.207   4.090   8.256  0.2110 -0.0677  1.4828
 1366TIP3    H225658   5.060   4.057   8.271  0.2111 -0.6433  0.3433
 1367TIP3   OH225659   3.214   0.477   0.781 -0.4181  0.4326 -0.4878
 1367TIP3    H125660   3.208   0.565   0.744 -1.0905 -0.2674 -2.1485
 1367TIP3    H225661   3.265   0.488   0.861  0.8992  2.0854 -1.4906
 1368TIP3   OH225662   6.695   3.281   7.577  0.1734 -0.8098 -0.0486
 1368TIP3    H125663   6.681   3.212   7.642  2.4201 -1.4356 -0.1677
 1368TIP3    H225664   6.644   3.254   7.501  0.5926 -2.0546  0.1022
 1369TIP3   OH225665   4.300   3.282   0.576 -0.1299 -0.2488  0.0914
 1369TIP3    H125666   4.341   3.242   0.653 -1.3568 -0.3248  0.7179
 1369TIP3    H225667   4.353   3.250   0.503 -1.0300 -3.0604  0.5422
 1370TIP3   OH225668   0.685   0.600   6.857  0.0862 -0.0745 -0.2407
 1370TIP3    H125669   0.749   0.646   6.911 -1.1535  2.3332 -0.6749
 1370TIP3    H225670   0.675   0.655   6.779 -1.1080 -1.3673 -1.0523
 1371TIP3   OH225671   5.117   1.750   7.834 -0.0822  0.3453  0.5466
 1371TIP3    H125672   5.152   1.662   7.825  0.3237  0.5891 -0.3544
 1371TIP3    H225673   5.188   1.808   7.806  0.1663  1.0490  2.4633
 1372TIP3   OH225674   5.980   2.837   2.147 -0.1405  0.2361 -0.3439
 1372TIP3    H125675   5.989   2.921   2.193 -1.9420 -0.0248  0.6230
 1372TIP3    H225676   6.066   2.796   2.154  0.1803  1.0623  1.1393
 1373TIP3   OH225677   6.009   3.410   7.282  0.3896 -0.6851 -0.1531
 1373TIP3    H125678   5.952   3.333   7.282 -0.5587 -0.0069 -0.0064
 1373TIP3    H225679   5.951   3.482   7.306  0.9439  0.3024 -1.6516
 1374TIP3   OH225680   1.884   1.191   6.474 -0.2006  0.1619  0.2951
 1374TIP3    H125681   1.880   1.155   6.385 -1.6898  0.7839  0.0759
 1374TIP3    H225682   1.960   1.249   6.473 -0.6518  0.7641 -0.8300
 1375TIP3   OH225683   2.184   5.523   0.280  0.2137  0.4868 -0.4361
 1375TIP3    H125684   2.089   5.535   0.288  0.2851  0.3315  0.7532
 1375TIP3    H225685   2.193   5.440   0.232 -0.2747 -0.5056  1.1206
 1376TIP3   OH225686   0.772   2.032   1.304  0.0783  0.2356  0.3964
 1376TIP3    H125687   0.710   2.063   1.371 -0.5317 -0.1884  0.0405
 1376TIP3    H225688   0.850   2.086   1.317 -0.6543  1.3455  0.3316
 1377TIP3   OH225689   0.890   5.087   0.162 -0.5901 -0.5386 -0.1812
 1377TIP3    H125690   0.896   5.061   0.254  0.4501 -1.1578 -0.4081
 1377TIP3    H225691   0.959   5.153   0.151 -2.3187  1.4399  0.0595
 1378TIP3   OH225692   0.838   1.068   1.131  0.0715  0.1119  0.3008
 1378TIP3    H125693   0.778   0.997   1.155 -0.5593  0.7991  0.7850
 1378TIP3    H225694   0.828   1.132   1.201 -0.9942  1.6879 -1.2306
 1379TIP3   OH225695   6.245   0.004   8.659 -0.0807 -0.1950 -0.1799
 1379TIP3    H125696   6.281   0.064   8.724 -0.6362 -0.7155  0.6144
 1379TIP3    H225697   6.293   0.025   8.579  1.2330 -0.1423  0.5946
 1380TIP3   OH225698   5.683   0.522   7.938 -0.4281  0.3108  0.6382
 1380TIP3    H125699   5.602   0.491   7.978 -0.0708 -0.9408  0.4201
 1380TIP3    H225700   5.721   0.445   7.897  0.0673  1.2134 -0.6686
 1381TIP3   OH225701   1.011   5.987   7.474  0.4110 -0.6141  0.0060
 1381TIP3    H125702   0.985   6.033   7.554 -1.6644 -0.7987 -0.4907
 1381TIP3    H225703   0.969   5.901   7.481  2.7272 -1.8120  0.0808
 1382TIP3   OH225704   4.964   2.373   7.155  0.1880  0.0047  0.8738
 1382TIP3    H125705   4.964   2.291   7.107  0.3671  0.6738 -0.3031
 1382TIP3    H225706   4.876   2.379   7.192  0.3018 -0.8958  1.3197
 1383TIP3   OH225707   4.888   0.701   0.897 -0.2878 -0.4981  0.2523
 1383TIP3    H125708   4.948   0.626   0.891  2.5210  1.6983 -3.1397
 1383TIP3    H225709   4.824   0.685   0.827  1.1936  0.8209 -1.4806
 1384TIP3   OH225710   5.345   2.291   8.000 -0.0132  0.1332  0.3256
 1384TIP3    H125711   5.331   2.325   7.911 -1.2622 -0.4644  0.2685
 1384TIP3    H225712   5.309   2.359   8.057  2.0107  1.1422  0.4761
 1385TIP3   OH225713   3.291   2.606   0.937 -0.4141  0.6079  0.5005
 1385TIP3    H125714   3.329   2.553   1.007 -2.2860  0.1585  1.2381
 1385TIP3    H225715   3.313   2.559   0.857  0.2048  0.1449  0.9295
 1386TIP3   OH225716   4.770   3.292   7.750 -0.4269 -0.2766 -0.2029
 1386TIP3    H125717   4.851   3.264   7.708 -1.3228 -1.4119 -1.2520
 1386TIP3    H225718   4.797   3.327   7.835  1.0281 -1.8863  0.0397
 1387TIP3   OH225719   1.696   0.009   7.951 -0.7560  0.2600  0.2857
 1387TIP3    H125720   1.628  -0.012   7.887 -0.6768  0.6675  0.0625
 1387TIP3    H225721   1.689   0.104   7.962 -1.4015  0.0834  1.5863
 1388TIP3   OH225722   5.135   5.973   7.804 -0.0481 -0.0145  0.2034
 1388TIP3    H125723   5.048   5.933   7.804 -0.9062  1.6058 -2.7547
 1388TIP3    H225724   5.171   5.954   7.718  2.0625  0.4170  0.9269
 1389TIP3   OH225725   4.578   6.717   0.435  0.2489 -0.0170  0.2937
 1389TIP3    H125726   4.669   6.693   0.417 -0.1327 -1.6316  0.3215
 1389TIP3    H225727   4.580   6.759   0.520  1.2244  1.8837 -0.6118
 1390TIP3   OH225728   5.845   4.796   7.436 -0.9763 -0.2036 -0.1478
 1390TIP3    H125729   5.868   4.883   7.468 -0.2248  0.0032 -1.1891
 1390TIP3    H225730   5.924   4.744   7.448 -0.3025  0.1629 -2.5635
 1391TIP3   OH225731   4.114   4.148   0.609  0.2835  0.1423 -0.1319
 1391TIP3    H125732   4.112   4.100   0.526 -0.2257 -1.9155  0.9931
 1391TIP3    H225733   4.031   4.195   0.613  0.4520  0.5125 -0.9197
 1392TIP3   OH225734   1.470   1.814   0.161 -0.1227 -0.3331 -0.0725
 1392TIP3    H125735   1.452   1.781   0.249 -1.1430 -1.4511 -0.6646
 1392TIP3    H225736   1.454   1.739   0.104 -0.3635  0.6128 -1.2908
 1393TIP3   OH225737   6.274   0.358   7.831  0.5272 -0.1634  0.1996
 1393TIP3    H125738   6.348   0.377   7.889  1.3272  0.2625 -0.9267
 1393TIP3    H225739   6.247   0.443   7.797 -0.4327 -0.3265  0.5111
 1394TIP3   OH225740   1.841   2.743   7.161  0.2636 -0.5800  0.0117
 1394TIP3    H125741   1.792   2.701   7.231  2.8098  1.1501  3.0611
 1394TIP3    H225742   1.917   2.686   7.148  2.1557  1.2949  2.0357
 1395TIP3   OH225743   0.696   1.674   7.998 -0.1317  0.2060  0.0731
 1395TIP3    H125744   0.668   1.641   8.083 -0.7554 -0.6055 -0.4380
 1395TIP3    H225745   0.738   1.600   7.955  2.1664  1.1665  0.4893
 1396TIP3   OH225746   1.366   4.009   6.858 -0.1912 -0.0668  0.1947
 1396TIP3    H125747   1.279   4.001   6.897  0.4177  0.8913  1.8854
 1396TIP3    H225748   1.350   4.018   6.764 -1.8233 -1.1511  0.3360
 1397TIP3   OH225749   1.619   4.465   2.070  0.3801 -0.5117 -0.2524
 1397TIP3    H125750   1.656   4.536   2.123  0.8627 -0.3305 -0.8308
 1397TIP3    H225751   1.528   4.490   2.057  0.4801 -0.1296 -0.2298
 1398TIP3   OH225752   3.338   1.020   7.754  0.1267  0.2710  0.5963
 1398TIP3    H125753   3.428   1.035   7.729 -0.5022  0.9221 -1.4468
 1398TIP3    H225754   3.312   1.099   7.801  0.4120  0.3683  0.5913
 1399TIP3   OH225755   0.422   4.867   0.592  0.1126  0.3549 -0.6926
 1399TIP3    H125756   0.449   4.956   0.612  0.6626 -0.0194  0.3013
 1399TIP3    H225757   0.446   4.854   0.500 -1.6514  1.8257 -1.4324
 1400TIP3   OH225758   1.981   6.803   7.983  0.1972  0.9368 -0.0166
 1400TIP3    H125759   1.898   6.852   7.985 -1.4401 -1.6062  2.4935
 1400TIP3    H225760   1.964   6.730   7.923  0.3343  0.0452  0.9950
 1401TIP3   OH225761   2.163   5.400   1.086 -0.1877 -0.2516 -0.6975
 1401TIP3    H125762   2.135   5.374   0.998  1.2741  0.2806 -1.3538
 1401TIP3    H225763   2.084   5.393   1.140 -1.1237 -0.5268 -2.0619
 1402TIP3   OH225764   6.609   0.449   1.969 -0.7059  0.9089  0.6990
 1402TIP3    H125765   6.696   0.466   1.933 -0.5402  0.2374  0.7670
 1402TIP3    H225766   6.567   0.393   1.904 -0.9617  0.9539  0.8262
 1403TIP3   OH225767   3.154   2.160   8.650  0.4402 -0.1409 -0.2228
 1403TIP3    H125768   3.063   2.130   8.646  0.7348 -1.1347  0.0859
 1403TIP3    H225769   3.206   2.084   8.621  1.1513  0.5729 -0.8999
 1404TIP3   OH225770   1.702   3.848   7.418  0.1118 -0.1633  0.0958
 1404TIP3    H125771   1.780   3.844   7.362 -0.5833 -2.0334 -0.8361
 1404TIP3    H225772   1.720   3.918   7.480  2.7428 -0.8654  0.2331
 1405TIP3   OH225773   1.771   5.779   7.514  0.5743 -0.0294 -0.4122
 1405TIP3    H125774   1.797   5.804   7.426 -0.0717 -0.0047 -0.5990
 1405TIP3    H225775   1.782   5.858   7.566 -0.8820  0.4919 -0.8744
 1406TIP3   OH225776   4.001   6.224   6.073  0.3484  0.1173 -0.4439
 1406TIP3    H125777   4.058   6.153   6.102  0.3910 -0.6371 -2.1998
 1406TIP3    H225778   3.927   6.179   6.032  0.6111  1.0422 -2.0157
 1407TIP3   OH225779   6.842   4.960   7.451 -0.5876  0.2433 -0.1385
 1407TIP3    H125780   6.845   4.999   7.364 -2.1929  0.9238  0.0704
 1407TIP3    H225781   6.751   4.931   7.461 -0.7851  1.3536  1.7804
 1408TIP3   OH225782   1.394   2.983   7.948 -0.5820 -0.0613 -0.5086
 1408TIP3    H125783   1.381   3.038   7.870 -0.9313  0.3991 -0.1331
 1408TIP3    H225784   1.489   2.981   7.961 -0.4166 -1.1824 -1.6742
 1409TIP3   OH225785   2.769   6.209   6.184 -0.2146 -1.1195 -0.1741
 1409TIP3    H125786   2.827   6.165   6.246  0.2620 -0.0819  0.1521
 1409TIP3    H225787   2.812   6.199   6.099  1.6590  1.4313  0.3267
 1410TIP3   OH225788   5.186   4.032   1.232  0.1812 -0.1035  0.1871
 1410TIP3    H125789   5.271   4.018   1.275  0.3380  2.0885  0.7278
 1410TIP3    H225790   5.187   4.125   1.207 -2.4604  0.2838  1.1760
 1411TIP3   OH225791   2.774   2.522   8.661  0.2219  0.0275  0.2646
 1411TIP3    H125792   2.744   2.603   8.620  2.2414  1.2840  1.1338
 1411TIP3    H225793   2.753   2.532   8.754  0.3336 -0.5277  0.3554
 1412TIP3   OH225794   6.632   2.073   8.395 -0.5254 -0.0999 -0.3041
 1412TIP3    H125795   6.632   2.137   8.467  1.2471 -1.5868  1.1232
 1412TIP3    H225796   6.580   2.114   8.326 -0.1246  2.5228  0.8403
 1413TIP3   OH225797   5.502   0.347   1.507 -0.3686 -0.3061  0.0602
 1413TIP3    H125798   5.512   0.418   1.570 -0.2215  0.7939 -1.1499
 1413TIP3    H225799   5.419   0.305   1.531 -2.2821  2.4536 -1.1986
 1414TIP3   OH225800   6.410   4.980   7.871 -0.2365  0.2597 -0.6944
 1414TIP3    H125801   6.414   4.905   7.930 -0.1764  2.0923  1.7959
 1414TIP3    H225802   6.330   4.968   7.820 -0.0547 -1.5949 -0.5850
 1415TIP3   OH225803   0.394   1.863   8.671 -0.3989  0.5638  0.2625
 1415TIP3    H125804   0.463   1.917   8.633 -0.2108  0.3333  0.2791
 1415TIP3    H225805   0.316   1.884   8.619 -0.0088 -0.2112 -0.6596
 1416TIP3   OH225806   1.378   2.307   8.670  0.4677 -0.2527 -0.5737
 1416TIP3    H125807   1.305   2.362   8.642  1.0260  0.5670 -0.4620
 1416TIP3    H225808   1.340   2.220   8.679 -0.6633  0.2982  0.1953
 1417TIP3   OH225809   2.249   1.077   1.132  0.2847  0.2674  0.0453
 1417TIP3    H125810   2.210   1.163   1.118 -0.4506 -0.4333 -2.7577
 1417TIP3    H225811   2.174   1.017   1.139  0.8075 -0.3202  0.9166
 1418TIP3   OH225812   3.207   4.329   1.076 -0.2372 -0.1847 -0.2448
 1418TIP3    H125813   3.281   4.390   1.080 -1.0229  0.7700  0.1781
 1418TIP3    H225814   3.230   4.259   1.136  0.2107  0.2474  0.1013
 1419TIP3   OH225815   5.435   5.704   7.594 -0.2334 -1.2706  0.3570
 1419TIP3    H125816   5.391   5.789   7.583  1.8465  0.2148  2.5948
 1419TIP3    H225817   5.525   5.719   7.564  1.0471 -1.6668  3.6148
 1420TIP3   OH225818   6.176   3.207   1.980  0.0716  0.2843  0.0799
 1420TIP3    H125819   6.138   3.288   1.945 -0.7295  0.0331  0.3440
 1420TIP3    H225820   6.103   3.145   1.980  0.2452  0.0552  1.4736
 1421TIP3   OH225821   5.350   3.240   7.724  0.3065  0.0293 -0.5783
 1421TIP3    H125822   5.273   3.289   7.694 -0.3037 -0.3389  0.3490
 1421TIP3    H225823   5.356   3.166   7.665 -0.1693 -0.0410 -0.5426
 1422TIP3   OH225824   0.586   1.626   7.332  0.1902  0.2518 -0.3850
 1422TIP3    H125825   0.504   1.659   7.295  0.9618  1.2470 -1.2725
 1422TIP3    H225826   0.568   1.534   7.353 -1.0431  0.3655 -0.8790
 1423TIP3   OH225827   4.985   1.234   1.942  0.0676  0.5057  0.7985
 1423TIP3    H125828   4.961   1.293   1.870 -0.6725  1.1350  1.5419
 1423TIP3    H225829   4.923   1.255   2.011 -0.7155 -1.6776  0.8243
 1424TIP3   OH225830   2.994   5.314   7.940 -0.0058 -0.1824 -0.2676
 1424TIP3    H125831   2.906   5.283   7.961  0.0544 -0.0799  0.1452
 1424TIP3    H225832   2.994   5.406   7.965 -0.3426  0.3106 -1.9560
 1425TIP3   OH225833   2.634   4.694   6.819 -0.1846 -0.0128  0.2760
 1425TIP3    H125834   2.645   4.788   6.802  0.1545 -0.0458  0.3046
 1425TIP3    H225835   2.708   4.671   6.875 -0.7729 -0.1097  1.0235
 1426TIP3   OH225836   3.939   3.718   1.580 -0.0779 -0.6292  0.1113
 1426TIP3    H125837   3.915   3.808   1.602  0.8117 -0.3353 -0.1002
 1426TIP3    H225838   4.032   3.722   1.560 -0.2302 -1.4253 -0.8217
 1427TIP3   OH225839   1.788   6.292   0.609  0.2758  0.1453  0.0024
 1427TIP3    H125840   1.711   6.264   0.659  1.2351 -1.5704  0.6489
 1427TIP3    H225841   1.845   6.215   0.610  1.3132  0.8376 -1.8392
 1428TIP3   OH225842   4.972   6.498   1.805 -0.9534  0.1162  0.3822
 1428TIP3    H125843   5.022   6.547   1.871 -2.5889 -1.9242  3.3833
 1428TIP3    H225844   4.880   6.507   1.833 -1.8272 -0.2858 -2.0875
 1429TIP3   OH225845   3.612   5.262   7.172  0.3171  0.1591  0.3383
 1429TIP3    H125846   3.613   5.176   7.214  0.2145 -0.5930 -1.1293
 1429TIP3    H225847   3.628   5.324   7.243 -4.3121 -0.6126  2.4539
 1430TIP3   OH225848   6.684   1.817   8.376  0.4975 -0.0490  0.1551
 1430TIP3    H125849   6.666   1.906   8.407  0.0067  0.0034 -0.2759
 1430TIP3    H225850   6.779   1.816   8.364  0.6606  0.0399  1.2989
 1431TIP3   OH225851   3.033   4.728   1.329  0.1329  0.3279 -0.7661
 1431TIP3    H125852   2.995   4.793   1.389  0.4796 -0.7636  0.7049
 1431TIP3    H225853   3.117   4.766   1.303  0.9703 -0.0630  1.1765
 1432TIP3   OH225854   3.228   6.462   1.381  0.0441  0.2513  0.3847
 1432TIP3    H125855   3.317   6.489   1.401  0.3741  0.4771 -1.2768
 1432TIP3    H225856   3.218   6.478   1.287 -0.8449 -2.2916 -0.0281
 1433TIP3   OH225857   2.287   4.726   6.818  0.0644  0.1478 -0.3039
 1433TIP3    H125858   2.306   4.806   6.770 -2.3937  0.7115 -0.4806
 1433TIP3    H225859   2.238   4.755   6.895 -0.8394 -1.1418 -0.3485
 1434TIP3   OH225860   2.122   2.626   0.508 -0.3087  0.4010 -0.0468
 1434TIP3    H125861   2.159   2.538   0.497  1.3197  1.1864 -1.2240
 1434TIP3    H225862   2.191   2.675   0.553 -0.1266  1.7456 -1.7170
 1435TIP3   OH225863   1.528   3.027   6.695  0.2152  0.3903  0.0307
 1435TIP3    H125864   1.618   3.013   6.664 -0.0708  0.8484 -1.0828
 1435TIP3    H225865   1.494   3.095   6.637 -0.3986  1.2554  1.3592
 1436TIP3   OH225866   3.856   5.794   0.069  0.5754  0.2712 -0.4758
 1436TIP3    H125867   3.851   5.704   0.038  0.9232  0.1410 -0.1494
 1436TIP3    H225868   3.898   5.789   0.154  0.1534  0.6938 -0.2366
 1437TIP3   OH225869   1.126   2.098   1.026 -0.0090 -0.4338  0.9093
 1437TIP3    H125870   1.219   2.120   1.025 -0.4213  1.4710  1.3979
 1437TIP3    H225871   1.121   2.014   0.980  1.7736  0.0860 -0.3317
 1438TIP3   OH225872   0.033   2.207   8.638 -0.1809 -0.3830 -0.1094
 1438TIP3    H125873   0.027   2.135   8.700  2.1664 -1.0640 -0.5532
 1438TIP3    H225874   0.052   2.284   8.693 -0.7144 -0.4742  0.2073
 1439TIP3   OH225875   1.262   2.928   7.050  0.2168 -0.1177 -0.2040
 1439TIP3    H125876   1.270   3.002   7.110 -1.1211  0.2921 -0.5061
 1439TIP3    H225877   1.193   2.953   6.989 -1.3044 -2.1927  0.5504
 1440TIP3   OH225878   3.625   0.277   1.840  0.3364 -0.2830  0.6462
 1440TIP3    H125879   3.683   0.293   1.914  2.0587 -3.1618  0.0983
 1440TIP3    H225880   3.561   0.214   1.873 -0.8677  0.8482  0.5190
 1441TIP3   OH225881   2.713   0.165   1.368  0.0331 -0.2394 -0.3211
 1441TIP3    H125882   2.726   0.085   1.317 -1.4058  0.0033 -1.1170
 1441TIP3    H225883   2.750   0.234   1.314  0.6866 -0.2842  0.0683
 1442TIP3   OH225884   0.321   1.162   0.038  0.2606 -0.4394 -0.3046
 1442TIP3    H125885   0.315   1.143   0.132 -0.5551 -0.7852 -0.4202
 1442TIP3    H225886   0.400   1.215   0.029 -0.6196  1.1658  0.8359
 1443TIP3   OH225887   3.114   5.323   7.688  0.0339  0.6815  0.3382
 1443TIP3    H125888   3.095   5.317   7.782  0.3405  0.9692  0.4209
 1443TIP3    H225889   3.076   5.244   7.651  0.5714  0.1834  0.8225
 1444TIP3   OH225890   3.261   3.405   8.352 -1.1502  0.3855 -0.2222
 1444TIP3    H125891   3.308   3.332   8.391 -1.4742  0.7785  0.9277
 1444TIP3    H225892   3.313   3.482   8.376 -1.0330  0.5927 -1.0820
 1445TIP3   OH225893   6.304   2.074   1.516 -0.6458  0.4714 -0.0926
 1445TIP3    H125894   6.209   2.062   1.524 -0.6977 -0.4689 -1.7758
 1445TIP3    H225895   6.337   1.988   1.493  0.5438  0.9444 -0.2059
 1446TIP3   OH225896   5.299   0.975   2.521  0.4505 -0.1189  0.3204
 1446TIP3    H125897   5.216   0.981   2.569  0.7057  0.3024  0.7244
 1446TIP3    H225898   5.323   1.067   2.506  1.4009 -0.2117  1.1890
 1447TIP3   OH225899   3.139   2.235   0.590 -0.3192 -0.5054  0.2396
 1447TIP3    H125900   3.137   2.218   0.496 -1.4082  0.4467  0.0687
 1447TIP3    H225901   3.052   2.269   0.610  0.6579  1.6411  1.1368
 1448TIP3   OH225902   1.458   1.628   0.986  0.0259 -0.1775 -0.2225
 1448TIP3    H125903   1.478   1.549   0.937  0.5525  0.3948 -0.9572
 1448TIP3    H225904   1.542   1.659   1.018 -0.1188  0.3193 -0.3059
 1449TIP3   OH225905   4.062   3.403   6.598 -0.0470  0.5493 -0.0165
 1449TIP3    H125906   4.014   3.481   6.624 -0.1695  1.0159 -1.5418
 1449TIP3    H225907   4.145   3.436   6.565  0.0256  0.0080 -0.3905
 1450TIP3   OH225908   6.072   1.939   1.762  0.5423 -0.1490  0.0694
 1450TIP3    H125909   6.016   1.929   1.839  0.3224 -1.3625 -0.2391
 1450TIP3    H225910   6.114   2.025   1.775  2.1018 -1.1715  2.5819
 1451TIP3   OH225911   1.584   4.263   8.637 -0.2602  0.0363  0.4920
 1451TIP3    H125912   1.603   4.339   8.583 -1.4308 -0.2958 -0.4306
 1451TIP3    H225913   1.642   4.195   8.604  1.2393  0.6742  1.7343
 1452TIP3   OH225914   4.946   5.530   6.380  0.1766 -0.1937 -0.2757
 1452TIP3    H125915   4.962   5.439   6.405 -2.2297 -1.5197 -2.9283
 1452TIP3    H225916   4.893   5.566   6.451  0.6749 -1.0437  0.5428
 1453TIP3   OH225917   5.021   1.921   1.868 -0.4098  0.0871  0.7833
 1453TIP3    H125918   5.112   1.921   1.898 -0.2079  1.9437  0.2848
 1453TIP3    H225919   4.970   1.934   1.948 -0.2487 -0.6440  1.0202
 1454TIP3   OH225920   2.735   5.592   1.880 -0.2096 -0.0733  0.0045
 1454TIP3    H125921   2.669   5.625   1.941 -0.7857 -1.8879  0.4260
 1454TIP3    H225922   2.816   5.635   1.907 -0.5745 -0.3558  1.6889
 1455TIP3   OH225923   4.729   6.584   6.493 -0.3235  0.9843  0.1655
 1455TIP3    H125924   4.797   6.572   6.427  0.3146  1.4077  0.7264
 1455TIP3    H225925   4.719   6.497   6.533 -0.7406  0.7181 -0.5021
 1456TIP3   OH225926   3.272   3.775   1.743  0.0627  0.4251 -0.5348
 1456TIP3    H125927   3.209   3.809   1.806  0.3818 -0.3646  0.2397
 1456TIP3    H225928   3.226   3.777   1.660 -1.0777 -0.3518  0.0487
 1457TIP3   OH225929   2.416   5.453   1.918 -0.0340  0.2392  0.3119
 1457TIP3    H125930   2.428   5.547   1.924 -1.5425  0.6287 -1.9374
 1457TIP3    H225931   2.427   5.422   2.009  1.4031  2.4013  0.9476
 1458TIP3   OH225932   2.480   2.154   1.719 -0.0826  0.1072 -0.0410
 1458TIP3    H125933   2.436   2.095   1.657 -1.6471 -0.2586  1.3453
 1458TIP3    H225934   2.510   2.096   1.789 -0.5171  0.7830  0.7209
 1459TIP3   OH225935   3.550   4.081   1.765 -0.3037  0.6860  0.2267
 1459TIP3    H125936   3.509   4.157   1.807  1.3754  1.4879  0.4829
 1459TIP3    H225937   3.622   4.057   1.823  1.3331  1.0655 -1.5722
 1460TIP3   OH225938   5.675   2.926   1.632  0.5115  0.4167  0.0751
 1460TIP3    H125939   5.610   2.914   1.700  0.4767  0.6524  0.0853
 1460TIP3    H225940   5.757   2.942   1.679  0.5895  0.0442  0.0621
 1461TIP3   OH225941   0.499   1.117   1.330  0.7234  0.5131 -0.3571
 1461TIP3    H125942   0.547   1.082   1.405  2.6789  0.7402 -1.4371
 1461TIP3    H225943   0.514   1.054   1.260 -0.5652  0.6105 -0.7513
 1462TIP3   OH225944   4.563   4.255   0.192 -0.3245  0.3288  0.0685
 1462TIP3    H125945   4.514   4.217   0.265 -0.2878  0.1231 -0.0155
 1462TIP3    H225946   4.606   4.181   0.150  0.0755  0.5127  0.1544
 1463TIP3   OH225947   3.865   5.546   7.474 -0.1599  0.3176 -0.1781
 1463TIP3    H125948   3.860   5.543   7.569  0.7536  1.2562 -0.0849
 1463TIP3    H225949   3.933   5.481   7.452  0.5030  0.9706 -0.0912
 1464TIP3   OH225950   1.913   1.549   1.778 -0.1703  0.2713 -0.3071
 1464TIP3    H125951   1.969   1.478   1.747 -1.3948 -0.7298 -0.3092
 1464TIP3    H225952   1.926   1.550   1.873  0.0318  0.1985 -0.3335
 1465TIP3   OH225953   2.675   6.834   0.892  0.3564  0.0433 -0.0232
 1465TIP3    H125954   2.679   6.922   0.930 -0.3596 -0.6541  1.7510
 1465TIP3    H225955   2.767   6.812   0.873  0.9061  0.0044  2.3986
 1466TIP3   OH225956   6.217   6.130   7.294 -0.5622  0.2056 -0.1546
 1466TIP3    H125957   6.273   6.099   7.222 -0.2927  0.4554 -0.0564
 1466TIP3    H225958   6.189   6.217   7.266  1.0819  1.1183  0.8628
 1467TIP3   OH225959   3.080   1.004   7.661 -0.0764  0.2599  0.4844
 1467TIP3    H125960   3.149   1.050   7.708 -2.1813  3.2638  0.9251
 1467TIP3    H225961   3.044   0.942   7.725 -0.6775  1.8643  1.7424
 1468TIP3   OH225962   3.755   0.290   8.077  0.5162 -0.2518 -0.0346
 1468TIP3    H125963   3.748   0.237   7.998  1.5558 -2.1704  1.0939
 1468TIP3    H225964   3.714   0.373   8.054 -0.9879 -1.4433 -1.9594
 1469TIP3   OH225965   3.438   0.313   1.172 -0.3086 -0.0658 -0.2600
 1469TIP3    H125966   3.420   0.251   1.243  0.1469 -1.3622 -1.2484
 1469TIP3    H225967   3.492   0.381   1.213 -0.0681 -0.7814  0.6458
 1470TIP3   OH225968   1.907   3.845   6.854 -0.6164 -0.1248  0.0562
 1470TIP3    H125969   1.872   3.761   6.886  0.2582  0.1991  1.9969
 1470TIP3    H225970   1.991   3.854   6.898 -0.4040  1.4819 -0.6274
 1471TIP3   OH225971   0.026   0.836   7.831  0.2692  0.5669 -0.0628
 1471TIP3    H125972   0.108   0.878   7.805  1.3053 -1.2745  0.0697
 1471TIP3    H225973   0.044   0.801   7.919 -0.3154 -0.6892 -0.4170
 1472TIP3   OH225974   0.027   4.103   2.185 -0.0113 -0.2292 -0.0175
 1472TIP3    H125975  -0.055   4.094   2.234  0.5667 -1.1097  0.8281
 1472TIP3    H225976   0.081   4.158   2.242  0.5472 -0.9802  0.1871
 1473TIP3   OH225977   3.117   3.378   6.962 -0.2812 -0.1243  0.8535
 1473TIP3    H125978   3.037   3.354   6.915  0.1513  0.3840 -0.1475
 1473TIP3    H225979   3.134   3.469   6.938 -0.1185  0.1972  2.0983
 1474TIP3   OH225980   5.731   6.276   1.443  0.0608  0.3936  0.9239
 1474TIP3    H125981   5.741   6.366   1.413  0.5326  0.2892  0.7640
 1474TIP3    H225982   5.637   6.259   1.435 -0.0753  0.9724  1.2548
 1475TIP3   OH225983   0.551   6.748   1.719  0.1860  0.1035 -0.1181
 1475TIP3    H125984   0.580   6.815   1.780 -0.7346 -0.1003  0.5631
 1475TIP3    H225985   0.630   6.699   1.698  0.7822  1.0786 -0.2410
 1476TIP3   OH225986   6.107   0.921   1.791 -0.4420 -0.2622  0.4090
 1476TIP3    H125987   6.019   0.907   1.755 -0.1507 -1.2913  0.0513
 1476TIP3    H225988   6.101   1.004   1.838 -1.5313 -0.1829  0.1593
 1477TIP3   OH225989   0.297   1.871   7.658 -0.1381  0.2947  0.3961
 1477TIP3    H125990   0.360   1.811   7.619  0.1622 -0.1701  1.5471
 1477TIP3    H225991   0.255   1.914   7.584 -0.1179 -1.0861 -0.4417
 1478TIP3   OH225992   0.104   0.803   8.649  0.2602  0.2949  0.4663
 1478TIP3    H125993   0.181   0.768   8.694  1.3567  0.7765 -0.9398
 1478TIP3    H225994   0.140   0.864   8.584 -1.2456 -0.0408 -0.7466
 1479TIP3   OH225995   4.501   3.071   7.772  0.0231 -0.6174 -0.0409
 1479TIP3    H125996   4.543   2.989   7.797  0.7375 -0.9809 -2.1787
 1479TIP3    H225997   4.523   3.081   7.679 -0.1414  1.9433  0.1419
 1480TIP3   OH225998   2.552   1.220   8.492 -0.0214 -0.0504 -0.3421
 1480TIP3    H125999   2.481   1.263   8.443 -0.8389 -0.4836  0.4365
 1480TIP3    H226000   2.623   1.285   8.492 -0.6859  0.6990 -0.4921
 1481TIP3   OH226001   2.997   1.862   2.406  0.5954  0.7279  0.0355
 1481TIP3    H126002   2.974   1.883   2.496 -0.4659  0.2421 -0.1046
 1481TIP3    H226003   2.937   1.915   2.353 -0.1103 -0.4267 -0.3481
 1482TIP3   OH226004   0.429   4.961   1.213 -0.1041 -0.1554 -0.2417
 1482TIP3    H126005   0.521   4.987   1.212 -0.0584 -0.3282 -0.6662
 1482TIP3    H226006   0.383   5.035   1.172 -0.0647 -0.3819 -0.7105
 1483TIP3   OH226007   3.468   3.135   7.877  0.2726 -0.6128 -0.2722
 1483TIP3    H126008   3.382   3.145   7.919  0.3947  0.3221 -0.2138
 1483TIP3    H226009   3.527   3.187   7.931  0.9786 -1.6169 -0.0545
 1484TIP3   OH226010   1.639   0.403   1.224 -0.0146 -0.4781 -0.0592
 1484TIP3    H126011   1.605   0.482   1.183  1.0934  0.4778  0.7894
 1484TIP3    H226012   1.712   0.376   1.169 -0.4028 -0.9345 -0.3587
 1485TIP3   OH226013   0.511   2.632   0.738 -0.1962  0.3046  0.2771
 1485TIP3    H126014   0.554   2.678   0.810  0.1718 -1.4963  1.2584
 1485TIP3    H226015   0.510   2.540   0.765 -1.0125 -0.2719 -1.5539
 1486TIP3   OH226016   6.656   4.774   1.889  0.0390 -0.3617  0.1374
 1486TIP3    H126017   6.637   4.683   1.865  0.7525  0.0725 -2.3081
 1486TIP3    H226018   6.580   4.823   1.859 -0.1841 -0.0816  1.1290
 1487TIP3   OH226019   6.740   4.014   1.943 -0.0911  0.0942  0.0355
 1487TIP3    H126020   6.785   4.046   2.021  0.2706  1.1376 -0.5768
 1487TIP3    H226021   6.699   4.092   1.905 -0.7082 -0.4886 -0.5350
 1488TIP3   OH226022   6.533   5.117   1.628 -0.1547 -0.0766  0.5857
 1488TIP3    H126023   6.480   5.038   1.619 -0.6112  0.3062 -0.2214
 1488TIP3    H226024   6.485   5.171   1.690 -1.0553  0.5184 -0.5796
 1489TIP3   OH226025   2.846   5.015   8.117 -0.2233 -0.1328 -0.2322
 1489TIP3    H126026   2.812   5.091   8.071  1.4995  0.5654 -0.4503
 1489TIP3    H226027   2.933   5.001   8.078  0.4657 -0.7317  1.4235
 1490TIP3   OH226028   5.631   4.177   0.469 -0.2835 -0.1863 -0.2813
 1490TIP3    H126029   5.699   4.234   0.506  2.1205 -3.1391  0.2189
 1490TIP3    H226030   5.551   4.230   0.473  1.7417  3.1892 -0.0950
 1491TIP3   OH226031   6.126   4.976   1.098 -0.2584  0.1562 -0.0161
 1491TIP3    H126032   6.184   4.991   1.023  1.0444 -3.3361  0.1066
 1491TIP3    H226033   6.161   5.034   1.167  2.1023 -0.6026 -0.4713
 1492TIP3   OH226034   5.673   0.766   2.189 -0.0003  0.6861 -0.2934
 1492TIP3    H126035   5.752   0.714   2.200 -1.6972 -2.1013 -0.2986
 1492TIP3    H226036   5.703   0.848   2.151  2.8438 -0.2876 -0.3769
 1493TIP3   OH226037   0.658   6.530   1.152 -0.0273  0.1028 -0.4097
 1493TIP3    H126038   0.612   6.582   1.086 -1.2289 -1.5730 -0.9642
 1493TIP3    H226039   0.705   6.464   1.101  1.9331  0.9142  0.2439
 1494TIP3   OH226040   5.069   5.865   6.608 -0.0239 -0.2157 -0.0643
 1494TIP3    H126041   5.112   5.860   6.522  1.8701  3.0423  0.5562
 1494TIP3    H226042   4.978   5.840   6.590  0.4654 -0.2828 -2.8925
 1495TIP3   OH226043   4.118   3.330   7.212  0.3446  0.1133  0.1383
 1495TIP3    H126044   4.045   3.369   7.260  0.5211 -0.2777  0.7231
 1495TIP3    H226045   4.153   3.263   7.270  0.6070 -0.3167 -0.5026
 1496TIP3   OH226046   4.923   6.753   6.678  0.3734 -0.4770  0.0880
 1496TIP3    H126047   4.886   6.685   6.621  0.6122 -0.8656  0.3858
 1496TIP3    H226048   4.848   6.808   6.701 -0.1661 -1.5816  1.1365
 1497TIP3   OH226049   0.741   4.718   1.303 -0.3710  0.1953 -0.4189
 1497TIP3    H126050   0.810   4.729   1.369 -0.4894  0.2638 -0.3062
 1497TIP3    H226051   0.753   4.793   1.245  0.0665 -0.1495 -0.7787
 1498TIP3   OH226052   0.889   0.346   7.561  0.7965 -0.4901  0.4099
 1498TIP3    H126053   0.846   0.265   7.588  1.3495 -1.3455 -1.1732
 1498TIP3    H226054   0.843   0.414   7.609  0.3403 -1.7278  1.8142
 1499TIP3   OH226055   0.768   1.469   6.942  0.1270  0.2966  0.1005
 1499TIP3    H126056   0.738   1.545   6.892 -2.4072  0.4731  1.6980
 1499TIP3    H226057   0.799   1.505   7.024 -0.6139 -0.3219  0.6711
 1500TIP3   OH226058   1.044   3.466   7.400  0.3604 -0.0388  0.2745
 1500TIP3    H126059   1.057   3.486   7.492  0.0721  0.5003  0.2024
 1500TIP3    H226060   1.097   3.531   7.353 -0.3641  0.3947  0.0417
 1501TIP3   OH226061   2.755   0.555   6.492 -0.6395  0.3509 -0.7713
 1501TIP3    H126062   2.704   0.483   6.529 -1.4402  0.3863 -1.7542
 1501TIP3    H226063   2.834   0.559   6.545 -0.5278 -1.3247 -0.7806
 1502TIP3   OH226064   2.249   3.595   6.345  0.4172 -0.1181  0.1558
 1502TIP3    H126065   2.305   3.560   6.414 -0.1382 -1.2487  0.0587
 1502TIP3    H226066   2.219   3.679   6.379  1.4676  0.0953  0.5800
 1503TIP3   OH226067   2.115   4.185   8.594  0.0132  0.2985  0.3433
 1503TIP3    H126068   2.186   4.120   8.593 -1.9973 -2.0745 -1.7413
 1503TIP3    H226069   2.116   4.221   8.683  3.1592 -0.3051  0.6616
 1504TIP3   OH226070   5.159   1.594   6.948  0.2061 -0.0552  0.3033
 1504TIP3    H126071   5.115   1.590   6.864 -0.8732 -0.1398  0.8567
 1504TIP3    H226072   5.251   1.573   6.928  0.2873  1.4354 -1.0560
 1505TIP3   OH226073   0.069   1.933   6.666 -0.5787  0.3331 -0.0483
 1505TIP3    H126074  -0.012   1.929   6.616 -0.5516  0.0516 -0.0736
 1505TIP3    H226075   0.080   1.844   6.700  0.3068  0.0708 -0.9766
 1506TIP3   OH226076   1.204   0.791   6.538 -0.0656  0.0551  0.6440
 1506TIP3    H126077   1.295   0.772   6.564 -0.0490  1.2889  1.6075
 1506TIP3    H226078   1.153   0.720   6.576  0.3336  0.1727  1.4321
 1507TIP3   OH226079   5.157   4.282   0.746 -0.4195  0.2229  0.0594
 1507TIP3    H126080   5.111   4.217   0.798 -0.3983 -0.0530 -0.2581
 1507TIP3    H226081   5.129   4.264   0.656 -1.0620  1.1899  0.0580
 1508TIP3   OH226082   0.259   0.539   0.702  0.1690  0.3772 -0.2912
 1508TIP3    H126083   0.334   0.504   0.750  0.1842  0.2357 -0.4194
 1508TIP3    H226084   0.264   0.498   0.616  0.0918  0.5644 -0.3863
 1509TIP3   OH226085   4.550   5.308   1.769  0.5115  0.5016 -0.0866
 1509TIP3    H126086   4.580   5.350   1.849  1.7096 -0.3056 -0.0870
 1509TIP3    H226087   4.630   5.278   1.726  0.1365  3.1066 -2.8950
 1510TIP3   OH226088   4.616   3.345   8.541 -0.3558  0.0620  0.2458
 1510TIP3    H126089   4.702   3.316   8.573 -0.1255  1.1145  0.6036
 1510TIP3    H226090   4.554   3.284   8.580  0.1584 -0.2308  0.6111
 1511TIP3   OH226091   5.092   5.190   7.065 -0.0790 -0.3042 -0.3270
 1511TIP3    H126092   5.058   5.105   7.093  0.8141 -1.1175 -1.5794
 1511TIP3    H226093   5.023   5.227   7.011  0.8560 -1.8871 -2.7590
 1512TIP3   OH226094   3.142   2.293   7.330  0.2075 -0.0111 -0.7963
 1512TIP3    H126095   3.120   2.320   7.241  1.5784  1.0046 -0.8613
 1512TIP3    H226096   3.137   2.198   7.329 -3.8074  0.0420 -0.8486
 1513TIP3   OH226097   0.446   3.258   0.283 -0.0187  0.0829  0.7168
 1513TIP3    H126098   0.498   3.237   0.206 -2.2272  0.7427 -1.0652
 1513TIP3    H226099   0.407   3.175   0.310  2.0538 -0.4873  2.2788
 1514TIP3   OH226100   4.701   4.263   8.073 -0.5174 -0.2499  0.1846
 1514TIP3    H126101   4.649   4.261   8.153 -1.3874 -0.3628 -0.3737
 1514TIP3    H226102   4.784   4.302   8.100 -1.5776  1.8216  0.6817
 1515TIP3   OH226103   5.424   4.355   0.467 -0.4287  0.4955  0.2216
 1515TIP3    H126104   5.430   4.383   0.559  1.8713 -2.1045  1.0140
 1515TIP3    H226105   5.338   4.315   0.460  0.2275 -1.4449  2.0467
 1516TIP3   OH226106   3.630   5.549   8.648 -0.2684 -0.1014  0.1161
 1516TIP3    H126107   3.580   5.513   8.722  1.0202 -1.9696  0.1484
 1516TIP3    H226108   3.581   5.522   8.570 -0.2312 -0.3958  0.1961
 1517TIP3   OH226109   2.365   0.718   1.667 -0.1569 -0.4567 -0.6975
 1517TIP3    H126110   2.402   0.671   1.593  1.5353 -0.9335  0.3936
 1517TIP3    H226111   2.403   0.805   1.662  0.2948 -0.6160 -0.1827
 1518TIP3   OH226112   3.300   5.128   7.779 -0.1594 -0.2627 -0.2212
 1518TIP3    H126113   3.366   5.150   7.845  0.7231  0.4107 -1.2764
 1518TIP3    H226114   3.281   5.212   7.736 -0.8364 -0.6566 -0.7009
 1519TIP3   OH226115   5.392   0.638   1.468 -0.3680 -0.0722  0.4513
 1519TIP3    H126116   5.424   0.719   1.427 -0.0584 -1.1878 -1.6198
 1519TIP3    H226117   5.450   0.625   1.543  0.6745  0.7165 -0.1837
 1520TIP3   OH226118   2.166   5.325   6.759  0.3748 -0.2301  0.0707
 1520TIP3    H126119   2.252   5.285   6.774  0.0916 -1.5190 -1.4738
 1520TIP3    H226120   2.111   5.253   6.729 -1.6117  0.3275  2.0663
 1521TIP3   OH226121   1.883   1.074   1.402 -0.1560 -0.3255 -0.1889
 1521TIP3    H126122   1.930   1.004   1.448 -2.1866 -1.0766  0.8756
 1521TIP3    H226123   1.867   1.140   1.469 -1.4436 -0.5408 -0.2577
 1522TIP3   OH226124   0.151   2.357   7.979 -0.4206 -0.6446  0.0597
 1522TIP3    H126125   0.176   2.333   8.068 -0.2661  0.0364  0.2037
 1522TIP3    H226126   0.170   2.278   7.927 -0.3046 -0.9700  0.5857
 1523TIP3   OH226127   5.699   0.854   0.522 -0.0425  0.8570  0.4650
 1523TIP3    H126128   5.640   0.813   0.585 -0.3235 -0.9274 -0.8699
 1523TIP3    H226129   5.781   0.865   0.570 -0.4716  0.2437  1.3724
 1524TIP3   OH226130   0.553   2.255   7.396 -0.0904  0.2934 -0.7325
 1524TIP3    H126131   0.594   2.201   7.463  0.8828 -1.6276 -2.7685
 1524TIP3    H226132   0.477   2.205   7.367 -0.8131  1.3529 -0.7519
 1525TIP3   OH226133   0.233   5.761   0.237  0.2231  0.5373 -0.5768
 1525TIP3    H126134   0.186   5.773   0.320 -0.5531  2.2934 -1.2458
 1525TIP3    H226135   0.259   5.849   0.211  1.7767 -0.1480 -1.4776
 1526TIP3   OH226136   3.944   3.781   0.226 -0.1451  0.5251 -0.0042
 1526TIP3    H126137   3.949   3.860   0.171  1.9570  1.0103  0.8091
 1526TIP3    H226138   4.030   3.741   0.219  0.2427  0.6296  2.9355
 1527TIP3   OH226139   5.083   6.452   6.255  0.0479 -0.3863  0.3883
 1527TIP3    H126140   5.048   6.380   6.308 -0.5333 -1.9732 -1.9844
 1527TIP3    H226141   5.177   6.432   6.248  0.0211 -0.4955  0.3324
 1528TIP3   OH226142   3.826   3.667   1.212  0.3518  0.0170 -0.2560
 1528TIP3    H126143   3.802   3.719   1.289 -0.3356 -0.0230 -0.4371
 1528TIP3    H226144   3.743   3.648   1.169  0.2913 -3.0903  0.9663
 1529TIP3   OH226145   1.261   6.283   8.630 -0.3364 -0.2763  0.2089
 1529TIP3    H126146   1.193   6.267   8.696  0.5245 -0.8187  0.9925
 1529TIP3    H226147   1.331   6.222   8.653  0.2943  0.0692 -0.7592
 1530TIP3   OH226148   5.604   3.235   1.735  0.1887  0.8014 -0.3838
 1530TIP3    H126149   5.654   3.186   1.800  1.2647  1.1385 -0.9267
 1530TIP3    H226150   5.591   3.321   1.775  0.4146  0.8481 -0.4076
 1531TIP3   OH226151   4.261   4.686   0.662 -0.1298 -0.0691 -0.1820
 1531TIP3    H126152   4.284   4.610   0.609  0.8110 -0.2618  0.4598
 1531TIP3    H226153   4.276   4.761   0.604  0.6711 -0.2869 -0.2685
 1532TIP3   OH226154   4.939   1.747   8.343  0.1711  0.2542 -0.1859
 1532TIP3    H126155   4.961   1.660   8.375 -2.6807 -0.6120 -0.2953
 1532TIP3    H226156   4.954   1.743   8.249 -0.2915 -0.2543 -0.2423
 1533TIP3   OH226157   6.810   0.889   0.556 -0.4672  0.6907 -1.0237
 1533TIP3    H126158   6.774   0.961   0.504  1.5665  1.6984 -1.1548
 1533TIP3    H226159   6.905   0.898   0.547 -0.0581 -0.0044  1.6708
 1534TIP3   OH226160   2.333   1.747   8.263 -0.5534  0.2882  0.0873
 1534TIP3    H126161   2.334   1.652   8.271 -0.9847  0.3469  0.9960
 1534TIP3    H226162   2.404   1.777   8.320 -0.3818  0.5131 -0.2386
 1535TIP3   OH226163   1.159   4.843   7.859 -0.3813 -0.3608 -0.1115
 1535TIP3    H126164   1.132   4.828   7.950  2.5463  2.1231  1.3648
 1535TIP3    H226165   1.187   4.934   7.857  0.2357 -0.4911 -3.4041
 1536TIP3   OH226166   3.669   3.606   0.940 -0.0681 -0.4418 -0.3912
 1536TIP3    H126167   3.732   3.534   0.932  1.1559  0.4566  0.5953
 1536TIP3    H226168   3.593   3.568   0.983  1.3304 -0.7822  1.9431
 1537TIP3   OH226169   2.724   4.641   8.494  0.2949  0.3135  0.2096
 1537TIP3    H126170   2.807   4.633   8.446 -0.4526 -0.1894 -1.0426
 1537TIP3    H226171   2.679   4.558   8.477 -0.9588  1.0375 -0.1086
 1538TIP3   OH226172   5.196   6.870   8.236 -0.5195  0.0671 -0.1905
 1538TIP3    H126173   5.118   6.911   8.199 -0.5096 -0.1038 -0.3980
 1538TIP3    H226174   5.247   6.843   8.160  0.0146  0.6895 -0.0642
 1539TIP3   OH226175   1.649   0.245   6.519  0.0193 -0.2003 -0.3446
 1539TIP3    H126176   1.607   0.328   6.495 -0.2565  0.2542  1.5213
 1539TIP3    H226177   1.742   0.261   6.505  0.7086  2.4436  4.6444
 1540TIP3   OH226178   6.160   5.544   7.554  0.0990 -0.7782  0.0047
 1540TIP3    H126179   6.155   5.617   7.493  0.9381 -1.0688 -0.4331
 1540TIP3    H226180   6.070   5.531   7.584 -0.3292 -0.5896 -1.1308
 1541TIP3   OH226181   0.132   1.614   8.599 -0.2746  0.1968 -0.0534
 1541TIP3    H126182   0.139   1.524   8.631  1.6190 -0.1403 -1.2879
 1541TIP3    H226183   0.059   1.611   8.537 -0.9769 -0.1893  0.7609
 1542TIP3   OH226184   5.842   3.785   8.028  0.0395  0.0469 -0.0687
 1542TIP3    H126185   5.823   3.717   8.092 -1.3591 -0.0704 -0.5892
 1542TIP3    H226186   5.792   3.761   7.950 -0.1152  1.4125 -0.4250
 1543TIP3   OH226187   1.996   0.816   0.023 -0.2514  0.3148 -0.1832
 1543TIP3    H126188   1.931   0.860  -0.032 -0.7390 -0.6592 -0.4107
 1543TIP3    H226189   2.069   0.878   0.028 -1.2312  1.4881  0.1770
 1544TIP3   OH226190   5.130   0.147   0.730  0.8839 -0.0591 -0.1598
 1544TIP3    H126191   5.135   0.181   0.640  0.3642  1.2667  0.2915
 1544TIP3    H226192   5.147   0.054   0.721  0.1044 -0.0823 -1.7423
 1545TIP3   OH226193   6.017   4.829   2.654  0.2711  0.1920 -0.3990
 1545TIP3    H126194   6.092   4.770   2.651  1.1091  1.2552 -1.0671
 1545TIP3    H226195   5.957   4.788   2.715  1.0280 -1.1147 -0.4939
 1546TIP3   OH226196   0.721   6.580   7.359 -0.0653 -0.0576 -0.1393
 1546TIP3    H126197   0.724   6.497   7.313 -1.9889  0.4063 -1.1950
 1546TIP3    H226198   0.722   6.557   7.452 -2.3896 -1.3885 -0.3959
 1547TIP3   OH226199   6.746   0.782   1.986  0.4363 -0.3727 -0.1245
 1547TIP3    H126200   6.660   0.783   2.028 -0.1845  1.6958 -1.2887
 1547TIP3    H226201   6.730   0.816   1.898  2.6713  1.7327  0.1733
 1548TIP3   OH226202   4.742   6.434   1.504  0.1724 -0.0156 -0.2738
 1548TIP3    H126203   4.813   6.424   1.568 -0.2518 -1.3296  0.0168
 1548TIP3    H226204   4.720   6.527   1.507  0.3133 -0.0031  1.3454
 1549TIP3   OH226205   5.599   1.577   0.242 -0.1486 -0.0470 -0.0868
 1549TIP3    H126206   5.561   1.640   0.181 -0.8239  0.5547  0.9362
 1549TIP3    H226207   5.690   1.604   0.250  0.8307 -1.9098 -3.0936
 1550TIP3   OH226208   6.779   2.895   1.677  0.1564  0.3121  0.9112
 1550TIP3    H126209   6.687   2.885   1.652 -0.4441 -0.2672  3.1452
 1550TIP3    H226210   6.812   2.806   1.686  0.8084  0.5126  0.6322
 1551TIP3   OH226211   6.076   3.748   7.799 -0.6393 -0.4799 -0.7961
 1551TIP3    H126212   6.070   3.721   7.708  0.6434 -1.2861 -0.6707
 1551TIP3    H226213   5.991   3.727   7.836 -0.6879 -1.5384 -1.4607
 1552TIP3   OH226214   4.528   1.144   1.586  0.1587  0.2553 -0.0791
 1552TIP3    H126215   4.614   1.103   1.597 -0.1619 -0.0909  1.3000
 1552TIP3    H226216   4.499   1.164   1.675 -1.6839 -0.6755 -0.4268
 1553TIP3   OH226217   2.780   1.950   7.755  0.1335 -0.0337  0.1502
 1553TIP3    H126218   2.818   2.006   7.687 -0.4393 -0.6630 -0.6985
 1553TIP3    H226219   2.855   1.921   7.806  0.3973  2.1552  1.1490
 1554TIP3   OH226220   3.019   3.451   8.472  0.3762  0.1200  0.0143
 1554TIP3    H126221   3.095   3.407   8.434  1.1855  1.7432 -0.3249
 1554TIP3    H226222   3.023   3.430   8.565 -0.3115 -1.9856 -0.3813
 1555TIP3   OH226223   0.386   3.320   0.580  0.1397  0.2085 -0.0850
 1555TIP3    H126224   0.342   3.404   0.596  0.8873  0.3625  1.2735
 1555TIP3    H226225   0.469   3.344   0.539 -0.3931  0.0038 -1.3251
 1556TIP3   OH226226   6.015   2.613   1.959 -0.0107  0.5510  0.4110
 1556TIP3    H126227   6.071   2.535   1.957 -0.2382  0.3923  0.2443
 1556TIP3    H226228   5.965   2.605   2.040 -1.1216 -0.2415 -0.3266
 1557TIP3   OH226229   1.707   4.903   8.592  0.0426 -0.0624  0.3139
 1557TIP3    H126230   1.783   4.869   8.546  1.2043  0.5257  1.7204
 1557TIP3    H226231   1.646   4.829   8.597  0.6158 -0.6116 -0.6077
 1558TIP3   OH226232   1.311   5.789   7.919 -0.0142  0.2140 -0.1571
 1558TIP3    H126233   1.304   5.786   8.015  1.1241  1.3009 -0.0078
 1558TIP3    H226234   1.338   5.701   7.894  1.9155  0.4762  0.7678
 1559TIP3   OH226235   4.405   2.564   6.725 -0.5494  0.2174  0.0481
 1559TIP3    H126236   4.327   2.542   6.673 -0.5546  0.5211 -0.0731
 1559TIP3    H226237   4.414   2.491   6.786 -0.7360  0.0173 -0.1609
 1560TIP3   OH226238   5.177   6.076   8.108 -0.0825 -0.2047 -0.0628
 1560TIP3    H126239   5.160   5.983   8.090 -0.6870 -0.2561  0.7007
 1560TIP3    H226240   5.186   6.080   8.203 -1.9281  0.7864  0.1122
 1561TIP3   OH226241   6.630   5.304   6.445  0.0140 -0.3068  0.5651
 1561TIP3    H126242   6.550   5.302   6.497 -0.0923  1.0530  0.4692
 1561TIP3    H226243   6.600   5.287   6.355  0.0402 -1.3422  0.7382
 1562TIP3   OH226244   2.627   5.862   2.139  0.7713  0.1515 -0.1756
 1562TIP3    H126245   2.628   5.955   2.115 -0.4691  0.1169 -0.4240
 1562TIP3    H226246   2.671   5.859   2.224  1.5439  0.8526 -0.5355
 1563TIP3   OH226247   1.152   0.923   7.154 -0.7426 -0.6641 -0.1091
 1563TIP3    H126248   1.081   0.969   7.199 -2.7583 -3.5710 -0.0397
 1563TIP3    H226249   1.116   0.900   7.068 -0.2930 -2.9465  0.2413
 1564TIP3   OH226250   2.202   5.508   8.087 -0.4526 -0.0354  0.0050
 1564TIP3    H126251   2.111   5.507   8.056 -0.7025 -1.8366  0.6728
 1564TIP3    H226252   2.197   5.474   8.176  0.9172 -0.4934 -0.0783
 1565TIP3   OH226253   5.795   4.553   7.058  0.3414  0.7257  0.2291
 1565TIP3    H126254   5.754   4.608   7.125 -0.0367  1.6296 -0.7147
 1565TIP3    H226255   5.732   4.552   6.986 -0.1001 -1.7481  0.5566
 1566TIP3   OH226256   6.556   2.581   1.160  0.4482  0.0463  0.7174
 1566TIP3    H126257   6.516   2.496   1.176 -3.0689  1.6134  1.2245
 1566TIP3    H226258   6.592   2.575   1.072 -1.3408 -1.4657  0.0194
 1567TIP3   OH226259   2.372   4.323   8.353 -0.0092  0.2821 -0.0227
 1567TIP3    H126260   2.427   4.294   8.426 -1.2991  3.9438  2.7201
 1567TIP3    H226261   2.299   4.260   8.352  0.0728  0.0746  1.8626
 1568TIP3   OH226262   5.974   1.852   1.998 -0.4246  0.5333  0.2007
 1568TIP3    H126263   6.039   1.832   2.065  0.5476 -2.5529 -1.4636
 1568TIP3    H226264   5.892   1.863   2.046 -0.2352 -3.7113  1.9775
 1569TIP3   OH226265   3.235   1.396   0.419  0.2872  0.0157  0.4464
 1569TIP3    H126266   3.141   1.407   0.403 -0.1051 -3.0414 -0.0428
 1569TIP3    H226267   3.246   1.421   0.511 -1.1911 -0.2842  0.7458
 1570TIP3   OH226268   2.457   4.409   0.827 -0.0755 -0.6759 -0.2437
 1570TIP3    H126269   2.448   4.314   0.834 -1.8234 -0.4798  0.7675
 1570TIP3    H226270   2.369   4.439   0.803 -0.1487  0.8697  1.7477
 1571TIP3   OH226271   4.937   2.814   1.801 -1.2050 -0.0023  0.0133
 1571TIP3    H126272   4.862   2.847   1.851 -1.0843  1.8106 -0.9149
 1571TIP3    H226273   4.973   2.892   1.758  0.1310 -1.1261 -0.9865
 1572TIP3   OH226274   2.470   3.294   7.843  0.9216  0.0205  0.0472
 1572TIP3    H126275   2.556   3.315   7.805  0.3611 -1.1927 -2.0786
 1572TIP3    H226276   2.407   3.332   7.781 -0.0528 -2.6206 -0.6785
 1573TIP3   OH226277   1.461   3.418   0.193 -0.2029 -0.4329  0.1609
 1573TIP3    H126278   1.417   3.335   0.178  0.4388 -0.6155 -0.7782
 1573TIP3    H226279   1.410   3.460   0.262 -1.5061 -0.8877 -0.4970
 1574TIP3   OH226280   4.952   4.671   1.300  0.3196 -0.3372  0.3596
 1574TIP3    H126281   4.994   4.731   1.237 -2.0932  0.7944 -0.2783
 1574TIP3    H226282   4.975   4.706   1.386  0.3036  0.5541  0.0124
 1575TIP3   OH226283   4.757   6.223   1.754  0.6673  0.1673  0.5532
 1575TIP3    H126284   4.720   6.135   1.742  2.2192 -0.4524  0.1347
 1575TIP3    H226285   4.768   6.256   1.665  2.5553 -0.3038  0.5693
 1576TIP3   OH226286   0.065   6.180   0.661  0.0558  0.1761 -0.3462
 1576TIP3    H126287   0.101   6.268   0.673 -0.7013  0.3687  0.5734
 1576TIP3    H226288  -0.012   6.178   0.717 -1.1210 -0.3797 -1.8995
 1577TIP3   OH226289   0.043   5.452   1.486 -0.7948  0.4355 -0.0180
 1577TIP3    H126290  -0.022   5.489   1.426  1.1421 -0.6851 -3.0721
 1577TIP3    H226291   0.005   5.368   1.513 -1.4521  0.6725 -0.1873
 1578TIP3   OH226292   2.206   1.303   1.469  0.0554 -0.1986  0.1451
 1578TIP3    H126293   2.122   1.347   1.454  0.0032  0.6014  2.4098
 1578TIP3    H226294   2.259   1.326   1.393 -1.0420  1.1823 -0.2439
 1579TIP3   OH226295   6.657   3.750   7.600 -0.6632 -0.1838  0.3090
 1579TIP3    H126296   6.741   3.793   7.616  1.1823 -2.7441 -1.5992
 1579TIP3    H226297   6.626   3.788   7.518 -1.5094  0.9022  1.1146
 1580TIP3   OH226298   5.950   1.214   8.638  0.1508  0.3276 -0.1339
 1580TIP3    H126299   6.004   1.256   8.571 -2.6744  0.1964 -2.7512
 1580TIP3    H226300   5.891   1.282   8.668  0.1823 -0.0815  0.8920
 1581TIP3   OH226301   5.307   3.054   6.624 -0.5289  0.2950 -1.1169
 1581TIP3    H126302   5.343   2.971   6.592  0.6341  0.9048 -1.4493
 1581TIP3    H226303   5.382   3.099   6.664 -1.6357  0.1478  1.2993
 1582TIP3   OH226304   2.661   1.721   7.176  0.1509 -0.6979  0.6259
 1582TIP3    H126305   2.679   1.806   7.216 -0.2309 -0.0655 -0.4992
 1582TIP3    H226306   2.651   1.661   7.250  3.1945 -0.3791  1.4189
 1583TIP3   OH226307   3.565   5.771   7.136  0.0606 -0.2466 -0.1340
 1583TIP3    H126308   3.626   5.845   7.137  3.8552 -3.0917  1.1521
 1583TIP3    H226309   3.584   5.725   7.055  0.2298 -1.6044  0.6502
 1584TIP3   OH226310   2.860   5.826   7.942 -0.4396  0.3291 -0.3764
 1584TIP3    H126311   2.776   5.872   7.947  0.5188  2.0061  1.2142
 1584TIP3    H226312   2.839   5.736   7.967 -1.7812  0.6971 -0.0956
 1585TIP3   OH226313   0.288   0.350   6.671 -0.5485  0.5667  0.0667
 1585TIP3    H126314   0.258   0.399   6.595 -1.4277  1.1180  0.7549
 1585TIP3    H226315   0.382   0.368   6.676  0.1562 -1.5863 -2.4265
 1586TIP3   OH226316   0.963   3.768   0.715  0.1996  0.3269 -0.0528
 1586TIP3    H126317   0.983   3.861   0.706 -0.1035  0.3061 -1.1361
 1586TIP3    H226318   0.941   3.740   0.626  0.3861 -0.8026  0.2426
 1587TIP3   OH226319   0.357   4.791   7.463  0.0617  0.2739 -0.2641
 1587TIP3    H126320   0.314   4.811   7.380  0.9438 -0.9249 -1.0549
 1587TIP3    H226321   0.339   4.866   7.519 -0.2753  1.2682 -1.6564
 1588TIP3   OH226322   5.591   1.599   8.125 -0.0377 -0.1228 -0.3564
 1588TIP3    H126323   5.586   1.546   8.045  1.4207 -0.0465 -0.5268
 1588TIP3    H226324   5.531   1.672   8.109 -0.5552 -0.6505 -0.9367
 1589TIP3   OH226325   2.696   0.805   6.610 -0.3362  0.2996 -0.4820
 1589TIP3    H126326   2.784   0.809   6.572 -0.7319  2.0148 -1.2974
 1589TIP3    H226327   2.656   0.730   6.566  0.4892 -0.0935 -0.5991
 1590TIP3   OH226328   3.712   1.364   1.463 -0.1566 -0.3429 -0.2133
 1590TIP3    H126329   3.680   1.419   1.535 -0.6649 -1.8180  0.7506
 1590TIP3    H226330   3.645   1.372   1.395 -0.6506 -0.3771  0.2522
 1591TIP3   OH226331   3.100   0.631   7.659  0.3492  0.8141 -0.5181
 1591TIP3    H126332   3.062   0.654   7.574 -0.2215 -1.9378 -1.0915
 1591TIP3    H226333   3.187   0.599   7.639  0.0826 -0.1894 -0.1413
 1592TIP3   OH226334   5.238   1.391   2.169 -0.5435 -0.1873 -0.0509
 1592TIP3    H126335   5.164   1.358   2.221 -0.8498  0.9264  0.2362
 1592TIP3    H226336   5.254   1.479   2.203 -0.6332  0.5037 -1.7400
 1593TIP3   OH226337   3.307   6.380   7.364 -0.3347  0.1703  0.4188
 1593TIP3    H126338   3.258   6.305   7.329  2.2684 -1.6183  0.3031
 1593TIP3    H226339   3.361   6.408   7.290  0.1012  0.9471  1.0312
 1594TIP3   OH226340   5.422   0.397   0.682 -0.4804  0.1191  0.7090
 1594TIP3    H126341   5.432   0.405   0.777  1.6726  0.1930  0.5094
 1594TIP3    H226342   5.509   0.372   0.650 -1.7811 -2.8134 -0.9675
 1595TIP3   OH226343   6.507   3.476   2.015  0.1152 -0.4700 -0.2963
 1595TIP3    H126344   6.461   3.514   2.090  0.2907  0.9541 -0.8699
 1595TIP3    H226345   6.597   3.465   2.046  0.3748  0.8644 -0.5172
 1596TIP3   OH226346   3.800   5.835   6.261 -0.4068 -0.1075  0.5245
 1596TIP3    H126347   3.844   5.763   6.306  0.3458 -0.7288 -1.1356
 1596TIP3    H226348   3.742   5.792   6.199  0.1068  0.7101 -0.5400
 1597TIP3   OH226349   6.452   3.405   7.789  0.2509 -0.4654 -0.2624
 1597TIP3    H126350   6.400   3.443   7.860 -0.2506 -1.9746  0.2108
 1597TIP3    H226351   6.388   3.363   7.732  0.5957  1.1126 -1.9190
 1598TIP3   OH226352   2.478   2.635   1.706  0.0755  0.6065  0.0152
 1598TIP3    H126353   2.515   2.547   1.716 -2.1552 -0.1792  2.8604
 1598TIP3    H226354   2.429   2.630   1.623  1.7809 -0.0486 -1.0034
 1599TIP3   OH226355   0.260   6.843   6.892  0.1551 -0.0571 -0.2743
 1599TIP3    H126356   0.320   6.875   6.959  1.8157 -1.3318 -1.0602
 1599TIP3    H226357   0.221   6.764   6.930  0.5677 -0.3852 -0.5160
 1600TIP3   OH226358   4.216   0.840   6.338 -0.2364  0.2284  0.1361
 1600TIP3    H126359   4.308   0.820   6.351 -0.0648  0.5044 -0.5682
 1600TIP3    H226360   4.213   0.936   6.332 -0.0976  0.1584 -2.7625
 1601TIP3   OH226361   3.988   5.684   0.661 -0.5094  0.2195  0.1713
 1601TIP3    H126362   4.013   5.613   0.720 -0.5124  0.6044  0.6433
 1601TIP3    H226363   3.902   5.712   0.692  0.7726  2.4938  2.0075
 1602TIP3   OH226364   0.898   5.055   7.892 -0.3199  0.4987  0.1546
 1602TIP3    H126365   0.915   5.078   7.984 -1.2206 -0.9421  0.7226
 1602TIP3    H226366   0.975   5.086   7.845 -0.1520  1.9213  1.2699
 1603TIP3   OH226367   2.735   1.192   8.160 -0.1488 -0.1542 -0.0586
 1603TIP3    H126368   2.646   1.156   8.160 -0.1314 -0.2590  1.2035
 1603TIP3    H226369   2.723   1.284   8.186  0.1697 -0.4132  1.0750
 1604TIP3   OH226370   2.683   1.939   6.964 -0.4202 -0.0943  0.6556
 1604TIP3    H126371   2.705   1.894   7.046  1.8430  0.3186  0.3273
 1604TIP3    H226372   2.596   1.976   6.980 -0.2977 -0.5489  2.6392
 1605TIP3   OH226373   4.202   5.447   0.454  0.0809  0.2920  0.1923
 1605TIP3    H126374   4.122   5.453   0.505  0.1219 -0.3996  0.3460
 1605TIP3    H226375   4.192   5.512   0.385 -0.3340  0.6531  0.5904
 1606TIP3   OH226376   3.449   3.328   0.347 -0.0550  0.0719  0.1443
 1606TIP3    H126377   3.385   3.265   0.381 -0.0084  0.7569  1.5237
 1606TIP3    H226378   3.518   3.273   0.309 -1.7031 -0.6936 -1.9520
 1607TIP3   OH226379   3.700   3.015   6.750  0.0119 -0.3059  0.4878
 1607TIP3    H126380   3.734   3.055   6.831  0.2108 -0.2275  0.3671
 1607TIP3    H226381   3.732   2.925   6.752  0.7611 -0.0572  0.0697
 1608TIP3   OH226382   4.226   5.545   2.180  0.6156  0.1287 -0.2281
 1608TIP3    H126383   4.250   5.623   2.131  1.6368  0.0165  0.0742
 1608TIP3    H226384   4.303   5.526   2.234 -1.0222  1.2077  2.6798
 1609TIP3   OH226385   4.073   4.448   1.011  0.1135 -0.2791  0.4520
 1609TIP3    H126386   4.003   4.426   0.950  1.5173 -1.0360 -0.9726
 1609TIP3    H226387   4.131   4.371   1.010  0.5754 -0.0082  2.1889
 1610TIP3   OH226388   1.249   5.854   7.407  0.3105  0.0006 -0.0177
 1610TIP3    H126389   1.240   5.771   7.360 -0.5046 -1.2602  2.2272
 1610TIP3    H226390   1.164   5.897   7.397  0.0573 -0.3761  0.4714
 1611TIP3   OH226391   6.205   4.310   6.331 -0.4934 -0.9582  0.3172
 1611TIP3    H126392   6.196   4.392   6.380 -0.1235 -1.3168  0.9966
 1611TIP3    H226393   6.142   4.250   6.371 -2.1044 -0.4856 -1.3665
 1612TIP3   OH226394   5.684   1.939   1.326 -0.1291 -0.1707  0.2815
 1612TIP3    H126395   5.616   1.880   1.359 -0.1817 -0.2289  0.0671
 1612TIP3    H226396   5.750   1.881   1.287 -0.5964 -0.0520 -0.7176
 1613TIP3   OH226397   0.622   2.013   8.049  0.1075 -0.2032 -0.7215
 1613TIP3    H126398   0.645   1.937   8.104 -0.3685 -0.6107 -1.0793
 1613TIP3    H226399   0.631   1.981   7.959 -0.4511  0.0572 -0.8724
 1614TIP3   OH226400   2.048   1.555   6.889  0.2805  0.2912  0.0939
 1614TIP3    H126401   1.974   1.547   6.948 -0.6452  0.3324 -1.0173
 1614TIP3    H226402   2.103   1.623   6.928  0.5041 -0.7452  1.6854
 1615TIP3   OH226403   4.157   4.255   0.246  0.0626 -0.0983  0.4764
 1615TIP3    H126404   4.148   4.298   0.161  0.9759  0.9571  0.8869
 1615TIP3    H226405   4.078   4.280   0.294  0.0864  0.2488  0.3340
 1616TIP3   OH226406   3.069   3.379   0.067  0.7225  0.4460 -0.0476
 1616TIP3    H126407   3.101   3.435   0.137  1.3449  1.1928 -0.9049
 1616TIP3    H226408   2.973   3.387   0.072  0.5227 -1.9449  2.6461
 1617TIP3   OH226409   6.598   4.761   1.336  0.4560 -0.0123 -0.1287
 1617TIP3    H126410   6.543   4.731   1.408  1.4231 -0.1910  0.5626
 1617TIP3    H226411   6.537   4.786   1.267 -0.5487  1.0846  1.1043
 1618TIP3   OH226412   2.320   0.780   0.087  0.3182  0.1057  0.4693
 1618TIP3    H126413   2.383   0.821   0.146  1.2912  0.5329 -0.8361
 1618TIP3    H226414   2.273   0.853   0.048 -1.3283 -0.2129  1.7278
 1619TIP3   OH226415   5.175   0.283   6.509 -0.3769  0.0921 -0.0644
 1619TIP3    H126416   5.186   0.194   6.477 -0.0017 -0.2625  1.0238
 1619TIP3    H226417   5.080   0.298   6.507 -0.4026 -0.1386 -0.7313
 1620TIP3   OH226418   5.274   5.246   6.803 -0.1553 -0.5857 -0.0486
 1620TIP3    H126419   5.287   5.322   6.859  0.7246  0.2053 -1.2650
 1620TIP3    H226420   5.202   5.198   6.843 -1.2409  1.2817  0.3462
 1621TIP3   OH226421   0.841   0.015   8.505 -0.3625  0.4093  0.3765
 1621TIP3    H126422   0.770  -0.040   8.537 -1.8720  1.0856 -1.6539
 1621TIP3    H226423   0.887  -0.039   8.440  0.9843  0.0181  1.5828
 1622TIP3   OH226424   4.321   3.735   8.162 -0.1510  0.1973  0.0338
 1622TIP3    H126425   4.255   3.679   8.119  1.1858 -1.4331 -0.0075
 1622TIP3    H226426   4.317   3.709   8.254 -0.2690  0.8251  0.2048
 1623TIP3   OH226427   2.730   2.830   1.214  0.3705 -0.5707 -0.2055
 1623TIP3    H126428   2.635   2.839   1.223  0.5582  1.4162  0.0903
 1623TIP3    H226429   2.761   2.816   1.303  0.4095 -0.6677 -0.2342
 1624TIP3   OH226430   2.982   6.739   0.249  0.4952 -0.1551 -0.1493
 1624TIP3    H126431   2.961   6.684   0.173  0.3482  1.7749 -1.5733
 1624TIP3    H226432   2.905   6.732   0.305 -0.5937  0.5123 -1.4984
 1625TIP3   OH226433   5.141   3.163   6.971 -0.0205 -0.0170 -0.3873
 1625TIP3    H126434   5.207   3.138   7.036  0.1677  0.3993 -0.4158
 1625TIP3    H226435   5.062   3.181   7.023  0.3951  1.2541 -0.1651
 1626TIP3   OH226436   2.451   2.275   7.141 -0.1593 -0.1904 -0.2119
 1626TIP3    H126437   2.483   2.239   7.223 -0.2045 -0.1826 -0.1904
 1626TIP3    H226438   2.528   2.308   7.096 -0.1307 -0.2238 -0.1869
 1627TIP3   OH226439   0.633   1.632   2.796 -0.2036 -0.0196  0.0248
 1627TIP3    H126440   0.556   1.684   2.776 -0.8568 -0.7409  0.6463
 1627TIP3    H226441   0.698   1.660   2.731 -0.7866  1.0020 -0.1361
 1628TIP3   OH226442   1.629   6.563   0.646  0.0450  0.5466 -0.5958
 1628TIP3    H126443   1.720   6.543   0.669  0.1148  2.4714  1.1763
 1628TIP3    H226444   1.632   6.655   0.619 -1.6271  1.3805  1.6986
 1629TIP3   OH226445   0.847   0.450   1.680  0.0230  0.0749  0.3189
 1629TIP3    H126446   0.832   0.428   1.772 -0.5732 -0.8689  0.0050
 1629TIP3    H226447   0.940   0.433   1.667 -0.4039 -2.4674  0.0734
 1630TIP3   OH226448   0.406   0.542   7.725 -0.2244 -0.2541  0.2229
 1630TIP3    H126449   0.320   0.518   7.761 -0.1482  1.5469  1.7751
 1630TIP3    H226450   0.401   0.637   7.715  0.3953 -0.4807 -3.0660
 1631TIP3   OH226451   6.676   0.255   7.461  0.0103 -0.4107  0.3017
 1631TIP3    H126452   6.712   0.334   7.500  1.2327 -0.5656 -0.4729
 1631TIP3    H226453   6.610   0.287   7.399 -1.9548 -0.1629  2.3805
 1632TIP3   OH226454   4.259   4.934   0.558 -0.0615 -0.5135  0.0893
 1632TIP3    H126455   4.235   4.939   0.650 -0.3842 -0.5586  0.0080
 1632TIP3    H226456   4.324   5.004   0.546  2.5419 -2.5869  1.1058
 1633TIP3   OH226457   1.440   3.554   7.576 -0.5734  0.3469  0.6679
 1633TIP3    H126458   1.452   3.494   7.502  0.5313 -1.1559  1.9819
 1633TIP3    H226459   1.354   3.532   7.610 -0.1734 -0.5535  1.1463
 1634TIP3   OH226460   3.143   6.264   0.151 -0.3192  0.1968 -0.2381
 1634TIP3    H126461   3.196   6.314   0.089  1.0744 -0.3303  0.4913
 1634TIP3    H226462   3.198   6.189   0.175 -2.0797 -1.3643 -0.7999
 1635TIP3   OH226463   6.813   3.165   7.269 -0.0824  0.6856 -0.3247
 1635TIP3    H126464   6.730   3.130   7.301  2.2509 -2.4749  3.0598
 1635TIP3    H226465   6.831   3.115   7.189 -1.2453  1.2329 -0.9541
 1636TIP3   OH226466   1.964   1.419   1.409 -0.2993  0.2847 -0.0600
 1636TIP3    H126467   1.907   1.492   1.385 -1.0977 -0.8813 -1.9654
 1636TIP3    H226468   1.910   1.364   1.466 -0.5602  0.0072 -0.5583
 1637TIP3   OH226469   3.988   2.555   8.620  0.1157 -0.1536 -0.7407
 1637TIP3    H126470   4.017   2.472   8.658  1.8928  1.1497  0.9391
 1637TIP3    H226471   3.987   2.616   8.694  1.1870  1.8959 -2.3299
 1638TIP3   OH226472   5.915   2.770   7.913 -0.0313  0.0425 -0.1373
 1638TIP3    H126473   6.000   2.728   7.926 -0.1072 -0.3563 -0.8679
 1638TIP3    H226474   5.873   2.718   7.844 -0.7451  0.4161  0.0042
 1639TIP3   OH226475   5.509   4.154   7.726 -0.0232  0.2179  0.4177
 1639TIP3    H126476   5.524   4.104   7.806  0.0436  1.5407  1.2665
 1639TIP3    H226477   5.414   4.168   7.724 -0.1673 -0.7280 -0.3349
 1640TIP3   OH226478   4.337   2.283   0.220  0.6710  0.9314  0.5395
 1640TIP3    H126479   4.425   2.245   0.222  1.1477  1.9046 -0.5587
 1640TIP3    H226480   4.281   2.215   0.256  1.5960 -0.4994 -0.5808
 1641TIP3   OH226481   4.848   5.054   7.429  0.4167  0.1622 -0.0777
 1641TIP3    H126482   4.875   4.968   7.396  0.8120  0.4252 -0.4615
 1641TIP3    H226483   4.783   5.085   7.365  0.5327  0.2950 -0.1333
 1642TIP3   OH226484   6.451   5.151   7.413  0.1206  0.4605 -0.2125
 1642TIP3    H126485   6.406   5.217   7.360  0.3908  1.8210  1.1900
 1642TIP3    H226486   6.393   5.075   7.409 -0.7852  1.1548 -0.9194
 1643TIP3   OH226487   0.418   6.121   8.435  0.0968  1.4255  0.0521
 1643TIP3    H126488   0.461   6.199   8.400  1.4039  1.7309  2.1539
 1643TIP3    H226489   0.476   6.091   8.505  0.6272 -2.5410 -1.7812
 1644TIP3   OH226490   2.721   1.310   7.618 -0.6487  0.5648  0.2934
 1644TIP3    H126491   2.774   1.333   7.543 -1.7661 -0.4060 -0.8373
 1644TIP3    H226492   2.738   1.217   7.632 -0.7947  0.6330  0.9710
 1645TIP3   OH226493   1.003   2.655   2.557  0.6214 -0.2423 -0.0353
 1645TIP3    H126494   0.967   2.572   2.526  0.6516  0.4322 -1.9567
 1645TIP3    H226495   1.097   2.649   2.538  1.1302 -0.8112  2.2998
 1646TIP3   OH226496   0.358   6.330   7.114 -0.2818 -0.7368  0.3940
 1646TIP3    H126497   0.391   6.396   7.053 -1.0704 -0.3936  0.3252
 1646TIP3    H226498   0.374   6.246   7.071 -1.9484 -0.4464 -0.8627
 1647TIP3   OH226499   5.534   0.835   8.666 -0.1840  0.5043 -0.4995
 1647TIP3    H126500   5.472   0.907   8.661 -0.6518  0.4476  2.6146
 1647TIP3    H226501   5.613   0.873   8.703  0.4037 -0.1534 -1.0286
 1648TIP3   OH226502   1.018   3.284   2.274  0.0593  0.7315 -0.3052
 1648TIP3    H126503   0.937   3.241   2.245 -0.8589  2.0010  0.2515
 1648TIP3    H226504   1.035   3.247   2.361 -0.6591  1.3784  0.1227
 1649TIP3   OH226505   5.445   2.982   7.892  0.6678  0.6897 -0.0158
 1649TIP3    H126506   5.539   2.974   7.875  0.8931  1.2363  0.9114
 1649TIP3    H226507   5.405   2.982   7.805  1.4682 -0.1498 -0.4045
 1650TIP3   OH226508   1.011   5.224   2.128 -0.4666  0.1971 -0.4787
 1650TIP3    H126509   1.080   5.164   2.100  1.0042  1.0690  1.0572
 1650TIP3    H226510   0.935   5.168   2.146  0.5330 -1.0795 -0.1072
 1651TIP3   OH226511   4.825   5.720   8.434 -1.1149  0.1885 -0.2251
 1651TIP3    H126512   4.900   5.707   8.492 -1.4821 -0.9285  0.0092
 1651TIP3    H226513   4.838   5.657   8.363 -0.4036  1.8675 -1.6860
 1652TIP3   OH226514   4.171   2.383   2.412  0.3944  0.3209  0.1810
 1652TIP3    H126515   4.167   2.320   2.340 -1.0483  0.3156  0.2509
 1652TIP3    H226516   4.121   2.458   2.381  0.8823  0.8552  0.6651
 1653TIP3   OH226517   3.908   6.166   0.305  0.3789 -0.0021  0.4190
 1653TIP3    H126518   3.828   6.192   0.260 -0.5491 -1.9520  0.8113
 1653TIP3    H226519   3.973   6.230   0.278 -1.6514  2.6238  1.3448
 1654TIP3   OH226520   3.234   3.493   6.490  0.2157  0.5469  0.2373
 1654TIP3    H126521   3.228   3.507   6.395 -0.1929  0.6465  0.2745
 1654TIP3    H226522   3.145   3.468   6.516  0.9683 -2.7486  0.0848
 1655TIP3   OH226523   1.858   4.244   1.380  0.5109  0.7119 -0.2567
 1655TIP3    H126524   1.927   4.300   1.345 -0.7535  1.2133 -2.0779
 1655TIP3    H226525   1.800   4.304   1.426  1.4160  0.2406  1.5993
 1656TIP3   OH226526   5.601   3.320   7.763 -0.1070  0.2610  0.1032
 1656TIP3    H126527   5.517   3.275   7.761  0.4848 -0.8872  0.1143
 1656TIP3    H226528   5.657   3.270   7.704  0.3448  1.5079 -0.5838
 1657TIP3   OH226529   2.766   4.148   7.214 -0.6629  0.2219  0.2738
 1657TIP3    H126530   2.840   4.145   7.275 -0.8988  0.8573  0.6009
 1657TIP3    H226531   2.806   4.147   7.127 -0.3665 -3.1828  0.3134
 1658TIP3   OH226532   5.857   6.826   0.210 -0.0686 -0.3601 -0.0882
 1658TIP3    H126533   5.937   6.775   0.199 -0.2227 -0.7210  0.3968
 1658TIP3    H226534   5.882   6.901   0.263  0.1347  0.0142 -0.7050
 1659TIP3   OH226535   1.467   1.414   1.402 -0.5721  0.1213 -0.0669
 1659TIP3    H126536   1.509   1.358   1.468 -0.0513  0.6615  0.0644
 1659TIP3    H226537   1.426   1.484   1.453 -1.4298 -0.2551 -0.2118
 1660TIP3   OH226538   2.189   1.179   1.873 -0.3572 -0.2666  0.0848
 1660TIP3    H126539   2.282   1.155   1.871 -0.0537  0.7454  1.3668
 1660TIP3    H226540   2.166   1.180   1.965 -2.1319 -2.2013 -0.2684
 1661TIP3   OH226541   1.209   0.118   8.391 -0.1634 -0.0754  0.2930
 1661TIP3    H126542   1.290   0.139   8.438 -0.1314  2.0108 -0.5757
 1661TIP3    H226543   1.182   0.201   8.353 -3.7607 -0.2084  2.1210
 1662TIP3   OH226544   4.434   1.678   1.390 -0.0692 -0.1119 -0.0944
 1662TIP3    H126545   4.437   1.715   1.301 -1.9876  1.4891  0.4357
 1662TIP3    H226546   4.434   1.584   1.376  0.0675  0.1002 -1.7734
 1663TIP3   OH226547   0.538   0.105   0.722  0.3956  0.0054 -0.2460
 1663TIP3    H126548   0.623   0.068   0.746 -0.5617 -2.6744 -0.6882
 1663TIP3    H226549   0.482   0.087   0.798 -0.2039  0.2255 -0.6306
 1664TIP3   OH226550   0.123   4.558   6.363  0.1920 -0.5240 -0.0570
 1664TIP3    H126551   0.079   4.483   6.323  0.0933  0.1854 -1.3431
 1664TIP3    H226552   0.051   4.619   6.384  0.2774 -0.7419  0.8917
 1665TIP3   OH226553   6.752   6.410   7.228 -0.7883 -0.0094  0.3148
 1665TIP3    H126554   6.775   6.395   7.136 -0.8400 -1.1116  0.4699
 1665TIP3    H226555   6.765   6.504   7.241 -0.8988  0.1805 -0.8540
 1666TIP3   OH226556   5.645   0.148   1.723  0.4046  0.4860  0.2695
 1666TIP3    H126557   5.556   0.138   1.692  0.3590 -1.9169  0.9858
 1666TIP3    H226558   5.699   0.144   1.643 -0.0836  1.8788 -0.1559
 1667TIP3   OH226559   0.924   2.586   0.390  0.1118 -0.1322 -0.1296
 1667TIP3    H126560   0.852   2.635   0.430 -0.2259 -0.2965 -0.5268
 1667TIP3    H226561   0.968   2.544   0.464 -1.7965 -2.1700 -0.0407
 1668TIP3   OH226562   2.485   5.004   2.091  0.0392  0.0616 -0.2459
 1668TIP3    H126563   2.544   5.028   2.161  2.0115 -1.8164 -1.1428
 1668TIP3    H226564   2.408   4.968   2.135  0.6536  0.1697  0.9342
 1669TIP3   OH226565   4.261   1.841   1.547  0.4942  0.5063  0.2228
 1669TIP3    H126566   4.237   1.797   1.628  0.1224 -0.0056 -0.1590
 1669TIP3    H226567   4.320   1.780   1.503  0.4810  0.6642 -0.0169
 1670TIP3   OH226568   0.792   6.451   7.594 -0.4787  0.1076 -0.4079
 1670TIP3    H126569   0.727   6.383   7.614 -1.3573  0.7816 -0.8950
 1670TIP3    H226570   0.809   6.493   7.679  0.9551 -1.4307  0.1282
 1671TIP3   OH226571   1.924   6.855   0.733 -0.4852 -0.3251 -0.0460
 1671TIP3    H126572   1.921   6.762   0.756 -1.2415 -0.6659 -1.4190
 1671TIP3    H226573   1.854   6.866   0.669  0.8333  0.7796 -1.3693
 1672TIP3   OH226574   5.973   0.080   7.297  0.0705 -0.1308  0.1777
 1672TIP3    H126575   6.060   0.118   7.306  0.3650 -0.8854  0.5848
 1672TIP3    H226576   5.915   0.155   7.286  0.7153  0.3977  0.3311
 1673TIP3   OH226577   2.840   2.635   1.649 -0.2296  0.0983 -0.4937
 1673TIP3    H126578   2.870   2.544   1.651 -1.4118 -0.3788 -2.1681
 1673TIP3    H226579   2.807   2.651   1.737  1.5151 -0.5229  0.3214
 1674TIP3   OH226580   2.970   5.750   1.654 -0.2647  0.4174 -0.1761
 1674TIP3    H126581   3.013   5.683   1.707 -0.4421  0.6257  0.2342
 1674TIP3    H226582   2.925   5.701   1.585  2.0468  0.2782 -1.6830
 1675TIP3   OH226583   6.546   5.836   8.426 -0.7737 -0.1432 -0.4688
 1675TIP3    H126584   6.586   5.874   8.505 -0.1660 -1.6741  0.0023
 1675TIP3    H226585   6.588   5.883   8.353 -1.3035  1.2524  0.0877
 1676TIP3   OH226586   0.810   6.806   0.717  0.5218 -0.4334 -0.6765
 1676TIP3    H126587   0.825   6.722   0.760  3.4736 -1.4150 -3.2543
 1676TIP3    H226588   0.798   6.784   0.625 -4.1198  1.6755 -0.8779
 1677TIP3   OH226589   2.713   5.979   0.145  0.4075 -0.1308  0.3051
 1677TIP3    H126590   2.752   5.975   0.057  0.4559 -0.5140  0.3457
 1677TIP3    H226591   2.774   6.035   0.194  2.1391 -2.4687  0.9891
 1678TIP3   OH226592   4.712   5.959   0.852  0.2545 -0.1046 -0.7619
 1678TIP3    H126593   4.648   5.986   0.786  1.3577 -1.2990 -2.3920
 1678TIP3    H226594   4.784   5.920   0.802  1.5893 -0.1789  1.0975
 1679TIP3   OH226595   4.244   0.087   1.104 -0.3179 -0.0746 -0.4017
 1679TIP3    H126596   4.314   0.033   1.142  1.5444  1.5802 -1.2872
 1679TIP3    H226597   4.209   0.035   1.032 -0.2534 -1.0541  0.2510
 1680TIP3   OH226598   1.810   0.514   7.440 -0.7904  0.4660  0.1098
 1680TIP3    H126599   1.751   0.589   7.435 -2.0029 -0.4735 -0.1956
 1680TIP3    H226600   1.816   0.493   7.533 -1.1426  0.4116  0.1198
 1681TIP3   OH226601   1.449   1.136   1.471  0.1257  0.6511  0.0636
 1681TIP3    H126602   1.428   1.045   1.453 -1.6175  1.2095 -0.9530
 1681TIP3    H226603   1.534   1.133   1.515  0.0286 -1.4517  0.1866
 1682TIP3   OH226604   3.574   4.027   0.104  0.0013  0.0682 -0.2226
 1682TIP3    H126605   3.660   4.039   0.144  0.1853  1.6368 -1.0183
 1682TIP3    H226606   3.516   4.010   0.178  0.9025 -0.5003  0.3730
 1683TIP3   OH226607   2.688   6.709   2.187  0.1020  0.1189  0.0188
 1683TIP3    H126608   2.691   6.804   2.200  0.8812  0.0124  0.7441
 1683TIP3    H226609   2.764   6.676   2.236 -0.2623 -0.8964 -0.0786
 1684TIP3   OH226610   6.574   6.094   6.860  0.3498 -0.2083  0.3034
 1684TIP3    H126611   6.529   6.178   6.864 -0.4436 -0.2100 -3.7272
 1684TIP3    H226612   6.654   6.112   6.810 -0.3658 -1.9027 -1.6209
 1685TIP3   OH226613   6.188   1.220   0.544 -0.8066 -0.0090 -0.0809
 1685TIP3    H126614   6.260   1.166   0.576  0.4221  1.2868 -0.5383
 1685TIP3    H226615   6.110   1.168   0.559  0.1961 -1.3343  0.7226
 1686TIP3   OH226616   3.252   0.036   7.078 -0.2337 -0.7570 -0.1252
 1686TIP3    H126617   3.307   0.012   7.004 -0.5205 -1.2616 -0.1757
 1686TIP3    H226618   3.252  -0.041   7.135 -0.5732 -0.6234  0.0613
 1687TIP3   OH226619   6.684   4.074   6.423  0.3945 -0.4699 -0.1307
 1687TIP3    H126620   6.651   3.984   6.414  0.2625 -0.3675 -0.7052
 1687TIP3    H226621   6.613   4.129   6.388  1.1976 -0.2560 -1.4998
 1688TIP3   OH226622   0.737   4.032   0.963  0.6161  0.7388 -0.2435
 1688TIP3    H126623   0.678   4.100   0.994  0.9532  1.0645 -0.3126
 1688TIP3    H226624   0.715   3.955   1.015 -1.2559  0.2687 -1.6467
 1689TIP3   OH226625   6.250   5.904   1.653  0.1565  0.1542  0.0396
 1689TIP3    H126626   6.195   5.895   1.731  1.6328 -0.7812  1.0253
 1689TIP3    H226627   6.195   5.872   1.581 -0.6595 -0.5711  0.9598
 1690TIP3   OH226628   5.524   1.366   0.419  0.6477 -0.0402  0.1613
 1690TIP3    H126629   5.474   1.311   0.359  0.4000 -2.3523  2.3355
 1690TIP3    H226630   5.561   1.434   0.363 -1.4666 -0.6610 -2.2048
 1691TIP3   OH226631   6.566   5.182   1.276  0.1560  0.0853  0.0159
 1691TIP3    H126632   6.534   5.261   1.321  1.0548  0.9374 -0.7982
 1691TIP3    H226633   6.554   5.201   1.183  0.2290 -0.8156 -0.1834
 1692TIP3   OH226634   4.858   2.436   1.168  0.0648 -0.2557  0.3550
 1692TIP3    H126635   4.894   2.371   1.107 -3.0087 -2.2058  0.3906
 1692TIP3    H226636   4.816   2.501   1.112  2.0065  1.0788  0.3593
 1693TIP3   OH226637   3.181   6.171   6.882  0.0648  0.5263 -0.4442
 1693TIP3    H126638   3.167   6.194   6.790 -0.3877  2.0436 -0.0256
 1693TIP3    H226639   3.097   6.185   6.924  0.2101 -0.3723  0.1812
 1694TIP3   OH226640   4.554   2.401   6.021 -0.2006 -0.0744  0.2759
 1694TIP3    H126641   4.565   2.434   5.932  4.0384 -0.2386  0.5593
 1694TIP3    H226642   4.604   2.461   6.075 -0.5172 -1.4685  2.2107
 1695TIP3   OH226643   6.349   0.783   7.777  0.9239  0.0133 -0.4665
 1695TIP3    H126644   6.277   0.721   7.763  1.1096  0.2553 -2.9623
 1695TIP3    H226645   6.427   0.735   7.749  1.1613  1.0734 -1.7111
 1696TIP3   OH226646   4.961   3.737   8.502 -0.5119 -0.2479  0.4753
 1696TIP3    H126647   5.030   3.734   8.436  0.4827  3.3704  1.1169
 1696TIP3    H226648   5.006   3.723   8.585 -0.7380  0.7575  0.7847
 1697TIP3   OH226649   2.026   4.252   2.413 -0.0517  0.1091  0.2171
 1697TIP3    H126650   2.060   4.172   2.454  0.7878  0.2618 -0.1541
 1697TIP3    H226651   1.945   4.271   2.461 -0.2704 -0.9637  0.2996
 1698TIP3   OH226652   6.002   5.098   2.102 -0.1123  0.0164 -0.2905
 1698TIP3    H126653   6.017   5.164   2.170 -0.6661 -0.4804  0.3290
 1698TIP3    H226654   5.907   5.084   2.103  0.0174 -0.9043 -0.3007
 1699TIP3   OH226655   6.773   1.919   0.757 -0.3182 -0.1711  0.0911
 1699TIP3    H126656   6.815   1.872   0.685 -0.1986  0.6716 -0.4079
 1699TIP3    H226657   6.805   1.876   0.836  0.5704 -0.2869 -0.3247
 1700TIP3   OH226658   2.533   1.690   2.591 -0.2483 -0.0401 -0.1701
 1700TIP3    H126659   2.618   1.735   2.589  1.0411 -2.3616 -0.7507
 1700TIP3    H226660   2.500   1.698   2.501 -0.4379  0.4825 -0.0556
 1701TIP3   OH226661   6.443   2.373   6.410 -0.0753 -0.4633  0.4782
 1701TIP3    H126662   6.351   2.354   6.392 -0.1409  0.9785 -0.9757
 1701TIP3    H226663   6.442   2.462   6.447  0.7710 -0.1989 -0.1232
 1702TIP3   OH226664   2.603   0.248   7.420  0.4224  0.0282  0.1034
 1702TIP3    H126665   2.663   0.173   7.417 -1.1910 -1.4251  1.8546
 1702TIP3    H226666   2.589   0.264   7.513 -0.6287  1.4137 -0.2537
 1703TIP3   OH226667   6.524   6.151   1.718  0.9542  0.3900 -0.0124
 1703TIP3    H126668   6.609   6.182   1.749  0.8427  0.0828  0.6178
 1703TIP3    H226669   6.461   6.215   1.751  0.8136 -0.0440  0.5689
 1704TIP3   OH226670   3.033   1.200   7.450  0.1604  0.2706 -0.1885
 1704TIP3    H126671   3.127   1.196   7.469  0.1656  0.0656 -0.2462
 1704TIP3    H226672   2.994   1.140   7.514  0.1940 -0.5373 -0.9057
 1705TIP3   OH226673   1.879   6.214   1.113  0.1199  0.2978 -0.1402
 1705TIP3    H126674   1.825   6.262   1.050 -0.3849 -0.0739 -0.0048
 1705TIP3    H226675   1.866   6.122   1.090 -0.4206  0.1270  0.7563
 1706TIP3   OH226676   1.539   5.082   7.110  0.1518  0.0652  0.1868
 1706TIP3    H126677   1.502   5.088   7.022  2.1750 -1.4935 -0.8438
 1706TIP3    H226678   1.482   5.021   7.156 -0.0842 -0.2704 -0.5323
 1707TIP3   OH226679   1.527   2.082   1.314  0.2777 -0.0300 -0.3106
 1707TIP3    H126680   1.525   2.114   1.405  1.9509  0.7244 -0.4935
 1707TIP3    H226681   1.499   1.991   1.320 -0.6520  0.3012  0.8055
 1708TIP3   OH226682   3.713   2.428   7.024 -0.1601 -0.2688 -0.2632
 1708TIP3    H126683   3.754   2.500   7.071 -0.0941  0.3003 -1.1876
 1708TIP3    H226684   3.624   2.458   7.006 -0.3761 -0.7260  0.0156
 1709TIP3   OH226685   3.306   6.231   0.629 -0.2292 -0.3112 -0.4638
 1709TIP3    H126686   3.301   6.198   0.719 -0.4750  1.0138  0.0260
 1709TIP3    H226687   3.236   6.184   0.582 -0.1761 -0.9220  0.0572
 1710TIP3   OH226688   6.433   2.521   7.910 -0.4922  0.0581  0.1044
 1710TIP3    H126689   6.511   2.539   7.858 -0.4828 -0.0941  0.0668
 1710TIP3    H226690   6.415   2.428   7.896  0.0024 -0.1874  1.0334
 1711TIP3   OH226691   4.396   0.942   1.781 -0.6028  0.3679 -0.6862
 1711TIP3    H126692   4.331   0.971   1.846 -0.4640  1.3397 -0.9592
 1711TIP3    H226693   4.475   0.991   1.803  0.2808 -1.3073  0.0637
 1712TIP3   OH226694   1.286   2.879   7.671  0.0963 -0.4301 -0.0054
 1712TIP3    H126695   1.247   2.948   7.617  0.9735  0.7778  0.8517
 1712TIP3    H226696   1.215   2.849   7.727 -0.0894  0.4100  0.2205
 1713TIP3   OH226697   5.518   4.260   0.044  0.0302  0.4403  0.3019
 1713TIP3    H126698   5.516   4.233  -0.048 -0.5408 -0.1678  0.4868
 1713TIP3    H226699   5.609   4.246   0.072  0.0871  0.1438 -0.0293
 1714TIP3   OH226700   0.921   2.441   2.432  0.3212  0.3787  0.5125
 1714TIP3    H126701   0.902   2.348   2.424  2.3465 -0.0846  0.6440
 1714TIP3    H226702   0.953   2.466   2.345  0.9649  0.6477  0.8210
 1715TIP3   OH226703   0.158   6.356   8.536 -0.1999  0.6559  0.2227
 1715TIP3    H126704   0.167   6.363   8.441  0.6384 -1.0368  0.1445
 1715TIP3    H226705   0.186   6.441   8.569  2.5325  0.2911 -0.9012
 1716TIP3   OH226706   4.924   6.238   1.192  0.2440 -0.0633  0.0093
 1716TIP3    H126707   4.850   6.298   1.190 -0.5682 -1.0286  0.0666
 1716TIP3    H226708   4.914   6.184   1.114  0.6082 -0.5183  0.2665
 1717TIP3   OH226709   0.767   0.130   7.727 -0.2634 -0.6368 -0.8494
 1717TIP3    H126710   0.748   0.040   7.753 -1.5532 -0.1959 -0.1793
 1717TIP3    H226711   0.708   0.183   7.779  1.5511  0.7362 -0.0887
 1718TIP3   OH226712   6.168   4.893   7.743 -0.5426 -0.3807 -0.5860
 1718TIP3    H126713   6.110   4.818   7.752 -0.3132 -0.3611  1.4537
 1718TIP3    H226714   6.110   4.966   7.721 -1.1407 -0.5921  0.2808
 1719TIP3   OH226715   0.633   4.096   0.719 -0.2770  0.3377 -0.6737
 1719TIP3    H126716   0.661   4.077   0.809  0.6033  0.5771 -0.8865
 1719TIP3    H226717   0.688   4.170   0.692  0.6223 -0.7561 -1.9614
 1720TIP3   OH226718   1.091   5.867   8.503 -0.1140 -0.2804  0.8995
 1720TIP3    H126719   1.092   5.823   8.588  2.0277 -0.1367  1.0064
 1720TIP3    H226720   1.151   5.940   8.513 -1.0160  0.6760 -0.3022
 1721TIP3   OH226721   1.376   6.602   7.273 -0.2979 -0.3442 -0.2513
 1721TIP3    H126722   1.366   6.514   7.307 -3.0137 -0.2940 -0.6684
 1721TIP3    H226723   1.351   6.595   7.180 -1.1665  0.9256 -0.1406
 1722TIP3   OH226724   3.462   6.134   6.628  0.4016  0.1875 -0.3447
 1722TIP3    H126725   3.459   6.090   6.543  0.1252 -1.2900  0.3948
 1722TIP3    H226726   3.452   6.227   6.607  0.1872 -0.1553 -1.9116
 1723TIP3   OH226727   1.834   4.370   0.976 -0.0975 -0.7269  0.5469
 1723TIP3    H126728   1.803   4.459   0.965 -3.1409 -1.8901 -1.6775
 1723TIP3    H226729   1.823   4.352   1.069 -0.6133  0.8115  0.8111
 1724TIP3   OH226730   5.567   3.800   8.355  0.3276  0.0674 -0.0663
 1724TIP3    H126731   5.544   3.835   8.269  0.3164  1.4059  0.4620
 1724TIP3    H226732   5.549   3.706   8.348  0.8457  0.0557 -1.6911
 1725TIP3   OH226733   1.846   3.321   7.448 -0.3729  0.4752 -0.3996
 1725TIP3    H126734   1.848   3.414   7.425  1.4056  0.7346  0.6491
 1725TIP3    H226735   1.933   3.288   7.425 -1.1676 -1.0934 -1.3104
 1726TIP3   OH226736   6.379   6.392   7.226  0.4115  0.5373 -0.0178
 1726TIP3    H126737   6.296   6.418   7.268  1.3351  0.9076  1.6590
 1726TIP3    H226738   6.425   6.475   7.211  2.0533  0.2358  2.5633
 1727TIP3   OH226739   0.007   5.736   6.183 -0.1760  0.2549  0.2086
 1727TIP3    H126740   0.076   5.802   6.188  0.3758 -0.1087 -1.8211
 1727TIP3    H226741  -0.072   5.786   6.161 -0.3266  0.5247  1.3092
 1728TIP3   OH226742   0.597   1.654   8.662 -0.0667 -0.6241  0.2107
 1728TIP3    H126743   0.559   1.740   8.680 -1.0032 -1.0872  0.5219
 1728TIP3    H226744   0.691   1.670   8.656 -0.3098  0.5959 -0.7953
 1729TIP3   OH226745   2.374   6.800   6.722 -0.0137  0.3795  0.1727
 1729TIP3    H126746   2.442   6.761   6.668 -0.0017  1.3751 -0.5605
 1729TIP3    H226747   2.406   6.888   6.742  0.0216  0.0045  1.8857
 1730TIP3   OH226748   2.962   3.286   1.380 -0.4131  0.2106 -0.5034
 1730TIP3    H126749   2.887   3.316   1.431 -0.2997 -0.6991  0.2231
 1730TIP3    H226750   3.032   3.346   1.402  0.3899 -1.6546  2.5011
 1731TIP3   OH226751   5.138   0.091   2.195 -0.0334 -0.5866  0.2109
 1731TIP3    H126752   5.086   0.043   2.260 -0.1661 -0.7686 -0.0272
 1731TIP3    H226753   5.213   0.125   2.244 -0.8489  0.4754  0.7624
 1732TIP3   OH226754   3.697   0.830   1.648 -0.7674  0.4144 -0.5412
 1732TIP3    H126755   3.697   0.915   1.603 -0.0872 -0.3794 -2.1114
 1732TIP3    H226756   3.773   0.833   1.706 -0.7002  0.8476 -0.6517
 1733TIP3   OH226757   6.678   0.542   1.018  0.2525  0.3332 -0.4925
 1733TIP3    H126758   6.590   0.571   0.994 -0.1084 -0.3527 -0.0301
 1733TIP3    H226759   6.724   0.535   0.935 -0.3764 -0.0911 -0.8151
 1734TIP3   OH226760   5.817   1.225   1.480 -0.3761  0.5585  0.4287
 1734TIP3    H126761   5.841   1.314   1.454  1.2465 -0.1845 -0.8355
 1734TIP3    H226762   5.879   1.204   1.551  1.9210 -0.8203 -1.8065
 1735TIP3   OH226763   0.250   3.071   7.595 -0.2875  0.4845  0.2496
 1735TIP3    H126764   0.342   3.058   7.571 -0.1777  1.6216 -0.0002
 1735TIP3    H226765   0.211   3.110   7.517 -1.1349 -0.5631  0.1338
 1736TIP3   OH226766   0.760   4.476   1.788 -0.1087 -0.1425  0.2468
 1736TIP3    H126767   0.842   4.450   1.830 -0.7241  0.0644  1.6590
 1736TIP3    H226768   0.740   4.404   1.728  1.3803  0.0845 -0.5766
 1737TIP3   OH226769   0.520   0.855   7.111 -0.3259 -0.6317  0.0310
 1737TIP3    H126770   0.448   0.849   7.174 -1.3073  0.1877 -0.9802
 1737TIP3    H226771   0.503   0.936   7.063  1.0273 -0.6673 -0.5403
 1738TIP3   OH226772   1.140   1.897   0.796  0.0607 -0.0804 -0.3020
 1738TIP3    H126773   1.176   1.810   0.811  0.3309 -0.3851 -2.4092
 1738TIP3    H226774   1.051   1.882   0.765 -0.1580  0.4310  0.0559
 1739TIP3   OH226775   6.389   4.976   1.363 -0.2362 -0.3807  0.0380
 1739TIP3    H126776   6.457   5.043   1.365  0.5641 -1.1774  1.7393
 1739TIP3    H226777   6.404   4.929   1.281 -1.8127  2.4209 -1.9898
 1740TIP3   OH226778   5.054   3.978   0.434  0.5672  0.2441 -0.6379
 1740TIP3    H126779   5.061   3.954   0.341 -1.4257 -1.5189 -0.4252
 1740TIP3    H226780   4.984   3.922   0.467  2.5284 -0.6664  2.4229
 1741TIP3   OH226781   3.975   6.603   1.542  0.0926 -0.4226 -0.3791
 1741TIP3    H126782   3.903   6.633   1.598 -0.8568  1.0228 -2.2729
 1741TIP3    H226783   3.961   6.509   1.533  0.5395 -0.7917  2.1065
 1742TIP3   OH226784   3.528   3.823   7.094 -0.6959  0.2250  0.4687
 1742TIP3    H126785   3.480   3.905   7.083 -0.5623  0.1435 -0.8661
 1742TIP3    H226786   3.528   3.807   7.189  0.1439  2.2912  0.8664
 1743TIP3   OH226787   2.932   4.576   0.401  0.3842  0.6653  0.0256
 1743TIP3    H126788   2.965   4.561   0.490  2.3901 -0.4018 -0.8416
 1743TIP3    H226789   2.901   4.667   0.403 -0.7545  0.3069  2.1077
 1744TIP3   OH226790   4.348   4.487   1.866  0.4192  0.6155 -0.2623
 1744TIP3    H126791   4.383   4.490   1.955 -0.7764  0.9377  0.2142
 1744TIP3    H226792   4.388   4.409   1.828 -0.5513 -0.6742  1.2171
 1745TIP3   OH226793   4.325   0.349   1.111  0.2624  0.8829 -0.0947
 1745TIP3    H126794   4.275   0.372   1.033  1.4237  1.1461 -0.7980
 1745TIP3    H226795   4.303   0.258   1.129 -1.0214  1.2115  0.0734
 1746TIP3   OH226796   3.309   2.264   0.316  0.1510 -0.4315  0.6592
 1746TIP3    H126797   3.305   2.178   0.274  2.2516  0.6102 -1.9934
 1746TIP3    H226798   3.374   2.254   0.385  1.2633 -0.7389 -0.3980
 1747TIP3   OH226799   3.283   5.710   8.531 -0.0307  0.5546  0.1828
 1747TIP3    H126800   3.220   5.740   8.465 -0.0408 -0.5637 -0.3300
 1747TIP3    H226801   3.241   5.728   8.615 -0.3377  1.2982 -0.1245
 1748TIP3   OH226802   0.821   1.729   1.392 -0.3243 -0.2538 -0.2252
 1748TIP3    H126803   0.843   1.777   1.472 -0.9478 -0.4933  0.0955
 1748TIP3    H226804   0.735   1.763   1.366 -0.7640 -1.1519 -0.0107
 1749TIP3   OH226805   4.667   3.575   1.640  0.1003  0.4448 -0.0767
 1749TIP3    H126806   4.715   3.563   1.558 -1.2440 -2.1388 -0.5872
 1749TIP3    H226807   4.578   3.546   1.620 -0.7795  1.7315  1.7761
 1750TIP3   OH226808   1.212   0.267   1.194  0.3175  0.0236  0.3129
 1750TIP3    H126809   1.206   0.301   1.104  0.6607 -1.0533 -0.1339
 1750TIP3    H226810   1.283   0.203   1.190 -2.3421 -3.1672  0.2862
 1751TIP3   OH226811   1.368   0.596   1.624  0.0936 -0.3822 -0.2178
 1751TIP3    H126812   1.294   0.645   1.660 -0.0508 -1.1785  0.6266
 1751TIP3    H226813   1.328   0.526   1.572  0.2937  0.2844 -1.2971
 1752TIP3   OH226814   2.311   4.238   7.212 -0.2771  0.2720 -0.0789
 1752TIP3    H126815   2.276   4.279   7.291  0.3059 -0.1834  0.4313
 1752TIP3    H226816   2.395   4.200   7.240 -0.0679  0.0981 -0.9160
 1753TIP3   OH226817   3.485   2.362   7.636 -0.6170  0.1568 -0.6051
 1753TIP3    H126818   3.546   2.432   7.659  2.1092 -1.7963 -1.3300
 1753TIP3    H226819   3.486   2.304   7.713 -3.4350  1.1882  0.3043
 1754TIP3   OH226820   0.260   2.657   1.218  0.0447 -0.1318  0.2861
 1754TIP3    H126821   0.353   2.650   1.196  0.0989  2.1903 -0.5465
 1754TIP3    H226822   0.258   2.654   1.314  1.1436  0.9646  0.3692
 1755TIP3   OH226823   6.116   2.960   8.097  0.4068 -0.3738 -0.3625
 1755TIP3    H126824   6.162   2.913   8.167  1.5850  0.1088 -0.8046
 1755TIP3    H226825   6.024   2.934   8.108  0.8668 -1.8906  0.1013
 1756TIP3   OH226826   5.866   6.315   1.765  0.1744  1.0111 -0.0203
 1756TIP3    H126827   5.849   6.371   1.841  0.3141  0.6970  0.2480
 1756TIP3    H226828   5.819   6.356   1.693 -0.4658  0.9799  0.3745
 1757TIP3   OH226829   2.538   4.458   0.486 -0.0195 -0.0656 -0.1866
 1757TIP3    H126830   2.578   4.525   0.430  1.0620  0.2884  0.9564
 1757TIP3    H226831   2.463   4.501   0.526  0.3778  0.3286  0.1540
 1758TIP3   OH226832   2.329   2.191   7.569 -0.0831 -0.2260 -0.2233
 1758TIP3    H126833   2.312   2.151   7.655  0.1215  0.6295  0.2271
 1758TIP3    H226834   2.242   2.205   7.532 -0.2275  0.5088  0.3722
 1759TIP3   OH226835   1.475   4.669   1.169  0.6027  0.0143  0.1227
 1759TIP3    H126836   1.518   4.609   1.230  1.3288 -0.1333 -0.5051
 1759TIP3    H226837   1.398   4.621   1.138  0.5069 -0.1047  0.5404
 1760TIP3   OH226838   6.119   4.175   2.456 -0.7228  0.5843 -0.2145
 1760TIP3    H126839   6.036   4.129   2.463  0.3218 -1.5739 -0.8977
 1760TIP3    H226840   6.137   4.177   2.362  0.1311  0.7010 -0.0586
 1761TIP3   OH226841   5.473   2.623   2.023  0.5798 -0.5819 -0.0668
 1761TIP3    H126842   5.545   2.560   2.015  0.2727 -0.8642 -0.6364
 1761TIP3    H226843   5.514   2.703   2.055  0.8582 -1.3094  1.4889
 1762TIP3   OH226844   2.725   1.784   8.352  0.5178  0.0759 -0.6220
 1762TIP3    H126845   2.648   1.818   8.397  1.1810  2.6047 -1.2213
 1762TIP3    H226846   2.725   1.691   8.372 -0.4769  0.6413  2.7011
 1763TIP3   OH226847   5.213   1.103   1.636  0.1655 -0.0226  0.3759
 1763TIP3    H126848   5.135   1.100   1.580 -0.1893  0.6969  0.8297
 1763TIP3    H226849   5.261   1.181   1.607 -0.3984  0.7828  1.5676
 1764TIP3   OH226850   0.504   5.821   1.177 -0.0772 -0.1985  0.2888
 1764TIP3    H126851   0.449   5.765   1.121  0.9012 -0.3705 -0.5387
 1764TIP3    H226852   0.493   5.785   1.265 -1.6551  0.0723  0.2328
 1765TIP3   OH226853   1.798   2.549   7.905  0.1376 -0.4637  0.1605
 1765TIP3    H126854   1.769   2.522   7.818  0.7218 -0.1738 -0.1375
 1765TIP3    H226855   1.875   2.604   7.888  0.3402 -0.5173  0.8686
 1766TIP3   OH226856   3.448   2.988   1.516 -0.5241 -0.0457  0.6421
 1766TIP3    H126857   3.495   2.967   1.435  0.2701 -0.0718  1.1020
 1766TIP3    H226858   3.517   3.003   1.580 -0.9283  3.8075  0.4330
 1767TIP3   OH226859   1.250   3.603   8.145  0.1232 -0.5606 -0.2102
 1767TIP3    H126860   1.311   3.582   8.216 -1.1916 -0.8566  0.8988
 1767TIP3    H226861   1.164   3.581   8.182 -0.6688  0.0788 -1.6213
 1768TIP3   OH226862   1.216   6.546   7.046  0.3033  0.4824 -0.0784
 1768TIP3    H126863   1.233   6.562   6.953  0.1116 -1.5799 -0.5096
 1768TIP3    H226864   1.124   6.570   7.058  0.2700  0.5570 -0.4739
 1769TIP3   OH226865   3.061   0.946   1.090  0.4219 -0.2605  0.4958
 1769TIP3    H126866   2.976   0.902   1.091 -0.7826  1.9640  0.8858
 1769TIP3    H226867   3.085   0.955   1.182  0.5881  0.0421  0.4235
 1770TIP3   OH226868   3.935   0.381   8.467  0.0706  0.3716 -0.5601
 1770TIP3    H126869   3.880   0.401   8.391 -0.3426 -0.6628 -0.5423
 1770TIP3    H226870   3.876   0.386   8.542  0.1752  0.0620 -0.4539
 1771TIP3   OH226871   5.502   2.780   0.124 -0.1415 -0.1570  0.0974
 1771TIP3    H126872   5.458   2.846   0.072  0.0790  0.3017  0.4817
 1771TIP3    H226873   5.556   2.731   0.061 -1.7958 -1.2738 -0.5199
 1772TIP3   OH226874   0.376   6.574   1.364  0.1081 -0.3490 -0.1184
 1772TIP3    H126875   0.295   6.596   1.410  0.7776  0.0764  0.8777
 1772TIP3    H226876   0.445   6.613   1.417  0.9720 -0.7255 -0.9481
 1773TIP3   OH226877   3.735   2.330   0.011  0.2030  0.1732 -0.3987
 1773TIP3    H126878   3.782   2.364   0.087 -0.3251  0.4629 -0.1971
 1773TIP3    H226879   3.786   2.254  -0.016  0.9393  0.6298 -0.3510
 1774TIP3   OH226880   1.569   1.514   0.065 -0.0655 -0.2176  0.1362
 1774TIP3    H126881   1.539   1.475  -0.017 -0.9755  2.1090 -0.7310
 1774TIP3    H226882   1.523   1.465   0.133 -0.2069 -1.4273 -0.7845
 1775TIP3   OH226883   6.087   6.399   8.315  0.0174  0.0256 -0.0249
 1775TIP3    H126884   6.166   6.443   8.345 -0.6570  0.0362  1.8908
 1775TIP3    H226885   6.015   6.448   8.355 -0.8393 -1.3422  0.2061
 1776TIP3   OH226886   0.761   0.632   1.307 -0.3115 -0.4698  0.4217
 1776TIP3    H126887   0.847   0.634   1.266  0.0733  0.5403  1.2360
 1776TIP3    H226888   0.707   0.580   1.248  0.6669 -0.4963 -0.4674
 1777TIP3   OH226889   2.196   3.384   0.743  0.4620 -0.9170 -0.6064
 1777TIP3    H126890   2.100   3.386   0.749  0.4127 -2.2909 -0.6769
 1777TIP3    H226891   2.214   3.340   0.660  1.1726  0.6080 -1.2980
 1778TIP3   OH226892   5.776   4.655   8.089  0.1464 -0.5388  0.0726
 1778TIP3    H126893   5.841   4.722   8.069  1.1558 -0.9885  1.6334
 1778TIP3    H226894   5.695   4.687   8.049  0.8940  0.9743 -0.2988
 1779TIP3   OH226895   2.238   2.439   7.079  0.0577 -0.4182  0.1148
 1779TIP3    H126896   2.297   2.371   7.111  0.0231 -2.2562 -3.2613
 1779TIP3    H226897   2.295   2.515   7.065  1.7068 -1.9555 -2.4603
 1780TIP3   OH226898   2.977   6.457   7.694 -0.1163 -0.0396 -0.3912
 1780TIP3    H126899   3.032   6.380   7.711 -1.2066 -0.5252  1.2546
 1780TIP3    H226900   2.993   6.479   7.603  2.6638 -0.2484 -0.0279
 1781TIP3   OH226901   5.837   6.197   0.953  0.6705 -0.3910  0.1222
 1781TIP3    H126902   5.757   6.178   0.903  1.1140 -0.0688 -0.7371
 1781TIP3    H226903   5.891   6.119   0.940  2.0913  0.9092 -2.5965
 1782TIP3   OH226904   4.235   0.005   2.313 -0.2277  0.0806 -0.5083
 1782TIP3    H126905   4.278   0.011   2.397 -0.9674  0.7842 -0.1638
 1782TIP3    H226906   4.141   0.009   2.333 -0.4007  1.3977 -1.4297
 1783TIP3   OH226907   6.675   3.663   0.642  0.1958 -0.2385  0.1074
 1783TIP3    H126908   6.723   3.601   0.588 -0.4039 -1.0182  0.4528
 1783TIP3    H226909   6.743   3.710   0.691  0.6418 -0.8759  0.1096
 1784TIP3   OH226910   1.724   5.956   1.551 -0.2429 -0.1696  0.3018
 1784TIP3    H126911   1.731   6.002   1.467  0.8466 -0.0734  0.4302
 1784TIP3    H226912   1.799   5.987   1.602 -0.8462 -0.2964  1.2797
 1785TIP3   OH226913   2.021   6.654   8.561  0.0379 -0.0348 -0.4949
 1785TIP3    H126914   1.937   6.682   8.599 -0.8740 -3.0926 -0.0078
 1785TIP3    H226915   1.998   6.616   8.477  1.3514  1.4188 -1.5846
 1786TIP3   OH226916   5.346   2.053   0.254 -0.3106  0.1940  0.3400
 1786TIP3    H126917   5.423   2.002   0.279 -0.3744 -0.4968 -0.7796
 1786TIP3    H226918   5.349   2.130   0.310  0.0773 -0.7881  1.7150
 1787TIP3   OH226919   2.040   3.276   0.445 -0.1672  0.3247  0.0641
 1787TIP3    H126920   2.079   3.362   0.428 -0.0356  0.5013  1.1928
 1787TIP3    H226921   1.975   3.266   0.375 -0.2902  1.4067 -0.0072
 1788TIP3   OH226922   3.886   4.163   7.639 -0.0552 -0.8509  0.7066
 1788TIP3    H126923   3.903   4.098   7.571  1.2776 -0.0829  0.2683
 1788TIP3    H226924   3.792   4.178   7.635 -0.0318 -0.9707 -0.8351
 1789TIP3   OH226925   6.168   5.575   0.397  0.4718 -0.2229 -0.2341
 1789TIP3    H126926   6.174   5.491   0.351 -0.8619 -1.5490  1.8369
 1789TIP3    H226927   6.098   5.622   0.351 -0.6719 -1.4129  0.2226
 1790TIP3   OH226928   1.745   2.007   8.147  0.0421 -0.4328  0.2801
 1790TIP3    H126929   1.780   2.006   8.236  1.8850 -0.5679 -0.3924
 1790TIP3    H226930   1.652   1.988   8.157  0.1629 -0.2147  2.1804
 1791TIP3   OH226931   0.017   3.948   7.654  0.2769  0.0437  0.2930
 1791TIP3    H126932   0.066   4.030   7.649 -0.9862  0.7535 -1.1469
 1791TIP3    H226933   0.033   3.905   7.570 -1.8124  0.4748 -0.3729
 1792TIP3   OH226934   4.762   3.574   8.062 -0.6098 -0.0827 -0.2684
 1792TIP3    H126935   4.797   3.507   8.121 -1.0688  0.0197  0.1149
 1792TIP3    H226936   4.760   3.654   8.114  0.6070  0.4138 -0.9315
 1793TIP3   OH226937   2.132   6.147   0.160  0.0102  0.0835  0.5977
 1793TIP3    H126938   2.219   6.186   0.157  0.8482 -1.2093  3.5747
 1793TIP3    H226939   2.104   6.158   0.251 -0.8290 -3.6737  0.9836
 1794TIP3   OH226940   6.834   5.731   8.641 -0.8801 -0.3479 -0.7677
 1794TIP3    H126941   6.856   5.714   8.733 -1.2851 -2.0238 -0.9405
 1794TIP3    H226942   6.765   5.797   8.645  0.4539  1.0598  0.0165
 1795TIP3   OH226943   1.511   4.946   1.362  0.5058 -0.6011  0.2956
 1795TIP3    H126944   1.423   4.948   1.400  0.3969 -1.1630  0.0741
 1795TIP3    H226945   1.557   4.878   1.411  0.3848 -1.2823 -0.5133
 1796TIP3   OH226946   3.271   1.541   6.807  0.2033 -0.2166  0.0454
 1796TIP3    H126947   3.272   1.490   6.888 -0.9972  2.2149  1.7244
 1796TIP3    H226948   3.331   1.613   6.823 -1.5248  1.4023 -0.3621
 1797TIP3   OH226949   0.111   2.851   0.302 -0.3539 -0.0744 -0.2224
 1797TIP3    H126950   0.018   2.852   0.279 -0.2616  1.0875 -0.5599
 1797TIP3    H226951   0.124   2.766   0.345 -1.4791 -0.4100 -0.5278
 1798TIP3   OH226952   6.076   6.649   0.167  0.1576 -0.6478  0.3670
 1798TIP3    H126953   6.155   6.655   0.113  0.9989  1.5518  1.6726
 1798TIP3    H226954   6.099   6.588   0.237 -0.0045 -1.4816 -0.2937
 1799TIP3   OH226955   6.618   6.618   0.342 -1.0817 -0.7136 -0.3939
 1799TIP3    H126956   6.665   6.675   0.281 -1.5855 -1.5792 -1.6440
 1799TIP3    H226957   6.570   6.677   0.399 -0.1023  0.1379 -0.4159
 1800TIP3   OH226958   6.645   1.965   0.341  0.3137 -0.0526  0.3286
 1800TIP3    H126959   6.573   1.901   0.335 -0.3896  0.5467  1.7936
 1800TIP3    H226960   6.603   2.050   0.328  0.8647  0.2638  0.5770
 1801TIP3   OH226961   0.762   6.360   2.383 -0.7712 -0.0920 -0.0414
 1801TIP3    H126962   0.682   6.322   2.421 -0.2698 -0.2400  0.9053
 1801TIP3    H226963   0.825   6.288   2.382  0.1330  0.6076  1.5991
 1802TIP3   OH226964   2.974   5.173   0.074  0.5985  0.1270  0.3008
 1802TIP3    H126965   2.939   5.260   0.094  2.0636  0.6614  0.7206
 1802TIP3    H226966   3.039   5.158   0.143  0.6274 -1.1448  0.0137
 1803TIP3   OH226967   5.478   0.447   7.406  0.2441 -0.0699  0.3795
 1803TIP3    H126968   5.433   0.506   7.345  0.8350 -1.4454 -1.4704
 1803TIP3    H226969   5.528   0.506   7.464  0.4676  1.2704 -1.1010
 1804TIP3   OH226970   0.698   6.365   6.725 -0.4860  0.1141  0.4580
 1804TIP3    H126971   0.719   6.271   6.728 -2.0078 -0.2237  1.7148
 1804TIP3    H226972   0.658   6.378   6.639  2.7288  0.3708 -1.1551
 1805TIP3   OH226973   3.249   1.330   6.984 -0.2298  0.1153  0.1749
 1805TIP3    H126974   3.226   1.388   7.057 -0.5089  0.6409 -0.3137
 1805TIP3    H226975   3.333   1.291   7.009  0.1536  1.0262  0.3576
 1806TIP3   OH226976   1.943   0.650   0.980 -0.3819 -0.5293  0.3094
 1806TIP3    H126977   1.991   0.580   1.024 -0.4962 -0.5851  0.3458
 1806TIP3    H226978   1.915   0.611   0.897 -2.8383 -1.4437  1.4935
 1807TIP3   OH226979   3.089   6.152   6.300  0.3695  0.1784  0.1764
 1807TIP3    H126980   3.103   6.247   6.306  0.3949  0.1070  1.5813
 1807TIP3    H226981   3.020   6.134   6.364  0.1762 -0.7227 -0.2708
 1808TIP3   OH226982   0.157   1.795   0.971  0.0895  0.6389 -0.3545
 1808TIP3    H126983   0.062   1.782   0.974  0.0134  1.1728 -0.2729
 1808TIP3    H226984   0.190   1.745   1.046 -0.0659 -0.0182 -0.7193
 1809TIP3   OH226985   3.971   0.143   0.914  0.1325 -0.3409  0.4691
 1809TIP3    H126986   3.990   0.236   0.926  1.2292 -0.3654 -0.7790
 1809TIP3    H226987   3.890   0.141   0.863  0.3742 -0.0365  0.0646
 1810TIP3   OH226988   2.341   3.786   7.743 -0.2630 -0.0683  0.0232
 1810TIP3    H126989   2.353   3.823   7.831 -1.2093 -1.4281  0.7701
 1810TIP3    H226990   2.285   3.850   7.698 -0.6424  0.1423  0.7766
 1811TIP3   OH226991   3.696   4.238   1.439 -0.0387  0.8566 -0.2704
 1811TIP3    H126992   3.605   4.250   1.411  0.2171  0.4565 -1.3527
 1811TIP3    H226993   3.742   4.211   1.359  0.9458  0.6199  0.3531
 1812TIP3   OH226994   0.817   6.688   0.076 -0.1809  0.4409  0.0132
 1812TIP3    H126995   0.796   6.607   0.124  2.4527 -0.3590 -0.0105
 1812TIP3    H226996   0.737   6.709   0.028 -1.4666 -1.2284  1.3076
 1813TIP3   OH226997   0.338   4.177   6.919  0.2012  0.0829  0.3862
 1813TIP3    H126998   0.270   4.222   6.869 -0.0192  0.5794  1.1010
 1813TIP3    H226999   0.412   4.237   6.920 -0.5212  1.0402  2.3846
 1814TIP3   OH227000   4.950   2.385   1.427 -0.4006 -0.3569 -0.5540
 1814TIP3    H127001   4.975   2.294   1.413  0.3143 -0.2109 -0.2398
 1814TIP3    H227002   4.929   2.419   1.339  1.6381 -0.1487 -0.9985
 1815TIP3   OH227003   6.426   3.569   0.520 -0.0958  0.4178 -0.0180
 1815TIP3    H127004   6.359   3.604   0.578 -0.2258  1.1642 -0.6160
 1815TIP3    H227005   6.509   3.594   0.562 -0.1879  0.8262 -0.0816
 1816TIP3   OH227006   6.474   2.683   8.253  0.1794 -0.5454 -0.5873
 1816TIP3    H127007   6.484   2.715   8.163 -0.7524 -2.0160 -1.2568
 1816TIP3    H227008   6.530   2.741   8.305  0.3215  0.6868 -2.0222
 1817TIP3   OH227009   1.608   4.319   1.814 -0.1816  0.4677  0.1406
 1817TIP3    H127010   1.681   4.364   1.773 -0.9817 -0.0426 -1.9435
 1817TIP3    H227011   1.602   4.358   1.902  0.9880  2.2773 -0.5335
 1818TIP3   OH227012   1.962   0.572   0.160 -0.3448  0.4075 -0.6264
 1818TIP3    H127013   1.972   0.624   0.080  0.4343 -1.1954 -1.6260
 1818TIP3    H227014   1.982   0.483   0.133 -2.6321 -0.6284  0.7819
 1819TIP3   OH227015   1.517   1.416   7.196 -0.5348 -0.2199 -0.1309
 1819TIP3    H127016   1.509   1.325   7.166  1.1498 -0.3616 -0.2481
 1819TIP3    H227017   1.572   1.458   7.130  0.5178  0.3122  1.0498
 1820TIP3   OH227018   4.932   6.129   2.504  0.4118  0.6792 -0.0624
 1820TIP3    H127019   4.968   6.195   2.563  0.7678 -0.3602  0.9100
 1820TIP3    H227020   4.840   6.154   2.493  0.5137  1.2596  0.4003
 1821TIP3   OH227021   4.032   2.708   1.645  0.2706 -0.5975  0.5477
 1821TIP3    H127022   4.057   2.736   1.733 -0.1511 -0.6915  0.6999
 1821TIP3    H227023   4.112   2.716   1.594  0.4455 -0.2526  0.8696
 1822TIP3   OH227024   1.318   3.254   1.420  0.0502 -0.1057  0.5443
 1822TIP3    H127025   1.402   3.207   1.424 -0.5784 -1.1915  1.7620
 1822TIP3    H227026   1.339   3.337   1.377  1.3574 -1.1577 -0.9379
 1823TIP3   OH227027   6.844   4.605   0.121  0.0056  0.6775 -0.2519
 1823TIP3    H127028   6.792   4.667   0.070 -0.3151  1.0382  0.5053
 1823TIP3    H227029   6.780   4.558   0.174  0.3934  0.7899  0.3245
 1824TIP3   OH227030   3.056   0.459   7.020  0.0923  0.3442  0.3132
 1824TIP3    H127031   3.074   0.474   6.928 -2.5026 -1.5527 -0.6502
 1824TIP3    H227032   3.047   0.546   7.058  4.9536  1.3279 -0.1831
 1825TIP3   OH227033   6.113   5.772   7.414  0.7954  0.1890  0.0302
 1825TIP3    H127034   6.142   5.850   7.460 -1.9214  0.6482  1.1462
 1825TIP3    H227035   6.059   5.805   7.342 -1.4255 -0.5821  1.2583
 1826TIP3   OH227036   2.651   2.103   7.926  0.1781 -0.6263 -0.2121
 1826TIP3    H127037   2.681   2.048   7.854  0.4863  0.0955 -0.6479
 1826TIP3    H227038   2.728   2.153   7.953 -0.3670  0.5089 -0.6670
 1827TIP3   OH227039   4.315   2.178   7.224  0.7250  0.2003 -0.1983
 1827TIP3    H127040   4.323   2.154   7.132 -0.7551 -0.5310 -0.1550
 1827TIP3    H227041   4.401   2.157   7.262  0.6796 -1.5110 -0.9655
 1828TIP3   OH227042   4.968   4.332   7.062  0.0255 -0.3634 -0.0543
 1828TIP3    H127043   5.017   4.392   7.119 -1.5672 -1.0861  2.2302
 1828TIP3    H227044   5.015   4.249   7.071 -1.2712 -0.9675  1.8603
 1829TIP3   OH227045   5.748   4.720   6.698  0.4862  0.5360  0.6910
 1829TIP3    H127046   5.826   4.672   6.671 -0.3615 -0.1703 -0.6179
 1829TIP3    H227047   5.697   4.656   6.748 -0.5580  0.0630 -0.8988
 1830TIP3   OH227048   1.645   6.150   8.261  0.1940 -0.2835  0.4206
 1830TIP3    H127049   1.587   6.223   8.280 -0.4944 -0.4999 -0.7652
 1830TIP3    H227050   1.731   6.190   8.248 -0.4309  0.5165 -1.5772
 1831TIP3   OH227051   3.024   6.321   0.381  0.3354 -0.6788 -0.2303
 1831TIP3    H127052   3.057   6.317   0.291 -1.0921  2.1069 -1.0037
 1831TIP3    H227053   3.065   6.399   0.418  0.2837 -1.3441  1.2853
 1832TIP3   OH227054   2.181   4.288   0.159  0.6226  0.0274  0.2670
 1832TIP3    H127055   2.119   4.360   0.150 -0.3927 -0.7989  0.4605
 1832TIP3    H227056   2.267   4.330   0.157  0.1765  1.0115 -2.2203
 1833TIP3   OH227057   5.124   4.438   0.013 -0.1202 -0.0351 -0.0760
 1833TIP3    H127058   5.134   4.420  -0.081 -0.4548  1.0476 -0.3325
 1833TIP3    H227059   5.148   4.530   0.022  1.4056 -0.4980  1.1550
 1834TIP3   OH227060   6.450   5.579   0.499 -0.2811  0.0909  0.1822
 1834TIP3    H127061   6.378   5.590   0.437 -0.3944  3.0597  0.7266
 1834TIP3    H227062   6.493   5.664   0.502  3.4069 -1.5441 -0.1701
 1835TIP3   OH227063   2.660   4.627   0.761  0.3925 -0.7774 -0.1853
 1835TIP3    H127064   2.614   4.546   0.785  0.0422 -0.2421  1.0516
 1835TIP3    H227065   2.624   4.650   0.675 -3.5164  0.8430  1.6548
 1836TIP3   OH227066   3.699   6.441   8.089 -0.5851  0.2083  0.4267
 1836TIP3    H127067   3.781   6.490   8.091 -0.1048 -0.5918  1.1053
 1836TIP3    H227068   3.685   6.416   8.181 -2.0114  1.0173  0.4585
 1837TIP3   OH227069   4.572   1.739   6.711 -0.3299  0.1920 -0.2004
 1837TIP3    H127070   4.652   1.749   6.660 -0.1925 -2.9292 -0.8078
 1837TIP3    H227071   4.505   1.784   6.660  0.2290 -0.9883 -2.0618
 1838TIP3   OH227072   4.030   2.790   0.104  0.3780  0.0389 -0.1264
 1838TIP3    H127073   4.018   2.858   0.038  0.6980  1.3089  1.0746
 1838TIP3    H227074   3.957   2.803   0.165  0.5793 -0.5487  0.2448
 1839TIP3   OH227075   5.251   3.669   7.440  0.2138 -0.0611  0.5024
 1839TIP3    H127076   5.286   3.657   7.352  1.5995  0.8533  0.9002
 1839TIP3    H227077   5.176   3.728   7.428 -0.0338 -0.4977 -0.1406
 1840TIP3   OH227078   0.579   2.981   8.499  0.0633 -0.0861  0.3279
 1840TIP3    H127079   0.643   2.982   8.570  0.6850 -2.6842 -0.1107
 1840TIP3    H227080   0.494   2.975   8.544  0.2285  1.2035  0.8604
 1841TIP3   OH227081   3.926   3.275   0.022 -0.2122 -0.4779  0.2231
 1841TIP3    H127082   3.921   3.369   0.042  0.3185 -0.2534 -0.6154
 1841TIP3    H227083   3.974   3.238   0.096  0.1837  0.0367  0.2397
 1842TIP3   OH227084   5.895   4.072   1.226  0.4815  0.0516  0.6313
 1842TIP3    H127085   5.877   4.166   1.226  1.6780  0.3475 -1.4624
 1842TIP3    H227086   5.939   4.056   1.142  0.8155 -2.2866  1.1802
 1843TIP3   OH227087   1.789   1.422   5.978  0.5667  0.1528  0.0822
 1843TIP3    H127088   1.875   1.446   6.013  0.9426 -0.3593 -0.4817
 1843TIP3    H227089   1.740   1.504   5.979  0.5605  0.1711  1.7787
 1844TIP3   OH227090   0.899   1.527   1.226  0.3798  0.1201 -0.2987
 1844TIP3    H127091   0.833   1.458   1.214  0.5369 -0.0786 -0.0369
 1844TIP3    H227092   0.850   1.601   1.260 -0.1138  0.7768 -2.3358
 1845TIP3   OH227093   5.716   4.893   0.212 -0.0984  0.0505 -0.8591
 1845TIP3    H127094   5.809   4.911   0.201 -0.0583 -1.1400 -3.0563
 1845TIP3    H227095   5.706   4.868   0.304  1.8313 -0.2781 -0.7124
 1846TIP3   OH227096   0.175   5.195   7.397  0.3476 -0.4044  0.4765
 1846TIP3    H127097   0.173   5.264   7.463 -0.4934  0.4201 -0.3831
 1846TIP3    H227098   0.243   5.134   7.428  0.8309  0.5946  1.4501
 1847TIP3   OH227099   0.254   2.284   8.478  0.3149  0.5331  0.4661
 1847TIP3    H127100   0.167   2.294   8.517  0.4256  1.5290  0.4778
 1847TIP3    H227101   0.252   2.339   8.400  1.1417  1.0736  0.8095
 1848TIP3   OH227102   1.794   5.180   0.371  0.4732 -0.0260 -0.0233
 1848TIP3    H127103   1.761   5.101   0.414  1.3856  0.6360  1.9869
 1848TIP3    H227104   1.749   5.252   0.415 -0.0126  0.6316 -1.5298
 1849TIP3   OH227105   1.536   1.052   6.559  1.0585 -0.1483  0.4117
 1849TIP3    H127106   1.573   0.981   6.507  0.9199 -1.4201  1.9712
 1849TIP3    H227107   1.523   1.014   6.646  0.7200  1.7147  1.2300
 1850TIP3   OH227108   5.197   5.296   0.962  0.3159 -0.1393 -0.0327
 1850TIP3    H127109   5.109   5.302   0.926  1.2242  0.9425 -2.2540
 1850TIP3    H227110   5.220   5.203   0.954  0.0537 -0.1138 -1.1753
 1851TIP3   OH227111   0.802   3.339   1.249 -0.2122  0.2526 -0.2054
 1851TIP3    H127112   0.893   3.335   1.278  0.3403 -0.2343 -1.8913
 1851TIP3    H227113   0.807   3.352   1.154 -1.9144  0.8795 -0.2493
 1852TIP3   OH227114   6.876   3.257   7.819 -0.5739  0.2454  0.1745
 1852TIP3    H127115   6.796   3.205   7.828 -0.7150  0.5859  1.0109
 1852TIP3    H227116   6.946   3.196   7.844 -0.7367  0.4218  1.1245
 1853TIP3   OH227117   1.872   6.739   6.806 -0.7261  0.3755  0.2804
 1853TIP3    H127118   1.839   6.760   6.893 -0.1061 -0.0391  0.6269
 1853TIP3    H227119   1.851   6.646   6.794  0.0306  0.1834  0.3872
 1854TIP3   OH227120   1.754   5.158   7.271  0.2930 -0.3806  0.4474
 1854TIP3    H127121   1.686   5.144   7.205  1.8791 -0.8020 -1.2125
 1854TIP3    H227122   1.800   5.073   7.275  1.6293  0.3135  0.3848
 1855TIP3   OH227123   1.329   1.144   8.641 -0.2971  0.1591 -0.4055
 1855TIP3    H127124   1.275   1.087   8.587 -0.1526  0.8598 -1.3213
 1855TIP3    H227125   1.351   1.092   8.718 -0.3678 -0.9241 -1.1051
 1856TIP3   OH227126   5.383   3.439   6.106  0.2548 -0.0268  0.1038
 1856TIP3    H127127   5.402   3.386   6.028  2.3382  0.6977  0.0822
 1856TIP3    H227128   5.366   3.374   6.175  1.9194 -0.7636 -0.1292
 1857TIP3   OH227129   1.519   5.215   0.175 -0.1378  0.1132 -0.6428
 1857TIP3    H127130   1.536   5.307   0.195 -1.5673  0.6184 -1.6346
 1857TIP3    H227131   1.606   5.175   0.173  0.4176  1.0691  1.3656
 1858TIP3   OH227132   0.464   5.681   1.438  0.1494 -0.5338  0.1511
 1858TIP3    H127133   0.390   5.631   1.472 -0.9431  0.1161 -1.1481
 1858TIP3    H227134   0.501   5.724   1.514 -2.0627  0.7135  0.5976
 1859TIP3   OH227135   4.946   1.174   7.170 -0.9588  0.0477 -0.6035
 1859TIP3    H127136   4.903   1.121   7.103 -3.2767  2.9647 -1.6224
 1859TIP3    H227137   4.885   1.172   7.244 -1.3255  1.6194 -0.8413
 1860TIP3   OH227138   3.936   1.762   6.923 -0.4598 -0.1858 -0.2790
 1860TIP3    H127139   3.964   1.671   6.911  1.5237  0.6725 -3.5250
 1860TIP3    H227140   3.912   1.792   6.835 -0.9350  2.4688  0.6478
 1861TIP3   OH227141   0.982   5.659   1.100  0.6727 -0.0243 -0.1712
 1861TIP3    H127142   0.971   5.609   1.020 -0.5156  0.6360 -0.4486
 1861TIP3    H227143   0.943   5.605   1.168  1.2261 -0.3600 -0.1126
 1862TIP3   OH227144   3.508   4.218   0.392  0.3035  0.0297 -0.6011
 1862TIP3    H127145   3.534   4.140   0.343 -0.2855  0.0237 -0.9232
 1862TIP3    H227146   3.471   4.184   0.474 -0.8145 -0.1019 -1.1336
 1863TIP3   OH227147   1.567   3.155   1.394  0.1113  0.6974 -0.0310
 1863TIP3    H127148   1.613   3.073   1.412 -0.1516 -0.3039 -3.2213
 1863TIP3    H227149   1.627   3.205   1.340 -0.7921  1.3845 -0.4225
 1864TIP3   OH227150   6.356   2.370   8.508 -0.1005 -0.9359  0.4566
 1864TIP3    H127151   6.353   2.284   8.550  0.5583 -2.2881 -2.0563
 1864TIP3    H227152   6.306   2.359   8.427  0.9816  0.6968 -0.4892
 1865TIP3   OH227153   2.708   3.422   6.618 -0.4268 -0.2614 -0.0418
 1865TIP3    H127154   2.665   3.500   6.650 -0.2392 -0.8281  1.6803
 1865TIP3    H227155   2.642   3.353   6.624  0.1961 -0.7953  1.0891
 1866TIP3   OH227156   4.893   0.682   8.232 -0.3907 -0.4283  0.6938
 1866TIP3    H127157   4.911   0.589   8.220  0.0510 -0.2509 -0.0513
 1866TIP3    H227158   4.876   0.691   8.326 -0.3311 -1.2361  0.7890
 1867TIP3   OH227159   4.054   2.099   1.790  0.3134  0.3856  0.0833
 1867TIP3    H127160   3.987   2.065   1.850  0.9160 -1.7101 -0.3263
 1867TIP3    H227161   4.033   2.058   1.706  1.2606  0.8788 -0.4038
 1868TIP3   OH227162   1.924   2.060   7.445  0.4228 -0.5763 -0.1685
 1868TIP3    H127163   1.953   2.017   7.526  0.0796  3.1804  2.1692
 1868TIP3    H227164   2.002   2.106   7.413 -0.3040  0.8738  0.0997
 1869TIP3   OH227165   0.191   4.533   7.183 -0.5582 -0.5325 -0.0783
 1869TIP3    H127166   0.140   4.472   7.130  0.4549 -0.9165 -0.6206
 1869TIP3    H227167   0.213   4.604   7.122 -1.0867  0.0150  0.3556
 1870TIP3   OH227168   3.943   3.040   1.649 -0.1560  0.0056 -0.0536
 1870TIP3    H127169   3.875   3.104   1.671 -0.8471 -1.7236  3.4676
 1870TIP3    H227170   4.022   3.093   1.636 -0.6639  1.7117  2.8106
 1871TIP3   OH227171   5.497   5.260   0.297 -0.2231 -0.6700 -0.3650
 1871TIP3    H127172   5.538   5.318   0.233  2.7441 -1.6498  0.4932
 1871TIP3    H227173   5.450   5.319   0.356  0.8774  0.6736 -0.7768
 1872TIP3   OH227174   5.336   0.780   6.834 -0.0602  0.1379  0.0781
 1872TIP3    H127175   5.326   0.695   6.792  0.8152 -0.0077  0.1550
 1872TIP3    H227176   5.359   0.840   6.763 -3.4392  0.9561 -0.5105
 1873TIP3   OH227177   4.279   3.547   0.668  0.4809 -0.6156  0.8972
 1873TIP3    H127178   4.303   3.459   0.638 -0.3709 -0.6737  0.3379
 1873TIP3    H227179   4.189   3.537   0.700 -0.5458  0.5120 -1.4214
 1874TIP3   OH227180   2.645   1.862   0.770 -0.7787 -0.0654 -0.0209
 1874TIP3    H127181   2.701   1.908   0.707 -0.9257 -1.3316 -1.1230
 1874TIP3    H227182   2.562   1.909   0.767 -0.4970  0.4380 -0.0822
 1875TIP3   OH227183   6.121   6.013   0.930 -0.1863  0.0048  0.1863
 1875TIP3    H127184   6.193   6.044   0.985  0.2522 -2.2890  1.0227
 1875TIP3    H227185   6.056   5.980   0.992 -1.3511  0.7163 -0.6140
 1876TIP3   OH227186   4.487   2.975   0.173  0.8078  0.4362 -0.6877
 1876TIP3    H127187   4.414   2.919   0.148 -1.1027  2.7182 -0.6208
 1876TIP3    H227188   4.501   2.957   0.266  0.5304 -0.2074 -0.7664
 1877TIP3   OH227189   6.402   1.073   8.563 -0.2279  0.2650 -0.2083
 1877TIP3    H127190   6.458   1.133   8.514 -0.0833 -0.8424 -1.4549
 1877TIP3    H227191   6.321   1.067   8.512 -0.1921 -0.6864 -0.1747
 1878TIP3   OH227192   3.934   2.196   0.389 -0.3581 -0.5933  0.2984
 1878TIP3    H127193   3.884   2.127   0.433 -0.9125 -0.1140  0.4437
 1878TIP3    H227194   3.882   2.275   0.404  1.2484  0.2494  1.8582
 1879TIP3   OH227195   5.479   3.738   0.176 -0.0785  0.2329 -0.1025
 1879TIP3    H127196   5.425   3.817   0.178  0.1144  0.3971 -0.8571
 1879TIP3    H227197   5.566   3.769   0.203  0.0161  0.2999 -0.4773
 1880TIP3   OH227198   3.285   3.984   8.330 -0.0561  0.3390  0.5252
 1880TIP3    H127199   3.266   3.929   8.407 -1.8671 -0.1266 -0.2057
 1880TIP3    H227200   3.350   3.934   8.281 -1.2721 -0.9395  0.1493
 1881TIP3   OH227201   3.826   5.689   7.054  0.2727  0.4071  0.0608
 1881TIP3    H127202   3.772   5.610   7.045  1.6579 -0.4433 -1.3797
 1881TIP3    H227203   3.796   5.747   6.984 -2.6093  2.4651  2.7106
 1882TIP3   OH227204   2.043   3.223   7.886  0.2779  0.0935  0.1025
 1882TIP3    H127205   2.068   3.151   7.828 -0.2515  0.9343 -1.1925
 1882TIP3    H227206   2.126   3.253   7.924  0.5999 -0.6145 -0.0336
 1883TIP3   OH227207   5.118   2.907   6.800 -0.1358 -0.0901 -0.5056
 1883TIP3    H127208   5.167   2.896   6.719 -1.0551  1.0750 -1.2519
 1883TIP3    H227209   5.108   3.001   6.810  0.0838 -0.2007  1.0503
 1884TIP3   OH227210   1.244   5.080   6.371  0.5953  0.2372 -0.0441
 1884TIP3    H127211   1.284   5.089   6.285 -1.2349 -0.0373 -0.9878
 1884TIP3    H227212   1.214   4.989   6.374 -0.4618  0.5748  0.3338
 1885TIP3   OH227213   0.081   4.096   6.245  0.2689  0.7621 -0.1587
 1885TIP3    H127214   0.153   4.033   6.259  0.5439  1.0796 -0.1313
 1885TIP3    H227215   0.003   4.041   6.237  0.6387  0.3558 -1.0884
 1886TIP3   OH227216   1.008   4.709   6.764  0.2692  0.2811 -0.1890
 1886TIP3    H127217   1.044   4.712   6.675  0.9531 -1.1461  0.0040
 1886TIP3    H227218   1.046   4.785   6.808 -0.4194  1.2500 -1.2279
 1887TIP3   OH227219   2.578   4.816   0.953 -0.1746 -0.0378 -0.4335
 1887TIP3    H127220   2.483   4.805   0.950 -0.1500 -0.1904 -0.6771
 1887TIP3    H227221   2.613   4.739   0.908  0.0645  0.0161 -0.3434
 1888TIP3   OH227222   0.372   0.907   7.761 -0.0073  0.2761 -0.5746
 1888TIP3    H127223   0.446   0.872   7.809  0.1871  0.4369 -0.7545
 1888TIP3    H227224   0.388   0.882   7.670 -1.1125 -1.3218 -0.3784
 1889TIP3   OH227225   3.698   0.557   2.562 -0.5540  0.0575 -0.0844
 1889TIP3    H127226   3.686   0.652   2.554 -2.1080  0.4050  3.7561
 1889TIP3    H227227   3.752   0.533   2.487  0.4155  4.0623 -0.9426
 1890TIP3   OH227228   6.250   4.518   0.433  0.2399  0.1087 -0.4495
 1890TIP3    H127229   6.302   4.440   0.452  0.2271  0.4054  0.9336
 1890TIP3    H227230   6.237   4.516   0.338 -2.1730 -3.1429 -0.2310
 1891TIP3   OH227231   0.745   6.295   1.784  0.4789 -0.6207  0.4648
 1891TIP3    H127232   0.736   6.334   1.871  1.6046  1.2182 -0.1705
 1891TIP3    H227233   0.837   6.311   1.760  0.3348 -1.5692 -0.8388
 1892TIP3   OH227234   1.549   0.558   1.017  0.1944  0.1668 -0.7455
 1892TIP3    H127235   1.454   0.558   1.031  0.4485  0.7626  1.3434
 1892TIP3    H227236   1.560   0.522   0.929 -2.2261  4.4267 -3.1264
 1893TIP3   OH227237   1.212   0.859   6.268  0.6513 -0.6130 -0.4503
 1893TIP3    H127238   1.297   0.824   6.241  0.2992 -1.8673 -0.0021
 1893TIP3    H227239   1.202   0.829   6.358 -0.2349 -0.4016 -0.4740
 1894TIP3   OH227240   2.996   6.875   1.441 -0.1987 -0.3771 -0.0878
 1894TIP3    H127241   3.062   6.939   1.417  0.8886 -0.9954  1.0918
 1894TIP3    H227242   2.939   6.867   1.364  1.6349 -0.5032 -1.4883
 1895TIP3   OH227243   1.442   1.805   1.311  0.4421 -0.6019  0.0195
 1895TIP3    H127244   1.424   1.762   1.394 -1.3165  0.7279  0.3702
 1895TIP3    H227245   1.367   1.782   1.256  0.7527 -0.0656 -0.6378
 1896TIP3   OH227246   6.083   3.007   7.201 -0.4411 -0.4697 -0.6602
 1896TIP3    H127247   6.022   3.080   7.189  0.2885  0.3867  0.6185
 1896TIP3    H227248   6.163   3.035   7.158  0.1795 -0.0287  0.7233
 1897TIP3   OH227249   0.635   5.363   7.386 -0.0690  0.1549  0.2556
 1897TIP3    H127250   0.630   5.317   7.302  1.0874 -1.3344  0.9633
 1897TIP3    H227251   0.550   5.406   7.395 -0.1181  0.6005 -1.7968
 1898TIP3   OH227252   6.585   0.702   7.308 -0.7564  0.0755 -0.0602
 1898TIP3    H127253   6.649   0.646   7.264 -1.0374 -1.3920  1.3001
 1898TIP3    H227254   6.632   0.736   7.384 -1.2830 -0.2461  0.4190
 1899TIP3   OH227255   1.278   6.064   1.768 -0.0715  0.0403  0.2277
 1899TIP3    H127256   1.321   6.014   1.698 -0.1581  1.2782 -0.7489
 1899TIP3    H227257   1.349   6.114   1.808 -0.0026 -0.7611  1.1323
 1900TIP3   OH227258   3.585   1.535   1.644 -0.1376 -0.7919 -0.9067
 1900TIP3    H127259   3.522   1.564   1.578 -1.5144  0.4337  0.8416
 1900TIP3    H227260   3.536   1.535   1.726  1.9662 -0.3603  0.4480
 1901TIP3   OH227261   0.323   1.749   0.430 -0.0440 -0.6628 -0.7639
 1901TIP3    H127262   0.345   1.769   0.521 -0.9559 -1.5728 -0.3213
 1901TIP3    H227263   0.346   1.828   0.381 -2.7180  1.2262  0.7767
 1902TIP3   OH227264   3.511   5.267   0.980 -0.2177 -0.0694 -0.4268
 1902TIP3    H127265   3.439   5.279   1.042  1.8994 -1.2574  2.4821
 1902TIP3    H227266   3.536   5.356   0.955 -1.1827  0.4394  0.3488
 1903TIP3   OH227267   4.112   6.346   0.193 -0.1412 -0.1815 -0.1446
 1903TIP3    H127268   4.121   6.432   0.152  0.2585  0.0540  0.4210
 1903TIP3    H227269   4.084   6.365   0.283 -1.4198 -0.7087 -0.4076
 1904TIP3   OH227270   0.422   0.645   8.315 -0.2383 -0.5736 -0.0092
 1904TIP3    H127271   0.403   0.588   8.389  1.4012  0.4626  1.2673
 1904TIP3    H227272   0.409   0.588   8.238 -3.2049 -1.3259  0.9089
 1905TIP3   OH227273   6.444   4.606   8.503  0.2117  0.4135  0.3418
 1905TIP3    H127274   6.397   4.600   8.586  0.0889 -0.4892  0.2147
 1905TIP3    H227275   6.517   4.545   8.512  0.1184  0.2060 -0.2592
 1906TIP3   OH227276   2.357   3.312   0.964  0.7074 -0.1020 -0.1636
 1906TIP3    H127277   2.313   3.230   0.986  1.5477 -0.7172 -0.7404
 1906TIP3    H227278   2.299   3.354   0.900  0.7148 -0.6832 -0.5617
 1907TIP3   OH227279   5.386   3.560   1.242 -0.6160  0.2444 -0.0456
 1907TIP3    H127280   5.350   3.579   1.329 -2.1822 -1.8168 -0.1886
 1907TIP3    H227281   5.309   3.544   1.187  0.4166 -0.3607 -1.3558
 1908TIP3   OH227282   3.595   3.281   6.779  0.7002 -0.4580 -1.0544
 1908TIP3    H127283   3.500   3.265   6.776  0.3489  1.4831 -1.5424
 1908TIP3    H227284   3.623   3.239   6.860 -1.0276  0.9381  0.3733
 1909TIP3   OH227285   4.362   2.852   1.571 -0.0403  0.2365 -0.1285
 1909TIP3    H127286   4.337   2.933   1.525 -1.1592  0.4732  0.8212
 1909TIP3    H227287   4.419   2.882   1.642 -0.3173  0.1771  0.1207
 1910TIP3   OH227288   4.897   6.152   1.447 -0.1320  0.0973  0.6866
 1910TIP3    H127289   4.936   6.226   1.493  0.6682  1.3282 -1.7380
 1910TIP3    H227290   4.921   6.167   1.355 -1.7030 -2.0989 -0.1622
 1911TIP3   OH227291   1.529   4.704   8.525 -0.2414  0.0117 -0.6998
 1911TIP3    H127292   1.499   4.646   8.594  1.1362 -0.4489 -0.4477
 1911TIP3    H227293   1.525   4.652   8.445 -0.1834 -0.0286 -0.6769
 1912TIP3   OH227294   2.638   2.760   0.790  0.3444  0.0891  0.1970
 1912TIP3    H127295   2.599   2.719   0.867 -0.4908 -2.7533 -1.5664
 1912TIP3    H227296   2.566   2.808   0.749  0.1480 -0.4600 -0.1032
 1913TIP3   OH227297   0.029   2.716   1.870  0.3043  0.5712 -0.6191
 1913TIP3    H127298   0.105   2.772   1.855  0.0857  1.1115  0.2178
 1913TIP3    H227299  -0.016   2.757   1.944  1.5514 -2.0673  1.8226
 1914TIP3   OH227300   4.093   4.490   1.763  0.3479  0.4494 -0.8502
 1914TIP3    H127301   4.122   4.479   1.672 -1.0933 -0.9519 -1.1812
 1914TIP3    H227302   4.172   4.479   1.815  0.7116 -1.9411 -1.7878
 1915TIP3   OH227303   6.478   3.291   0.596  0.1650  0.3580  0.9598
 1915TIP3    H127304   6.564   3.306   0.556  0.1416 -0.3485  0.6227
 1915TIP3    H227305   6.432   3.374   0.587  0.7979  0.7334  1.1090
 1916TIP3   OH227306   4.872   3.366   0.759 -0.1238  0.2883 -0.2639
 1916TIP3    H127307   4.847   3.345   0.669 -1.5601  0.0119  0.1704
 1916TIP3    H227308   4.859   3.284   0.807  1.7478  0.1009  0.0101
 1917TIP3   OH227309   4.995   5.983   7.263 -0.6537 -0.3182  0.4067
 1917TIP3    H127310   4.974   6.033   7.342 -0.1214 -0.0251  0.3671
 1917TIP3    H227311   5.082   6.013   7.238 -2.2709  2.5774 -2.5753
 1918TIP3   OH227312   6.340   2.542   0.405  0.0466  0.0160  0.4510
 1918TIP3    H127313   6.245   2.540   0.400  0.0228  0.0503  0.8299
 1918TIP3    H227314   6.370   2.517   0.318 -0.2966  3.7913 -0.9587
 1919TIP3   OH227315   5.891   3.898   6.440 -0.0329 -0.4016  0.1965
 1919TIP3    H127316   5.814   3.914   6.494  0.3191  4.1125 -0.2714
 1919TIP3    H227317   5.857   3.865   6.357 -1.4197  0.9633  0.2037
 1920TIP3   OH227318   3.050   5.023   7.911  0.2827  0.5151 -0.2902
 1920TIP3    H127319   3.040   5.118   7.914  0.6943  0.5275  1.4438
 1920TIP3    H227320   3.143   5.008   7.895  0.2315  0.3871 -0.4844
 1921TIP3   OH227321   4.495   0.778   0.683  0.6217 -0.6391  0.2593
 1921TIP3    H127322   4.553   0.805   0.611 -0.1353  0.2849 -0.0296
 1921TIP3    H227323   4.411   0.762   0.640  0.4994 -1.3798  0.7620
 1922TIP3   OH227324   5.271   2.364   7.742 -0.1329  0.0584 -0.3143
 1922TIP3    H127325   5.242   2.342   7.654 -0.8813  1.7744 -0.5457
 1922TIP3    H227326   5.353   2.412   7.728 -0.6510  1.0162 -0.1664
 1923TIP3   OH227327   0.582   4.040   1.221 -0.1266  0.5161  0.2249
 1923TIP3    H127328   0.583   3.959   1.170 -0.4838  0.7923 -0.2327
 1923TIP3    H227329   0.603   4.013   1.310 -0.1726 -0.0701  0.0618
 1924TIP3   OH227330   3.902   5.319   2.233 -0.0793 -0.2933 -0.1788
 1924TIP3    H127331   3.832   5.356   2.286  0.6204  1.2355 -0.2654
 1924TIP3    H227332   3.938   5.248   2.286 -2.2563 -1.7635 -0.5270
 1925TIP3   OH227333   2.024   5.567   6.661  0.0326  0.0308  0.4176
 1925TIP3    H127334   2.058   5.485   6.698 -0.2475 -0.9651 -1.4257
 1925TIP3    H227335   1.930   5.554   6.656 -0.0029  0.4261  0.0235
 1926TIP3   OH227336   0.974   2.260   8.338  0.3491 -0.2080  0.2730
 1926TIP3    H127337   1.056   2.309   8.345 -0.4075  1.3531 -0.9865
 1926TIP3    H227338   0.972   2.230   8.247 -0.2260 -0.7133  0.4472
 1927TIP3   OH227339   3.819   1.414   7.111  0.3424 -0.2535  0.4472
 1927TIP3    H127340   3.857   1.429   7.025  2.1232  0.2342  1.2705
 1927TIP3    H227341   3.784   1.499   7.138  1.3555  0.0369  0.9028
 1928TIP3   OH227342   5.378   5.992   8.646  0.2803  0.0854  0.2652
 1928TIP3    H127343   5.463   6.036   8.635 -0.5471  1.7675  0.3613
 1928TIP3    H227344   5.345   5.981   8.556  0.9214 -1.2989  0.1714
 1929TIP3   OH227345   6.470   4.782   0.332 -0.7425  0.4868 -0.1098
 1929TIP3    H127346   6.471   4.692   0.299 -0.7703 -0.7014  2.8377
 1929TIP3    H227347   6.558   4.814   0.314  0.2407 -1.2129  1.3038
 1930TIP3   OH227348   2.717   5.317   0.918 -0.4293  0.4373 -0.0587
 1930TIP3    H127349   2.715   5.402   0.962 -0.4422  0.0695  0.6482
 1930TIP3    H227350   2.809   5.291   0.921 -0.2859  0.7969 -0.9991
 1931TIP3   OH227351   4.440   1.536   0.761  0.3047  0.3329 -0.1976
 1931TIP3    H127352   4.398   1.595   0.824 -1.5643  0.8653 -1.8437
 1931TIP3    H227353   4.431   1.580   0.677 -0.3342 -1.8492 -1.3491
 1932TIP3   OH227354   0.673   5.149   1.578 -0.0029 -0.0314 -0.1011
 1932TIP3    H127355   0.593   5.196   1.553 -0.0402  0.0063  0.0849
 1932TIP3    H227356   0.728   5.216   1.620  0.2060 -0.0149 -0.4018
 1933TIP3   OH227357   4.986   3.639   7.868  0.0149  0.1411  0.0209
 1933TIP3    H127358   5.003   3.733   7.882 -0.9186  0.0049  2.5429
 1933TIP3    H227359   4.913   3.619   7.926  1.9328 -2.7410  1.6339
 1934TIP3   OH227360   0.105   5.381   1.785 -0.0922  0.1418 -0.5699
 1934TIP3    H127361   0.036   5.334   1.832  0.7947  1.0420  1.7855
 1934TIP3    H227362   0.122   5.328   1.707  0.8660 -3.5205  1.8613
 1935TIP3   OH227363   4.239   1.645   8.321 -0.1333 -0.5947  0.3538
 1935TIP3    H127364   4.222   1.713   8.386 -0.4852  0.7518 -1.0963
 1935TIP3    H227365   4.334   1.630   8.326  0.2233  1.1694 -0.3694
 1936TIP3   OH227366   4.216   3.012   0.465 -0.1077 -0.2623 -0.3360
 1936TIP3    H127367   4.236   3.101   0.492  1.2467  0.2356 -2.6340
 1936TIP3    H227368   4.301   2.972   0.449 -0.7191 -0.7968 -2.6526
 1937TIP3   OH227369   3.757   5.785   0.749 -0.1388  0.7457  0.6754
 1937TIP3    H127370   3.664   5.775   0.729  0.2317 -2.8390 -0.0316
 1937TIP3    H227371   3.762   5.773   0.844 -0.3515  0.2319  0.6251
 1938TIP3   OH227372   4.279   2.551   7.979  0.1519 -0.8099  0.4539
 1938TIP3    H127373   4.211   2.520   8.039 -0.7770 -1.0332 -0.6770
 1938TIP3    H227374   4.272   2.646   7.983 -0.7558 -0.8292 -0.1935
 1939TIP3   OH227375   0.782   5.778   0.931  0.1244  0.3152  0.1922
 1939TIP3    H127376   0.814   5.740   1.013  0.6108 -1.1588 -0.6453
 1939TIP3    H227377   0.708   5.722   0.906  1.0753 -0.3572 -1.2558
 1940TIP3   OH227378   0.352   3.352   1.374  0.1248  0.3244  0.0124
 1940TIP3    H127379   0.282   3.291   1.350 -0.0192  0.2642  0.5862
 1940TIP3    H227380   0.413   3.300   1.426  0.4997  0.4302 -0.3111
 1941TIP3   OH227381   6.825   1.908   7.909 -0.2592  0.2793  0.4301
 1941TIP3    H127382   6.861   1.845   7.971 -1.2480  0.2649  1.0002
 1941TIP3    H227383   6.778   1.856   7.845  1.0185  0.2697 -0.5418
 1942TIP3   OH227384   4.848   6.571   8.434 -0.3617  0.4701 -0.2810
 1942TIP3    H127385   4.755   6.555   8.450 -0.1446 -1.4479 -0.6790
 1942TIP3    H227386   4.850   6.633   8.361 -1.2872  3.1989  1.8345
 1943TIP3   OH227387   0.663   0.641   8.467 -0.0926 -0.3734 -0.1191
 1943TIP3    H127388   0.705   0.724   8.443 -0.1351  0.1778  1.5759
 1943TIP3    H227389   0.600   0.624   8.397  0.5723  0.5292 -0.9635
 1944TIP3   OH227390   1.804   5.793   8.445 -0.1703  0.0458  0.3569
 1944TIP3    H127391   1.758   5.796   8.529 -0.2037 -1.7017  0.4261
 1944TIP3    H227392   1.735   5.789   8.380 -0.1352  0.9484  0.2446
 1945TIP3   OH227393   2.170   6.638   7.390 -0.1434  0.3079 -0.0076
 1945TIP3    H127394   2.131   6.592   7.464  0.2644  0.2286  0.1621
 1945TIP3    H227395   2.151   6.582   7.314 -1.2715  0.7914 -0.1070
 1946TIP3   OH227396   3.172   5.582   0.786 -0.5830 -0.2445  0.2220
 1946TIP3    H127397   3.182   5.552   0.877  0.0834  1.3011  0.6965
 1946TIP3    H227398   3.092   5.539   0.755 -1.1887 -0.3070  1.7652
 1947TIP3   OH227399   5.540   2.765   1.096 -0.4816  0.0014  0.5856
 1947TIP3    H127400   5.529   2.847   1.143  2.3390  0.2707  0.9288
 1947TIP3    H227401   5.626   2.733   1.124 -0.2577 -1.6008 -1.7184
 1948TIP3   OH227402   0.749   0.268   0.954 -0.2602 -0.0335 -0.0323
 1948TIP3    H127403   0.772   0.200   1.017 -1.9847  0.8380  1.6237
 1948TIP3    H227404   0.819   0.333   0.962 -0.7900  0.3783  1.5201
 1949TIP3   OH227405   6.049   0.168   2.083  0.4766 -0.3659  0.0386
 1949TIP3    H127406   6.057   0.208   2.170  1.7424 -1.5033  0.4717
 1949TIP3    H227407   6.033   0.075   2.102  0.0714 -0.5038 -0.9559
 1950TIP3   OH227408   6.049   0.710   8.057 -0.0343 -0.5155 -0.5464
 1950TIP3    H127409   6.091   0.785   8.017  1.2911  0.1342  1.8710
 1950TIP3    H227410   5.958   0.738   8.071  0.1375  0.1625 -0.7521
 1951TIP3   OH227411   5.617   2.513   0.353 -0.3629  0.2983  0.8891
 1951TIP3    H127412   5.561   2.588   0.371 -0.6649  0.5137 -0.7430
 1951TIP3    H227413   5.582   2.477   0.271  1.1189 -0.3165  0.5033
 1952TIP3   OH227414   5.736   3.540   0.971  0.5434 -0.0941 -0.7823
 1952TIP3    H127415   5.701   3.578   0.890  0.2080 -2.7867 -2.0181
 1952TIP3    H227416   5.817   3.497   0.944  0.3621 -1.1283  0.2476
 1953TIP3   OH227417   0.346   0.188   0.166  0.4132  0.2231  0.2253
 1953TIP3    H127418   0.435   0.151   0.163  0.8969  1.0360  2.8061
 1953TIP3    H227419   0.356   0.276   0.130  0.5782  0.1810  0.1639
 1954TIP3   OH227420   5.008   1.938   6.384 -0.0339  0.2397 -0.2401
 1954TIP3    H127421   5.022   1.889   6.303  1.2875 -0.4102  0.3512
 1954TIP3    H227422   5.076   2.005   6.384  0.2140 -0.0027  0.5044
 1955TIP3   OH227423   6.827   1.282   8.504  0.3762  0.3480 -0.3679
 1955TIP3    H127424   6.839   1.191   8.533  0.1271  0.3337 -0.3062
 1955TIP3    H227425   6.733   1.290   8.491  0.0650  1.2601  1.8933
 1956TIP3   OH227426   1.104   5.872   7.778 -0.2584  0.7128 -0.0806
 1956TIP3    H127427   1.173   5.855   7.842  0.2380  1.9256 -0.2704
 1956TIP3    H227428   1.087   5.787   7.738  1.5849  0.4921 -0.4855
 1957TIP3   OH227429   5.630   5.620   1.725  0.4007  0.8842  0.6109
 1957TIP3    H127430   5.611   5.581   1.640 -0.9503 -1.5305  1.9192
 1957TIP3    H227431   5.678   5.700   1.704 -1.3060  1.2613 -2.4574
 1958TIP3   OH227432   1.724   1.072   0.955  0.0410 -1.3032 -0.1595
 1958TIP3    H127433   1.751   1.063   1.046 -0.6083  0.0056  0.2003
 1958TIP3    H227434   1.632   1.098   0.960  0.4809  0.6889 -1.0683
 1959TIP3   OH227435   4.280   1.915   7.638  0.3560  1.0825 -0.2551
 1959TIP3    H127436   4.265   1.823   7.658  0.4909  1.2523  0.6497
 1959TIP3    H227437   4.209   1.939   7.578  0.9981  0.0833 -1.4696
 1960TIP3   OH227438   5.445   4.147   6.995 -0.5645 -0.2924 -0.4584
 1960TIP3    H127439   5.404   4.156   6.909 -0.5210 -0.6308 -0.5157
 1960TIP3    H227440   5.410   4.219   7.046  0.4501  0.7367 -1.1674
 1961TIP3   OH227441   3.262   1.959   8.517  0.0064 -0.2329 -0.1586
 1961TIP3    H127442   3.271   2.009   8.436  0.5379 -0.6328 -0.3530
 1961TIP3    H227443   3.335   1.989   8.572  0.5156 -0.9917 -0.3945
 1962TIP3   OH227444   6.112   1.734   8.399  0.2679  0.4417  0.3866
 1962TIP3    H127445   6.143   1.648   8.371 -1.5836 -0.4145  0.8058
 1962TIP3    H227446   6.125   1.790   8.323  1.0102 -0.3427 -0.0835
 1963TIP3   OH227447   6.146   3.999   7.370 -0.0598  0.0674 -0.9190
 1963TIP3    H127448   6.088   4.053   7.423 -0.1613  0.5039 -1.4641
 1963TIP3    H227449   6.133   4.031   7.281  2.5321  1.6460 -0.8511
 1964TIP3   OH227450   0.214   3.092   7.855  0.3629  0.4465 -0.3044
 1964TIP3    H127451   0.305   3.109   7.876  0.2464  1.9237 -0.9080
 1964TIP3    H227452   0.215   3.058   7.766  0.3585 -0.1379 -0.0893
 1965TIP3   OH227453   1.118   2.190   1.601  0.3132 -0.1939  0.7639
 1965TIP3    H127454   1.193   2.249   1.606  0.4778 -0.4023  0.7849
 1965TIP3    H227455   1.076   2.211   1.518  0.2488  0.0996  0.8710
 1966TIP3   OH227456   4.265   1.502   1.637 -0.2348 -0.1137  0.8628
 1966TIP3    H127457   4.177   1.539   1.640  0.1379  1.0164 -0.5705
 1966TIP3    H227458   4.320   1.568   1.677  0.4947  1.2393 -2.0701
 1967TIP3   OH227459   6.072   2.145   0.750 -0.0644  0.5987  0.2674
 1967TIP3    H127460   6.062   2.068   0.806 -0.1941 -0.4851 -1.1696
 1967TIP3    H227461   6.001   2.137   0.686 -0.9332  2.6749  0.9055
 1968TIP3   OH227462   5.715   4.576   0.534  0.7303  0.2864 -0.0469
 1968TIP3    H127463   5.786   4.513   0.546  1.0320  0.4297 -0.9742
 1968TIP3    H227464   5.757   4.651   0.491  0.1450  0.6471  0.0027
 1969TIP3   OH227465   3.009   1.938   0.810  0.2384  0.2046 -0.0554
 1969TIP3    H127466   3.103   1.949   0.796  0.1142 -0.1953 -1.3837
 1969TIP3    H227467   2.971   1.939   0.722 -0.8857 -0.6481  0.3851
 1970TIP3   OH227468   4.784   3.058   8.136  0.2073  0.0365 -0.4738
 1970TIP3    H127469   4.697   3.074   8.098  0.6590 -2.1347 -2.7173
 1970TIP3    H227470   4.771   2.988   8.199  0.3660 -0.6807 -1.2169
 1971TIP3   OH227471   5.676   0.183   0.055 -0.3764 -0.2722  0.7232
 1971TIP3    H127472   5.760   0.153   0.088  0.5286  1.1858 -0.1931
 1971TIP3    H227473   5.617   0.176   0.130  1.2941  1.6991  2.3426
 1972TIP3   OH227474   1.854   0.560   7.721  0.2490  0.4577 -0.1696
 1972TIP3    H127475   1.804   0.638   7.745 -0.3051 -0.1620  0.7317
 1972TIP3    H227476   1.945   0.586   7.732  0.0597  0.2057  2.8621
 1973TIP3   OH227477   1.437   3.952   8.617 -0.0414  0.0595  0.4294
 1973TIP3    H127478   1.462   3.923   8.704  1.4656 -0.1231 -0.0299
 1973TIP3    H227479   1.467   4.043   8.613 -2.1698  0.8350  0.8671
 1974TIP3   OH227480   6.339   0.190   2.406 -0.0019  0.2488 -0.2746
 1974TIP3    H127481   6.249   0.210   2.379 -0.3433  0.4920  0.9442
 1974TIP3    H227482   6.334   0.101   2.441  0.5321 -0.2509 -1.4144
 1975TIP3   OH227483   2.127   0.933   8.006 -0.0307 -0.1098  0.6068
 1975TIP3    H127484   2.153   1.008   8.060  1.2249 -1.2708  1.6874
 1975TIP3    H227485   2.203   0.874   8.009 -1.1760 -1.6636  0.2273
 1976TIP3   OH227486   3.897   3.627   6.701 -0.4237 -0.0985 -0.2677
 1976TIP3    H127487   3.870   3.673   6.780 -2.0053 -0.6552 -0.4473
 1976TIP3    H227488   3.821   3.632   6.643  0.9813  1.0158 -2.1113
 1977TIP3   OH227489   3.155   6.809   8.320  0.3693  0.2445  0.2899
 1977TIP3    H127490   3.217   6.746   8.357  0.4549  1.6216  2.6954
 1977TIP3    H227491   3.074   6.794   8.367  0.5516  2.2344  1.3524
 1978TIP3   OH227492   2.741   4.226   6.304 -0.3790  0.5900  0.1517
 1978TIP3    H127493   2.810   4.286   6.278  0.6810 -0.9401 -0.7569
 1978TIP3    H227494   2.747   4.223   6.400  1.1226  0.1849  0.0717
 1979TIP3   OH227495   3.041   6.624   7.901 -0.1093  0.6229  0.4588
 1979TIP3    H127496   3.124   6.668   7.880  0.6126 -0.4753  0.8830
 1979TIP3    H227497   3.020   6.575   7.821 -0.0500  0.4545  0.5474
 1980TIP3   OH227498   2.312   6.018   1.211  0.2511  0.4051 -0.1619
 1980TIP3    H127499   2.245   6.060   1.265  0.6614  2.3719 -1.0754
 1980TIP3    H227500   2.299   6.055   1.124  1.2750 -0.6912 -0.8066
 1981TIP3   OH227501   3.987   1.172   0.543 -0.5205  0.0937  0.2635
 1981TIP3    H127502   3.954   1.256   0.573 -3.2714 -1.3441  1.6870
 1981TIP3    H227503   3.957   1.109   0.609 -0.5813 -2.3170 -1.8856
 1982TIP3   OH227504   5.356   5.295   1.209  0.1234 -0.2030  0.2020
 1982TIP3    H127505   5.320   5.351   1.277 -1.2038 -0.7895  0.0030
 1982TIP3    H227506   5.294   5.302   1.136  0.3514 -1.3026 -0.1153
 1983TIP3   OH227507   6.094   6.745   8.098  0.1504  0.4256 -0.8496
 1983TIP3    H127508   6.013   6.757   8.147 -0.3664 -1.7241 -1.1198
 1983TIP3    H227509   6.149   6.691   8.156  0.6714  0.3276 -1.4265
 1984TIP3   OH227510   2.341   6.323   8.456 -0.4685  0.0278 -0.2618
 1984TIP3    H127511   2.413   6.297   8.514 -0.9717  0.7611  0.7176
 1984TIP3    H227512   2.339   6.419   8.461 -0.9863  0.0607 -0.9364
 1985TIP3   OH227513   5.262   3.353   6.491 -0.2513  0.0751 -0.1011
 1985TIP3    H127514   5.297   3.281   6.438  0.4573 -0.2104  0.7477
 1985TIP3    H227515   5.327   3.367   6.559 -0.7587  1.0069  0.2045
 1986TIP3   OH227516   4.954   4.144   8.382  0.2719 -0.5221 -0.1973
 1986TIP3    H127517   4.910   4.085   8.443 -2.4479 -0.7139 -2.1329
 1986TIP3    H227518   4.913   4.229   8.399 -1.8659 -0.9142 -2.7570
 1987TIP3   OH227519   2.752   1.462   0.599 -0.2991  0.3379  0.5800
 1987TIP3    H127520   2.752   1.552   0.566 -0.6354 -0.2439 -1.0657
 1987TIP3    H227521   2.689   1.463   0.671 -0.3346  1.3997  0.5480
 1988TIP3   OH227522   3.025   3.006   1.476 -0.2643 -0.1508  0.2427
 1988TIP3    H127523   3.079   2.956   1.414  1.1880 -0.4198  1.6715
 1988TIP3    H227524   3.008   3.089   1.431 -0.6313 -0.9366 -1.1578
 1989TIP3   OH227525   4.233   5.722   7.366 -0.4414 -0.2251 -0.3034
 1989TIP3    H127526   4.245   5.801   7.419  0.0898  0.1125 -0.9178
 1989TIP3    H227527   4.204   5.754   7.281  0.0087 -0.6692 -0.6334
 1990TIP3   OH227528   0.118   2.610   0.451 -0.0989  0.4192  0.2542
 1990TIP3    H127529   0.069   2.556   0.513  0.5169 -1.1745 -0.5696
 1990TIP3    H227530   0.192   2.645   0.501  0.1371 -0.4722  0.5472
 1991TIP3   OH227531   2.686   6.583   7.424  0.3261 -0.4552  0.1919
 1991TIP3    H127532   2.610   6.527   7.434 -0.4389  0.9861  3.8154
 1991TIP3    H227533   2.650   6.672   7.418  1.6706  0.0679 -0.7727
 1992TIP3   OH227534   2.067   5.384   6.193 -0.7093 -0.1615 -0.0382
 1992TIP3    H127535   2.055   5.346   6.280 -2.4744 -0.1005 -0.2176
 1992TIP3    H227536   2.120   5.321   6.146 -1.1630 -1.0160  0.5724
 1993TIP3   OH227537   4.125   1.439   7.591  0.1610  0.1505 -0.4248
 1993TIP3    H127538   4.092   1.503   7.529  0.1723 -0.4955 -1.1138
 1993TIP3    H227539   4.133   1.358   7.540  1.3524 -0.0826  0.1046
 1994TIP3   OH227540   4.122   5.602   1.192  0.1768  0.0754 -0.0709
 1994TIP3    H127541   4.210   5.633   1.175 -0.2037  0.7912 -0.7992
 1994TIP3    H227542   4.081   5.671   1.244  0.2298 -0.5447  0.8317
 1995TIP3   OH227543   6.224   0.242   8.222  0.0572  0.4627 -0.2352
 1995TIP3    H127544   6.243   0.232   8.129 -0.5691  1.1504 -0.4432
 1995TIP3    H227545   6.216   0.336   8.235 -1.2986  0.3045  0.2210
 1996TIP3   OH227546   5.407   5.224   1.490  0.4597  0.0988 -0.3033
 1996TIP3    H127547   5.454   5.142   1.506  1.9001  0.9912  0.1742
 1996TIP3    H227548   5.364   5.210   1.405  0.9700 -1.0097 -0.4041
 1997TIP3   OH227549   1.393   6.356   0.469  0.1996  0.4025 -0.2574
 1997TIP3    H127550   1.339   6.279   0.449  0.9970 -0.9441  2.2479
 1997TIP3    H227551   1.401   6.355   0.565 -0.5493  4.2174  0.0207
 1998TIP3   OH227552   0.897   0.095   0.337 -0.1269 -0.0025  0.8174
 1998TIP3    H127553   0.810   0.135   0.332 -0.1349 -0.2224 -2.0031
 1998TIP3    H227554   0.949   0.158   0.387 -1.4759  0.9269  1.1220
 1999TIP3   OH227555   2.037   5.174   1.869 -0.6503  0.2921 -0.1746
 1999TIP3    H127556   2.025   5.103   1.806 -1.1849  1.3709 -1.3254
 1999TIP3    H227557   1.951   5.185   1.910 -0.3297 -0.3390  0.7258
 2000TIP3   OH227558   6.038   3.216   0.374  0.1161  0.0447  0.0376
 2000TIP3    H127559   6.105   3.152   0.351  1.5642  1.8438 -0.9700
 2000TIP3    H227560   6.029   3.209   0.469  0.6874 -1.2075  0.0116
 2001TIP3   OH227561   4.283   0.557   8.351  0.2181 -0.4773  0.2836
 2001TIP3    H127562   4.295   0.613   8.427  1.4423 -0.2012 -0.0940
 2001TIP3    H227563   4.258   0.617   8.281 -1.3800 -0.7841  0.5400
 2002TIP3   OH227564   6.177   2.187   1.795  0.4890  1.0432 -0.0745
 2002TIP3    H127565   6.183   2.206   1.701 -0.3172 -1.6685 -0.7848
 2002TIP3    H227566   6.267   2.196   1.827  1.0508  0.6015 -1.4443
 2003TIP3   OH227567   2.389   5.702   6.124 -0.0525  0.4721  0.1369
 2003TIP3    H127568   2.305   5.725   6.085  0.5776  2.2616 -0.2589
 2003TIP3    H227569   2.432   5.786   6.142  2.9563 -0.2988 -2.5298
 2004TIP3   OH227570   1.390   1.475   6.550 -0.4331 -0.0470  0.1627
 2004TIP3    H127571   1.346   1.553   6.517  0.1414  0.2657  0.1151
 2004TIP3    H227572   1.463   1.461   6.490 -1.4646 -1.5836 -0.7758
 2005TIP3   OH227573   4.507   6.443   7.531  0.3294 -0.1792 -0.0318
 2005TIP3    H127574   4.590   6.489   7.546 -0.0758  0.2318  1.0094
 2005TIP3    H227575   4.439   6.507   7.550 -0.2567 -0.2370 -1.7662
 2006TIP3   OH227576   4.100   0.352   8.199  0.4025  0.3503 -0.0867
 2006TIP3    H127577   4.139   0.354   8.287  1.0889 -0.8624 -0.3386
 2006TIP3    H227578   4.175   0.338   8.141 -0.1711  0.0965 -0.7730
 2007TIP3   OH227579   1.216   3.187   6.515 -0.3515  0.6427 -0.2233
 2007TIP3    H127580   1.237   3.128   6.442 -0.2072 -0.4838  0.7079
 2007TIP3    H227581   1.151   3.247   6.479 -2.2482 -1.4952 -0.5939
 2008TIP3   OH227582   4.448   1.997   8.682  0.1220  0.3179  0.5948
 2008TIP3    H127583   4.517   1.948   8.637 -0.5731 -0.2533  0.1383
 2008TIP3    H227584   4.496   2.056   8.740  1.0545  1.3322 -1.1260
 2009TIP3   OH227585   2.135   1.586   7.515 -0.3034 -0.1307 -0.1966
 2009TIP3    H127586   2.197   1.517   7.539 -0.6463 -0.3240  0.1492
 2009TIP3    H227587   2.149   1.656   7.579  0.4393  0.3671 -0.8924
 2010TIP3   OH227588   5.511   1.594   1.188 -0.4027 -0.2520 -0.1291
 2010TIP3    H127589   5.477   1.506   1.207 -3.0247  0.6291 -0.3320
 2010TIP3    H227590   5.553   1.621   1.270  0.1688 -1.5425  0.0355
 2011TIP3   OH227591   4.068   5.348   8.111 -0.5513  1.1089  0.1896
 2011TIP3    H127592   4.124   5.315   8.042 -2.5005  1.2734 -1.5795
 2011TIP3    H227593   4.128   5.391   8.173  1.4760 -1.0125 -0.1604
 2012TIP3   OH227594   0.565   5.588   7.644  0.1956  0.4924  0.1643
 2012TIP3    H127595   0.636   5.651   7.659 -0.9364  1.4507  1.7332
 2012TIP3    H227596   0.561   5.537   7.725 -0.1842 -0.3147 -0.3539
 2013TIP3   OH227597   2.610   0.268   0.586 -0.7808 -0.1375  0.6313
 2013TIP3    H127598   2.648   0.255   0.499 -1.0524 -0.4073  0.5526
 2013TIP3    H227599   2.515   0.270   0.571 -0.8002  1.1468  0.7389
 2014TIP3   OH227600   6.403   4.759   7.661  0.2986  0.2276  0.1915
 2014TIP3    H127601   6.339   4.810   7.710  0.5086  1.2551 -0.5592
 2014TIP3    H227602   6.358   4.735   7.580 -0.0548 -1.4728  0.8353
 2015TIP3   OH227603   2.658   3.706   7.015  0.6090 -0.2702  0.0117
 2015TIP3    H127604   2.738   3.727   6.967  1.2299 -2.2983  0.0811
 2015TIP3    H227605   2.592   3.694   6.947  0.3638  1.2544 -0.0539
 2016TIP3   OH227606   3.263   0.356   7.249  0.5724  0.7611 -0.4731
 2016TIP3    H127607   3.283   0.449   7.259  1.0390  0.8426 -1.9560
 2016TIP3    H227608   3.256   0.324   7.339 -2.4569  2.7943  0.1910
 2017TIP3   OH227609   1.491   2.730   7.169 -0.6970 -0.0289 -0.3987
 2017TIP3    H127610   1.470   2.817   7.135  1.7923  1.4298  1.4723
 2017TIP3    H227611   1.527   2.745   7.256  2.3258 -2.6321 -0.9955
 2018TIP3   OH227612   0.168   6.029   1.042 -0.3984  0.1504  0.1092
 2018TIP3    H127613   0.255   6.064   1.024 -0.4791  0.1280 -0.3404
 2018TIP3    H227614   0.128   6.094   1.099 -0.8784  1.3002 -1.4427
 2019TIP3   OH227615   1.419   1.876   1.735 -0.6318 -0.3581  0.5052
 2019TIP3    H127616   1.334   1.885   1.692 -0.7406  0.5776  0.8909
 2019TIP3    H227617   1.480   1.924   1.678 -0.1002 -2.0768 -0.4387
 2020TIP3   OH227618   3.005   2.462   1.453  0.5194  0.9373  0.1614
 2020TIP3    H127619   2.910   2.462   1.437  0.1882  2.6705  1.7459
 2020TIP3    H227620   3.026   2.371   1.473 -1.1472  0.7719  1.3879
 2021TIP3   OH227621   4.281   3.244   7.814 -0.3195  0.0902  0.3463
 2021TIP3    H127622   4.356   3.185   7.807 -1.2450 -1.1424  0.4745
 2021TIP3    H227623   4.288   3.301   7.737  0.4747 -0.3344  0.0985
 2022TIP3   OH227624   3.826   4.947   6.738  0.0254  0.0482  0.3640
 2022TIP3    H127625   3.839   5.034   6.701 -0.9847  0.9643  2.0027
 2022TIP3    H227626   3.752   4.911   6.689 -0.0989  0.4680  0.2329
 2023TIP3   OH227627   1.850   1.990   1.207 -0.5918 -0.2698  0.2846
 2023TIP3    H127628   1.874   1.941   1.128 -0.3299  0.3406 -0.0136
 2023TIP3    H227629   1.765   2.029   1.187 -0.4523  0.0149  0.2505
 2024TIP3   OH227630   1.704   1.454   0.447 -0.5990  0.8530  0.1829
 2024TIP3    H127631   1.668   1.432   0.533  1.4261  0.2407  0.9493
 2024TIP3    H227632   1.774   1.389   0.434 -0.1813  1.5851 -1.4673
 2025TIP3   OH227633   5.056   1.240   8.451  0.4550 -0.4225 -0.0259
 2025TIP3    H127634   5.030   1.165   8.397  1.9392 -0.3945 -0.8099
 2025TIP3    H227635   4.992   1.240   8.523  0.1919 -2.2030 -0.2080
 2026TIP3   OH227636   5.169   2.930   7.277  0.1635 -0.2681  0.8247
 2026TIP3    H127637   5.078   2.899   7.274  0.2287 -0.4176 -1.2774
 2026TIP3    H227638   5.221   2.850   7.269  0.4434 -0.0789  0.7769
 2027TIP3   OH227639   3.884   4.092   0.803 -0.5255  0.2045  0.4533
 2027TIP3    H127640   3.968   4.049   0.788 -0.3939 -0.2265  2.2988
 2027TIP3    H227641   3.824   4.021   0.824 -1.5071  0.4602 -1.2981
 2028TIP3   OH227642   5.548   5.388   2.317 -0.0732 -0.1618  0.0553
 2028TIP3    H127643   5.508   5.318   2.370  1.7908 -1.2957  0.0602
 2028TIP3    H227644   5.536   5.360   2.227  0.1773 -0.2013  0.0341
 2029TIP3   OH227645   6.197   1.511   1.620  0.5414  0.5014  0.3075
 2029TIP3    H127646   6.144   1.448   1.572 -0.6815  1.5936  0.1764
 2029TIP3    H227647   6.134   1.562   1.671  1.6112  0.7873  1.3988
 2030TIP3   OH227648   2.362   1.044   0.881  0.3047  0.8412 -0.9151
 2030TIP3    H127649   2.387   1.038   0.973  1.1689  1.2926 -1.1110
 2030TIP3    H227650   2.302   0.971   0.867  2.3210 -0.9339 -0.6948
 2031TIP3   OH227651   1.281   4.802   6.925  0.0929  0.1501  0.2181
 2031TIP3    H127652   1.345   4.775   6.859 -0.0528 -0.2999  0.2567
 2031TIP3    H227653   1.310   4.759   7.005 -0.4997 -0.3993  0.1376
 2032TIP3   OH227654   6.781   6.294   8.024  0.4041 -0.1648 -0.4460
 2032TIP3    H127655   6.810   6.202   8.021 -0.6107 -0.5779  1.2261
 2032TIP3    H227656   6.796   6.320   8.115  0.5885  1.3260 -0.8838
 2033TIP3   OH227657   4.927   1.587   0.548  0.2060  0.8097  0.0165
 2033TIP3    H127658   4.904   1.562   0.638 -1.8163 -2.3497 -1.1674
 2033TIP3    H227659   4.861   1.651   0.523 -0.6344  0.0173  0.1378
 2034TIP3   OH227660   4.299   0.570   7.889  0.0142 -0.3820  0.1842
 2034TIP3    H127661   4.364   0.501   7.898  1.3221  0.8079  0.2917
 2034TIP3    H227662   4.293   0.609   7.977  0.4875  0.6384 -0.2157
 2035TIP3   OH227663   1.566   0.531   7.011 -0.3184 -0.0935 -0.0178
 2035TIP3    H127664   1.634   0.484   7.059  1.1786 -2.0372 -3.6349
 2035TIP3    H227665   1.613   0.597   6.960 -1.0592 -1.3576 -2.4629
 2036TIP3   OH227666   4.095   4.364   8.672  0.6006 -0.2924 -0.5794
 2036TIP3    H127667   4.015   4.311   8.671  0.1594  0.3669 -0.9583
 2036TIP3    H227668   4.093   4.413   8.590  1.4443 -0.3408 -0.6300
 2037TIP3   OH227669   2.262   6.268   7.431 -0.0309 -0.1006  0.0270
 2037TIP3    H127670   2.170   6.286   7.452 -0.1063 -0.8070  0.3226
 2037TIP3    H227671   2.262   6.179   7.396  0.4675  0.1018 -0.5050
 2038TIP3   OH227672   3.059   4.827   2.208  0.1964 -0.2873  0.7583
 2038TIP3    H127673   2.967   4.854   2.216  0.2226  1.3087 -2.7086
 2038TIP3    H227674   3.101   4.863   2.287 -1.9463 -0.3965  2.0371
 2039TIP3   OH227675   5.452   4.544   0.084 -0.2981 -0.9308 -0.1850
 2039TIP3    H127676   5.453   4.449   0.085 -1.5037 -0.9653 -0.5162
 2039TIP3    H227677   5.476   4.570   0.173 -1.1887 -1.5784  0.2580
 2040TIP3   OH227678   4.390   4.787   1.386  0.5306  0.0366  0.2928
 2040TIP3    H127679   4.368   4.706   1.339 -0.2526  0.2051  0.3530
 2040TIP3    H227680   4.376   4.767   1.478 -2.2812  0.9758  0.1621
 2041TIP3   OH227681   4.941   0.944   6.713  0.4698 -0.7418 -0.5792
 2041TIP3    H127682   4.967   1.015   6.654  0.2455 -0.2111 -0.0430
 2041TIP3    H227683   4.877   0.984   6.772  2.6510 -0.4914  1.7772
 2042TIP3   OH227684   2.912   2.170   1.461 -0.0452  0.3344 -0.1797
 2042TIP3    H127685   2.938   2.161   1.552  0.3865  1.0181 -0.2302
 2042TIP3    H227686   2.984   2.130   1.411 -0.3409 -0.1558 -0.2190
 2043TIP3   OH227687   5.706   2.392   7.208  0.5817  0.5189 -0.0389
 2043TIP3    H127688   5.719   2.304   7.241 -1.3067  0.6530  1.1932
 2043TIP3    H227689   5.794   2.425   7.190  1.3006 -1.7259 -0.9131
 2044TIP3   OH227690   2.368   0.830   8.054 -0.4297  0.1971  0.0770
 2044TIP3    H127691   2.402   0.812   8.141 -1.4706 -1.6724  0.1667
 2044TIP3    H227692   2.406   0.761   7.999 -0.9267  0.4692 -0.6230
 2045TIP3   OH227693   3.993   2.454   1.771 -0.3335  0.7592  0.3573
 2045TIP3    H127694   3.967   2.537   1.731 -0.9510  0.7508  0.7309
 2045TIP3    H227695   3.954   2.387   1.715 -0.9786  0.7441  0.8135
 2046TIP3   OH227696   2.561   0.792   8.254 -0.6976  0.5887  0.0638
 2046TIP3    H127697   2.596   0.814   8.168 -1.2604  0.3174 -0.2380
 2046TIP3    H227698   2.638   0.788   8.311 -0.2433  0.0963 -0.5669
 2047TIP3   OH227699   0.294   3.145   0.768  0.0157  0.0272  0.2472
 2047TIP3    H127700   0.319   3.216   0.709  0.5022  0.6168  1.1440
 2047TIP3    H227701   0.259   3.189   0.846  0.9599 -0.6886  1.0998
 2048TIP3   OH227702   2.853   3.478   0.949  0.1373 -0.6961 -0.4943
 2048TIP3    H127703   2.795   3.418   0.901  0.2479 -0.0150 -1.5182
 2048TIP3    H227704   2.819   3.479   1.038 -0.0550 -2.0331 -0.5325
 2049TIP3   OH227705   0.684   2.717   0.526  0.0514  0.1598 -0.3987
 2049TIP3    H127706   0.667   2.708   0.620  1.4540  0.0398 -0.1204
 2049TIP3    H227707   0.656   2.806   0.504 -2.4862 -0.5850 -0.4172
 2050TIP3   OH227708   0.947   3.562   0.898 -0.2189  1.0905  0.4105
 2050TIP3    H127709   0.965   3.627   0.830  1.4080  1.2621  0.9547
 2050TIP3    H227710   0.938   3.614   0.978 -1.4510  0.8295  0.4671
 2051TIP3   OH227711   1.762   1.140   1.864  0.4163  0.5295  0.1143
 2051TIP3    H127712   1.760   1.226   1.905 -1.3072 -0.0025  1.2262
 2051TIP3    H227713   1.774   1.079   1.936 -2.6895 -0.4245 -0.0487
 2052TIP3   OH227714   6.204   1.029   8.286  0.0219  0.5463 -0.1442
 2052TIP3    H127715   6.232   1.000   8.200 -0.4253  3.2783 -1.3006
 2052TIP3    H227716   6.122   0.982   8.302  1.8977 -2.8140  0.5646
 2053TIP3   OH227717   4.844   1.296   8.624  0.2311  0.2745  0.6288
 2053TIP3    H127718   4.891   1.262   8.699 -0.3846 -0.7820  0.5629
 2053TIP3    H227719   4.757   1.256   8.630 -0.3889  1.5346  0.3082
 2054TIP3   OH227720   3.037   2.479   8.383  0.8463  0.2225 -0.3285
 2054TIP3    H127721   2.984   2.454   8.459  0.1964  0.4500 -0.7015
 2054TIP3    H227722   3.060   2.570   8.399 -2.3372  1.4756 -2.0737
 2055TIP3   OH227723   0.379   1.681   1.546 -0.1698  0.0047  0.2078
 2055TIP3    H127724   0.367   1.586   1.548  0.7312 -0.1307 -0.1436
 2055TIP3    H227725   0.436   1.699   1.621 -0.5846  0.3065  0.4512
 2056TIP3   OH227726   5.461   2.172   8.511 -0.0673 -0.1131 -0.1325
 2056TIP3    H127727   5.430   2.161   8.421 -1.1857 -0.6885  0.3097
 2056TIP3    H227728   5.387   2.145   8.565  1.3513 -2.0813  0.9661
 2057TIP3   OH227729   6.797   0.496   8.487  0.5614  0.0651 -0.4021
 2057TIP3    H127730   6.746   0.564   8.443 -1.7090 -1.1065  0.2359
 2057TIP3    H227731   6.801   0.524   8.578  0.7589 -0.0191 -0.3851
 2058TIP3   OH227732   6.313   3.676   8.051 -0.1832  0.4084 -0.2420
 2058TIP3    H127733   6.372   3.613   8.091  1.8898  3.5921  2.1540
 2058TIP3    H227734   6.239   3.623   8.019  1.1896 -3.1029  1.8888
 2059TIP3   OH227735   5.985   4.681   8.639 -0.7768  0.5782  0.5810
 2059TIP3    H127736   5.900   4.650   8.668 -1.7571  0.8432 -1.7642
 2059TIP3    H227737   6.023   4.606   8.593 -1.2766  1.4441 -1.3427
 2060TIP3   OH227738   5.570   2.766   7.100  0.2977  0.4036 -0.0592
 2060TIP3    H127739   5.615   2.703   7.044  1.5268  1.6419 -0.5167
 2060TIP3    H227740   5.499   2.800   7.046  0.1090 -0.0165 -0.0776
 2061TIP3   OH227741   0.077   3.909   6.846  0.1023 -0.2833 -0.7022
 2061TIP3    H127742   0.098   3.980   6.786  0.5748  1.2085  1.1492
 2061TIP3    H227743   0.161   3.880   6.881 -0.2913  1.0049  1.5156
 2062TIP3   OH227744   1.993   1.635   0.992  0.3308  0.0959  0.5518
 2062TIP3    H127745   2.054   1.595   0.930 -0.4235 -0.4009  0.1168
 2062TIP3    H227746   1.939   1.563   1.023  0.0205  0.5118  0.9957
 2063TIP3   OH227747   5.152   5.548   0.397 -0.5085 -0.1290  0.0863
 2063TIP3    H127748   5.129   5.455   0.391  0.7727 -0.6800  2.3898
 2063TIP3    H227749   5.247   5.548   0.405 -0.5388  1.3499  0.7271
 2064TIP3   OH227750   1.207   3.815   6.503  0.8851  0.5043  0.0441
 2064TIP3    H127751   1.254   3.833   6.422 -0.4522  1.3996 -0.5839
 2064TIP3    H227752   1.161   3.733   6.486  0.4683  0.7797 -0.1896
 2065TIP3   OH227753   0.257   1.526   7.552  0.2031  0.0523  0.2004
 2065TIP3    H127754   0.324   1.566   7.607  1.1505 -0.0396 -0.8622
 2065TIP3    H227755   0.224   1.453   7.604  1.6156 -0.4892  0.3706
 2066TIP3   OH227756   2.524   4.735   1.240 -0.7399  0.1495  0.2947
 2066TIP3    H127757   2.521   4.672   1.312 -2.2076  0.6122  0.6607
 2066TIP3    H227758   2.488   4.688   1.165 -0.7010  0.1735  0.2610
 2067TIP3   OH227759   5.602   6.212   0.805  0.0432  0.8885 -0.0579
 2067TIP3    H127760   5.587   6.301   0.836  1.9155  1.1198  0.3281
 2067TIP3    H227761   5.616   6.221   0.711 -0.9188  0.8353 -0.2103
 2068TIP3   OH227762   4.090   3.385   0.306  0.4088 -0.3581  0.2843
 2068TIP3    H127763   3.999   3.404   0.286  0.9737  0.0012 -2.2477
 2068TIP3    H227764   4.133   3.470   0.310  1.0076 -0.5982 -0.6816
 2069TIP3   OH227765   5.185   6.159   0.700 -0.0364 -0.1786 -0.3041
 2069TIP3    H127766   5.107   6.161   0.645  0.0380  1.4976 -0.3804
 2069TIP3    H227767   5.258   6.154   0.638 -0.0262 -0.2006 -0.2901
 2070TIP3   OH227768   2.481   2.335   1.339  0.5432 -0.3057  0.5405
 2070TIP3    H127769   2.556   2.364   1.391 -0.0425 -0.7558  1.6712
 2070TIP3    H227770   2.519   2.309   1.255  1.2789  2.3271 -0.0479
 2071TIP3   OH227771   3.322   2.380   0.738 -0.5979  0.3335  0.3431
 2071TIP3    H127772   3.249   2.326   0.708 -0.9624  0.3284  1.1920
 2071TIP3    H227773   3.313   2.462   0.690 -0.0045 -0.3537 -1.0042
 2072TIP3   OH227774   5.423   0.687   7.827 -0.1819  0.5926  0.0422
 2072TIP3    H127775   5.477   0.634   7.886  2.9666  1.9021 -1.4512
 2072TIP3    H227776   5.462   0.674   7.741 -2.0442  1.9885 -1.0859
 2073TIP3   OH227777   4.288   5.495   0.872 -0.5558 -0.0648 -0.1419
 2073TIP3    H127778   4.303   5.568   0.812 -2.2295  0.6597  0.2450
 2073TIP3    H227779   4.357   5.432   0.851 -0.0062  0.9441 -1.5609
 2074TIP3   OH227780   1.869   5.494   0.950  0.3131  0.0845 -0.4756
 2074TIP3    H127781   1.858   5.588   0.969  0.2008  0.3788 -1.8472
 2074TIP3    H227782   1.823   5.482   0.867 -1.3506 -1.6123  0.6256
 2075TIP3   OH227783   3.542   2.573   0.302  0.1691 -0.3599  0.2690
 2075TIP3    H127784   3.549   2.659   0.343 -0.9956 -0.1373  0.0508
 2075TIP3    H227785   3.448   2.557   0.295  0.3422 -1.0110 -1.0099
 2076TIP3   OH227786   0.340   2.661   8.675  0.1540 -0.7372  0.1490
 2076TIP3    H127787   0.253   2.629   8.698 -0.4904  1.9604  1.9643
 2076TIP3    H227788   0.400   2.601   8.719 -0.8055 -1.8038  0.0463
 2077TIP3   OH227789   0.989   3.629   2.185  0.6359 -0.7679 -0.0505
 2077TIP3    H127790   1.026   3.547   2.152 -0.2524 -0.6289 -1.4869
 2077TIP3    H227791   0.962   3.676   2.106  3.5101  2.1428  0.4870
 2078TIP3   OH227792   5.384   4.537   7.818  0.2097 -0.1273  0.3753
 2078TIP3    H127793   5.432   4.564   7.740  1.0544  2.6295  1.7087
 2078TIP3    H227794   5.299   4.507   7.785  0.8050  0.2403 -1.6356
 2079TIP3   OH227795   5.156   2.162   8.618  0.0863  0.2544 -0.2244
 2079TIP3    H127796   5.106   2.244   8.620 -1.3431 -0.5572  2.5526
 2079TIP3    H227797   5.089   2.093   8.624  1.4031 -0.9842  0.9036
 2080TIP3   OH227798   4.639   4.018   0.111  0.2996 -0.0738 -0.2887
 2080TIP3    H127799   4.691   4.026   0.032  0.0561  0.3052 -0.4114
 2080TIP3    H227800   4.662   3.931   0.146  1.4869  0.3368 -0.0017
 2081TIP3   OH227801   2.876   3.925   0.559 -0.0723 -0.3333  0.3586
 2081TIP3    H127802   2.884   4.018   0.537  0.2291 -0.5279 -0.3798
 2081TIP3    H227803   2.794   3.920   0.609 -0.1862  0.3035  0.2482
 2082TIP3   OH227804   4.252   2.623   2.148 -0.9211 -0.3847 -0.2286
 2082TIP3    H127805   4.168   2.622   2.194 -0.0803  1.2068  1.4662
 2082TIP3    H227806   4.272   2.716   2.138  0.3925 -0.7455 -1.1019
 2083TIP3   OH227807   6.596   3.745   7.221 -0.5338 -0.2772 -0.1920
 2083TIP3    H127808   6.668   3.689   7.250  1.5920  1.9435 -0.8940
 2083TIP3    H227809   6.604   3.823   7.275 -2.1128  0.2607 -0.6847
 2084TIP3   OH227810   4.166   3.473   8.391  0.1451  0.3001 -0.0838
 2084TIP3    H127811   4.184   3.397   8.335  1.4102 -0.8107  1.7330
 2084TIP3    H227812   4.253   3.502   8.419 -0.4643  0.4318  1.7876
 2085TIP3   OH227813   6.195   0.490   1.238  0.4769 -0.0606  0.1814
 2085TIP3    H127814   6.198   0.439   1.319  0.6338  0.4429  0.4945
 2085TIP3    H227815   6.108   0.530   1.239  0.4704 -0.0745  0.0919
 2086TIP3   OH227816   2.609   0.808   7.458 -0.2837  0.2686 -0.0618
 2086TIP3    H127817   2.655   0.876   7.507 -3.2868  0.3151  3.0250
 2086TIP3    H227818   2.540   0.854   7.410 -0.8662 -0.3440  0.1695
 2087TIP3   OH227819   5.914   6.349   7.679  0.3530  0.7675 -0.4753
 2087TIP3    H127820   5.837   6.385   7.722 -1.2142 -1.1031 -1.5826
 2087TIP3    H227821   5.954   6.293   7.745 -0.3596  0.2179 -0.5020
 2088TIP3   OH227822   2.519   6.051   8.203  0.0767 -0.5141  0.2872
 2088TIP3    H127823   2.568   6.005   8.135 -1.3892  0.5748 -1.6371
 2088TIP3    H227824   2.586   6.093   8.257  1.3193 -0.5085 -1.1787
 2089TIP3   OH227825   5.253   5.333   7.640  0.2341 -0.0318  0.3885
 2089TIP3    H127826   5.160   5.346   7.623  0.8112  2.0680 -1.6263
 2089TIP3    H227827   5.297   5.373   7.565  2.7728 -1.3522  1.0527
 2090TIP3   OH227828   2.044   3.806   1.123  0.0004 -0.2717  0.4630
 2090TIP3    H127829   2.013   3.858   1.197 -0.4278  0.4581 -0.2074
 2090TIP3    H227830   2.132   3.840   1.105 -0.9424  1.5645 -1.1149
 2091TIP3   OH227831   4.396   0.139   2.126  0.3099 -0.3248 -0.4149
 2091TIP3    H127832   4.352   0.114   2.207 -0.4680  1.0812 -0.3653
 2091TIP3    H227833   4.399   0.059   2.074 -1.2370 -0.7435  0.1002
 2092TIP3   OH227834   2.182   3.002   8.591 -0.0947 -0.4227  0.3590
 2092TIP3    H127835   2.227   3.047   8.662 -0.3483 -3.2141  2.4921
 2092TIP3    H227836   2.242   2.933   8.565 -0.2461  0.2183 -1.8479
 2093TIP3   OH227837   1.646   0.072   1.358  0.4464  0.2342  0.0260
 2093TIP3    H127838   1.720   0.016   1.332  0.9006  0.9339 -0.2045
 2093TIP3    H227839   1.633   0.132   1.284 -1.0208 -0.5261 -0.3745
 2094TIP3   OH227840   5.340   3.243   1.635 -0.1031  0.1588  0.2709
 2094TIP3    H127841   5.411   3.226   1.697 -0.5917 -1.3328  0.4524
 2094TIP3    H227842   5.264   3.264   1.690 -0.4299 -0.7429  0.1668
 2095TIP3   OH227843   3.410   6.040   8.348 -0.4665  0.2005  0.0031
 2095TIP3    H127844   3.348   6.088   8.293  1.0309  0.6503 -1.3638
 2095TIP3    H227845   3.494   6.046   8.301  0.5119 -0.8193  1.5284
 2096TIP3   OH227846   4.158   2.273   1.399 -0.3990 -0.2625  0.3759
 2096TIP3    H127847   4.232   2.243   1.452  0.6001 -0.6337 -1.1825
 2096TIP3    H227848   4.193   2.281   1.311 -2.6681 -2.3756 -0.8417
 2097TIP3   OH227849   1.404   1.639   1.558  0.3744 -1.0316  0.2364
 2097TIP3    H127850   1.408   1.716   1.615  1.2848  0.2148 -1.4288
 2097TIP3    H227851   1.463   1.576   1.600  1.0641 -0.1275  0.6681
 2098TIP3   OH227852   3.404   5.039   8.633 -0.8103 -0.1431 -0.4643
 2098TIP3    H127853   3.381   4.947   8.641  0.8125 -0.6529 -1.3058
 2098TIP3    H227854   3.449   5.061   8.714  1.1423 -0.8411 -1.3181
 2099TIP3   OH227855   2.041   3.828   8.479 -0.0596 -0.0581  0.0361
 2099TIP3    H127856   2.040   3.922   8.463 -0.6845 -0.3050 -1.5785
 2099TIP3    H227857   2.016   3.789   8.395 -0.1618 -1.6526  0.7689
 2100TIP3   OH227858   4.006   4.289   7.016 -0.4097  0.4817  0.0186
 2100TIP3    H127859   4.096   4.309   6.993 -0.5351  3.1697  1.4487
 2100TIP3    H227860   4.010   4.262   7.108 -0.9437 -0.6846 -0.2846
 2101TIP3   OH227861   0.370   4.035   1.568 -0.3160 -0.0991  0.1202
 2101TIP3    H127862   0.427   3.964   1.537 -0.4106 -0.1957  0.1660
 2101TIP3    H227863   0.430   4.103   1.597 -0.2234 -0.1749  0.1072
 2102TIP3   OH227864   6.215   5.226   0.539 -0.2075  0.1401  0.0417
 2102TIP3    H127865   6.212   5.208   0.445 -2.1417  0.4467  0.0139
 2102TIP3    H227866   6.211   5.140   0.580  2.0402 -0.1049 -0.1003
 2103TIP3   OH227867   1.585   0.614   8.669 -0.2542 -0.2179  0.0825
 2103TIP3    H127868   1.631   0.591   8.750 -0.1410  0.9884  0.3680
 2103TIP3    H227869   1.635   0.569   8.600  0.7466  0.2354  0.4975
 2104TIP3   OH227870   2.134   5.130   1.385 -0.1487 -0.2524 -0.0898
 2104TIP3    H127871   2.148   5.093   1.472 -0.3686  0.0953  0.0917
 2104TIP3    H227872   2.222   5.135   1.347  0.3593  2.3527  1.2252
 2105TIP3   OH227873   4.534   2.590   5.752  0.6792  0.4186  0.2862
 2105TIP3    H127874   4.455   2.607   5.701  0.6977  0.7702  0.3671
 2105TIP3    H227875   4.554   2.674   5.794  1.4344  0.4938 -0.2032
 2106TIP3   OH227876   4.591   0.466   8.551 -0.5238  0.2089  0.6346
 2106TIP3    H127877   4.678   0.476   8.590 -0.1224 -0.0162 -0.1734
 2106TIP3    H227878   4.533   0.515   8.608  0.4149  1.9333  0.1776
 2107TIP3   OH227879   2.388   5.152   6.796 -0.1321  0.0109 -0.3781
 2107TIP3    H127880   2.450   5.095   6.841  0.7985  0.3878 -1.1533
 2107TIP3    H227881   2.326   5.091   6.755  1.1113 -0.5063 -1.5747
 2108TIP3   OH227882   5.335   6.688   7.599  0.1229  0.1733  0.3016
 2108TIP3    H127883   5.371   6.692   7.510  0.6790 -2.6114  0.3143
 2108TIP3    H227884   5.293   6.773   7.611  0.9875  1.0625 -2.1948
 2109TIP3   OH227885   2.403   2.467   7.552 -0.4125 -0.2065 -0.2642
 2109TIP3    H127886   2.381   2.374   7.557 -0.5853 -0.1164  0.8335
 2109TIP3    H227887   2.496   2.468   7.532 -0.0932 -0.6408  1.0878
 2110TIP3   OH227888   5.896   4.767   0.435 -0.0778 -0.6218  1.1294
 2110TIP3    H127889   5.990   4.784   0.429 -0.5476  2.0669 -0.1239
 2110TIP3    H227890   5.866   4.821   0.509 -0.5587 -2.1453  2.1020
 2111TIP3   OH227891   1.879   5.570   7.694  0.1285 -0.2510 -0.4400
 2111TIP3    H127892   1.931   5.631   7.746  1.2514 -1.1416 -0.4872
 2111TIP3    H227893   1.828   5.626   7.636  1.1336  0.6610 -0.4763
 2112TIP3   OH227894   3.846   6.719   8.060  0.0940  0.1383  0.2679
 2112TIP3    H127895   3.925   6.774   8.057  0.3992 -0.3371 -0.6986
 2112TIP3    H227896   3.797   6.754   8.134 -0.2984  2.5462 -1.0024
 2113TIP3   OH227897   6.864   6.487   0.422  0.5757  0.3351 -0.0704
 2113TIP3    H127898   6.801   6.549   0.384  0.4706  0.6586  0.6184
 2113TIP3    H227899   6.876   6.517   0.512  0.1387 -0.9536  0.4397
 2114TIP3   OH227900   4.997   6.159   7.457 -0.0611  0.2943 -0.1251
 2114TIP3    H127901   5.056   6.090   7.490  0.0792  0.9799  1.1365
 2114TIP3    H227902   4.937   6.175   7.530 -0.2195  1.3574 -0.4802
 2115TIP3   OH227903   5.349   0.574   7.190 -0.0716  0.0047 -0.3344
 2115TIP3    H127904   5.401   0.646   7.154 -0.3333  0.5560  0.3624
 2115TIP3    H227905   5.296   0.543   7.117 -0.3542  0.8832 -0.5092
 2116TIP3   OH227906   4.809   2.564   8.454 -0.0823  0.0302  0.2295
 2116TIP3    H127907   4.721   2.528   8.441 -0.5358  1.5341 -1.1612
 2116TIP3    H227908   4.794   2.640   8.510  0.0413  1.3459 -1.4571
 2117TIP3   OH227909   2.949   2.834   0.016 -0.1517  0.2326 -0.0246
 2117TIP3    H127910   2.872   2.786   0.047  0.6103 -1.2328 -0.3300
 2117TIP3    H227911   2.992   2.865   0.096 -0.3507 -0.0682  0.2006
 2118TIP3   OH227912   5.408   2.813   6.511  0.4895 -0.5209 -0.4058
 2118TIP3    H127913   5.487   2.803   6.565  1.2072 -0.8737 -1.4807
 2118TIP3    H227914   5.441   2.838   6.425 -0.5383 -1.1130 -0.9991
 2119TIP3   OH227915   3.530   3.702   1.220  0.5321 -0.2507  0.4854
 2119TIP3    H127916   3.447   3.748   1.210  0.1344 -1.0201  0.0926
 2119TIP3    H227917   3.580   3.753   1.284  1.3711  2.4367 -2.1077
 2120TIP3   OH227918   3.682   1.555   0.130  0.0991  0.3171 -0.0325
 2120TIP3    H127919   3.738   1.505   0.070  0.4279  0.3358  0.2601
 2120TIP3    H227920   3.608   1.582   0.076  1.2163  1.8076 -0.8770
 2121TIP3   OH227921   0.594   5.253   6.327  0.1131 -0.8019  0.4727
 2121TIP3    H127922   0.687   5.270   6.310  0.4904 -0.2246  2.7952
 2121TIP3    H227923   0.550   5.334   6.300  0.7699  0.3544  2.6515
 2122TIP3   OH227924   3.348   5.762   7.291  0.0407 -0.2635  0.2479
 2122TIP3    H127925   3.392   5.742   7.373  1.2982  2.7442  0.4348
 2122TIP3    H227926   3.419   5.773   7.227 -0.8424 -1.2477 -0.9661
 2123TIP3   OH227927   2.038   5.775   6.898 -0.2874  0.2246  0.0228
 2123TIP3    H127928   2.067   5.686   6.879  1.1217  0.1165  2.2750
 2123TIP3    H227929   1.989   5.802   6.820 -0.3034 -2.3022 -0.9268
 2124TIP3   OH227930   1.772   0.364   2.032 -0.0259 -0.1615 -0.0520
 2124TIP3    H127931   1.749   0.280   1.992 -0.5452  0.2560 -0.6539
 2124TIP3    H227932   1.689   0.412   2.036  0.3713  0.5607 -0.2948
 2125TIP3   OH227933   4.459   6.705   7.894  0.1353 -0.5929 -0.1680
 2125TIP3    H127934   4.552   6.715   7.918  0.2896  1.4262 -1.3629
 2125TIP3    H227935   4.459   6.696   7.799 -0.8892 -0.4898 -0.1915
 2126TIP3   OH227936   2.960   3.702   0.337 -0.4331 -0.1167  0.0781
 2126TIP3    H127937   2.920   3.767   0.395 -0.8617 -0.5567  0.2812
 2126TIP3    H227938   2.983   3.629   0.395  1.9961  0.6895  0.2254
 2127TIP3   OH227939   3.599   2.593   1.031 -0.0960  0.5970 -0.1061
 2127TIP3    H127940   3.686   2.562   1.056  0.4522  2.9206  1.1216
 2127TIP3    H227941   3.548   2.513   1.018  1.6056 -0.8039  1.3275
 2128TIP3   OH227942   2.493   5.706   1.955  0.9178 -0.0624  0.1820
 2128TIP3    H127943   2.437   5.758   1.899  0.0283 -0.2593  0.8662
 2128TIP3    H227944   2.513   5.763   2.029 -0.1663 -0.7035  0.9962
 2129TIP3   OH227945   2.846   2.840   7.486  0.2513  0.1019 -0.3370
 2129TIP3    H127946   2.924   2.799   7.449  1.2228  1.8313 -0.3387
 2129TIP3    H227947   2.827   2.790   7.565  1.4310 -0.2927 -0.2868
 2130TIP3   OH227948   3.497   4.025   6.694  0.3457 -0.2599 -0.2548
 2130TIP3    H127949   3.449   3.943   6.707 -0.8993  0.4474 -0.2376
 2130TIP3    H227950   3.472   4.079   6.769  1.5378 -0.0178 -0.0066
 2131TIP3   OH227951   4.140   0.239   2.014 -0.0721  0.2957  0.1747
 2131TIP3    H127952   4.218   0.203   2.056  0.1861  1.4005  0.6798
 2131TIP3    H227953   4.159   0.332   2.003 -0.9563  0.4080 -0.5408
 2132TIP3   OH227954   5.112   3.976   1.864 -0.5354 -0.2951  0.4173
 2132TIP3    H127955   5.165   4.037   1.914 -1.4503 -0.7111  1.9719
 2132TIP3    H227956   5.175   3.919   1.819  0.3079  0.8918  0.0665
 2133TIP3   OH227957   0.355   1.412   1.537  0.3848  0.5334  0.2959
 2133TIP3    H127958   0.404   1.330   1.538  1.5894  1.2370  1.1117
 2133TIP3    H227959   0.284   1.396   1.475  3.1369  0.3423 -3.0681
 2134TIP3   OH227960   1.191   4.590   7.484  0.2011 -0.2631 -0.4929
 2134TIP3    H127961   1.267   4.623   7.532  0.1422  0.2488 -0.7493
 2134TIP3    H227962   1.214   4.602   7.392  0.3287 -1.2723 -0.6044
 2135TIP3   OH227963   1.198   5.764   0.731  0.3628  0.1651 -0.4560
 2135TIP3    H127964   1.166   5.682   0.768  1.0305  0.8642  1.7988
 2135TIP3    H227965   1.186   5.754   0.636 -2.7745 -1.1500 -0.0242
 2136TIP3   OH227966   5.483   6.767   8.177  0.5479 -0.0072  0.3177
 2136TIP3    H127967   5.456   6.770   8.269  0.4411  0.4834  0.2714
 2136TIP3    H227968   5.421   6.705   8.137  0.5434 -0.1616  0.5569
 2137TIP3   OH227969   3.350   3.944   1.269 -0.0627 -0.3248  0.9269
 2137TIP3    H127970   3.393   3.916   1.350 -0.3244 -0.9442  0.8536
 2137TIP3    H227971   3.317   4.032   1.289 -0.5976 -0.6881  1.6694
 2138TIP3   OH227972   0.210   2.433   1.414  0.0698 -0.0334  0.2141
 2138TIP3    H127973   0.276   2.390   1.359 -0.9940 -0.3808 -0.8177
 2138TIP3    H227974   0.219   2.391   1.499  1.0904 -0.1687  0.0532
 2139TIP3   OH227975   4.145   4.059   7.606  0.0473 -0.3566  0.2376
 2139TIP3    H127976   4.123   4.059   7.699  0.0890  0.8912  0.2703
 2139TIP3    H227977   4.177   4.148   7.590  0.4315 -0.6870 -0.8777
 2140TIP3   OH227978   6.006   3.140   8.628  0.4668 -0.3074  0.4799
 2140TIP3    H127979   6.023   3.049   8.651  0.9710 -0.2388  0.4069
 2140TIP3    H227980   5.981   3.138   8.536 -2.7950 -0.7218  1.2673
 2141TIP3   OH227981   1.719   1.325   7.001  0.1953  0.2517  0.3906
 2141TIP3    H127982   1.786   1.258   7.013  0.9039  0.8992  0.1088
 2141TIP3    H227983   1.676   1.302   6.918  0.9144  0.5491 -0.0682
 2142TIP3   OH227984   6.381   6.754   0.506  0.5302  0.0227 -0.5086
 2142TIP3    H127985   6.341   6.702   0.436  1.1807  0.7770 -1.4650
 2142TIP3    H227986   6.426   6.689   0.560 -0.5287 -0.6436 -0.3931
 2143TIP3   OH227987   0.218   3.518   0.894 -0.1813 -0.5736  0.3187
 2143TIP3    H127988   0.174   3.434   0.883 -0.3212 -0.4806  0.1804
 2143TIP3    H227989   0.278   3.503   0.968  0.0139 -0.8838  0.1050
 2144TIP3   OH227990   1.987   5.386   1.302  0.0277 -0.2775 -0.0695
 2144TIP3    H127991   1.932   5.464   1.309  0.1305 -0.1678 -0.4549
 2144TIP3    H227992   2.048   5.393   1.375 -0.4479 -0.3829  0.3414
 2145TIP3   OH227993   0.485   6.571   1.921  0.7535  0.8510 -0.1240
 2145TIP3    H127994   0.405   6.584   1.973  0.1264  0.6302 -1.0125
 2145TIP3    H227995   0.489   6.648   1.864  0.9129  0.6245 -0.4164
 2146TIP3   OH227996   6.578   2.189   0.835 -0.3574  0.3880  0.4603
 2146TIP3    H127997   6.590   2.186   0.930  0.4999 -0.0236  0.3484
 2146TIP3    H227998   6.575   2.097   0.808 -0.7676  0.4999  0.1061
 2147TIP3   OH227999   6.737   1.556   8.508 -0.2482 -0.7468 -0.6471
 2147TIP3    H128000   6.693   1.637   8.535 -0.8120 -0.6803 -1.7275
 2147TIP3    H228001   6.684   1.486   8.547 -0.7240 -0.6331 -1.0725
 2148TIP3   OH228002   0.043   4.426   7.461  0.2912  0.0144 -0.2416
 2148TIP3    H128003   0.122   4.460   7.503 -0.0834 -0.6568  1.0653
 2148TIP3    H228004   0.022   4.490   7.393 -0.5597  2.6539  2.2772
 2149TIP3   OH228005   6.772   6.820   2.290 -0.1306  0.6576  0.2044
 2149TIP3    H128006   6.804   6.823   2.381 -1.2145  0.9112  0.5971
 2149TIP3    H228007   6.749   6.729   2.276  0.3279  0.5600  0.0758
 2150TIP3   OH228008   5.928   5.507   8.459 -0.3676  0.0673  0.5017
 2150TIP3    H128009   5.883   5.482   8.378 -0.4252  0.4924  0.4001
 2150TIP3    H228010   6.005   5.451   8.461  0.1910  0.7698 -0.3831
 2151TIP3   OH228011   2.328   0.349   1.851  0.8747 -0.3055  0.4838
 2151TIP3    H128012   2.355   0.312   1.934 -0.8522 -0.4845  0.9961
 2151TIP3    H228013   2.318   0.443   1.868 -0.8864 -0.5345  0.9164
 2152TIP3   OH228014   2.842   4.802   7.464  0.7159 -0.4121 -0.3678
 2152TIP3    H128015   2.908   4.856   7.420 -0.6427  1.8444  0.1944
 2152TIP3    H228016   2.768   4.861   7.477  0.1412 -1.6309  2.7514
 2153TIP3   OH228017   4.495   0.340   7.464 -0.5727  0.3081  0.0037
 2153TIP3    H128018   4.482   0.362   7.556  1.4838 -0.0828  0.4383
 2153TIP3    H228019   4.439   0.401   7.417 -0.9806  1.1223  1.4690
 2154TIP3   OH228020   2.730   5.140   7.678  0.4927  0.1754  0.3997
 2154TIP3    H128021   2.724   5.197   7.754 -0.7712 -0.2260  0.6202
 2154TIP3    H228022   2.824   5.129   7.664  0.7455  1.0527  1.2862
 2155TIP3   OH228023   4.363   5.653   8.063 -0.3845 -0.2356  0.1769
 2155TIP3    H128024   4.331   5.632   7.975 -0.5114 -0.7639  0.3446
 2155TIP3    H228025   4.332   5.580   8.118  1.2861 -0.8955  0.3033
 2156TIP3   OH228026   2.428   0.176   1.373 -0.3215  0.3472  0.2304
 2156TIP3    H128027   2.522   0.166   1.360 -0.6020 -2.6024 -0.3403
 2156TIP3    H228028   2.396   0.218   1.293  0.3224 -0.2616 -0.3552
 2157TIP3   OH228029   1.806   1.161   7.266 -0.3621 -0.1263  0.3894
 2157TIP3    H128030   1.749   1.232   7.296  0.6888  1.2886 -0.7873
 2157TIP3    H228031   1.754   1.081   7.278 -1.7220  0.8636  1.4128
 2158TIP3   OH228032   5.831   1.433   6.817  0.4580  0.0527 -0.0525
 2158TIP3    H128033   5.924   1.448   6.830  0.8809 -1.8065 -0.5844
 2158TIP3    H228034   5.826   1.378   6.738 -0.9030 -1.6894  1.1707
 2159TIP3   OH228035   6.617   2.230   1.094  0.0536 -0.1226  0.3555
 2159TIP3    H128036   6.556   2.260   1.162 -0.7377  1.4150 -0.9597
 2159TIP3    H228037   6.691   2.289   1.100 -0.8554  1.2666 -1.2912
 2160TIP3   OH228038   1.140   1.203   7.006 -0.5893 -0.9760 -0.2694
 2160TIP3    H128039   1.206   1.257   6.962  0.2047 -1.4290  0.3370
 2160TIP3    H228040   1.190   1.146   7.064 -1.6567  0.2585  1.9721
 2161TIP3   OH228041   6.578   1.184   1.517 -0.0918  0.3054 -0.4824
 2161TIP3    H128042   6.557   1.269   1.478 -0.4710  0.0220 -0.9066
 2161TIP3    H228043   6.548   1.191   1.607 -1.5357  0.1061 -0.9192
 2162TIP3   OH228044   5.635   2.425   8.178 -1.1063 -0.4346  0.1213
 2162TIP3    H128045   5.550   2.385   8.194 -0.5975 -1.5962  0.0187
 2162TIP3    H228046   5.661   2.393   8.092 -0.6994  0.1514  0.0217
 2163TIP3   OH228047   0.473   4.959   0.117  0.3789  0.3498  0.1112
 2163TIP3    H128048   0.382   4.987   0.125  0.1886  0.5641 -2.2196
 2163TIP3    H228049   0.523   5.040   0.112  0.9478  0.2722  2.8503
 2164TIP3   OH228050   2.552   5.258   6.609  0.3291 -0.1701  0.0027
 2164TIP3    H128051   2.496   5.224   6.678  0.4699 -1.7148 -0.5921
 2164TIP3    H228052   2.629   5.201   6.610  0.2719 -0.3194 -1.4883
 2165TIP3   OH228053   6.462   4.440   6.530  0.2915 -0.1537  0.7181
 2165TIP3    H128054   6.477   4.529   6.561  2.1265 -0.3308  0.4679
 2165TIP3    H228055   6.368   4.425   6.542  0.2742  1.1457  2.4757
 2166TIP3   OH228056   2.912   4.198   6.919  0.4500  0.2615 -0.1654
 2166TIP3    H128057   2.891   4.278   6.871  2.2035  2.0337  1.7798
 2166TIP3    H228058   2.996   4.169   6.882  0.1211 -0.3440 -0.4482
 2167TIP3   OH228059   6.658   0.031   0.795  0.1990  0.0075  0.3459
 2167TIP3    H128060   6.745   0.009   0.828 -0.0113  0.1227  1.0022
 2167TIP3    H228061   6.669   0.117   0.755  0.4232 -0.0564  0.2662
 2168TIP3   OH228062   3.729   2.529   1.372 -0.5915 -0.5112  0.1851
 2168TIP3    H128063   3.753   2.564   1.457 -0.5935  0.4305 -0.1938
 2168TIP3    H228064   3.648   2.479   1.388 -0.1877 -0.9615  0.8577
 2169TIP3   OH228065   3.517   2.306   0.497  0.0722  0.1334 -0.0278
 2169TIP3    H128066   3.581   2.359   0.448 -1.0047  0.9267 -0.6187
 2169TIP3    H228067   3.458   2.370   0.537 -0.1784 -0.5775  0.7719
 2170TIP3   OH228068   5.694   0.315   1.305 -0.4950  0.4316  0.4505
 2170TIP3    H128069   5.688   0.395   1.252 -1.5714 -0.8758 -1.5314
 2170TIP3    H228070   5.625   0.325   1.371 -0.5902  1.1477  0.2554
 2171TIP3   OH228071   2.866   3.614   8.296 -0.7172 -0.4025 -0.1327
 2171TIP3    H128072   2.915   3.696   8.303 -0.7978 -0.4434  1.1208
 2171TIP3    H228073   2.933   3.546   8.301 -0.8645 -0.4635  1.7560
 2172TIP3   OH228074   4.883   2.476   8.025  0.2394  0.1096  0.2906
 2172TIP3    H128075   4.847   2.549   8.076  0.3191 -0.8822  1.8400
 2172TIP3    H228076   4.940   2.430   8.087  1.2932 -0.4667 -1.0647
 2173TIP3   OH228077   4.734   3.134   1.136 -0.2759 -0.0345  0.0861
 2173TIP3    H128078   4.690   3.065   1.186  0.2063 -0.2121  0.2657
 2173TIP3    H228079   4.761   3.090   1.055 -1.9519  0.4913 -0.8078
 2174TIP3   OH228080   4.456   4.038   0.955 -0.6709 -0.2315 -0.1155
 2174TIP3    H128081   4.536   4.029   0.903 -0.6590 -0.3714 -0.0730
 2174TIP3    H228082   4.455   3.962   1.012  0.7758  1.3007  2.1076
 2175TIP3   OH228083   2.564   4.224   0.621 -0.6960  0.0133  0.4654
 2175TIP3    H128084   2.631   4.249   0.684 -0.6509 -0.1484  0.4826
 2175TIP3    H228085   2.542   4.305   0.576  1.5000 -0.3637 -1.4899
 2176TIP3   OH228086   1.675   2.474   1.012 -0.0111 -0.0919 -0.2298
 2176TIP3    H128087   1.630   2.552   1.045 -1.0580  0.0364 -1.8361
 2176TIP3    H228088   1.652   2.406   1.075  0.7343  0.8114  1.0719
 2177TIP3   OH228089   1.761   5.632   1.806  0.7283  1.1303  0.0529
 2177TIP3    H128090   1.831   5.677   1.853  0.6424 -0.3296  1.7022
 2177TIP3    H228091   1.780   5.539   1.820 -0.2470  0.6747 -1.4522
 2178TIP3   OH228092   1.622   2.272   1.544  0.4509  0.4372 -0.2296
 2178TIP3    H128093   1.616   2.255   1.638  0.1268 -1.5999 -0.5675
 2178TIP3    H228094   1.564   2.346   1.530  0.0972  0.4489  1.1056
 2179TIP3   OH228095   3.522   0.268   7.059 -0.6190 -0.6260 -0.3483
 2179TIP3    H128096   3.435   0.254   7.023 -1.1906  0.0756  0.7235
 2179TIP3    H228097   3.507   0.305   7.145  0.7511  0.0597 -0.3740
 2180TIP3   OH228098   6.128   0.607   7.771 -0.7015  0.1607  0.5955
 2180TIP3    H128099   6.078   0.622   7.851 -0.4703  1.7631  0.4657
 2180TIP3    H228100   6.062   0.579   7.707 -1.1380  0.4591  0.9104
 2181TIP3   OH228101   2.320   0.042   8.573  0.4654 -0.3915 -0.0945
 2181TIP3    H128102   2.303   0.134   8.593 -0.3072 -0.2532 -1.2608
 2181TIP3    H228103   2.380   0.044   8.499  1.8952 -0.8655  1.0067
 2182TIP3   OH228104   1.186   1.595   2.372  0.2473 -0.2596  0.1790
 2182TIP3    H128105   1.209   1.688   2.372  0.3148 -0.2120  2.4772
 2182TIP3    H228106   1.253   1.554   2.426  0.6474 -1.8045 -1.4042
 2183TIP3   OH228107   3.493   6.074   1.108 -0.4281  0.1279  0.0498
 2183TIP3    H128108   3.470   6.079   1.201  1.0846  0.7534  0.4089
 2183TIP3    H228109   3.571   6.129   1.099 -0.2705 -0.3072 -1.4990
 2184TIP3   OH228110   4.244   0.397   0.542 -0.2427 -0.2841 -0.7535
 2184TIP3    H128111   4.206   0.310   0.531 -1.2672 -0.4426  2.7733
 2184TIP3    H228112   4.173   0.451   0.577  1.3153  0.9075  0.7811
 2185TIP3   OH228113   0.091   6.057   7.057  0.0782  0.3921  0.0510
 2185TIP3    H128114   0.107   5.965   7.036  2.0726  0.3773  1.3307
 2185TIP3    H228115   0.122   6.106   6.981  1.2503  0.0643  0.2878
 2186TIP3   OH228116   3.027   3.982   8.646 -0.3989  0.3009 -0.1202
 2186TIP3    H128117   3.111   3.998   8.604 -0.3544  0.0320 -0.1353
 2186TIP3    H228118   3.015   3.887   8.642 -0.8629  0.3677 -0.4237
 2187TIP3   OH228119   6.764   1.332   2.655  0.3250 -0.0377  0.0475
 2187TIP3    H128120   6.744   1.410   2.604 -0.7263 -0.7643 -0.6864
 2187TIP3    H228121   6.797   1.269   2.591 -2.2372 -1.4185 -0.0333
 2188TIP3   OH228122   4.904   4.592   8.166 -0.2184  0.3037 -0.1703
 2188TIP3    H128123   4.948   4.512   8.136  0.2652  0.7615 -0.7099
 2188TIP3    H228124   4.899   4.646   8.087 -1.3336  0.4547 -0.0122
 2189TIP3   OH228125   5.802   0.956   0.018 -0.2456 -0.0838 -0.0463
 2189TIP3    H128126   5.797   0.977   0.111  0.3009  0.3771 -0.1110
 2189TIP3    H228127   5.860   1.024  -0.018  0.8844 -1.2147 -0.4298
 2190TIP3   OH228128   1.518   1.794   8.112  0.4810 -0.5794  0.0851
 2190TIP3    H128129   1.562   1.718   8.073  1.4597  0.8661 -1.8025
 2190TIP3    H228130   1.539   1.788   8.206  1.7840 -1.8265 -0.2492
 2191TIP3   OH228131   6.363   6.847   7.153  0.0406  0.1201  0.2237
 2191TIP3    H128132   6.436   6.811   7.201  0.2207 -0.1254 -0.2285
 2191TIP3    H228133   6.403   6.905   7.088 -0.1658  0.0234  0.0062
 2192TIP3   OH228134   5.397   2.256   0.431  0.2393  0.6875  0.1666
 2192TIP3    H128135   5.405   2.216   0.518  1.4558  2.2938  0.8538
 2192TIP3    H228136   5.365   2.344   0.448 -2.7813 -0.0061 -1.3415
 2193TIP3   OH228137   2.231   3.203   7.662  0.2193 -0.0558  0.1072
 2193TIP3    H128138   2.174   3.275   7.689  1.1357  0.7565 -0.0742
 2193TIP3    H228139   2.193   3.171   7.581  1.2104  1.9399 -1.2174
 2194TIP3   OH228140   2.203   2.363   1.449 -0.6009  0.1882  0.6183
 2194TIP3    H128141   2.290   2.346   1.413 -0.4508  1.4122  0.3349
 2194TIP3    H228142   2.162   2.277   1.455  0.7539 -0.4563  1.1085
 2195TIP3   OH228143   1.391   5.435   0.761 -0.4480  0.2410  0.0395
 2195TIP3    H128144   1.416   5.525   0.738 -0.5944  0.1738 -0.3886
 2195TIP3    H228145   1.471   5.384   0.747 -0.2691  0.3543  0.6045
 2196TIP3   OH228146   2.793   5.319   7.252  0.2200  0.0917 -0.3391
 2196TIP3    H128147   2.706   5.354   7.273 -0.1948 -1.0474 -0.0798
 2196TIP3    H228148   2.854   5.383   7.289 -0.5106 -0.1064  1.2670
 2197TIP3   OH228149   6.197   3.952   1.461  0.3315 -0.1848 -0.0749
 2197TIP3    H128150   6.169   3.863   1.436  0.6499 -0.6524  1.1425
 2197TIP3    H228151   6.284   3.940   1.498  1.4732  1.0181 -2.1923
 2198TIP3   OH228152   0.277   3.718   0.135  0.0693 -0.4389 -0.0429
 2198TIP3    H128153   0.348   3.683   0.189  1.2345  0.0174 -1.2185
 2198TIP3    H228154   0.312   3.716   0.046 -1.5435 -0.5322 -0.7093
 2199TIP3   OH228155   5.025   2.712   7.381 -0.0158  0.5607 -0.6564
 2199TIP3    H128156   4.942   2.689   7.424  0.9833  0.2511  1.2228
 2199TIP3    H228157   5.040   2.641   7.319  0.6637 -1.4863  1.6920
 2200TIP3   OH228158   0.677   4.109   7.689  0.8408 -0.3833 -0.4450
 2200TIP3    H128159   0.634   4.100   7.774  0.7978 -1.0268 -0.5265
 2200TIP3    H228160   0.647   4.194   7.656 -0.2556 -0.7451 -0.4322
 2201TIP3   OH228161   1.182   1.886   1.596 -0.3599 -0.0851 -0.0763
 2201TIP3    H128162   1.153   1.978   1.590  0.4045  0.1566 -0.1658
 2201TIP3    H228163   1.161   1.849   1.510  1.1431  0.5639 -0.7671
 2202TIP3   OH228164   5.386   3.203   0.731 -0.1171 -0.3254 -0.3623
 2202TIP3    H128165   5.453   3.143   0.764  0.0779  0.4765  0.7372
 2202TIP3    H228166   5.408   3.288   0.769 -0.9489  0.2507 -1.1197
 2203TIP3   OH228167   1.827   0.713   0.340 -0.0149 -0.3672 -0.3042
 2203TIP3    H128168   1.743   0.684   0.303 -0.3135 -0.2484  0.2686
 2203TIP3    H228169   1.893   0.662   0.293 -0.4741 -1.2480 -0.0086
 2204TIP3   OH228170   1.910   1.793   0.208  0.2001  0.6683 -0.1127
 2204TIP3    H128171   1.877   1.731   0.142  1.2694 -0.4856  0.3873
 2204TIP3    H228172   1.865   1.875   0.189 -1.7776 -0.4252 -0.4017
 2205TIP3   OH228173   1.289   2.258   1.314  0.1363 -0.1676  0.2539
 2205TIP3    H128174   1.363   2.209   1.277  0.5087 -0.7607  1.7082
 2205TIP3    H228175   1.243   2.294   1.238  1.2006 -0.8402 -0.7344
 2206TIP3   OH228176   6.431   4.558   7.102 -0.6312 -0.2459 -0.1604
 2206TIP3    H128177   6.357   4.617   7.095 -1.4504 -1.4243 -2.2339
 2206TIP3    H228178   6.505   4.607   7.065 -0.7250  0.3481  0.4223
 2207TIP3   OH228179   5.903   3.889   6.888  0.3049  0.3525  0.2460
 2207TIP3    H128180   5.856   3.972   6.896  0.1497  0.2302  0.6291
 2207TIP3    H228181   5.992   3.914   6.863 -0.1316  0.5539 -1.2053
 2208TIP3   OH228182   6.857   4.746   7.165  0.3091 -0.0537  0.2342
 2208TIP3    H128183   6.857   4.837   7.138  1.0444  0.9100  3.1434
 2208TIP3    H228184   6.949   4.720   7.165  0.3683  0.0584  1.8628
 2209TIP3   OH228185   3.597   4.397   8.168 -0.3017 -0.0415  0.1881
 2209TIP3    H128186   3.681   4.396   8.212 -0.0710  0.2269 -0.2374
 2209TIP3    H228187   3.552   4.318   8.198  1.2159 -1.7585 -1.7565
 2210TIP3   OH228188   5.199   6.453   7.112 -0.2299 -0.1095  0.1042
 2210TIP3    H128189   5.109   6.467   7.084 -0.1043  0.9747  0.1724
 2210TIP3    H228190   5.194   6.453   7.208 -0.4267 -2.1094  0.1210
 2211TIP3   OH228191   3.854   0.332   6.580 -0.1908 -0.0432  0.1706
 2211TIP3    H128192   3.818   0.348   6.492  0.6013  1.1516  0.0301
 2211TIP3    H228193   3.799   0.263   6.617 -0.3925 -0.7289 -1.3504
 2212TIP3   OH228194   6.737   6.543   2.193  0.3296  0.3661 -0.3654
 2212TIP3    H128195   6.810   6.483   2.208  1.1504  1.5758  0.8363
 2212TIP3    H228196   6.660   6.488   2.189  1.2076 -0.8758 -0.7164
 2213TIP3   OH228197   3.379   1.544   1.471  0.1563  0.0429  0.0074
 2213TIP3    H128198   3.414   1.531   1.383 -0.3087  0.3979 -0.2362
 2213TIP3    H228199   3.312   1.612   1.460  0.5492  0.5552  0.7469
 2214TIP3   OH228200   2.805   1.930   1.117  0.2222  0.0402  0.5005
 2214TIP3    H128201   2.818   2.013   1.071 -0.5043  0.6274  1.3292
 2214TIP3    H228202   2.757   1.876   1.054 -0.4875  0.7256  0.4288
 2215TIP3   OH228203   3.422   5.578   1.847  0.1775 -0.2395 -0.5285
 2215TIP3    H128204   3.349   5.531   1.886  1.0958 -0.2855  1.2550
 2215TIP3    H228205   3.408   5.669   1.872  1.7796 -0.5303  1.7078
 2216TIP3   OH228206   2.393   6.039   0.362 -0.4334  0.2311 -0.3756
 2216TIP3    H128207   2.456   6.105   0.334  0.0638 -0.5718 -1.2062
 2216TIP3    H228208   2.319   6.090   0.395  1.6919  1.2766  3.3961
 2217TIP3   OH228209   6.535   6.754   8.307 -0.0482  0.0023  0.2651
 2217TIP3    H128210   6.605   6.786   8.250  0.2432 -0.9062  0.0801
 2217TIP3    H228211   6.509   6.670   8.267 -1.4522  0.4582  0.1622
 2218TIP3   OH228212   0.506   1.556   0.353 -0.2828  0.0348  0.1547
 2218TIP3    H128213   0.424   1.604   0.363  0.1128  0.5293  1.1995
 2218TIP3    H228214   0.564   1.617   0.306 -0.6217 -0.4693 -0.9584
 2219TIP3   OH228215   2.614   0.608   0.851 -0.1145  0.0378  0.3225
 2219TIP3    H128216   2.552   0.584   0.920 -0.4889 -2.1930 -0.6878
 2219TIP3    H228217   2.638   0.698   0.870 -0.3620 -0.4220  3.2348
 2220TIP3   OH228218   1.389   0.709   6.944 -0.2107 -0.3372 -0.3731
 2220TIP3    H128219   1.436   0.630   6.972 -0.1081 -0.3600 -0.6105
 2220TIP3    H228220   1.296   0.684   6.946 -0.1922 -0.3900 -0.2138
 2221TIP3   OH228221   1.115   6.627   8.019  0.1840  0.4714  0.5637
 2221TIP3    H128222   1.202   6.604   7.986  0.2197 -1.6027  1.9028
 2221TIP3    H228223   1.131   6.698   8.082  0.5885  1.5630 -0.7090
 2222TIP3   OH228224   0.188   5.155   1.594 -0.0538 -0.6381 -0.3588
 2222TIP3    H128225   0.110   5.123   1.549 -0.7832 -1.8005  1.6169
 2222TIP3    H228226   0.198   5.097   1.670  2.1895  0.0742 -0.0429
 2223TIP3   OH228227   1.791   3.458   0.008  0.2784  0.2841 -0.1848
 2223TIP3    H128228   1.776   3.443  -0.085  0.3260  0.9214 -0.2968
 2223TIP3    H228229   1.765   3.549   0.023  2.2820  0.8896 -0.0281
 2224TIP3   OH228230   3.750   1.799   1.453 -0.0360  0.3933  0.0875
 2224TIP3    H128231   3.695   1.830   1.381  2.1809  0.5538 -1.6291
 2224TIP3    H228232   3.709   1.716   1.480 -0.4833 -0.0755 -1.8888
 2225TIP3   OH228233   4.125   5.178   7.861  0.2464  0.6689  0.5612
 2225TIP3    H128234   4.080   5.134   7.789 -0.1140  0.2061  1.0605
 2225TIP3    H228235   4.186   5.113   7.894  0.0232  0.6902  1.0194
 2226TIP3   OH228236   3.738   2.844   7.282  0.0345  0.7222 -0.0675
 2226TIP3    H128237   3.700   2.915   7.231  3.3876  1.7125 -1.5185
 2226TIP3    H228238   3.818   2.881   7.320  1.1600 -1.8575  0.3467
 2227TIP3   OH228239   6.834   0.513   0.779 -0.1960 -0.5108  0.1162
 2227TIP3    H128240   6.803   0.556   0.699 -1.0080  1.8131  1.5900
 2227TIP3    H228241   6.929   0.511   0.769  0.0435  2.8580  0.4166
 2228TIP3   OH228242   0.487   2.543   7.450 -0.1449  0.1776  0.0360
 2228TIP3    H128243   0.512   2.450   7.452 -0.8655 -0.0197 -0.0702
 2228TIP3    H228244   0.417   2.548   7.386 -1.1179  0.5363  1.0882
 2229TIP3   OH228245   4.144   3.041   6.131 -0.1705  0.5220 -0.1256
 2229TIP3    H128246   4.096   3.123   6.121 -0.6191  0.0628 -2.3060
 2229TIP3    H228247   4.079   2.980   6.168  0.1503  1.0937  1.4480
 2230TIP3   OH228248   1.920   1.284   0.456 -0.3519 -0.2062 -0.6084
 2230TIP3    H128249   1.901   1.190   0.449 -0.6920 -0.2799  1.0201
 2230TIP3    H228250   2.014   1.291   0.439 -0.0360 -1.0404  0.6389
 2231TIP3   OH228251   4.630   4.247   1.102 -0.0467 -0.6081  0.2845
 2231TIP3    H128252   4.643   4.154   1.087 -0.6947 -0.3389 -2.4213
 2231TIP3    H228253   4.719   4.283   1.107  0.2008 -1.2388  0.5837
 2232TIP3   OH228254   3.241   3.035   7.132 -0.2517 -0.2724 -0.0495
 2232TIP3    H128255   3.197   3.035   7.047  0.7237  2.8111 -0.6640
 2232TIP3    H228256   3.195   3.102   7.183  1.1562  0.1486  0.7126
 2233TIP3   OH228257   0.756   2.652   6.586  0.2618  0.2849  0.6075
 2233TIP3    H128258   0.683   2.713   6.588 -0.8684 -1.0322  1.8056
 2233TIP3    H228259   0.731   2.586   6.521  1.4717  1.0353 -0.6858
 2234TIP3   OH228260   0.925   5.173   8.135 -0.1316  0.0404 -0.4732
 2234TIP3    H128261   0.977   5.183   8.215  0.7077 -0.0591 -0.9955
 2234TIP3    H228262   0.888   5.085   8.141 -0.2004  0.0913 -0.1254
 2235TIP3   OH228263   5.958   6.694   1.739 -0.2760  0.0922 -0.1070
 2235TIP3    H128264   5.908   6.662   1.814  0.5279 -0.5443  0.1756
 2235TIP3    H228265   5.942   6.788   1.737  1.3013  0.4698  2.1033
 2236TIP3   OH228266   2.291   3.958   8.565  0.9922  0.0866 -0.0187
 2236TIP3    H128267   2.294   3.871   8.526  0.9064 -0.9949  2.2499
 2236TIP3    H228268   2.324   3.946   8.654 -3.4328  1.3816  2.0608
 2237TIP3   OH228269   6.668   3.050   0.235  0.3780 -0.1528 -0.3833
 2237TIP3    H128270   6.684   3.042   0.329 -0.2945 -0.1660 -0.2698
 2237TIP3    H228271   6.698   3.139   0.214 -1.6460  0.7446  0.3076
 2238TIP3   OH228272   2.964   4.357   6.215  0.0176 -0.3526 -0.2175
 2238TIP3    H128273   2.998   4.428   6.269  1.9038 -2.0823  1.0042
 2238TIP3    H228274   2.948   4.398   6.130  3.8829  1.0267 -0.5007
 2239TIP3   OH228275   1.796   4.710   6.606  0.1202 -0.7624 -0.0903
 2239TIP3    H128276   1.711   4.680   6.574  0.9409 -2.7728 -0.5623
 2239TIP3    H228277   1.775   4.763   6.683 -1.5679 -0.8381 -0.4529
 2240TIP3   OH228278   3.851   0.636   1.076  0.9733 -0.0434 -0.0423
 2240TIP3    H128279   3.923   0.579   1.104  0.9110 -0.5975 -0.9583
 2240TIP3    H228280   3.838   0.696   1.149  1.5068 -0.7626  0.6621
 2241TIP3   OH228281   1.434   0.130   8.614 -0.0309  0.1249  0.0837
 2241TIP3    H128282   1.408   0.077   8.690 -1.8027  2.0621  0.9280
 2241TIP3    H228283   1.489   0.199   8.651 -1.0680  1.2034 -0.3120
 2242TIP3   OH228284   5.104   0.932   7.741  0.0335  0.3513  0.1992
 2242TIP3    H128285   5.185   0.884   7.758 -0.0032 -0.8000 -2.3165
 2242TIP3    H228286   5.051   0.919   7.819  1.1262 -1.4108  0.6945
 2243TIP3   OH228287   1.159   4.049   7.991 -1.2513  0.1778 -0.5262
 2243TIP3    H128288   1.226   3.981   7.984 -0.1499  1.0618  0.7796
 2243TIP3    H228289   1.124   4.058   7.902 -0.5018 -1.1634 -0.9836
 2244TIP3   OH228290   0.230   1.291   0.568  0.1081 -0.3066  0.0095
 2244TIP3    H128291   0.260   1.202   0.582  2.0412  0.2319 -0.4067
 2244TIP3    H228292   0.264   1.340   0.643  0.1964  0.3079 -0.4162
 2245TIP3   OH228293   5.177   4.310   1.235 -0.0564  0.4698 -0.1289
 2245TIP3    H128294   5.252   4.369   1.226  0.1496  0.6221  2.0492
 2245TIP3    H228295   5.109   4.349   1.180 -0.1366  3.1918  1.6784
 2246TIP3   OH228296   4.564   5.290   6.960  0.1204 -0.4579  0.0279
 2246TIP3    H128297   4.591   5.375   6.995  0.2025 -0.5998  0.3179
 2246TIP3    H228298   4.481   5.272   7.004 -0.2040 -0.2452 -0.4977
 2247TIP3   OH228299   6.629   1.560   2.265  0.4065  0.0648 -0.6583
 2247TIP3    H128300   6.563   1.629   2.260  0.2279  0.0091  0.5004
 2247TIP3    H228301   6.590   1.485   2.220 -0.4993 -0.0938  0.3468
 2248TIP3   OH228302   1.962   6.182   6.605 -0.3333  0.0346  0.0401
 2248TIP3    H128303   2.029   6.241   6.570 -0.4543 -0.9927 -2.0874
 2248TIP3    H228304   1.882   6.207   6.559 -0.6221 -1.0315 -0.0571
 2249TIP3   OH228305   5.151   1.103   0.647  0.2123  0.3016  0.1531
 2249TIP3    H128306   5.066   1.094   0.689  0.5773 -0.2521  0.7878
 2249TIP3    H228307   5.139   1.175   0.584 -1.1984 -0.8874 -1.0060
 2250TIP3   OH228308   0.474   0.466   1.357  0.3303 -0.3496 -0.2289
 2250TIP3    H128309   0.566   0.446   1.377  0.4712  0.8641  0.4866
 2250TIP3    H228310   0.467   0.455   1.262  1.6946  1.2476 -0.5620
 2251TIP3   OH228311   1.446   5.641   0.127  0.0318 -0.0729  0.4827
 2251TIP3    H128312   1.470   5.655   0.218 -0.0850  3.4970  0.0903
 2251TIP3    H228313   1.355   5.610   0.130 -0.4170  1.2836  1.5691
 2252TIP3   OH228314   6.723   4.202   0.140 -0.0186 -0.0158  0.0853
 2252TIP3    H128315   6.758   4.180   0.054  0.1272 -2.1805  0.6512
 2252TIP3    H228316   6.628   4.191   0.131 -0.0073 -0.2034  0.1913
 2253TIP3   OH228317   4.243   5.619   2.614  0.2088  0.1894  0.1641
 2253TIP3    H128318   4.252   5.542   2.557 -0.8274 -0.0454  0.2853
 2253TIP3    H228319   4.229   5.582   2.701  1.7577  0.5491  0.5848
 2254TIP3   OH228320   0.906   5.218   6.895  0.2771 -0.4497  0.3741
 2254TIP3    H128321   0.850   5.183   6.825  0.9083 -0.0053 -0.3687
 2254TIP3    H228322   0.888   5.312   6.895 -1.1584 -0.6654  2.1344
 2255TIP3   OH228323   6.753   2.984   1.115 -0.2717 -0.3342  0.2060
 2255TIP3    H128324   6.800   2.902   1.129 -0.1974 -0.7543 -2.0461
 2255TIP3    H228325   6.661   2.958   1.111 -0.2781 -0.2578 -0.1573
 2256TIP3   OH228326   2.924   1.734   0.213  0.1354  0.7900  0.3249
 2256TIP3    H128327   3.007   1.720   0.167  1.1596 -0.3749  2.3612
 2256TIP3    H228328   2.885   1.809   0.170  1.8663  0.8688 -1.2377
 2257TIP3   OH228329   4.629   1.043   8.336  0.0096 -0.1616 -0.0174
 2257TIP3    H128330   4.564   1.112   8.324  0.8368  0.7680  0.7310
 2257TIP3    H228331   4.599   0.972   8.278 -0.6158  0.9760 -1.1350
 2258TIP3   OH228332   1.078   4.062   0.544 -0.3195 -0.0649  0.4265
 2258TIP3    H128333   1.053   4.113   0.621  0.9042  0.1107  0.7429
 2258TIP3    H228334   1.174   4.065   0.544 -0.2880  0.3535 -1.3877
 2259TIP3   OH228335   0.341   4.469   6.546  0.1349 -0.4658 -0.2580
 2259TIP3    H128336   0.371   4.379   6.529 -0.6636 -1.0997  1.4336
 2259TIP3    H228337   0.282   4.488   6.473 -0.6233 -1.7882 -0.0278
 2260TIP3   OH228338   3.352   0.052   0.553  0.5415 -0.6793 -0.0720
 2260TIP3    H128339   3.367   0.144   0.576  0.4553 -0.2862 -1.5046
 2260TIP3    H228340   3.364   0.049   0.458 -0.5763 -1.9371 -0.1920
 2261TIP3   OH228341   4.289   0.588   0.297  0.4264  0.3552  0.4560
 2261TIP3    H128342   4.301   0.518   0.362  0.8233  1.2419  1.3586
 2261TIP3    H228343   4.275   0.667   0.349 -3.9119  0.4079 -0.4491
 2262TIP3   OH228344   5.331   0.939   6.525  0.3707 -0.3853 -0.1205
 2262TIP3    H128345   5.319   0.858   6.475  0.7354  0.4258 -1.5775
 2262TIP3    H228346   5.281   1.004   6.476  1.1365  0.5452  0.3099
 2263TIP3   OH228347   4.566   6.185   8.336  0.4060  0.6133  0.6334
 2263TIP3    H128348   4.551   6.108   8.282 -2.4773 -0.2591  2.4584
 2263TIP3    H228349   4.491   6.242   8.319  0.2526  1.0296  2.4548
 2264TIP3   OH228350   5.402   4.362   0.804 -0.4333 -0.0392  0.2585
 2264TIP3    H128351   5.308   4.358   0.787 -0.8005  1.2319  1.8275
 2264TIP3    H228352   5.430   4.270   0.807 -1.4748 -0.4137 -0.8522
 2265TIP3   OH228353   4.336   6.466   1.479  0.8197 -0.1225 -0.7382
 2265TIP3    H128354   4.389   6.464   1.399  0.6546 -0.2910 -0.8437
 2265TIP3    H228355   4.380   6.405   1.538  1.4282  0.6395 -0.3896
 2266TIP3   OH228356   4.601   2.954   7.120  0.8338  0.4705 -0.1023
 2266TIP3    H128357   4.692   2.923   7.128  0.7281  0.1676 -0.0698
 2266TIP3    H228358   4.609   3.039   7.075  0.8738 -1.3010 -3.7931
 2267TIP3   OH228359   5.456   5.649   2.347 -0.3006 -0.4784  0.0908
 2267TIP3    H128360   5.482   5.558   2.360 -1.0244 -0.7827 -0.5134
 2267TIP3    H228361   5.390   5.645   2.278  0.9708  0.7133 -1.2403
 2268TIP3   OH228362   6.617   0.160   7.744  0.6807 -0.4323 -0.3247
 2268TIP3    H128363   6.553   0.141   7.675 -0.8914  0.3607  0.8457
 2268TIP3    H228364   6.632   0.076   7.787  0.5790 -0.6641 -0.7438
 2269TIP3   OH228365   4.679   2.237   8.208 -0.2003 -0.2381  0.1755
 2269TIP3    H128366   4.665   2.160   8.153  1.8496  0.7190 -1.8212
 2269TIP3    H228367   4.770   2.229   8.237 -0.4795  0.6018  1.3474
 2270TIP3   OH228368   3.525   1.870   1.268 -0.2954  0.0337  0.0953
 2270TIP3    H128369   3.507   1.947   1.214 -0.9226  0.0372  0.3023
 2270TIP3    H228370   3.498   1.796   1.213 -1.3478  0.0588  0.5523
 2271TIP3   OH228371   4.867   2.253   0.946  0.0964 -0.4177  0.5188
 2271TIP3    H128372   4.793   2.255   1.006 -0.8481 -0.0400 -0.6099
 2271TIP3    H228373   4.870   2.163   0.913 -0.8798 -0.0517 -0.6243
 2272TIP3   OH228374   2.170   4.816   0.704 -0.1249  0.0538 -0.3964
 2272TIP3    H128375   2.090   4.864   0.680 -1.3186 -2.0182 -0.7967
 2272TIP3    H228376   2.241   4.871   0.672 -1.3262  2.3057  0.5724
 2273TIP3   OH228377   4.745   6.459   0.542 -0.0442 -0.2418  0.1620
 2273TIP3    H128378   4.764   6.436   0.451 -1.7339 -0.8440 -0.0781
 2273TIP3    H228379   4.665   6.512   0.536 -0.3059 -0.4935  1.3260
 2274TIP3   OH228380   0.192   2.002   8.517  0.6298 -0.0535  0.1431
 2274TIP3    H128381   0.161   2.091   8.535 -1.2338 -0.4963 -0.6046
 2274TIP3    H228382   0.253   2.012   8.444 -0.2461  0.5425 -0.5318
 2275TIP3   OH228383   1.159   3.486   7.652 -0.5830  0.3444 -0.0367
 2275TIP3    H128384   1.153   3.514   7.743 -0.8556 -0.0095  0.0545
 2275TIP3    H228385   1.212   3.406   7.655 -2.4441 -0.9455  0.0928
 2276TIP3   OH228386   4.564   1.941   7.223 -0.3401  0.5142 -0.1659
 2276TIP3    H128387   4.542   1.925   7.315 -1.0255 -0.0672 -0.4224
 2276TIP3    H228388   4.635   1.881   7.204 -1.1184 -0.3685 -0.3815
 2277TIP3   OH228389   0.095   6.803   0.533 -0.1713  0.1860  0.0147
 2277TIP3    H128390   0.167   6.770   0.586  0.8189 -0.6388 -1.7487
 2277TIP3    H228391   0.135   6.872   0.479 -0.9348  0.3926 -0.3076
 2278TIP3   OH228392   0.613   2.349   2.493 -0.1087 -0.0951 -0.2434
 2278TIP3    H128393   0.528   2.389   2.473 -0.5725  0.1470  1.9307
 2278TIP3    H228394   0.667   2.421   2.526 -0.7100 -0.9560  2.9836
 2279TIP3   OH228395   5.699   3.846   1.165  0.1720  0.2045  0.2428
 2279TIP3    H128396   5.773   3.786   1.157  1.6379  1.9499  0.1725
 2279TIP3    H228397   5.738   3.928   1.195 -1.3205  2.0000 -2.3354
 2280TIP3   OH228398   2.190   4.289   6.290  0.5779 -0.2583  0.8585
 2280TIP3    H128399   2.188   4.251   6.202 -0.1285  0.7303  0.4293
 2280TIP3    H228400   2.144   4.224   6.344 -3.9570  1.4103 -0.5172
 2281TIP3   OH228401   0.798   1.309   0.613 -0.2787 -0.0935  0.8753
 2281TIP3    H128402   0.847   1.274   0.539  0.3224  0.9807  0.7392
 2281TIP3    H228403   0.794   1.237   0.676  1.9486 -0.0787  1.1041
 2282TIP3   OH228404   3.323   3.253   6.775  0.1385 -0.3170  0.2343
 2282TIP3    H128405   3.261   3.254   6.702  0.7527  1.0886 -0.3138
 2282TIP3    H228406   3.271   3.280   6.851 -0.6296 -2.3241  0.4701
 2283TIP3   OH228407   2.813   1.777   6.775 -0.0654  0.4786 -0.1551
 2283TIP3    H128408   2.755   1.837   6.822 -0.8845  0.4889 -1.1426
 2283TIP3    H228409   2.799   1.799   6.683  0.4531 -0.4898 -0.4665
 2284TIP3   OH228410   3.402   0.407   8.467 -0.5154 -0.2482 -0.5319
 2284TIP3    H128411   3.333   0.346   8.442  0.9296 -1.8897 -0.7180
 2284TIP3    H228412   3.451   0.361   8.535  0.5693  0.7392 -0.6175
 2285TIP3   OH228413   2.503   2.049   8.187  0.6314  0.4163 -0.3271
 2285TIP3    H128414   2.479   2.113   8.120  0.5775  1.3270  0.5502
 2285TIP3    H228415   2.544   1.978   8.138  1.5114  1.5206 -1.2353
 2286TIP3   OH228416   0.909   1.231   8.535  0.1037 -0.2342 -0.0116
 2286TIP3    H128417   0.823   1.189   8.540 -0.4247  0.9156  1.2388
 2286TIP3    H228418   0.895   1.308   8.480  0.1741  0.2729  0.6669
 2287TIP3   OH228419   5.299   2.714   5.876  0.0685  0.1736  0.4230
 2287TIP3    H128420   5.325   2.634   5.922 -0.8618 -0.7325 -0.5553
 2287TIP3    H228421   5.210   2.695   5.845  0.2208  1.2196 -0.7035
 2288TIP3   OH228422   1.682   6.725   1.086  0.2769  0.0664 -0.3949
 2288TIP3    H128423   1.687   6.798   1.025 -0.4210  0.2861 -0.1995
 2288TIP3    H228424   1.716   6.650   1.037 -2.2744 -0.2617 -1.8702
 2289TIP3   OH228425   1.545   0.680   0.688 -0.4230 -0.4648 -0.0161
 2289TIP3    H128426   1.502   0.684   0.603 -0.0796 -1.1517 -0.2277
 2289TIP3    H228427   1.472   0.676   0.751 -0.6721 -0.2760 -0.2904
 2290TIP3   OH228428   1.815   3.231   1.229 -0.6118 -0.7948 -0.7426
 2290TIP3    H128429   1.901   3.271   1.241 -0.2970 -1.7675  0.5806
 2290TIP3    H228430   1.771   3.285   1.163  1.5678 -1.1560 -2.6273
 2291TIP3   OH228431   2.878   4.562   6.925  0.4538  0.3194  0.3244
 2291TIP3    H128432   2.843   4.482   6.887  0.3084 -0.5670  2.2402
 2291TIP3    H228433   2.972   4.546   6.931  0.9182  1.5531 -2.0912
 2292TIP3   OH228434   6.006   3.171   0.636 -0.6042  0.4835  0.7727
 2292TIP3    H128435   5.950   3.223   0.693  0.4405 -0.4554  2.7685
 2292TIP3    H228436   5.969   3.083   0.641  0.3636  0.0946  1.1983
 2293TIP3   OH228437   0.917   0.379   1.259  0.6184 -0.4147  1.0486
 2293TIP3    H128438   0.989   0.417   1.310 -0.8576  2.3924  1.2468
 2293TIP3    H228439   0.947   0.384   1.168  0.5395  1.2450  1.0751
 2294TIP3   OH228440   5.473   6.160   1.405 -0.5644 -0.2325  0.2160
 2294TIP3    H128441   5.410   6.155   1.477 -1.1835 -1.2141 -0.3670
 2294TIP3    H228442   5.435   6.104   1.336  0.8253 -0.6612 -0.2360
 2295TIP3   OH228443   3.389   2.571   8.530 -0.0163  0.1265  0.3352
 2295TIP3    H128444   3.409   2.506   8.597 -0.8720  0.7978  1.2795
 2295TIP3    H228445   3.298   2.597   8.547 -0.7905 -0.7271 -2.0057
 2296TIP3   OH228446   3.130   3.559   7.184 -0.3178  0.0621  0.4646
 2296TIP3    H128447   3.094   3.481   7.141 -1.7826  1.7736 -1.6711
 2296TIP3    H228448   3.224   3.551   7.174 -0.4876 -1.0139 -0.5165
 2297TIP3   OH228449   0.817   2.101   7.283 -0.3781  0.3497  0.4870
 2297TIP3    H128450   0.754   2.061   7.343 -1.4244 -0.1440 -0.8880
 2297TIP3    H228451   0.764   2.138   7.213  0.8562 -2.4540 -2.1785
 2298TIP3   OH228452   0.805   4.997   2.182  0.6186  0.3677  0.3775
 2298TIP3    H128453   0.767   4.928   2.128  0.7492  1.7232 -1.5793
 2298TIP3    H228454   0.887   4.960   2.214  1.0438 -0.1673 -1.2410
 2299TIP3   OH228455   6.833   3.198   6.981  0.0346  0.0800 -0.4967
 2299TIP3    H128456   6.751   3.225   6.941 -0.1432  0.0649 -0.1496
 2299TIP3    H228457   6.899   3.258   6.946 -0.5622  1.9108  1.3111
 2300TIP3   OH228458   0.892   1.179   7.675  0.1209 -0.1065 -0.0733
 2300TIP3    H128459   0.943   1.104   7.703 -0.2437  0.2988  1.7909
 2300TIP3    H228460   0.953   1.253   7.678 -0.1664  0.1107  0.6602
 2301TIP3   OH228461   2.375   4.173   1.745  0.1454  0.1383 -0.4830
 2301TIP3    H128462   2.432   4.242   1.778  0.2581 -0.6199  0.9892
 2301TIP3    H228463   2.361   4.116   1.820  0.6078 -1.8295 -1.8372
 2302TIP3   OH228464   1.245   2.162   0.337 -0.0231  0.2934 -0.3249
 2302TIP3    H128465   1.315   2.228   0.340 -0.4444  0.7658 -0.7749
 2302TIP3    H228466   1.271   2.104   0.265  0.1272  0.2038 -0.2022
 2303TIP3   OH228467   4.272   0.814   0.446  0.5569  0.1763 -0.2183
 2303TIP3    H128468   4.250   0.853   0.530 -1.4939 -1.6631  0.1753
 2303TIP3    H228469   4.282   0.888   0.386 -1.8474  1.4097  0.7876
 2304TIP3   OH228470   3.023   1.986   1.672 -0.4626 -0.0447 -0.2979
 2304TIP3    H128471   3.119   1.987   1.668 -0.4643 -0.9174 -0.8829
 2304TIP3    H228472   2.998   1.920   1.608 -1.3735 -1.5254  1.5254
 2305TIP3   OH228473   5.666   3.019   0.616 -0.3509  0.5190 -0.2981
 2305TIP3    H128474   5.707   3.082   0.557  1.0829  0.9315  1.0736
 2305TIP3    H228475   5.619   2.959   0.558 -0.7969  2.1585 -1.7022
 2306TIP3   OH228476   1.397   1.300   0.695 -0.4383  0.0736  0.4031
 2306TIP3    H128477   1.458   1.279   0.625  0.5630  1.2964  0.8811
 2306TIP3    H228478   1.445   1.281   0.776 -1.2006 -0.3003  0.7831
 2307TIP3   OH228479   1.360   5.523   7.883 -0.2944 -0.0187 -0.1729
 2307TIP3    H128480   1.306   5.450   7.914  0.3510 -1.0567 -1.3841
 2307TIP3    H228481   1.400   5.490   7.802 -2.4707  2.7449 -2.5823
 2308TIP3   OH228482   2.313   6.050   1.756 -0.0596 -0.0389  0.3239
 2308TIP3    H128483   2.232   6.074   1.711 -0.3596 -1.0860  0.2627
 2308TIP3    H228484   2.288   6.043   1.848  0.1711  0.4993  0.4300
 2309TIP3   OH228485   1.633   4.542   1.377  0.1269 -0.3432 -0.0389
 2309TIP3    H128486   1.645   4.622   1.429 -2.0155 -0.4078  0.6670
 2309TIP3    H228487   1.651   4.471   1.439 -1.6031 -0.4109  0.4287
 2310TIP3   OH228488   3.836   2.573   7.476  0.2510  0.7029 -0.3724
 2310TIP3    H128489   3.905   2.507   7.474  0.2867  0.6755  0.9184
 2310TIP3    H228490   3.868   2.640   7.537 -0.7966  0.7523  0.1481
 2311TIP3   OH228491   4.463   3.159   8.672  0.0479 -0.1462  0.4657
 2311TIP3    H128492   4.413   3.131   8.748  0.6781 -0.2921  0.8338
 2311TIP3    H228493   4.509   3.081   8.644  1.5859  0.4144  1.3151
 2312TIP3   OH228494   5.069   3.391   7.194  0.6504 -0.0970 -0.5664
 2312TIP3    H128495   5.009   3.413   7.265  2.5731  0.6150  0.9461
 2312TIP3    H228496   5.031   3.314   7.152 -0.9487 -0.0562  0.7204
 2313TIP3   OH228497   6.499   4.840   6.576  0.0434 -0.6284  0.1324
 2313TIP3    H128498   6.555   4.900   6.527 -0.5377  0.5354  0.8461
 2313TIP3    H228499   6.556   4.806   6.645  0.0998 -0.0664  0.3686
 2314TIP3   OH228500   2.741   3.421   1.501  0.4798 -0.5450 -0.1115
 2314TIP3    H128501   2.747   3.515   1.522 -1.4967 -0.4605  0.2131
 2314TIP3    H228502   2.725   3.379   1.586 -0.4675 -0.9645 -0.4921
 2315TIP3   OH228503   0.735   6.087   7.681  0.2049 -0.0009 -0.1861
 2315TIP3    H128504   0.696   6.084   7.768  0.1445 -2.8842 -0.2199
 2315TIP3    H228505   0.827   6.066   7.695  0.8171  2.1749 -0.5960
 2316TIP3   OH228506   3.362   5.193   0.615  0.0560 -0.0997  0.1473
 2316TIP3    H128507   3.416   5.271   0.613 -0.0704  0.0175 -2.1259
 2316TIP3    H228508   3.420   5.122   0.588 -0.1274 -0.5694  0.9618
 2317TIP3   OH228509   2.911   4.460   0.931 -0.2788  0.1234 -0.2825
 2317TIP3    H128510   3.001   4.459   0.964 -0.0744  2.0686 -0.6937
 2317TIP3    H228511   2.907   4.536   0.874 -1.9565 -0.4480 -0.9831
 2318TIP3   OH228512   4.285   1.667   2.605 -0.0080  0.1688 -0.1714
 2318TIP3    H128513   4.381   1.663   2.597 -0.0760 -0.8853 -0.6838
 2318TIP3    H228514   4.256   1.703   2.522 -0.0187  1.3440  0.3283
 2319TIP3   OH228515   2.061   4.871   6.142 -0.2365  0.5290 -0.4580
 2319TIP3    H128516   2.090   4.781   6.132  0.2972  0.3740  1.7986
 2319TIP3    H228517   2.045   4.902   6.053  0.0883 -1.6073 -1.3101
 2320TIP3   OH228518   0.013   2.343   1.231 -0.2334 -0.1390  0.5780
 2320TIP3    H128519  -0.018   2.258   1.261  0.8096 -0.8149 -0.1878
 2320TIP3    H228520   0.073   2.372   1.299  1.1848 -1.1051 -0.2102
 2321TIP3   OH228521   4.744   5.537   1.176 -0.0970  0.0704 -0.4826
 2321TIP3    H128522   4.662   5.581   1.154 -0.2522  0.4666  0.8213
 2321TIP3    H228523   4.733   5.448   1.142 -1.3060 -0.0556  0.1905
 2322TIP3   OH228524   3.145   1.551   8.271 -0.1919 -0.5333 -0.1386
 2322TIP3    H128525   3.118   1.571   8.181  0.5754  0.7393 -0.1074
 2322TIP3    H228526   3.181   1.462   8.266 -1.8862 -1.2234 -0.6914
 2323TIP3   OH228527   4.275   0.030   0.760 -0.4401 -0.3554  0.2875
 2323TIP3    H128528   4.308  -0.042   0.708  0.0295  1.1510 -1.5950
 2323TIP3    H228529   4.216  -0.011   0.824  0.2594 -2.4210 -0.3426
 2324TIP3   OH228530   5.048   2.667   0.307 -0.1147  0.6766 -0.4352
 2324TIP3    H128531   5.076   2.652   0.216  0.1497 -0.2681 -0.2095
 2324TIP3    H228532   5.034   2.579   0.342 -1.2959  1.0696  0.1159
 2325TIP3   OH228533   3.838   6.734   8.385 -0.7795  0.1923 -0.4210
 2325TIP3    H128534   3.784   6.802   8.343 -0.6679 -0.4287 -1.6038
 2325TIP3    H228535   3.928   6.759   8.364 -0.7860 -1.1566 -2.2506
 2326TIP3   OH228536   1.935   1.785   1.363 -0.1479  0.0795  0.0480
 2326TIP3    H128537   1.889   1.860   1.325  0.8775 -0.0645 -1.6083
 2326TIP3    H228538   1.886   1.709   1.334  0.4055 -0.0088 -0.7028
 2327TIP3   OH228539   5.730   5.175   7.180  0.3883  0.7417  0.0491
 2327TIP3    H128540   5.671   5.148   7.110  0.4159 -0.6357  0.5235
 2327TIP3    H228541   5.685   5.247   7.223  0.5862  1.9400 -1.6588
 2328TIP3   OH228542   0.632   2.540   1.505  0.4031  0.2277 -0.0229
 2328TIP3    H128543   0.592   2.453   1.502 -2.5050  1.3858  0.7811
 2328TIP3    H228544   0.688   2.544   1.428 -1.0320 -1.6478 -1.2595
 2329TIP3   OH228545   5.392   3.507   1.563  0.2910 -0.1857  0.6448
 2329TIP3    H128546   5.331   3.434   1.553 -0.9325  0.7425  0.9627
 2329TIP3    H228547   5.427   3.497   1.651 -0.4171 -0.0086  0.9544
 2330TIP3   OH228548   3.439   6.414   1.118 -0.9372 -0.7616 -0.4120
 2330TIP3    H128549   3.356   6.413   1.071 -0.2515 -0.6997 -1.6543
 2330TIP3    H228550   3.458   6.507   1.132 -1.5281 -0.7912  0.7377
 2331TIP3   OH228551   3.695   5.677   7.765 -0.0134  0.2494 -0.1539
 2331TIP3    H128552   3.744   5.656   7.844 -1.5732 -1.3463  0.4272
 2331TIP3    H228553   3.633   5.606   7.754 -0.3569  0.8012 -2.4238
 2332TIP3   OH228554   0.892   4.987   6.518 -0.1770  1.0229  0.4802
 2332TIP3    H128555   0.914   4.895   6.535 -2.0944 -0.0316 -2.0482
 2332TIP3    H228556   0.954   5.037   6.570  2.4192 -1.6946  0.2209
 2333TIP3   OH228557   1.863   0.565   2.299 -0.8193  0.2586 -1.0610
 2333TIP3    H128558   1.893   0.638   2.353  2.3731 -0.0800 -2.1922
 2333TIP3    H228559   1.789   0.602   2.250 -1.0504  1.8476  0.3711
 2334TIP3   OH228560   4.050   6.284   1.502  0.6165  0.2046 -0.1544
 2334TIP3    H128561   4.131   6.323   1.534 -0.2996  1.7183  0.4517
 2334TIP3    H228562   3.992   6.283   1.578 -0.9067  1.9160 -1.2006
 2335TIP3   OH228563   4.181   0.966   1.260  0.3930 -0.5609 -0.8257
 2335TIP3    H128564   4.272   0.997   1.261  0.4517 -0.6884  0.8879
 2335TIP3    H228565   4.170   0.921   1.344 -1.2172 -0.6638 -1.0607
 2336TIP3   OH228566   4.579   0.778   6.963  0.1609  0.0951 -0.0280
 2336TIP3    H128567   4.493   0.812   6.988  0.9044  1.3954  0.9141
 2336TIP3    H228568   4.570   0.683   6.971 -0.9017  0.2558  1.1033
 2337TIP3   OH228569   4.382   4.102   0.347  0.2639 -0.1412  0.1587
 2337TIP3    H128570   4.353   4.027   0.400  0.0915 -0.7295 -0.7343
 2337TIP3    H228571   4.300   4.147   0.324  0.2574 -0.3961 -0.3313
 2338TIP3   OH228572   5.141   5.248   0.094 -0.1012 -0.0230 -0.0533
 2338TIP3    H128573   5.227   5.268   0.056  0.2235  2.1053  1.5650
 2338TIP3    H228574   5.124   5.157   0.069  3.4021 -1.1311  0.9675
 2339TIP3   OH228575   3.187   3.783   0.216 -0.2808 -0.2701  0.0305
 2339TIP3    H128576   3.217   3.692   0.210  0.9285 -0.2847  3.5390
 2339TIP3    H228577   3.103   3.777   0.262 -0.2226  0.3790  0.2244
 2340TIP3   OH228578   3.127   6.081   1.752  0.2325  0.2945 -0.4164
 2340TIP3    H128579   3.084   6.103   1.835  1.8444 -1.5332  0.9892
 2340TIP3    H228580   3.087   5.998   1.725  0.6533  0.1983 -0.7705
 2341TIP3   OH228581   2.129   6.455   7.187  0.4673  0.0071 -0.5832
 2341TIP3    H128582   2.098   6.486   7.102 -2.7759 -0.5038  0.2741
 2341TIP3    H228583   2.071   6.382   7.209  1.6708 -0.3576  1.7508
 2342TIP3   OH228584   0.496   5.938   7.651  0.6322 -0.3601  0.3196
 2342TIP3    H128585   0.471   5.882   7.578 -2.0674 -0.1625  0.9789
 2342TIP3    H228586   0.588   5.958   7.636  0.8349 -2.4051 -1.6025
 2343TIP3   OH228587   4.851   0.518   7.868 -0.2031 -0.2552  0.9602
 2343TIP3    H128588   4.927   0.513   7.926 -0.7745 -0.4598  1.6939
 2343TIP3    H228589   4.857   0.605   7.829  0.5990 -0.3974  0.7446
 2344TIP3   OH228590   0.204   2.881   0.802 -0.1465  0.1115  0.4333
 2344TIP3    H128591   0.235   2.968   0.776  5.2901 -1.3061  1.0293
 2344TIP3    H228592   0.202   2.885   0.898 -0.6120 -0.2348  0.4401
 2345TIP3   OH228593   0.663   6.193   1.551 -0.2331 -0.0684 -0.1345
 2345TIP3    H128594   0.710   6.111   1.536 -0.7290  0.0076 -2.5468
 2345TIP3    H228595   0.683   6.217   1.642  3.4571 -0.6132 -0.6761
 2346TIP3   OH228596   5.615   3.859   6.803  0.3519 -0.1884 -0.3364
 2346TIP3    H128597   5.704   3.830   6.824  0.4242  0.3421  0.1230
 2346TIP3    H228598   5.627   3.940   6.754  0.1547 -1.0374 -1.8378
 2347TIP3   OH228599   1.987   4.483   7.839  0.1235 -0.0182  0.2584
 2347TIP3    H128600   2.025   4.511   7.755 -0.4262  1.9979  0.6266
 2347TIP3    H228601   2.012   4.552   7.901 -1.4919 -0.2334  1.2076
 2348TIP3   OH228602   3.048   3.988   1.328  0.0919  0.3033  0.3574
 2348TIP3    H128603   3.086   3.921   1.386  1.7217  0.4831 -0.4576
 2348TIP3    H228604   3.116   4.055   1.321 -0.1302  0.3545 -1.6301
 2349TIP3   OH228605   4.014   6.172   7.133 -0.5245  0.2578  0.3427
 2349TIP3    H128606   4.035   6.252   7.085  2.3014 -1.1221 -0.9487
 2349TIP3    H228607   4.007   6.105   7.065  1.6623 -1.3917  1.6377
 2350TIP3   OH228608   3.421   3.038   0.776  0.3404  0.0635  0.2788
 2350TIP3    H128609   3.416   3.054   0.871 -1.8560  0.0434  0.2151
 2350TIP3    H228610   3.401   2.945   0.767  1.7371 -0.2079 -0.1420
 2351TIP3   OH228611   6.734   5.570   1.221  0.3968  0.2040  0.6089
 2351TIP3    H128612   6.796   5.527   1.162  0.4937 -0.2304  1.0174
 2351TIP3    H228613   6.660   5.594   1.165  1.3019  1.5331 -0.0666
 2352TIP3   OH228614   4.980   4.615   7.471 -0.1105 -0.4603 -0.3765
 2352TIP3    H128615   4.979   4.649   7.561 -3.5493 -0.5880 -0.2473
 2352TIP3    H228616   4.927   4.536   7.475  2.1153 -2.1782 -2.0461
 2353TIP3   OH228617   4.162   6.625   7.273 -0.7881 -0.5528 -0.3177
 2353TIP3    H128618   4.248   6.651   7.304 -1.3980  2.7745 -1.0587
 2353TIP3    H228619   4.157   6.531   7.293  1.7908 -0.2652  2.4691
 2354TIP3   OH228620   5.852   2.869   1.846 -0.4425 -0.8599  0.9528
 2354TIP3    H128621   5.905   2.808   1.793  0.3970 -0.1431  0.9577
 2354TIP3    H228622   5.831   2.819   1.925 -1.5075 -1.8641  0.0788
 2355TIP3   OH228623   1.264   3.583   1.609 -0.6542 -0.0230 -0.1492
 2355TIP3    H128624   1.184   3.605   1.655  1.2976  1.2234  3.0082
 2355TIP3    H228625   1.284   3.493   1.637 -0.7232 -0.1940 -0.6330
 2356TIP3   OH228626   3.986   3.328   1.438  0.5441 -0.0995 -0.1341
 2356TIP3    H128627   4.034   3.399   1.481  0.5294  0.3608 -0.8519
 2356TIP3    H228628   3.933   3.289   1.507  1.6740 -0.3842  0.5982
 2357TIP3   OH228629   5.838   0.260   8.288 -0.0280  0.1760  0.5934
 2357TIP3    H128630   5.918   0.299   8.324 -0.8828  1.0439  1.6335
 2357TIP3    H228631   5.806   0.203   8.358 -1.0165  0.8659  0.7199
 2358TIP3   OH228632   0.808   1.432   7.977  0.2413  0.0474 -0.1891
 2358TIP3    H128633   0.832   1.415   7.886  0.5833  1.7256 -0.4477
 2358TIP3    H228634   0.844   1.359   8.026  0.7463 -0.4713 -1.3006
 2359TIP3   OH228635   1.057   2.060   6.961 -0.1110 -0.3069 -0.2454
 2359TIP3    H128636   1.023   1.979   6.922  0.2465  0.2866 -1.8831
 2359TIP3    H228637   1.126   2.089   6.900 -0.3277  1.2946  0.2213
 2360TIP3   OH228638   2.583   3.254   0.191 -0.5965 -0.4636  0.4583
 2360TIP3    H128639   2.631   3.183   0.233  0.8801 -0.8735 -1.7366
 2360TIP3    H228640   2.519   3.282   0.256  2.1120 -0.3781  3.3300
 2361TIP3   OH228641   6.080   0.099   1.293  0.2474 -0.6274  0.3573
 2361TIP3    H128642   6.158   0.148   1.320 -0.4039 -0.4997  2.1762
 2361TIP3    H228643   6.008   0.162   1.304 -0.1990 -0.9515 -0.6358
 2362TIP3   OH228644   0.579   3.263   1.523  0.0435  0.0735 -0.3894
 2362TIP3    H128645   0.561   3.241   1.614 -0.6400  0.2653 -0.4773
 2362TIP3    H228646   0.593   3.178   1.480 -1.4344 -0.1333 -0.4871
 2363TIP3   OH228647   2.226   1.722   7.005 -0.1483 -0.0047 -0.2113
 2363TIP3    H128648   2.317   1.697   6.993 -0.3369 -0.4658 -0.7058
 2363TIP3    H228649   2.205   1.693   7.094  0.2324  0.2551 -0.0355
 2364TIP3   OH228650   1.198   0.707   0.568 -0.5734  0.6898 -0.5229
 2364TIP3    H128651   1.147   0.717   0.487 -3.1786 -0.4079  0.8565
 2364TIP3    H228652   1.165   0.775   0.625  0.3724  0.6816  0.0530
 2365TIP3   OH228653   0.374   4.820   8.158  0.0104  0.2382 -0.0434
 2365TIP3    H128654   0.286   4.813   8.119  0.9636  0.3291 -2.3636
 2365TIP3    H228655   0.367   4.772   8.241 -1.6696 -1.7587 -1.2206
 2366TIP3   OH228656   2.776   4.305   7.868  0.7053  0.3244  0.2742
 2366TIP3    H128657   2.688   4.310   7.831  0.3877 -0.0856  0.9602
 2366TIP3    H228658   2.778   4.221   7.914  1.1820  0.7030  0.9663
 2367TIP3   OH228659   3.177   2.622   1.596 -0.0630 -0.1991 -0.8531
 2367TIP3    H128660   3.187   2.596   1.688 -0.1785  0.9584 -0.4942
 2367TIP3    H228661   3.118   2.557   1.559  1.4604 -1.7942 -0.6178
 2368TIP3   OH228662   5.115   0.400   7.293 -0.5205  0.0787 -0.3788
 2368TIP3    H128663   5.056   0.463   7.252 -0.5860  2.2326  2.6081
 2368TIP3    H228664   5.194   0.451   7.312  0.7469 -1.6705 -0.7438
 2369TIP3   OH228665   5.841   4.876   0.678  0.5642  0.3974  0.5327
 2369TIP3    H128666   5.759   4.866   0.726  0.2142 -1.3196 -0.3321
 2369TIP3    H228667   5.908   4.843   0.738  1.0207  3.7374  2.0796
 2370TIP3   OH228668   5.408   0.887   1.282 -0.2608 -0.2307 -0.4531
 2370TIP3    H128669   5.457   0.961   1.319  1.3875 -2.7846  3.1262
 2370TIP3    H228670   5.320   0.922   1.266  0.2525  2.3693  1.7100
 2371TIP3   OH228671   4.661   6.757   0.039 -0.6863 -0.1068 -0.0524
 2371TIP3    H128672   4.618   6.843   0.045 -3.3726 -1.1741 -1.8632
 2371TIP3    H228673   4.591   6.694   0.057  0.9401 -1.9607  0.1274
 2372TIP3   OH228674   2.261   0.069   1.940  0.2609 -0.0305 -0.7011
 2372TIP3    H128675   2.357   0.071   1.944  0.3042 -0.0800 -1.4357
 2372TIP3    H228676   2.239  -0.024   1.940  0.2677 -0.0398 -1.3332
 2373TIP3   OH228677   4.900   1.178   0.788 -0.2350  0.1189  0.5283
 2373TIP3    H128678   4.829   1.131   0.746 -0.1793  0.7158 -0.2485
 2373TIP3    H228679   4.869   1.268   0.796  1.6660  1.2914 -3.0749
 2374TIP3   OH228680   0.428   5.281   7.943 -0.1391 -0.7739 -0.2032
 2374TIP3    H128681   0.456   5.196   7.910  0.6714  0.1050 -1.9140
 2374TIP3    H228682   0.340   5.265   7.979  0.4011 -2.5133  0.4572
 2375TIP3   OH228683   6.715   1.584   2.526 -0.3309 -0.0383 -0.0641
 2375TIP3    H128684   6.677   1.568   2.440  1.4618  1.4247 -1.1890
 2375TIP3    H228685   6.678   1.667   2.555 -0.3002 -0.1207  0.2245
 2376TIP3   OH228686   1.417   3.326   6.921  1.0895 -0.5100 -0.4765
 2376TIP3    H128687   1.450   3.392   6.860  0.8356 -1.3746 -1.5861
 2376TIP3    H228688   1.362   3.269   6.867  0.8008 -1.2680  0.5829
 2377TIP3   OH228689   1.021   6.356   0.681 -0.0852  0.3255  0.1870
 2377TIP3    H128690   1.049   6.270   0.710 -0.9618  0.5765  1.9329
 2377TIP3    H228691   1.100   6.410   0.686  0.4163 -0.2884 -0.7099
 2378TIP3   OH228692   3.737   3.640   8.131 -0.3036 -0.0171 -0.0519
 2378TIP3    H128693   3.758   3.548   8.144  1.0096  0.5659  2.8366
 2378TIP3    H228694   3.795   3.668   8.060  0.7695 -0.9965  0.3931
 2379TIP3   OH228695   4.882   3.399   7.393  0.3692  0.2615 -0.3788
 2379TIP3    H128696   4.886   3.471   7.455 -1.5913 -0.3908  0.5722
 2379TIP3    H228697   4.803   3.350   7.417  2.2496 -2.9410 -0.1636
 2380TIP3   OH228698   1.681   6.084   0.292 -0.0606 -0.2343  0.6399
 2380TIP3    H128699   1.698   6.067   0.200  0.0485  0.6279  0.4932
 2380TIP3    H228700   1.676   6.179   0.299 -0.1479 -0.2892  1.5093
 2381TIP3   OH228701   6.821   4.362   6.253  0.5284  0.3065 -0.2928
 2381TIP3    H128702   6.871   4.281   6.258  0.1400 -0.0120 -1.3625
 2381TIP3    H228703   6.797   4.370   6.161  0.5762  1.6523 -0.2083
 2382TIP3   OH228704   4.230   5.448   7.853  0.1318  0.2629  0.0561
 2382TIP3    H128705   4.293   5.415   7.917 -0.6160 -1.3954 -0.0323
 2382TIP3    H228706   4.180   5.371   7.826 -0.5827  1.1993 -1.3955
 2383TIP3   OH228707   0.537   5.537   0.001 -0.3165  0.1038  0.3963
 2383TIP3    H128708   0.576   5.589  -0.069 -0.2960 -0.0409  0.3005
 2383TIP3    H228709   0.586   5.455   0.000 -0.4911 -0.0004  0.4079
 2384TIP3   OH228710   4.129   4.443   7.719  0.3165 -0.4950  0.0920
 2384TIP3    H128711   4.186   4.400   7.655  0.9038  1.0277 -0.4648
 2384TIP3    H228712   4.170   4.424   7.804 -0.4514 -2.5048  0.0610
 2385TIP3   OH228713   1.584   3.802   6.467  0.4513  0.0684 -0.1247
 2385TIP3    H128714   1.641   3.744   6.517 -2.1355 -0.4134  2.4783
 2385TIP3    H228715   1.551   3.748   6.395 -1.5556 -1.6950  1.9853
 2386TIP3   OH228716   5.027   0.235   7.761 -0.1796 -0.2120  0.3948
 2386TIP3    H128717   5.114   0.276   7.764 -0.2958  0.1994 -1.0399
 2386TIP3    H228718   5.041   0.146   7.793  0.6452  0.0549  0.7970
 2387TIP3   OH228719   0.032   4.239   0.927  0.3516 -0.2157 -0.0036
 2387TIP3    H128720   0.073   4.260   1.011 -0.2399  1.6944 -0.1577
 2387TIP3    H228721   0.076   4.296   0.864  0.0071 -0.8187 -0.8113
 2388TIP3   OH228722   3.785   0.855   0.123  0.5325  0.3162  0.1744
 2388TIP3    H128723   3.856   0.858   0.187 -0.2560  1.4234  1.0316
 2388TIP3    H228724   3.823   0.891   0.043  0.9789  0.7442  0.5766
 2389TIP3   OH228725   3.756   2.274   2.054  0.0550  0.3745  0.4966
 2389TIP3    H128726   3.830   2.333   2.068 -0.5744  1.1606  0.5816
 2389TIP3    H228727   3.787   2.188   2.084  1.5226  0.2910 -1.0580
 2390TIP3   OH228728   3.333   6.168   2.326 -0.0132  0.6301  0.1537
 2390TIP3    H128729   3.324   6.214   2.410 -0.8205  1.5825 -0.4253
 2390TIP3    H228730   3.366   6.081   2.349 -1.0486  0.5726  1.5377
 2391TIP3   OH228731   3.717   0.030   1.247  0.3196 -0.7020  0.1617
 2391TIP3    H128732   3.809   0.057   1.245 -0.1218  0.8067 -1.0037
 2391TIP3    H228733   3.673   0.097   1.299 -0.7022  0.6672 -2.3120
 2392TIP3   OH228734   2.983   0.791   2.308 -0.1542 -0.5396 -0.3392
 2392TIP3    H128735   3.005   0.879   2.338 -2.0091  0.3410 -1.3682
 2392TIP3    H228736   3.055   0.736   2.339  2.2846  1.6842 -1.6548
 2393TIP3   OH228737   4.907   3.571   7.606 -0.1864  0.3576  0.3002
 2393TIP3    H128738   4.944   3.573   7.694 -0.4210 -0.2587  0.4176
 2393TIP3    H228739   4.818   3.604   7.616 -0.5512 -0.6351  0.4754
 2394TIP3   OH228740   4.219   1.430   0.510 -0.0481 -0.4806  0.3557
 2394TIP3    H128741   4.175   1.382   0.440  0.0876  0.4391 -0.3812
 2394TIP3    H228742   4.254   1.508   0.467  0.0301  0.1081  1.4561
 2395TIP3   OH228743   1.710   2.710   1.216 -0.6198 -0.3455 -0.3272
 2395TIP3    H128744   1.796   2.731   1.254 -0.8593 -2.3726  1.5189
 2395TIP3    H228745   1.677   2.638   1.270 -3.0085 -0.3721 -1.7027
 2396TIP3   OH228746   1.798   2.931   2.204 -0.8163  0.6908  0.3958
 2396TIP3    H128747   1.735   2.988   2.161  0.8156  1.8826 -0.5431
 2396TIP3    H228748   1.884   2.963   2.175  0.2118 -2.3820 -0.3613
 2397TIP3   OH228749   5.298   0.548   8.137 -0.2009 -0.5052 -0.1382
 2397TIP3    H128750   5.233   0.479   8.128  0.1225 -0.6090 -2.1785
 2397TIP3    H228751   5.381   0.505   8.118  0.4989 -0.3013  2.1159
 2398TIP3   OH228752   3.379   5.309   6.684  0.2198  0.4468 -0.7937
 2398TIP3    H128753   3.440   5.308   6.758 -0.9293  0.4299  0.1928
 2398TIP3    H228754   3.418   5.250   6.620  0.8952 -0.1013  0.0954
 2399TIP3   OH228755   6.015   2.969   6.247  0.1714  0.0862 -0.8741
 2399TIP3    H128756   6.008   2.891   6.192  1.0712  0.1584 -1.1117
 2399TIP3    H228757   6.106   2.968   6.277 -0.4793 -0.3645  1.2250
 2400TIP3   OH228758   1.591   1.211   2.208  0.4154 -0.2333 -0.4483
 2400TIP3    H128759   1.556   1.282   2.262 -1.3066 -1.0942 -0.3433
 2400TIP3    H228760   1.632   1.255   2.134  2.5869  0.9770  1.3541
 2401TIP3   OH228761   6.311   0.721   7.215 -0.7784 -0.4186 -0.5858
 2401TIP3    H128762   6.323   0.761   7.129 -0.9873  1.2488  0.1189
 2401TIP3    H228763   6.400   0.703   7.245 -0.4724  1.8023  0.0646
 2402TIP3   OH228764   1.076   4.324   1.600  0.1678 -0.2250 -0.2212
 2402TIP3    H128765   1.157   4.331   1.649  0.5099 -1.1731 -0.6326
 2402TIP3    H228766   1.040   4.413   1.599  0.6739 -0.0043  0.8417
 2403TIP3   OH228767   2.473   4.796   7.717 -0.2443 -0.4073 -0.5803
 2403TIP3    H128768   2.522   4.716   7.695  1.1824  0.3372 -0.2406
 2403TIP3    H228769   2.486   4.853   7.641  0.6687  0.3516  0.1270
 2404TIP3   OH228770   2.922   1.410   6.162  0.1886  0.2568 -0.4071
 2404TIP3    H128771   2.910   1.353   6.238  1.7138 -0.9173 -0.9950
 2404TIP3    H228772   2.920   1.499   6.197  0.7202 -0.2611  0.9857
 2405TIP3   OH228773   3.761   1.144   1.125 -0.2020 -0.3005 -0.1200
 2405TIP3    H128774   3.778   1.074   1.063 -0.7242 -0.2947 -0.2777
 2405TIP3    H228775   3.846   1.162   1.166  0.1039 -0.4304 -0.6916
 2406TIP3   OH228776   6.587   3.715   1.892  0.3236 -0.4556 -0.2961
 2406TIP3    H128777   6.624   3.727   1.979 -0.0399  0.5232 -0.2648
 2406TIP3    H228778   6.530   3.638   1.900 -1.4335  0.8945  0.9222
 2407TIP3   OH228779   2.548   0.930   7.734 -0.0259 -0.3803 -0.1328
 2407TIP3    H128780   2.532   0.987   7.809 -0.2696  0.6389 -0.9477
 2407TIP3    H228781   2.461   0.916   7.696 -0.1423 -2.2422  0.7051
 2408TIP3   OH228782   2.466   3.436   1.502  0.6532  0.1729  0.0031
 2408TIP3    H128783   2.560   3.447   1.511  1.0260 -1.7732 -1.0048
 2408TIP3    H228784   2.452   3.417   1.410 -0.6915  0.0295  0.2034
 2409TIP3   OH228785   0.313   1.823   7.995  0.6818  0.1608  0.1756
 2409TIP3    H128786   0.280   1.798   7.909  0.4272 -0.9886  0.5852
 2409TIP3    H228787   0.236   1.859   8.040  0.7871  0.6513 -0.0370
 2410TIP3   OH228788   1.587   6.460   6.959 -0.1682  0.1257  0.2162
 2410TIP3    H128789   1.649   6.459   6.886 -0.7584 -0.1396 -0.2905
 2410TIP3    H228790   1.533   6.382   6.946 -0.8002  0.5092  0.4800
 2411TIP3   OH228791   3.720   5.452   0.751  0.3816  0.3508 -0.0519
 2411TIP3    H128792   3.659   5.511   0.796  0.0472 -0.6408  0.8413
 2411TIP3    H228793   3.764   5.406   0.823  0.4359 -0.6768 -0.7350
 2412TIP3   OH228794   4.111   3.897   0.792  0.0894  0.4747 -0.0567
 2412TIP3    H128795   4.204   3.872   0.797  0.6449  2.4550  0.5217
 2412TIP3    H228796   4.077   3.877   0.879 -0.3703 -1.3931 -0.6393
 2413TIP3   OH228797   3.865   5.300   8.304  0.4352 -0.4685 -0.2316
 2413TIP3    H128798   3.947   5.290   8.257  0.4950  0.2211 -0.2969
 2413TIP3    H228799   3.826   5.380   8.267 -0.2846 -0.8117 -0.2326
 2414TIP3   OH228800   0.225   2.966   1.419  0.0020  0.5303 -0.7505
 2414TIP3    H128801   0.226   2.879   1.459  0.9077  0.1458 -1.5872
 2414TIP3    H228802   0.202   3.024   1.492  0.2368 -0.2993  0.0162
 2415TIP3   OH228803   2.828   1.030   8.417  0.0351  0.4689  0.2583
 2415TIP3    H128804   2.838   1.084   8.338 -0.0264 -0.7592 -0.6303
 2415TIP3    H228805   2.893   0.960   8.405  0.1818  0.3923  1.4272
 2416TIP3   OH228806   4.476   2.436   1.265  0.8850 -0.4499  0.1385
 2416TIP3    H128807   4.514   2.380   1.332 -2.3549  1.0285  3.5613
 2416TIP3    H228808   4.445   2.513   1.312  0.1249  1.6681 -3.4386
 2417TIP3   OH228809   3.337   3.217   1.375  0.5970 -0.1347  0.0613
 2417TIP3    H128810   3.378   3.144   1.421  1.9711  0.6040  0.0633
 2417TIP3    H228811   3.398   3.290   1.387 -0.7432  1.0258  0.0756
 2418TIP3   OH228812   0.208   4.038   8.516  0.0043 -0.2824  0.3870
 2418TIP3    H128813   0.131   4.066   8.468 -0.7492 -1.9831  0.5286
 2418TIP3    H228814   0.182   3.956   8.559  1.2492  0.1558  2.1116
 2419TIP3   OH228815   2.120   2.047   0.796  0.3148  0.0848 -0.0327
 2419TIP3    H128816   2.060   2.059   0.722  1.4519  1.0230 -0.8256
 2419TIP3    H228817   2.135   1.952   0.799 -1.3799 -0.2111  0.3514
 2420TIP3   OH228818   5.930   2.957   0.163  0.4603 -0.2588 -0.1400
 2420TIP3    H128819   6.009   2.996   0.199 -0.9669  0.6790  2.2108
 2420TIP3    H228820   5.919   2.875   0.211  0.4046 -0.7903 -1.0254
 2421TIP3   OH228821   1.323   6.487   1.944 -0.0477  0.0476  0.4951
 2421TIP3    H128822   1.412   6.477   1.977  0.3179  0.4889 -0.3222
 2421TIP3    H228823   1.277   6.408   1.973  1.1430 -1.1495 -0.7107
 2422TIP3   OH228824   4.214   2.403   6.556  0.1508  0.2865  0.0082
 2422TIP3    H128825   4.269   2.363   6.489 -0.0134 -1.3350  0.7838
 2422TIP3    H228826   4.144   2.339   6.570  0.2125  0.5507  1.7497
 2423TIP3   OH228827   0.582   6.707   7.137 -0.5826 -0.5835 -0.3138
 2423TIP3    H128828   0.622   6.682   7.221  1.2692  1.6266 -0.4475
 2423TIP3    H228829   0.595   6.630   7.082  1.3130 -0.8533  0.4321
 2424TIP3   OH228830   2.382   0.916   8.430  0.7482 -0.2166  0.4921
 2424TIP3    H128831   2.421   0.947   8.512 -0.5424  0.1475  0.9866
 2424TIP3    H228832   2.450   0.860   8.391  1.5361 -0.0661  1.6039
 2425TIP3   OH228833   6.432   5.361   8.282  0.0891 -0.1993 -0.3590
 2425TIP3    H128834   6.444   5.273   8.246 -0.0078 -0.7726  0.9574
 2425TIP3    H228835   6.521   5.398   8.283  0.3801 -0.8856  0.5384
 2426TIP3   OH228836   0.101   5.678   7.573  0.4494 -0.1953 -0.2472
 2426TIP3    H128837   0.103   5.627   7.654 -0.4171 -0.9964 -0.7189
 2426TIP3    H228838   0.021   5.730   7.580  0.4201 -0.2012 -0.5471
 2427TIP3   OH228839   6.692   2.029   7.352 -0.5171  0.2335  0.6606
 2427TIP3    H128840   6.603   2.038   7.319 -0.8593 -0.8137  1.2478
 2427TIP3    H228841   6.734   1.969   7.290  0.1086  1.4958 -0.1854
 2428TIP3   OH228842   5.627   1.141   0.550  0.0473 -0.2007  0.0398
 2428TIP3    H128843   5.564   1.069   0.550 -1.3543  0.9670  0.4779
 2428TIP3    H228844   5.573   1.220   0.545  1.4831  0.8554  0.4589
 2429TIP3   OH228845   2.674   1.939   6.564 -0.2411 -0.0955  0.6554
 2429TIP3    H128846   2.583   1.965   6.549 -0.3081 -0.6754 -0.0379
 2429TIP3    H228847   2.700   1.897   6.482  0.2546 -1.0427  1.2771
 2430TIP3   OH228848   1.515   5.723   0.406  0.4442  0.0987 -0.0308
 2430TIP3    H128849   1.599   5.676   0.408 -0.9610 -2.6625 -0.9588
 2430TIP3    H228850   1.520   5.783   0.480  2.7439 -0.8921  0.7233
 2431TIP3   OH228851   3.724   1.537   6.012  0.2304  0.3708  0.8571
 2431TIP3    H128852   3.688   1.461   5.968 -0.9001  0.7890  1.0261
 2431TIP3    H228853   3.649   1.579   6.054  0.9407  1.1789  1.3682
 2432TIP3   OH228854   0.481   1.823   1.352 -0.4260  0.0625 -0.0057
 2432TIP3    H128855   0.459   1.756   1.417  1.0578  0.6495  1.1914
 2432TIP3    H228856   0.429   1.801   1.275 -2.4243 -0.5500  1.4515
 2433TIP3   OH228857   1.259   0.565   1.048 -0.1343  0.1211  0.2239
 2433TIP3    H128858   1.219   0.558   0.961 -0.6526 -0.9320  0.5273
 2433TIP3    H228859   1.185   0.571   1.108  0.1841 -0.4978  0.6897
 2434TIP3   OH228860   5.921   0.086   1.856  0.0493  0.1352 -0.1400
 2434TIP3    H128861   5.831   0.119   1.863 -0.1317 -0.4412  0.2755
 2434TIP3    H228862   5.957   0.094   1.944 -0.7524 -2.8752  0.5580
 2435TIP3   OH228863   2.488   1.875   6.367  0.3042  0.1232  0.2481
 2435TIP3    H128864   2.448   1.960   6.385  0.4886 -0.1050  1.8550
 2435TIP3    H228865   2.429   1.812   6.408  0.1036 -0.5581 -1.0420
 2436TIP3   OH228866   3.803   0.267   0.646 -0.4487  0.5428  0.0525
 2436TIP3    H128867   3.753   0.206   0.700  0.1359  0.5304  0.5884
 2436TIP3    H228868   3.791   0.352   0.688  1.5272  0.2475  1.3368
 2437TIP3   OH228869   0.714   0.072   1.827  0.4264 -0.7994  0.3848
 2437TIP3    H128870   0.699   0.095   1.919 -0.4056  0.1016  0.0448
 2437TIP3    H228871   0.798   0.112   1.806 -1.4649  3.2108 -0.4982
 2438TIP3   OH228872   3.899   4.620   0.598  0.0048 -0.0877  0.2825
 2438TIP3    H128873   3.909   4.536   0.552 -0.4543  0.4746 -0.8884
 2438TIP3    H228874   3.829   4.665   0.550 -1.4593 -0.0158  2.3624
 2439TIP3   OH228875   1.729   2.656   2.198 -0.4189  0.5698 -0.4886
 2439TIP3    H128876   1.804   2.611   2.237  1.2105  1.1040 -2.8281
 2439TIP3    H228877   1.755   2.748   2.194 -0.8937  0.6687 -1.9175
 2440TIP3   OH228878   6.281   0.738   6.899 -0.4843 -0.1007  0.2537
 2440TIP3    H128879   6.298   0.794   6.823 -0.0147 -1.0092 -0.3226
 2440TIP3    H228880   6.203   0.777   6.940  0.4083  1.5808  0.4669
 2441TIP3   OH228881   2.703   0.654   1.901 -0.2263 -0.9152  0.2052
 2441TIP3    H128882   2.662   0.740   1.912 -0.1641 -0.9686  0.8524
 2441TIP3    H228883   2.722   0.625   1.990 -0.6727 -1.8102  0.0118
 2442TIP3   OH228884   5.407   3.704   0.887  0.8027 -0.0581 -0.1027
 2442TIP3    H128885   5.362   3.713   0.803  0.0977 -0.5544  0.2150
 2442TIP3    H228886   5.338   3.683   0.950  1.1690  1.2357  0.7870
 2443TIP3   OH228887   0.012   3.244   1.845 -0.0631  0.5742 -0.5520
 2443TIP3    H128888   0.028   3.323   1.896  1.7809  0.5360 -1.0300
 2443TIP3    H228889   0.021   3.172   1.908 -0.8606  0.6790 -0.3064
 2444TIP3   OH228890   2.626   2.626   0.526 -0.1401 -0.0377  0.0693
 2444TIP3    H128891   2.631   2.531   0.530  0.2687 -0.0697 -0.9357
 2444TIP3    H228892   2.717   2.654   0.517 -0.3019  0.4172 -0.1767
 2445TIP3   OH228893   5.319   3.756   8.562 -0.7531  0.4731  0.2692
 2445TIP3    H128894   5.306   3.714   8.476 -1.3085 -0.2634  0.6959
 2445TIP3    H228895   5.278   3.842   8.552 -1.2542  0.2081 -0.0697
 2446TIP3   OH228896   6.644   2.951   7.538  0.2817  0.5648  0.2132
 2446TIP3    H128897   6.716   2.899   7.501 -0.8753  0.5543 -2.1895
 2446TIP3    H228898   6.569   2.892   7.537 -0.1565  1.1010  1.0946
 2447TIP3   OH228899   4.977   6.222   0.220 -0.4618 -0.3932  0.0267
 2447TIP3    H128900   4.963   6.263   0.134  1.2170 -1.2478 -0.6941
 2447TIP3    H228901   4.994   6.130   0.200  0.1143 -0.5782  1.2785
 2448TIP3   OH228902   6.537   3.016   1.651  0.8733 -0.5072  0.0356
 2448TIP3    H128903   6.623   3.054   1.633  0.6427 -0.5092 -1.1612
 2448TIP3    H228904   6.527   3.022   1.746  1.5187  0.9582  0.0380
 2449TIP3   OH228905   3.353   0.638   8.337  0.2904  0.2601  0.2236
 2449TIP3    H128906   3.334   0.569   8.401 -2.1169 -0.1762 -0.8480
 2449TIP3    H228907   3.336   0.597   8.253 -0.2997  1.8912 -0.4883
 2450TIP3   OH228908   6.334   6.154   1.034 -0.2107  0.2257  0.9637
 2450TIP3    H128909   6.429   6.162   1.041 -0.1799  1.4591 -0.4323
 2450TIP3    H228910   6.305   6.240   1.003 -1.3136 -1.2662 -2.5860
 2451TIP3   OH228911   3.214   0.319   0.003  0.4581 -0.3103 -0.0485
 2451TIP3    H128912   3.181   0.347   0.088  0.0258 -0.4159 -0.1825
 2451TIP3    H228913   3.140   0.330  -0.057  0.6420 -0.6105 -0.3335
 2452TIP3   OH228914   3.435   4.514   0.125  0.5810  0.0613 -0.4338
 2452TIP3    H128915   3.386   4.472   0.196 -0.2744  0.6814 -0.6391
 2452TIP3    H228916   3.523   4.527   0.161  0.3032 -0.1174  0.3285
 2453TIP3   OH228917   6.813   6.142   6.719 -0.1769  0.4847  0.1213
 2453TIP3    H128918   6.811   6.047   6.725 -2.0591  0.2577 -2.5546
 2453TIP3    H228919   6.896   6.167   6.761  0.8517 -2.3772 -0.0279
 2454TIP3   OH228920   1.883   5.280   2.208 -0.0389  0.2570  0.0281
 2454TIP3    H128921   1.831   5.268   2.288 -0.4212  0.3090 -0.2139
 2454TIP3    H228922   1.965   5.232   2.226 -0.4540 -0.4254  0.1313
 2455TIP3   OH228923   3.741   6.604   6.441  0.4219  0.0871 -0.5185
 2455TIP3    H128924   3.834   6.626   6.446  0.1790  1.0847 -0.3095
 2455TIP3    H228925   3.739   6.521   6.392  1.4228 -0.0032 -0.4231
 2456TIP3   OH228926   4.348   0.913   1.514  0.7436 -0.3532 -0.1637
 2456TIP3    H128927   4.351   0.927   1.608 -1.3478 -1.2942  0.0898
 2456TIP3    H228928   4.394   0.989   1.477 -1.2157  1.7574  1.4759
 2457TIP3   OH228929   3.946   6.015   6.930 -0.4280 -0.0598  0.3563
 2457TIP3    H128930   3.953   5.926   6.894  1.0363 -0.0045  0.4505
 2457TIP3    H228931   3.855   6.040   6.915 -0.2023 -0.5347 -2.1720
 2458TIP3   OH228932   3.904   5.957   7.763  0.0005  0.4028  0.2204
 2458TIP3    H128933   3.821   5.962   7.715  0.0025  0.5945  0.2352
 2458TIP3    H228934   3.971   5.952   7.695 -0.1813 -3.8346  0.1131
 2459TIP3   OH228935   6.179   1.248   1.160 -0.0042 -0.6892 -0.2362
 2459TIP3    H128936   6.139   1.180   1.214  1.0120  0.4457  2.0770
 2459TIP3    H228937   6.105   1.290   1.116 -0.7939 -2.1200 -0.3400
 2460TIP3   OH228938   2.700   2.976   8.394 -0.0981 -0.3620 -0.7075
 2460TIP3    H128939   2.791   2.999   8.410 -0.5384  1.9960 -1.2094
 2460TIP3    H228940   2.687   2.991   8.301 -1.3821  0.9363 -0.3556
 2461TIP3   OH228941   2.227   6.560   6.693 -0.1596 -1.0446 -0.1117
 2461TIP3    H128942   2.180   6.611   6.627 -0.6725 -0.7377  0.4746
 2461TIP3    H228943   2.305   6.612   6.713 -0.1708 -0.9795 -0.2368
 2462TIP3   OH228944   5.752   6.677   2.088  0.4858 -0.3236  0.5439
 2462TIP3    H128945   5.732   6.654   2.179 -0.2400 -0.5957  0.3221
 2462TIP3    H228946   5.842   6.709   2.090  0.6438 -0.8050  1.2766
 2463TIP3   OH228947   0.733   1.818   1.651  0.2749 -0.0742 -0.2522
 2463TIP3    H128948   0.655   1.802   1.704 -0.5941  1.5879 -0.9381
 2463TIP3    H228949   0.805   1.820   1.714 -0.8378  2.8774  1.1316
 2464TIP3   OH228950   4.321   0.524   7.391  0.3077 -0.0707  0.2837
 2464TIP3    H128951   4.305   0.510   7.298 -0.0394 -1.0970  0.4842
 2464TIP3    H228952   4.239   0.560   7.424  1.3223  3.0724 -0.3049
 2465TIP3   OH228953   6.558   0.071   1.279 -0.1216 -0.1665 -0.0199
 2465TIP3    H128954   6.598   0.108   1.358  0.3535 -0.2973 -0.1966
 2465TIP3    H228955   6.598  -0.015   1.269 -1.2628 -0.7692  0.4146
 2466TIP3   OH228956   3.551   1.142   1.890 -0.0676  0.0567  0.3499
 2466TIP3    H128957   3.475   1.097   1.852  1.1538 -1.3410 -0.5229
 2466TIP3    H228958   3.523   1.234   1.897 -2.2458 -0.6060  1.1781
 2467TIP3   OH228959   1.112   5.777   0.089  0.0705  0.2982 -0.2109
 2467TIP3    H128960   1.023   5.789   0.123  0.1279 -0.6696  0.3089
 2467TIP3    H228961   1.132   5.685   0.105  1.2055  0.5242 -0.2417
 2468TIP3   OH228962   2.470   5.015   1.131  0.2288  0.6905 -0.3398
 2468TIP3    H128963   2.402   4.960   1.092  0.3657  0.6146 -0.4710
 2468TIP3    H228964   2.485   5.085   1.067 -0.4786  1.3139  0.1521
 2469TIP3   OH228965   6.180   6.814   7.726  0.1364 -0.3054  0.4373
 2469TIP3    H128966   6.122   6.775   7.659 -2.8965  1.2435  1.9464
 2469TIP3    H228967   6.193   6.744   7.789 -1.9799 -0.1490  1.1372
 2470TIP3   OH228968   2.014   0.213   8.122 -0.1007 -0.4063  0.3422
 2470TIP3    H128969   1.991   0.303   8.100 -0.2245 -0.6286 -0.4728
 2470TIP3    H228970   1.933   0.176   8.159  0.5501  0.4332  2.7533
 2471TIP3   OH228971   5.415   2.575   1.587  0.1390 -0.1110 -0.2464
 2471TIP3    H128972   5.510   2.576   1.575  0.2341 -1.0938  0.3014
 2471TIP3    H228973   5.386   2.500   1.535 -0.3000 -0.0136 -0.1433
 2472TIP3   OH228974   5.007   2.513   5.958  0.1862 -0.1480  0.1116
 2472TIP3    H128975   4.979   2.585   5.901  0.1884 -0.2463 -0.0129
 2472TIP3    H228976   5.044   2.557   6.035 -0.1790 -0.0149  0.2160
 2473TIP3   OH228977   2.059   2.099   1.404 -0.0755 -0.6288 -0.6911
 2473TIP3    H128978   1.979   2.055   1.376 -0.1391  0.2634 -1.9811
 2473TIP3    H228979   2.130   2.043   1.371 -0.1614 -0.5765 -0.9671
 2474TIP3   OH228980   4.641   6.745   8.308  0.2211  0.7098  0.1248
 2474TIP3    H128981   4.585   6.690   8.361  0.1286  0.4116 -0.2814
 2474TIP3    H228982   4.679   6.807   8.370 -0.0033  0.4621  0.5125
 2475TIP3   OH228983   3.531   0.169   8.576  0.2293  0.1749  0.1663
 2475TIP3    H128984   3.577   0.127   8.503  0.4976 -0.3878  0.6521
 2475TIP3    H228985   3.453   0.116   8.589 -0.8018  1.3612 -0.9176
 2476TIP3   OH228986   1.650   1.121   8.405  0.8362  1.0776  0.4889
 2476TIP3    H128987   1.564   1.155   8.426 -0.3856 -1.2680 -0.3890
 2476TIP3    H228988   1.686   1.185   8.343 -1.1055  1.1319 -0.6612
 2477TIP3   OH228989   1.439   4.918   7.298 -0.1251 -0.6203  0.1349
 2477TIP3    H128990   1.405   4.895   7.385  0.0047 -1.9805 -0.1594
 2477TIP3    H228991   1.517   4.863   7.288 -0.0352 -0.3346 -0.7786
 2478TIP3   OH228992   5.888   2.065   7.107 -0.0372 -0.5146 -0.3120
 2478TIP3    H128993   5.808   2.023   7.076 -0.2561 -1.0824  0.9959
 2478TIP3    H228994   5.955   1.998   7.098  0.3068 -0.0634 -1.3350
 2479TIP3   OH228995   0.051   4.758   1.096 -0.1755 -0.2127  0.1451
 2479TIP3    H128996   0.145   4.742   1.094  0.1848  1.3829  1.7534
 2479TIP3    H228997   0.017   4.692   1.156  0.2566  0.5334  1.2345
 2480TIP3   OH228998   1.904   0.159   6.396  0.3467  0.0178 -0.1405
 2480TIP3    H128999   1.830   0.112   6.358  0.2934  1.4209 -1.9147
 2480TIP3    H229000   1.975   0.094   6.399 -1.0515 -1.5371  2.2245
 2481TIP3   OH229001   3.337   3.255   6.269 -0.1910 -0.3613 -0.0221
 2481TIP3    H129002   3.250   3.225   6.295 -0.4206 -0.0382 -0.4194
 2481TIP3    H229003   3.360   3.200   6.194  0.1145 -0.7132  0.3249
 2482TIP3   OH229004   3.245   0.508   8.115  0.8436 -0.2869  0.0351
 2482TIP3    H129005   3.160   0.549   8.097  0.0992 -0.4277  2.8346
 2482TIP3    H229006   3.270   0.468   8.031 -0.8823  1.4191 -1.3872
 2483TIP3   OH229007   5.354   0.618   8.454 -0.6002 -0.3141  0.0468
 2483TIP3    H129008   5.263   0.602   8.428 -0.1131 -1.5643 -0.9719
 2483TIP3    H229009   5.357   0.713   8.471 -2.2011 -0.3253  0.6036
 2484TIP3   OH229010   2.702   6.004   0.566 -0.2803 -0.2092 -0.2258
 2484TIP3    H129011   2.773   5.998   0.502 -1.0376  1.2770 -1.2636
 2484TIP3    H229012   2.710   6.091   0.604 -1.2546 -0.1889 -0.0279
 2485TIP3   OH229013   4.522   5.352   0.856 -0.0195 -0.1149 -0.0207
 2485TIP3    H129014   4.592   5.360   0.920 -1.9566 -0.4760  2.2639
 2485TIP3    H229015   4.507   5.258   0.848  0.7524 -0.1436 -1.7507
 2486TIP3   OH229016   0.299   3.892   7.316  0.0761  0.1068  0.3873
 2486TIP3    H129017   0.309   3.949   7.392 -1.3676  0.5435  0.2903
 2486TIP3    H229018   0.205   3.876   7.311  0.3208 -1.2546 -0.3505
 2487TIP3   OH229019   5.473   6.351   7.430  0.3869 -0.0359  0.1941
 2487TIP3    H129020   5.388   6.354   7.474  0.5396  0.8514  0.4360
 2487TIP3    H229021   5.516   6.274   7.467 -1.1970 -1.9007 -1.5991
 2488TIP3   OH229022   1.215   3.798   1.381 -0.0959 -0.1879  0.1329
 2488TIP3    H129023   1.183   3.733   1.444 -1.9886  0.1624 -0.3919
 2488TIP3    H229024   1.189   3.882   1.419 -0.2944  0.0864 -0.5979
 2489TIP3   OH229025   1.072   2.584   0.646  0.1210  0.5985  0.5042
 2489TIP3    H129026   1.155   2.570   0.599  0.4469  1.0503  0.9286
 2489TIP3    H229027   1.091   2.656   0.706 -0.3121  0.0865  1.2737
 2490TIP3   OH229028   3.720   4.851   0.705 -0.0742  0.3508 -0.2303
 2490TIP3    H129029   3.713   4.776   0.765  2.4337 -0.1113 -0.4250
 2490TIP3    H229030   3.707   4.813   0.618 -1.6025  0.6702 -0.1741
 2491TIP3   OH229031   3.812   4.308   8.301 -0.5990  0.0097  0.3927
 2491TIP3    H129032   3.864   4.236   8.266 -1.6456 -0.2256 -0.7360
 2491TIP3    H229033   3.863   4.341   8.375  1.3302  0.0344 -0.8912
 2492TIP3   OH229034   4.724   5.097   7.170  0.1604 -0.1380 -0.2914
 2492TIP3    H129035   4.770   5.102   7.086  1.4859 -1.1986  0.3343
 2492TIP3    H229036   4.645   5.047   7.150  1.5034 -2.2826 -0.5443
 2493TIP3   OH229037   6.280   5.327   7.683 -0.3381  0.1431 -0.1424
 2493TIP3    H129038   6.369   5.313   7.652  0.2875  1.2348  1.0410
 2493TIP3    H229039   6.245   5.396   7.626 -0.8600 -1.0879 -1.3474
 2494TIP3   OH229040   1.328   2.057   7.162  0.9156 -0.3534 -0.2560
 2494TIP3    H129041   1.325   2.128   7.225 -0.2738 -0.8963  0.3332
 2494TIP3    H229042   1.264   2.082   7.095  1.6295 -0.1330 -0.8648
 2495TIP3   OH229043   3.434   5.197   6.961  0.2488  0.3772  0.1643
 2495TIP3    H129044   3.502   5.211   7.027  0.7230 -0.8057 -0.0329
 2495TIP3    H229045   3.403   5.108   6.977  0.2108  0.1518 -1.0453
 2496TIP3   OH229046   0.051   0.758   8.248 -0.4498 -0.1552  0.3065
 2496TIP3    H129047   0.137   0.721   8.228 -2.1500 -5.6410  1.4237
 2496TIP3    H229048   0.005   0.760   8.164 -0.1198 -0.0585  0.1287
 2497TIP3   OH229049   0.666   6.452   8.066 -0.0900 -0.2702 -0.1283
 2497TIP3    H129050   0.687   6.522   8.128 -2.7121  0.2838  0.2661
 2497TIP3    H229051   0.624   6.497   7.992 -1.0085 -1.3135 -0.2762
 2498TIP3   OH229052   4.595   0.865   1.056 -0.2273 -0.2662 -0.1415
 2498TIP3    H129053   4.535   0.897   1.124 -0.3949  0.2278 -0.5136
 2498TIP3    H229054   4.680   0.860   1.099 -0.3646 -0.1171  0.1515
 2499TIP3   OH229055   5.756   3.993   8.479  0.6238  0.1030 -0.1402
 2499TIP3    H129056   5.793   3.918   8.527  2.4422  0.8935 -0.2329
 2499TIP3    H229057   5.715   3.954   8.402  0.4353 -0.9065  0.4480
 2500TIP3   OH229058   5.233   1.864   8.187  0.0479  0.0598 -0.0048
 2500TIP3    H129059   5.150   1.892   8.148  0.0965  1.3332  0.7316
 2500TIP3    H229060   5.258   1.785   8.138 -1.2431  0.0549 -0.6908
 2501TIP3   OH229061   4.348   5.207   0.597  0.0037 -0.1570  0.6585
 2501TIP3    H129062   4.427   5.234   0.548  0.1271 -0.4689  0.6855
 2501TIP3    H229063   4.299   5.288   0.608  0.0390 -0.0563  0.1329
 2502TIP3   OH229064   1.457   1.955   2.563 -0.4093 -0.2161 -0.7064
 2502TIP3    H129065   1.452   2.049   2.545  0.9315 -0.3810 -2.2006
 2502TIP3    H229066   1.391   1.916   2.505 -1.3898 -0.1746  0.3525
 2503TIP3   OH229067   1.141   0.303   0.930 -0.1858 -0.0798 -0.8240
 2503TIP3    H129068   1.083   0.240   0.888  0.8250 -0.6122 -1.4415
 2503TIP3    H229069   1.125   0.385   0.882 -1.4641  0.1497 -0.0487
 2504TIP3   OH229070   2.695   0.556   1.598 -0.3043 -0.0686  0.0492
 2504TIP3    H129071   2.790   0.551   1.586 -0.3234  0.3063 -0.2625
 2504TIP3    H229072   2.684   0.585   1.689 -0.1224 -0.1287  0.0905
 2505TIP3   OH229073   5.040   6.283   8.611  0.3911 -0.5020 -0.1070
 2505TIP3    H129074   5.135   6.270   8.606  0.3430 -1.2766  0.7654
 2505TIP3    H229075   5.005   6.230   8.539  0.6910  1.0007 -1.4172
 2506TIP3   OH229076   2.813   4.001   0.241  0.2620 -0.2700  0.7834
 2506TIP3    H129077   2.790   3.916   0.204 -1.0958  0.7698 -0.8880
 2506TIP3    H229078   2.888   4.030   0.189 -0.2136  0.1945  0.3482
 2507TIP3   OH229079   1.686   1.879   7.851 -0.7840 -0.1429  0.0160
 2507TIP3    H129080   1.777   1.907   7.860 -0.4462 -1.0721 -0.4101
 2507TIP3    H229081   1.662   1.845   7.937 -0.6135 -0.2265  0.0303
 2508TIP3   OH229082   0.092   3.591   8.282 -0.4393 -0.4904 -0.1543
 2508TIP3    H129083   0.078   3.655   8.213 -0.8123 -1.2339 -0.7811
 2508TIP3    H229084   0.062   3.635   8.362 -0.2583  0.2710 -0.5011
 2509TIP3   OH229085   0.518   6.790   1.438 -0.2826 -0.9776  0.3841
 2509TIP3    H129086   0.593   6.832   1.394 -0.5147 -1.1872 -0.2302
 2509TIP3    H229087   0.546   6.779   1.529 -0.2487  0.5844  0.5816
 2510TIP3   OH229088   5.433   6.521   0.637  0.0556 -0.3499 -0.2130
 2510TIP3    H129089   5.344   6.486   0.648  0.0868 -0.1453  0.7478
 2510TIP3    H229090   5.419   6.610   0.607 -0.0379 -0.7937 -1.5347
 2511TIP3   OH229091   3.264   5.304   1.653  0.0928  0.4393  0.4856
 2511TIP3    H129092   3.343   5.286   1.704 -0.1128 -1.9008  0.0549
 2511TIP3    H229093   3.193   5.268   1.706 -0.2968 -0.4963 -0.6392
 2512TIP3   OH229094   0.431   5.092   7.476  0.4563  0.0072  0.6354
 2512TIP3    H129095   0.472   5.176   7.494  0.4827 -0.3343  2.2556
 2512TIP3    H229096   0.488   5.051   7.410  1.1868  0.6805  0.8392
 2513TIP3   OH229097   3.192   3.312   0.798  0.5418 -0.3236  0.4206
 2513TIP3    H129098   3.157   3.269   0.876  1.4397 -0.4819  0.7588
 2513TIP3    H229099   3.274   3.352   0.828  0.2695  0.7134 -0.1430
 2514TIP3   OH229100   4.738   2.469   0.033  0.6855  0.2654  0.1515
 2514TIP3    H129101   4.668   2.519   0.075  1.3054 -0.8014  2.7188
 2514TIP3    H229102   4.697   2.386   0.010  0.6356  0.3854 -0.1873
 2515TIP3   OH229103   5.196   4.007   8.576  0.0348  0.3070 -0.3865
 2515TIP3    H129104   5.114   3.994   8.623 -0.4097  0.7019 -1.0383
 2515TIP3    H229105   5.261   4.020   8.645 -1.1237  4.2963  0.2069
 2516TIP3   OH229106   1.453   2.014   0.772  0.2983  0.2153  0.1129
 2516TIP3    H129107   1.452   1.921   0.750 -0.3990 -0.2803  2.0211
 2516TIP3    H229108   1.367   2.046   0.745 -0.8850 -0.5809  2.6138
 2517TIP3   OH229109   3.466   6.254   6.221  0.3376  0.1409 -0.3113
 2517TIP3    H129110   3.455   6.169   6.179  0.1548 -0.3841  0.7790
 2517TIP3    H229111   3.560   6.272   6.215  0.2457  0.3316 -1.4100
 2518TIP3   OH229112   2.900   0.273   7.593  0.1575 -0.0924 -0.0547
 2518TIP3    H129113   2.939   0.307   7.673  0.7972  0.3642 -0.5504
 2518TIP3    H229114   2.863   0.188   7.618  0.0604  0.1914  0.7919
 2519TIP3   OH229115   3.764   2.041   7.526 -0.4247 -0.0454 -0.1277
 2519TIP3    H129116   3.682   2.000   7.555 -1.4241  1.4638 -0.6681
 2519TIP3    H229117   3.749   2.058   7.432  0.5467  0.1626 -0.2499
 2520TIP3   OH229118   0.578   5.851   1.623 -0.1515 -0.5036 -0.3940
 2520TIP3    H129119   0.508   5.868   1.685 -0.7950 -3.0288 -0.3167
 2520TIP3    H229120   0.651   5.819   1.677  0.5621  0.7071 -0.6152
 2521TIP3   OH229121   4.072   5.088   8.367 -0.8844  0.1854  0.1612
 2521TIP3    H129122   4.151   5.142   8.366 -1.4362  1.0061 -0.5456
 2521TIP3    H229123   4.031   5.108   8.451  0.2115 -1.1254  1.0697
 2522TIP3   OH229124   6.811   3.141   0.906 -0.1025 -0.1064 -0.1618
 2522TIP3    H129125   6.793   3.093   0.987  0.3789  0.7341  0.4777
 2522TIP3    H229126   6.788   3.081   0.836 -0.7297 -0.7868  0.6033
 2523TIP3   OH229127   2.120   3.563   6.942 -0.0569 -0.0562 -0.5230
 2523TIP3    H129128   2.201   3.601   6.975 -0.0296  0.8584 -1.5812
 2523TIP3    H229129   2.126   3.572   6.846 -2.5326  2.5556 -0.5829
 2524TIP3   OH229130   2.433   2.422   0.850 -0.2398  0.7244 -0.5077
 2524TIP3    H129131   2.382   2.342   0.863  0.5316  0.2098 -0.5852
 2524TIP3    H229132   2.410   2.478   0.924  0.2238 -0.1042  0.2698
 2525TIP3   OH229133   1.339   1.498   1.913 -0.4433 -0.7146 -0.1930
 2525TIP3    H129134   1.248   1.516   1.890 -0.6094  0.3010  1.1207
 2525TIP3    H229135   1.335   1.431   1.981 -0.3472  0.5333  1.0872
 2526TIP3   OH229136   2.796   2.825   7.998 -0.1062  0.5574  0.1886
 2526TIP3    H129137   2.793   2.920   7.989  2.6438  0.7661  0.4331
 2526TIP3    H229138   2.884   2.807   8.033 -0.1792 -2.1400 -0.7387
 2527TIP3   OH229139   2.327   2.493   1.108  0.3184  0.2536  0.3165
 2527TIP3    H129140   2.338   2.494   1.203  0.9660 -0.0297  0.2504
 2527TIP3    H229141   2.236   2.467   1.094  0.5649 -0.9292  0.8449
 2528TIP3   OH229142   3.296   1.193   7.495 -0.2794 -0.6001  0.2061
 2528TIP3    H129143   3.330   1.276   7.462 -3.1522  1.3579  1.7454
 2528TIP3    H229144   3.371   1.151   7.537  0.7127  2.6464  1.9603
 2529TIP3   OH229145   0.672   5.144   7.773  0.3160 -0.2212  0.0670
 2529TIP3    H129146   0.751   5.102   7.808  0.6266  0.6069  0.3907
 2529TIP3    H229147   0.603   5.122   7.836  0.8748  1.2706  1.2740
 2530TIP3   OH229148   0.905   0.259   8.010  0.0904 -0.0377  0.3067
 2530TIP3    H129149   0.849   0.184   8.029  2.2079 -1.2188  2.4217
 2530TIP3    H229150   0.970   0.226   7.947 -0.4170  0.7753 -0.6792
 2531TIP3   OH229151   5.266   2.796   8.518  0.0638  0.6157 -0.4746
 2531TIP3    H129152   5.192   2.791   8.458  0.8456  1.2722 -1.5081
 2531TIP3    H229153   5.306   2.881   8.501  1.4656 -0.0110 -0.4165
 2532TIP3   OH229154   0.176   2.703   1.595  0.6115  0.2999 -0.1155
 2532TIP3    H129155   0.247   2.659   1.549 -0.5580 -0.7190 -1.0191
 2532TIP3    H229156   0.097   2.679   1.546 -0.5828 -0.0365  1.8577
 2533TIP3   OH229157   1.917   2.986   7.290 -0.0787  0.3620 -0.0397
 2533TIP3    H129158   1.907   2.989   7.385 -1.4458 -0.1436 -0.1554
 2533TIP3    H229159   1.878   2.903   7.264  0.1623  0.5617 -1.0675
 2534TIP3   OH229160   6.208   2.025   0.402  0.7274 -0.3472  0.0892
 2534TIP3    H129161   6.274   2.043   0.469 -0.1948 -2.0146  1.5172
 2534TIP3    H229162   6.201   1.930   0.399 -2.2788 -0.2537  0.7220
 2535TIP3   OH229163   5.474   4.996   0.213  0.0612 -0.0659  0.8373
 2535TIP3    H129164   5.493   5.085   0.242  1.3258 -0.1188  0.2482
 2535TIP3    H229165   5.555   4.948   0.227 -0.7462 -1.2744  1.5988
 2536TIP3   OH229166   4.484   4.687   1.021 -0.0089 -0.2009 -0.4200
 2536TIP3    H129167   4.394   4.671   1.050 -0.1459 -2.5762 -1.8291
 2536TIP3    H229168   4.538   4.655   1.094 -0.2254  1.8242  0.7041
 2537TIP3   OH229169   2.689   3.873   8.533  0.2568 -0.5077  0.0363
 2537TIP3    H129170   2.729   3.798   8.577 -0.3279  0.0157  1.5494
 2537TIP3    H229171   2.740   3.948   8.564 -2.3056  0.3072  2.8046
 2538TIP3   OH229172   6.543   0.977   0.714  0.0008 -0.0669  0.0752
 2538TIP3    H129173   6.449   0.987   0.727  0.1037  1.0244  0.0378
 2538TIP3    H229174   6.552   0.940   0.626 -0.3423  0.9691 -0.3997
 2539TIP3   OH229175   5.211   0.053   8.494 -0.0602  0.2251 -0.0992
 2539TIP3    H129176   5.200   0.029   8.402  0.0778  0.5247 -0.1925
 2539TIP3    H229177   5.193   0.146   8.498  0.4527  0.3229  0.0867
 2540TIP3   OH229178   2.395   2.116   6.476 -0.0259 -0.5639 -0.1127
 2540TIP3    H129179   2.361   2.099   6.564 -1.0491  0.8184 -0.2099
 2540TIP3    H229180   2.334   2.180   6.439  0.6163 -0.8275 -1.6897
 2541TIP3   OH229181   4.733   5.068   0.292  0.0784 -0.1357  0.0817
 2541TIP3    H129182   4.732   4.985   0.340 -2.7500 -1.0895 -1.4154
 2541TIP3    H229183   4.787   5.051   0.215 -0.9252 -0.8226 -0.4953
 2542TIP3   OH229184   5.991   0.794   2.561  0.1880 -0.0126 -0.1928
 2542TIP3    H129185   5.951   0.880   2.545 -2.5861 -1.2671 -0.7185
 2542TIP3    H229186   6.003   0.791   2.655 -0.4994  0.6518 -0.0675
 2543TIP3   OH229187   1.188   1.255   1.404  0.3681 -0.3438 -0.5431
 2543TIP3    H129188   1.281   1.253   1.381  0.0538 -0.9127 -1.8365
 2543TIP3    H229189   1.144   1.209   1.332 -1.1768  1.9573 -1.1692
 2544TIP3   OH229190   6.645   0.917   0.137 -0.4863  0.1974  0.1318
 2544TIP3    H129191   6.645   0.989   0.200  0.6114  0.7279 -0.4509
 2544TIP3    H229192   6.552   0.903   0.118 -0.7993  0.4461  1.3736
 2545TIP3   OH229193   3.532   0.379   0.156 -0.6485 -0.3951  0.0323
 2545TIP3    H129194   3.570   0.466   0.170 -0.7235 -0.3484 -0.0541
 2545TIP3    H229195   3.463   0.393   0.091 -2.2410 -0.0968  1.6818
 2546TIP3   OH229196   2.893   6.067   0.359  0.3139 -0.2239 -0.5565
 2546TIP3    H129197   2.939   5.983   0.365  0.2629 -0.3783 -1.9406
 2546TIP3    H229198   2.962   6.133   0.359  0.7164 -0.4869 -3.4306
 2547TIP3   OH229199   1.469   2.479   8.466 -0.0007  0.2049 -0.3543
 2547TIP3    H129200   1.419   2.551   8.504  0.4572 -0.6252  1.9860
 2547TIP3    H229201   1.448   2.404   8.521  2.5353 -0.5580 -0.3229
 2548TIP3   OH229202   5.343   2.513   0.484  0.2279  0.3947 -0.1961
 2548TIP3    H129203   5.357   2.599   0.522 -1.5142  0.2172  0.9403
 2548TIP3    H229204   5.269   2.524   0.424 -0.0991 -0.3313  0.0643
 2549TIP3   OH229205   0.407   3.088   8.278 -0.0546  0.2957 -0.2213
 2549TIP3    H129206   0.482   3.092   8.338 -0.9667 -0.4503  1.0002
 2549TIP3    H229207   0.347   3.155   8.309 -0.8393 -0.5548  0.1376
 2550TIP3   OH229208   1.793   2.984   6.704 -0.0391 -0.4144  0.9687
 2550TIP3    H129209   1.790   2.922   6.776  0.5230 -2.7864 -0.8935
 2550TIP3    H229210   1.871   2.958   6.654 -0.1972  1.3605 -0.2731
 2551TIP3   OH229211   2.711   0.258   1.003  0.2387 -0.1279  0.3739
 2551TIP3    H129212   2.759   0.311   0.939  0.8563  0.7476  1.5397
 2551TIP3    H229213   2.702   0.314   1.079  0.5225 -1.5439  1.4947
 2552TIP3   OH229214   6.575   5.255   7.624 -0.5577 -0.0118 -0.2258
 2552TIP3    H129215   6.640   5.301   7.571 -1.2826  0.4767 -0.7260
 2552TIP3    H229216   6.533   5.194   7.562  0.6699 -1.6914  0.5196
 2553TIP3   OH229217   0.954   4.211   1.287 -0.3415 -0.0010  0.2323
 2553TIP3    H129218   1.004   4.287   1.258 -0.3904  0.2248  0.7340
 2553TIP3    H229219   0.915   4.238   1.370  1.1366 -1.2022  1.3618
 2554TIP3   OH229220   2.132   6.685   6.450 -0.0661 -0.0792  0.7554
 2554TIP3    H129221   2.039   6.671   6.434  0.3008 -1.2924 -0.5510
 2554TIP3    H229222   2.146   6.778   6.430 -0.6120 -0.3853 -1.2881
 2555TIP3   OH229223   3.839   0.964   7.056 -0.1976 -0.2113  0.1438
 2555TIP3    H129224   3.803   1.030   6.997  0.4646 -0.4847 -0.5808
 2555TIP3    H229225   3.849   1.009   7.139 -0.2299  0.4588 -0.2094
 2556TIP3   OH229226   6.174   4.182   1.317 -0.3074 -0.0088  0.2211
 2556TIP3    H129227   6.203   4.102   1.362 -0.5324 -0.4086 -0.3356
 2556TIP3    H229228   6.091   4.158   1.277 -0.6647  0.6842  0.5314
 2557TIP3   OH229229   5.617   3.203   1.297 -0.1644  0.4688  0.1197
 2557TIP3    H129230   5.546   3.223   1.236 -0.1901 -0.9258 -0.3615
 2557TIP3    H229231   5.583   3.130   1.349  0.9782 -0.3778 -0.2814
 2558TIP3   OH229232   2.118   6.289   8.280  0.0792  0.0153  0.2774
 2558TIP3    H129233   2.200   6.304   8.328  0.4520  0.9504 -0.6149
 2558TIP3    H229234   2.088   6.204   8.310  0.6630  0.2606  1.6441
 2559TIP3   OH229235   2.837   3.616   7.333  0.2113 -0.0060 -0.4887
 2559TIP3    H129236   2.805   3.569   7.256  0.6458  1.4706 -1.6180
 2559TIP3    H229237   2.810   3.706   7.320 -0.8632  0.0684  1.7796
 2560TIP3   OH229238   0.720   4.322   7.963  0.8399  0.5771  0.0435
 2560TIP3    H129239   0.811   4.348   7.975  1.1999 -0.9770  0.9373
 2560TIP3    H229240   0.717   4.230   7.989 -0.6390  0.0906 -1.6491
 2561TIP3   OH229241   2.644   5.320   0.584  0.3986  0.3294 -0.3156
 2561TIP3    H129242   2.731   5.357   0.599 -0.0014  1.4505 -0.6271
 2561TIP3    H229243   2.641   5.303   0.490  1.4500 -2.8968  0.1007
 2562TIP3   OH229244   1.508   2.175   8.168  0.0822 -0.2325  0.3249
 2562TIP3    H129245   1.561   2.188   8.089  0.2140 -1.0653  0.2612
 2562TIP3    H229246   1.425   2.140   8.134 -0.5403  1.0841  0.4198
 2563TIP3   OH229247   2.248   4.551   8.239 -0.0821  0.0774  0.0130
 2563TIP3    H129248   2.266   4.628   8.294 -0.6157  0.2259 -0.0080
 2563TIP3    H229249   2.307   4.484   8.272 -1.1073 -0.1672  1.4833
 2564TIP3   OH229250   1.873   2.408   1.290  0.3401  0.0992 -0.1788
 2564TIP3    H129251   1.874   2.354   1.369  0.8615 -1.5190 -1.2429
 2564TIP3    H229252   1.792   2.383   1.245  1.0895 -0.6081 -1.1815
 2565TIP3   OH229253   1.167   2.508   6.995  0.2029 -0.2252  0.0584
 2565TIP3    H129254   1.146   2.525   6.903  0.9756 -0.3611 -0.1519
 2565TIP3    H229255   1.242   2.450   6.992  2.2351  2.1925  0.7550
 2566TIP3   OH229256   5.873   0.631   2.326 -0.6489 -0.5382  0.3686
 2566TIP3    H129257   5.834   0.546   2.349 -2.0322 -0.3294 -1.0333
 2566TIP3    H229258   5.894   0.671   2.410 -0.7920 -1.8915  1.0865
 2567TIP3   OH229259   5.927   2.302   8.622 -0.0442 -0.2184 -0.6621
 2567TIP3    H129260   5.914   2.295   8.527 -0.1407 -0.2564 -0.6459
 2567TIP3    H229261   5.841   2.284   8.660 -0.3354  1.1811 -0.6179
 2568TIP3   OH229262   4.580   5.622   0.234  0.1080 -0.1691  0.0653
 2568TIP3    H129263   4.561   5.609   0.141 -0.3456 -2.1102  0.4037
 2568TIP3    H229264   4.671   5.651   0.236  0.5264 -1.3514 -0.9224
 2569TIP3   OH229265   0.807   2.028   8.367 -0.1311  0.2257 -1.0529
 2569TIP3    H129266   0.854   2.106   8.340  0.6744 -0.2375 -1.0047
 2569TIP3    H229267   0.839   1.959   8.309 -1.4269  0.0868 -1.6353
 2570TIP3   OH229268   4.017   6.386   6.956  0.1500 -0.4869 -0.2340
 2570TIP3    H129269   4.086   6.451   6.969  0.5136 -1.0857  0.9054
 2570TIP3    H229270   3.986   6.402   6.866  0.0071  1.4432  0.1243
 2571TIP3   OH229271   4.339   6.742   1.279 -0.2266 -0.1492 -0.0064
 2571TIP3    H129272   4.292   6.746   1.362 -2.6360  1.4884 -1.3286
 2571TIP3    H229273   4.336   6.650   1.254 -1.9077 -0.2454  0.4332
 2572TIP3   OH229274   3.013   5.271   1.768 -0.1981  0.0968  0.4484
 2572TIP3    H129275   2.985   5.198   1.823  1.6366 -1.7084 -0.8723
 2572TIP3    H229276   2.942   5.283   1.705 -0.7754 -0.1438  1.0448
 2573TIP3   OH229277   3.054   2.415   2.156  0.1656  0.1793 -0.3302
 2573TIP3    H129278   2.995   2.469   2.103 -0.0302 -0.1535 -0.4630
 2573TIP3    H229279   3.003   2.335   2.172 -0.7648  1.2043  2.4570
 2574TIP3   OH229280   4.311   4.645   8.068 -0.2371 -0.2084  0.3930
 2574TIP3    H129281   4.353   4.649   8.154  0.2814  0.5858  0.1081
 2574TIP3    H229282   4.248   4.717   8.068 -0.6767 -0.5830  0.3230
 2575TIP3   OH229283   5.743   6.494   1.283  0.4729  0.1906 -0.1859
 2575TIP3    H129284   5.813   6.558   1.290 -0.1766  0.8372  0.7018
 2575TIP3    H229285   5.664   6.546   1.264  0.0143 -0.3848  0.0952
 2576TIP3   OH229286   4.161   1.212   2.195  0.0367 -0.2233 -1.1921
 2576TIP3    H129287   4.077   1.179   2.227  0.5134 -2.5653 -2.1286
 2576TIP3    H229288   4.202   1.250   2.272 -1.4388  0.0191 -0.4820
 2577TIP3   OH229289   0.733   2.435   0.761  0.1710 -0.1810 -0.1564
 2577TIP3    H129290   0.679   2.447   0.682  0.8070 -2.3196 -0.9912
 2577TIP3    H229291   0.689   2.365   0.810 -0.4853  1.4473  1.7027
 2578TIP3   OH229292   5.417   6.626   7.100 -0.4777 -0.7525 -0.3385
 2578TIP3    H129293   5.338   6.573   7.103 -1.5567  0.8061  0.4762
 2578TIP3    H229294   5.443   6.637   7.191 -0.6481  0.5813 -0.4242
 2579TIP3   OH229295   5.370   2.673   7.298  0.4923  0.1262 -0.2949
 2579TIP3    H129296   5.328   2.587   7.288  1.7512 -0.6686  0.8846
 2579TIP3    H229297   5.454   2.664   7.254 -0.2553  1.5170 -2.1166
 2580TIP3   OH229298   3.190   3.118   7.999 -0.2894  0.2458 -0.0759
 2580TIP3    H129299   3.155   3.169   8.072 -0.7089 -1.4676  0.9713
 2580TIP3    H229300   3.140   3.037   8.000  0.0630 -0.0373 -1.9680
 2581TIP3   OH229301   6.825   6.757   1.134  0.3129  0.3310  0.1494
 2581TIP3    H129302   6.870   6.744   1.218  0.5678 -2.4166 -0.3018
 2581TIP3    H229303   6.736   6.726   1.150 -0.3183  1.9954 -0.0151
 2582TIP3   OH229304   2.144   2.527   8.032  0.5516 -0.1248 -0.0595
 2582TIP3    H129305   2.122   2.539   8.124  0.1197  1.2784 -0.3208
 2582TIP3    H229306   2.235   2.555   8.025  0.7068 -0.6178  0.0210
 2583TIP3   OH229307   6.236   0.244   0.737  0.0481 -0.0589  0.6182
 2583TIP3    H129308   6.257   0.169   0.682  0.9063  2.0280 -2.1461
 2583TIP3    H229309   6.142   0.257   0.726  0.2683  0.5549 -0.7570
 2584TIP3   OH229310   6.746   0.904   1.751 -0.0175 -0.4156  0.4892
 2584TIP3    H129311   6.797   0.969   1.799 -1.5547  1.4495 -0.2964
 2584TIP3    H229312   6.791   0.897   1.666 -1.1297  1.4247 -0.3052
 2585TIP3   OH229313   1.007   1.557   2.187 -0.3770  0.4294  0.1824
 2585TIP3    H129314   1.068   1.582   2.256 -0.7572  0.7883  0.3914
 2585TIP3    H229315   0.988   1.465   2.202  0.3889  0.2210 -0.0949
 2586TIP3   OH229316   4.190   3.745   0.089  0.0051  0.2996 -0.1345
 2586TIP3    H129317   4.271   3.782   0.123 -0.0561 -0.1159  0.4780
 2586TIP3    H229318   4.192   3.765  -0.005  0.5364  0.7941 -0.0253
 2587TIP3   OH229319   5.945   5.844   0.050 -0.3235  0.3284  0.5818
 2587TIP3    H129320   5.956   5.749   0.042 -2.0387  0.0836  0.7542
 2587TIP3    H229321   5.881   5.866  -0.017 -1.2528  1.0787  1.6795
 2588TIP3   OH229322   4.363   1.631   0.363 -0.0536  0.3313  0.5091
 2588TIP3    H129323   4.439   1.591   0.320 -0.7302 -0.6430  0.1738
 2588TIP3    H229324   4.333   1.697   0.302  0.8799  1.1605  0.9165
 2589TIP3   OH229325   5.202   4.904   0.285  0.6143 -0.1902  0.4393
 2589TIP3    H129326   5.281   4.955   0.268  0.6770 -0.2529  0.5398
 2589TIP3    H229327   5.232   4.813   0.283  0.3735 -0.2571 -0.4484
 2590TIP3   OH229328   1.393   1.570   7.854 -0.4894 -0.3282  0.6435
 2590TIP3    H129329   1.404   1.664   7.841  1.4865  0.0993  4.0038
 2590TIP3    H229330   1.482   1.535   7.845 -1.0605 -1.7595  0.3217
 2591TIP3   OH229331   5.661   2.141   0.307  0.2440 -0.0583 -1.0430
 2591TIP3    H129332   5.742   2.193   0.305  1.3930 -1.6756  0.0586
 2591TIP3    H229333   5.594   2.202   0.336  1.2780  1.0850 -0.9377
 2592TIP3   OH229334   1.656   4.065   0.755 -0.1107 -0.0312  0.2044
 2592TIP3    H129335   1.718   4.039   0.823 -0.1956  1.0084  0.7030
 2592TIP3    H229336   1.697   4.038   0.673  0.1803 -0.9373  0.6434
 2593TIP3   OH229337   3.916   1.527   1.108  0.4484  0.3958  0.1202
 2593TIP3    H129338   3.915   1.509   1.014 -1.6714  1.8072 -0.1756
 2593TIP3    H229339   4.009   1.543   1.128  1.1498 -1.3984 -1.3790
 2594TIP3   OH229340   4.722   4.273   6.983 -0.1782  0.0404  0.0521
 2594TIP3    H129341   4.682   4.241   7.064 -0.3515  1.7438  0.6629
 2594TIP3    H229342   4.812   4.294   7.007 -0.2353  0.5682 -0.1907
 2595TIP3   OH229343   1.519   5.642   7.486  0.0425 -0.1678 -0.3259
 2595TIP3    H129344   1.608   5.670   7.465  0.1242  0.3777  0.6809
 2595TIP3    H229345   1.486   5.710   7.545 -0.5286 -1.0979  0.4548
 2596TIP3   OH229346   5.231   6.072   0.940  0.1464 -0.3190 -0.6749
 2596TIP3    H129347   5.244   5.977   0.940 -0.2149 -0.3699 -0.3434
 2596TIP3    H229348   5.240   6.097   0.848 -1.1872 -0.8839 -0.9745
 2597TIP3   OH229349   3.823   3.308   0.375  0.0176  0.0930  0.0011
 2597TIP3    H129350   3.770   3.272   0.304 -0.3383 -0.6590  0.6355
 2597TIP3    H229351   3.767   3.375   0.414  0.9564  1.9595 -1.6495
 2598TIP3   OH229352   1.763   4.308   2.445 -0.1467 -0.3511 -0.1298
 2598TIP3    H129353   1.697   4.375   2.463 -0.7312 -1.2705  1.3378
 2598TIP3    H229354   1.719   4.247   2.386 -0.6183 -0.9226  0.7872
 2599TIP3   OH229355   3.672   0.633   7.323 -0.1777 -0.0662 -0.2557
 2599TIP3    H129356   3.763   0.604   7.329 -0.1081  0.3243  1.1429
 2599TIP3    H229357   3.624   0.557   7.291  0.6115 -0.3263 -0.8485
 2600TIP3   OH229358   4.665   4.919   1.023 -0.2378 -0.1694 -0.0973
 2600TIP3    H129359   4.580   4.909   0.982 -0.6541  3.3290 -0.3917
 2600TIP3    H229360   4.646   4.924   1.117 -0.5975  1.7145 -0.2243
 2601TIP3   OH229361   5.198   6.172   7.130  0.2326  0.8855  0.3320
 2601TIP3    H129362   5.224   6.263   7.145  1.9139  0.7139 -1.1687
 2601TIP3    H229363   5.280   6.128   7.106 -0.9703 -0.4040 -1.6561
 2602TIP3   OH229364   0.562   6.034   8.656  0.3251  0.2337 -0.4067
 2602TIP3    H129365   0.597   6.089   8.726  1.8668  0.2922 -1.1834
 2602TIP3    H229366   0.628   5.967   8.643 -0.1432 -0.0346 -1.5129
 2603TIP3   OH229367   0.663   1.144   7.053  0.4379 -0.0781  0.0326
 2603TIP3    H129368   0.669   1.049   7.057  1.9813 -0.0438 -0.7005
 2603TIP3    H229369   0.593   1.161   6.990  0.4001 -0.7386 -0.1120
 2604TIP3   OH229370   1.988   3.113   2.143  0.2211 -0.2049 -0.2182
 2604TIP3    H129371   1.921   3.180   2.156  0.5371  0.0632  0.0409
 2604TIP3    H229372   2.019   3.128   2.053  1.3703  0.9997  0.3466
 2605TIP3   OH229373   4.323   6.216   0.016  0.1592  0.4249 -0.0349
 2605TIP3    H129374   4.352   6.299   0.053  0.2518  0.1205  0.5903
 2605TIP3    H229375   4.250   6.189   0.071 -0.2848  0.4087 -0.6311
 2606TIP3   OH229376   3.901   0.658   0.641  0.0013 -0.2203  0.3489
 2606TIP3    H129377   3.811   0.651   0.608  0.7476  1.5580 -2.4351
 2606TIP3    H229378   3.953   0.609   0.578  1.2051  0.6469  0.6357
 2607TIP3   OH229379   0.985   2.590   7.180 -0.2578 -0.5668  0.3002
 2607TIP3    H129380   1.060   2.567   7.126  1.5349  0.7915  2.0574
 2607TIP3    H229381   0.937   2.508   7.190  1.9638 -1.9241  0.5591
 2608TIP3   OH229382   4.600   1.997   1.643 -0.5379  0.3880  0.1505
 2608TIP3    H129383   4.682   2.040   1.668  1.0393 -2.4422  0.3222
 2608TIP3    H229384   4.622   1.946   1.565 -2.7607  1.2153 -1.1151
 2609TIP3   OH229385   5.417   5.623   6.513 -0.0688 -0.2370 -0.8080
 2609TIP3    H129386   5.344   5.562   6.526  0.9044 -2.0059 -3.0389
 2609TIP3    H229387   5.490   5.568   6.484  1.6569  1.7032 -0.4059
 2610TIP3   OH229388   5.338   2.467   5.954 -0.2400  0.7871  0.0125
 2610TIP3    H129389   5.260   2.437   5.908  1.3579 -0.5849 -1.9956
 2610TIP3    H229390   5.364   2.392   6.008  1.3275  0.0086 -1.6922
 2611TIP3   OH229391   4.693   5.622   0.794 -0.9228 -0.1939  0.0979
 2611TIP3    H129392   4.776   5.629   0.747 -0.6746 -1.9889  0.1895
 2611TIP3    H229393   4.666   5.530   0.782 -2.8176  0.3005  0.2068
 2612TIP3   OH229394   3.261   1.139   0.273  0.3853 -0.2965 -0.1078
 2612TIP3    H129395   3.236   1.150   0.181 -0.5681  1.0168  0.2730
 2612TIP3    H229396   3.240   1.223   0.313  0.5999 -0.9217  1.3652
 2613TIP3   OH229397   4.104   6.110   0.918 -0.2356  0.4355  0.8140
 2613TIP3    H129398   4.160   6.095   0.841 -1.3667 -2.5523  0.4607
 2613TIP3    H229399   4.015   6.110   0.883 -0.8368 -1.8550  2.1459
 2614TIP3   OH229400   6.212   5.993   7.555  0.0070  0.2366  0.0131
 2614TIP3    H129401   6.303   6.011   7.576  0.2761  0.1024 -0.9680
 2614TIP3    H229402   6.194   6.047   7.478 -0.2314 -0.9717 -0.8038
 2615TIP3   OH229403   6.334   3.275   0.223  0.1758  0.1639  0.3611
 2615TIP3    H129404   6.335   3.277   0.319 -0.3817 -0.3626  0.3846
 2615TIP3    H229405   6.417   3.315   0.197  1.0900 -1.2035  1.0894
 2616TIP3   OH229406   5.870   1.731   1.417 -0.2015 -0.3137 -0.0318
 2616TIP3    H129407   5.870   1.635   1.412 -2.1782 -0.3554 -0.0732
 2616TIP3    H229408   5.954   1.752   1.456 -0.5802 -2.2390  2.0971
 2617TIP3   OH229409   4.439   6.202   7.694 -0.2735  0.2625  0.0286
 2617TIP3    H129410   4.456   6.282   7.646 -0.2481  1.5213  2.0211
 2617TIP3    H229411   4.370   6.226   7.757  0.0818 -1.1316  1.0034
 2618TIP3   OH229412   1.039   3.564   8.311 -0.2469 -0.1238  0.2328
 2618TIP3    H129413   1.003   3.616   8.383 -0.6627  0.2348 -0.2273
 2618TIP3    H229414   1.082   3.490   8.354  0.4236  0.6339  0.8975
 2619TIP3   OH229415   6.301   5.058   0.296  0.1874 -0.0605  0.4133
 2619TIP3    H129416   6.395   5.043   0.295  0.2285  0.1713  0.7864
 2619TIP3    H229417   6.283   5.097   0.210  0.5799  0.7783  0.7020
 2620TIP3   OH229418   3.663   3.693   7.296  0.0909  0.1727 -0.1397
 2620TIP3    H129419   3.726   3.753   7.256 -1.2519  1.1881 -0.8223
 2620TIP3    H229420   3.676   3.705   7.391 -0.0006  1.3998 -0.2612
 2621TIP3   OH229421   1.876   2.808   0.350 -0.1195  0.3780 -0.0589
 2621TIP3    H129422   1.945   2.745   0.328 -0.3862  0.6742 -1.8678
 2621TIP3    H229423   1.813   2.758   0.402  1.9171  0.3605  2.6225
 2622TIP3   OH229424   0.238   5.489   1.222  0.8504  0.1297 -0.2703
 2622TIP3    H129425   0.262   5.399   1.200  0.5960  0.1252 -0.5251
 2622TIP3    H229426   0.146   5.484   1.249  0.8857  0.2864 -0.1183
 2623TIP3   OH229427   1.119   1.619   1.712 -0.3976  0.7096 -0.5038
 2623TIP3    H129428   1.085   1.545   1.662 -0.3492  0.4485 -0.1503
 2623TIP3    H229429   1.190   1.653   1.657  0.6757 -0.5266  0.0769
 2624TIP3   OH229430   0.284   0.898   7.251 -0.6376 -0.4115  0.0982
 2624TIP3    H129431   0.274   0.949   7.332 -2.2736 -0.6021  0.0430
 2624TIP3    H229432   0.195   0.879   7.223 -0.1591  0.5190 -2.3268
 2625TIP3   OH229433   4.838   6.782   0.283  0.5431 -0.1371 -0.3468
 2625TIP3    H129434   4.788   6.747   0.209  1.9673 -0.1068 -1.3681
 2625TIP3    H229435   4.928   6.785   0.251  0.6593  3.9392 -0.1775
 2626TIP3   OH229436   0.972   5.488   8.347  0.2616  0.4608  0.8557
 2626TIP3    H129437   0.960   5.555   8.280 -1.1141 -0.1219  0.4731
 2626TIP3    H229438   1.056   5.508   8.387  0.6204  1.4448 -0.3386
 2627TIP3   OH229439   0.324   4.256   0.240 -0.5326  0.1435 -0.0062
 2627TIP3    H129440   0.343   4.181   0.184 -0.6987  0.7916 -0.9578
 2627TIP3    H229441   0.258   4.305   0.192 -0.3943  0.9240  0.5835
 2628TIP3   OH229442   5.267   0.942   8.407  0.7247  0.0153 -0.4048
 2628TIP3    H129443   5.273   1.030   8.369 -0.4036  0.0297 -0.5920
 2628TIP3    H229444   5.224   0.890   8.339 -0.6510 -0.1385  0.5479
 2629TIP3   OH229445   6.114   6.209   0.718 -0.0236 -0.8888  0.3404
 2629TIP3    H129446   6.122   6.298   0.752 -0.5389  0.4117 -2.6786
 2629TIP3    H229447   6.104   6.155   0.797  3.5597  1.2018  2.5303
 2630TIP3   OH229448   3.132   6.437   7.030 -0.1492  0.6594 -0.1922
 2630TIP3    H129449   3.103   6.346   7.030  1.1457  0.2314 -0.4334
 2630TIP3    H229450   3.051   6.488   7.039 -0.8758 -0.5080  0.0809
 2631TIP3   OH229451   2.366   2.954   6.409 -0.2346  0.4424  0.0239
 2631TIP3    H129452   2.282   2.910   6.395 -0.5676  1.8255 -3.0488
 2631TIP3    H229453   2.372   2.964   6.504 -3.5313  0.2539  0.3630
 2632TIP3   OH229454   4.585   4.324   0.523 -0.5592  0.0240  0.2503
 2632TIP3    H129455   4.614   4.312   0.613  0.5029  0.1174 -0.0612
 2632TIP3    H229456   4.490   4.320   0.527 -0.4900 -0.8819  1.2376
 2633TIP3   OH229457   3.215   1.295   8.283  0.1328 -0.2770  0.3884
 2633TIP3    H129458   3.244   1.232   8.350 -0.1247  0.2448  1.0019
 2633TIP3    H229459   3.287   1.296   8.219  0.5788 -0.4685  0.8733
 2634TIP3   OH229460   1.943   4.281   8.407  0.0268 -0.2112 -0.3809
 2634TIP3    H129461   1.978   4.291   8.318 -1.9742  0.0050 -1.1985
 2634TIP3    H229462   2.017   4.250   8.459  2.0488  2.4089 -1.4736
 2635TIP3   OH229463   2.719   6.152   1.142  0.3942  0.0976  0.0362
 2635TIP3    H129464   2.771   6.233   1.141  0.1954  0.2223 -0.1107
 2635TIP3    H229465   2.637   6.176   1.100  0.5108 -0.2997 -0.4225
 2636TIP3   OH229466   2.251   1.625   2.564  0.5907 -0.0170  0.7021
 2636TIP3    H129467   2.322   1.629   2.627  0.7385  2.4482  0.4727
 2636TIP3    H229468   2.186   1.567   2.605  0.9765  0.9509  2.7959
 2637TIP3   OH229469   2.671   6.482   1.474 -0.3047 -0.1107 -0.5646
 2637TIP3    H129470   2.728   6.412   1.443  0.0063 -0.3592  0.5425
 2637TIP3    H229471   2.585   6.442   1.482 -0.5303  0.1177 -1.6847
 2638TIP3   OH229472   2.411   2.710   7.839  0.0221  0.3186 -0.6428
 2638TIP3    H129473   2.344   2.685   7.776 -1.1727  1.6414  0.0336
 2638TIP3    H229474   2.433   2.801   7.816 -0.6875  0.9474  0.9973
 2639TIP3   OH229475   6.674   0.651   6.273 -0.1586  0.4330 -0.1556
 2639TIP3    H129476   6.739   0.610   6.216 -0.3048  1.4028 -1.0599
 2639TIP3    H229477   6.712   0.645   6.361  0.4901 -0.2843 -0.4721
 2640TIP3   OH229478   4.225   5.748   8.664  0.3806 -0.4338  0.1250
 2640TIP3    H129479   4.303   5.757   8.609  0.1313  0.8631 -0.0500
 2640TIP3    H229480   4.169   5.821   8.638 -1.5330 -2.0914 -0.7447
 2641TIP3   OH229481   4.000   3.801   0.572  0.1041 -0.2033  0.0690
 2641TIP3    H129482   3.920   3.760   0.601  0.3768 -0.0705  1.0342
 2641TIP3    H229483   4.053   3.811   0.651 -0.2190  2.5951  0.0591
 2642TIP3   OH229484   4.781   5.093   0.822 -0.1597  0.3144  0.4831
 2642TIP3    H129485   4.798   5.005   0.789  2.5493  0.6796  0.6933
 2642TIP3    H229486   4.719   5.080   0.893  0.0235 -1.3997  0.3770
 2643TIP3   OH229487   2.131   5.065   0.914  0.4580  0.2632 -0.1331
 2643TIP3    H129488   2.128   4.996   0.848 -1.8491  0.4942 -0.3438
 2643TIP3    H229489   2.112   5.145   0.866  0.4353  0.6750  0.5468
 2644TIP3   OH229490   2.812   2.834   1.454  0.0511  0.0895 -0.0524
 2644TIP3    H129491   2.795   2.764   1.516 -2.0324  0.8879  0.3451
 2644TIP3    H229492   2.884   2.883   1.492  1.2685 -1.5493 -0.1403
 2645TIP3   OH229493   6.028   3.329   7.680  0.1237  0.5419 -0.1759
 2645TIP3    H129494   6.118   3.331   7.647  0.9817 -1.7447  1.7622
 2645TIP3    H229495   6.007   3.235   7.685 -1.8298  0.9964  0.8221
 2646TIP3   OH229496   3.524   2.419   8.327  0.2079 -0.1740 -0.0041
 2646TIP3    H129497   3.444   2.460   8.359  0.1592 -0.2975  0.0325
 2646TIP3    H229498   3.594   2.481   8.349 -0.0014  0.4280 -0.9811
 2647TIP3   OH229499   6.641   5.914   0.537 -0.0174  0.1787 -0.2015
 2647TIP3    H129500   6.606   5.851   0.474 -0.2140 -0.2261  0.3028
 2647TIP3    H229501   6.639   5.998   0.492 -0.5843 -0.0308 -0.5729
 2648TIP3   OH229502   4.749   0.897   0.203  0.0676 -0.1406 -0.3772
 2648TIP3    H129503   4.734   0.992   0.196  0.4081  0.0329  0.8931
 2648TIP3    H229504   4.707   0.860   0.126 -1.1711  0.9376 -0.2544
 2649TIP3   OH229505   2.802   4.391   0.232  0.5505 -0.0342 -0.8882
 2649TIP3    H129506   2.884   4.357   0.196  2.3799  2.0331  1.0487
 2649TIP3    H229507   2.827   4.470   0.279 -2.7681  1.3736 -1.1879
 2650TIP3   OH229508   4.499   5.734   2.186  0.0427 -0.0190  0.4325
 2650TIP3    H129509   4.587   5.769   2.172  0.8012 -1.0977  2.1446
 2650TIP3    H229510   4.486   5.740   2.281 -0.4441 -2.7629  0.6163
 2651TIP3   OH229511   0.177   4.127   1.368  0.6444 -0.1134 -0.2064
 2651TIP3    H129512   0.235   4.088   1.433 -0.3661 -1.5978 -0.1282
 2651TIP3    H229513   0.169   4.059   1.301 -1.1388 -0.0322 -0.1100
 2652TIP3   OH229514   3.832   5.775   7.306 -0.1819  0.3965  0.0839
 2652TIP3    H129515   3.832   5.731   7.220  2.4175  2.1514 -0.9329
 2652TIP3    H229516   3.858   5.706   7.367 -0.8370 -0.5877 -0.6976
 2653TIP3   OH229517   2.580   0.995   6.742  0.1582 -0.6176  0.0410
 2653TIP3    H129518   2.609   0.940   6.670  0.5389 -0.8987  0.3997
 2653TIP3    H229519   2.534   0.936   6.801  1.9071 -0.9224  1.1989
 2654TIP3   OH229520   3.342   5.799   0.840 -0.3948 -0.3980  0.3591
 2654TIP3    H129521   3.411   5.764   0.784 -0.8326 -0.4609 -0.1586
 2654TIP3    H229522   3.272   5.734   0.834 -0.0766 -0.9058  1.7828
 2655TIP3   OH229523   2.763   2.239   8.637 -0.2730  0.1121 -0.1669
 2655TIP3    H129524   2.671   2.233   8.613 -0.2168  1.6851 -0.8891
 2655TIP3    H229525   2.786   2.331   8.623  0.9426  0.1535  1.7223
 2656TIP3   OH229526   6.088   6.341   7.192 -0.0687 -0.1095 -0.3471
 2656TIP3    H129527   6.023   6.311   7.129 -0.1287  1.8332 -1.3038
 2656TIP3    H229528   6.040   6.351   7.274 -0.2039 -1.7518 -0.1963
 2657TIP3   OH229529   2.387   3.037   0.363  0.2138  0.2685  0.2270
 2657TIP3    H129530   2.470   3.072   0.395 -1.5101  2.2284  3.0545
 2657TIP3    H229531   2.404   2.944   0.349  2.8017  0.5561  0.9172
 2658TIP3   OH229532   4.924   4.735   7.925 -0.0375 -0.6598  0.3744
 2658TIP3    H129533   4.937   4.815   7.874  0.7481  0.3767  2.0953
 2658TIP3    H229534   5.006   4.687   7.914 -0.7954 -1.6404 -1.2766
 2659TIP3   OH229535   0.070   4.806   8.549 -0.0185  0.1242  0.1419
 2659TIP3    H129536   0.128   4.731   8.542  0.3939  0.3815  0.7709
 2659TIP3    H229537   0.022   4.793   8.631  0.3157  0.7242  0.4378
 2660TIP3   OH229538   3.980   4.702   0.896 -0.1672  0.3239 -0.2798
 2660TIP3    H129539   4.000   4.675   0.806  2.5444  1.4363 -0.0915
 2660TIP3    H229540   4.003   4.626   0.950  1.4009  0.7700 -0.2827
 2661TIP3   OH229541   0.878   0.254   2.217 -0.3431  0.7298  0.9193
 2661TIP3    H129542   0.830   0.174   2.198  0.3329  0.8549 -1.5975
 2661TIP3    H229543   0.900   0.247   2.310  1.1782 -2.8180  0.4455
 2662TIP3   OH229544   3.479   0.170   0.953  0.2566 -0.2939  0.2168
 2662TIP3    H129545   3.465   0.230   1.027  1.4443  0.0954  0.1452
 2662TIP3    H229546   3.448   0.218   0.877 -0.0587 -0.3100  0.3342
 2663TIP3   OH229547   3.972   6.410   6.673 -0.0980 -0.5689  0.2058
 2663TIP3    H129548   3.973   6.475   6.602 -0.6571  2.1335  2.5152
 2663TIP3    H229549   4.044   6.351   6.651  0.2681  0.6151 -2.1682
 2664TIP3   OH229550   4.102   5.812   2.232 -0.0527 -0.2912  0.3813
 2664TIP3    H129551   4.053   5.863   2.167  1.5166 -0.4689 -1.0167
 2664TIP3    H229552   4.072   5.722   2.218  0.0068 -0.2779  0.1667
 2665TIP3   OH229553   1.600   5.341   8.309 -0.0655  0.2628  0.4712
 2665TIP3    H129554   1.567   5.415   8.360 -0.6990  0.3912 -0.1186
 2665TIP3    H229555   1.532   5.324   8.244 -1.0747 -2.3256  2.0101
 2666TIP3   OH229556   0.139   5.930   8.608  0.1872 -0.3714  0.0228
 2666TIP3    H129557   0.093   6.009   8.577  1.8789  0.1368 -1.3724
 2666TIP3    H229558   0.071   5.862   8.610 -0.6606  0.3475 -1.8783
 2667TIP3   OH229559   1.342   1.875   0.439 -0.3184 -0.7963 -0.4027
 2667TIP3    H129560   1.248   1.887   0.426 -0.2528 -0.2982 -0.4381
 2667TIP3    H229561   1.353   1.868   0.533 -0.4114 -1.0305 -0.4091
 2668TIP3   OH229562   2.604   6.685   6.906  0.1254 -0.0746  0.1223
 2668TIP3    H129563   2.593   6.591   6.891  1.5865 -0.2330 -0.0810
 2668TIP3    H229564   2.613   6.722   6.818 -1.4116  0.4152  0.1388
 2669TIP3   OH229565   3.597   4.006   8.480 -0.2151 -0.4159 -0.2789
 2669TIP3    H129566   3.647   4.019   8.561  0.2121  0.2630 -0.6402
 2669TIP3    H229567   3.627   3.921   8.447  2.0631  0.7286 -1.4082
 2670TIP3   OH229568   6.831   6.779   1.420 -0.0219 -0.2022 -0.2417
 2670TIP3    H129569   6.801   6.706   1.474 -0.3526 -0.6339 -0.9956
 2670TIP3    H229570   6.847   6.849   1.483  0.7632 -1.0585  0.5598
 2671TIP3   OH229571   1.929   5.514   7.309 -0.1016  0.2315 -0.0365
 2671TIP3    H129572   1.852   5.481   7.354 -0.4554  0.6744 -0.3144
 2671TIP3    H229573   1.899   5.591   7.261  0.3703  0.0625 -0.6329
 2672TIP3   OH229574   1.963   6.262   7.272  0.3147 -0.5428 -0.2098
 2672TIP3    H129575   1.936   6.275   7.363 -0.6041  1.8085 -0.7438
 2672TIP3    H229576   1.885   6.282   7.221  0.9373 -1.4169 -1.5533
 2673TIP3   OH229577   4.714   0.075   7.075 -0.2583  0.1010  0.4206
 2673TIP3    H129578   4.628   0.080   7.034  0.3361 -1.4515 -1.1776
 2673TIP3    H229579   4.770   0.131   7.021  0.2388 -0.8581 -0.0906
 2674TIP3   OH229580   1.789   1.281   0.128 -0.2569 -0.7426  0.1433
 2674TIP3    H129581   1.846   1.340   0.177 -1.1352 -0.4365  0.8203
 2674TIP3    H229582   1.774   1.326   0.044 -1.5378  0.3864  0.9456
 2675TIP3   OH229583   5.070   5.503   0.733  0.0401 -0.5349 -0.2512
 2675TIP3    H129584   5.035   5.516   0.821  2.7740 -1.1840  1.0347
 2675TIP3    H229585   5.025   5.424   0.701 -3.6668  1.6747 -1.0555
 2676TIP3   OH229586   1.544   2.735   8.106 -0.2335  0.1567  0.0078
 2676TIP3    H129587   1.563   2.761   8.016  0.1791 -0.3975 -0.0654
 2676TIP3    H229588   1.461   2.687   8.100 -1.3002  1.8764  0.2179
 2677TIP3   OH229589   1.339   6.554   1.340 -0.2211  0.8610 -0.1110
 2677TIP3    H129590   1.308   6.573   1.429 -0.9308 -2.3708  0.4774
 2677TIP3    H229591   1.433   6.573   1.343 -0.3316  1.3157  1.1791
 2678TIP3   OH229592   4.899   6.162   7.996  0.1851  0.4242  0.6665
 2678TIP3    H129593   4.993   6.160   8.011 -0.0028 -0.2696  1.9142
 2678TIP3    H229594   4.861   6.196   8.077 -0.6360  0.8555  0.1250
 2679TIP3   OH229595   0.189   0.777   0.562  0.3605  0.3133 -0.2100
 2679TIP3    H129596   0.179   0.717   0.636  0.0724 -0.2975 -0.7299
 2679TIP3    H229597   0.208   0.720   0.488 -0.6420  0.7975 -0.8626
 2680TIP3   OH229598   0.609   4.199   7.126  0.3093 -0.3881 -0.1616
 2680TIP3    H129599   0.608   4.253   7.047  3.0541  0.9629  0.6177
 2680TIP3    H229600   0.544   4.240   7.184  0.6639  0.6514 -0.4818
 2681TIP3   OH229601   3.619   6.289   2.353  0.3958 -0.2181 -0.5544
 2681TIP3    H129602   3.562   6.220   2.320 -1.5176  1.4012 -0.7560
 2681TIP3    H229603   3.620   6.276   2.448 -1.6918  0.6908 -0.3627
 2682TIP3   OH229604   1.525   2.088   1.974 -0.3277  0.6197  0.5348
 2682TIP3    H129605   1.432   2.104   1.960 -0.2066  0.2561 -0.9065
 2682TIP3    H229606   1.568   2.130   1.900  0.6180  0.3937  0.9345
 2683TIP3   OH229607   6.270   3.525   2.252 -0.3900 -0.0401 -0.3813
 2683TIP3    H129608   6.351   3.545   2.299 -0.2225 -0.0159 -0.6843
 2683TIP3    H229609   6.267   3.430   2.248 -0.9707 -0.0863  0.6764
 2684TIP3   OH229610   6.712   2.440   6.449  0.5544 -0.5349  0.4259
 2684TIP3    H129611   6.631   2.421   6.402 -0.5160  4.2482 -0.1189
 2684TIP3    H229612   6.765   2.491   6.387  1.7238  0.8125  2.4302
 2685TIP3   OH229613   3.959   1.509   1.461 -0.4221 -0.5400  0.0646
 2685TIP3    H129614   3.932   1.569   1.531 -0.6648  1.0235 -1.3174
 2685TIP3    H229615   3.887   1.446   1.454 -0.4852 -0.5987  1.0736
 2686TIP3   OH229616   4.857   3.978   1.766  0.8105  0.5254 -0.0454
 2686TIP3    H129617   4.940   3.981   1.814  0.3044 -1.7713  1.1351
 2686TIP3    H229618   4.800   3.923   1.820 -0.8499  0.4054 -1.7965
 2687TIP3   OH229619   2.971   3.718   7.735  0.2079 -0.0810  0.6043
 2687TIP3    H129620   2.905   3.787   7.729  0.7316  0.4203  0.5495
 2687TIP3    H229621   2.931   3.642   7.693 -0.4160  0.1516  0.7649
 2688TIP3   OH229622   3.750   2.812   8.473  0.1057  0.1518 -0.5013
 2688TIP3    H129623   3.731   2.722   8.445 -1.1851 -0.3742  1.8171
 2688TIP3    H229624   3.749   2.863   8.392 -2.7267 -1.3646 -1.5752
 2689TIP3   OH229625   4.350   5.437   2.457 -0.0208  0.6741 -0.1305
 2689TIP3    H129626   4.407   5.423   2.382 -0.4939 -1.6116 -0.1468
 2689TIP3    H229627   4.408   5.440   2.532  0.2985  0.9939 -0.3875
 2690TIP3   OH229628   5.334   1.860   2.425 -0.2333  0.6960  0.1362
 2690TIP3    H129629   5.286   1.883   2.345  1.0203  0.8532 -0.6032
 2690TIP3    H229630   5.424   1.887   2.407  0.5968 -1.5120  0.6267
 2691TIP3   OH229631   5.011   6.794   2.414  0.1159  0.2313 -0.2957
 2691TIP3    H129632   5.038   6.726   2.352  1.2990  0.1290  0.2855
 2691TIP3    H229633   4.984   6.746   2.492 -1.3512  0.3593 -0.7065
 2692TIP3   OH229634   5.980   4.928   2.388  0.5638  0.3765  0.6131
 2692TIP3    H129635   5.991   4.915   2.482 -0.2971  1.7643  0.9313
 2692TIP3    H229636   5.984   5.022   2.375 -1.9252  0.4528 -0.3274
 2693TIP3   OH229637   1.205   6.223   8.363  0.6980 -0.4230  0.1110
 2693TIP3    H129638   1.244   6.227   8.450  1.6258  1.4055 -0.3481
 2693TIP3    H229639   1.126   6.277   8.369  0.6001 -0.5400 -0.1091
 2694TIP3   OH229640   6.042   5.994   8.530 -0.0483 -0.3621  0.2003
 2694TIP3    H129641   6.030   5.923   8.468  0.8275 -0.0618 -0.3328
 2694TIP3    H229642   6.019   5.956   8.615  0.8083 -1.4269 -0.0109
 2695TIP3   OH229643   6.359   6.129   7.802  0.3188  0.3291 -0.8574
 2695TIP3    H129644   6.309   6.076   7.741 -3.2538  1.1698  1.0778
 2695TIP3    H229645   6.377   6.071   7.876  0.6799  0.5341 -0.7784
 2696TIP3   OH229646   2.382   6.736   0.442  0.2253  0.3903 -0.0674
 2696TIP3    H129647   2.428   6.662   0.402  0.9250 -0.3723  1.9922
 2696TIP3    H229648   2.451   6.785   0.487 -0.7960 -0.2633  2.3358
 2697TIP3   OH229649   0.823   4.104   8.171 -0.3668 -0.6867  0.2246
 2697TIP3    H129650   0.864   4.187   8.195 -0.8266 -0.3513 -0.1355
 2697TIP3    H229651   0.878   4.037   8.213  1.6733 -0.3719 -1.7494
 2698TIP3   OH229652   2.301   4.758   1.435 -0.5105  0.2219  0.5383
 2698TIP3    H129653   2.264   4.824   1.494 -0.5491  0.4522  0.2651
 2698TIP3    H229654   2.394   4.779   1.430 -0.7937  1.3514 -0.8876
 2699TIP3   OH229655   1.675   0.885   7.308  0.2398 -0.5906  0.5822
 2699TIP3    H129656   1.601   0.898   7.250  0.0675  1.6344  1.1824
 2699TIP3    H229657   1.743   0.846   7.253 -0.3830  0.1691 -0.7654
 2700TIP3   OH229658   6.205   3.980   0.089 -0.5768 -0.3780 -0.0798
 2700TIP3    H129659   6.276   4.042   0.104 -1.4759  0.5012  0.6960
 2700TIP3    H229660   6.233   3.900   0.133 -0.6408  0.3801  1.3959
 2701TIP3   OH229661   4.968   4.454   0.591  0.2699  0.1289 -0.1640
 2701TIP3    H129662   5.057   4.472   0.562  0.0592  0.1120 -0.8429
 2701TIP3    H229663   4.972   4.369   0.634  0.6043  0.1849 -0.0890
 2702TIP3   OH229664   4.060   4.488   8.434  0.0581  0.0376  0.9610
 2702TIP3    H129665   3.970   4.518   8.440 -0.0305  0.9782 -2.8182
 2702TIP3    H229666   4.111   4.567   8.420  1.0595 -0.7622 -0.0346
 2703TIP3   OH229667   2.373   0.694   6.608  0.0991  0.1935 -0.3355
 2703TIP3    H129668   2.366   0.599   6.614 -0.6609  0.2914  0.8011
 2703TIP3    H229669   2.327   0.717   6.527  0.2445 -0.4025 -0.5898
 2704TIP3   OH229670   5.836   6.026   8.169  0.5417  0.4170 -0.4207
 2704TIP3    H129671   5.854   6.119   8.175  0.8704  0.3039  0.6434
 2704TIP3    H229672   5.923   5.986   8.158  0.9464 -0.0138  3.0906
 2705TIP3   OH229673   3.908   3.366   6.855 -0.2518 -0.5251 -0.0375
 2705TIP3    H129674   3.908   3.395   6.764  1.7059  0.6348  0.2653
 2705TIP3    H229675   4.001   3.359   6.878 -0.6966 -1.4378  1.6839
 2706TIP3   OH229676   0.678   6.025   1.073  0.8728 -0.0209 -0.3920
 2706TIP3    H129677   0.760   5.993   1.112  0.0280 -2.0352 -0.1920
 2706TIP3    H229678   0.627   5.947   1.055 -0.6981  1.1510 -1.2967
 2707TIP3   OH229679   5.157   2.322   1.139 -0.1432 -0.2450  0.0888
 2707TIP3    H129680   5.229   2.309   1.077 -0.6476 -1.1182 -0.3356
 2707TIP3    H229681   5.137   2.233   1.170 -0.5868  0.0706  0.7111
 2708TIP3   OH229682   0.513   4.577   7.081  0.6026  0.1684 -0.4015
 2708TIP3    H129683   0.585   4.514   7.091 -0.1669 -0.6344  0.2399
 2708TIP3    H229684   0.437   4.532   7.118  0.3398  2.0647  1.5902
 2709TIP3   OH229685   6.200   3.337   8.683 -0.6400  0.3590 -0.1438
 2709TIP3    H129686   6.133   3.268   8.681  0.3164 -0.6180  0.6421
 2709TIP3    H229687   6.234   3.335   8.773  1.8068 -0.5072 -1.0116
 2710TIP3   OH229688   3.668   6.862   0.450  0.1064 -0.0877 -0.4279
 2710TIP3    H129689   3.617   6.893   0.376 -1.2768 -2.4969 -0.6038
 2710TIP3    H229690   3.611   6.876   0.526  0.9764  1.1620  0.0071
 2711TIP3   OH229691   2.852   2.118   0.943  0.2569 -0.0486  0.4085
 2711TIP3    H129692   2.886   2.065   0.871  0.1923 -0.1134  0.4263
 2711TIP3    H229693   2.885   2.206   0.924  0.1693 -0.0476  0.2515
 2712TIP3   OH229694   4.017   5.184   0.739  0.0410 -0.1452 -0.0706
 2712TIP3    H129695   4.092   5.126   0.726  0.5474  0.8637 -2.0060
 2712TIP3    H229696   3.945   5.141   0.694  0.4981  0.8166 -1.8038
 2713TIP3   OH229697   5.062   2.328   6.510 -0.6672  0.3407  0.0511
 2713TIP3    H129698   5.119   2.403   6.526 -0.7178  0.8267 -1.7430
 2713TIP3    H229699   5.111   2.274   6.447 -1.1586 -0.4857  0.3616
 2714TIP3   OH229700   5.839   0.512   1.651  0.2006 -0.9501 -0.3420
 2714TIP3    H129701   5.900   0.439   1.662  1.6487  0.4726  2.0153
 2714TIP3    H229702   5.880   0.585   1.699 -1.1024  1.4729 -2.6654
 2715TIP3   OH229703   1.261   6.276   7.073  0.4081  0.8075 -0.2110
 2715TIP3    H129704   1.328   6.247   7.011  0.5455 -0.7302  0.6083
 2715TIP3    H229705   1.238   6.365   7.044  1.7801  0.8271 -1.3354
 2716TIP3   OH229706   3.811   1.773   7.272 -1.1971  0.1900  0.0613
 2716TIP3    H129707   3.780   1.856   7.236 -2.4958 -0.1030  0.4691
 2716TIP3    H229708   3.899   1.763   7.234 -1.3157  1.3611 -0.6002
 2717TIP3   OH229709   2.155   0.017   7.319  0.2077 -0.2343  0.1177
 2717TIP3    H129710   2.117   0.038   7.234 -0.8795 -0.6603  0.4715
 2717TIP3    H229711   2.152  -0.079   7.323 -1.0496 -0.1764  1.1780
 2718TIP3   OH229712   2.763   4.056   1.491 -0.1446 -0.0453 -0.5631
 2718TIP3    H129713   2.800   4.080   1.576  1.9141  0.1097 -1.4394
 2718TIP3    H229714   2.833   4.008   1.447 -1.7676 -1.6832 -1.5372
 2719TIP3   OH229715   4.835   3.357   8.228  0.1577  1.2765 -0.7753
 2719TIP3    H129716   4.887   3.287   8.188 -0.2197  0.8629 -0.5501
 2719TIP3    H229717   4.749   3.318   8.243 -0.3116  2.0318 -1.3935
 2720TIP3   OH229718   3.384   2.734   6.195 -0.5143  0.5299  0.0654
 2720TIP3    H129719   3.358   2.652   6.238 -0.0375  0.1025 -0.4527
 2720TIP3    H229720   3.464   2.712   6.148 -0.2824  1.3439  0.0681
 2721TIP3   OH229721   6.060   5.068   8.107 -0.3216 -0.2092  0.0755
 2721TIP3    H129722   6.118   5.119   8.163 -0.2775 -1.4471  1.1928
 2721TIP3    H229723   6.105   5.064   8.022  0.3096  0.4275  0.3719
 2722TIP3   OH229724   4.630   6.043   7.871 -0.1922 -0.1780  0.0791
 2722TIP3    H129725   4.550   5.992   7.883  0.2687 -0.8129  0.4936
 2722TIP3    H229726   4.607   6.109   7.805 -0.0469 -2.5938 -2.5558
 2723TIP3   OH229727   4.316   3.845   6.415  0.3245  0.3132 -0.1026
 2723TIP3    H129728   4.411   3.853   6.424  0.5515 -1.0889 -0.9101
 2723TIP3    H229729   4.297   3.758   6.450 -0.8820  1.1256  1.3901
 2724TIP3   OH229730   4.307   1.029   2.028 -0.4216 -0.3977  0.0651
 2724TIP3    H129731   4.396   0.996   2.038 -0.1171 -0.5670 -2.5323
 2724TIP3    H229732   4.261   0.997   2.106  1.2406 -2.2008  0.3969
 2725TIP3   OH229733   1.714   2.249   1.808  0.8052  0.2268  0.0655
 2725TIP3    H129734   1.809   2.239   1.796  0.5886 -4.1612  0.5116
 2725TIP3    H229735   1.706   2.308   1.883  3.3000 -0.8326  1.3008
 2726TIP3   OH229736   0.648   3.050   1.005  0.3853  0.5974 -0.2938
 2726TIP3    H129737   0.553   3.040   1.004  0.3743 -0.5107  2.2828
 2726TIP3    H229738   0.668   3.076   1.095  2.5483  0.5216 -0.6972
 2727TIP3   OH229739   2.184   0.367   5.982 -0.3047  0.2766 -0.0355
 2727TIP3    H129740   2.222   0.433   5.923  1.1792  0.2078  0.7812
 2727TIP3    H229741   2.177   0.412   6.066 -1.2464  0.0072  0.0359
 2728TIP3   OH229742   5.576   5.662   8.418 -0.0211  0.2506  0.4793
 2728TIP3    H129743   5.654   5.696   8.374  0.3082  0.0851  0.9237
 2728TIP3    H229744   5.580   5.567   8.403  1.2017 -0.0822  2.5529
 2729TIP3   OH229745   0.070   6.596   0.943  0.5692 -0.0532  0.6952
 2729TIP3    H129746   0.014   6.648   1.000 -0.5824 -1.8389  1.2387
 2729TIP3    H229747   0.082   6.651   0.865 -1.1850  0.7433  0.9500
 2730TIP3   OH229748   4.150   6.736   0.938  0.1129  0.0128 -0.1722
 2730TIP3    H129749   4.197   6.655   0.917  0.7506  0.2409  0.3517
 2730TIP3    H229750   4.058   6.712   0.931  0.2961 -0.8146  0.1559
 2731TIP3   OH229751   3.159   5.228   6.870  0.3287  0.2648  0.9283
 2731TIP3    H129752   3.126   5.146   6.833  0.4047  0.0504  1.3321
 2731TIP3    H229753   3.253   5.227   6.851  0.0278  1.1724 -0.7878
 2732TIP3   OH229754   5.001   0.410   1.093  0.0245  0.2238  0.0784
 2732TIP3    H129755   4.929   0.347   1.083  0.5725 -0.9071  2.5398
 2732TIP3    H229756   5.076   0.366   1.052 -0.4142  1.0004 -1.6461
 2733TIP3   OH229757   3.760   5.025   0.120 -0.3746  0.0893 -0.3648
 2733TIP3    H129758   3.793   4.938   0.097  1.7007  0.9036 -0.6648
 2733TIP3    H229759   3.775   5.078   0.041 -0.3284  1.0371  0.2583
 2734TIP3   OH229760   1.619   4.427   7.376 -0.7840 -0.2439 -0.1904
 2734TIP3    H129761   1.653   4.452   7.462  0.0351  2.3978 -1.1946
 2734TIP3    H229762   1.588   4.509   7.338  1.2486 -0.8062 -3.4195
 2735TIP3   OH229763   3.175   5.923   0.006 -0.2838  0.9422  0.3411
 2735TIP3    H129764   3.189   5.989  -0.062  1.8600  0.0408 -0.1899
 2735TIP3    H229765   3.215   5.961   0.085  2.6115 -0.2844 -0.3795
 2736TIP3   OH229766   6.322   3.977   6.318 -0.1891 -0.1324  0.3124
 2736TIP3    H129767   6.256   3.959   6.386 -0.4755 -0.8488 -0.1510
 2736TIP3    H229768   6.334   4.072   6.322 -0.8489 -0.0596  0.7744
 2737TIP3   OH229769   2.595   5.037   6.933  0.0476 -0.1991  0.5680
 2737TIP3    H129770   2.664   5.099   6.909  0.2451 -1.0942 -1.3037
 2737TIP3    H229771   2.642   4.962   6.970  0.0659 -0.6032 -0.2539
 2738TIP3   OH229772   1.245   5.136   1.214  0.3043 -0.5983  0.2350
 2738TIP3    H129773   1.285   5.199   1.154  0.2647 -0.9292 -0.1462
 2738TIP3    H229774   1.269   5.050   1.178  0.3271 -0.8034  0.7257
 2739TIP3   OH229775   0.778   0.957   8.161 -0.1183  0.5410  0.5452
 2739TIP3    H129776   0.712   0.888   8.158 -0.0261  0.4118  1.3836
 2739TIP3    H229777   0.817   0.950   8.248  1.1616  0.4632 -0.0147
 2740TIP3   OH229778   3.226   2.538   7.569 -0.3357  0.4479  0.0937
 2740TIP3    H129779   3.216   2.601   7.498  2.6311  2.9082  1.6614
 2740TIP3    H229780   3.182   2.579   7.643 -1.1347 -0.9039  0.4133
 2741TIP3   OH229781   5.002   3.285   7.995 -0.3338 -0.1466 -0.4921
 2741TIP3    H129782   4.985   3.213   7.935  0.1491 -1.2891  0.6909
 2741TIP3    H229783   5.041   3.354   7.941 -2.7822  0.1125 -2.0616
 2742TIP3   OH229784   0.833   3.910   7.876 -0.7095 -0.0577  0.1987
 2742TIP3    H129785   0.857   3.882   7.965 -1.4812 -0.2826  0.3464
 2742TIP3    H229786   0.741   3.937   7.884 -0.8478 -0.2737 -0.5711
 2743TIP3   OH229787   1.346   1.430   8.100 -0.2766 -0.4161  0.8979
 2743TIP3    H129788   1.397   1.364   8.052 -1.1250 -0.2744 -0.2237
 2743TIP3    H229789   1.325   1.497   8.035  1.9573  1.8749  2.3462
 2744TIP3   OH229790   6.044   3.434   1.856 -0.0057  0.5933 -0.0691
 2744TIP3    H129791   5.958   3.474   1.843  0.1930  1.0416 -0.0427
 2744TIP3    H229792   6.096   3.504   1.895  0.4501  0.4113 -0.3527
 2745TIP3   OH229793   5.450   1.065   8.127  0.4755 -0.3090  0.3192
 2745TIP3    H129794   5.391   1.110   8.188  1.2300  1.4980 -0.2447
 2745TIP3    H229795   5.392   1.010   8.074 -0.4498 -0.1415  1.1321
 2746TIP3   OH229796   5.297   1.902   8.664  0.0657  0.4703 -0.1423
 2746TIP3    H129797   5.285   1.971   8.729  0.0502 -0.3909  0.8071
 2746TIP3    H229798   5.217   1.902   8.613 -0.6259  0.1088  0.9008
 2747TIP3   OH229799   5.187   3.710   0.727  0.6440  0.3805 -0.6436
 2747TIP3    H129800   5.159   3.802   0.726  0.9728  0.5356  1.3251
 2747TIP3    H229801   5.107   3.662   0.749  1.0046  0.4489  0.8810
 2748TIP3   OH229802   3.859   0.512   2.331  0.1139  0.0444  0.7344
 2748TIP3    H129803   3.906   0.451   2.275 -0.3734 -0.6898  1.1096
 2748TIP3    H229804   3.909   0.593   2.326 -0.9197  0.6278 -2.2632
 2749TIP3   OH229805   0.435   1.226   7.623  0.3277 -0.3112 -0.0885
 2749TIP3    H129806   0.530   1.223   7.629  0.2702 -1.4108  0.3070
 2749TIP3    H229807   0.406   1.260   7.707  0.2616 -2.2978  0.7314
 2750TIP3   OH229808   4.785   1.738   7.169  0.3940 -0.4609 -0.4548
 2750TIP3    H129809   4.851   1.672   7.191  0.8485 -0.1594 -0.8870
 2750TIP3    H229810   4.810   1.769   7.082  0.8677  1.0980  0.1988
 2751TIP3   OH229811   4.325   5.701   1.962 -0.2920  0.5443 -0.0089
 2751TIP3    H129812   4.340   5.730   1.872  0.2105  2.0920  0.5327
 2751TIP3    H229813   4.411   5.709   2.004  0.7370 -4.6314 -0.4525
 2752TIP3   OH229814   6.695   4.115   0.603  0.1005 -0.7593  0.5248
 2752TIP3    H129815   6.677   4.204   0.633 -1.7475 -0.6647 -0.6920
 2752TIP3    H229816   6.752   4.078   0.670  2.4184  1.8877  0.2081
 2753TIP3   OH229817   6.382   1.078   7.052 -0.2854 -0.1024  0.0470
 2753TIP3    H129818   6.329   1.155   7.031 -0.7791 -0.2989  0.5346
 2753TIP3    H229819   6.387   1.078   7.148 -0.4991 -0.8151  0.0616
 2754TIP3   OH229820   3.077   2.670   7.759  0.0387  0.4064 -0.1399
 2754TIP3    H129821   3.058   2.764   7.754  0.0174  0.3176 -3.0056
 2754TIP3    H229822   3.141   2.663   7.830 -1.5744  2.2405  1.6539
 2755TIP3   OH229823   5.357   2.885   6.932  0.2045 -0.0837  0.6749
 2755TIP3    H129824   5.340   2.955   6.995  0.0600 -1.1824  1.9024
 2755TIP3    H229825   5.277   2.881   6.879 -0.7880 -0.8981  2.1739
 2756TIP3   OH229826   6.092   1.605   0.887 -0.5880  0.4308  0.2620
 2756TIP3    H129827   6.139   1.570   0.811 -0.7461 -0.7903  0.7052
 2756TIP3    H229828   6.005   1.565   0.882 -0.9289  1.1216  0.5479
 2757TIP3   OH229829   0.418   3.753   1.509  0.2215 -0.0071 -0.7782
 2757TIP3    H129830   0.494   3.700   1.533 -1.2341 -2.4660 -1.3396
 2757TIP3    H229831   0.342   3.698   1.529 -1.3789  1.7775 -1.6241
 2758TIP3   OH229832   6.334   0.279   7.029  0.7362  0.0935 -0.4035
 2758TIP3    H129833   6.368   0.368   7.032 -0.0306  0.3811  1.0482
 2758TIP3    H229834   6.411   0.224   7.011  1.4230  0.9564 -0.1561
 2759TIP3   OH229835   2.453   1.953   1.535 -0.0074  0.0808  0.1236
 2759TIP3    H129836   2.447   1.864   1.569 -0.4683 -0.5321 -1.4557
 2759TIP3    H229837   2.535   1.954   1.485 -1.4536 -0.4385 -2.3991
 2760TIP3   OH229838   1.469   6.792   6.881 -0.3684  0.4818 -0.3289
 2760TIP3    H129839   1.441   6.791   6.973 -1.5605  0.4692 -0.6794
 2760TIP3    H229840   1.417   6.722   6.840 -0.3635  0.9609 -1.1607
 2761TIP3   OH229841   1.611   1.290   6.137  0.0338  0.3389  0.1024
 2761TIP3    H129842   1.669   1.311   6.064  1.6261 -0.8618  0.9631
 2761TIP3    H229843   1.609   1.370   6.190 -1.3743  1.3275 -1.3327
 2762TIP3   OH229844   5.640   2.480   0.715 -0.2639  0.2084 -0.0001
 2762TIP3    H129845   5.699   2.432   0.773  1.0315  0.8809 -0.7064
 2762TIP3    H229846   5.596   2.413   0.663  0.8652 -0.2751 -0.3680
 2763TIP3   OH229847   6.579   3.660   8.538  0.0135 -0.2090  0.0042
 2763TIP3    H129848   6.647   3.658   8.606  0.5969  2.1116 -0.4193
 2763TIP3    H229849   6.501   3.689   8.585  0.0743  0.0354 -0.0424
 2764TIP3   OH229850   2.246   2.628   2.465  0.3439  0.3981  0.8161
 2764TIP3    H129851   2.200   2.638   2.382  3.0880  1.6404 -0.6846
 2764TIP3    H229852   2.201   2.689   2.525 -2.1700 -1.0926  0.5798
 2765TIP3   OH229853   0.993   1.433   1.476 -0.6763 -0.0651  0.6759
 2765TIP3    H129854   1.073   1.382   1.467 -1.3495 -1.3230  1.4873
 2765TIP3    H229855   0.976   1.467   1.388  2.0825  2.4035  0.9466
 2766TIP3   OH229856   0.882   5.712   7.512 -0.4904 -0.1583  0.1620
 2766TIP3    H129857   0.844   5.698   7.599  2.3110  0.4875  1.6156
 2766TIP3    H229858   0.887   5.624   7.474 -0.0498 -0.7357  1.4833
 2767TIP3   OH229859   5.969   6.006   0.295 -0.0495 -0.1233 -0.1408
 2767TIP3    H129860   6.049   6.055   0.276  0.2680 -0.2327  0.8654
 2767TIP3    H229861   5.956   5.951   0.218  0.9931 -0.2898 -0.2100
 2768TIP3   OH229862   0.213   2.118   0.605  0.1654  0.3207  0.1563
 2768TIP3    H129863   0.237   2.192   0.548  2.5280  1.2930  2.2414
 2768TIP3    H229864   0.148   2.155   0.665 -0.6473 -0.0702 -0.4747
 2769TIP3   OH229865   3.911   6.705   2.007  0.2036  0.0436 -0.0714
 2769TIP3    H129866   3.858   6.689   2.085 -0.6855  3.1991  0.0873
 2769TIP3    H229867   3.859   6.668   1.936 -0.9978  0.7691  0.3893
 2770TIP3   OH229868   2.461   5.064   7.835 -0.2659 -0.5632  0.6023
 2770TIP3    H129869   2.480   4.971   7.849  1.0793 -0.3463  0.3852
 2770TIP3    H229870   2.546   5.107   7.842 -0.3861  0.3165 -2.1327
 2771TIP3   OH229871   0.153   0.618   1.697 -0.6071  0.5101  0.0777
 2771TIP3    H129872   0.193   0.545   1.649  1.4846  2.2322 -0.9488
 2771TIP3    H229873   0.129   0.681   1.629  0.7031  2.2020  1.1088
 2772TIP3   OH229874   0.467   2.230   8.097  0.3772 -0.4203 -0.4482
 2772TIP3    H129875   0.478   2.270   8.010  0.4111  0.7265  0.0627
 2772TIP3    H229876   0.505   2.143   8.088 -0.7520 -0.7994 -1.9309
 2773TIP3   OH229877   2.634   6.693   7.862  0.0199 -1.1569 -0.2337
 2773TIP3    H129878   2.639   6.666   7.954  0.4868 -0.3270 -0.0097
 2773TIP3    H229879   2.675   6.622   7.814  0.8300 -1.0624  0.3065
 2774TIP3   OH229880   2.685   2.302   0.745 -0.0360 -0.9479  0.2324
 2774TIP3    H129881   2.662   2.278   0.655 -0.6210 -2.0630  0.6636
 2774TIP3    H229882   2.607   2.282   0.796  0.1851 -0.0455  0.9578
 2775TIP3   OH229883   6.474   4.025   8.505  0.1022 -0.8461 -0.1069
 2775TIP3    H129884   6.413   4.014   8.432  1.4687  1.5856 -1.7551
 2775TIP3    H229885   6.434   3.977   8.577 -3.6619  0.4065 -1.1351
 2776TIP3   OH229886   2.186   6.420   0.368 -0.1551  0.1796 -0.1430
 2776TIP3    H129887   2.140   6.337   0.384  0.1235  0.1716  0.7068
 2776TIP3    H229888   2.119   6.487   0.382  0.1804  0.1932  1.6357
 2777TIP3   OH229889   2.479   4.978   1.592 -0.1010 -0.0500  0.5509
 2777TIP3    H129890   2.385   4.960   1.594 -0.1093 -0.1098 -0.3352
 2777TIP3    H229891   2.507   4.966   1.683 -1.1479  1.0265  1.0504
 2778TIP3   OH229892   6.269   4.428   7.851  0.0102 -0.1238  0.4184
 2778TIP3    H129893   6.322   4.505   7.872 -0.8806  0.1884  1.6365
 2778TIP3    H229894   6.262   4.381   7.934  1.5028 -2.1701 -0.5400
 2779TIP3   OH229895   4.021   3.881   8.152  0.0443 -0.6976 -0.3562
 2779TIP3    H129896   4.081   3.881   8.227  0.9037  0.4223 -1.0071
 2779TIP3    H229897   3.976   3.966   8.157 -1.0015 -1.2449 -0.2673
 2780TIP3   OH229898   5.783   1.269   6.568 -0.0201  0.1169 -0.0505
 2780TIP3    H129899   5.760   1.189   6.616 -1.1710 -0.1710 -1.0295
 2780TIP3    H229900   5.806   1.238   6.480  0.8067  0.7560 -0.0745
 2781TIP3   OH229901   6.341   2.136   0.633 -0.0544  0.0363 -0.0110
 2781TIP3    H129902   6.378   2.091   0.709  0.0399 -0.3400 -0.2802
 2781TIP3    H229903   6.246   2.137   0.650 -0.0212  0.0845  0.1783
 2782TIP3   OH229904   3.705   6.648   7.513 -0.0036  0.2560 -0.7755
 2782TIP3    H129905   3.626   6.681   7.556  0.7024  0.8892  0.0555
 2782TIP3    H229906   3.724   6.565   7.558 -0.4107 -0.0982 -1.2450
 2783TIP3   OH229907   2.666   6.231   0.338  0.1596  0.3011 -0.1131
 2783TIP3    H129908   2.625   6.233   0.424  0.1255 -1.5505 -0.0522
 2783TIP3    H229909   2.747   6.181   0.352  0.2108  0.0911 -1.1221
 2784TIP3   OH229910   3.968   1.896   0.482  0.4057 -1.0738  0.3193
 2784TIP3    H129911   3.890   1.842   0.471  0.5713 -1.3752  0.6043
 2784TIP3    H229912   4.020   1.850   0.547  0.1033 -0.0580  1.3040
 2785TIP3   OH229913   5.016   5.231   0.759 -0.0490  0.3491 -0.9114
 2785TIP3    H129914   4.937   5.180   0.779  0.2268  0.3274  0.1775
 2785TIP3    H229915   5.066   5.175   0.698 -1.2591  0.7335 -2.3086
 2786TIP3   OH229916   4.060   0.550   7.583 -0.0619  0.2910 -0.0760
 2786TIP3    H129917   4.016   0.485   7.529 -0.4278 -0.1704  0.7595
 2786TIP3    H229918   4.005   0.557   7.662  0.0927  1.4423 -0.0518
 2787TIP3   OH229919   0.516   3.722   7.950  0.4455  0.8235 -0.1713
 2787TIP3    H129920   0.514   3.627   7.941 -2.2331  0.8307 -0.3379
 2787TIP3    H229921   0.542   3.737   8.041  1.0811 -0.0219 -0.1967
 2788TIP3   OH229922   1.315   5.338   6.502  0.3239 -0.5884  0.1435
 2788TIP3    H129923   1.282   5.267   6.447  2.1215 -1.9107  0.6862
 2788TIP3    H229924   1.375   5.386   6.445 -0.8395  0.5149 -0.2025
 2789TIP3   OH229925   0.597   3.674   1.934  0.2398  0.5544 -0.3820
 2789TIP3    H129926   0.640   3.644   2.014 -1.8138 -0.7255  0.3336
 2789TIP3    H229927   0.542   3.600   1.907  0.7860  0.9919 -2.9506
 2790TIP3   OH229928   1.811   6.468   6.770 -0.0739 -0.2360  0.2448
 2790TIP3    H129929   1.819   6.378   6.799 -1.0385 -0.7268 -0.9087
 2790TIP3    H229930   1.766   6.462   6.686 -1.2227  1.3802  0.6881
 2791TIP3   OH229931   6.498   3.349   1.764  0.2047 -0.4169 -0.2617
 2791TIP3    H129932   6.451   3.273   1.799  0.3881 -0.1528  0.5861
 2791TIP3    H229933   6.508   3.407   1.839 -2.5942  1.8428 -1.4613
 2792TIP3   OH229934   5.520   1.253   6.799 -0.3168  0.3686  0.3011
 2792TIP3    H129935   5.510   1.345   6.776 -0.8515 -0.1314 -1.6151
 2792TIP3    H229936   5.430   1.222   6.814 -0.2694 -0.1564 -0.4470
 2793TIP3   OH229937   3.770   1.164   6.850  0.0424  0.0691 -0.2347
 2793TIP3    H129938   3.713   1.167   6.773 -1.0215 -1.5033  0.4464
 2793TIP3    H229939   3.851   1.206   6.821  0.1906 -1.6541 -2.6525
 2794TIP3   OH229940   5.107   1.894   0.410  0.0383 -0.0146 -0.4140
 2794TIP3    H129941   5.096   1.948   0.332 -3.4933 -0.7988 -0.6531
 2794TIP3    H229942   5.194   1.857   0.402  1.0623  2.5047 -2.2418
 2795TIP3   OH229943   1.936   0.660   6.539 -0.6806  0.2446 -0.0624
 2795TIP3    H129944   1.845   0.648   6.563  0.0716 -0.9992  2.4796
 2795TIP3    H229945   1.958   0.582   6.488 -0.4743 -0.5901  1.2690
 2796TIP3   OH229946   4.627   6.754   7.682 -0.2537  0.6226  0.2452
 2796TIP3    H129947   4.690   6.798   7.626  0.6484  1.6108  1.9280
 2796TIP3    H229948   4.662   6.666   7.695 -0.9258  0.0778 -1.3729
 2797TIP3   OH229949   0.373   0.373   2.458  0.8450 -0.1162 -0.1784
 2797TIP3    H129950   0.405   0.319   2.385  1.9796  0.7508 -0.3673
 2797TIP3    H229951   0.453   0.407   2.498  0.2083 -0.1018  1.1106
 2798TIP3   OH229952   0.645   0.099   1.285  0.2011  0.2544 -0.0164
 2798TIP3    H129953   0.661   0.164   1.354 -0.9880  0.6239 -0.0696
 2798TIP3    H229954   0.733   0.074   1.255  0.7121  0.7819  0.9796
 2799TIP3   OH229955   2.793   0.015   7.662  0.8965 -0.0213  0.3359
 2799TIP3    H129956   2.698   0.022   7.658  0.9244 -0.2033 -1.3022
 2799TIP3    H229957   2.812  -0.014   7.752 -0.5800 -0.1217  0.6305
 2800TIP3   OH229958   4.344   0.159   7.188 -0.6433  0.1283  0.1343
 2800TIP3    H129959   4.402   0.087   7.213 -1.0742 -0.1922  0.2123
 2800TIP3    H229960   4.313   0.136   7.101 -0.9452  0.1185  0.2449
 2801TIP3   OH229961   5.050   0.848   7.271 -0.1135  0.7178 -0.1858
 2801TIP3    H129962   4.980   0.830   7.208  1.1446 -0.4793 -1.3204
 2801TIP3    H229963   5.037   0.784   7.341 -0.3373  0.7078 -0.2351
 2802TIP3   OH229964   3.337   1.118   6.489  0.6925 -0.0585  0.0217
 2802TIP3    H129965   3.331   1.185   6.558  1.8806 -0.2692  0.3425
 2802TIP3    H229966   3.424   1.130   6.451  0.0679  0.0344 -1.4500
 2803TIP3   OH229967   3.512   6.475   0.670 -0.8736 -0.0370 -0.0851
 2803TIP3    H129968   3.432   6.439   0.634 -0.1049  1.0711 -3.2361
 2803TIP3    H229969   3.547   6.406   0.726 -1.9936 -2.1290 -1.8301
 2804TIP3   OH229970   5.599   6.447   8.586 -0.0105 -0.1305 -0.4152
 2804TIP3    H129971   5.508   6.440   8.615  0.4701  0.4775  1.3797
 2804TIP3    H229972   5.650   6.444   8.667  1.5541 -0.0319 -1.3528
 2805TIP3   OH229973   0.926   5.921   1.975  0.1640 -0.0719  0.4226
 2805TIP3    H129974   1.009   5.903   2.019 -0.7463 -1.2766  1.7264
 2805TIP3    H229975   0.941   6.003   1.929  2.2187 -0.4929  0.2416
 2806TIP3   OH229976   2.206   3.010   2.322 -0.8960 -1.2294  0.2042
 2806TIP3    H129977   2.134   2.973   2.372 -1.7163 -1.9487 -1.4332
 2806TIP3    H229978   2.165   3.046   2.243  0.2836  0.3295  0.2455
 2807TIP3   OH229979   5.929   6.347   0.091  0.0255 -0.0083  0.3181
 2807TIP3    H129980   5.891   6.431   0.119  0.8504  1.1644 -1.8027
 2807TIP3    H229981   5.908   6.342  -0.003  0.3785 -1.9903  0.3099
 2808TIP3   OH229982   2.351   6.050   8.657  0.8173 -0.5846  0.0206
 2808TIP3    H129983   2.279   6.081   8.602  0.8921 -1.8323 -0.8369
 2808TIP3    H229984   2.428   6.053   8.601  0.9824 -1.4669  0.1777
 2809TIP3   OH229985   6.447   1.263   7.440 -0.0243  0.1864 -0.4531
 2809TIP3    H129986   6.521   1.318   7.467 -0.3251  0.8197 -0.8948
 2809TIP3    H229987   6.488   1.179   7.416  0.2806 -0.3647  1.7276
 2810TIP3   OH229988   2.998   6.587   1.564 -0.3778 -0.5650 -0.3349
 2810TIP3    H129989   2.986   6.678   1.539  0.4333 -0.5168 -0.5613
 2810TIP3    H229990   3.066   6.554   1.506 -0.9420 -1.4331 -0.5358
 2811TIP3   OH229991   1.262   3.182   8.141 -0.0512  0.5466  0.2322
 2811TIP3    H129992   1.330   3.147   8.082 -0.1514  1.1546 -0.2532
 2811TIP3    H229993   1.306   3.252   8.189  0.7556 -1.4962  2.7089
 2812TIP3   OH229994   1.481   4.195   7.017 -0.2103  0.1583 -0.0127
 2812TIP3    H129995   1.430   4.127   6.972 -0.5898  0.7990 -0.5665
 2812TIP3    H229996   1.571   4.178   6.990 -0.4900  0.8760 -1.5125
 2813TIP3   OH229997   2.993   0.568   1.595  0.2352 -0.0634 -0.2778
 2813TIP3    H129998   3.010   0.544   1.686 -0.6767  1.3325  0.2833
 2813TIP3    H229999   3.023   0.658   1.587 -0.1735  0.0049 -1.2092
 2814TIP3   OH230000   0.387   4.453   7.857  0.6171 -0.0376  0.8878
 2814TIP3    H130001   0.308   4.486   7.814  1.1951  0.1672 -0.0405
 2814TIP3    H230002   0.430   4.531   7.892  1.0886  0.0165  0.2136
 2815TIP3   OH230003   1.887   5.321   7.083  0.1665  0.2471 -0.4034
 2815TIP3    H130004   1.929   5.399   7.121 -2.1494  1.2227  0.3018
 2815TIP3    H230005   1.852   5.274   7.159 -1.2632  0.2459 -1.0424
 2816TIP3   OH230006   6.865   4.109   0.378 -0.1436  0.5596 -0.0213
 2816TIP3    H130007   6.820   4.144   0.302 -1.2577 -0.8331 -0.0307
 2816TIP3    H230008   6.809   4.133   0.452  1.0785  2.1663  0.4454
 2817TIP3   OH230009   1.920   1.641   7.877  0.2700  0.0986  0.4116
 2817TIP3    H130010   1.994   1.683   7.921 -1.1500  2.5259  0.6979
 2817TIP3    H230011   1.847   1.651   7.939 -0.8340 -0.0427 -0.8254
 2818TIP3   OH230012   0.373   6.658   7.983 -0.2472  0.1156 -0.2903
 2818TIP3    H130013   0.416   6.654   7.898  0.0496  0.7892 -0.1781
 2818TIP3    H230014   0.370   6.566   8.012 -0.1805 -0.0966 -0.9328
 2819TIP3   OH230015   4.387   1.911   1.828  0.5716 -0.2673 -0.0803
 2819TIP3    H130016   4.443   1.930   1.753 -0.1271 -0.1002 -0.5657
 2819TIP3    H230017   4.346   1.995   1.850  2.3047  0.1813  1.8012
 2820TIP3   OH230018   6.446   2.619   8.543  0.0171 -0.1712 -0.2435
 2820TIP3    H130019   6.403   2.537   8.566 -1.2652  0.5416  0.0158
 2820TIP3    H230020   6.400   2.650   8.465 -1.1790  1.4561  1.0227
 2821TIP3   OH230021   4.172   5.312   6.448 -0.2479  0.5523  0.2738
 2821TIP3    H130022   4.131   5.398   6.457  0.6070  0.9274  0.6483
 2821TIP3    H230023   4.169   5.294   6.354 -0.8618  0.7731  0.2459
 2822TIP3   OH230024   4.060   1.463   2.365 -0.1190  0.0965  0.1199
 2822TIP3    H130025   4.068   1.528   2.295 -0.3948 -0.1118 -0.1056
 2822TIP3    H230026   4.148   1.429   2.377 -0.6432 -2.7400 -2.8485
 2823TIP3   OH230027   3.257   3.665   0.500 -0.9042  0.7434  0.0994
 2823TIP3    H130028   3.346   3.656   0.535 -0.2151 -2.0849 -2.0595
 2823TIP3    H230029   3.211   3.718   0.566  1.8027  0.5767  2.3048
 2824TIP3   OH230030   4.283   2.128   8.040  0.5705 -0.0433 -0.3076
 2824TIP3    H130031   4.260   2.035   8.034 -0.2770  0.0245  1.3297
 2824TIP3    H230032   4.226   2.171   7.977 -0.4488 -0.4180  0.3433
 2825TIP3   OH230033   4.328   1.650   8.017 -0.1968  0.2182 -0.1108
 2825TIP3    H130034   4.385   1.585   7.976  0.4705  0.5797  0.2434
 2825TIP3    H230035   4.308   1.612   8.103  1.1212  0.9904  0.5576
 2826TIP3   OH230036   6.431   6.747   1.627  0.1731  0.5011 -0.2032
 2826TIP3    H130037   6.365   6.716   1.564  0.6882  0.2736 -0.6384
 2826TIP3    H230038   6.430   6.681   1.697  2.4279 -1.5007 -1.9057
 2827TIP3   OH230039   1.697   4.889   6.796  0.0926  0.4941  0.7324
 2827TIP3    H130040   1.777   4.925   6.834 -0.2707  1.8477  0.2607
 2827TIP3    H230041   1.643   4.965   6.775 -0.4928 -0.3023 -0.8088
 2828TIP3   OH230042   4.267   6.072   8.261 -0.8221 -0.0971  0.5112
 2828TIP3    H130043   4.295   6.037   8.346 -1.4942 -0.6350  0.5187
 2828TIP3    H230044   4.264   5.995   8.204 -0.7537  0.2026  0.1032
 2829TIP3   OH230045   2.365   0.122   6.978 -0.1367  0.4069  0.1063
 2829TIP3    H130046   2.392   0.188   7.042 -0.3803 -0.5186  1.2116
 2829TIP3    H230047   2.401   0.152   6.895  1.7592  0.7251  0.9945
 2830TIP3   OH230048   1.194   0.743   7.455 -0.6153 -0.0875  0.2570
 2830TIP3    H130049   1.231   0.830   7.437 -1.1531  0.0103 -0.4301
 2830TIP3    H230050   1.219   0.691   7.378  0.0488 -0.6653  0.8471
 2831TIP3   OH230051   6.202   2.864   0.028  0.1083 -0.7321  0.4011
 2831TIP3    H130052   6.258   2.902   0.096 -0.8944 -0.9724  1.3852
 2831TIP3    H230053   6.239   2.897  -0.054  1.9263 -1.2153  0.9816
 2832TIP3   OH230054   4.678   1.725   8.046 -0.7165  0.2914 -0.0758
 2832TIP3    H130055   4.644   1.700   7.960 -1.5522 -0.5201  0.4649
 2832TIP3    H230056   4.632   1.667   8.107 -0.5731  1.2501  0.9759
 2833TIP3   OH230057   1.090   4.837   8.365  0.0662  0.4779  0.1792
 2833TIP3    H130058   1.184   4.857   8.369 -0.1659  1.7397 -0.3975
 2833TIP3    H230059   1.052   4.888   8.437 -0.1159 -0.5719  0.8632
 2834TIP3   OH230060   2.768   1.389   8.566 -0.5066 -0.1125 -0.3121
 2834TIP3    H130061   2.855   1.350   8.568 -0.7569 -0.6692 -0.1155
 2834TIP3    H230062   2.762   1.440   8.647 -0.1112  0.4882 -0.6583
 2835TIP3   OH230063   5.340   6.302   8.542 -0.1303  0.3595  0.1126
 2835TIP3    H130064   5.423   6.265   8.513 -0.4636 -0.5733  0.3232
 2835TIP3    H230065   5.299   6.337   8.463 -0.0750 -0.2588 -0.1943
 2836TIP3   OH230066   5.765   1.147   7.812 -0.2629 -0.3403 -0.3150
 2836TIP3    H130067   5.732   1.157   7.723  0.0537  2.1658 -0.2158
 2836TIP3    H230068   5.711   1.077   7.850 -1.4222 -0.4025 -1.9944
 2837TIP3   OH230069   1.303   2.697   8.523 -0.2298 -0.1746 -0.0677
 2837TIP3    H130070   1.330   2.768   8.466 -2.5664 -0.7424 -2.0084
 2837TIP3    H230071   1.266   2.740   8.600  0.8602  0.6337  0.0260
 2838TIP3   OH230072   2.831   2.306   0.246 -0.3174 -0.5500  0.2152
 2838TIP3    H130073   2.899   2.239   0.241 -0.5674 -0.7579 -0.6453
 2838TIP3    H230074   2.793   2.308   0.158 -1.2765 -0.2879  0.6141
 2839TIP3   OH230075   0.847   5.402   7.703 -0.2463 -0.2794  0.3613
 2839TIP3    H130076   0.758   5.403   7.737 -0.7358 -1.6968 -0.7520
 2839TIP3    H230077   0.862   5.311   7.676  1.3279  0.0517 -0.0173
 2840TIP3   OH230078   0.756   6.614   1.620 -0.1343 -0.0433  0.0256
 2840TIP3    H130079   0.778   6.597   1.528  1.3961 -1.4577  0.6040
 2840TIP3    H230080   0.817   6.682   1.647 -0.2776  0.0523  0.1061
 2841TIP3   OH230081   4.012   5.479   0.818 -0.1356 -0.7594  0.1446
 2841TIP3    H130082   4.106   5.489   0.834 -0.0474  1.1111 -1.2247
 2841TIP3    H230083   4.001   5.387   0.796  1.5585 -0.8083 -0.6547
 2842TIP3   OH230084   6.381   4.258   8.604  0.2626 -0.1115 -0.3901
 2842TIP3    H130085   6.372   4.180   8.550  0.3450  0.0150 -0.5900
 2842TIP3    H230086   6.457   4.303   8.567 -1.0504  1.1691 -1.6873
 2843TIP3   OH230087   3.586   1.165   7.488  0.0667  0.4723  0.4672
 2843TIP3    H130088   3.560   1.248   7.448 -3.2265 -0.4509  0.3953
 2843TIP3    H230089   3.573   1.100   7.420 -1.6065 -0.5968  1.7282
 2844TIP3   OH230090   6.799   5.291   6.913 -0.2359 -0.1815  0.4658
 2844TIP3    H130091   6.817   5.317   7.003 -0.4125  1.4081  0.0640
 2844TIP3    H230092   6.877   5.241   6.887  0.5436  0.7350  0.9881
 2845TIP3   OH230093   2.946   2.632   0.881 -0.0110  0.1327  0.1832
 2845TIP3    H130094   2.876   2.586   0.926  0.4007 -1.7418 -0.9641
 2845TIP3    H230095   2.930   2.724   0.898 -2.8065 -0.2199 -0.0960
 2846TIP3   OH230096   6.701   1.265   2.306  0.0217 -0.2363 -0.2420
 2846TIP3    H130097   6.611   1.293   2.292  0.1007 -0.4714 -1.2541
 2846TIP3    H230098   6.694   1.198   2.375 -0.6159 -0.4820 -0.5364
 2847TIP3   OH230099   0.844   6.831   7.371  0.0353  0.2170  0.0507
 2847TIP3    H130100   0.764   6.881   7.387 -0.0660  0.3856 -0.9479
 2847TIP3    H230101   0.816   6.740   7.370  0.0677  0.1923  0.9509
 2848TIP3   OH230102   2.566   5.049   0.817 -0.3618 -0.5878  0.4355
 2848TIP3    H130103   2.572   4.967   0.864 -0.5392 -0.7496  0.1802
 2848TIP3    H230104   2.606   5.032   0.732 -2.9420 -1.2804 -0.7569
 2849TIP3   OH230105   1.041   6.745   7.545  0.3168 -0.4503 -0.0904
 2849TIP3    H130106   0.972   6.793   7.499 -0.2693 -2.0871 -1.0011
 2849TIP3    H230107   1.023   6.759   7.638 -0.8954 -0.3800 -0.3237
 2850TIP3   OH230108   2.566   4.926   7.517 -0.4349  0.1288  0.1437
 2850TIP3    H130109   2.616   4.997   7.559 -0.3232 -0.3709  0.8705
 2850TIP3    H230110   2.511   4.971   7.453  0.5317  0.7522 -0.2864
 2851TIP3   OH230111   5.560   2.891   7.617  0.6594  0.1815 -0.1044
 2851TIP3    H130112   5.490   2.940   7.574  1.1510 -0.4151 -1.6216
 2851TIP3    H230113   5.633   2.953   7.622  1.7014 -0.6289 -3.1282
 2852TIP3   OH230114   3.766   4.095   6.817  0.1587 -0.3225 -0.2358
 2852TIP3    H130115   3.775   4.034   6.744 -0.2566  1.0114 -1.4454
 2852TIP3    H230116   3.763   4.182   6.777  2.2806  0.6780  1.5189
 2853TIP3   OH230117   3.525   6.319   7.113 -0.6172 -0.1108 -0.1191
 2853TIP3    H130118   3.479   6.400   7.133 -1.2967 -0.4192 -0.3692
 2853TIP3    H230119   3.615   6.333   7.142 -0.0695  1.6543 -2.4221
 2854TIP3   OH230120   1.764   1.920   0.598  0.4011  0.1614  0.1011
 2854TIP3    H130121   1.670   1.922   0.579  0.3481 -0.2806  0.3156
 2854TIP3    H230122   1.779   1.834   0.638  0.2552  1.4610  3.2939
 2855TIP3   OH230123   4.551   2.546   7.885 -0.0893  0.4396 -0.4397
 2855TIP3    H130124   4.603   2.467   7.868  1.2991  1.3270 -0.4987
 2855TIP3    H230125   4.493   2.521   7.957  1.9925  0.0436  1.1913
 2856TIP3   OH230126   4.605   0.891   0.451 -0.0408 -0.3480  0.9593
 2856TIP3    H130127   4.660   0.894   0.373  0.3049  0.0706  1.2101
 2856TIP3    H230128   4.523   0.932   0.426 -0.2590 -1.0309  0.5619
 2857TIP3   OH230129   3.633   4.463   7.915  0.0993 -0.0758  0.1739
 2857TIP3    H130130   3.603   4.443   8.003  2.5387 -0.6013  0.9727
 2857TIP3    H230131   3.708   4.405   7.901  0.6143  0.9515 -1.7275
 2858TIP3   OH230132   1.284   6.582   6.754 -0.2139  0.0299  0.0135
 2858TIP3    H130133   1.251   6.626   6.676  0.8896  0.1070 -0.4214
 2858TIP3    H230134   1.295   6.491   6.728 -0.7076 -0.1320  0.3564
 2859TIP3   OH230135   5.733   4.886   1.438  0.3216 -0.6036 -0.9844
 2859TIP3    H130136   5.786   4.849   1.508 -0.8581  0.4587  0.5424
 2859TIP3    H230137   5.762   4.840   1.359  1.3648 -2.1814  0.2507
 2860TIP3   OH230138   0.763   4.445   7.103 -0.1366  0.7437  0.1371
 2860TIP3    H130139   0.836   4.384   7.118  2.9488  4.7046  3.9062
 2860TIP3    H230140   0.778   4.479   7.015  1.9706  0.5928  0.3791
 2861TIP3   OH230141   3.681   5.830   1.795  0.2718  0.2106 -0.2446
 2861TIP3    H130142   3.626   5.860   1.868 -0.2100  1.1016 -0.9605
 2861TIP3    H230143   3.719   5.747   1.826  0.1439  0.6145  1.0472
 2862TIP3   OH230144   6.406   4.151   6.739 -0.5032  0.4654 -0.0710
 2862TIP3    H130145   6.404   4.144   6.834 -2.2195  0.2743 -0.0884
 2862TIP3    H230146   6.497   4.172   6.718 -0.0086  0.0680  1.5699
 2863TIP3   OH230147   1.683   1.005   1.222 -0.7493 -0.1692  0.0427
 2863TIP3    H130148   1.749   1.014   1.291 -0.7304  0.5833 -0.0655
 2863TIP3    H230149   1.704   0.922   1.179  0.9546  0.6497 -0.8340
 2864TIP3   OH230150   2.436   2.848   1.300  0.1369  0.5098  0.4830
 2864TIP3    H130151   2.352   2.892   1.286  0.0199  0.6090  1.4177
 2864TIP3    H230152   2.439   2.779   1.233 -0.0678  1.3757 -0.4289
 2865TIP3   OH230153   2.801   5.145   6.738 -0.1425 -0.4335 -0.2750
 2865TIP3    H130154   2.890   5.109   6.732 -0.0371 -0.0060 -1.5754
 2865TIP3    H230155   2.814   5.238   6.760 -0.2348 -0.2780 -0.8499
 2866TIP3   OH230156   0.917   6.640   7.000 -0.2026  0.4275 -0.4018
 2866TIP3    H130157   0.938   6.625   6.908 -0.0073  0.2758 -0.3336
 2866TIP3    H230158   0.834   6.595   7.014  0.4148 -0.6639 -0.1779
 2867TIP3   OH230159   4.346   3.500   6.876 -0.2783  0.2026  0.4783
 2867TIP3    H130160   4.403   3.435   6.835  0.0384  0.3416  0.6927
 2867TIP3    H230161   4.277   3.449   6.918  1.1096 -0.1318  2.4326
 2868TIP3   OH230162   5.988   4.666   7.784  0.1359 -0.5877  0.1388
 2868TIP3    H130163   6.007   4.585   7.737 -1.2044 -0.8661  0.0326
 2868TIP3    H230164   5.894   4.662   7.802  0.0706  0.8590  0.2825
 2869TIP3   OH230165   2.026   4.066   7.694  0.3762 -0.3550  0.5303
 2869TIP3    H130166   2.038   3.973   7.675  1.1176  0.0516 -1.2852
 2869TIP3    H230167   2.076   4.110   7.625  0.6846  1.3878  1.8080
 2870TIP3   OH230168   2.719   6.758   1.467  0.5974  0.6368  0.0691
 2870TIP3    H130169   2.679   6.788   1.549 -0.3660  2.3935 -0.9626
 2870TIP3    H230170   2.702   6.664   1.464  1.7962  0.2797  2.4601
 2871TIP3   OH230171   3.758   4.195   1.979  0.0328 -0.7531 -0.1370
 2871TIP3    H130172   3.685   4.248   2.012  0.3841 -0.1384 -0.3343
 2871TIP3    H230173   3.817   4.259   1.938  0.1514 -1.3714 -0.9446
 2872TIP3   OH230174   4.984   3.021   2.058  0.3638 -0.3698  0.0231
 2872TIP3    H130175   5.000   2.937   2.101  0.7853 -0.4994 -0.3861
 2872TIP3    H230176   4.897   3.012   2.019 -0.5997  0.1985  1.9220
 2873TIP3   OH230177   0.112   1.402   6.946  0.1685 -0.2173 -0.1555
 2873TIP3    H130178   0.109   1.371   7.037  2.0123  1.3212  0.5084
 2873TIP3    H230179   0.067   1.487   6.948  0.5093 -0.0213 -0.5937
 2874TIP3   OH230180   3.041   5.213   1.199 -0.6557 -0.1527 -0.4572
 2874TIP3    H130181   3.117   5.155   1.203 -1.2170 -0.9035 -0.4317
 2874TIP3    H230182   3.026   5.238   1.290 -0.6982 -0.3490 -0.4100
 2875TIP3   OH230183   4.669   6.021   7.262  0.4824  0.5276  0.3164
 2875TIP3    H130184   4.587   6.034   7.309  1.0483 -2.1942  2.3368
 2875TIP3    H230185   4.646   5.964   7.189  0.3119  1.2257 -0.1837
 2876TIP3   OH230186   4.096   6.282   1.989  0.5595  0.0895 -0.3386
 2876TIP3    H130187   4.005   6.284   2.019  0.7037 -0.1930  0.1297
 2876TIP3    H230188   4.114   6.373   1.964 -0.3516 -0.1625 -2.0139
 2877TIP3   OH230189   4.670   5.957   1.858 -0.1644 -0.3028 -0.5072
 2877TIP3    H130190   4.583   5.964   1.820 -0.8679 -0.0313  1.0659
 2877TIP3    H230191   4.688   5.863   1.861 -0.6061 -0.3875 -0.4129
 2878TIP3   OH230192   0.438   2.262   1.820 -0.2578 -0.1149  0.0503
 2878TIP3    H130193   0.425   2.283   1.912 -1.7853 -2.6362  0.5064
 2878TIP3    H230194   0.513   2.202   1.819 -0.2501 -0.1036 -0.3461
 2879TIP3   OH230195   5.923   2.041   7.973 -0.1729 -0.7699 -0.2368
 2879TIP3    H130196   5.917   1.963   8.028  1.2315  0.1746  1.3638
 2879TIP3    H230197   5.888   2.111   8.027  0.3992  0.0350 -0.8842
 2880TIP3   OH230198   1.478   6.830   0.391  0.3644  0.1756  0.0069
 2880TIP3    H130199   1.434   6.773   0.455  0.7278  0.9087  0.9436
 2880TIP3    H230200   1.571   6.819   0.410  0.4683  0.5051 -0.3068
 2881TIP3   OH230201   3.021   5.688   0.044  0.2406 -0.1286  0.4426
 2881TIP3    H130202   3.057   5.773   0.020 -0.1218  0.0009  0.3511
 2881TIP3    H230203   2.934   5.687   0.004  0.0678 -0.3572  0.8206
 2882TIP3   OH230204   2.242   1.688   2.302 -0.0538  0.6183  0.3054
 2882TIP3    H130205   2.261   1.663   2.392 -0.1474 -0.2118  0.0973
 2882TIP3    H230206   2.158   1.734   2.307 -1.2401 -1.4576  0.3531
 2883TIP3   OH230207   6.049   1.514   2.533  0.6021 -0.0677  0.9582
 2883TIP3    H130208   6.109   1.494   2.604 -1.2664 -1.9358  2.1552
 2883TIP3    H230209   5.986   1.575   2.571  0.9176  0.7789  0.1554
 2884TIP3   OH230210   0.478   1.411   6.896  0.9491  0.4399 -0.2642
 2884TIP3    H130211   0.486   1.396   6.990  1.9253  1.1563 -0.2103
 2884TIP3    H230212   0.569   1.408   6.863  0.7198  1.1806 -1.0124
 2885TIP3   OH230213   4.913   3.152   7.156  0.0506 -0.1112 -0.5360
 2885TIP3    H130214   4.841   3.190   7.206 -0.1757 -0.1316 -0.8471
 2885TIP3    H230215   4.919   3.062   7.187  1.7246  0.6181  1.4863
 2886TIP3   OH230216   4.672   1.347   0.807 -0.4733 -0.5037 -0.2163
 2886TIP3    H130217   4.641   1.260   0.832  0.8328 -0.6946  0.8565
 2886TIP3    H230218   4.592   1.398   0.795 -1.2484 -1.2854  1.2708
 2887TIP3   OH230219   3.839   5.455   0.168 -0.3566 -0.8707 -0.3713
 2887TIP3    H130220   3.803   5.474   0.081 -0.8694 -2.1011 -0.4422
 2887TIP3    H230221   3.926   5.418   0.150  0.7630  1.5134 -0.2232
 2888TIP3   OH230222   5.117   2.004   1.176 -0.6800  0.4334  0.4596
 2888TIP3    H130223   5.163   2.009   1.092  1.7548  1.2231  1.7735
 2888TIP3    H230224   5.047   1.940   1.160 -1.7977  2.1901 -2.7896
 2889TIP3   OH230225   3.442   2.555   8.003 -0.4236 -0.3779  0.2224
 2889TIP3    H130226   3.452   2.478   8.059 -1.7806  0.2661  1.4063
 2889TIP3    H230227   3.399   2.521   7.924 -1.0749 -0.8303  0.7613
 2890TIP3   OH230228   4.933   2.665   7.082 -0.0507  0.1552  0.0144
 2890TIP3    H130229   4.934   2.652   6.987  1.0458  0.6943 -0.0558
 2890TIP3    H230230   4.979   2.590   7.117  0.1442  0.3053  0.0779
 2891TIP3   OH230231   1.455   0.168   0.218 -0.0588 -0.0047  0.4689
 2891TIP3    H130232   1.517   0.238   0.241  0.4099 -0.3974  0.4240
 2891TIP3    H230233   1.450   0.113   0.296 -1.6355  0.9264  1.0711
 2892TIP3   OH230234   2.993   2.923   7.712  0.3618 -0.0564 -0.2920
 2892TIP3    H130235   2.966   3.006   7.751 -1.1339 -0.5504 -0.2215
 2892TIP3    H230236   3.007   2.944   7.620  1.9001  0.6625  0.0572
 2893TIP3   OH230237   4.646   2.126   7.047 -0.8483 -0.3413  0.6178
 2893TIP3    H130238   4.597   2.072   7.109 -1.8392  0.4535  0.5608
 2893TIP3    H230239   4.578   2.168   6.994 -0.1172  1.0311  0.7286
 2894TIP3   OH230240   0.253   5.465   2.192 -0.1386 -0.0960 -0.2060
 2894TIP3    H130241   0.165   5.496   2.170  0.3168  2.7494  1.4705
 2894TIP3    H230242   0.238   5.393   2.253 -1.2776 -1.0982 -1.6080
 2895TIP3   OH230243   0.129   5.553   0.489 -0.2330 -0.2005  0.4379
 2895TIP3    H130244   0.210   5.550   0.542  0.2914  0.0988 -0.3293
 2895TIP3    H230245   0.066   5.502   0.540  0.4147 -0.3825  1.0915
 2896TIP3   OH230246   5.629   5.381   1.559  0.7400  0.5911  0.1691
 2896TIP3    H130247   5.547   5.351   1.597  1.3076 -0.1011  0.8824
 2896TIP3    H230248   5.635   5.336   1.475  0.6530  0.2060  0.3672
 2897TIP3   OH230249   4.281   2.355   8.526 -0.0554 -0.2112 -0.7474
 2897TIP3    H130250   4.210   2.329   8.468 -1.6741  0.9077  0.6172
 2897TIP3    H230251   4.249   2.435   8.569  1.6192 -0.2350  0.6607
 2898TIP3   OH230252   2.443   5.492   8.327 -0.4052 -0.2242 -0.1793
 2898TIP3    H130253   2.520   5.523   8.279  0.8228 -0.3187  1.5814
 2898TIP3    H230254   2.395   5.571   8.349  1.1971  0.2789  1.8381
 2899TIP3   OH230255   4.069   4.567   0.261  0.2543 -0.3227  0.3748
 2899TIP3    H130256   4.067   4.640   0.324  0.1203 -0.3812  0.4408
 2899TIP3    H230257   4.048   4.490   0.314  0.9334 -0.4892  0.4091
 2900TIP3   OH230258   0.359   4.235   7.245  0.2098 -0.2902  0.0909
 2900TIP3    H130259   0.357   4.209   7.337 -0.1107  1.3077  0.5771
 2900TIP3    H230260   0.268   4.226   7.216 -0.5833  2.9051  1.1258
 2901TIP3   OH230261   4.602   2.462   6.977 -0.0515 -0.6165 -0.1215
 2901TIP3    H130262   4.561   2.549   6.980  1.0805 -0.0582 -0.4348
 2901TIP3    H230263   4.529   2.402   6.961 -0.5274  0.5625 -3.0121
 2902TIP3   OH230264   6.465   1.979   1.850  0.1490  0.6620 -0.0206
 2902TIP3    H130265   6.418   1.898   1.828  0.6441  0.6253 -1.0056
 2902TIP3    H230266   6.514   1.957   1.929 -0.4440  0.2916  0.2546
 2903TIP3   OH230267   2.536   6.122   0.924  0.4495  0.6976  0.0452
 2903TIP3    H130268   2.543   6.149   0.832  0.3875 -0.1504 -0.2147
 2903TIP3    H230269   2.450   6.154   0.952  0.0473  0.0903 -0.4853
 2904TIP3   OH230270   6.036   0.879   0.282  0.5602 -0.0302  0.3051
 2904TIP3    H130271   6.020   0.807   0.221  2.0974 -0.1013 -0.0650
 2904TIP3    H230272   6.087   0.839   0.353  0.5634  0.4876  0.5955
 2905TIP3   OH230273   3.059   6.506   7.439 -0.3006 -0.2762 -0.2458
 2905TIP3    H130274   3.139   6.510   7.387 -0.9433 -0.6539 -1.3124
 2905TIP3    H230275   3.008   6.435   7.399 -2.2193  1.5106 -1.1914
 2906TIP3   OH230276   5.345   6.535   8.095 -0.0851 -0.2386 -0.2367
 2906TIP3    H130277   5.393   6.470   8.148 -1.4307 -1.0578  0.0192
 2906TIP3    H230278   5.256   6.499   8.088 -0.6247  1.1639 -0.8344
 2907TIP3   OH230279   0.979   2.284   0.351 -0.0381 -0.1633  0.6905
 2907TIP3    H130280   0.926   2.261   0.274 -0.1658  2.0905  0.0420
 2907TIP3    H230281   1.067   2.252   0.330 -0.0336  0.5744 -0.5061
 2908TIP3   OH230282   2.758   0.596   8.426 -0.1514  0.0621  0.2749
 2908TIP3    H130283   2.698   0.525   8.448 -0.4189  0.1104 -0.2774
 2908TIP3    H230284   2.792   0.625   8.510 -1.0795  0.1884  0.6261
 2909TIP3   OH230285   5.123   6.568   7.353  0.5019 -0.5209 -0.0900
 2909TIP3    H130286   5.127   6.650   7.403 -0.2032 -0.5108 -0.0524
 2909TIP3    H230287   5.179   6.508   7.402  1.7185  0.1621 -0.5652
 2910TIP3   OH230288   6.697   1.494   1.039 -0.0905 -0.2942 -0.9121
 2910TIP3    H130289   6.713   1.452   0.955 -1.5225 -0.8957 -0.9227
 2910TIP3    H230290   6.671   1.423   1.097 -1.5659  0.4077 -0.6559
 2911TIP3   OH230291   2.396   3.163   2.008  0.3630  0.3914 -0.7984
 2911TIP3    H130292   2.425   3.073   2.018 -0.3741  0.3876  2.1649
 2911TIP3    H230293   2.477   3.214   2.000  0.9528 -0.2387  0.8188
 2912TIP3   OH230294   0.951   3.740   7.682  0.0330  0.4831 -0.4691
 2912TIP3    H130295   0.997   3.699   7.756 -1.9332 -2.0094 -0.4612
 2912TIP3    H230296   0.905   3.814   7.721  1.8804  1.4236  0.0235
 2913TIP3   OH230297   6.762   5.557   1.776  0.1358  0.3145 -0.0618
 2913TIP3    H130298   6.801   5.643   1.760 -0.9824  0.7624 -0.5277
 2913TIP3    H230299   6.836   5.497   1.780  0.9430  1.2993  0.2948
 2914TIP3   OH230300   1.232   4.203   0.300  0.4020 -0.0403  0.2532
 2914TIP3    H130301   1.288   4.198   0.377  1.2599  0.9022 -0.2894
 2914TIP3    H230302   1.158   4.258   0.327  0.5910  0.1056  0.4755
 2915TIP3   OH230303   3.407   1.966   2.430 -0.2831  0.7110  0.3032
 2915TIP3    H130304   3.424   1.881   2.388 -0.5017 -0.0648  1.7062
 2915TIP3    H230305   3.494   2.003   2.444 -0.1041  0.0950  0.8760
 2916TIP3   OH230306   1.371   4.162   1.274 -0.4561  0.1309  0.6597
 2916TIP3    H130307   1.323   4.101   1.329  0.7172 -0.4216  1.1057
 2916TIP3    H230308   1.457   4.122   1.264  0.5924  2.0338  1.5640
 2917TIP3   OH230309   4.483   5.554   7.228 -0.4023  0.5860  0.2789
 2917TIP3    H130310   4.461   5.561   7.135  0.4681  2.7438  0.1725
 2917TIP3    H230311   4.571   5.516   7.228  0.0228  1.5295  0.1269
 2918TIP3   OH230312   1.639   2.161   7.070  0.1739 -0.3068 -0.1683
 2918TIP3    H130313   1.679   2.106   7.003  0.8386 -0.6549  0.5055
 2918TIP3    H230314   1.650   2.112   7.151 -0.2764  0.2864  0.2609
 2919TIP3   OH230315   5.473   4.536   1.987 -0.3517 -0.2833 -0.4560
 2919TIP3    H130316   5.484   4.555   2.081  0.3972 -0.1700 -0.5545
 2919TIP3    H230317   5.492   4.442   1.980 -1.6060 -0.5559 -0.3251
 2920TIP3   OH230318   4.616   4.964   1.327  0.3305  0.3447 -0.0665
 2920TIP3    H130319   4.589   4.873   1.343  1.3033 -0.1152 -0.8940
 2920TIP3    H230320   4.593   5.010   1.407  0.1003 -0.7021  0.4927
 2921TIP3   OH230321   6.235   3.392   8.435  0.1960  0.1771  1.0763
 2921TIP3    H130322   6.226   3.388   8.530 -0.9722  0.0896  0.9673
 2921TIP3    H230323   6.264   3.304   8.409  1.8407  0.5708  1.4649
 2922TIP3   OH230324   0.773   4.403   1.483 -0.3552  0.1683 -0.2761
 2922TIP3    H130325   0.691   4.451   1.495  0.0248  0.4353  1.6512
 2922TIP3    H230326   0.842   4.467   1.504  0.2802 -0.4442 -0.4324
 2923TIP3   OH230327   6.247   1.382   7.348  0.0934 -0.0695 -0.1139
 2923TIP3    H130328   6.211   1.409   7.432  1.1706 -2.3868  1.2047
 2923TIP3    H230329   6.316   1.319   7.371  1.2609  0.1258 -2.7023
 2924TIP3   OH230330   4.719   4.607   8.583 -0.0465 -0.1522 -0.1739
 2924TIP3    H130331   4.727   4.696   8.619  3.4532  0.5047 -2.0707
 2924TIP3    H230332   4.727   4.550   8.659  0.6776  1.1846  0.8106
 2925TIP3   OH230333   6.132   5.817   1.364  0.3378 -0.2156 -0.2330
 2925TIP3    H130334   6.175   5.901   1.379  0.2546 -0.4356  1.3471
 2925TIP3    H230335   6.184   5.776   1.294  2.6434 -0.3944  1.4589
 2926TIP3   OH230336   1.822   4.407   1.678 -0.0582 -0.1200 -0.6744
 2926TIP3    H130337   1.897   4.409   1.738 -0.8640  0.3140  0.3322
 2926TIP3    H230338   1.812   4.498   1.649 -1.3552  0.2204  0.6974
 2927TIP3   OH230339   2.736   6.230   8.030  0.3296 -0.5446 -0.4518
 2927TIP3    H130340   2.820   6.272   8.012  0.7692 -0.9634  0.5610
 2927TIP3    H230341   2.744   6.198   8.120 -1.5307  0.9309  0.3228
 2928TIP3   OH230342   5.090   6.417   8.067  0.1134  0.1725 -0.0018
 2928TIP3    H130343   5.010   6.445   8.022  1.8949  0.2719 -3.4997
 2928TIP3    H230344   5.109   6.331   8.030  1.5183  0.0657  0.9012
 2929TIP3   OH230345   0.422   2.267   6.820  0.3203 -0.3402  0.2411
 2929TIP3    H130346   0.333   2.278   6.788  0.6246  1.7671  0.0003
 2929TIP3    H230347   0.467   2.223   6.747  0.1792  1.3444 -0.9226
 2930TIP3   OH230348   4.045   5.998   6.412  0.2568 -0.1775 -0.1213
 2930TIP3    H130349   4.046   5.979   6.318 -0.0836 -0.5065 -0.0644
 2930TIP3    H230350   4.045   5.911   6.453 -0.7603 -0.0642  0.1587
 2931TIP3   OH230351   2.561   2.486   7.905 -0.0651  0.2300  0.0550
 2931TIP3    H130352   2.497   2.551   7.874 -0.2070  0.0830  0.0360
 2931TIP3    H230353   2.641   2.507   7.857 -0.2948 -0.0204 -0.4574
 2932TIP3   OH230354   5.122   3.442   6.774  0.2205  0.1990 -0.6726
 2932TIP3    H130355   5.108   3.507   6.705 -0.3633  0.1678 -0.5845
 2932TIP3    H230356   5.172   3.373   6.731 -0.0174  0.2450 -1.0294
 2933TIP3   OH230357   5.914   4.011   2.148 -0.1953  0.2287 -0.2227
 2933TIP3    H130358   5.931   3.934   2.202  1.8694  0.0963 -0.9426
 2933TIP3    H230359   5.865   4.070   2.205 -1.3121 -1.3457  0.5436
 2934TIP3   OH230360   4.840   1.777   7.792  0.0738 -0.7027 -0.0855
 2934TIP3    H130361   4.933   1.756   7.791  0.4145  0.3010  2.3442
 2934TIP3    H230362   4.835   1.866   7.758  0.2862 -0.1067  1.3394
 2935TIP3   OH230363   2.081   2.406   1.085 -0.1230  0.5740  0.1123
 2935TIP3    H130364   2.024   2.426   1.011 -1.9759 -0.2659  1.2345
 2935TIP3    H230365   2.023   2.406   1.161  1.7249  1.4984  1.6130
 2936TIP3   OH230366   4.587   1.594   1.577 -0.1194  0.6715  0.1599
 2936TIP3    H130367   4.676   1.628   1.574  0.5338 -0.8926  0.5877
 2936TIP3    H230368   4.537   1.652   1.520  0.8797  2.3678  0.9235
 2937TIP3   OH230369   2.944   0.824   6.887  0.6872  0.3149  0.0975
 2937TIP3    H130370   2.927   0.877   6.809 -0.3963 -0.9654 -0.5746
 2937TIP3    H230371   2.944   0.734   6.855  2.6517 -0.1206  1.1893
 2938TIP3   OH230372   3.942   4.184   7.293  0.2383 -0.1764  0.0743
 2938TIP3    H130373   3.958   4.090   7.289  0.1886 -0.1778 -0.1074
 2938TIP3    H230374   3.853   4.191   7.328  0.7956 -0.1551  1.5798
 2939TIP3   OH230375   6.872   5.001   1.004 -0.1428  0.4350  0.0949
 2939TIP3    H130376   6.832   4.966   1.084 -1.7794  0.0772 -0.8343
 2939TIP3    H230377   6.905   4.923   0.958  0.8392  0.6437  0.4239
 2940TIP3   OH230378   5.166   0.959   1.165  0.0603 -0.4241  0.3764
 2940TIP3    H130379   5.167   0.879   1.112 -0.0903 -0.2863  0.1646
 2940TIP3    H230380   5.091   1.008   1.133  0.0682 -0.2626  0.6057
 2941TIP3   OH230381   4.606   4.792   7.014  0.1615 -0.0314 -0.5799
 2941TIP3    H130382   4.575   4.713   6.970 -2.0684  1.3303 -1.5991
 2941TIP3    H230383   4.610   4.768   7.106 -2.2043 -0.8966 -0.6337
 2942TIP3   OH230384   1.508   4.376   1.083  0.0116  0.4308  0.3702
 2942TIP3    H130385   1.518   4.320   1.160 -0.1410  0.4332  0.3924
 2942TIP3    H230386   1.420   4.414   1.093 -0.8834 -1.1930 -0.8922
 2943TIP3   OH230387   6.500   5.319   8.595  0.2110 -0.3569 -0.0978
 2943TIP3    H130388   6.469   5.410   8.595  1.5513  0.2099 -2.5486
 2943TIP3    H230389   6.480   5.287   8.507  0.8855 -2.0302  0.3239
 2944TIP3   OH230390   6.174   3.433   7.922 -0.2716 -0.4642  0.0807
 2944TIP3    H130391   6.113   3.411   7.852  2.7316  0.0958 -2.9857
 2944TIP3    H230392   6.206   3.349   7.954 -1.7743 -0.7250  1.0336
 2945TIP3   OH230393   4.782   0.491   0.058  0.1258  0.3315  0.2488
 2945TIP3    H130394   4.779   0.470   0.151  0.8245 -0.9258  0.0043
 2945TIP3    H230395   4.841   0.566   0.051  0.3907  0.1690  0.7644
 2946TIP3   OH230396   3.261   2.555   0.557 -0.3605 -0.6171 -0.0212
 2946TIP3    H130397   3.186   2.603   0.591 -0.1159  0.0249 -0.3712
 2946TIP3    H230398   3.238   2.537   0.466 -0.1032 -0.4303 -0.1253
 2947TIP3   OH230399   2.522   6.818   7.161 -0.9284 -0.5885 -0.0220
 2947TIP3    H130400   2.451   6.865   7.118  0.7324  0.8412 -1.3785
 2947TIP3    H230401   2.567   6.773   7.090  0.1691 -0.5507  0.6286
 2948TIP3   OH230402   1.731   4.813   7.179  0.4679 -1.3536  0.4098
 2948TIP3    H130403   1.791   4.853   7.241 -0.5841  1.1015 -0.0604
 2948TIP3    H230404   1.788   4.772   7.114  1.5742 -2.4417  1.9694
 2949TIP3   OH230405   1.631   0.597   1.681  0.9537 -0.9923 -0.3289
 2949TIP3    H130406   1.539   0.584   1.659  0.6448 -1.5267  1.1441
 2949TIP3    H230407   1.634   0.586   1.776  2.2836  0.5055 -0.1521
 2950TIP3   OH230408   5.689   2.463   2.026 -0.4574 -0.4615  0.4752
 2950TIP3    H130409   5.702   2.402   1.953  0.6772  0.1893  0.1199
 2950TIP3    H230410   5.774   2.469   2.069 -1.1508 -0.9900  2.0077
 2951TIP3   OH230411   5.557   2.757   8.034  0.7506  0.5027 -0.6385
 2951TIP3    H130412   5.547   2.775   8.128 -2.3056 -1.7210 -0.3721
 2951TIP3    H230413   5.520   2.834   7.991  3.0657  1.9775 -0.1448
 2952TIP3   OH230414   3.154   3.889   1.050 -0.4953 -0.0078 -0.0258
 2952TIP3    H130415   3.231   3.945   1.059 -1.4799  1.6341 -1.2427
 2952TIP3    H230416   3.098   3.914   1.124 -0.3998 -0.3110  0.1509
 2953TIP3   OH230417   0.866   1.842   7.154  0.1784 -0.3326 -0.5513
 2953TIP3    H130418   0.872   1.932   7.186  1.7272 -0.6719  0.1976
 2953TIP3    H230419   0.778   1.836   7.116  0.3273  1.7151 -1.3333
 2954TIP3   OH230420   5.365   5.084   7.608  0.4884 -0.1200 -0.4068
 2954TIP3    H130421   5.339   5.171   7.637  1.0391 -0.2054  0.3659
 2954TIP3    H230422   5.285   5.046   7.571 -0.0796  0.2204  0.4489
 2955TIP3   OH230423   1.395   4.244   0.833 -0.5942  0.6856 -0.4552
 2955TIP3    H130424   1.428   4.306   0.898  2.3429 -1.7396  0.6075
 2955TIP3    H230425   1.464   4.240   0.767 -0.1287 -2.1105  0.0753
 2956TIP3   OH230426   6.038   2.489   1.203 -0.2580 -0.5693 -0.3401
 2956TIP3    H130427   5.989   2.442   1.271  0.1338 -0.1500  0.2355
 2956TIP3    H230428   6.048   2.425   1.133 -1.2715 -0.7937 -0.3018
 2957TIP3   OH230429   5.772   1.081   6.357 -0.3109  0.3842  0.1772
 2957TIP3    H130430   5.733   1.059   6.442  2.1310  3.2467  2.2763
 2957TIP3    H230431   5.853   1.030   6.355 -1.5658 -1.6896 -1.7928
 2958TIP3   OH230432   4.777   3.374   0.491 -0.5089 -0.4194 -0.1855
 2958TIP3    H130433   4.733   3.293   0.467 -1.1115 -0.1541  0.0156
 2958TIP3    H230434   4.870   3.357   0.473 -0.4171 -1.6770  1.2107
 2959TIP3   OH230435   2.468   6.152   7.187 -0.8951  0.0933 -0.2784
 2959TIP3    H130436   2.412   6.226   7.166 -0.7311  0.0720 -0.8142
 2959TIP3    H230437   2.413   6.075   7.173 -1.5366  0.1246  1.7049
 2960TIP3   OH230438   2.449   3.529   6.500 -0.2032  0.5424  0.0956
 2960TIP3    H130439   2.523   3.584   6.526 -0.0549  0.2884  0.2182
 2960TIP3    H230440   2.481   3.439   6.511 -0.6672  0.4276  0.5504
 2961TIP3   OH230441   1.775   5.342   0.724 -0.1000  0.3833 -0.1949
 2961TIP3    H130442   1.704   5.277   0.726  0.0162  0.2592  1.4957
 2961TIP3    H230443   1.745   5.408   0.662 -0.9418 -0.4999 -0.7514
 2962TIP3   OH230444   5.901   0.523   1.146  0.2484  0.2531 -0.3536
 2962TIP3    H130445   5.940   0.445   1.108 -0.0469  0.2585 -0.6755
 2962TIP3    H230446   5.809   0.521   1.117 -0.1211 -0.0157  0.7827
 2963TIP3   OH230447   6.111   4.218   0.447  0.2112 -0.0738 -0.0369
 2963TIP3    H130448   6.135   4.286   0.385 -2.2314  2.1989  1.3184
 2963TIP3    H230449   6.132   4.136   0.402  1.7579  1.5092 -2.3978
 2964TIP3   OH230450   1.033   0.615   6.662  0.3300  0.0589  0.3215
 2964TIP3    H130451   1.021   0.550   6.732 -1.1526  0.8712  0.8522
 2964TIP3    H230452   0.961   0.600   6.602  1.4893 -0.5042 -0.9945
 2965TIP3   OH230453   3.010   1.839   1.286 -0.4400 -0.4905  0.5776
 2965TIP3    H130454   2.966   1.869   1.206  2.4461 -0.3524 -1.0773
 2965TIP3    H230455   2.939   1.800   1.338 -2.9073  1.7567 -0.8103
 2966TIP3   OH230456   3.176   0.045   7.588  0.1694  0.2831 -0.1580
 2966TIP3    H130457   3.102   0.003   7.544  0.3469  0.2924 -0.4697
 2966TIP3    H230458   3.221  -0.027   7.632 -0.5504  0.4056  0.8198
 2967TIP3   OH230459   6.182   3.634   2.012  0.1516 -0.0168  0.6258
 2967TIP3    H130460   6.217   3.716   1.976 -1.5805  0.9111  0.9179
 2967TIP3    H230461   6.230   3.622   2.094  1.3199  0.0019 -0.0318
 2968TIP3   OH230462   2.633   6.656   1.924 -0.8296 -0.4305 -0.4163
 2968TIP3    H130463   2.692   6.690   1.990  0.9381 -0.8111 -1.7323
 2968TIP3    H230464   2.555   6.711   1.931  0.0961  0.8124  0.6235
 2969TIP3   OH230465   0.200   5.425   0.832  0.0496 -0.3888  0.5249
 2969TIP3    H130466   0.215   5.347   0.778  0.6699  1.0561 -1.4829
 2969TIP3    H230467   0.243   5.496   0.785  1.2823  0.8570  3.3287
 2970TIP3   OH230468   2.667   5.858   0.959 -0.4328  0.5518 -1.1362
 2970TIP3    H130469   2.754   5.849   0.997 -1.7162  0.1083  2.0102
 2970TIP3    H230470   2.627   5.930   1.007 -2.8330 -1.2604 -0.2210
 2971TIP3   OH230471   3.737   1.948   7.083 -0.1382 -0.4066 -0.3122
 2971TIP3    H130472   3.647   1.941   7.050 -0.3970 -1.8764  0.6015
 2971TIP3    H230473   3.791   1.904   7.018 -0.0450  0.5659 -0.9123
 2972TIP3   OH230474   0.514   5.709   0.228 -0.5106 -0.0467 -0.3173
 2972TIP3    H130475   0.418   5.710   0.219 -0.7349  0.7227  1.6461
 2972TIP3    H230476   0.545   5.661   0.151 -2.3139  1.6167 -2.2044
 2973TIP3   OH230477   5.434   3.014   8.646 -0.3763  0.4235 -0.0691
 2973TIP3    H130478   5.472   3.068   8.715 -2.6873  2.0843  0.0374
 2973TIP3    H230479   5.509   2.973   8.604  1.3568  2.0248  1.2495
 2974TIP3   OH230480   4.529   1.469   7.891 -0.1821 -0.4496  0.2472
 2974TIP3    H130481   4.576   1.403   7.941 -0.2535  0.3715  1.4242
 2974TIP3    H230482   4.505   1.425   7.809  0.0232 -1.7788  0.8857
 2975TIP3   OH230483   1.878   6.680   6.401 -1.0610 -0.1945  0.4179
 2975TIP3    H130484   1.840   6.594   6.421  0.5304 -1.0795 -0.1203
 2975TIP3    H230485   1.823   6.742   6.448 -1.9608 -1.5572  1.2550
 2976TIP3   OH230486   3.395   3.546   7.144  0.3815  0.4763  0.1656
 2976TIP3    H130487   3.443   3.524   7.224  0.7435  0.0724 -0.1610
 2976TIP3    H230488   3.452   3.608   7.099 -0.7802  2.4508  1.2466
 2977TIP3   OH230489   4.204   5.868   2.496  0.6798 -0.5128 -0.2570
 2977TIP3    H130490   4.191   5.793   2.554 -0.9301  0.3550  0.6037
 2977TIP3    H230491   4.158   5.845   2.415 -0.0498 -0.3648  0.1071
 2978TIP3   OH230492   4.933   4.526   0.908  0.2264 -0.8246  0.4903
 2978TIP3    H130493   5.022   4.539   0.874  0.6023  2.6330  2.3269
 2978TIP3    H230494   4.878   4.582   0.854 -0.2280 -0.2365  1.5394
 2979TIP3   OH230495   5.574   0.783   2.472 -0.1829 -0.2174 -0.3904
 2979TIP3    H130496   5.490   0.828   2.476 -0.1013 -0.0130 -0.8746
 2979TIP3    H230497   5.619   0.821   2.396  1.2032  1.1724  1.0572
 2980TIP3   OH230498   1.626   5.510   7.975  0.1067 -0.1778 -0.1706
 2980TIP3    H130499   1.667   5.424   7.961  1.5960  0.1266  1.7891
 2980TIP3    H230500   1.534   5.497   7.952  0.3614 -2.2035 -0.2398
 2981TIP3   OH230501   0.029   2.666   0.836 -0.8235  0.8683 -0.5648
 2981TIP3    H130502   0.055   2.589   0.786  0.3004  0.4327  0.6082
 2981TIP3    H230503   0.087   2.736   0.805  0.3178  0.4449  0.4857
 2982TIP3   OH230504   2.254   6.316   6.824  1.1409  0.4941  0.4353
 2982TIP3    H130505   2.190   6.386   6.811  1.3966  0.7906  0.7557
 2982TIP3    H230506   2.232   6.278   6.909  0.8521  0.0214  0.1548
 2983TIP3   OH230507   1.501   0.357   1.811  0.1987  0.5970 -0.1391
 2983TIP3    H130508   1.575   0.301   1.836  0.4565  0.5526 -0.9804
 2983TIP3    H230509   1.520   0.441   1.852 -0.7363 -0.1949  2.0600
 2984TIP3   OH230510   2.667   1.582   7.419  0.4286  0.4031  0.0577
 2984TIP3    H130511   2.659   1.618   7.507  0.2996  0.9684 -0.1820
 2984TIP3    H230512   2.752   1.538   7.418 -0.0397 -0.5629  0.8006
 2985TIP3   OH230513   6.053   4.822   0.851  0.2536  0.1746 -0.4520
 2985TIP3    H130514   6.053   4.878   0.929 -0.2519  1.4232 -1.3143
 2985TIP3    H230515   6.085   4.737   0.882  1.2223  0.9854  0.8602
 2986TIP3   OH230516   4.333   1.028   8.674 -0.3797  0.4014 -0.6865
 2986TIP3    H130517   4.243   1.005   8.697 -0.2438 -0.2114 -0.7480
 2986TIP3    H230518   4.327   1.118   8.641 -1.0980  0.0995 -1.4258
 2987TIP3   OH230519   3.137   2.022   7.283  0.3758  0.2137  0.2385
 2987TIP3    H130520   3.099   1.983   7.204 -0.3183  1.5582 -0.1196
 2987TIP3    H230521   3.154   1.947   7.340  0.3749 -0.7326 -0.9569
 2988TIP3   OH230522   4.149   5.532   7.552 -0.1528 -0.2068 -0.1203
 2988TIP3    H130523   4.089   5.476   7.600  1.5535 -0.2970  2.0980
 2988TIP3    H230524   4.141   5.618   7.594  0.1605  0.1545 -0.7843
 2989TIP3   OH230525   5.049   2.052   6.064 -0.7130  0.0752 -0.2245
 2989TIP3    H130526   5.022   2.058   5.973 -2.5565 -0.2021  0.2559
 2989TIP3    H230527   5.036   1.960   6.087 -1.6193  0.4039  0.6734
 2990TIP3   OH230528   3.537   1.947   1.669 -0.0320 -0.1867 -0.3784
 2990TIP3    H130529   3.583   1.892   1.605  0.2807 -0.9382  0.4584
 2990TIP3    H230530   3.589   2.027   1.674  0.3434 -0.4153 -0.5466
 2991TIP3   OH230531   2.614   3.988   8.292  0.0523 -0.8015 -0.2747
 2991TIP3    H130532   2.601   3.901   8.253 -1.8541 -1.0705  0.8077
 2991TIP3    H230533   2.617   3.971   8.386 -2.7678  0.4508  0.1381
 2992TIP3   OH230534   1.779   5.845   0.375 -0.1952  0.1989  0.0675
 2992TIP3    H130535   1.718   5.908   0.336  0.2601  0.2513 -0.5645
 2992TIP3    H230536   1.851   5.838   0.312 -0.1746 -0.8563  0.1812
 2993TIP3   OH230537   6.617   2.408   0.117  0.4786  0.0244  0.5285
 2993TIP3    H130538   6.525   2.434   0.120  0.9461  1.9105 -0.0218
 2993TIP3    H230539   6.652   2.435   0.202  0.6728 -0.0624  0.4769
 2994TIP3   OH230540   5.603   1.672   1.417 -0.2465 -0.3964 -0.2260
 2994TIP3    H130541   5.689   1.705   1.443 -0.9872  2.2429 -0.8264
 2994TIP3    H230542   5.554   1.666   1.499 -0.3444  0.9095 -0.1666
 2995TIP3   OH230543   4.258   4.729   8.451  0.5380 -0.0786  0.3197
 2995TIP3    H130544   4.351   4.709   8.456  0.8624  1.1368 -0.5393
 2995TIP3    H230545   4.226   4.714   8.540  0.8300 -3.6811 -0.0395
 2996TIP3   OH230546   3.936   6.460   0.412 -0.0421 -0.1472  0.0326
 2996TIP3    H130547   3.934   6.512   0.492 -0.0268  0.1734 -0.1730
 2996TIP3    H230548   3.941   6.524   0.341 -3.3590 -0.2200 -0.4335
 2997TIP3   OH230549   4.585   1.277   8.079  0.0390  0.2793  0.4696
 2997TIP3    H130550   4.567   1.356   8.130 -0.4501 -0.0474  0.8204
 2997TIP3    H230551   4.668   1.244   8.113  0.8767  1.3062 -0.5262
 2998TIP3   OH230552   0.298   4.086   0.438 -0.6185  0.1992 -0.3354
 2998TIP3    H130553   0.294   4.172   0.396 -1.6857 -0.0225 -0.7235
 2998TIP3    H230554   0.208   4.053   0.433 -0.1312 -1.1378 -0.5994
 2999TIP3   OH230555   0.938   4.447   0.825  0.3128 -0.5393  0.5671
 2999TIP3    H130556   0.842   4.446   0.819  0.3634 -0.2725 -0.3877
 2999TIP3    H230557   0.957   4.510   0.894 -0.1581  0.7159 -0.4213
 3000TIP3   OH230558   6.143   1.408   8.530  0.1007 -0.1433 -0.1226
 3000TIP3    H130559   6.093   1.471   8.581 -0.1168  0.1262 -0.6578
 3000TIP3    H230560   6.141   1.442   8.440  2.1425  0.4575 -0.0061
 3001TIP3   OH230561   4.261   5.125   6.649 -0.4779 -0.4824  0.4173
 3001TIP3    H130562   4.223   5.166   6.572 -0.8723 -0.4753  0.6144
 3001TIP3    H230563   4.224   5.037   6.650  1.2777 -1.2912 -0.6787
 3002TIP3   OH230564   6.046   3.278   1.601 -0.0892 -0.4489 -0.1204
 3002TIP3    H130565   6.139   3.254   1.597  0.5128  1.7274 -0.3865
 3002TIP3    H230566   6.040   3.337   1.676 -1.0168  0.3939 -0.8386
 3003TIP3   OH230567   4.952   6.612   7.780 -0.2451 -0.3349 -0.9318
 3003TIP3    H130568   5.007   6.535   7.763 -0.2215 -1.1540  2.2538
 3003TIP3    H230569   4.865   6.576   7.797 -0.1615  0.2476  0.9478
 3004TIP3   OH230570   2.965   4.774   7.804 -0.2087  0.0241 -0.0919
 3004TIP3    H130571   2.977   4.852   7.857  0.9286 -0.7431  0.8310
 3004TIP3    H230572   2.909   4.717   7.857  1.0165 -0.7887  0.3815
 3005TIP3   OH230573   3.293   4.505   8.600 -0.2394 -0.1285 -0.2609
 3005TIP3    H130574   3.347   4.486   8.677  0.4875  1.3966 -0.3490
 3005TIP3    H230575   3.207   4.527   8.637 -0.5018 -1.4243 -0.0457
 3006TIP3   OH230576   6.315   1.700   6.886  0.2401  0.4287 -0.4880
 3006TIP3    H130577   6.338   1.788   6.856 -1.4162  1.2045  0.4305
 3006TIP3    H230578   6.283   1.656   6.807  0.1501  0.9585 -0.7507
 3007TIP3   OH230579   0.465   3.139   7.969  0.1969 -0.0552 -0.2032
 3007TIP3    H130580   0.467   3.058   8.019 -0.8208 -1.1928 -1.9039
 3007TIP3    H230581   0.497   3.206   8.030 -0.0777 -1.5092  1.6167
 3008TIP3   OH230582   1.451   0.957   8.091  0.3286  0.4081 -0.0588
 3008TIP3    H130583   1.469   0.872   8.051  1.6788  0.0572  1.2160
 3008TIP3    H230584   1.445   0.940   8.185  0.3642  1.6764  0.2004
 3009TIP3   OH230585   3.774   6.839   8.675  0.1911  0.8540 -0.8302
 3009TIP3    H130586   3.811   6.892   8.605  1.0398  0.9306 -0.3372
 3009TIP3    H230587   3.829   6.856   8.751 -0.3817  0.3553 -0.2795
 3010TIP3   OH230588   6.528   1.678   1.190  0.1289  0.1894 -0.0391
 3010TIP3    H130589   6.555   1.604   1.136  1.6403 -0.0321  0.9648
 3010TIP3    H230590   6.439   1.655   1.220 -0.2885 -0.1782 -1.4927
 3011TIP3   OH230591   2.800   0.323   0.074 -0.1351  0.1957  0.4828
 3011TIP3    H130592   2.708   0.328   0.046 -0.5474 -1.0505  1.5041
 3011TIP3    H230593   2.848   0.300  -0.006 -1.2029 -2.7188  0.5751
 3012TIP3   OH230594   3.150   1.682   0.080 -0.3873  0.0922 -0.8179
 3012TIP3    H130595   3.191   1.596   0.092  1.1755  0.8748 -0.1825
 3012TIP3    H230596   3.147   1.695  -0.015  1.3886  0.2004 -0.9055
 3013TIP3   OH230597   4.543   6.374   8.025 -0.1043  0.3992  0.5521
 3013TIP3    H130598   4.500   6.321   7.957  0.1988  1.4033 -0.4460
 3013TIP3    H230599   4.476   6.385   8.092 -0.1911 -1.2127  0.7853
 3014TIP3   OH230600   1.197   6.303   8.090 -0.3110 -0.2192 -0.2828
 3014TIP3    H130601   1.211   6.393   8.119 -0.6190 -0.2847  0.0767
 3014TIP3    H230602   1.200   6.251   8.171 -1.7437 -0.3402 -0.2879
 3015TIP3   OH230603   5.406   1.763   7.777  0.5787  0.2136  0.6895
 3015TIP3    H130604   5.381   1.844   7.734  0.7716 -0.6005 -1.0626
 3015TIP3    H230605   5.499   1.774   7.797  0.0885  1.2826  2.5947
 3016TIP3   OH230606   0.456   2.562   0.398 -0.0368 -0.0491  0.0007
 3016TIP3    H130607   0.401   2.636   0.375 -0.3693  0.7410  2.9169
 3016TIP3    H230608   0.536   2.601   0.433 -0.5531 -0.9516  2.3740
 3017TIP3   OH230609   2.208   6.172   0.666 -0.5492 -0.3516 -0.2044
 3017TIP3    H130610   2.201   6.247   0.725 -3.4384 -0.2736 -0.5305
 3017TIP3    H230611   2.167   6.100   0.713  0.2032 -1.1925 -0.7986
 3018TIP3   OH230612   2.076   6.023   6.899 -0.0995 -0.0862  0.4005
 3018TIP3    H130613   2.064   5.935   6.935  2.7107 -0.3343  0.9881
 3018TIP3    H230614   2.088   6.008   6.805  0.4587 -0.3847  0.5093
 3019TIP3   OH230615   3.543   0.512   1.301 -0.5012 -0.0798  0.1976
 3019TIP3    H130616   3.535   0.605   1.323  2.0201  0.0045  1.1378
 3019TIP3    H230617   3.561   0.469   1.384 -2.0185 -1.5052 -0.1693
 3020TIP3   OH230618   3.665   1.438   1.185  0.1844  0.5983  0.1373
 3020TIP3    H130619   3.758   1.462   1.178  0.1799  0.2682 -1.3454
 3020TIP3    H230620   3.659   1.354   1.141 -0.7127  0.2862  0.8395
 3021TIP3   OH230621   2.048   6.492   6.927 -0.0331 -0.4117 -0.4288
 3021TIP3    H130622   1.963   6.513   6.889 -0.2967 -0.3919  0.1593
 3021TIP3    H230623   2.109   6.554   6.885 -0.7652  1.4816  1.1538
 3022TIP3   OH230624   5.989   4.014   0.761 -0.2824 -0.7801  0.0322
 3022TIP3    H130625   5.988   4.108   0.780  0.5505 -0.7909  0.1556
 3022TIP3    H230626   6.049   3.977   0.825  0.0295 -1.2786 -0.5416
 3023TIP3   OH230627   0.143   2.121   7.869  0.2637  0.1599  0.1295
 3023TIP3    H130628   0.110   2.161   7.788 -0.5461  0.2982  0.5160
 3023TIP3    H230629   0.130   2.027   7.855  3.2046 -0.1702 -1.2447
 3024TIP3   OH230630   5.680   3.958   7.169 -0.2103 -0.4751 -0.2454
 3024TIP3    H130631   5.616   4.014   7.127 -0.2279  0.3405  0.8171
 3024TIP3    H230632   5.702   3.892   7.103 -0.0675  0.8673 -1.5834
 3025TIP3   OH230633   3.878   5.508   1.104 -0.1046 -0.1949 -0.0690
 3025TIP3    H130634   3.878   5.433   1.045  0.4438 -2.2074  2.2838
 3025TIP3    H230635   3.971   5.532   1.112 -0.2906  0.8361 -0.9007
 3026TIP3   OH230636   5.815   3.156   1.514 -0.4514  0.5664  0.0135
 3026TIP3    H130637   5.884   3.179   1.576 -0.0783 -1.3636  0.3748
 3026TIP3    H230638   5.734   3.174   1.561 -0.2030  2.0739 -0.1099
 3027TIP3   OH230639   6.871   4.203   7.905 -0.0250 -0.2785  0.1921
 3027TIP3    H130640   6.801   4.265   7.927 -0.3271 -0.4302 -0.3121
 3027TIP3    H230641   6.884   4.216   7.811  1.4161  0.5556  0.4805
 3028TIP3   OH230642   3.112   4.224   0.770  0.7009 -0.1453  0.0753
 3028TIP3    H130643   3.159   4.211   0.853  0.9511  2.8664  0.5077
 3028TIP3    H230644   3.026   4.184   0.785  1.1142 -0.6170  1.3860
 3029TIP3   OH230645   6.666   0.707   8.352 -0.9635 -0.0111  0.1513
 3029TIP3    H130646   6.759   0.729   8.358 -0.6245 -1.4679  0.7957
 3029TIP3    H230647   6.631   0.768   8.288  1.1923 -1.7594 -2.9888
 3030TIP3   OH230648   6.191   3.363   0.729  0.1222  0.1032 -0.1903
 3030TIP3    H130649   6.144   3.318   0.658 -0.4384  1.0763 -0.4533
 3030TIP3    H230650   6.242   3.294   0.771  0.2238 -0.5526 -1.3493
 3031TIP3   OH230651   4.188   6.559   1.824  0.4340  0.0942  0.1351
 3031TIP3    H130652   4.120   6.610   1.781  1.7971  0.1868 -2.0316
 3031TIP3    H230653   4.252   6.623   1.852 -0.4160  0.0371  2.4414
 3032TIP3   OH230654   0.680   5.401   2.186  0.4620  0.2045 -0.1095
 3032TIP3    H130655   0.628   5.465   2.137  1.5652  0.1243 -1.4432
 3032TIP3    H230656   0.621   5.326   2.198  0.5081 -0.2722 -2.4456
 3033TIP3   OH230657   0.328   5.317   6.749 -0.3522  0.3525 -0.0189
 3033TIP3    H130658   0.417   5.284   6.759 -0.3052  0.8584  1.5545
 3033TIP3    H230659   0.339   5.412   6.739 -0.6909  0.3577 -0.3654
 3034TIP3   OH230660   4.901   0.292   6.473 -0.7002 -0.2162 -0.6033
 3034TIP3    H130661   4.867   0.241   6.399  0.0097 -3.3772  1.0817
 3034TIP3    H230662   4.825   0.307   6.529 -1.0113  1.1450 -1.3493
 3035TIP3   OH230663   4.517   4.724   8.351 -0.6544 -0.6575  0.1967
 3035TIP3    H130664   4.608   4.755   8.345 -0.4587 -0.9848  1.2211
 3035TIP3    H230665   4.523   4.630   8.336 -0.8644 -0.6341 -0.0296
 3036TIP3   OH230666   2.471   3.850   1.882 -0.4476 -1.3850  0.3349
 3036TIP3    H130667   2.562   3.872   1.862 -1.3079  1.7732 -0.6974
 3036TIP3    H230668   2.460   3.876   1.974 -1.3932  3.1362 -0.8054
 3037TIP3   OH230669   1.405   2.859   6.191  0.3412 -0.0679 -0.3610
 3037TIP3    H130670   1.492   2.891   6.215 -0.1214  1.1907 -0.2962
 3037TIP3    H230671   1.420   2.810   6.110  1.1299 -0.0072 -0.2671
 3038TIP3   OH230672   0.999   4.631   1.028 -0.5907  0.7141  0.2464
 3038TIP3    H130673   0.995   4.724   1.047 -0.1252  0.4540  1.7293
 3038TIP3    H230674   0.989   4.588   1.113  2.7887 -0.5307  0.1678
 3039TIP3   OH230675   5.532   0.120   8.048 -0.1554 -0.5618 -0.1819
 3039TIP3    H130676   5.627   0.135   8.050  0.1706 -1.9818 -2.1782
 3039TIP3    H230677   5.517   0.054   8.115  0.6958 -2.1175 -1.4491
 3040TIP3   OH230678   2.679   2.769   8.580  0.2231 -0.2994 -1.2100
 3040TIP3    H130679   2.691   2.810   8.494 -0.4858 -0.3295 -1.3306
 3040TIP3    H230680   2.642   2.839   8.634  1.8198  0.0943 -0.5652
 3041TIP3   OH230681   0.164   5.136   6.877  0.2508  0.3361 -0.1015
 3041TIP3    H130682   0.232   5.189   6.837 -0.1702 -0.0389 -1.3525
 3041TIP3    H230683   0.133   5.079   6.807 -1.0012  0.1454  0.5723
 3042TIP3   OH230684   5.670   2.285   7.913  0.3659 -0.2785  0.9516
 3042TIP3    H130685   5.574   2.283   7.915  0.3431 -0.0158  0.3244
 3042TIP3    H230686   5.691   2.341   7.839  0.9947 -2.3386 -0.5331
 3043TIP3   OH230687   2.141   5.793   0.976 -0.4031  0.8697 -0.5361
 3043TIP3    H130688   2.233   5.772   0.995 -0.5871 -1.6708 -2.0321
 3043TIP3    H230689   2.095   5.766   1.056 -0.0301  0.5168 -0.4317
 3044TIP3   OH230690   1.792   1.655   0.012 -0.1291  0.0712  0.1961
 3044TIP3    H130691   1.707   1.616   0.034 -0.9573  1.7703  0.1822
 3044TIP3    H230692   1.786   1.674  -0.081 -0.3230  1.5118  0.4810
 3045TIP3   OH230693   2.467   1.116   8.199 -0.3324 -0.2573  0.2050
 3045TIP3    H130694   2.401   1.070   8.251  0.0841 -0.6932  0.3552
 3045TIP3    H230695   2.466   1.205   8.234 -0.9719 -0.2058  0.0753
 3046TIP3   OH230696   6.364   5.147   8.102  0.2430 -0.3773  0.1049
 3046TIP3    H130697   6.380   5.073   8.044 -0.0852 -0.8427  0.5980
 3046TIP3    H230698   6.407   5.221   8.059  0.3124 -0.7873 -0.5448
 3047TIP3   OH230699   5.357   0.453   6.938 -0.3474 -0.1688  0.6541
 3047TIP3    H130700   5.274   0.422   6.900 -2.0054  2.9078  1.4680
 3047TIP3    H230701   5.404   0.493   6.865  0.3684 -1.6704  0.2500
 3048TIP3   OH230702   1.602   4.050   1.893 -0.2217 -0.5309 -0.0718
 3048TIP3    H130703   1.591   4.139   1.859  1.9168  0.0675  0.6669
 3048TIP3    H230704   1.563   4.053   1.980 -1.3405 -0.7242 -0.5419
 3049TIP3   OH230705   4.993   0.364   1.437  0.5676  0.2072 -0.2946
 3049TIP3    H130706   5.030   0.306   1.503  1.2024 -0.9664 -1.6340
 3049TIP3    H230707   4.918   0.405   1.480  1.5701  0.2744  1.4788
 3050TIP3   OH230708   3.623   1.116   8.257  0.6804 -0.4068 -0.5476
 3050TIP3    H130709   3.677   1.151   8.187 -0.1977  0.9032 -0.6024
 3050TIP3    H230710   3.566   1.053   8.214 -0.5377  1.1027 -1.2400
 3051TIP3   OH230711   5.583   4.366   6.424  0.1327 -0.5171 -0.4372
 3051TIP3    H130712   5.495   4.328   6.429  0.2235 -0.5878  1.2968
 3051TIP3    H230713   5.569   4.457   6.398 -0.3473 -0.8195 -1.2909
 3052TIP3   OH230714   1.981   2.396   6.532 -0.4507 -0.5207  0.6704
 3052TIP3    H130715   1.961   2.486   6.505  0.0518 -0.2533  1.1735
 3052TIP3    H230716   1.912   2.343   6.492  0.7050 -0.2564 -1.8828
 3053TIP3   OH230717   4.179   2.526   6.915  0.2075 -0.0447  0.0022
 3053TIP3    H130718   4.127   2.548   6.837 -0.3832  3.1952  1.1729
 3053TIP3    H230719   4.218   2.441   6.894 -0.7535  0.1993 -3.3785
 3054TIP3   OH230720   0.291   5.072   0.881 -0.3153 -0.1953 -0.1959
 3054TIP3    H130721   0.277   4.978   0.875  2.2274 -0.7051  0.5765
 3054TIP3    H230722   0.266   5.105   0.795 -1.7048 -1.4868 -0.3208
 3055TIP3   OH230723   5.522   0.743   7.067 -0.3772 -0.1611 -0.3400
 3055TIP3    H130724   5.614   0.719   7.055 -0.0993  0.7111 -0.0712
 3055TIP3    H230725   5.487   0.751   6.978  0.6124  2.3954 -0.6039
 3056TIP3   OH230726   6.108   6.276   1.612 -0.7573  0.2756  0.0746
 3056TIP3    H130727   6.031   6.317   1.652  0.0544  1.8389  0.1054
 3056TIP3    H230728   6.072   6.215   1.548 -2.0418  1.5062 -0.4290
 3057TIP3   OH230729   0.714   6.441   2.010  0.1709 -0.4632 -0.0997
 3057TIP3    H130730   0.775   6.515   2.009 -0.0411 -0.2590  0.8774
 3057TIP3    H230731   0.627   6.480   2.004 -0.0479 -0.4562  2.1125
 3058TIP3   OH230732   3.372   5.937   6.805  0.1552  0.0706  0.1542
 3058TIP3    H130733   3.466   5.922   6.817  0.3125  1.3343  0.6656
 3058TIP3    H230734   3.366   6.016   6.752 -0.5778  1.1853  1.7788
 3059TIP3   OH230735   0.156   0.301   6.912  0.1078 -0.4300 -0.0224
 3059TIP3    H130736   0.207   0.314   6.832  0.3201  0.3966  0.2403
 3059TIP3    H230737   0.217   0.258   6.973  0.5255  0.5888  0.3042
 3060TIP3   OH230738   3.273   1.783   1.384  0.2115 -0.3067  0.5224
 3060TIP3    H130739   3.204   1.829   1.336  1.0248 -1.3361 -1.7457
 3060TIP3    H230740   3.349   1.841   1.378  0.0483  0.0419  1.5484
 3061TIP3   OH230741   3.081   2.215   1.835 -0.5911  0.2183 -0.2949
 3061TIP3    H130742   3.043   2.171   1.911  1.4141 -0.3745  0.4438
 3061TIP3    H230743   3.079   2.150   1.765  0.6942 -0.4613  0.2714
 3062TIP3   OH230744   1.048   3.960   8.254  0.7408 -0.5777  0.5323
 3062TIP3    H130745   1.085   4.013   8.324 -2.8297  0.7712  1.6633
 3062TIP3    H230746   1.076   4.002   8.173  0.7800  1.0080  1.3401
 3063TIP3   OH230747   3.343   4.214   8.114 -0.0914 -0.2356  0.5729
 3063TIP3    H130748   3.377   4.134   8.156 -0.9334 -0.3495  1.0516
 3063TIP3    H230749   3.249   4.210   8.127 -0.2752  0.2314 -0.4825
 3064TIP3   OH230750   2.517   2.174   7.387  0.5028  0.1695 -0.0173
 3064TIP3    H130751   2.452   2.181   7.457  2.1785  0.9503  1.5656
 3064TIP3    H230752   2.588   2.233   7.415  0.9929  0.9798 -2.6958
 3065TIP3   OH230753   6.112   6.157   6.708  0.0570  0.3386  0.1623
 3065TIP3    H130754   6.139   6.066   6.692  0.1186  0.3113  0.4146
 3065TIP3    H230755   6.024   6.150   6.743  0.6816  0.2681  1.7786
 3066TIP3   OH230756   0.286   2.067   0.973 -0.2401 -0.1647  0.6476
 3066TIP3    H130757   0.226   1.992   0.974 -0.6888  0.1936  0.9664
 3066TIP3    H230758   0.230   2.143   0.961  0.4190 -0.0243 -2.0984
 3067TIP3   OH230759   2.999   0.435   1.251 -0.4347  0.2112 -0.0807
 3067TIP3    H130760   3.021   0.379   1.325  0.2732  0.4743 -0.0799
 3067TIP3    H230761   3.031   0.387   1.175 -2.0232 -0.5099 -0.3324
 3068TIP3   OH230762   0.706   2.839   7.896 -0.0719  0.3833  0.7134
 3068TIP3    H130763   0.644   2.767   7.888  0.1628  0.3273 -0.7647
 3068TIP3    H230764   0.749   2.825   7.981 -1.3105 -0.1692  1.2596
 3069TIP3   OH230765   3.866   2.465   6.302  0.0316 -0.0941  0.3645
 3069TIP3    H130766   3.861   2.497   6.392 -0.6932  1.3402 -0.1461
 3069TIP3    H230767   3.955   2.486   6.274  0.2355 -0.4814  0.7252
 3070TIP3   OH230768   2.543   3.289   8.351  0.4608  0.2743 -0.0846
 3070TIP3    H130769   2.514   3.363   8.298  0.8590  0.3183 -0.2428
 3070TIP3    H230770   2.514   3.212   8.301 -1.3495  0.3027  0.8404
 3071TIP3   OH230771   6.698   1.043   7.899 -0.2149  0.3624 -0.2781
 3071TIP3    H130772   6.695   1.058   7.994 -1.1055  2.0739 -0.5340
 3071TIP3    H230773   6.782   1.000   7.884 -0.4782 -0.8109  1.3944
 3072TIP3   OH230774   1.625   0.017   0.698  0.0309  0.6193  0.3878
 3072TIP3    H130775   1.658   0.039   0.785 -1.3172  1.8940  0.6130
 3072TIP3    H230776   1.532  -0.001   0.712  0.1991 -1.1799 -0.4858
 3073TIP3   OH230777   5.903   5.503   1.145  0.6462 -0.2443  0.0366
 3073TIP3    H130778   5.895   5.576   1.206 -0.8329  0.8389 -1.3956
 3073TIP3    H230779   5.923   5.543   1.061 -0.4879 -1.4406 -0.8499
 3074TIP3   OH230780   6.621   1.627   1.650  0.1157 -0.2314 -0.2640
 3074TIP3    H130781   6.596   1.563   1.583  0.1180 -1.3749  0.8086
 3074TIP3    H230782   6.538   1.661   1.683  0.1078  0.0265 -0.5407
 3075TIP3   OH230783   3.842   1.162   0.106 -0.2145  0.3375 -0.6014
 3075TIP3    H130784   3.789   1.211   0.169  0.6992  0.8391 -0.2097
 3075TIP3    H230785   3.778   1.126   0.044 -1.0452  0.5989  0.0805
 3076TIP3   OH230786   2.109   1.519   6.590 -0.0569  0.8370 -0.0557
 3076TIP3    H130787   2.121   1.441   6.535  1.7335  1.4833 -0.6365
 3076TIP3    H230788   2.057   1.487   6.664 -0.5494 -0.5818 -0.9623
 3077TIP3   OH230789   2.294   3.545   1.676  0.1544 -0.6497 -0.3595
 3077TIP3    H130790   2.311   3.475   1.612  0.0337  0.3286 -1.4929
 3077TIP3    H230791   2.347   3.619   1.645 -0.9091  0.2572 -0.0543
 3078TIP3   OH230792   5.578   2.301   1.188  0.4235 -0.6417  0.3929
 3078TIP3    H130793   5.567   2.219   1.139 -3.1854  0.4397 -0.8716
 3078TIP3    H230794   5.608   2.272   1.274  1.5862 -3.0548 -0.7032
 3079TIP3   OH230795   0.510   4.780   7.728 -0.2259 -0.4621  0.0935
 3079TIP3    H130796   0.510   4.761   7.634 -1.0076 -2.2202  0.4149
 3079TIP3    H230797   0.419   4.803   7.747 -0.0736 -0.1379  0.4302
 3080TIP3   OH230798   3.984   6.460   8.207 -0.2002  0.0904  0.2876
 3080TIP3    H130799   3.979   6.367   8.228 -1.1717 -0.0978 -0.6636
 3080TIP3    H230800   3.995   6.503   8.292 -3.0761 -0.6852  1.1862
 3081TIP3   OH230801   4.741   5.998   0.290 -0.4359  0.1306  0.1532
 3081TIP3    H130802   4.704   5.917   0.326  0.5048 -0.1142  0.6240
 3081TIP3    H230803   4.674   6.032   0.232 -2.4613  1.0265  2.8159
 3082TIP3   OH230804   4.840   0.360   0.869  0.3738 -0.2467  0.4396
 3082TIP3    H130805   4.760   0.383   0.915 -0.9014  1.4514 -2.3675
 3082TIP3    H230806   4.813   0.297   0.802  1.5641 -0.4003  0.0681
 3083TIP3   OH230807   5.480   5.789   1.080 -0.2102  0.3947 -0.5562
 3083TIP3    H130808   5.469   5.748   0.995  1.6386 -0.5057 -0.4221
 3083TIP3    H230809   5.516   5.720   1.136 -1.7074  0.8568  1.0726
 3084TIP3   OH230810   4.188   1.662   1.197 -0.3257  0.1147  0.0362
 3084TIP3    H130811   4.257   1.595   1.196  2.3069  2.6094 -0.5318
 3084TIP3    H230812   4.154   1.659   1.287  0.6887 -1.0616  0.4154
 3085TIP3   OH230813   5.604   5.226   8.177  0.5168  0.0055 -0.9282
 3085TIP3    H130814   5.669   5.215   8.247 -0.0155 -1.5985 -0.6324
 3085TIP3    H230815   5.635   5.168   8.107 -0.4672 -0.6049 -0.8661
 3086TIP3   OH230816   1.406   3.876   8.333 -0.0504 -0.4097  0.8204
 3086TIP3    H130817   1.399   3.877   8.428 -0.5418  2.2088  0.8129
 3086TIP3    H230818   1.430   3.965   8.309  0.3238 -1.0688 -1.5162
 3087TIP3   OH230819   4.016   1.494   7.333  0.4267  0.2698 -0.2979
 3087TIP3    H130820   4.103   1.489   7.293  1.6850 -1.6133  2.3711
 3087TIP3    H230821   3.956   1.470   7.263  2.1412  0.4903 -1.9313
 3088TIP3   OH230822   6.128   1.738   0.216  0.2126  0.0443 -0.4443
 3088TIP3    H130823   6.188   1.664   0.203 -0.4162 -0.6555  0.5373
 3088TIP3    H230824   6.174   1.812   0.176  1.2366 -0.6901 -0.7017
 3089TIP3   OH230825   3.604   0.133   0.241 -0.2087 -0.3518 -0.0072
 3089TIP3    H130826   3.578   0.221   0.214 -0.6932 -0.6927 -0.6945
 3089TIP3    H230827   3.640   0.094   0.162  0.7413 -0.5160  0.4875
 3090TIP3   OH230828   3.378   6.482   2.076 -0.4550 -0.0991  0.2812
 3090TIP3    H130829   3.421   6.490   2.161 -0.0363  0.3610  0.0307
 3090TIP3    H230830   3.305   6.543   2.080 -0.6279 -0.3150  0.4268
 3091TIP3   OH230831   6.269   3.077   7.047 -0.2604 -0.1755 -0.2652
 3091TIP3    H130832   6.251   3.049   6.957  0.1328 -0.6157 -0.2108
 3091TIP3    H230833   6.298   3.168   7.038 -0.0938 -0.2574 -0.6018
 3092TIP3   OH230834   0.140   1.791   1.355  0.3330  0.4577  0.5495
 3092TIP3    H130835   0.152   1.874   1.308 -0.7223  0.9823  1.1656
 3092TIP3    H230836   0.179   1.807   1.442 -1.0573  0.7855  1.1349
 3093TIP3   OH230837   3.155   0.352   8.343 -0.0045 -0.0670  0.4123
 3093TIP3    H130838   3.098   0.299   8.288 -0.7424  0.0355  1.0689
 3093TIP3    H230839   3.204   0.407   8.282  0.4909 -1.2132 -0.2576
 3094TIP3   OH230840   6.158   0.534   1.988 -0.0620 -0.2867 -0.6337
 3094TIP3    H130841   6.064   0.515   1.991 -0.4172  1.3100 -0.0610
 3094TIP3    H230842   6.188   0.518   2.077 -0.2954  1.2852 -0.2345
 3095TIP3   OH230843   0.900   2.404   7.420  0.0580 -0.2020 -0.7779
 3095TIP3    H130844   0.868   2.354   7.345 -0.5494 -1.4353  0.2605
 3095TIP3    H230845   0.834   2.473   7.432 -1.6684 -1.9582  0.5583
 3096TIP3   OH230846   0.171   3.081   6.463  0.3758  0.2027 -0.4015
 3096TIP3    H130847   0.245   3.053   6.517 -0.2274 -1.7777 -0.5545
 3096TIP3    H230848   0.121   3.141   6.520  0.4325 -0.8664  0.8093
 3097TIP3   OH230849   1.207   1.509   8.527  0.2292 -0.6177 -0.8138
 3097TIP3    H130850   1.260   1.483   8.603  2.4464  1.6241 -1.4379
 3097TIP3    H230851   1.225   1.442   8.461  1.4665 -0.4704 -0.6475
 3098TIP3   OH230852   1.303   2.459   1.024  0.5595  0.2935 -0.1118
 3098TIP3    H130853   1.343   2.372   1.013 -0.0862  0.0478 -0.5573
 3098TIP3    H230854   1.219   2.452   0.980  1.0234  1.5390 -1.2413
 3099TIP3   OH230855   1.590   5.857   8.191 -0.2385  0.2242  0.5686
 3099TIP3    H130856   1.646   5.834   8.116 -1.7393 -0.3261 -0.4204
 3099TIP3    H230857   1.591   5.952   8.193  1.1185  0.2319  0.8891
 3100TIP3   OH230858   3.044   1.568   1.269  0.5267 -0.5898  0.5230
 3100TIP3    H130859   3.056   1.663   1.261 -1.4897 -0.3184  0.3079
 3100TIP3    H230860   3.071   1.533   1.184 -1.3851  0.1381 -0.4407
 3101TIP3   OH230861   0.356   4.855   1.448 -0.0208  0.1983 -0.3409
 3101TIP3    H130862   0.269   4.886   1.471 -0.1540 -1.3514  1.5274
 3101TIP3    H230863   0.374   4.893   1.363 -2.8301 -0.0273 -1.1133
 3102TIP3   OH230864   1.113   4.601   7.762  0.0914 -0.5708  0.3089
 3102TIP3    H130865   1.148   4.682   7.800  2.0860 -1.7756  1.1752
 3102TIP3    H230866   1.119   4.615   7.667  0.2468  0.3441  0.4397
 3103TIP3   OH230867   1.092   0.724   8.037 -0.3599 -0.6067 -0.0924
 3103TIP3    H130868   1.003   0.739   8.069 -0.4193  0.6151 -0.8045
 3103TIP3    H230869   1.085   0.730   7.942  0.8791  1.9640 -0.0997
 3104TIP3   OH230870   2.949   0.822   6.525 -0.2678 -0.0095 -0.0988
 3104TIP3    H130871   3.020   0.779   6.573 -0.9819 -1.4153 -0.2552
 3104TIP3    H230872   2.960   0.795   6.434  0.4663  1.8176 -0.6067
 3105TIP3   OH230873   2.151   4.801   7.072  0.3621  0.1567  0.3472
 3105TIP3    H130874   2.219   4.837   7.129 -0.5544  0.1434  1.5155
 3105TIP3    H230875   2.108   4.734   7.126 -0.8892  0.5274 -0.1520
 3106TIP3   OH230876   2.956   0.146   6.945  0.0011  0.0694 -0.2859
 3106TIP3    H130877   2.968   0.077   6.880 -2.8268 -1.7105  0.9072
 3106TIP3    H230878   2.870   0.183   6.925  0.0336  0.9941  1.1335
 3107TIP3   OH230879   6.854   4.989   7.952  0.0101 -0.1017 -0.0529
 3107TIP3    H130880   6.881   4.908   7.995  2.8496  0.1057 -1.2185
 3107TIP3    H230881   6.877   5.058   8.014  2.2519  0.0623 -0.9741
 3108TIP3   OH230882   3.100   1.649   0.529  0.5340  0.5251 -0.3252
 3108TIP3    H130883   3.038   1.595   0.479 -1.2406  1.7000  0.4943
 3108TIP3    H230884   3.069   1.644   0.619  1.7574  1.0433  0.1470
 3109TIP3   OH230885   4.389   5.985   8.516  0.2773 -0.1862 -0.2883
 3109TIP3    H130886   4.362   6.034   8.593 -0.6260 -1.4485  0.2216
 3109TIP3    H230887   4.474   5.947   8.540  0.9125  0.9715 -0.6356
 3110TIP3   OH230888   5.983   3.099   8.378 -0.3723  0.5404  0.2625
 3110TIP3    H130889   5.919   3.055   8.323  2.4372 -2.5741 -0.8882
 3110TIP3    H230890   6.019   3.168   8.322 -0.9672  0.6281 -0.0140
 3111TIP3   OH230891   6.505   0.406   2.434  0.3614  0.3020 -0.2356
 3111TIP3    H130892   6.445   0.332   2.430  0.1756  0.5121 -2.8191
 3111TIP3    H230893   6.455   0.474   2.480  0.2696 -0.8777  1.5095
 3112TIP3   OH230894   6.166   2.951   1.610  0.2465  0.4933 -0.1447
 3112TIP3    H130895   6.177   2.934   1.704  0.6158  2.5704  0.2410
 3112TIP3    H230896   6.213   3.033   1.595 -1.2064  1.0819 -1.8070
 3113TIP3   OH230897   4.674   3.239   7.473 -0.2810 -0.4444 -0.4779
 3113TIP3    H130898   4.711   3.247   7.561 -0.2826 -1.3605 -0.3845
 3113TIP3    H230899   4.651   3.146   7.465 -1.5632 -0.1113 -0.9374
 3114TIP3   OH230900   1.200   3.004   6.309  0.8149  0.2023  0.5706
 3114TIP3    H130901   1.148   2.936   6.351 -0.5710  0.3889 -0.7678
 3114TIP3    H230902   1.266   2.956   6.258  0.2579 -0.1328  0.1548
 3115TIP3   OH230903   4.407   0.948   6.708  0.3497  0.1381 -0.5666
 3115TIP3    H130904   4.346   0.997   6.654  0.1011 -1.7088 -2.0677
 3115TIP3    H230905   4.450   0.887   6.648  1.4639 -0.7088  0.9855
 3116TIP3   OH230906   5.189   6.065   6.779 -0.2219  0.0730 -0.6890
 3116TIP3    H130907   5.185   6.028   6.691  0.6118  1.9322 -1.5532
 3116TIP3    H230908   5.270   6.115   6.781 -1.1845  1.6738  0.4670
 3117TIP3   OH230909   3.650   0.022   7.916  0.3536  0.2936 -0.0710
 3117TIP3    H130910   3.709   0.054   7.848  0.5500 -0.9936 -0.5322
 3117TIP3    H230911   3.705  -0.032   7.973  0.5692  2.6380  2.1336
 3118TIP3   OH230912   1.901   1.371   7.757 -0.2452 -0.3740  0.0775
 3118TIP3    H130913   1.941   1.299   7.807 -2.6185 -0.7866  1.5946
 3118TIP3    H230914   1.942   1.450   7.791 -0.2748 -0.8074  1.1725
 3119TIP3   OH230915   4.706   3.665   6.881  0.0361 -0.6872 -0.3067
 3119TIP3    H130916   4.756   3.593   6.841 -1.6610 -0.9602 -2.1054
 3119TIP3    H230917   4.626   3.669   6.830 -0.8277  1.1672  1.0917
 3120TIP3   OH230918   1.134   1.458   6.755  0.0179  0.1596  0.6043
 3120TIP3    H130919   1.193   1.383   6.745  0.6575  0.9067 -2.1711
 3120TIP3    H230920   1.047   1.423   6.739  0.0729 -0.3392  1.3549
 3121TIP3   OH230921   4.687   2.183   0.698 -0.3763 -0.0968  0.4704
 3121TIP3    H130922   4.694   2.241   0.773  0.3280 -1.5919  1.6238
 3121TIP3    H230923   4.601   2.201   0.661 -0.2213  1.5673  0.8374
 3122TIP3   OH230924   3.930   5.399   7.735  0.2171 -0.5883 -0.2977
 3122TIP3    H130925   3.862   5.418   7.800  2.6617  0.2361  2.1922
 3122TIP3    H230926   3.941   5.304   7.738  1.8358 -0.4180  2.3288
 3123TIP3   OH230927   4.526   3.328   6.757 -0.9351  0.2061  0.2436
 3123TIP3    H130928   4.539   3.233   6.745 -0.5078 -0.0615  2.3527
 3123TIP3    H230929   4.548   3.366   6.672 -2.1377 -1.6568 -0.9870
 3124TIP3   OH230930   1.030   4.551   0.019 -0.5412  0.2118 -0.0787
 3124TIP3    H130931   1.027   4.579  -0.073  1.2402  0.9020  0.0421
 3124TIP3    H230932   1.077   4.468   0.017 -0.4642  0.2487  0.2176
 3125TIP3   OH230933   0.202   0.833   0.940 -0.0260 -0.4551 -0.2592
 3125TIP3    H130934   0.137   0.836   1.010 -0.6208  0.5515 -0.8207
 3125TIP3    H230935   0.272   0.778   0.974 -0.2772  0.0457  1.1423
 3126TIP3   OH230936   1.915   2.291   7.058  0.4735 -0.0761  0.1791
 3126TIP3    H130937   1.925   2.199   7.084  3.1771  0.1373  0.1096
 3126TIP3    H230938   1.937   2.292   6.965 -1.0693  0.4472 -0.2094
 3127TIP3   OH230939   6.852   1.586   7.474 -0.2618 -0.8234  0.2435
 3127TIP3    H130940   6.925   1.534   7.507  0.2134 -0.1085  0.3477
 3127TIP3    H230941   6.853   1.665   7.528 -0.4694 -0.3506 -0.4354
 3128TIP3   OH230942   6.563   1.820   2.049  0.3752  0.2008 -0.0997
 3128TIP3    H130943   6.505   1.757   2.091 -0.2450 -2.3803 -4.2267
 3128TIP3    H230944   6.648   1.776   2.046  0.7473  0.9210 -0.2526
 3129TIP3   OH230945   2.611   1.494   2.151  0.4310  0.0639  0.1265
 3129TIP3    H130946   2.533   1.450   2.118 -0.6634  0.4031  2.0464
 3129TIP3    H230947   2.664   1.425   2.189  1.2888 -0.2177 -1.5239
 3130TIP3   OH230948   5.518   6.710   1.407 -0.6186  0.0303  0.0661
 3130TIP3    H130949   5.555   6.763   1.337 -0.9907 -2.0470 -1.8351
 3130TIP3    H230950   5.593   6.688   1.463  0.2342 -0.4739 -1.2245
 3131TIP3   OH230951   1.520   6.709   6.438  0.1306  0.2455 -0.2215
 3131TIP3    H130952   1.464   6.632   6.445  0.3855  0.1873  2.6996
 3131TIP3    H230953   1.459   6.783   6.443 -0.0033  0.2611 -1.6948
 3132TIP3   OH230954   0.380   3.555   7.227 -0.2982  0.6497  0.9096
 3132TIP3    H130955   0.348   3.601   7.149 -0.6293  1.0370  1.2716
 3132TIP3    H230956   0.451   3.610   7.259  0.4185  0.0505  0.3988
 3133TIP3   OH230957   1.851   5.091   8.119 -0.2193  0.2218 -0.1706
 3133TIP3    H130958   1.894   5.149   8.181  1.2306 -0.5575 -0.4001
 3133TIP3    H230959   1.922   5.042   8.078 -0.9897  1.6228 -3.4593
 3134TIP3   OH230960   5.241   1.406   8.611  0.4781  0.1331  0.0716
 3134TIP3    H130961   5.311   1.437   8.553 -0.8262  2.0922 -0.5361
 3134TIP3    H230962   5.181   1.360   8.553  0.6571 -0.5316  0.4030
 3135TIP3   OH230963   1.144   2.604   2.081  0.0974 -0.0528 -0.2115
 3135TIP3    H130964   1.100   2.666   2.023  0.0414  0.3013  0.2073
 3135TIP3    H230965   1.073   2.562   2.130 -0.1441 -2.4488 -2.3788
 3136TIP3   OH230966   6.608   5.182   7.885  0.0396  0.5481  0.6538
 3136TIP3    H130967   6.568   5.095   7.893 -0.0233  0.6712  1.7995
 3136TIP3    H230968   6.616   5.195   7.791 -0.0622 -0.6514  0.4547
 3137TIP3   OH230969   1.053   2.236   8.059 -0.1840 -0.5859  0.4118
 3137TIP3    H130970   1.145   2.209   8.055  0.0692  0.3609 -0.6408
 3137TIP3    H230971   1.056   2.328   8.085 -0.8306 -0.5075  0.2310
 3138TIP3   OH230972   0.189   5.199   0.679 -0.0162 -0.3270 -0.0115
 3138TIP3    H130973   0.094   5.189   0.672 -0.0362  0.0988 -0.3508
 3138TIP3    H230974   0.220   5.206   0.589  0.5610 -2.3668 -0.0175
 3139TIP3   OH230975   0.876   6.672   1.933 -0.1490 -0.5967  0.1528
 3139TIP3    H130976   0.921   6.698   1.853 -3.5783  1.5421 -1.3463
 3139TIP3    H230977   0.852   6.755   1.975 -1.4160 -1.5958  1.5380
 3140TIP3   OH230978   5.187   5.793   0.931 -0.1287 -0.2482 -0.0760
 3140TIP3    H130979   5.142   5.835   1.005 -1.8936 -1.8542 -0.1471
 3140TIP3    H230980   5.210   5.706   0.964  0.0846 -0.5792 -1.0603
 3141TIP3   OH230981   0.437   3.074   7.237 -0.5943 -0.3771 -0.1452
 3141TIP3    H130982   0.384   3.007   7.280  0.7952 -1.5681 -0.2163
 3141TIP3    H230983   0.508   3.026   7.196 -0.1542  1.0495 -1.1418
 3142TIP3   OH230984   2.650   3.959   0.692  0.4901 -0.5089 -0.2536
 3142TIP3    H130985   2.639   3.930   0.783 -2.1072 -0.5070 -0.4958
 3142TIP3    H230986   2.634   4.054   0.695  1.4914 -0.3146 -0.5819
 3143TIP3   OH230987   1.728   5.757   6.109 -0.0232  0.2473  0.0143
 3143TIP3    H130988   1.690   5.684   6.061  0.0559  0.3875 -0.2650
 3143TIP3    H230989   1.775   5.716   6.182  0.9662 -0.0756 -0.7704
 3144TIP3   OH230990   0.899   5.466   7.399  0.5411 -0.4093 -0.0434
 3144TIP3    H130991   0.807   5.446   7.417  0.9901 -1.2613  1.4800
 3144TIP3    H230992   0.906   5.464   7.304 -1.6648  2.7354 -0.4435
 3145TIP3   OH230993   2.137   1.185   8.443 -0.3978  0.8667 -0.0964
 3145TIP3    H130994   2.190   1.236   8.383  0.0511 -1.1635 -1.5192
 3145TIP3    H230995   2.058   1.238   8.456 -0.5325  1.3941 -2.5249
 3146TIP3   OH230996   3.487   4.576   6.701 -0.7148 -0.0086  0.7820
 3146TIP3    H130997   3.524   4.538   6.622 -0.2457 -0.7730  1.3521
 3146TIP3    H230998   3.560   4.580   6.763 -1.0234  0.7615  1.1165
 3147TIP3   OH230999   6.796   0.633   0.029 -0.0400  1.1450  0.1959
 3147TIP3    H131000   6.717   0.687   0.026 -0.4316  0.5484 -0.6492
 3147TIP3    H231001   6.864   0.689  -0.007 -0.2733  1.3475  0.0680
 3148TIP3   OH231002   0.441   3.250   1.036 -0.1449 -0.4162  0.1855
 3148TIP3    H131003   0.366   3.191   1.024 -0.3097 -0.7903  2.5786
 3148TIP3    H231004   0.404   3.326   1.080  0.2141  1.2480 -2.2040
 3149TIP3   OH231005   1.659   1.007   7.565  0.2410 -0.1290  0.1744
 3149TIP3    H131006   1.636   0.923   7.526 -0.4505 -1.1986  2.7420
 3149TIP3    H231007   1.755   1.005   7.571  0.1224 -1.8383  2.4086
 3150TIP3   OH231008   0.095   5.779   0.953 -0.8110 -0.3823 -0.1676
 3150TIP3    H131009   0.081   5.808   0.863  0.1183 -1.1057 -0.5540
 3150TIP3    H231010   0.101   5.860   1.004 -2.6581  0.0201 -0.5293
 3151TIP3   OH231011   1.668   6.392   0.375  0.6086  1.1854  0.0967
 3151TIP3    H131012   1.576   6.399   0.400  0.3568 -0.2148 -0.3403
 3151TIP3    H231013   1.712   6.357   0.452  0.3236 -0.4590 -0.4508
 3152TIP3   OH231014   1.992   6.572   1.110  0.3123 -0.3394  0.5057
 3152TIP3    H131015   1.911   6.555   1.062  0.9108 -0.6722 -0.4004
 3152TIP3    H231016   2.057   6.591   1.043  0.9515  0.1098  1.2322
 3153TIP3   OH231017   5.079   2.330   6.165 -0.1124 -0.3475 -0.5040
 3153TIP3    H131018   5.086   2.249   6.115 -2.0328 -1.0644  0.2924
 3153TIP3    H231019   5.038   2.393   6.105  1.4836  0.1140 -1.1595
 3154TIP3   OH231020   0.117   3.733   7.780  0.6953  0.5115 -0.1276
 3154TIP3    H131021   0.208   3.744   7.810  0.7007 -0.0155  0.0621
 3154TIP3    H231022   0.096   3.815   7.736  1.1201  0.8037  0.2081
 3155TIP3   OH231023   0.050   3.541   7.257 -0.4767  0.4008  0.3500
 3155TIP3    H131024   0.143   3.552   7.277 -0.4162 -0.8871  0.8439
 3155TIP3    H231025   0.047   3.528   7.162 -0.1523  0.3891  0.3401
 3156TIP3   OH231026   1.905   3.963   8.681 -0.3396 -0.1660 -0.4992
 3156TIP3    H131027   1.958   3.890   8.650  0.0312 -0.0339 -0.1926
 3156TIP3    H231028   1.969   4.024   8.719 -0.7468 -0.1655  0.1899
 3157TIP3   OH231029   5.692   1.747   7.832 -0.0725  0.2678  0.0918
 3157TIP3    H131030   5.767   1.752   7.773 -0.2705  3.4659 -0.0674
 3157TIP3    H231031   5.717   1.799   7.908 -0.5228 -2.2604  2.1489
 3158TIP3   OH231032   4.788   3.118   0.352 -0.6218 -0.6393 -0.4565
 3158TIP3    H131033   4.867   3.132   0.301 -1.1723 -1.1143 -1.4749
 3158TIP3    H231034   4.757   3.032   0.325 -0.8563 -0.9729  0.7998
 3159TIP3   OH231035   4.156   0.986   7.602  0.4400 -0.0845  0.2738
 3159TIP3    H131036   4.067   0.979   7.637 -0.5539  0.8781 -1.8642
 3159TIP3    H231037   4.199   0.904   7.628 -1.7670 -1.5637 -0.4422
 3160TIP3   OH231038   5.926   4.311   0.852 -0.2259 -0.2928  0.0806
 3160TIP3    H131039   5.916   4.392   0.902  1.0336 -0.3661  0.4739
 3160TIP3    H231040   6.017   4.311   0.823 -0.3454 -1.3251 -0.3534
 3161TIP3   OH231041   2.313   0.644   0.624 -0.0032  1.1448  0.0963
 3161TIP3    H131042   2.231   0.663   0.580  0.0236  1.5800  0.2348
 3161TIP3    H231043   2.286   0.613   0.711 -0.0067  1.9579  0.3951
 3162TIP3   OH231044   0.270   6.587   6.986  0.5455 -0.0106  0.2886
 3162TIP3    H131045   0.293   6.568   7.076 -1.2378 -0.7083  0.6455
 3162TIP3    H231046   0.197   6.528   6.967  1.3594 -0.4318 -1.8668
 3163TIP3   OH231047   6.356   1.533   7.147 -0.1691  0.0440 -0.5727
 3163TIP3    H131048   6.450   1.534   7.128 -0.0321  0.5445  0.0978
 3163TIP3    H231049   6.348   1.483   7.228 -0.1827  2.0813  0.7526
 3164TIP3   OH231050   5.867   1.331   1.082 -0.2054  0.0135  0.5104
 3164TIP3    H131051   5.791   1.275   1.092 -0.9077  0.6574 -0.9335
 3164TIP3    H231052   5.866   1.357   0.990 -1.0601  3.9535  1.4475
 3165TIP3   OH231053   4.464   2.746   1.083 -0.0702 -0.5238  0.2755
 3165TIP3    H131054   4.428   2.788   1.005 -0.2796 -1.4644 -0.1531
 3165TIP3    H231055   4.419   2.787   1.156 -0.0271  0.2204 -0.1119
 3166TIP3   OH231056   5.511   2.947   7.293 -0.6884  0.2750 -0.0553
 3166TIP3    H131057   5.478   2.881   7.354 -1.3308  0.6871  0.0631
 3166TIP3    H231058   5.543   2.898   7.218 -1.3190 -0.1618 -0.0464
 3167TIP3   OH231059   0.051   6.205   1.221  0.2917  0.3463  0.1161
 3167TIP3    H131060   0.091   6.259   1.153 -1.7401  0.3365 -1.1832
 3167TIP3    H231061  -0.013   6.262   1.262  0.2901 -0.1768  0.8613
 3168TIP3   OH231062   6.452   1.455   0.858  0.1932 -0.1500  0.4692
 3168TIP3    H131063   6.545   1.454   0.881  0.1663 -1.7652  0.6347
 3168TIP3    H231064   6.420   1.368   0.881 -1.7938  0.9180  2.0831
 3169TIP3   OH231065   5.564   5.553   7.874 -0.5857 -0.4972 -0.1698
 3169TIP3    H131066   5.625   5.627   7.883 -1.3217 -0.1209  2.6363
 3169TIP3    H231067   5.488   5.590   7.829 -0.0819 -0.1196 -0.7311
 3170TIP3   OH231068   4.684   6.499   6.927 -0.6472 -0.2484  0.4813
 3170TIP3    H131069   4.701   6.431   6.862 -0.8547 -0.1459  0.3159
 3170TIP3    H231070   4.696   6.581   6.878  0.0848 -0.1541  0.7988
 3171TIP3   OH231071   3.079   4.162   8.025  0.8037 -0.0500  0.0937
 3171TIP3    H131072   3.057   4.146   8.116  1.6977  1.6309  0.6434
 3171TIP3    H231073   3.108   4.077   7.991  2.4777 -0.2858  1.9693
 3172TIP3   OH231074   6.778   1.173   0.669 -0.4802 -0.3767  0.1679
 3172TIP3    H131075   6.767   1.084   0.703 -2.9301 -0.7268 -1.3126
 3172TIP3    H231076   6.795   1.226   0.747  0.7994 -2.0671  1.1149
 3173TIP3   OH231077   2.367   1.411   1.056 -0.5968  0.6255 -0.0678
 3173TIP3    H131078   2.272   1.398   1.061 -0.4083 -0.5093  0.9999
 3173TIP3    H231079   2.379   1.506   1.060 -1.8078  1.0448 -3.1473
 3174TIP3   OH231080   0.122   6.847   2.482  0.1009 -0.0601  0.1134
 3174TIP3    H131081   0.125   6.754   2.457 -1.3532 -0.2907  0.6716
 3174TIP3    H231082   0.188   6.856   2.550 -0.1878 -0.8557  0.5208
 3175TIP3   OH231083   5.513   0.068   2.036 -0.0140  0.6092 -0.4142
 3175TIP3    H131084   5.458  -0.008   2.054  0.2707  0.4604 -0.1691
 3175TIP3    H231085   5.544   0.055   1.947  0.2070  0.3298 -0.2970
 3176TIP3   OH231086   2.117   0.879   8.393 -0.3122  0.1374 -0.2794
 3176TIP3    H131087   2.209   0.864   8.410 -0.2985  0.3739 -0.1408
 3176TIP3    H231088   2.106   0.974   8.402 -0.6107  0.0860 -0.0816
 3177TIP3   OH231089   4.692   5.657   6.885  0.0523 -0.5677 -0.1388
 3177TIP3    H131090   4.758   5.590   6.867  0.4772 -0.5361  1.1719
 3177TIP3    H231091   4.676   5.699   6.800  0.0446 -2.0745 -0.9026
 3178TIP3   OH231092   6.151   6.292   0.431  0.0042  0.1047  0.7444
 3178TIP3    H131093   6.199   6.363   0.387  0.2254  0.0246  0.8538
 3178TIP3    H231094   6.153   6.316   0.523  1.7415 -0.9825  1.0479
 3179TIP3   OH231095   0.576   4.354   0.253 -0.0881 -0.1496 -0.2382
 3179TIP3    H131096   0.579   4.345   0.158 -0.5268  0.2994 -0.3018
 3179TIP3    H231097   0.487   4.327   0.276 -0.9395  2.3751 -0.2759
 3180TIP3   OH231098   6.106   3.346   2.402 -0.5755 -0.5385 -0.1771
 3180TIP3    H131099   6.089   3.435   2.371 -0.0821 -0.2245  0.4246
 3180TIP3    H231100   6.186   3.354   2.455 -0.1230 -1.4626 -0.6905
 3181TIP3   OH231101   5.958   4.991   1.792  0.0447 -0.5334  0.4209
 3181TIP3    H131102   6.043   5.004   1.751  0.3747 -1.8815  0.6314
 3181TIP3    H231103   5.977   4.991   1.886 -0.5200  1.2576  0.5802
 3182TIP3   OH231104   2.729   2.031   0.405  0.1945 -0.1026 -0.2071
 3182TIP3    H131105   2.697   2.120   0.387  2.8970  0.9269 -0.4268
 3182TIP3    H231106   2.721   1.985   0.322  2.6645  1.3174 -1.3326
 3183TIP3   OH231107   1.734   0.069   6.887 -0.0014 -0.1010  0.3820
 3183TIP3    H131108   1.643   0.053   6.861  0.0779  1.8446 -1.3381
 3183TIP3    H231109   1.786   0.036   6.814  0.5338  0.9063  0.2920
 3184TIP3   OH231110   3.747   6.148   1.052 -0.4612  0.3943 -0.2074
 3184TIP3    H131111   3.747   6.244   1.047  2.1000  0.5265  0.7187
 3184TIP3    H231112   3.770   6.120   0.963  0.2002  0.7303 -0.1504
 3185TIP3   OH231113   2.727   0.437   1.193 -0.3028 -0.2148  0.5416
 3185TIP3    H131114   2.822   0.434   1.205 -0.0221 -1.1146 -1.4103
 3185TIP3    H231115   2.698   0.511   1.247  1.5393  0.2696  0.9446
 3186TIP3   OH231116   1.922   1.025   7.671 -0.9672  0.2905 -0.1686
 3186TIP3    H131117   1.982   1.094   7.644 -0.1858 -0.7128 -1.1127
 3186TIP3    H231118   1.900   1.045   7.762 -1.6762  2.3968 -0.7634
 3187TIP3   OH231119   3.300   4.916   7.592  0.6456  0.0132  0.0491
 3187TIP3    H131120   3.351   4.926   7.513  1.6808 -0.3107  0.6639
 3187TIP3    H231121   3.298   5.004   7.631 -1.0912  0.5027 -1.0412
 3188TIP3   OH231122   6.031   2.709   6.159  0.1736 -0.2194 -0.2928
 3188TIP3    H131123   6.047   2.636   6.099  0.7210 -1.8369  1.6853
 3188TIP3    H231124   5.978   2.671   6.229  0.2177  1.3681  0.6457
 3189TIP3   OH231125   1.514   4.137   8.314  0.6990 -0.3404 -0.2251
 3189TIP3    H131126   1.594   4.111   8.360 -0.0068 -0.3499  1.0393
 3189TIP3    H231127   1.493   4.223   8.351  0.6352  0.0824 -1.2285
 3190TIP3   OH231128   1.693   6.300   7.423 -0.0741  0.4903  0.3400
 3190TIP3    H131129   1.645   6.263   7.348  0.4870 -0.1423  0.2822
 3190TIP3    H231130   1.660   6.251   7.498  0.4783  0.0420  0.2982
 3191TIP3   OH231131   5.773   5.344   7.880  0.1579  0.1742  0.0401
 3191TIP3    H131132   5.737   5.292   7.809 -0.1492  0.1908  0.1813
 3191TIP3    H231133   5.714   5.420   7.887 -1.5170 -1.1786  2.1360
 3192TIP3   OH231134   0.803   5.871   1.449  0.2320 -0.1555  0.2024
 3192TIP3    H131135   0.854   5.794   1.474  1.0035 -0.2189 -1.3977
 3192TIP3    H231136   0.715   5.854   1.481  0.4120 -1.6799 -0.0474
 3193TIP3   OH231137   2.295   4.088   0.723 -0.0376  0.2179 -0.0307
 3193TIP3    H131138   2.268   4.171   0.683  0.8683  1.4854  1.8575
 3193TIP3    H231139   2.387   4.079   0.701 -0.1503 -0.3584 -0.2958
 3194TIP3   OH231140   2.929   3.500   7.546  0.0758  0.3580 -0.2122
 3194TIP3    H131141   2.908   3.541   7.462  1.5787  0.1346 -0.7327
 3194TIP3    H231142   2.894   3.411   7.538 -1.0007  0.7519 -0.0461
 3195TIP3   OH231143   5.999   3.057   7.580 -0.1317 -0.4151  0.6050
 3195TIP3    H131144   6.081   3.076   7.535  0.2283 -2.4311  0.3076
 3195TIP3    H231145   6.026   3.005   7.656 -1.0934 -0.7466  0.7300
 3196TIP3   OH231146   2.705   4.354   8.491  0.1236 -0.3455  0.4934
 3196TIP3    H131147   2.676   4.291   8.557  0.5303 -1.0201  0.0394
 3196TIP3    H231148   2.727   4.301   8.414 -2.5282  0.5809 -1.0257
 3197TIP3   OH231149   2.500   0.283   8.367 -0.4055 -0.2121  0.7624
 3197TIP3    H131150   2.530   0.311   8.280 -1.2899 -0.8114  0.2610
 3197TIP3    H231151   2.411   0.316   8.374 -1.3227 -2.4172  0.3473
 3198TIP3   OH231152   6.425   3.063   0.089 -0.0990  0.7250  0.1004
 3198TIP3    H131153   6.496   3.040   0.149 -0.3453  0.3364  0.2468
 3198TIP3    H231154   6.379   3.134   0.134  0.0973  0.8678  0.0792
 3199TIP3   OH231155   5.294   4.236   0.192  0.6030 -0.1048  0.2900
 3199TIP3    H131156   5.249   4.291   0.128 -0.4978  0.3522  1.4164
 3199TIP3    H231157   5.379   4.279   0.203 -0.5867  2.0579  1.8795
 3200TIP3   OH231158   5.830   1.970   8.502 -0.3678 -0.3404 -0.1789
 3200TIP3    H131159   5.809   1.964   8.595  0.8828  0.8114  0.2216
 3200TIP3    H231160   5.758   1.926   8.457 -2.8027  1.9740  1.1551
 3201TIP3   OH231161   3.783   0.763   6.398  0.5681 -0.4845 -0.3897
 3201TIP3    H131162   3.777   0.855   6.423  2.3601 -0.2908 -0.4977
 3201TIP3    H231163   3.719   0.719   6.454 -1.1762  0.9477 -1.1875
 3202TIP3   OH231164   3.644   0.622   0.184  0.0256  0.1657 -0.2550
 3202TIP3    H131165   3.587   0.681   0.233 -0.1558 -1.2362  1.3384
 3202TIP3    H231166   3.709   0.680   0.143 -1.1550  1.5876 -0.1897
 3203TIP3   OH231167   1.335   2.050   7.753  0.6116  0.1297  0.0392
 3203TIP3    H131168   1.254   2.047   7.702  0.9296 -2.2996 -0.4110
 3203TIP3    H231169   1.387   2.119   7.710 -0.3637  0.2493 -0.9997
 3204TIP3   OH231170   2.750   3.248   8.168 -0.3697  0.5207 -0.3074
 3204TIP3    H131171   2.708   3.251   8.254  1.0100  1.6354  0.3623
 3204TIP3    H231172   2.722   3.165   8.131 -2.7660  0.9743  0.2851
 3205TIP3   OH231173   1.259   4.635   1.568 -0.2986 -0.1180 -0.0634
 3205TIP3    H131174   1.282   4.544   1.549 -0.5871 -0.2567  0.2379
 3205TIP3    H231175   1.164   4.634   1.578 -0.3059  0.2217 -0.0806
 3206TIP3   OH231176   4.981   5.750   1.774 -0.2693 -0.0963  0.2389
 3206TIP3    H131177   4.905   5.708   1.734 -0.5418 -0.2651  0.9289
 3206TIP3    H231178   5.004   5.820   1.713 -1.8314  0.8619  0.6876
 3207TIP3   OH231179   2.512   1.638   0.128  0.3358  0.2125  0.4433
 3207TIP3    H131180   2.459   1.660   0.204  0.2244  0.9604  0.1533
 3207TIP3    H231181   2.465   1.676   0.053  2.0871  2.3598  0.3416
 3208TIP3   OH231182   1.764   3.728   8.081  0.0300  0.0088 -0.4244
 3208TIP3    H131183   1.796   3.766   8.000  2.4970  1.8069  1.2525
 3208TIP3    H231184   1.688   3.782   8.104  0.9635  1.2669 -0.2101
 3209TIP3   OH231185   5.764   5.069   8.017  0.3860 -0.0363 -0.0841
 3209TIP3    H131186   5.785   5.138   7.954  0.7632  0.0369  0.1218
 3209TIP3    H231187   5.839   5.066   8.076  0.0183 -0.0799  0.3902
 3210TIP3   OH231188   4.830   3.062   5.839 -0.0694  0.1708 -0.2672
 3210TIP3    H131189   4.900   3.045   5.775  1.4643 -1.9530  1.7947
 3210TIP3    H231190   4.877   3.075   5.921 -2.0605 -2.6382  1.4680
 3211TIP3   OH231191   5.905   2.496   2.202 -0.3131 -0.2348 -0.1431
 3211TIP3    H131192   5.853   2.504   2.282 -1.0861 -0.2909 -0.6264
 3211TIP3    H231193   5.992   2.524   2.227 -0.7142  0.4274  0.5487
 3212TIP3   OH231194   1.416   2.715   0.968  0.1845  0.1201 -0.3034
 3212TIP3    H131195   1.394   2.622   0.965  1.1514 -0.3479  3.0493
 3212TIP3    H231196   1.378   2.746   1.050 -0.4200  2.8388 -1.4916
 3213TIP3   OH231197   3.239   0.553   0.340  0.2855  0.1331 -0.0824
 3213TIP3    H131198   3.313   0.609   0.364 -0.1615 -0.2206  2.3425
 3213TIP3    H231199   3.166   0.614   0.327  0.6229  0.3585 -1.0466
 3214TIP3   OH231200   3.223   4.761   1.075 -0.9591 -0.3502  0.6267
 3214TIP3    H131201   3.286   4.767   1.147 -0.3371 -0.2538  0.0856
 3214TIP3    H231202   3.213   4.668   1.060 -1.4098 -0.3852  1.1044
 3215TIP3   OH231203   2.290   6.602   8.533  0.4359 -0.1125  0.2127
 3215TIP3    H131204   2.200   6.636   8.535  0.5205  0.1561 -0.3973
 3215TIP3    H231205   2.335   6.651   8.602  0.3750  0.5081 -0.1768
 3216TIP3   OH231206   3.158   0.778   1.530  0.7419  0.6190 -0.7413
 3216TIP3    H131207   3.143   0.748   1.440  1.1367  0.7053 -0.8407
 3216TIP3    H231208   3.141   0.872   1.527  0.3715  0.5531 -0.6366
 3217TIP3   OH231209   1.159   6.278   1.997 -0.6904  0.3728 -0.0855
 3217TIP3    H131210   1.129   6.214   2.061 -0.3072 -0.0453 -0.3194
 3217TIP3    H231211   1.094   6.273   1.927 -0.7218  0.3210 -0.0526
 3218TIP3   OH231212   3.332   1.254   0.677 -0.3262  0.3502 -0.8852
 3218TIP3    H131213   3.269   1.193   0.716 -0.4719  0.0607 -1.5618
 3218TIP3    H231214   3.399   1.265   0.745 -0.4520 -0.3327 -0.6399
 3219TIP3   OH231215   5.351   2.197   7.311 -0.0614  0.1104 -0.2425
 3219TIP3    H131216   5.383   2.165   7.395  1.4916 -1.0078 -1.1925
 3219TIP3    H231217   5.273   2.144   7.293 -0.4826  0.4549  0.5397
 3220TIP3   OH231218   6.071   3.108   6.781 -0.4563 -0.3182  0.3610
 3220TIP3    H131219   6.134   3.055   6.732  0.1134  0.1718  0.5463
 3220TIP3    H231220   6.113   3.194   6.788 -0.9168 -0.1355  0.9513
 3221TIP3   OH231221   2.200   4.479   1.640 -0.4455 -0.2786  0.5628
 3221TIP3    H131222   2.179   4.542   1.572 -1.1223 -1.2743 -0.1720
 3221TIP3    H231223   2.288   4.504   1.670  0.5137 -0.7014 -1.7139
 3222TIP3   OH231224   3.688   6.119   6.895  0.1530 -0.2642 -0.4179
 3222TIP3    H131225   3.610   6.161   6.932  0.8703  1.2056 -0.5234
 3222TIP3    H231226   3.661   6.028   6.879 -1.1602 -0.0901  0.6672
 3223TIP3   OH231227   0.786   5.694   7.760  0.6265 -0.2627  0.0897
 3223TIP3    H131228   0.806   5.612   7.805  1.3531 -0.1148  0.0487
 3223TIP3    H231229   0.791   5.761   7.828 -1.3164 -0.3847  0.4187
 3224TIP3   OH231230   6.615   1.291   1.208 -0.1056  0.2941 -0.5605
 3224TIP3    H131231   6.584   1.267   1.295  0.8632  0.4955 -0.1447
 3224TIP3    H231232   6.635   1.208   1.165 -0.0836  0.2166 -0.3996
 3225TIP3   OH231233   4.891   4.829   0.355 -0.4075  0.4521  0.1628
 3225TIP3    H131234   4.825   4.761   0.363  1.2487 -1.1849  0.4917
 3225TIP3    H231235   4.934   4.812   0.271  0.9995  0.1228  0.9076
 3226TIP3   OH231236   2.360   0.650   1.217  0.8197  0.0835 -0.1765
 3226TIP3    H131237   2.411   0.611   1.288  1.8680  2.4756  0.5086
 3226TIP3    H231238   2.276   0.672   1.257  0.1949 -1.4527 -0.5875
 3227TIP3   OH231239   6.000   6.159   7.903 -0.2505 -0.2015  0.5735
 3227TIP3    H131240   5.982   6.216   7.978  0.5495  1.5396 -0.4825
 3227TIP3    H231241   6.068   6.099   7.934  1.1031  1.4092  0.9033
 3228TIP3   OH231242   6.476   6.465   1.414 -0.4421  0.4941 -0.4095
 3228TIP3    H131243   6.465   6.488   1.507 -0.8510  0.0272 -0.3410
 3228TIP3    H231244   6.408   6.401   1.397  0.1503 -0.0321 -0.8281
 3229TIP3   OH231245   2.757   1.145   0.724  1.0795  0.2760  0.1899
 3229TIP3    H131246   2.691   1.149   0.655  1.0332 -0.0132  0.2151
 3229TIP3    H231247   2.707   1.132   0.804  1.2127 -0.8816  0.0986
 3230TIP3   OH231248   5.530   1.135   1.387 -0.1094 -0.0942  0.6544
 3230TIP3    H131249   5.622   1.125   1.365 -0.5719  0.0149 -1.5862
 3230TIP3    H231250   5.500   1.209   1.334 -1.5414 -0.2999  1.1275
 3231TIP3   OH231251   3.726   2.593   8.091  0.6619  0.1422  0.2579
 3231TIP3    H131252   3.647   2.637   8.060 -0.3377 -0.6310  1.6056
 3231TIP3    H231253   3.798   2.644   8.054 -0.4114 -0.1114 -2.4088
 3232TIP3   OH231254   0.149   5.722   8.155  0.0787  0.0419  0.3067
 3232TIP3    H131255   0.102   5.792   8.110  0.2043 -0.8177 -1.2402
 3232TIP3    H231256   0.182   5.763   8.235 -1.5135  1.2066  0.4292
 3233TIP3   OH231257   1.387   0.067   6.336 -0.0194  0.2402  0.0689
 3233TIP3    H131258   1.424   0.144   6.294  0.4891 -0.1253 -0.1560
 3233TIP3    H231259   1.292   0.080   6.330  0.0637  0.9105  0.1571
 3234TIP3   OH231260   4.035   5.077   1.444 -0.6425  0.1419  0.0909
 3234TIP3    H131261   4.036   5.032   1.360 -1.9086  1.3775 -0.6237
 3234TIP3    H231262   3.996   5.014   1.505 -2.5248  0.2652 -0.9173
 3235TIP3   OH231263   3.233   5.022   1.156 -0.2027 -0.8179 -0.1098
 3235TIP3    H131264   3.249   4.975   1.074  3.5693 -0.7660  0.4339
 3235TIP3    H231265   3.258   4.960   1.225  0.4788  0.4386  0.8065
 3236TIP3   OH231266   5.581   0.593   1.939 -0.1277 -0.4693  0.5681
 3236TIP3    H131267   5.637   0.656   1.984  1.9494 -0.6985 -1.4927
 3236TIP3    H231268   5.493   0.610   1.973  0.6498  2.2277  1.4704
 3237TIP3   OH231269   2.718   2.685   0.188  0.1349  0.0001  0.1112
 3237TIP3    H131270   2.765   2.730   0.257  0.9909 -0.1241 -0.3751
 3237TIP3    H231271   2.634   2.732   0.181  0.1548  0.1884  1.0175
 3238TIP3   OH231272   2.427   1.303   7.683  0.1100  0.1928 -0.1631
 3238TIP3    H131273   2.522   1.299   7.689  0.2445  0.6836 -1.6536
 3238TIP3    H231274   2.409   1.381   7.630 -1.0682 -0.4822 -0.8061
 3239TIP3   OH231275   6.405   6.377   6.429 -0.2754  0.0817 -0.1636
 3239TIP3    H131276   6.315   6.396   6.456  0.0190  0.9743  0.2181
 3239TIP3    H231277   6.427   6.297   6.477 -0.5221  0.4170  0.5247
 3240TIP3   OH231278   1.534   3.083   6.957  0.0753  0.1616 -0.5889
 3240TIP3    H131279   1.464   3.148   6.963 -1.1601 -1.1691  0.2103
 3240TIP3    H231280   1.547   3.070   6.863  1.1329  2.3096 -0.7997
 3241TIP3   OH231281   2.109   3.694   1.991 -0.0703  0.1990  0.1656
 3241TIP3    H131282   2.189   3.648   2.017 -0.4442  0.5277  2.0771
 3241TIP3    H231283   2.085   3.656   1.906 -0.4475 -3.3271  1.6701
 3242TIP3   OH231284   2.992   6.580   1.082 -0.1440  0.0479 -0.5744
 3242TIP3    H131285   3.073   6.540   1.115 -0.6255 -0.9889 -0.6206
 3242TIP3    H231286   3.021   6.664   1.045  0.8944 -0.2570 -0.5027
 3243TIP3   OH231287   6.160   6.353   1.010 -0.4584 -0.1253  0.3881
 3243TIP3    H131288   6.182   6.445   0.998 -0.8880  0.4255  3.0358
 3243TIP3    H231289   6.085   6.354   1.069  0.9305 -2.1398  2.3963
 3244TIP3   OH231290   6.023   1.527   2.252 -0.4622  0.3284 -0.3856
 3244TIP3    H131291   6.100   1.484   2.215 -0.1265  1.8031 -1.4432
 3244TIP3    H231292   6.033   1.515   2.347 -0.6165 -2.2660 -0.6260
 3245TIP3   OH231293   1.478   0.588   8.373 -0.4440  0.5042  0.4853
 3245TIP3    H131294   1.499   0.680   8.386  0.7536  0.0397  2.4638
 3245TIP3    H231295   1.549   0.554   8.319  0.2341  0.3650  1.4313
 3246TIP3   OH231296   1.190   6.648   0.449  0.4654 -0.0191 -0.1359
 3246TIP3    H131297   1.131   6.672   0.377  2.3533  2.2085 -1.0639
 3246TIP3    H231298   1.152   6.689   0.527 -0.8642 -1.3072 -0.0659
 3247TIP3   OH231299   0.775   5.762   1.792  0.2427  0.4143  0.0985
 3247TIP3    H131300   0.766   5.678   1.837 -0.8380  0.6007  0.2468
 3247TIP3    H231301   0.841   5.810   1.842 -1.1174  0.7208  1.6382
 3248TIP3   OH231302   0.895   3.057   0.136  0.0680  0.3617 -0.2282
 3248TIP3    H131303   0.909   3.099   0.221 -0.5817  0.4445 -0.1529
 3248TIP3    H231304   0.967   2.996   0.127  0.7237  1.0984 -0.0884
 3249TIP3   OH231305   0.187   4.766   1.790  0.1421  0.3473  0.6775
 3249TIP3    H131306   0.229   4.852   1.790  2.2155 -0.5857 -1.1421
 3249TIP3    H231307   0.096   4.784   1.767  0.8079  1.9855 -0.9082
 3250TIP3   OH231308   2.004   4.921   6.894  0.2323  0.0676  0.2807
 3250TIP3    H131309   2.048   4.847   6.935  1.3227 -0.7614 -2.2424
 3250TIP3    H231310   2.053   4.998   6.923  0.7448 -0.4511  0.7974
 3251TIP3   OH231311   0.089   3.757   8.061  0.3617 -0.7859 -0.1921
 3251TIP3    H131312   0.175   3.796   8.047 -0.1502 -0.1382 -1.8807
 3251TIP3    H231313   0.038   3.784   7.984 -1.5348 -0.6284  1.0417
 3252TIP3   OH231314   4.831   5.771   6.556  0.1652 -0.0171  0.2682
 3252TIP3    H131315   4.848   5.704   6.622  0.6712 -0.2500 -0.0896
 3252TIP3    H231316   4.736   5.785   6.560  0.3966  1.3726  2.3617
 3253TIP3   OH231317   5.474   4.635   0.366  0.1568 -0.6216  0.0691
 3253TIP3    H131318   5.495   4.718   0.409  0.4659  0.0612 -1.3089
 3253TIP3    H231319   5.521   4.569   0.416  0.9695  0.1973  0.4276
 3254TIP3   OH231320   5.530   1.755   7.260  0.3226  0.6097  0.1527
 3254TIP3    H131321   5.453   1.698   7.255 -0.0640  1.1542 -0.0807
 3254TIP3    H231322   5.600   1.696   7.290 -0.0901  0.0277  0.0046
 3255TIP3   OH231323   4.245   4.918   8.023 -0.4663 -0.6945 -0.1490
 3255TIP3    H131324   4.236   4.918   8.118  0.2449  0.8620 -0.0521
 3255TIP3    H231325   4.156   4.911   7.989 -0.7384 -1.0127  0.6182
 3256TIP3   OH231326   0.708   3.311   0.969  0.2392  0.6893 -0.0153
 3256TIP3    H131327   0.716   3.215   0.976  1.2120  0.5233 -2.3378
 3256TIP3    H231328   0.614   3.327   0.977 -0.1546 -0.6896 -1.2867
 3257TIP3   OH231329   2.383   2.697   8.116  0.1518 -0.1574 -0.4594
 3257TIP3    H131330   2.409   2.716   8.026 -1.7418  0.8802 -0.8412
 3257TIP3    H231331   2.337   2.776   8.144  0.4432 -0.5811  1.3363
 3258TIP3   OH231332   3.528   2.694   2.181 -0.2357  0.1712 -0.5001
 3258TIP3    H131333   3.476   2.629   2.228  1.3659  0.1177  1.3243
 3258TIP3    H231334   3.464   2.746   2.132 -1.6567 -2.0480 -1.1499
 3259TIP3   OH231335   5.771   6.608   7.358 -0.1310  0.3702 -0.0781
 3259TIP3    H131336   5.825   6.658   7.419  0.3400 -0.6353  0.3388
 3259TIP3    H231337   5.813   6.522   7.353  0.8545  0.8986 -3.0958
 3260TIP3   OH231338   1.084   4.315   7.194  0.1559 -0.2412 -0.1451
 3260TIP3    H131339   1.052   4.402   7.172 -1.4809 -0.0285  2.6788
 3260TIP3    H231340   1.179   4.326   7.200  0.0411  1.1772 -0.5237
 3261TIP3   OH231341   2.095   1.491   8.319 -0.2369 -0.2224  0.4217
 3261TIP3    H131342   2.065   1.492   8.410 -1.0668 -1.3769  0.1786
 3261TIP3    H231343   2.181   1.450   8.322 -0.4356 -0.6198  0.6341
 3262TIP3   OH231344   4.328   2.601   7.457 -0.2922 -0.4023  0.4375
 3262TIP3    H131345   4.331   2.695   7.441  0.6290 -0.6657 -1.2098
 3262TIP3    H231346   4.265   2.567   7.393  0.9324 -1.1221 -0.4280
 3263TIP3   OH231347   3.975   4.854   7.918 -0.3091  0.3900 -0.5545
 3263TIP3    H131348   3.995   4.800   7.841  0.6237 -0.9522  0.5685
 3263TIP3    H231349   3.956   4.790   7.987  1.3192  1.4444  0.9608
 3264TIP3   OH231350   0.366   0.760   7.528 -0.2093  0.9610 -0.2732
 3264TIP3    H131351   0.430   0.808   7.476 -0.4488  0.3450 -1.1635
 3264TIP3    H231352   0.295   0.740   7.466  0.2714 -1.2750 -0.1946
 3265TIP3   OH231353   4.464   4.356   8.510  0.8212  0.2380 -0.1116
 3265TIP3    H131354   4.431   4.390   8.593  1.5783  0.8228 -0.0333
 3265TIP3    H231355   4.471   4.262   8.522  2.4763  0.4718  1.0785
 3266TIP3   OH231356   6.557   3.130   7.337  0.4210 -0.4490  0.0404
 3266TIP3    H131357   6.544   3.073   7.413 -0.9622 -0.2195  0.0093
 3266TIP3    H231358   6.529   3.076   7.263 -1.3322  0.3561  0.0534
 3267TIP3   OH231359   0.616   5.503   6.644 -0.0760  0.3733  0.6022
 3267TIP3    H131360   0.538   5.543   6.606  0.0428  1.9542  1.8720
 3267TIP3    H231361   0.626   5.420   6.598 -1.0057  1.3066 -1.3983
 3268TIP3   OH231362   4.252   3.969   7.367  0.1850  0.7552  0.4903
 3268TIP3    H131363   4.197   4.038   7.404 -1.7350 -1.2016  1.5548
 3268TIP3    H231364   4.313   3.947   7.438 -0.5918 -0.0103  0.9447
 3269TIP3   OH231365   2.491   5.242   8.195 -0.0282  0.0434 -0.5666
 3269TIP3    H131366   2.480   5.335   8.212 -1.0699  0.0408 -1.1442
 3269TIP3    H231367   2.568   5.236   8.138  1.5926  0.3070  1.4777
 3270TIP3   OH231368   1.846   5.235   8.394 -0.3328 -0.1605  0.1041
 3270TIP3    H131369   1.841   5.192   8.480 -0.2566 -0.8544 -0.2263
 3270TIP3    H231370   1.754   5.249   8.370 -0.3549  0.0192  0.2894
 3271TIP3   OH231371   4.550   5.786   7.502  0.5531  0.6244  0.5845
 3271TIP3    H131372   4.609   5.753   7.570  0.4378  0.1029  0.4400
 3271TIP3    H231373   4.562   5.725   7.429 -0.1892  0.4848  0.5658
 3272TIP3   OH231374   1.151   1.033   7.497  0.1033  0.0561 -0.2048
 3272TIP3    H131375   1.162   1.127   7.483  1.0979 -0.1679 -1.1251
 3272TIP3    H231376   1.083   1.007   7.435  1.2251 -0.1441 -1.3914
 3273TIP3   OH231377   6.582   1.373   8.042 -0.2625  0.1808  0.4356
 3273TIP3    H131378   6.517   1.319   7.998  0.6605  0.5872 -1.5526
 3273TIP3    H231379   6.633   1.312   8.095 -0.7025 -0.5238  0.0587
 3274TIP3   OH231380   5.616   4.812   0.802 -0.3416  0.0824  0.1616
 3274TIP3    H131381   5.532   4.847   0.831 -0.3365 -0.6566  1.0994
 3274TIP3    H231382   5.616   4.721   0.831  0.0507 -0.4404 -1.3962
 3275TIP3   OH231383   4.856   2.083   8.591  0.3147  0.4243 -0.3017
 3275TIP3    H131384   4.790   2.016   8.603  0.6618  0.2704  0.8459
 3275TIP3    H231385   4.849   2.138   8.669  0.7525  1.0984 -0.7244
 3276TIP3   OH231386   2.153   6.729   0.616 -0.0617 -0.2510 -0.2948
 3276TIP3    H131387   2.238   6.734   0.571 -1.0757 -1.0483 -2.4914
 3276TIP3    H231388   2.098   6.792   0.570 -0.3317  1.3948  2.1024
 3277TIP3   OH231389   3.882   4.311   7.868  0.1454 -0.5346  0.6802
 3277TIP3    H131390   3.950   4.378   7.862  0.8965 -1.2473  0.9968
 3277TIP3    H231391   3.890   4.262   7.786 -1.5310  0.7805 -0.3231
 3278TIP3   OH231392   3.738   2.839   1.850 -0.8828  0.6013  0.5254
 3278TIP3    H131393   3.668   2.881   1.801  0.8228  3.8980  0.6113
 3278TIP3    H231394   3.809   2.903   1.851  2.4702 -2.7367 -0.1115
 3279TIP3   OH231395   4.120   3.306   1.003 -0.3036  0.4494 -0.3839
 3279TIP3    H131396   4.032   3.317   1.039  0.1414 -0.4913  1.0845
 3279TIP3    H231397   4.106   3.287   0.910 -1.6511  0.3785 -0.1858
 3280TIP3   OH231398   1.134   1.083   6.174  0.3636  0.4333  0.2719
 3280TIP3    H131399   1.175   0.998   6.190 -0.4165 -0.4147 -1.9325
 3280TIP3    H231400   1.206   1.145   6.178  0.9937 -0.3397  1.6199
 3281TIP3   OH231401   5.903   2.071   0.535  0.2555 -0.3522 -0.3950
 3281TIP3    H131402   5.934   2.104   0.450  0.6071 -1.5415 -0.7462
 3281TIP3    H231403   5.921   1.977   0.532  1.2256 -0.2656  1.4091
 3282TIP3   OH231404   4.600   5.744   8.292 -0.0511  0.1083  0.4349
 3282TIP3    H131405   4.601   5.825   8.240  0.8289 -1.6162 -2.4879
 3282TIP3    H231406   4.679   5.750   8.346  0.6060  0.7493 -0.5522
 3283TIP3   OH231407   6.709   2.024   6.578 -0.4003 -0.3772 -0.0838
 3283TIP3    H131408   6.642   2.048   6.643 -0.3916  0.7044 -0.4453
 3283TIP3    H231409   6.660   2.016   6.496 -0.2440 -0.6290 -0.1511
 3284TIP3   OH231410   1.816   1.001   2.126  0.7712 -0.3449 -0.1645
 3284TIP3    H131411   1.734   1.042   2.153  0.6629  0.3573 -1.4856
 3284TIP3    H231412   1.795   0.909   2.113 -0.0283 -0.0182 -1.3157
 3285TIP3   OH231413   3.357   0.597   1.979 -0.0779 -0.1432  0.2842
 3285TIP3    H131414   3.359   0.550   1.896 -1.7099 -0.0374  0.1409
 3285TIP3    H231415   3.387   0.686   1.957 -0.5247 -0.1099 -0.2057
 3286TIP3   OH231416   2.877   4.253   0.511 -0.0472  0.0309  0.2206
 3286TIP3    H131417   2.786   4.261   0.482  0.3284  1.1058 -0.7547
 3286TIP3    H231418   2.884   4.314   0.584 -0.0595  0.1196  0.1489
 3287TIP3   OH231419   5.138   3.538   1.711  0.3638 -0.2112  0.1916
 3287TIP3    H131420   5.140   3.460   1.766  0.4059  0.7805  1.6557
 3287TIP3    H231421   5.127   3.611   1.773 -1.5908  0.8105 -1.2615
 3288TIP3   OH231422   5.201   1.642   6.225  0.1620 -0.6246 -0.6617
 3288TIP3    H131423   5.189   1.574   6.159  0.2993 -0.1948 -1.1398
 3288TIP3    H231424   5.140   1.711   6.199 -2.1962 -1.7246  1.4636
 3289TIP3   OH231425   6.855   2.392   6.934  0.0498  0.0517 -0.3633
 3289TIP3    H131426   6.825   2.302   6.946 -1.2754  0.4753 -0.4082
 3289TIP3    H231427   6.790   2.432   6.876  0.0570  1.3377  0.4889
 3290TIP3   OH231428   6.122   1.163   1.932  0.3159 -0.1687  0.0867
 3290TIP3    H131429   6.073   1.244   1.919 -0.0735 -0.4452 -0.1703
 3290TIP3    H231430   6.194   1.188   1.990  0.7608  0.5752 -0.7599
 3291TIP3   OH231431   1.392   0.222   0.893 -0.2471 -0.1582 -0.7558
 3291TIP3    H131432   1.438   0.298   0.856  0.8669 -0.7196 -0.5799
 3291TIP3    H231433   1.299   0.245   0.889  0.0790  1.2778 -0.5592
 3292TIP3   OH231434   5.189   6.328   8.314  0.1617 -0.3253  0.0155
 3292TIP3    H131435   5.144   6.359   8.235 -1.0387  0.5517  1.0144
 3292TIP3    H231436   5.124   6.277   8.360  0.9671 -1.1214  0.3000
 3293TIP3   OH231437   5.979   2.433   7.922  0.6102 -0.3485  0.2798
 3293TIP3    H131438   6.051   2.492   7.943  1.5563 -1.7826  1.2437
 3293TIP3    H231439   5.981   2.366   7.990 -0.6781 -1.2799 -0.5256
 3294TIP3   OH231440   3.627   1.552   6.893  0.8600 -0.1558  0.2841
 3294TIP3    H131441   3.641   1.486   6.825  0.8205 -1.0154  1.0967
 3294TIP3    H231442   3.645   1.635   6.849 -0.0272 -0.6218 -1.0146
 3295TIP3   OH231443   1.653   0.093   0.952  0.5502  0.0931 -0.4211
 3295TIP3    H131444   1.706   0.171   0.968  1.1562 -0.5156  0.6811
 3295TIP3    H231445   1.567   0.128   0.928  0.6345  1.1228  0.6359
 3296TIP3   OH231446   0.723   3.934   8.552  0.4444  0.1899 -0.5413
 3296TIP3    H131447   0.748   3.981   8.631 -0.5238 -0.5335  0.2235
 3296TIP3    H231448   0.659   3.992   8.510  1.9841  1.2222 -1.5717
 3297TIP3   OH231449   3.664   4.390   7.493 -0.2391 -0.0557 -0.4428
 3297TIP3    H131450   3.667   4.310   7.440  0.0516  0.1475 -0.7359
 3297TIP3    H231451   3.755   4.406   7.517 -0.3616 -0.1049  0.0599
 3298TIP3   OH231452   3.097   2.851   8.087  0.0684 -0.1196  0.1713
 3298TIP3    H131453   3.155   2.890   8.152 -1.2566 -1.1573  2.0843
 3298TIP3    H231454   3.101   2.757   8.105 -2.5355 -0.1873  0.7073
 3299TIP3   OH231455   3.314   6.706   6.559  0.8004  0.2490 -0.3026
 3299TIP3    H131456   3.348   6.792   6.584 -1.8396  1.5327 -0.6692
 3299TIP3    H231457   3.283   6.667   6.641  0.2094  0.5450 -0.3783
 3300TIP3   OH231458   4.157   1.253   1.441  0.3938 -0.2163  0.0688
 3300TIP3    H131459   4.141   1.347   1.445  0.1385 -0.2880  0.9091
 3300TIP3    H231460   4.241   1.244   1.397  0.9529  0.4634  0.9879
 3301TIP3   OH231461   0.613   0.441   0.719 -0.5045 -0.5711 -0.3824
 3301TIP3    H131462   0.668   0.519   0.731 -1.1302 -0.4030  1.6534
 3301TIP3    H231463   0.636   0.384   0.791 -1.5276 -1.4072 -0.6964
 3302TIP3   OH231464   6.273   2.771   7.714 -0.3169  0.3653  0.0932
 3302TIP3    H131465   6.354   2.760   7.664 -0.5979  0.0603 -0.3060
 3302TIP3    H231466   6.231   2.685   7.710  0.4068 -0.1378  2.2233
 3303TIP3   OH231467   5.180   1.468   7.812  0.3127 -0.0249 -0.0542
 3303TIP3    H131468   5.115   1.405   7.782  2.3347 -1.1126 -2.5712
 3303TIP3    H231469   5.257   1.416   7.834  1.9197  1.4085 -1.8369
 3304TIP3   OH231470   2.744   0.975   8.002 -0.5674 -0.1889 -0.2303
 3304TIP3    H131471   2.786   1.036   8.064 -0.2847 -0.2009 -0.4095
 3304TIP3    H231472   2.669   1.024   7.967 -0.6800 -0.1515  0.0557
 3305TIP3   OH231473   0.795   5.723   2.116  0.6573 -0.0052 -0.4685
 3305TIP3    H131474   0.731   5.669   2.070  1.4116 -0.2748 -1.2285
 3305TIP3    H231475   0.816   5.793   2.053  0.7982  0.3132 -0.0700
 3306TIP3   OH231476   0.869   5.416   7.120 -0.0836  0.2225  0.2093
 3306TIP3    H131477   0.793   5.396   7.064  0.0882 -1.8970  0.6613
 3306TIP3    H231478   0.887   5.509   7.103 -2.3052  0.5894 -0.4678
 3307TIP3   OH231479   6.164   2.151   7.927  0.4035  0.0206  0.0933
 3307TIP3    H131480   6.155   2.208   7.850  2.8138  0.6282  0.1493
 3307TIP3    H231481   6.075   2.130   7.953 -0.5177  1.7559 -1.4434
 3308TIP3   OH231482   4.421   1.252   8.377 -0.4751  0.4320 -0.0025
 3308TIP3    H131483   4.462   1.332   8.346  1.5119 -0.2168  0.7549
 3308TIP3    H231484   4.378   1.276   8.459 -0.0419  0.7655  0.1269
 3309TIP3   OH231485   0.609   0.896   0.556  0.1876  0.2415  0.2419
 3309TIP3    H131486   0.611   0.814   0.506  1.4803  0.3557  0.0811
 3309TIP3    H231487   0.579   0.962   0.493  1.5459  0.3345 -0.3474
 3310TIP3   OH231488   3.340   4.546   2.459 -0.1093  0.8666 -0.0353
 3310TIP3    H131489   3.416   4.536   2.517 -0.1305  1.6554  0.1516
 3310TIP3    H231490   3.363   4.500   2.379 -0.0719 -0.2302  0.5977
 3311TIP3   OH231491   4.526   1.002   7.928 -0.1289  0.2597 -0.0693
 3311TIP3    H131492   4.575   0.948   7.990  0.9735 -1.7194 -2.4862
 3311TIP3    H231493   4.523   1.088   7.969  1.0204 -0.7791  2.4379
 3312TIP3   OH231494   6.691   4.599   7.356 -0.1852  0.0111 -0.1721
 3312TIP3    H131495   6.651   4.679   7.388 -1.9993 -0.1086 -1.9251
 3312TIP3    H231496   6.750   4.627   7.286 -1.2677 -0.1480 -1.1987
 3313TIP3   OH231497   3.651   1.405   6.660 -0.1881 -0.0117  0.1202
 3313TIP3    H131498   3.635   1.488   6.615  1.0329  0.8401  1.1682
 3313TIP3    H231499   3.698   1.352   6.596  2.1076  1.4167  0.5247
 3314TIP3   OH231500   5.774   0.718   8.097 -0.4069  0.4838 -0.9413
 3314TIP3    H131501   5.741   0.686   8.182 -1.0868  0.8540 -1.0557
 3314TIP3    H231502   5.769   0.642   8.040 -0.3868  0.3476 -0.7623
 3315TIP3   OH231503   0.833   6.595   1.369  0.1513 -0.4501 -0.1637
 3315TIP3    H131504   0.782   6.556   1.298  1.8002 -3.5540  0.1488
 3315TIP3    H231505   0.914   6.625   1.327 -0.5143  1.4705 -0.1579
 3316TIP3   OH231506   5.727   2.013   1.029  0.0278 -0.4464 -0.7290
 3316TIP3    H131507   5.637   2.014   1.063  0.3893  0.0090  0.2435
 3316TIP3    H231508   5.755   1.921   1.037  0.2405 -0.2809  0.5948
 3317TIP3   OH231509   2.179   5.395   2.095 -0.0999  0.4423 -0.5711
 3317TIP3    H131510   2.185   5.484   2.131 -2.9646  0.4316  0.1588
 3317TIP3    H231511   2.173   5.339   2.172 -1.0668 -0.0946 -1.0228
 3318TIP3   OH231512   1.998   5.639   8.544 -0.0536 -0.4653 -0.0107
 3318TIP3    H131513   1.957   5.604   8.624  0.1296  1.2042  0.8500
 3318TIP3    H231514   1.931   5.695   8.506  0.6762  0.6096  0.2622
 3319TIP3   OH231515   3.287   0.293   1.512  0.3278  0.5879  0.1371
 3319TIP3    H131516   3.325   0.216   1.470  0.8192 -0.0383  1.6527
 3319TIP3    H231517   3.330   0.297   1.597 -1.6419  0.9510  1.1711
 3320TIP3   OH231518   6.211   2.241   6.691 -0.8526 -0.0246 -0.0664
 3320TIP3    H131519   6.236   2.175   6.626 -1.0309 -0.0064 -0.1547
 3320TIP3    H231520   6.216   2.195   6.775  0.0634  0.1438 -0.0189
 3321TIP3   OH231521   6.237   5.705   0.108 -0.3038 -0.0693 -0.3004
 3321TIP3    H131522   6.284   5.673   0.031  0.8269 -0.8908  0.6846
 3321TIP3    H231523   6.146   5.678   0.093  0.2645 -2.1143 -0.4265
 3322TIP3   OH231524   1.704   5.769   0.011  0.2183 -0.0030 -0.3331
 3322TIP3    H131525   1.618   5.737   0.038  0.4743  0.1315  0.6733
 3322TIP3    H231526   1.767   5.710   0.053  0.6841  1.4488  1.1571
 3323TIP3   OH231527   5.038   5.282   8.287 -0.3962  0.1739 -0.5586
 3323TIP3    H131528   4.972   5.283   8.356  0.1870 -2.7749  0.1566
 3323TIP3    H231529   5.091   5.360   8.304 -1.2321  0.3822  1.3621
 3324TIP3   OH231530   4.975   2.232   8.234  0.3432 -0.0800 -0.8493
 3324TIP3    H131531   4.994   2.162   8.171 -0.2715  0.5959 -1.8026
 3324TIP3    H231532   5.041   2.220   8.303  1.0897 -0.7735 -1.6548
 3325TIP3   OH231533   2.429   5.404   1.459  0.3978 -0.0783  0.4729
 3325TIP3    H131534   2.420   5.316   1.423 -0.4899 -0.2006  0.9798
 3325TIP3    H231535   2.424   5.462   1.382  0.1904 -0.4247  0.2255
 3326TIP3   OH231536   2.138   5.791   6.528  0.6038 -0.2819 -0.3474
 3326TIP3    H131537   2.208   5.742   6.486  1.5158  1.5700 -1.0929
 3326TIP3    H231538   2.090   5.726   6.579  2.4418 -1.7135 -0.3672
 3327TIP3   OH231539   1.604   6.630   8.502  0.4415 -0.2897 -0.3006
 3327TIP3    H131540   1.670   6.562   8.514 -0.2668 -0.8209  0.6856
 3327TIP3    H231541   1.521   6.582   8.498 -0.1074  0.5409  0.7895
 3328TIP3   OH231542   0.908   0.628   7.288 -0.3120 -0.3013 -0.2505
 3328TIP3    H131543   0.928   0.535   7.277 -1.9674 -0.6300 -0.6778
 3328TIP3    H231544   0.891   0.660   7.200  2.3452  0.9739 -0.3929
 3329TIP3   OH231545   5.782   1.094   1.261 -0.3534  0.1134 -0.0924
 3329TIP3    H131546   5.867   1.082   1.219 -0.3786  0.9183 -0.3977
 3329TIP3    H231547   5.800   1.146   1.339 -0.7792  2.0779 -1.2195
 3330TIP3   OH231548   1.835   3.249   0.260 -0.3096 -0.4731  0.7113
 3330TIP3    H131549   1.808   3.320   0.201  2.2520  0.7323  0.8212
 3330TIP3    H231550   1.779   3.176   0.237 -1.0544  0.6958 -1.5275
 3331TIP3   OH231551   5.862   2.430   1.449 -0.5083 -0.2832 -0.1414
 3331TIP3    H131552   5.812   2.488   1.507 -0.0103  1.4495 -1.3478
 3331TIP3    H231553   5.795   2.375   1.408 -1.1622  0.2947  0.1180
 3332TIP3   OH231554   5.100   5.152   7.411 -0.1813 -0.2592 -0.3054
 3332TIP3    H131555   5.012   5.114   7.409 -0.4817  0.4055  0.0418
 3332TIP3    H231556   5.145   5.111   7.337 -0.5936 -1.0496 -0.1297
 3333TIP3   OH231557   4.622   1.432   1.796 -0.3632  0.0368  0.1279
 3333TIP3    H131558   4.590   1.472   1.715 -3.4749  0.3984  1.3857
 3333TIP3    H231559   4.649   1.506   1.851 -3.4413  0.4390  1.3608
 3334TIP3   OH231560   3.817   2.031   2.149 -0.0121 -0.1980 -0.0047
 3334TIP3    H131561   3.764   1.985   2.083 -1.6473 -1.4650  2.0673
 3334TIP3    H231562   3.842   1.963   2.211  2.4228  0.7660  0.1853
 3335TIP3   OH231563   5.633   1.157   7.027  0.2251  0.0227 -0.8599
 3335TIP3    H131564   5.569   1.208   7.078 -0.1626 -0.7788 -0.5251
 3335TIP3    H231565   5.609   1.174   6.936 -0.0128  0.2985 -0.7502
 3336TIP3   OH231566   6.748   1.292   7.345  0.1482  0.0233  0.4788
 3336TIP3    H131567   6.814   1.290   7.276 -0.1004  0.3360  0.2283
 3336TIP3    H231568   6.742   1.202   7.376  0.0095 -0.1913 -0.1545
 3337TIP3   OH231569   5.732   6.624   1.575 -0.1329  0.2647 -0.1439
 3337TIP3    H131570   5.713   6.665   1.659 -0.6696  1.1923 -0.7025
 3337TIP3    H231571   5.826   6.636   1.563  0.0541 -0.4025  0.5877
 3338TIP3   OH231572   3.707   6.470   8.379 -0.2069  0.0677  0.0628
 3338TIP3    H131573   3.751   6.555   8.385 -0.6971  0.3503 -0.2800
 3338TIP3    H231574   3.746   6.418   8.450  1.9163 -0.2667 -1.2759
 3339TIP3   OH231575   2.156   6.677   0.928 -0.0577 -0.2561  0.1102
 3339TIP3    H131576   2.164   6.736   0.853  1.0183 -1.0683 -0.4448
 3339TIP3    H231577   2.228   6.701   0.986 -0.8089  0.2836  0.8390
 3340TIP3   OH231578   1.135   2.702   8.036  0.5188 -0.0157  0.3249
 3340TIP3    H131579   1.159   2.691   7.944 -1.0453  1.3350 -0.2833
 3340TIP3    H231580   1.186   2.777   8.066 -2.7430  2.9791 -1.0213
 3341TIP3   OH231581   4.081   5.221   0.332  0.1978  0.0387 -0.0645
 3341TIP3    H131582   4.162   5.272   0.339 -0.0958  0.5028  0.0191
 3341TIP3    H231583   4.028   5.250   0.406  0.0274 -0.4014 -0.0084
 3342TIP3   OH231584   0.033   2.444   0.655 -0.2746  0.1049 -0.2241
 3342TIP3    H131585  -0.018   2.364   0.638 -0.9165  0.5115 -0.2310
 3342TIP3    H231586   0.121   2.412   0.677 -0.1751 -0.5489 -1.5077
 3343TIP3   OH231587   5.448   3.541   6.872  0.0642  0.3267  0.3236
 3343TIP3    H131588   5.436   3.464   6.817  1.5362 -0.2224  0.7335
 3343TIP3    H231589   5.401   3.520   6.953  0.1727  0.0011  0.3020
 3344TIP3   OH231590   2.321   5.754   8.087 -0.5879 -0.5261 -0.3016
 3344TIP3    H131591   2.265   5.677   8.095 -0.9093 -0.5349 -2.1232
 3344TIP3    H231592   2.351   5.752   7.996 -1.1297  1.8214 -0.5993
 3345TIP3   OH231593   2.184   1.748   7.977 -0.1466 -0.1405  0.5377
 3345TIP3    H131594   2.196   1.843   7.982 -0.9264  0.0898 -1.1351
 3345TIP3    H231595   2.220   1.715   8.059 -0.1127  1.6221  1.2866
 3346TIP3   OH231596   0.773   6.294   0.986  0.0727  0.5721  0.2132
 3346TIP3    H131597   0.767   6.216   1.041 -0.1804  1.0094  0.8227
 3346TIP3    H231598   0.744   6.266   0.900 -0.0843  0.0093  0.4475
 3347TIP3   OH231599   0.915   6.727   6.377  0.1455  0.7696  0.7298
 3347TIP3    H131600   0.856   6.657   6.350  1.8208 -0.3699 -0.2215
 3347TIP3    H231601   0.901   6.797   6.313 -0.9519  0.9904  1.1949
 3348TIP3   OH231602   3.806   0.222   7.247  0.2089 -0.1354  0.3003
 3348TIP3    H131603   3.755   0.151   7.287 -1.3260  1.2078  0.8127
 3348TIP3    H231604   3.825   0.191   7.159 -2.7445 -0.1586 -0.4201
 3349TIP3   OH231605   4.983   4.718   8.503  0.3612 -0.2789 -0.0790
 3349TIP3    H131606   5.014   4.633   8.473 -0.8387 -0.8751  0.3127
 3349TIP3    H231607   4.895   4.726   8.465 -0.7621 -0.5666  2.3016
 3350TIP3   OH231608   6.549   0.600   7.649 -0.6645  0.1517  0.3838
 3350TIP3    H131609   6.478   0.556   7.603 -0.4715  0.5594 -0.3249
 3350TIP3    H231610   6.579   0.537   7.714 -1.9572  0.1381  0.9924
 3351TIP3   OH231611   5.851   6.514   8.408  0.0847 -0.5783 -0.2767
 3351TIP3    H131612   5.891   6.592   8.446  0.5439 -0.6904 -0.5126
 3351TIP3    H231613   5.776   6.495   8.464 -0.4077  0.3953 -0.5865
 3352TIP3   OH231614   3.583   2.568   6.796 -0.3688  0.5979 -0.7627
 3352TIP3    H131615   3.511   2.545   6.737 -0.3217 -0.5386 -0.3902
 3352TIP3    H231616   3.659   2.523   6.761 -0.4647 -0.5984  0.4921
 3353TIP3   OH231617   3.582   2.496   6.377 -0.5032  0.9693  0.2978
 3353TIP3    H131618   3.623   2.566   6.428  1.4201  0.2959 -0.2285
 3353TIP3    H231619   3.655   2.456   6.329 -1.6389 -1.0433  0.1583
 3354TIP3   OH231620   1.261   4.510   1.098 -0.1325  0.0336 -0.1329
 3354TIP3    H131621   1.218   4.426   1.111  0.5947 -0.2734  0.3319
 3354TIP3    H231622   1.201   4.559   1.042 -0.4084 -0.9196 -0.6981
 3355TIP3   OH231623   0.788   2.694   6.268  0.4255 -0.2761  0.1227
 3355TIP3    H131624   0.705   2.702   6.220  0.0348 -0.5385  0.7520
 3355TIP3    H231625   0.846   2.649   6.206  0.0589 -0.2233 -0.2700
 3356TIP3   OH231626   6.619   1.479   0.363  0.5363 -0.0139  0.0302
 3356TIP3    H131627   6.624   1.395   0.318 -2.6182  0.1009 -0.7827
 3356TIP3    H231628   6.574   1.460   0.445 -0.5823  0.8933 -0.3433
 3357TIP3   OH231629   0.515   0.708   0.841 -0.5507 -0.4517 -1.1426
 3357TIP3    H131630   0.479   0.703   0.930 -0.0258  0.3530 -0.8691
 3357TIP3    H231631   0.439   0.713   0.784 -0.9061  0.6406 -0.6117
 3358TIP3   OH231632   1.308   0.192   7.545 -0.2239  0.3724  0.2547
 3358TIP3    H131633   1.340   0.125   7.485 -1.2576  0.1364 -0.0555
 3358TIP3    H231634   1.217   0.207   7.518 -0.3797  1.0218  1.0917
 3359TIP3   OH231635   2.970   6.875   0.923 -0.4243 -0.1423 -0.0868
 3359TIP3    H131636   3.036   6.944   0.936  1.3184 -1.8669  0.7147
 3359TIP3    H231637   2.984   6.845   0.833 -3.0612  2.3008 -1.4736
 3360TIP3   OH231638   2.283   4.952   0.165  0.3242 -0.8991 -0.1157
 3360TIP3    H131639   2.348   5.005   0.210  2.2252 -2.9998 -0.1917
 3360TIP3    H231640   2.315   4.945   0.075 -0.6425 -1.0120 -0.4653
 3361TIP3   OH231641   6.008   5.324   7.263  1.3989  0.1550  0.5473
 3361TIP3    H131642   6.026   5.414   7.237  1.2300  0.3250  1.0188
 3361TIP3    H231643   6.021   5.323   7.358 -1.0537  0.2930  0.9402
 3362TIP3   OH231644   6.542   0.957   7.636 -0.2102 -0.2382 -0.2107
 3362TIP3    H131645   6.586   1.000   7.709 -1.2716 -0.2075  0.4370
 3362TIP3    H231646   6.585   0.872   7.629  0.5317  0.1271 -0.1726
 3363TIP3   OH231647   6.872   4.577   6.746 -0.5430 -0.4511  0.7611
 3363TIP3    H131648   6.901   4.667   6.763  2.0658 -1.1758  0.5091
 3363TIP3    H231649   6.856   4.575   6.652 -1.3147 -0.0839  0.8763
 3364TIP3   OH231650   0.564   2.153   6.607  1.1956  0.3625 -0.0570
 3364TIP3    H131651   0.655   2.160   6.580  0.9716  0.7842 -0.7315
 3364TIP3    H231652   0.514   2.175   6.528  0.5138  0.1619  0.3130
 3365TIP3   OH231653   6.246   2.921   2.089 -0.6072 -0.1434  0.1674
 3365TIP3    H131654   6.198   3.001   2.108 -0.7911 -0.6591  2.0998
 3365TIP3    H231655   6.314   2.917   2.156 -0.5594 -1.5607  0.0684
 3366TIP3   OH231656   1.464   4.575   0.426  0.4115  0.3422  0.2999
 3366TIP3    H131657   1.380   4.596   0.467 -0.9253 -0.6687 -1.7713
 3366TIP3    H231658   1.498   4.504   0.480 -1.3854 -1.0857 -0.3340
 3367TIP3   OH231659   0.362   5.726   0.948 -0.4390 -0.4714  0.0522
 3367TIP3    H131660   0.269   5.735   0.967 -0.1359  0.7679  1.0635
 3367TIP3    H231661   0.377   5.784   0.873  0.2390  2.7535  2.4550
 3368TIP3   OH231662   4.166   6.056   1.880  0.1785  0.1121 -0.0160
 3368TIP3    H131663   4.136   6.134   1.927 -0.5037  0.3386 -0.7818
 3368TIP3    H231664   4.085   6.017   1.846  0.4827 -1.1061  0.6077
 3369TIP3   OH231665   1.666   2.405   6.244  0.5099 -0.1515  0.0454
 3369TIP3    H131666   1.656   2.316   6.210  1.2513 -0.2389  0.0381
 3369TIP3    H231667   1.664   2.394   6.339  0.4465 -0.1600  0.0427
 3370TIP3   OH231668   4.580   4.991   6.764  0.4203  0.1556  0.2389
 3370TIP3    H131669   4.518   4.940   6.816  1.5040 -1.7530 -0.2436
 3370TIP3    H231670   4.568   4.959   6.674  0.0815  1.8781 -0.3709
 3371TIP3   OH231671   3.999   0.563   0.411  0.0322 -0.3846  0.0183
 3371TIP3    H131672   4.045   0.576   0.328 -0.8014  0.5732 -0.3202
 3371TIP3    H231673   3.941   0.489   0.395 -0.9506  0.4990 -0.6475
 3372TIP3   OH231674   3.086   3.139   0.982  0.2454 -0.2819 -0.8686
 3372TIP3    H131675   2.998   3.137   1.018 -0.3993 -0.0374 -2.3353
 3372TIP3    H231676   3.116   3.048   0.988 -0.4978 -0.5647 -1.2292
 3373TIP3   OH231677   3.933   5.218   6.660  0.7092  0.5608  0.2591
 3373TIP3    H131678   3.985   5.299   6.656  1.2106  0.3207  1.6149
 3373TIP3    H231679   3.923   5.193   6.568 -0.3866  2.7151 -0.2891
 3374TIP3   OH231680   6.413   1.482   8.552  0.1809 -0.1148  0.4956
 3374TIP3    H131681   6.322   1.465   8.531  0.8356 -1.4481 -1.5017
 3374TIP3    H231682   6.416   1.576   8.573 -0.9574  1.1393 -3.9359
 3375TIP3   OH231683   3.405   3.109   8.488 -0.2146  0.1584 -0.5134
 3375TIP3    H131684   3.410   3.104   8.392 -1.9834  1.0305 -0.6859
 3375TIP3    H231685   3.417   3.019   8.517 -0.6231 -0.2715 -1.6164
 3376TIP3   OH231686   2.557   3.657   7.892  0.2740  0.0830  0.5047
 3376TIP3    H131687   2.481   3.619   7.849 -0.0403  1.6054 -0.3572
 3376TIP3    H231688   2.577   3.736   7.841  0.6319  1.3141  2.4408
 3377TIP3   OH231689   3.217   4.537   0.864  0.3152 -0.1897 -0.1646
 3377TIP3    H131690   3.285   4.573   0.806  2.8863 -0.8944  2.1998
 3377TIP3    H231691   3.259   4.463   0.907 -1.4377  0.2668  2.5630
 3378TIP3   OH231692   4.915   0.820   1.918  0.0814  0.2712  0.0121
 3378TIP3    H131693   4.982   0.752   1.927  1.3508  1.3596 -0.8131
 3378TIP3    H231694   4.872   0.800   1.835 -0.0564  0.0729  0.1275
 3379TIP3   OH231695   5.703   6.497   0.156  0.4322  0.2495 -0.2556
 3379TIP3    H131696   5.733   6.573   0.106  1.4892  0.2585  0.3666
 3379TIP3    H231697   5.661   6.534   0.234 -0.6815  0.2219 -0.8246
 3380TIP3   OH231698   3.128   3.305   1.789 -0.1628  0.5589  0.0607
 3380TIP3    H131699   3.163   3.393   1.806  0.8096  0.1583  0.1971
 3380TIP3    H231700   3.050   3.300   1.845 -0.5354  1.5172 -0.3457
 3381TIP3   OH231701   0.865   2.829   7.302  0.2107 -0.6094  0.4953
 3381TIP3    H131702   0.902   2.748   7.268 -1.5484 -0.3792 -2.2054
 3381TIP3    H231703   0.939   2.889   7.306  0.8311 -1.1712 -1.4287
 3382TIP3   OH231704   3.565   3.145   7.439 -0.0463  0.7073 -0.4697
 3382TIP3    H131705   3.650   3.104   7.459 -1.2387 -2.0490 -0.6787
 3382TIP3    H231706   3.581   3.195   7.359  1.5403  0.8249 -0.1113
 3383TIP3   OH231707   2.343   6.397   0.091 -0.0666  0.0744  0.0439
 3383TIP3    H131708   2.262   6.410   0.141  0.4896  1.0038  0.7445
 3383TIP3    H231709   2.324   6.434   0.005 -0.5156 -0.0649  0.0820
 3384TIP3   OH231710   1.543   5.124   6.758  0.0905  0.7034 -0.0001
 3384TIP3    H131711   1.468   5.183   6.761  0.4640  1.1730  3.3504
 3384TIP3    H231712   1.617   5.178   6.785  0.4957 -1.0789  2.8776
 3385TIP3   OH231713   6.845   5.401   0.641  0.5240  0.0087  0.2908
 3385TIP3    H131714   6.801   5.470   0.691 -0.6465 -0.3318 -0.2348
 3385TIP3    H231715   6.866   5.333   0.705 -2.5294 -1.2146  0.1322
 3386TIP3   OH231716   5.356   0.468   0.994  0.7785  0.2544  0.6415
 3386TIP3    H131717   5.357   0.474   1.089  1.7377 -0.3662  0.6734
 3386TIP3    H231718   5.304   0.390   0.975  1.5807 -0.3051  0.7021
 3387TIP3   OH231719   0.848   3.936   0.412 -0.4618  0.4056  0.2965
 3387TIP3    H131720   0.763   3.980   0.400  0.0481  1.6531  1.1062
 3387TIP3    H231721   0.903   4.001   0.455  1.7093  0.5236 -2.3613
 3388TIP3   OH231722   6.753   6.825   7.082  0.1948  0.1304 -0.0684
 3388TIP3    H131723   6.722   6.853   6.996  0.7310 -0.0206 -0.3170
 3388TIP3    H231724   6.822   6.888   7.104  0.8492 -0.5018 -0.2716
 3389TIP3   OH231725   0.188   2.691   7.505 -0.5023 -0.0467  1.6172
 3389TIP3    H131726   0.219   2.627   7.441  1.0689  0.5875  1.6740
 3389TIP3    H231727   0.108   2.727   7.467  1.8437  2.3941 -1.5548
 3390TIP3   OH231728   4.543   2.555   8.403  0.2219  0.0848  0.6904
 3390TIP3    H131729   4.542   2.604   8.485 -1.6606  0.8181  0.2758
 3390TIP3    H231730   4.483   2.602   8.345  1.4246 -0.4601 -1.1053
 3391TIP3   OH231731   2.324   0.287   0.549 -0.0886  0.2012  0.0798
 3391TIP3    H131732   2.258   0.316   0.487 -0.7528  0.3747  0.8595
 3391TIP3    H231733   2.275   0.243   0.619  0.7023 -0.6752  0.1181
 3392TIP3   OH231734   5.244   3.493   7.930 -0.3422  0.3207 -0.2596
 3392TIP3    H131735   5.153   3.505   7.903 -0.8746  1.6196  1.8798
 3392TIP3    H231736   5.294   3.543   7.865 -1.0226 -0.9805 -1.8743
 3393TIP3   OH231737   5.848   6.857   6.875  0.4716  0.4389  0.1305
 3393TIP3    H131738   5.782   6.823   6.935  0.1793  0.1285 -0.3561
 3393TIP3    H231739   5.930   6.852   6.924  0.4342 -0.9632  0.1028
 3394TIP3   OH231740   1.736   5.878   6.447  0.4670  0.0171  0.2411
 3394TIP3    H131741   1.756   5.930   6.369  4.2572  1.1127  1.7318
 3394TIP3    H231742   1.647   5.845   6.431  1.2004 -0.3614 -4.7420
 3395TIP3   OH231743   6.594   3.846   6.923 -0.5699 -0.4480 -0.2853
 3395TIP3    H131744   6.593   3.810   6.834 -1.1321 -2.1233  0.3675
 3395TIP3    H231745   6.587   3.770   6.980 -1.6043  0.6829  1.1824
 3396TIP3   OH231746   5.232   6.874   0.356  0.1392 -0.0194  0.5391
 3396TIP3    H131747   5.197   6.941   0.415 -2.8050 -1.4509  0.6131
 3396TIP3    H231748   5.281   6.814   0.413  0.1016  0.3725  0.9868
 3397TIP3   OH231749   4.658   6.709   7.308 -0.1162 -0.5009  0.3634
 3397TIP3    H131750   4.676   6.775   7.374 -2.1740 -0.0565  0.5519
 3397TIP3    H231751   4.691   6.748   7.226 -0.2152  0.2397  0.6655
 3398TIP3   OH231752   3.058   4.249   0.147 -0.0205  0.0171 -0.2158
 3398TIP3    H131753   3.109   4.194   0.087  2.9704  0.0147  2.0661
 3398TIP3    H231754   3.121   4.315   0.177 -2.5818  2.7138 -0.3257
 3399TIP3   OH231755   3.399   2.160   7.358 -0.1106 -0.1034 -0.1838
 3399TIP3    H131756   3.384   2.178   7.265  1.1888 -1.4864 -0.6954
 3399TIP3    H231757   3.486   2.121   7.361 -0.1539 -0.1297  1.6246
 3400TIP3   OH231758   5.495   6.531   2.046  0.7555 -0.6783  0.1170
 3400TIP3    H131759   5.435   6.471   2.002 -0.6004 -0.1201  1.1219
 3400TIP3    H231760   5.439   6.582   2.105  1.9853  0.9830 -0.0822
 3401TIP3   OH231761   2.583   1.458   0.842 -0.2527 -0.2993  0.3959
 3401TIP3    H131762   2.491   1.468   0.867  0.0348 -1.1350  1.9227
 3401TIP3    H231763   2.605   1.369   0.870  0.9743 -0.1690 -0.1172
 3402TIP3   OH231764   3.966   0.956   7.365  0.2089  0.0979 -0.3628
 3402TIP3    H131765   3.977   1.020   7.295  0.5625  1.1230  0.6165
 3402TIP3    H231766   4.039   0.971   7.424 -1.5226  1.1083  1.6509
 3403TIP3   OH231767   4.124   3.122   1.289 -0.6452 -0.3746  0.1421
 3403TIP3    H131768   4.060   3.127   1.219 -1.0603 -0.7067  0.4886
 3403TIP3    H231769   4.099   3.191   1.350 -0.1652  0.0449 -0.1336
 3404TIP3   OH231770   1.680   5.387   7.422 -0.5620 -0.5229  0.2726
 3404TIP3    H131771   1.703   5.294   7.419 -0.0753 -0.3892 -0.4020
 3404TIP3    H231772   1.616   5.398   7.352 -0.2300 -0.2527  0.0058
 3405TIP3   OH231773   4.294   6.286   1.750  0.1341  0.2744  0.9651
 3405TIP3    H131774   4.248   6.232   1.814 -1.6034  0.7258  0.1763
 3405TIP3    H231775   4.286   6.375   1.784 -1.0326  0.5510  0.0417
 3406TIP3   OH231776   3.479   3.329   8.094  0.6370 -0.1251  0.4027
 3406TIP3    H131777   3.408   3.388   8.119 -0.8650 -0.7075 -2.0828
 3406TIP3    H231778   3.455   3.245   8.134  0.2514 -0.1554  0.1215
 3407TIP3   OH231779   4.114   1.520   6.264 -0.1743 -0.3598 -0.1581
 3407TIP3    H131780   4.192   1.571   6.284 -1.2088  0.7396  1.2505
 3407TIP3    H231781   4.124   1.439   6.314  1.1988 -1.3576 -1.9484
 3408TIP3   OH231782   1.554   1.972   7.300  0.0050 -0.0022  0.6562
 3408TIP3    H131783   1.473   1.987   7.250 -0.5634  0.7535  1.7405
 3408TIP3    H231784   1.527   1.916   7.372  0.5091  0.0425  0.8813
 3409TIP3   OH231785   0.775   4.973   1.073  0.1057  0.0478 -0.0054
 3409TIP3    H131786   0.866   4.965   1.101  0.6286  1.5202 -1.2167
 3409TIP3    H231787   0.740   5.046   1.124 -0.5716 -0.7939  0.7909
 3410TIP3   OH231788   2.437   6.721   7.440 -0.3386 -0.1279 -0.2547
 3410TIP3    H131789   2.456   6.742   7.349  0.5713  1.2240  0.2124
 3410TIP3    H231790   2.347   6.690   7.440 -0.3922 -0.0066 -1.5858
 3411TIP3   OH231791   0.567   0.333   7.320 -0.1502  0.1021 -0.2311
 3411TIP3    H131792   0.640   0.326   7.258 -0.4717  2.6636 -1.0046
 3411TIP3    H231793   0.560   0.427   7.338 -2.9703 -0.1068  0.1651
 3412TIP3   OH231794   6.623   2.656   7.190  0.2993  0.3038  0.2686
 3412TIP3    H131795   6.689   2.589   7.207 -0.0153 -0.1719 -0.3785
 3412TIP3    H231796   6.547   2.608   7.158  0.5109  1.0758 -1.4720
 3413TIP3   OH231797   0.413   0.008   0.940 -0.5214  0.2327 -0.4625
 3413TIP3    H131798   0.419  -0.033   1.026 -1.0960  2.1751  0.5647
 3413TIP3    H231799   0.322  -0.002   0.915  0.0823 -2.3506 -1.9786
 3414TIP3   OH231800   2.743   1.612   1.236  0.0994 -0.0566 -0.0985
 3414TIP3    H131801   2.657   1.650   1.214  0.0572 -0.1394 -0.0764
 3414TIP3    H231802   2.796   1.627   1.158  0.5386  1.3860  0.4440
 3415TIP3   OH231803   2.383   3.770   7.196 -0.7080 -0.4710  0.2045
 3415TIP3    H131804   2.375   3.768   7.101 -0.1587  0.9392  0.1015
 3415TIP3    H231805   2.476   3.786   7.212 -0.7489 -0.9867  0.9815
 3416TIP3   OH231806   5.327   2.616   7.567  0.0505 -0.1432 -0.3090
 3416TIP3    H131807   5.376   2.673   7.507  0.2137 -0.7382 -0.7477
 3416TIP3    H231808   5.254   2.583   7.515  2.0297 -3.3490 -1.2873
 3417TIP3   OH231809   2.652   1.765   7.619 -0.0965 -0.3779 -0.2820
 3417TIP3    H131810   2.704   1.809   7.686  0.4749 -1.6142  0.1149
 3417TIP3    H231811   2.586   1.830   7.594  0.7313  0.7067  0.2415
 3418TIP3   OH231812   0.803   5.930   6.891 -0.0854  0.7569  0.6370
 3418TIP3    H131813   0.737   5.861   6.895 -0.0961  0.7240 -0.0362
 3418TIP3    H231814   0.838   5.935   6.980  0.6397 -0.8133  0.4613
 3419TIP3   OH231815   4.586   3.540   0.960  0.8049  0.1532 -0.3956
 3419TIP3    H131816   4.529   3.468   0.985  0.5567  0.3433 -0.4160
 3419TIP3    H231817   4.601   3.527   0.866  1.4784 -0.3766 -0.2237
 3420TIP3   OH231818   5.310   3.039   7.555  0.4201  0.5429 -0.3386
 3420TIP3    H131819   5.261   2.968   7.598  1.9208  0.3090  1.1019
 3420TIP3    H231820   5.247   3.077   7.493 -1.0644 -0.7314  0.2928
 3421TIP3   OH231821   6.416   5.980   8.044 -0.6350  0.3586 -0.0810
 3421TIP3    H131822   6.414   5.939   8.131 -2.8927  1.5826  0.5330
 3421TIP3    H231823   6.419   6.074   8.062  2.9729  0.6565 -1.4349
 3422TIP3   OH231824   1.200   0.016   2.303 -0.2159 -0.5568  1.2684
 3422TIP3    H131825   1.272  -0.041   2.275 -1.6455 -1.4946 -0.7668
 3422TIP3    H231826   1.121  -0.031   2.277 -1.4962  1.6853  0.8967
 3423TIP3   OH231827   1.639   1.748   1.116  0.1536 -0.4992  0.5286
 3423TIP3    H131828   1.587   1.763   1.195  1.1892  1.5851  0.8903
 3423TIP3    H231829   1.646   1.835   1.076  3.1758 -0.6901  0.4089
 3424TIP3   OH231830   2.137   1.202   0.819  0.2226 -0.0899  0.1269
 3424TIP3    H131831   2.096   1.127   0.775  0.5836  1.2017 -2.6257
 3424TIP3    H231832   2.228   1.175   0.833  0.3549 -0.1901 -0.8634
 3425TIP3   OH231833   0.733   1.778   7.515 -0.2420  0.4145  0.5265
 3425TIP3    H131834   0.680   1.733   7.450  1.4724 -0.0003 -0.6560
 3425TIP3    H231835   0.802   1.716   7.536  0.4148  1.3417  1.1829
 3426TIP3   OH231836   1.751   2.625   6.688  0.4324 -0.6336  0.1697
 3426TIP3    H131837   1.806   2.664   6.620 -0.0875 -2.3708 -1.3585
 3426TIP3    H231838   1.812   2.604   6.759  1.5392 -1.3151 -0.9349
 3427TIP3   OH231839   5.467   5.935   0.719 -0.0064 -0.0233 -0.2070
 3427TIP3    H131840   5.445   5.978   0.637 -0.1894  0.2349 -0.0251
 3427TIP3    H231841   5.512   6.002   0.770 -2.8254  0.9383  1.2434
 3428TIP3   OH231842   4.560   6.112   0.135  0.3179 -0.3335  0.5945
 3428TIP3    H131843   4.475   6.138   0.099 -0.1910 -0.3785  1.6988
 3428TIP3    H231844   4.624   6.143   0.072 -0.6022 -2.0264 -1.2864
 3429TIP3   OH231845   0.519   1.573   2.359 -0.1824 -0.2445  0.5097
 3429TIP3    H131846   0.488   1.653   2.318  1.3391  0.2190  0.2202
 3429TIP3    H231847   0.500   1.504   2.296  0.5670  0.2243 -0.2421
 3430TIP3   OH231848   5.573   2.265   2.346  0.6802  0.3290  0.5227
 3430TIP3    H131849   5.605   2.212   2.273 -0.4204 -0.7280  0.7827
 3430TIP3    H231850   5.653   2.304   2.384  1.3981 -0.2695 -0.3405
 3431TIP3   OH231851   2.235   1.974   8.677  0.1717 -0.0476 -0.3820
 3431TIP3    H131852   2.144   1.997   8.697  0.0890 -0.7878  0.1614
 3431TIP3    H231853   2.272   2.052   8.637  0.0119  1.1124  1.6419
 3432TIP3   OH231854   6.053   5.552   6.862 -0.2637  0.4122  0.0598
 3432TIP3    H131855   6.036   5.591   6.776 -1.3152  0.7171  0.3878
 3432TIP3    H231856   6.122   5.488   6.846 -0.2104  0.7000 -0.9497
 3433TIP3   OH231857   6.754   3.681   1.325  0.0090  0.0976 -0.6879
 3433TIP3    H131858   6.806   3.601   1.317  0.8615  0.6485 -0.7021
 3433TIP3    H231859   6.762   3.724   1.240  0.3822  0.6881 -0.3604
 3434TIP3   OH231860   6.581   6.650   1.203  0.4465 -0.0519 -0.5501
 3434TIP3    H131861   6.523   6.596   1.256  1.3751 -0.2155  0.3151
 3434TIP3    H231862   6.560   6.625   1.113  0.2104 -1.1705 -0.2008
 3435TIP3   OH231863   6.253   2.500   5.927  0.5056 -0.3688 -0.1528
 3435TIP3    H131864   6.275   2.425   5.982 -0.4460 -0.3415  0.2735
 3435TIP3    H231865   6.158   2.508   5.932  0.4693  0.1301 -1.1603
 3436TIP3   OH231866   1.707   6.058   1.303  0.1139  0.7613 -0.3376
 3436TIP3    H131867   1.757   6.114   1.245 -1.6143  0.1015 -2.6195
 3436TIP3    H231868   1.646   6.011   1.245 -0.3151 -1.5070  1.7562
 3437TIP3   OH231869   3.704   4.085   7.411 -0.5890  0.1038  0.8790
 3437TIP3    H131870   3.710   4.007   7.355 -3.0650  1.0000 -0.7792
 3437TIP3    H231871   3.633   4.066   7.472 -0.0676  0.4491  1.6176
 3438TIP3   OH231872   6.802   4.957   7.028  0.1398  0.5730  0.6889
 3438TIP3    H131873   6.830   5.045   7.055  2.2732  0.3014 -0.3830
 3438TIP3    H231874   6.708   4.966   7.011  0.5571  3.1017 -0.9081
 3439TIP3   OH231875   4.840   3.408   6.808 -0.1398 -0.9798 -0.4662
 3439TIP3    H131876   4.828   3.317   6.785  2.6857 -1.3596 -0.7947
 3439TIP3    H231877   4.934   3.423   6.799 -0.4797  1.9042 -0.1900
 3440TIP3   OH231878   1.761   6.815   0.381  0.6841  0.0139  0.5178
 3440TIP3    H131879   1.840   6.782   0.338  0.6394 -0.4624  0.7906
 3440TIP3    H231880   1.788   6.897   0.422  0.1471  1.8080 -2.4377
 3441TIP3   OH231881   6.104   5.304   8.408  0.6853 -0.9999  0.6483
 3441TIP3    H131882   6.192   5.268   8.409  0.7804 -0.7633  1.2963
 3441TIP3    H231883   6.047   5.227   8.414  0.8830 -1.0786  1.6891
 3442TIP3   OH231884   6.630   1.483   7.171  0.0197  0.0999 -0.1988
 3442TIP3    H131885   6.689   1.465   7.244 -1.2049 -0.5507  0.6561
 3442TIP3    H231886   6.627   1.402   7.121 -0.3400  0.0440 -0.0930
 3443TIP3   OH231887   2.228   2.710   1.828 -0.5316  0.3248 -0.4763
 3443TIP3    H131888   2.218   2.804   1.811 -0.4276  0.6044  0.8932
 3443TIP3    H231889   2.283   2.679   1.756  1.1181  1.7098  0.1235
 3444TIP3   OH231890   3.278   5.513   0.486 -0.0427 -0.1395  0.0846
 3444TIP3    H131891   3.281   5.547   0.575  1.6046  2.2959 -0.8191
 3444TIP3    H231892   3.345   5.444   0.485 -0.3455 -0.4565  0.8063
 3445TIP3   OH231893   4.813   2.376   6.796  0.5125 -0.1056 -0.2439
 3445TIP3    H131894   4.764   2.378   6.714  0.3063  1.4105 -0.1203
 3445TIP3    H231895   4.749   2.399   6.863  0.6859 -1.3031  0.3539
 3446TIP3   OH231896   4.212   5.520   8.261  0.1961 -0.1742  0.4381
 3446TIP3    H131897   4.252   5.599   8.297  0.4069 -0.6141  1.1953
 3446TIP3    H231898   4.247   5.449   8.315 -0.0292 -0.7776 -0.2020
 3447TIP3   OH231899   6.052   4.904   6.473 -0.1010 -0.1340 -0.8432
 3447TIP3    H131900   6.117   4.950   6.420 -0.1816 -0.2422 -1.0383
 3447TIP3    H231901   6.019   4.835   6.415  1.8388 -2.0917  0.2361
 3448TIP3   OH231902   1.676   1.978   0.974 -0.0876  0.5068  0.0975
 3448TIP3    H131903   1.619   1.993   0.899  0.3297  1.6316 -0.0160
 3448TIP3    H231904   1.765   1.989   0.940  0.1712 -0.4251  0.4447
 3449TIP3   OH231905   2.435   3.748   8.490  0.3402  0.2433 -0.2789
 3449TIP3    H131906   2.499   3.813   8.520 -0.6882  0.6913  1.0652
 3449TIP3    H231907   2.415   3.773   8.400  0.2348  1.5749  0.0963
 3450TIP3   OH231908   0.998   5.597   7.958  0.0531 -0.4338  0.3756
 3450TIP3    H131909   1.074   5.638   8.000 -0.2877  0.1573  0.4180
 3450TIP3    H231910   1.029   5.574   7.870 -0.3135  1.7680 -0.4041
 3451TIP3   OH231911   3.152   0.161   7.885 -0.3555 -0.1177 -0.2525
 3451TIP3    H131912   3.247   0.168   7.884 -0.4349  4.4946  1.0034
 3451TIP3    H231913   3.129   0.130   7.797  2.2594 -0.6791 -0.8012
 3452TIP3   OH231914   0.434   3.623   7.596 -0.3942 -0.2783  1.0435
 3452TIP3    H131915   0.444   3.641   7.503  1.0691  2.2152  1.5996
 3452TIP3    H231916   0.414   3.529   7.600 -2.4866 -0.1059 -1.8392
 3453TIP3   OH231917   3.616   3.920   2.063 -0.4006 -0.7150  0.7463
 3453TIP3    H131918   3.543   3.974   2.032 -0.0543  0.1449  1.4113
 3453TIP3    H231919   3.641   3.958   2.147  1.1457 -0.6717  0.3029
 3454TIP3   OH231920   5.096   0.382   6.896 -0.2360  0.7353 -0.0541
 3454TIP3    H131921   5.097   0.329   6.975 -0.3395 -0.2394 -0.6892
 3454TIP3    H231922   5.030   0.449   6.912 -0.6089  0.2401  0.4859
 3455TIP3   OH231923   6.515   5.708   1.012 -0.1344  0.4602  0.4642
 3455TIP3    H131924   6.518   5.614   0.992  0.8135  0.4060  0.7922
 3455TIP3    H231925   6.517   5.751   0.926  0.7436  0.1867  0.3356
 3456TIP3   OH231926   0.189   1.871   6.389 -1.1578  0.3088 -0.1948
 3456TIP3    H131927   0.159   1.785   6.361 -0.2826 -0.7264  1.8209
 3456TIP3    H231928   0.143   1.887   6.471  0.5779  0.5563  0.7799
 3457TIP3   OH231929   6.860   5.784   1.614  0.3605  0.2895  0.1966
 3457TIP3    H131930   6.933   5.817   1.666  0.5759  1.0384 -0.5498
 3457TIP3    H231931   6.896   5.771   1.527 -0.0419 -0.7681  0.1729
 3458TIP3   OH231932   0.909   5.917   1.191  0.4525  0.5809 -0.6021
 3458TIP3    H131933   0.875   5.915   1.281 -0.0604  1.3479 -0.7671
 3458TIP3    H231934   0.920   5.825   1.167 -1.8564  0.2594 -0.6522
 3459TIP3   OH231935   4.785   4.798   8.344  0.2466 -0.7277  0.1607
 3459TIP3    H131936   4.804   4.737   8.272 -1.1547 -0.7255 -0.2404
 3459TIP3    H231937   4.830   4.879   8.319  1.2332 -1.2507  0.1708
 3460TIP3   OH231938   6.722   0.621   0.521 -0.3104 -0.5007 -0.4639
 3460TIP3    H131939   6.741   0.714   0.533  1.0964 -0.4115 -2.7302
 3460TIP3    H231940   6.650   0.621   0.458  0.6164 -0.9146 -1.5541
 3461TIP3   OH231941   2.339   0.512   7.008 -0.0337  0.0647  0.3001
 3461TIP3    H131942   2.389   0.442   7.050 -0.5496 -1.2303 -1.1410
 3461TIP3    H231943   2.276   0.540   7.074  0.7878 -0.1513  1.2074
 3462TIP3   OH231944   6.164   2.615   8.005 -0.1873 -0.0077 -0.0944
 3462TIP3    H131945   6.254   2.607   7.974  0.0471  0.0340  0.5738
 3462TIP3    H231946   6.169   2.673   8.080 -0.6564 -0.6525  0.4470
 3463TIP3   OH231947   1.440   2.200   0.556  0.3409  0.2544 -0.4415
 3463TIP3    H131948   1.491   2.173   0.632 -1.8440 -0.9018  0.7095
 3463TIP3    H231949   1.350   2.174   0.577 -0.2476 -0.8454 -3.7479
 3464TIP3   OH231950   4.872   0.299   1.932  0.0431 -0.3197  0.2472
 3464TIP3    H131951   4.829   0.380   1.959  0.6155 -0.5148  1.8307
 3464TIP3    H231952   4.824   0.230   1.977  0.1186 -0.8020 -0.3891
 3465TIP3   OH231953   1.936   0.878   6.841  0.6365 -0.7541 -0.0997
 3465TIP3    H131954   1.897   0.898   6.756 -1.5785  1.8321  1.3567
 3465TIP3    H231955   1.991   0.954   6.861  1.1740 -1.3463  0.7618
 3466TIP3   OH231956   1.344   4.381   1.498 -0.0126 -0.4100  0.3399
 3466TIP3    H131957   1.309   4.332   1.423  1.6621  0.3873 -1.0396
 3466TIP3    H231958   1.435   4.354   1.503  0.2006  0.4500  1.3529
 3467TIP3   OH231959   5.645   0.084   8.435  0.4297 -0.1872  0.4516
 3467TIP3    H131960   5.569   0.044   8.479  0.2703 -1.2402 -0.7146
 3467TIP3    H231961   5.628   0.178   8.438 -0.7519 -0.3857  0.5412
 3468TIP3   OH231962   3.826   2.426   1.033  0.0641 -0.3850  0.6076
 3468TIP3    H131963   3.834   2.364   0.960 -0.3273 -0.5538  0.7064
 3468TIP3    H231964   3.791   2.374   1.105  0.8649 -0.3209  1.0595
 3469TIP3   OH231965   3.886   0.807   0.865  0.1867 -0.5704 -0.2324
 3469TIP3    H131966   3.890   0.744   0.794  0.4486 -1.5698  0.6432
 3469TIP3    H231967   3.897   0.755   0.945 -1.5135  0.3063  0.6501
 3470TIP3   OH231968   2.330   5.875   7.183  0.4719 -0.5599 -1.3084
 3470TIP3    H131969   2.271   5.898   7.255 -0.2169  0.0954 -2.0630
 3470TIP3    H231970   2.409   5.842   7.226  0.5942  1.0573 -0.2034
 3471TIP3   OH231971   6.023   2.436   6.642 -0.1161 -0.4925  0.0696
 3471TIP3    H131972   6.093   2.372   6.638  0.2225 -0.1934  1.0167
 3471TIP3    H231973   5.965   2.412   6.569  0.7689 -0.9519 -0.5072
 3472TIP3   OH231974   2.841   3.107   1.108  0.6390 -0.2677  0.8538
 3472TIP3    H131975   2.820   3.035   1.167  0.2746  0.3193  1.4617
 3472TIP3    H231976   2.755   3.144   1.084  0.8268  0.1188  0.7631
 3473TIP3   OH231977   3.639   1.385   0.852 -0.3803 -0.1906 -0.7193
 3473TIP3    H131978   3.598   1.300   0.870  1.9534 -1.8357 -2.6109
 3473TIP3    H231979   3.584   1.424   0.784 -2.0560  0.3520  0.8837
 3474TIP3   OH231980   2.377   5.724   6.971  0.0560  0.5264 -0.3552
 3474TIP3    H131981   2.338   5.777   7.042 -1.4142  1.6833 -1.9460
 3474TIP3    H231982   2.328   5.642   6.974 -1.0575  1.1468 -0.9536
 3475TIP3   OH231983   6.062   2.576   8.416  0.2839  0.1352 -0.0525
 3475TIP3    H131984   5.978   2.592   8.373  0.1832 -1.1089 -0.3845
 3475TIP3    H231985   6.092   2.493   8.378  0.7154 -0.4507  1.5151
 3476TIP3   OH231986   5.286   5.856   7.235 -0.1148 -0.3498  0.7781
 3476TIP3    H131987   5.253   5.867   7.146  3.5677  2.8715 -0.4829
 3476TIP3    H231988   5.334   5.774   7.233 -0.0083 -0.2767 -0.2506
 3477TIP3   OH231989   0.285   0.163   1.575  0.3113  0.0662 -0.2759
 3477TIP3    H131990   0.293   0.112   1.495 -0.4693 -0.7398  0.1467
 3477TIP3    H231991   0.368   0.211   1.581  1.8620 -2.5207  0.2453
 3478TIP3   OH231992   2.598   6.156   7.820 -0.4761  0.6953  0.1081
 3478TIP3    H131993   2.627   6.208   7.895 -0.7980  0.3543  0.4730
 3478TIP3    H231994   2.511   6.189   7.799  0.2443  1.8831 -1.1423
 3479TIP3   OH231995   2.313   4.578   0.588  0.0843  0.2758 -0.8899
 3479TIP3    H131996   2.253   4.649   0.609 -1.2831 -1.0975  0.1126
 3479TIP3    H231997   2.263   4.522   0.528  0.2152 -1.0344  0.1699
 3480TIP3   OH231998   5.882   0.804   8.472  0.2595 -0.0698 -0.3386
 3480TIP3    H131999   5.860   0.828   8.562  0.5352  1.1716 -0.5764
 3480TIP3    H232000   5.819   0.736   8.449  0.9676 -1.2963  1.1869
 3481TIP3   OH232001   2.736   1.457   7.845  0.6715 -0.4911  0.3716
 3481TIP3    H132002   2.670   1.525   7.855 -0.8510 -2.1350  2.2491
 3481TIP3    H232003   2.719   1.420   7.758 -0.7910 -0.7301  0.7275
 3482TIP3   OH232004   3.028   3.204   8.232  0.8393 -0.4150 -0.4161
 3482TIP3    H132005   2.953   3.242   8.186 -0.4232 -1.2244  0.9029
 3482TIP3    H232006   3.021   3.236   8.321  2.7814  0.4513 -0.5192
 3483TIP3   OH232007   1.942   6.555   0.316  0.4953  0.4057 -0.5603
 3483TIP3    H132008   1.964   6.516   0.231  0.3275  1.5704 -1.1589
 3483TIP3    H232009   1.849   6.537   0.327  0.3496  0.8722 -0.9736
 3484TIP3   OH232010   4.749   1.598   1.245  0.5058  0.1285  0.4427
 3484TIP3    H132011   4.718   1.510   1.224 -2.5166  1.0803  0.5061
 3484TIP3    H232012   4.753   1.600   1.340  1.4674 -0.1683  0.4242
 3485TIP3   OH232013   6.761   6.288   1.852  0.1104  0.5268  0.0173
 3485TIP3    H132014   6.691   6.300   1.917 -0.5191 -1.0700 -0.3223
 3485TIP3    H232015   6.842   6.291   1.903 -0.2867  0.8053  0.6472
 3486TIP3   OH232016   0.157   4.466   0.778  0.5051 -0.3330  0.0756
 3486TIP3    H132017   0.223   4.433   0.716 -0.3516 -1.4812 -0.2658
 3486TIP3    H232018   0.208   4.510   0.846  1.8943 -3.3798  1.2004
 3487TIP3   OH232019   2.897   4.732   0.817  0.6338  0.0844 -0.8685
 3487TIP3    H132020   2.807   4.704   0.832  1.1411 -2.0023 -1.2885
 3487TIP3    H232021   2.910   4.724   0.722  1.2831  0.2286 -0.7990
 3488TIP3   OH232022   0.544   5.162   2.208  0.0920  0.3834 -0.3196
 3488TIP3    H132023   0.498   5.109   2.143 -1.6194 -1.3879  2.1413
 3488TIP3    H232024   0.626   5.115   2.224  0.2009  0.4434 -0.7113
 3489TIP3   OH232025   0.504   4.583   6.744  0.6697 -0.0007  0.1048
 3489TIP3    H132026   0.450   4.546   6.674 -1.1980  0.6711  1.1205
 3489TIP3    H232027   0.577   4.626   6.698 -0.0632 -0.2789 -1.3778
 3490TIP3   OH232028   6.809   5.143   0.782 -0.3698  0.3126 -0.2378
 3490TIP3    H132029   6.848   5.097   0.856 -0.2126  1.2814  0.2903
 3490TIP3    H232030   6.780   5.073   0.723  1.5914 -0.4655 -0.3641
 3491TIP3   OH232031   0.036   5.822   1.360 -0.9171  0.6207 -0.3731
 3491TIP3    H132032  -0.053   5.836   1.326 -1.0016 -1.4221 -1.1526
 3491TIP3    H232033   0.087   5.798   1.283  0.6303  2.7904 -0.1228
 3492TIP3   OH232034   1.214   6.686   1.598 -0.2190 -0.1186  0.3999
 3492TIP3    H132035   1.302   6.712   1.571 -0.8817  0.9312 -0.9332
 3492TIP3    H232036   1.223   6.597   1.631  1.3845  0.0974  0.6046
 3493TIP3   OH232037   4.820   0.713   8.488 -0.3640  0.0799 -0.0112
 3493TIP3    H132038   4.741   0.762   8.511 -1.3994 -1.7216  0.5077
 3493TIP3    H232039   4.877   0.721   8.564 -0.6638  0.2019  0.2009
 3494TIP3   OH232040   1.841   3.734   2.028  0.4082 -0.1362 -0.6094
 3494TIP3    H132041   1.937   3.734   2.018  0.6273  2.5871  0.8116
 3494TIP3    H232042   1.827   3.705   2.118 -0.0183  0.7817 -0.3772
 3495TIP3   OH232043   5.890   5.362   8.146 -0.0560 -0.1664  0.0499
 3495TIP3    H132044   5.862   5.356   8.054  1.8691 -0.6710 -0.5581
 3495TIP3    H232045   5.979   5.325   8.146  0.9814  2.0883  1.6523
 3496TIP3   OH232046   3.297   2.496   2.200  0.1246  0.2597 -0.1471
 3496TIP3    H132047   3.291   2.474   2.292  0.9870 -0.2477 -0.1944
 3496TIP3    H232048   3.210   2.481   2.165  0.4606 -2.5137 -0.0350
 3497TIP3   OH232049   4.414   5.616   8.473  0.4411  0.6364  0.0436
 3497TIP3    H132050   4.394   5.561   8.549 -1.2484  1.8087  0.5028
 3497TIP3    H232051   4.506   5.598   8.454  0.7426 -0.1192  1.9921
 3498TIP3   OH232052   4.564   2.183   7.373  0.8826  0.4190  0.7261
 3498TIP3    H132053   4.632   2.140   7.426  0.6419 -1.2513 -0.2545
 3498TIP3    H232054   4.511   2.231   7.437  0.2109 -2.0582  2.1785
 3499TIP3   OH232055   2.485   6.608   1.653  0.1526  0.3432 -0.7308
 3499TIP3    H132056   2.411   6.566   1.608 -0.9096  0.2412  1.0192
 3499TIP3    H232057   2.518   6.540   1.712  0.9017  0.7684 -0.6532
 3500TIP3   OH232058   6.491   3.510   8.205  0.2527  0.4259 -0.6513
 3500TIP3    H132059   6.573   3.476   8.169  0.6956  0.2337  0.4749
 3500TIP3    H232060   6.456   3.438   8.257 -0.5628  0.5599 -1.0087
 3501TIP3   OH232061   5.461   5.162   6.620  0.3932 -0.0879 -0.1393
 3501TIP3    H132062   5.381   5.172   6.672 -0.9203  1.4840 -2.2821
 3501TIP3    H232063   5.495   5.076   6.644 -1.4611 -0.4304  1.4896
 3502TIP3   OH232064   1.606   2.889   0.840  0.1471  0.4539  0.0813
 3502TIP3    H132065   1.686   2.858   0.883  0.4599  0.4459 -0.4980
 3502TIP3    H232066   1.536   2.865   0.900  0.5889  0.5443  0.6370
 3503TIP3   OH232067   2.240   0.390   1.315 -0.2870  0.2429  0.4250
 3503TIP3    H132068   2.261   0.402   1.408  0.1009 -0.6037  0.4549
 3503TIP3    H232069   2.263   0.474   1.274  3.1571 -0.5348  0.4825
 3504TIP3   OH232070   2.859   2.074   8.373 -0.3527  0.2067 -0.1145
 3504TIP3    H132071   2.824   2.140   8.313  1.3937  0.9376 -0.3869
 3504TIP3    H232072   2.825   2.100   8.459 -0.4539  0.9104 -0.3589
 3505TIP3   OH232073   3.027   3.611   0.821 -0.0428  0.3107  0.3035
 3505TIP3    H132074   3.102   3.564   0.785  1.4556  0.5314  2.8958
 3505TIP3    H232075   2.986   3.549   0.882 -0.8706  0.7992  0.2579
 3506TIP3   OH232076   3.828   3.290   1.668 -0.1881 -0.3856  0.1034
 3506TIP3    H132077   3.742   3.303   1.709 -0.5058 -0.9656 -0.3509
 3506TIP3    H232078   3.889   3.339   1.722 -0.7160 -0.5112  0.8214
 3507TIP3   OH232079   1.592   1.786   7.498 -0.3869 -0.2652 -0.1378
 3507TIP3    H132080   1.531   1.758   7.566  1.0945 -1.1089  0.9233
 3507TIP3    H232081   1.678   1.767   7.535  0.5435  1.2425 -1.4081
 3508TIP3   OH232082   3.276   0.791   7.919 -0.2688  0.4437  0.1157
 3508TIP3    H132083   3.350   0.731   7.914  0.3749  0.8839  2.6925
 3508TIP3    H232084   3.287   0.850   7.845  1.3846 -0.1125 -0.1104
 3509TIP3   OH232085   4.347   6.761   8.500  0.3282  0.3611 -0.3242
 3509TIP3    H132086   4.318   6.833   8.556  0.3979 -0.0739  0.2874
 3509TIP3    H232087   4.368   6.690   8.561  1.6766  0.3122 -0.8077
 3510TIP3   OH232088   0.633   0.906   1.214  0.4731  0.2504  0.2997
 3510TIP3    H132089   0.575   0.939   1.146  0.5487  0.8387  0.5035
 3510TIP3    H232090   0.591   0.827   1.246 -0.8109  1.2446  1.1950
 3511TIP3   OH232091   5.397   1.675   0.431  0.1577  0.2242  0.3218
 3511TIP3    H132092   5.436   1.760   0.410 -0.7355  0.7396  0.6637
 3511TIP3    H232093   5.449   1.612   0.382  2.1074  0.7414  1.6364
 3512TIP3   OH232094   1.285   3.093   7.333 -0.1148  0.6930 -0.2430
 3512TIP3    H132095   1.369   3.139   7.329 -0.3195  1.1710  0.6552
 3512TIP3    H232096   1.223   3.160   7.362 -0.3165 -0.2690  1.7008
 3513TIP3   OH232097   0.024   2.731   1.130 -0.1127 -0.4591 -1.4252
 3513TIP3    H132098   0.028   2.701   1.040 -0.6561 -1.5543 -1.0996
 3513TIP3    H232099   0.113   2.716   1.164  0.1090  0.0126 -1.7819
 3514TIP3   OH232100   3.127   0.352   0.527 -0.2658 -0.1713  0.4146
 3514TIP3    H132101   3.164   0.400   0.600  0.5287  0.4544 -0.3734
 3514TIP3    H232102   3.164   0.394   0.449 -0.2492 -1.4826 -0.3233
 3515TIP3   OH232103   0.221   5.218   0.081 -0.0773  0.4082  0.4247
 3515TIP3    H132104   0.183   5.182   0.001 -0.5311  1.5776  0.0875
 3515TIP3    H232105   0.149   5.216   0.145  0.1337 -0.0360  0.6537
 3516TIP3   OH232106   2.013   6.823   7.089  0.2980 -0.4516 -0.1016
 3516TIP3    H132107   2.084   6.799   7.029 -0.0512  1.0374 -1.1709
 3516TIP3    H232108   1.948   6.754   7.078 -0.3332  0.4264 -2.4690
 3517TIP3   OH232109   3.533   6.730   8.565 -0.0351  0.4461 -0.3566
 3517TIP3    H132110   3.628   6.735   8.554 -0.0316  0.2639 -0.4084
 3517TIP3    H232111   3.520   6.702   8.656 -0.0643  1.9361  0.1192
 3518TIP3   OH232112   3.373   2.013   0.523  0.4977  0.0536 -0.4356
 3518TIP3    H132113   3.441   1.969   0.471  2.2849  0.0240  1.7445
 3518TIP3    H232114   3.412   2.098   0.545 -1.2269  1.0679 -1.1482
 3519TIP3   OH232115   1.428   6.079   8.662 -0.1166 -0.0732  0.1723
 3519TIP3    H132116   1.520   6.104   8.668 -0.4793  1.5187 -0.2854
 3519TIP3    H232117   1.419   6.043   8.573  0.1998 -0.9738  0.4875
 3520TIP3   OH232118   3.192   5.364   8.262 -0.4247 -0.6697  0.0207
 3520TIP3    H132119   3.206   5.367   8.356 -0.0594  0.5136 -0.0581
 3520TIP3    H232120   3.253   5.297   8.230  1.9923  1.3174  0.2244
 3521TIP3   OH232121   5.595   3.193   7.363  0.5819  0.4477  0.4148
 3521TIP3    H132122   5.520   3.246   7.388  0.1689 -0.7828  1.9068
 3521TIP3    H232123   5.558   3.108   7.340  1.5509 -0.4486  2.0135
 3522TIP3   OH232124   6.312   5.089   8.411  0.2573 -0.2689 -0.0260
 3522TIP3    H132125   6.404   5.116   8.403 -0.0669  0.7181 -0.5548
 3522TIP3    H232126   6.312   4.997   8.387  0.9750 -0.0503 -0.9379
 3523TIP3   OH232127   5.911   6.063   7.628 -0.0766  0.4839 -0.2330
 3523TIP3    H132128   5.893   6.124   7.700 -0.5934  1.4195 -1.1350
 3523TIP3    H232129   6.001   6.034   7.643 -0.0309  1.0051  0.5358
 3524TIP3   OH232130   2.904   3.552   0.547  0.2434  0.0567 -0.5173
 3524TIP3    H132131   2.830   3.592   0.592 -1.0024 -1.8686 -0.7161
 3524TIP3    H232132   2.914   3.466   0.589  2.0765  0.0855 -0.8093
 3525TIP3   OH232133   0.090   4.880   1.487  0.0920  0.1809  0.5162
 3525TIP3    H132134   0.053   4.879   1.575  1.4481 -0.7271  1.1046
 3525TIP3    H232135   0.014   4.892   1.430 -1.1942 -2.0546  1.6220
 3526TIP3   OH232136   4.852   1.232   8.147  0.7044  0.0239 -0.3006
 3526TIP3    H132137   4.845   1.223   8.242 -0.6253  2.3632 -0.1002
 3526TIP3    H232138   4.868   1.325   8.133 -3.4358  0.6603 -2.4370
 3527TIP3   OH232139   3.678   4.332   6.676  0.2188 -0.1785 -0.6236
 3527TIP3    H132140   3.752   4.374   6.631  0.1963  0.2950 -0.2268
 3527TIP3    H232141   3.613   4.317   6.607 -0.2662  1.5382 -0.5784
 3528TIP3   OH232142   0.093   1.231   7.197  0.1647 -0.3094  0.0466
 3528TIP3    H132143   0.188   1.237   7.203  0.2385 -0.0600 -1.2153
 3528TIP3    H232144   0.076   1.137   7.189  0.3403 -0.3164 -0.2584
 3529TIP3   OH232145   6.039   0.859   6.981  0.1731  0.3101  0.0374
 3529TIP3    H132146   5.990   0.907   6.915 -0.2829 -1.0102 -0.6218
 3529TIP3    H232147   6.004   0.890   7.065  0.0124  1.2204 -0.3538
 3530TIP3   OH232148   0.962   1.203   0.428 -0.2246  0.3687  0.1965
 3530TIP3    H132149   1.041   1.233   0.382  0.5230 -1.8340 -0.0901
 3530TIP3    H232150   0.997   1.154   0.503 -1.3854  0.6903  0.9704
 3531TIP3   OH232151   6.530   5.459   0.905  0.5384  0.0143  0.1864
 3531TIP3    H132152   6.515   5.420   0.818 -0.8795  0.9532 -0.0251
 3531TIP3    H232153   6.610   5.417   0.936  0.7227 -0.8258 -1.2998
 3532TIP3   OH232154   2.100   0.764   1.596 -0.6616 -0.1460  0.8421
 3532TIP3    H132155   2.186   0.745   1.634  0.6168  0.7684 -1.3504
 3532TIP3    H232156   2.083   0.855   1.621 -0.4650  0.0112  0.4262
 3533TIP3   OH232157   0.578   4.655   8.046 -0.1891 -0.9928  0.1416
 3533TIP3    H132158   0.591   4.604   8.126 -1.0331 -0.2206  0.7919
 3533TIP3    H232159   0.515   4.723   8.070  0.4613  0.0079 -0.8562
 3534TIP3   OH232160   6.001   0.877   0.675  0.4289 -0.1018 -0.0283
 3534TIP3    H132161   6.044   0.791   0.674  2.0933  0.6839 -0.0781
 3534TIP3    H232162   5.929   0.867   0.737  0.6010 -1.5138 -0.0051
 3535TIP3   OH232163   4.077   0.678   0.117 -0.1063 -0.0074 -0.6102
 3535TIP3    H132164   4.169   0.652   0.126 -0.1081 -0.0938 -0.8322
 3535TIP3    H232165   4.059   0.670   0.023  0.0764  1.3899 -0.7891
 3536TIP3   OH232166   6.216   6.650   8.362 -0.1117  0.2793 -0.4900
 3536TIP3    H132167   6.293   6.627   8.413  0.1297 -1.6337 -1.5946
 3536TIP3    H232168   6.204   6.744   8.376  2.9742  0.8649 -1.0397
 3537TIP3   OH232169   2.897   1.214   1.067  0.0419 -0.0664  0.5597
 3537TIP3    H132170   2.937   1.246   0.986  0.3205 -2.2834 -0.2384
 3537TIP3    H232171   2.961   1.154   1.105 -1.9531 -2.9574 -0.2544
 3538TIP3   OH232172   0.839   5.453   1.251  0.0392  0.1325  1.2039
 3538TIP3    H132173   0.751   5.444   1.287  0.1615 -0.7579  1.3066
 3538TIP3    H232174   0.830   5.428   1.159  0.0323  0.8563  0.9995
 3539TIP3   OH232175   1.549   3.351   2.059  0.0488 -0.1325 -0.4394
 3539TIP3    H132176   1.581   3.388   1.977 -0.6529  1.4481 -0.0374
 3539TIP3    H232177   1.541   3.426   2.118  0.5473 -1.2298  1.0977
 3540TIP3   OH232178   5.114   1.872   6.994 -0.6499  0.5022  0.0284
 3540TIP3    H132179   5.060   1.890   7.071 -2.6747 -0.5662 -1.0655
 3540TIP3    H232180   5.116   1.776   6.989 -0.7923  0.5566 -1.3854
 3541TIP3   OH232181   2.835   0.864   0.754 -0.7861  0.5712 -0.2728
 3541TIP3    H132182   2.885   0.874   0.835  1.7136 -1.0324 -1.4900
 3541TIP3    H232183   2.822   0.953   0.722 -0.2074  1.1229  0.9615
 3542TIP3   OH232184   3.928   1.911   6.669 -0.0318  0.5749 -0.3933
 3542TIP3    H132185   3.891   1.835   6.624  0.1292  1.3712 -1.9428
 3542TIP3    H232186   3.855   1.973   6.673 -0.3572  0.1370  1.4657
 3543TIP3   OH232187   3.731   2.997   0.978  0.4371 -0.0123 -0.3294
 3543TIP3    H132188   3.789   2.994   1.054  0.4237 -0.6445 -0.3365
 3543TIP3    H232189   3.648   3.029   1.013  0.6246  0.3461 -0.2080
 3544TIP3   OH232190   6.672   4.315   6.665 -0.3764  0.0866 -0.2120
 3544TIP3    H132191   6.604   4.370   6.629 -0.6303 -0.1292 -0.0648
 3544TIP3    H232192   6.724   4.288   6.589  0.1368  1.0387 -0.2134
 3545TIP3   OH232193   2.758   3.362   7.839 -0.0800  0.1790 -0.1104
 3545TIP3    H132194   2.784   3.439   7.891 -1.4719  1.1348 -0.7785
 3545TIP3    H232195   2.840   3.330   7.802  0.4684  1.7280 -0.3219
 3546TIP3   OH232196   4.619   1.132   8.615  0.1732 -0.0151 -0.0789
 3546TIP3    H132197   4.544   1.173   8.572 -0.3893 -0.7426  0.1918
 3546TIP3    H232198   4.663   1.082   8.546 -0.3147 -0.6004  0.0303
 3547TIP3   OH232199   4.041   3.023   8.645 -0.0020 -0.3854 -0.0855
 3547TIP3    H132200   4.028   3.094   8.582 -1.3735 -1.2512 -0.8139
 3547TIP3    H232201   4.101   3.060   8.710  0.0077  1.1371 -0.9138
 3548TIP3   OH232202   1.025   3.592   1.816 -0.0868  0.6470 -0.6767
 3548TIP3    H132203   1.060   3.537   1.886  0.5689  0.4475 -1.1473
 3548TIP3    H232204   0.961   3.648   1.859  0.8433  1.0515  0.2212
 3549TIP3   OH232205   0.178   1.299   8.324  0.2590  0.4908 -0.9697
 3549TIP3    H132206   0.102   1.351   8.348  0.4585  1.6914 -2.7527
 3549TIP3    H232207   0.229   1.356   8.266  2.4753 -0.3065  0.0932
 3550TIP3   OH232208   3.958   1.136   1.300 -0.1587 -0.0428  0.1196
 3550TIP3    H132209   4.009   1.194   1.356 -1.7705  0.3263  1.2712
 3550TIP3    H232210   4.019   1.066   1.275  0.7918  0.1619  1.7819
 3551TIP3   OH232211   2.966   6.781   7.435  0.2517  0.6017  0.2089
 3551TIP3    H132212   2.879   6.787   7.472 -0.6319  0.6874 -1.7520
 3551TIP3    H232213   2.983   6.687   7.427 -0.5678  0.5430 -1.2865
 3552TIP3   OH232214   5.352   5.834   8.387  0.5995 -0.4644  0.0267
 3552TIP3    H132215   5.382   5.832   8.295 -0.8211  0.3771 -0.4799
 3552TIP3    H232216   5.401   5.763   8.429  0.1593 -1.9193 -1.7494
 3553TIP3   OH232217   5.955   5.192   0.272  0.1792  0.6440  0.0490
 3553TIP3    H132218   5.927   5.179   0.363  0.0126  1.1373  0.0706
 3553TIP3    H232219   5.999   5.110   0.249 -0.3131  0.2838  0.3732
 3554TIP3   OH232220   2.482   4.666   0.297  0.3336 -0.8331 -0.6235
 3554TIP3    H132221   2.460   4.589   0.244 -3.4402 -1.1124  1.0175
 3554TIP3    H232222   2.418   4.732   0.271  0.3893  0.0794  1.3747
 3555TIP3   OH232223   0.933   2.226   2.013  0.2698 -0.2354 -0.7697
 3555TIP3    H132224   0.996   2.167   1.972  1.5798 -0.5609  1.5575
 3555TIP3    H232225   0.852   2.174   2.020  0.6627 -0.8860 -1.0078
 3556TIP3   OH232226   3.368   6.646   8.385  0.1445 -0.6510  0.8385
 3556TIP3    H132227   3.434   6.682   8.444  0.7816 -0.8677  0.2638
 3556TIP3    H232228   3.374   6.551   8.397  0.6662 -0.7310  0.0270
 3557TIP3   OH232229   6.420   2.839   0.602 -1.0470  0.6250 -0.5548
 3557TIP3    H132230   6.443   2.845   0.695  2.3925 -0.3395 -1.2073
 3557TIP3    H232231   6.369   2.758   0.596  1.6048 -1.2209  0.1214
 3558TIP3   OH232232   0.146   1.366   0.004 -0.6300 -0.3961  0.1679
 3558TIP3    H132233   0.199   1.288   0.019 -1.4231 -0.8626  0.6081
 3558TIP3    H232234   0.067   1.333  -0.039 -0.6400  0.2644 -0.3232
 3559TIP3   OH232235   1.852   2.828   7.547 -0.0629 -0.5111  0.8112
 3559TIP3    H132236   1.845   2.914   7.588 -0.3094 -0.3345  0.4095
 3559TIP3    H232237   1.945   2.807   7.549  0.4091  0.9981 -1.5652
 3560TIP3   OH232238   2.942   2.667   7.272 -0.2312  0.1178  0.0974
 3560TIP3    H132239   2.916   2.588   7.319  1.3730 -1.3987 -1.4503
 3560TIP3    H232240   2.864   2.692   7.222 -1.0424  0.1252  1.3088
 3561TIP3   OH232241   3.425   2.370   6.982  0.1229  0.1756  0.1093
 3561TIP3    H132242   3.382   2.455   6.974  0.4532  0.5165  1.6630
 3561TIP3    H232243   3.355   2.306   6.970 -0.1255  0.6535 -1.0826
 3562TIP3   OH232244   5.307   1.860   7.488 -0.2989  0.4091  0.6169
 3562TIP3    H132245   5.300   1.770   7.457  0.1267  1.0316 -1.4495
 3562TIP3    H232246   5.368   1.902   7.427  0.0307  1.9371  1.9293
 3563TIP3   OH232247   5.235   1.340   1.894 -0.3743 -0.2599 -0.1362
 3563TIP3    H132248   5.152   1.292   1.891  0.1271 -1.4013  1.8347
 3563TIP3    H232249   5.231   1.388   1.977  1.2799 -1.1374  0.5142
 3564TIP3   OH232250   6.827   5.577   0.205 -0.2094 -0.0016 -0.3231
 3564TIP3    H132251   6.916   5.541   0.207  0.2416  0.9869 -1.4121
 3564TIP3    H232252   6.777   5.514   0.153  0.4480  0.6294 -1.7696
 3565TIP3   OH232253   0.382   1.069   8.091  0.2269  0.4584 -0.3329
 3565TIP3    H132254   0.443   1.142   8.100 -0.5260  0.9050  1.8412
 3565TIP3    H232255   0.423   0.997   8.139  0.4026 -0.2001 -1.4302
 3566TIP3   OH232256   6.582   4.365   7.298  0.4849  0.1648 -0.0329
 3566TIP3    H132257   6.609   4.297   7.360 -1.0409 -1.5063 -1.0698
 3566TIP3    H232258   6.631   4.443   7.324  1.7223 -1.1162  1.7135
 3567TIP3   OH232259   3.409   0.451   2.295  0.1825  0.1472  0.3033
 3567TIP3    H132260   3.469   0.518   2.263 -0.9284  0.8903 -0.2733
 3567TIP3    H232261   3.341   0.445   2.228 -2.7717  2.4742  2.7715
 3568TIP3   OH232262   1.099   3.190   7.677  0.0761  0.3418 -0.0250
 3568TIP3    H132263   1.047   3.266   7.701 -0.6799 -0.4920  1.1370
 3568TIP3    H232264   1.190   3.217   7.693 -0.2591  0.5797  1.7543
 3569TIP3   OH232265   6.412   5.917   0.146 -0.0007  0.1101  0.0803
 3569TIP3    H132266   6.350   5.845   0.142  0.1281 -0.0785  1.1791
 3569TIP3    H232267   6.367   5.985   0.198 -0.1428  0.8470 -0.9778
 3570TIP3   OH232268   0.204   6.435   0.721  0.0517  0.4322 -0.2712
 3570TIP3    H132269   0.196   6.426   0.816 -0.6971 -0.2597 -0.3809
 3570TIP3    H232270   0.290   6.398   0.701 -0.3925 -0.8094 -0.0040
 3571TIP3   OH232271   5.047   1.252   1.164 -0.4470  0.1924  0.5892
 3571TIP3    H132272   5.085   1.254   1.252 -2.2245  1.0415  1.3736
 3571TIP3    H232273   5.086   1.327   1.120  0.0902  0.0461  0.8065
 3572TIP3   OH232274   2.426   2.973   0.747  0.7386  0.1174 -0.1046
 3572TIP3    H132275   2.481   3.038   0.703 -0.3026  1.9353  1.1576
 3572TIP3    H232276   2.337   2.997   0.723  0.3280 -0.8470  0.4151
 3573TIP3   OH232277   3.475   1.414   1.929  0.4626  0.4082 -0.4781
 3573TIP3    H132278   3.390   1.422   1.885  0.3047 -1.3580 -0.5685
 3573TIP3    H232279   3.483   1.495   1.980 -1.1927  0.6990 -0.6064
 3574TIP3   OH232280   0.257   1.175   6.587 -0.3089 -0.1363 -0.6352
 3574TIP3    H132281   0.345   1.139   6.576 -0.1041  0.2979 -0.4222
 3574TIP3    H232282   0.252   1.200   6.679 -0.6038 -0.0150 -0.6820
 3575TIP3   OH232283   3.852   6.667   1.236 -0.0511  0.5975  0.3135
 3575TIP3    H132284   3.799   6.744   1.256 -1.2553 -0.2570  0.4932
 3575TIP3    H232285   3.923   6.670   1.301 -0.3299  1.3174  0.5964
 3576TIP3   OH232286   3.679   3.849   1.395 -0.6038 -0.4408 -0.2285
 3576TIP3    H132287   3.752   3.874   1.452 -0.0936  1.5192 -1.6163
 3576TIP3    H232288   3.603   3.891   1.435 -0.2884  0.7217 -0.7885
 3577TIP3   OH232289   4.928   2.190   7.366 -0.0779 -0.0435 -0.4407
 3577TIP3    H132290   4.868   2.126   7.403 -0.9849  0.3449 -1.1993
 3577TIP3    H232291   4.873   2.265   7.343  0.5631  0.0451 -1.8216
 3578TIP3   OH232292   5.717   2.207   1.430 -0.3056 -0.3208  0.0379
 3578TIP3    H132293   5.708   2.122   1.387 -0.8366 -0.3101  0.1157
 3578TIP3    H232294   5.742   2.186   1.520 -0.3714 -0.3952  0.0392
 3579TIP3   OH232295   4.085   3.578   7.497  0.2585 -0.0387 -0.4131
 3579TIP3    H132296   4.049   3.662   7.527  1.7270  0.2014  0.7877
 3579TIP3    H232297   4.139   3.600   7.422  0.8025  0.1404  0.0221
 3580TIP3   OH232298   4.807   5.519   1.638 -0.4438 -0.2318 -0.3118
 3580TIP3    H132299   4.866   5.450   1.667  0.0465 -0.3175 -1.4453
 3580TIP3    H232300   4.780   5.492   1.550  0.3942  1.3970 -1.1198
 3581TIP3   OH232301   1.092   1.846   8.313 -0.0284 -0.5462  0.4419
 3581TIP3    H132302   1.015   1.821   8.262 -0.8710  0.0982  1.3668
 3581TIP3    H232303   1.159   1.866   8.247 -0.9055 -0.2874 -0.3970
 3582TIP3   OH232304   2.929   1.338   6.956 -0.0702 -0.2394  0.2305
 3582TIP3    H132305   2.931   1.270   7.023 -2.3811 -0.8819 -0.2683
 3582TIP3    H232306   3.013   1.329   6.909  1.1319 -0.4551  2.2970
 3583TIP3   OH232307   5.697   2.679   7.789 -0.2848  0.1300  0.0823
 3583TIP3    H132308   5.655   2.698   7.873 -1.3001  0.3624 -0.4607
 3583TIP3    H232309   5.654   2.738   7.727  0.8814  0.3979 -0.5010
 3584TIP3   OH232310   1.074   2.940   1.215  0.3592 -0.5859 -0.0553
 3584TIP3    H132311   1.038   2.852   1.202  1.7345 -1.0737 -0.7173
 3584TIP3    H232312   1.043   2.990   1.140 -2.4350  0.2468  1.4864
 3585TIP3   OH232313   5.364   2.044   6.611  0.5949  0.6095  0.0842
 3585TIP3    H132314   5.305   2.056   6.537  1.0111  0.7630 -0.2272
 3585TIP3    H232315   5.450   2.027   6.571  0.4743 -1.1748  0.5164
 3586TIP3   OH232316   1.915   0.609   1.711 -0.2046  0.0067  0.2411
 3586TIP3    H132317   1.967   0.663   1.652 -0.7834 -0.6052 -0.8590
 3586TIP3    H232318   1.826   0.615   1.677 -0.7879  0.6491  1.8110
 3587TIP3   OH232319   6.418   5.749   7.402 -0.0628 -0.0712  0.3045
 3587TIP3    H132320   6.412   5.773   7.309 -1.5273 -0.9144  0.1424
 3587TIP3    H232321   6.396   5.830   7.448  1.3178  0.5253 -0.0493
 3588TIP3   OH232322   1.724   4.075   6.975 -1.2804 -0.3532 -0.5423
 3588TIP3    H132323   1.705   4.077   6.882 -1.4387 -0.2612 -0.5073
 3588TIP3    H232324   1.797   4.013   6.983  0.0179  1.0703 -0.9436
 3589TIP3   OH232325   6.268   6.619   6.951  0.0083 -0.0318  0.2747
 3589TIP3    H132326   6.184   6.655   6.979  0.4305  1.5016 -0.3586
 3589TIP3    H232327   6.332   6.657   7.011  1.0538  3.9701 -2.9471
 3590TIP3   OH232328   6.695   0.608   1.706 -0.1160 -0.1978  0.4354
 3590TIP3    H132329   6.602   0.608   1.685 -0.2130  1.0961  0.7963
 3590TIP3    H232330   6.715   0.698   1.728  1.0014 -0.6595  1.4247
 3591TIP3   OH232331   2.501   3.245   6.571 -0.7435 -0.0742  0.3029
 3591TIP3    H132332   2.555   3.233   6.493  0.0915  0.5642  0.7590
 3591TIP3    H232333   2.505   3.161   6.616  1.2664  0.4132  1.1610
 3592TIP3   OH232334   0.063   1.344   2.022 -0.0830  0.6448 -0.0695
 3592TIP3    H132335   0.022   1.272   1.975 -0.8429  1.1156 -0.1385
 3592TIP3    H232336   0.129   1.378   1.961 -1.3817  1.5600 -1.0300
 3593TIP3   OH232337   3.477   5.281   2.177 -0.5098  0.5325 -0.2677
 3593TIP3    H132338   3.421   5.204   2.172 -2.1412  1.5644  1.0440
 3593TIP3    H232339   3.416   5.355   2.172  1.0250  1.7638 -1.7172
 3594TIP3   OH232340   1.804   2.729   1.589 -0.3438 -0.5317 -0.1323
 3594TIP3    H132341   1.751   2.680   1.652  0.3651 -0.1597  0.7753
 3594TIP3    H232342   1.873   2.668   1.562  0.0584 -0.3108  0.3775
 3595TIP3   OH232343   2.524   4.931   0.355 -0.2088  0.3438 -0.0634
 3595TIP3    H132344   2.567   4.983   0.287 -1.2491 -0.7650 -1.6241
 3595TIP3    H232345   2.580   4.854   0.364  0.4741  0.9431  1.1143
 3596TIP3   OH232346   1.334   0.572   0.199 -0.0979  0.1615  0.2208
 3596TIP3    H132347   1.353   0.608   0.112 -0.0488 -0.4913 -0.0371
 3596TIP3    H232348   1.243   0.544   0.194 -0.5324  1.3963  0.8210
 3597TIP3   OH232349   4.448   3.475   7.502  0.4471 -0.3802  0.0476
 3597TIP3    H132350   4.403   3.485   7.418 -0.5025 -1.6764  0.3596
 3597TIP3    H232351   4.532   3.433   7.480 -1.4318 -4.6705 -0.0525
 3598TIP3   OH232352   2.972   2.350   0.781 -0.0466 -0.2466  0.2079
 3598TIP3    H132353   2.879   2.328   0.785 -0.1672 -0.0565 -1.0522
 3598TIP3    H232354   2.976   2.443   0.803 -0.3463  0.1027 -1.1105
 3599TIP3   OH232355   0.697   6.719   7.834  0.0104  0.3510  0.0839
 3599TIP3    H132356   0.624   6.670   7.797 -0.6415  1.0124  0.4572
 3599TIP3    H232357   0.771   6.658   7.832 -0.0110  0.3065 -2.1784
 3600TIP3   OH232358   3.993   1.213   7.212 -0.0980 -0.1046  0.5584
 3600TIP3    H132359   3.932   1.286   7.215 -0.3952 -0.3845  1.9557
 3600TIP3    H232360   4.049   1.225   7.288  1.5793  0.1060 -0.6572
 3601TIP3   OH232361   4.363   2.000   1.119 -0.9966  0.1490  0.7977
 3601TIP3    H132362   4.367   1.905   1.132  1.0789  0.0103 -0.4685
 3601TIP3    H232363   4.447   2.022   1.078 -2.8612  1.9612 -2.4761
 3602TIP3   OH232364   2.465   4.110   8.116 -0.1994 -0.1623  0.8924
 3602TIP3    H132365   2.462   4.204   8.135  0.8556 -0.0349  0.5466
 3602TIP3    H232366   2.516   4.073   8.187 -0.9594 -0.5441  1.2421
 3603TIP3   OH232367   3.348   2.094   1.114 -0.0479  0.2292  0.0884
 3603TIP3    H132368   3.294   2.151   1.059 -0.7472 -1.6527 -1.2750
 3603TIP3    H232369   3.380   2.026   1.054  0.1184 -1.2541  1.7757
 3604TIP3   OH232370   1.246   4.295   8.024 -0.3420  0.2883 -0.0135
 3604TIP3    H132371   1.340   4.284   8.035  0.0165  1.9952 -1.0179
 3604TIP3    H232372   1.209   4.208   8.044  1.2544 -0.0083  1.9989
 3605TIP3   OH232373   6.799   1.935   2.353  0.4634  0.3197 -0.1948
 3605TIP3    H132374   6.783   1.989   2.275  0.6517 -1.2205 -1.3407
 3605TIP3    H232375   6.888   1.903   2.341  1.1926  1.5396  1.6189
 3606TIP3   OH232376   1.508   2.602   1.646 -0.1881  0.0371  0.0852
 3606TIP3    H132377   1.562   2.602   1.725 -0.7168  1.8134  0.4789
 3606TIP3    H232378   1.480   2.693   1.636 -1.2917 -0.4326 -1.3626
 3607TIP3   OH232379   3.724   6.334   1.375 -0.0320 -0.1460  0.0941
 3607TIP3    H132380   3.648   6.296   1.332  1.0735 -0.7572 -1.4049
 3607TIP3    H232381   3.738   6.279   1.452 -0.7677 -0.3611  0.0810
 3608TIP3   OH232382   6.323   4.803   8.348 -0.0542 -0.3307  0.0832
 3608TIP3    H132383   6.315   4.775   8.257 -0.6065  1.8268 -0.5774
 3608TIP3    H232384   6.373   4.733   8.390 -2.0685 -2.6848 -1.2087
 3609TIP3   OH232385   1.645   4.015   1.543 -0.3266  0.2716  0.3815
 3609TIP3    H132386   1.711   3.991   1.608 -0.1399  1.0980  0.5067
 3609TIP3    H232387   1.585   3.941   1.540 -0.7482  0.5172  2.0260
 3610TIP3   OH232388   1.135   1.695   2.000  0.0693 -0.3450  0.0177
 3610TIP3    H132389   1.078   1.766   1.973  1.3000  0.5690 -0.2607
 3610TIP3    H232390   1.084   1.647   2.066 -0.9371  0.5319 -0.1003
 3611TIP3   OH232391   2.626   5.762   8.125 -0.1922  0.2244 -0.2024
 3611TIP3    H132392   2.583   5.796   8.046 -1.8002  0.4208  0.7132
 3611TIP3    H232393   2.554   5.744   8.185  0.8872 -1.3801  0.6837
 3612TIP3   OH232394   2.492   5.429   6.417  0.6631  0.4603  0.0178
 3612TIP3    H132395   2.572   5.421   6.365 -0.3571 -0.9489 -1.4241
 3612TIP3    H232396   2.500   5.362   6.485  1.8108  2.0322  1.5277
 3613TIP3   OH232397   6.738   6.590   1.626  0.2668 -0.1439  0.1944
 3613TIP3    H132398   6.775   6.502   1.633  0.1301 -0.1006  2.0508
 3613TIP3    H232399   6.658   6.587   1.679 -0.7857  0.5975 -1.2761
 3614TIP3   OH232400   3.937   5.283   7.244 -0.0650 -0.1720  0.3814
 3614TIP3    H132401   3.902   5.335   7.171  0.5570  1.1355  0.9857
 3614TIP3    H232402   4.027   5.313   7.254 -0.3786  0.2679  2.2067
 3615TIP3   OH232403   1.616   5.200   1.703  0.1647  0.1673  0.0884
 3615TIP3    H132404   1.652   5.190   1.791 -1.4287  2.6037  1.1294
 3615TIP3    H232405   1.572   5.117   1.685 -0.4123 -0.0033  2.0848
 3616TIP3   OH232406   2.688   5.251   1.294  0.5227 -0.0584  0.4643
 3616TIP3    H132407   2.600   5.218   1.309  0.9416 -1.2474  0.4118
 3616TIP3    H232408   2.719   5.279   1.380 -0.1094  0.9446  0.3858
 3617TIP3   OH232409   0.639   6.444   8.602 -0.0379  0.1258 -0.2305
 3617TIP3    H132410   0.568   6.406   8.654  0.4382 -1.5047 -0.7061
 3617TIP3    H232411   0.716   6.394   8.627  0.2285 -0.6458 -2.3886
 3618TIP3   OH232412   4.773   3.727   5.999  0.0058 -0.3972 -0.1552
 3618TIP3    H132413   4.734   3.801   6.046 -1.5680 -1.1107 -0.2766
 3618TIP3    H232414   4.714   3.654   6.017  1.2599 -1.5107 -0.4545
 3619TIP3   OH232415   3.076   2.505   6.891  0.5874  0.7945  0.0970
 3619TIP3    H132416   3.048   2.577   6.835  0.3009  1.4112  1.0003
 3619TIP3    H232417   3.082   2.430   6.833  0.5026  1.4597 -0.7883
 3620TIP3   OH232418   1.551   3.158   7.517 -0.1949 -0.2205  0.0053
 3620TIP3    H132419   1.615   3.135   7.584 -0.3467 -1.4091 -0.2434
 3620TIP3    H232420   1.602   3.204   7.450  0.2236 -0.3448  0.2355
 3621TIP3   OH232421   2.874   3.342   6.824  0.4386  0.1305 -0.5046
 3621TIP3    H132422   2.806   3.362   6.760  0.4027 -0.4432 -0.6553
 3621TIP3    H232423   2.827   3.302   6.897  0.3298  1.8638  0.4111
 3622TIP3   OH232424   5.581   5.155   6.960  0.2638  0.2992 -0.0893
 3622TIP3    H132425   5.570   5.224   6.895  0.7352 -0.4758 -1.0388
 3622TIP3    H232426   5.603   5.077   6.908  2.5173  0.0546  1.0931
 3623TIP3   OH232427   1.402   2.210   1.030 -0.1300  0.0080 -0.2828
 3623TIP3    H132428   1.466   2.227   0.961  0.3533 -2.2233 -0.4756
 3623TIP3    H232429   1.452   2.167   1.100 -1.4570 -2.5572 -0.7748
 3624TIP3   OH232430   5.098   6.553   8.587  0.3363  0.6230  0.3273
 3624TIP3    H132431   5.041   6.596   8.523  0.3451 -0.6573 -0.5656
 3624TIP3    H232432   5.072   6.461   8.585  2.1453  0.0784  0.1836
 3625TIP3   OH232433   1.931   3.384   8.318 -0.1277 -0.3466  0.5910
 3625TIP3    H132434   2.022   3.402   8.294 -0.4218 -1.0732 -1.2785
 3625TIP3    H232435   1.880   3.450   8.272 -0.6507 -1.0143  0.1925
 3626TIP3   OH232436   1.708   4.950   0.498  1.0093  0.1273 -0.3131
 3626TIP3    H132437   1.735   4.868   0.541  0.2076 -0.1759 -0.3844
 3626TIP3    H232438   1.627   4.928   0.452  1.4008  0.6699 -1.2876
 3627TIP3   OH232439   0.393   3.728   8.558 -0.5822 -0.3405  0.2575
 3627TIP3    H132440   0.468   3.707   8.503  0.6979  1.9567  1.0269
 3627TIP3    H232441   0.319   3.688   8.513  0.5351  0.5624 -2.5868
 3628TIP3   OH232442   2.284   3.180   1.386 -0.2512 -0.3700 -0.0344
 3628TIP3    H132443   2.303   3.267   1.351 -1.1504  0.5623  1.6443
 3628TIP3    H232444   2.252   3.130   1.310 -0.2214  0.9237 -0.9340
 3629TIP3   OH232445   0.902   6.819   8.234 -0.2795  0.3330  0.4818
 3629TIP3    H132446   0.860   6.860   8.158 -0.2966  0.2705  0.4584
 3629TIP3    H232447   0.996   6.831   8.218 -0.0925 -2.3013 -1.0528
 3630TIP3   OH232448   6.023   0.688   0.051 -0.4399  0.6845  0.1937
 3630TIP3    H132449   5.979   0.605   0.029 -2.2570  1.6620 -0.0133
 3630TIP3    H232450   6.027   0.735  -0.032  1.3220  0.5086  0.1522
 3631TIP3   OH232451   0.330   5.981   0.104  0.8987  0.1876 -0.3145
 3631TIP3    H132452   0.412   6.003   0.059  0.2508  1.6604 -0.8208
 3631TIP3    H232453   0.269   5.960   0.034  0.6219 -0.1322  0.0201
 3632TIP3   OH232454   1.798   0.185   7.538  0.5172  1.0599  0.2016
 3632TIP3    H132455   1.888   0.193   7.569 -0.3517  2.0370  2.7504
 3632TIP3    H232456   1.774   0.275   7.513  0.1200  0.8823 -0.0573
 3633TIP3   OH232457   5.458   2.075   1.075 -0.1940  0.0875  0.3516
 3633TIP3    H132458   5.411   2.158   1.076 -0.2379  0.0703 -0.1382
 3633TIP3    H232459   5.404   2.017   1.021  1.0068  0.4392 -1.3055
 3634TIP3   OH232460   3.362   2.866   2.068 -0.2249 -0.0558  0.0843
 3634TIP3    H132461   3.408   2.946   2.045 -0.8818  0.1568 -0.5303
 3634TIP3    H232462   3.297   2.893   2.132  0.7037 -0.4166  1.2202
 3635TIP3   OH232463   6.141   4.651   1.625 -0.9065  0.3446  0.4482
 3635TIP3    H132464   6.179   4.570   1.589  0.6145  0.5462  1.5295
 3635TIP3    H232465   6.188   4.721   1.580 -0.8654  0.6114  0.9031
 3636TIP3   OH232466   4.995   6.138   8.401  0.0787 -0.0511  0.2590
 3636TIP3    H132467   5.037   6.055   8.378 -0.2190 -0.3884  0.9048
 3636TIP3    H232468   4.930   6.152   8.332  0.5413 -0.0414 -0.1809
 3637TIP3   OH232469   3.267   5.378   8.561 -0.4666 -0.0516  0.0760
 3637TIP3    H132470   3.274   5.469   8.533 -1.6038 -0.0374 -0.2095
 3637TIP3    H232471   3.177   5.353   8.539 -0.3053 -1.1059  0.5587
 3638TIP3   OH232472   5.689   5.945   1.348  0.2230 -0.0198 -0.1687
 3638TIP3    H132473   5.627   5.895   1.402  0.5685  1.0780  1.3012
 3638TIP3    H232474   5.636   6.016   1.311 -0.3564 -1.6095 -2.5699
 3639TIP3   OH232475   3.611   2.905   1.310 -0.4400  0.2072 -0.0602
 3639TIP3    H132476   3.685   2.859   1.351 -1.3194 -1.4446 -0.2381
 3639TIP3    H232477   3.644   2.933   1.225  0.3266  0.5150  0.3297
 3640TIP3   OH232478   3.516   1.361   7.129  0.2955  0.8100  0.5280
 3640TIP3    H132479   3.604   1.368   7.093 -0.2913  1.4122 -0.8994
 3640TIP3    H232480   3.493   1.269   7.120  0.1813  0.9395 -0.6607
 3641TIP3   OH232481   0.266   0.134   7.781 -0.0049 -0.2869 -0.5122
 3641TIP3    H132482   0.208   0.058   7.772  0.1967 -0.3635 -1.1807
 3641TIP3    H232483   0.252   0.184   7.701 -2.0954  1.7607  1.0050
 3642TIP3   OH232484   0.102   1.322   7.591  0.2412 -0.2073  0.3193
 3642TIP3    H132485   0.006   1.326   7.594  0.2752  0.0702  2.2932
 3642TIP3    H232486   0.125   1.255   7.655  1.3580 -1.1152 -0.9721
 3643TIP3   OH232487   3.079   3.166   6.679 -0.8186  0.9050  0.1541
 3643TIP3    H132488   3.097   3.073   6.663  1.1847  0.8242  2.3076
 3643TIP3    H232489   3.032   3.167   6.762  0.0765  1.8611  0.6630
 3644TIP3   OH232490   4.475   3.316   1.376  0.2070 -0.0092  0.1834
 3644TIP3    H132491   4.456   3.395   1.425 -0.0829 -0.0091  0.0702
 3644TIP3    H232492   4.449   3.244   1.434  1.1281 -0.0472  0.5754
 3645TIP3   OH232493   3.574   0.510   6.772  0.1016  0.4713 -0.5968
 3645TIP3    H132494   3.539   0.507   6.861 -1.5279 -0.3228 -1.2138
 3645TIP3    H232495   3.544   0.429   6.732 -1.7549  2.0824 -2.7538
 3646TIP3   OH232496   0.572   1.443   1.286 -0.1340 -0.1620  0.1302
 3646TIP3    H132497   0.483   1.413   1.299  0.0317  0.3017  2.9299
 3646TIP3    H232498   0.573   1.477   1.196 -1.9383 -2.7327 -0.9790
 3647TIP3   OH232499   5.587   6.257   8.348 -0.2079  0.1228 -0.3356
 3647TIP3    H132500   5.632   6.340   8.363 -2.7102  1.5100  0.0649
 3647TIP3    H232501   5.596   6.241   8.254 -1.2299  1.8556 -0.7641
 3648TIP3   OH232502   1.958   6.248   8.603 -0.1134 -0.2217 -0.0963
 3648TIP3    H132503   2.030   6.241   8.540  1.6625  2.3837  1.4966
 3648TIP3    H232504   1.994   6.214   8.685 -1.3301 -0.5444  0.3225
 3649TIP3   OH232505   1.324   2.516   0.501 -0.3623 -0.1133  0.1399
 3649TIP3    H132506   1.362   2.475   0.578 -1.0166  0.1186  0.5984
 3649TIP3    H232507   1.342   2.455   0.430 -0.6737 -0.8487  0.6732
 3650TIP3   OH232508   1.002   4.504   1.304 -0.4371 -0.4089 -0.3801
 3650TIP3    H132509   0.988   4.585   1.353 -0.3262 -0.2084 -0.6807
 3650TIP3    H232510   1.070   4.458   1.353 -0.7257 -0.4693 -0.0316
 3651TIP3   OH232511   3.527   1.582   7.678  0.2541  0.3720 -0.6920
 3651TIP3    H132512   3.440   1.611   7.703  0.6063  0.2069  0.8464
 3651TIP3    H232513   3.531   1.593   7.583 -2.2356 -1.7676 -1.1420
 3652TIP3   OH232514   1.163   3.036   8.416  0.3117  0.4706 -0.5370
 3652TIP3    H132515   1.079   3.003   8.383 -0.1018 -1.3382  1.9965
 3652TIP3    H232516   1.227   3.010   8.350 -0.6182 -1.6689 -0.6936
 3653TIP3   OH232517   6.844   2.102   1.665  0.4576 -0.5248 -1.0497
 3653TIP3    H132518   6.878   2.079   1.751  1.6145 -0.8451 -1.5694
 3653TIP3    H232519   6.886   2.186   1.644  0.6228 -0.7211 -1.5234
 3654TIP3   OH232520   2.998   6.875   8.626  0.2212  0.6361 -0.2318
 3654TIP3    H132521   2.943   6.878   8.704  0.6888 -1.1600  0.2174
 3654TIP3    H232522   2.954   6.813   8.568  1.2979 -0.1760 -0.2159
 3655TIP3   OH232523   6.115   3.190   6.473 -0.5599 -0.3024 -0.0249
 3655TIP3    H132524   6.161   3.273   6.480 -1.2936  0.2024 -0.9109
 3655TIP3    H232525   6.181   3.128   6.442 -0.7069  0.7058 -2.6114
 3656TIP3   OH232526   3.105   4.156   0.406 -0.1211  0.0693  0.0268
 3656TIP3    H132527   3.078   4.153   0.314  0.4332  0.7763 -0.1627
 3656TIP3    H232528   3.030   4.196   0.451 -0.2178  0.1249 -0.1820
 3657TIP3   OH232529   2.632   5.148   2.285  0.1511 -0.4385 -0.2090
 3657TIP3    H132530   2.715   5.140   2.238 -0.5370  1.5771 -1.8769
 3657TIP3    H232531   2.631   5.237   2.318 -1.2744 -0.4871 -0.0531
 3658TIP3   OH232532   3.456   6.793   2.213  0.6322 -0.1470  0.3829
 3658TIP3    H132533   3.374   6.745   2.203  0.3000  0.1921  1.3523
 3658TIP3    H232534   3.520   6.726   2.236  1.2989 -0.8653 -3.0186
 3659TIP3   OH232535   2.140   6.081   8.465 -0.2922  0.1439  0.9895
 3659TIP3    H132536   2.200   6.024   8.418 -0.3266  0.0829  1.0205
 3659TIP3    H232537   2.053   6.045   8.447 -0.3546  0.4839  0.5911
 3660TIP3   OH232538   1.701   2.408   2.050  0.7516  0.9744 -0.0765
 3660TIP3    H132539   1.694   2.479   2.114  0.4534 -0.6526  1.8136
 3660TIP3    H232540   1.789   2.373   2.063  0.5661  0.4082 -0.3076
 3661TIP3   OH232541   5.415   2.736   6.199 -0.3883  0.0014 -0.3872
 3661TIP3    H132542   5.446   2.810   6.146 -0.6875 -0.5794 -1.4204
 3661TIP3    H232543   5.333   2.710   6.158 -0.0800 -1.1615 -0.3148
 3662TIP3   OH232544   2.977   0.696   7.412 -0.2728  0.6257  0.1369
 3662TIP3    H132545   2.985   0.658   7.325  1.2413  0.1682  0.4581
 3662TIP3    H232546   2.965   0.790   7.396  1.1783  0.7182 -0.5590
 3663TIP3   OH232547   4.798   2.095   1.259  0.3980 -0.0574 -0.7395
 3663TIP3    H132548   4.763   2.019   1.304 -0.4989  0.4461 -0.5639
 3663TIP3    H232549   4.893   2.086   1.266  0.3094 -1.4073 -1.1534
 3664TIP3   OH232550   6.230   6.717   1.457 -0.0156  0.4927  0.3018
 3664TIP3    H132551   6.164   6.707   1.389  0.2057  0.4233  0.0930
 3664TIP3    H232552   6.296   6.775   1.418  1.1638 -1.2180 -0.3404
 3665TIP3   OH232553   5.171   2.477   7.329 -0.2958 -0.2259  0.0713
 3665TIP3    H132554   5.120   2.443   7.256 -0.5472 -0.4586  0.3537
 3665TIP3    H232555   5.199   2.400   7.378 -1.0307 -0.0314  0.8178
 3666TIP3   OH232556   6.477   2.859   1.139 -0.1431  0.1565  0.1153
 3666TIP3    H132557   6.390   2.841   1.174 -1.0244  2.4077 -0.6741
 3666TIP3    H232558   6.528   2.779   1.155 -1.9264 -0.6929  1.8739
 3667TIP3   OH232559   6.370   3.430   0.985 -0.2871 -0.1235  0.0865
 3667TIP3    H132560   6.456   3.471   0.981 -1.0432  1.7602  1.3626
 3667TIP3    H232561   6.351   3.405   0.895  1.3670 -0.1297 -0.2933
 3668TIP3   OH232562   4.900   2.002   0.880  0.1248 -0.4544 -0.4356
 3668TIP3    H132563   4.844   1.926   0.863  0.5139 -0.6994 -0.6312
 3668TIP3    H232564   4.976   1.990   0.822  1.6052 -1.4381  1.5682
 3669TIP3   OH232565   5.467   0.213   1.181  0.4986 -0.1294 -0.2127
 3669TIP3    H132566   5.396   0.150   1.169  0.2601  0.2608 -0.8899
 3669TIP3    H232567   5.438   0.267   1.255 -0.8366  1.2412 -1.6467
 3670TIP3   OH232568   2.425   5.138   7.353 -0.4215  0.2945  0.4778
 3670TIP3    H132569   2.354   5.192   7.318 -0.7978 -0.9010 -0.6873
 3670TIP3    H232570   2.462   5.191   7.424 -1.0894  1.8509 -0.2712
 3671TIP3   OH232571   3.935   0.366   7.439  0.3870  0.1817 -0.0816
 3671TIP3    H132572   3.923   0.348   7.346 -0.9877  4.4893 -0.9851
 3671TIP3    H232573   3.888   0.296   7.484 -2.6682  0.2759 -2.8062
 3672TIP3   OH232574   3.307   5.753   1.614  0.8346  0.5518  0.5962
 3672TIP3    H132575   3.290   5.777   1.705  0.5712  0.0703  0.6811
 3672TIP3    H232576   3.333   5.661   1.619  1.5845  0.7366  0.2612
 3673TIP3   OH232577   6.017   5.035   7.529 -0.4546 -0.1687 -0.2066
 3673TIP3    H132578   5.936   5.079   7.502  1.0397  1.0886 -3.0261
 3673TIP3    H232579   6.064   5.100   7.581 -0.0795  0.0935 -0.8651
 3674TIP3   OH232580   4.844   5.739   1.324 -0.3982  0.3673  0.0935
 3674TIP3    H132581   4.779   5.753   1.393  0.1546 -1.7784  1.1234
 3674TIP3    H232582   4.817   5.657   1.283  2.3581 -1.3882  1.5000
 3675TIP3   OH232583   6.089   4.601   2.441 -0.2704  0.5743  0.0295
 3675TIP3    H132584   6.003   4.645   2.444 -0.3739  0.3893 -0.2041
 3675TIP3    H232585   6.091   4.560   2.355 -0.8485 -1.2260  0.8278
 3676TIP3   OH232586   0.430   2.173   8.675  0.0507  0.0791 -0.3053
 3676TIP3    H132587   0.506   2.134   8.632  0.8000  0.3732  0.7026
 3676TIP3    H232588   0.374   2.203   8.604  1.1583  0.3855 -1.0637
 3677TIP3   OH232589   4.228   6.649   6.943 -0.5006  0.1895 -0.1424
 3677TIP3    H132590   4.227   6.679   6.852 -0.3425  0.2593 -0.1205
 3677TIP3    H232591   4.309   6.599   6.951  1.1910  2.8811  0.8271
 3678TIP3   OH232592   2.041   2.775   2.216 -0.2334  0.4206 -0.5246
 3678TIP3    H132593   2.006   2.772   2.127 -0.9708 -0.7560 -0.2234
 3678TIP3    H232594   2.025   2.687   2.251 -2.8281  1.6640  1.8282
 3679TIP3   OH232595   0.750   4.384   7.375 -0.0951  0.1593  0.0395
 3679TIP3    H132596   0.811   4.313   7.355  0.3790  0.9376 -1.5750
 3679TIP3    H232597   0.730   4.422   7.289 -2.1318  0.5295  0.6415
 3680TIP3   OH232598   3.605   5.401   0.303  0.4407  0.2561  0.1402
 3680TIP3    H132599   3.687   5.428   0.263 -0.0923  4.6186  1.5550
 3680TIP3    H232600   3.537   5.436   0.246 -0.4981 -1.2817  0.2304
 3681TIP3   OH232601   3.574   3.480   8.647  0.5126 -0.1731 -0.0089
 3681TIP3    H132602   3.597   3.519   8.731  2.3818 -3.4530  1.1746
 3681TIP3    H232603   3.652   3.431   8.621 -0.5139 -0.4176 -2.9820
 3682TIP3   OH232604   2.204   3.917   7.357 -0.6056 -0.0729 -0.1554
 3682TIP3    H132605   2.268   3.862   7.312  0.5791 -1.8920  3.3834
 3682TIP3    H232606   2.258   3.978   7.409 -1.7295 -0.3623  1.4238
 3683TIP3   OH232607   4.293   2.949   6.848  0.1173 -0.1537 -0.7927
 3683TIP3    H132608   4.229   2.911   6.787  0.5024 -0.4048 -1.0404
 3683TIP3    H232609   4.241   2.969   6.926 -0.2882 -0.2619 -1.0295
 3684TIP3   OH232610   1.597   4.220   7.765  0.1829  0.6824  0.2112
 3684TIP3    H132611   1.582   4.304   7.722 -0.0378  0.8117  0.5339
 3684TIP3    H232612   1.626   4.244   7.853  0.7592  0.4230  0.0926
 3685TIP3   OH232613   5.064   0.728   7.525  0.4378 -0.2349  0.2803
 3685TIP3    H132614   5.041   0.803   7.580  3.1822  1.1052 -0.2037
 3685TIP3    H232615   5.083   0.658   7.588  1.7825  0.7402  1.0220
 3686TIP3   OH232616   0.949   1.835   1.803 -0.3302  0.0652  0.1206
 3686TIP3    H132617   1.007   1.904   1.833 -0.5296 -0.1732  1.1053
 3686TIP3    H232618   1.007   1.768   1.767 -0.0314  0.0725  0.5856
 3687TIP3   OH232619   2.436   5.591   0.035  0.0299 -0.1981 -0.6267
 3687TIP3    H132620   2.374   5.644   0.085  0.8253  1.5343 -1.3954
 3687TIP3    H232621   2.412   5.606  -0.057  1.0628 -0.1347 -0.9017
 3688TIP3   OH232622   3.173   6.255   6.625  0.8752 -0.5043  0.0909
 3688TIP3    H132623   3.123   6.337   6.620  0.2439 -0.9258 -0.7829
 3688TIP3    H232624   3.253   6.274   6.576  0.6660 -0.4552 -0.2343
 3689TIP3   OH232625   4.480   5.208   2.169  0.0144  0.1040 -0.4537
 3689TIP3    H132626   4.514   5.119   2.160  0.3046 -0.0274  1.4622
 3689TIP3    H232627   4.541   5.263   2.121  1.3848 -0.4475  0.6047
 3690TIP3   OH232628   6.159   5.223   7.002 -0.3228 -0.1285  0.0747
 3690TIP3    H132629   6.161   5.255   6.911  2.0129  1.0630  0.4634
 3690TIP3    H232630   6.194   5.134   6.997  1.6246  0.5979 -0.0354
 3691TIP3   OH232631   2.422   2.018   1.078 -0.2799  0.5291 -0.0773
 3691TIP3    H132632   2.385   2.082   1.017  1.8124  0.5808 -1.3785
 3691TIP3    H232633   2.345   1.982   1.124 -2.1764 -0.3643 -3.5547
 3692TIP3   OH232634   5.739   5.397   7.529  0.0441  0.2670  0.4317
 3692TIP3    H132635   5.700   5.331   7.586  0.0812 -0.9646 -0.9190
 3692TIP3    H232636   5.679   5.405   7.455  0.4626  1.1465  0.1607
 3693TIP3   OH232637   0.701   4.353   2.038 -0.3148  0.2209 -0.3973
 3693TIP3    H132638   0.699   4.416   1.966 -0.5496  0.5770 -0.0878
 3693TIP3    H232639   0.739   4.403   2.111 -3.7167  1.1783  0.9167
 3694TIP3   OH232640   0.748   2.622   7.429  0.6766 -0.2545 -0.0593
 3694TIP3    H132641   0.755   2.715   7.406  0.4018 -0.4225 -0.8694
 3694TIP3    H232642   0.662   2.613   7.468  0.6235 -0.1998 -0.1626
 3695TIP3   OH232643   1.944   3.886   7.254 -0.0235  0.2322  0.1051
 3695TIP3    H132644   2.026   3.863   7.297  0.0532 -0.6693 -0.5053
 3695TIP3    H232645   1.969   3.954   7.191  0.1922  0.1960  0.1502
 3696TIP3   OH232646   6.470   3.135   6.819  0.0479 -0.4326  0.2316
 3696TIP3    H132647   6.475   3.186   6.899  0.2755 -0.5126  0.2704
 3696TIP3    H232648   6.518   3.186   6.754 -0.7418 -0.0230 -0.0449
 3697TIP3   OH232649   5.993   0.177   0.060 -0.0735  0.0297  0.6490
 3697TIP3    H132650   5.974   0.216   0.146 -1.3359  0.3477  0.2424
 3697TIP3    H232651   6.024   0.089   0.080 -1.7188 -0.4185  1.3946
 3698TIP3   OH232652   4.348   1.308   8.647  0.2025 -0.8412  0.7651
 3698TIP3    H132653   4.287   1.376   8.676 -1.2089 -1.2543 -1.0753
 3698TIP3    H232654   4.426   1.322   8.700  0.0778  2.4175  0.3046
 3699TIP3   OH232655   5.289   1.185   6.968  0.1375 -0.2248 -0.1098
 3699TIP3    H132656   5.273   1.177   7.062  3.2817 -0.6552  0.5152
 3699TIP3    H232657   5.246   1.110   6.929  0.9800 -1.5337  1.3809
 3700TIP3   OH232658   2.357   4.984   0.552  0.1093  0.0721  0.2066
 3700TIP3    H132659   2.435   4.967   0.500  0.4977  0.8571  0.5028
 3700TIP3    H232660   2.362   5.078   0.572  0.6305 -0.4039  2.6658
 3701TIP3   OH232661   0.193   0.419   7.825 -0.6114 -0.2139  0.5574
 3701TIP3    H132662   0.133   0.380   7.889 -1.6936 -0.2303 -0.4249
 3701TIP3    H232663   0.178   0.369   7.745 -0.9092  1.2102 -0.3092
 3702TIP3   OH232664   3.270   3.828   7.634 -0.4832  0.5733 -0.2162
 3702TIP3    H132665   3.226   3.800   7.554 -2.0022 -0.2452  0.8406
 3702TIP3    H232666   3.219   3.902   7.665 -0.2258  0.5571  0.2524
 3703TIP3   OH232667   5.499   3.978   1.625  0.0001 -0.3919  0.3236
 3703TIP3    H132668   5.431   3.937   1.678 -1.2425  0.7984 -0.3074
 3703TIP3    H232669   5.558   4.019   1.689 -0.6768 -0.1886  0.8228
 3704TIP3   OH232670   0.503   2.224   6.346  0.9229  0.1162  0.1556
 3704TIP3    H132671   0.506   2.138   6.305  1.3446 -0.0687  0.5678
 3704TIP3    H232672   0.412   2.253   6.335  0.8425 -0.2727 -0.2001
 3705TIP3   OH232673   5.843   0.658   1.390 -0.2255  0.0513 -0.0075
 3705TIP3    H132674   5.811   0.604   1.462 -2.4716  0.9877 -0.2053
 3705TIP3    H232675   5.854   0.597   1.317 -2.4125 -0.2903 -0.1408
 3706TIP3   OH232676   5.679   4.546   8.479 -0.0904 -0.9909  0.6056
 3706TIP3    H132677   5.752   4.575   8.423 -2.0716  3.6024 -0.0254
 3706TIP3    H232678   5.682   4.605   8.554 -2.9079 -0.8995  0.7213
 3707TIP3   OH232679   6.023   5.102   8.624 -0.2363 -0.0943 -0.4822
 3707TIP3    H132680   5.998   5.034   8.687 -2.4702  2.1086  1.1464
 3707TIP3    H232681   5.947   5.111   8.567 -0.2438  1.4896 -0.2442
 3708TIP3   OH232682   6.673   0.373   2.244  0.4934 -0.1503 -0.2253
 3708TIP3    H132683   6.614   0.405   2.313  0.5642  0.3799 -0.4043
 3708TIP3    H232684   6.631   0.400   2.162  1.9271  2.0351 -0.3386
 3709TIP3   OH232685   0.672   1.813   0.336 -0.4068  0.1772  0.0160
 3709TIP3    H132686   0.608   1.879   0.309 -0.0093  1.5110  2.0738
 3709TIP3    H232687   0.748   1.864   0.364  0.9170 -1.3023 -0.7065
 3710TIP3   OH232688   4.922   2.344   0.628 -0.4153  0.1502  0.2016
 3710TIP3    H132689   4.832   2.325   0.653 -0.0239  0.8282  2.3247
 3710TIP3    H232690   4.971   2.266   0.652 -0.4825 -0.4945 -1.5849
 3711TIP3   OH232691   4.569   3.187   8.021  0.2296  0.1615  0.2311
 3711TIP3    H132692   4.554   3.173   7.927  1.7601  2.1760 -0.3612
 3711TIP3    H232693   4.579   3.281   8.031  0.4392 -0.0327  2.3981
 3712TIP3   OH232694   0.360   4.164   0.767  0.3274  0.0305  0.1129
 3712TIP3    H132695   0.452   4.189   0.758  0.3869 -0.0005  0.6108
 3712TIP3    H232696   0.332   4.144   0.677  1.1294 -1.0830  0.0840
 3713TIP3   OH232697   1.123   1.722   7.570  0.1571  0.1808  0.4942
 3713TIP3    H132698   1.154   1.722   7.479 -0.9744 -2.0086  0.0160
 3713TIP3    H232699   1.198   1.752   7.621  1.6793 -0.9244 -0.9572
 3714TIP3   OH232700   0.277   5.854   8.389 -0.6282 -0.0234  0.5134
 3714TIP3    H132701   0.191   5.882   8.420 -0.3717  0.4606  0.8035
 3714TIP3    H232702   0.338   5.918   8.426 -0.1821 -0.1487  0.0157
 3715TIP3   OH232703   2.122   1.782   0.557 -0.0133  0.8730 -0.1469
 3715TIP3    H132704   2.149   1.803   0.467  0.8089  0.6505  0.0374
 3715TIP3    H232705   2.035   1.744   0.547  0.1028  0.7686 -0.8637
 3716TIP3   OH232706   3.096   3.800   0.657 -0.0220 -0.3752 -0.5315
 3716TIP3    H132707   3.058   3.744   0.723  0.1702  1.6832  1.4454
 3716TIP3    H232708   3.022   3.834   0.607 -0.3643 -0.3084  0.0190
 3717TIP3   OH232709   0.021   5.525   8.474 -0.0722  0.1975 -0.4491
 3717TIP3    H132710   0.115   5.512   8.467  0.0146  0.9088 -0.6087
 3717TIP3    H232711   0.010   5.617   8.497 -0.6770 -0.2443  1.1838
 3718TIP3   OH232712   1.091   2.023   7.362 -0.1149 -0.7120  0.2407
 3718TIP3    H132713   0.998   2.045   7.353  0.0067  0.1170  0.8386
 3718TIP3    H232714   1.137   2.094   7.316  0.2361 -0.7746  0.4907
 3719TIP3   OH232715   3.836   6.070   0.797 -0.4700 -0.0260  0.8460
 3719TIP3    H132716   3.794   5.984   0.788 -1.4336  0.5254 -0.2252
 3719TIP3    H232717   3.882   6.083   0.714  2.0178 -0.6653  2.0252
 3720TIP3   OH232718   1.201   6.751   8.549 -0.2302  0.0090  0.2636
 3720TIP3    H132719   1.195   6.832   8.499 -0.1639 -0.5821 -0.7378
 3720TIP3    H232720   1.226   6.778   8.637 -0.6606  1.1060  0.0603
 3721TIP3   OH232721   5.323   5.603   8.584  0.5392 -0.3312 -0.0836
 3721TIP3    H132722   5.370   5.605   8.501  1.3017 -0.8094  0.3282
 3721TIP3    H232723   5.350   5.521   8.626  2.5328  1.2225  1.9597
 3722TIP3   OH232724   0.857   3.642   0.056  0.3345 -0.2195 -0.2713
 3722TIP3    H132725   0.895   3.712   0.110  0.0920  1.7674 -2.4952
 3722TIP3    H232726   0.803   3.592   0.117  0.5045  1.5457  1.4477
 3723TIP3   OH232727   4.311   3.960   8.004 -0.7259 -0.1789 -0.1054
 3723TIP3    H132728   4.317   3.887   8.066 -1.0476 -1.3364 -1.3843
 3723TIP3    H232729   4.317   4.038   8.059 -0.2344 -1.1543  1.2986
 3724TIP3   OH232730   6.115   2.953   7.802  0.2853  0.4944  0.1748
 3724TIP3    H132731   6.179   2.886   7.780 -0.2968 -0.0520  0.0988
 3724TIP3    H232732   6.123   2.964   7.897  0.2960  0.2222  0.2067
 3725TIP3   OH232733   1.839   4.092   8.124  0.2139  0.7238 -0.7731
 3725TIP3    H132734   1.852   4.171   8.070 -2.6842  1.0495 -1.1970
 3725TIP3    H232735   1.789   4.033   8.068 -1.3182  0.3289  0.9002
 3726TIP3   OH232736   6.339   2.790   1.450 -0.3517  0.1623 -0.0995
 3726TIP3    H132737   6.271   2.831   1.504 -0.1907 -0.6975  0.7746
 3726TIP3    H232738   6.304   2.704   1.428  0.6166 -0.4472  0.6962
 3727TIP3   OH232739   5.577   6.208   1.994 -0.8616 -0.2132  0.7107
 3727TIP3    H132740   5.661   6.252   2.007  0.1462 -1.1044 -1.9106
 3727TIP3    H232741   5.586   6.126   2.042 -1.5679  1.0397  3.1066
 3728TIP3   OH232742   2.115   2.655   8.543  0.0957  0.4041 -0.8321
 3728TIP3    H132743   2.198   2.702   8.550  0.7224 -0.7160 -0.4816
 3728TIP3    H232744   2.137   2.565   8.567 -1.2149  0.0819 -0.8027
 3729TIP3   OH232745   5.094   6.522   0.426  0.1081  0.1985 -0.2576
 3729TIP3    H132746   5.069   6.597   0.372 -0.9028  0.6203  0.7626
 3729TIP3    H232747   5.115   6.453   0.363  1.2383  1.3726 -1.2238
 3730TIP3   OH232748   1.271   1.294   8.337 -0.5002 -0.0875  0.3777
 3730TIP3    H132749   1.261   1.207   8.299 -0.9067 -1.1930  2.7977
 3730TIP3    H232750   1.312   1.346   8.268 -0.0446 -2.2427 -1.0857
 3731TIP3   OH232751   5.270   1.918   1.603 -0.2168 -0.1280  0.4152
 3731TIP3    H132752   5.339   1.867   1.646 -1.0978 -0.3237  1.6539
 3731TIP3    H232753   5.304   1.935   1.515 -0.5630 -4.4453 -0.7851
 3732TIP3   OH232754   2.710   5.026   0.163  0.1733  0.3362  0.0549
 3732TIP3    H132755   2.675   5.091   0.101 -1.3647  0.0412  0.5701
 3732TIP3    H232756   2.710   4.944   0.114 -1.2838  0.0539  0.5031
 3733TIP3   OH232757   5.203   4.878   7.408 -0.1795 -0.1865  0.4493
 3733TIP3    H132758   5.266   4.805   7.407  0.0428 -0.0204 -1.5371
 3733TIP3    H232759   5.140   4.853   7.475 -0.5604 -2.6608 -0.6918
 3734TIP3   OH232760   4.373   1.017   0.282 -0.0832 -0.1449 -0.3412
 3734TIP3    H132761   4.350   1.021   0.189  0.4474  1.4805 -0.4343
 3734TIP3    H232762   4.457   1.062   0.287 -1.2995  2.0951  1.2654
 3735TIP3   OH232763   3.148   5.985   7.760 -0.4495  0.3147 -0.0080
 3735TIP3    H132764   3.219   5.934   7.721 -0.7106 -0.0522 -0.0147
 3735TIP3    H232765   3.075   5.974   7.699 -0.3338  1.1803 -0.3069
 3736TIP3   OH232766   6.607   4.664   7.837 -0.0289 -0.2971 -0.3635
 3736TIP3    H132767   6.625   4.732   7.772  3.9242 -0.2302  0.5228
 3736TIP3    H232768   6.567   4.710   7.911 -1.2260  0.2544 -1.3298
 3737TIP3   OH232769   0.989   5.270   1.455  0.4259  0.5747 -0.6717
 3737TIP3    H132770   0.923   5.266   1.524 -0.4495 -2.4476 -1.5429
 3737TIP3    H232771   0.964   5.346   1.402 -0.7870  1.0220  0.4925
 3738TIP3   OH232772   0.709   3.416   8.560 -0.8742 -0.2941 -0.4530
 3738TIP3    H132773   0.761   3.339   8.537 -0.8852 -0.4682  0.0869
 3738TIP3    H232774   0.772   3.476   8.599 -0.3971  0.9405 -2.9202
 3739TIP3   OH232775   3.048   0.719   0.271  0.4549 -0.3776  0.4553
 3739TIP3    H132776   3.118   0.784   0.267 -0.5058  0.6483 -0.9210
 3739TIP3    H232777   2.974   0.767   0.310  0.1416 -1.0661  0.7117
 3740TIP3   OH232778   2.576   1.412   2.490 -0.3702 -0.5529  0.3662
 3740TIP3    H132779   2.530   1.344   2.540 -2.3743  0.2230 -0.3231
 3740TIP3    H232780   2.547   1.494   2.529 -1.3535  0.0432 -1.5098
 3741TIP3   OH232781   6.129   3.711   1.351 -0.8049  0.0386 -0.0026
 3741TIP3    H132782   6.091   3.727   1.265  0.0009  0.0815 -0.3601
 3741TIP3    H232783   6.174   3.627   1.343 -1.2639 -0.2679  0.5688
 3742TIP3   OH232784   1.923   2.487   6.248 -0.1669 -0.2664  0.5820
 3742TIP3    H132785   1.828   2.473   6.250 -0.4789  1.6327  2.1164
 3742TIP3    H232786   1.937   2.548   6.175 -0.0697 -0.8358  0.1212
 3743TIP3   OH232787   0.488   1.814   8.218  0.2325 -0.0316 -0.1546
 3743TIP3    H132788   0.444   1.880   8.272  1.0892 -0.8550  1.6385
 3743TIP3    H232789   0.441   1.815   8.135  0.5569  3.2231 -0.4139
 3744TIP3   OH232790   0.541   2.988   1.591 -0.6672  0.1268 -0.0376
 3744TIP3    H132791   0.494   2.905   1.593 -0.1033 -0.1928  0.2966
 3744TIP3    H232792   0.557   3.009   1.683  0.8842 -0.3898 -0.1564
 3745TIP3   OH232793   2.957   6.232   7.051 -0.3096  0.1573 -0.3800
 3745TIP3    H132794   2.953   6.202   7.142 -2.2037  1.6382  0.0710
 3745TIP3    H232795   2.875   6.203   7.012 -0.5980  1.6029 -0.9208
 3746TIP3   OH232796   3.112   6.450   6.313 -0.7990 -0.6194 -0.3785
 3746TIP3    H132797   3.039   6.478   6.258  0.5683 -0.7106 -2.3597
 3746TIP3    H232798   3.190   6.475   6.263  0.6239  1.1447  2.4602
 3747TIP3   OH232799   4.628   0.406   7.976  0.0282 -0.0318 -0.1637
 3747TIP3    H132800   4.711   0.426   7.933  0.7586  0.6092  1.4467
 3747TIP3    H232801   4.616   0.477   8.039 -1.8097 -0.0578 -0.4272
 3748TIP3   OH232802   5.921   6.296   8.143  0.0743  0.1824  0.0945
 3748TIP3    H132803   5.885   6.361   8.082 -0.4372 -1.7440 -1.8007
 3748TIP3    H232804   5.994   6.341   8.186  0.7813  1.5542 -2.3213
 3749TIP3   OH232805   2.877   5.515   7.660  0.5407 -0.6876  0.5529
 3749TIP3    H132806   2.878   5.544   7.751 -1.6032  1.4768 -0.0170
 3749TIP3    H232807   2.959   5.468   7.649  0.5703 -1.5983  3.7578
 3750TIP3   OH232808   6.201   3.717   7.461  0.2302 -0.0663  0.2642
 3750TIP3    H132809   6.106   3.708   7.465  0.1204  0.8593 -0.0874
 3750TIP3    H232810   6.217   3.776   7.387  1.3216 -3.4439 -2.4877
 3751TIP3   OH232811   4.236   5.203   8.679 -0.9689 -0.5514 -0.4287
 3751TIP3    H132812   4.178   5.138   8.720  0.4008 -1.0539  0.7944
 3751TIP3    H232813   4.318   5.157   8.665  0.3287  1.0735  1.2255
 3752TIP3   OH232814   2.411   3.961   2.125 -0.0028 -0.0016 -0.6720
 3752TIP3    H132815   2.346   3.919   2.182 -1.0892  1.5014 -0.7300
 3752TIP3    H232816   2.429   4.045   2.167  0.4474  0.4180 -1.6725
 3753TIP3   OH232817   6.806   0.607   7.180  0.5823  0.1474 -0.3562
 3753TIP3    H132818   6.770   0.650   7.102  0.1060  0.5125  0.0513
 3753TIP3    H232819   6.809   0.514   7.158  1.9102  0.4120 -1.3618
 3754TIP3   OH232820   0.287   1.248   2.236 -0.1369  0.0976 -0.1710
 3754TIP3    H132821   0.298   1.317   2.171 -1.3122  1.3892  0.9406
 3754TIP3    H232822   0.303   1.291   2.320  0.9031 -1.4251  0.4564
 3755TIP3   OH232823   6.420   1.931   6.789 -0.7396  0.3201  0.5630
 3755TIP3    H132824   6.490   1.961   6.846 -2.0556  0.8510  1.9700
 3755TIP3    H232825   6.416   1.995   6.718  1.2071 -0.5890 -0.4382
 3756TIP3   OH232826   5.374   3.277   8.413  0.2511 -0.3093 -0.0103
 3756TIP3    H132827   5.329   3.335   8.351  1.7542 -0.8746 -1.7107
 3756TIP3    H232828   5.376   3.192   8.369 -0.2737 -1.2134  1.6470
 3757TIP3   OH232829   0.212   0.711   8.021 -0.8772 -0.1157 -0.6730
 3757TIP3    H132830   0.262   0.634   8.049 -1.0888  0.4193  1.3675
 3757TIP3    H232831   0.271   0.758   7.963  0.1279 -0.6829 -0.1501
 3758TIP3   OH232832   3.471   3.847   8.174 -0.0205  0.1706 -0.1831
 3758TIP3    H132833   3.458   3.830   8.081 -1.4904  0.7268 -0.1136
 3758TIP3    H232834   3.553   3.803   8.196 -0.9536 -2.2475 -1.1720
 3759TIP3   OH232835   1.585   5.169   0.680  0.8510 -0.0273 -0.2003
 3759TIP3    H132836   1.634   5.096   0.642  1.9905  0.5361  0.1413
 3759TIP3    H232837   1.514   5.127   0.729  2.1850 -0.9834  0.9874
 3760TIP3   OH232838   1.458   5.803   6.343 -0.0038  0.4180 -0.0645
 3760TIP3    H132839   1.452   5.749   6.265  0.2898  0.3092 -0.0124
 3760TIP3    H232840   1.401   5.760   6.407 -0.0414  0.3641 -0.1354
 3761TIP3   OH232841   2.483   4.267   7.814 -0.0479  0.5932  0.6484
 3761TIP3    H132842   2.424   4.316   7.872 -0.0521 -0.5999  1.7023
 3761TIP3    H232843   2.429   4.194   7.782  0.5159  0.1586  0.6814
 3762TIP3   OH232844   0.259   1.635   1.165 -0.1131 -0.0276  0.2787
 3762TIP3    H132845   0.257   1.541   1.182  0.5498  0.1034  1.1674
 3762TIP3    H232846   0.221   1.675   1.243  1.5852  0.5208  0.8823
 3763TIP3   OH232847   1.290   4.022   7.208  0.2731  0.1164  0.1747
 3763TIP3    H132848   1.328   4.098   7.164 -0.0753 -1.2093 -2.6970
 3763TIP3    H232849   1.207   4.007   7.161 -0.0985 -1.4906  1.2796
 3764TIP3   OH232850   6.608   2.834   8.448  0.2355  0.9804  0.0050
 3764TIP3    H132851   6.704   2.831   8.451  0.2394 -1.0240 -0.6849
 3764TIP3    H232852   6.582   2.845   8.539  1.0862  3.7370  0.0251
 3765TIP3   OH232853   4.286   5.375   1.730  0.4889  0.8110 -0.4682
 3765TIP3    H132854   4.371   5.334   1.742 -0.3560 -1.9171 -2.7704
 3765TIP3    H232855   4.243   5.369   1.816  2.1717  1.3055  0.4414
 3766TIP3   OH232856   6.762   4.988   1.301 -0.0745 -0.1066  0.4309
 3766TIP3    H132857   6.699   4.919   1.323  0.3635 -0.1056  1.7645
 3766TIP3    H232858   6.711   5.069   1.304 -0.2480 -0.2142  0.4062
 3767TIP3   OH232859   4.848   6.501   7.407 -0.4063 -0.1566  0.2023
 3767TIP3    H132860   4.798   6.561   7.350  0.3544  0.0278 -0.2864
 3767TIP3    H232861   4.935   6.499   7.368  0.2883  0.3836  1.6751
 3768TIP3   OH232862   3.388   1.316   6.683  0.0162 -0.1408  0.5986
 3768TIP3    H132863   3.350   1.376   6.747 -1.1726  1.1630 -1.2371
 3768TIP3    H232864   3.483   1.326   6.694 -0.1595  1.4886  0.8898
 3769TIP3   OH232865   3.673   2.008   8.283  0.4591  0.0481  0.0685
 3769TIP3    H132866   3.755   2.031   8.326 -1.0796  2.4907  1.9834
 3769TIP3    H232867   3.652   1.921   8.316  2.7206 -1.0738 -1.2713
 3770TIP3   OH232868   5.427   0.064   1.572  0.2383 -0.1666 -0.1135
 3770TIP3    H132869   5.457   0.002   1.505  0.0509 -0.5237  0.1286
 3770TIP3    H232870   5.348   0.103   1.535  0.2122 -0.2632 -0.1601
 3771TIP3   OH232871   0.628   1.390   6.272  0.3703  0.2071 -0.5446
 3771TIP3    H132872   0.664   1.466   6.226 -0.1204 -0.0103 -1.2946
 3771TIP3    H232873   0.533   1.401   6.268  0.2828  1.4168  2.5012
 3772TIP3   OH232874   2.048   3.666   0.011 -0.0384 -0.8414 -0.4033
 3772TIP3    H132875   1.953   3.661   0.023  0.0423  1.2184  1.7531
 3772TIP3    H232876   2.059   3.718  -0.069 -0.8030  1.4136  0.8925
 3773TIP3   OH232877   1.438   1.209   7.937 -0.5852  0.1182  0.4004
 3773TIP3    H132878   1.426   1.157   7.857 -0.5935  1.5826 -0.5865
 3773TIP3    H232879   1.458   1.144   8.004  0.4399 -1.0830 -0.9919
 3774TIP3   OH232880   0.184   4.699   0.373 -0.1074 -0.2675  0.6023
 3774TIP3    H132881   0.184   4.784   0.328  0.5280 -1.1981 -1.2754
 3774TIP3    H232882   0.093   4.670   0.369 -0.1293 -0.1582  0.2409
 3775TIP3   OH232883   5.711   3.946   1.929  0.3329  0.3254  0.2503
 3775TIP3    H132884   5.715   3.912   1.840 -0.2511 -0.3407  0.4658
 3775TIP3    H232885   5.792   3.916   1.970  0.5979  0.6249 -0.0537
 3776TIP3   OH232886   6.254   3.418   6.491  0.6385  0.1080 -0.1336
 3776TIP3    H132887   6.314   3.449   6.423 -1.1718  2.2957 -0.8606
 3776TIP3    H232888   6.300   3.435   6.573  1.7253  0.0465 -0.7160
 3777TIP3   OH232889   6.203   0.210   0.447 -0.4755 -0.0514 -0.4292
 3777TIP3    H132890   6.214   0.283   0.507 -1.0862 -0.2073 -0.1159
 3777TIP3    H232891   6.282   0.210   0.394 -0.0863  0.3078  0.1423
 3778TIP3   OH232892   1.823   5.552   0.103  0.2570 -0.0681  0.4469
 3778TIP3    H132893   1.782   5.485   0.048  0.9507 -0.8117  0.8235
 3778TIP3    H232894   1.888   5.505   0.154  0.3891  0.8079  1.1087
 3779TIP3   OH232895   5.769   4.262   7.728  0.0243 -0.1736  0.1728
 3779TIP3    H132896   5.752   4.356   7.735 -1.0271 -0.4753  2.9176
 3779TIP3    H232897   5.688   4.227   7.689  0.0740 -0.0368 -0.0555
 3780TIP3   OH232898   3.595   2.319   7.891 -0.0537 -0.6233  0.1610
 3780TIP3    H132899   3.620   2.298   7.981  2.4242 -2.1868 -0.7722
 3780TIP3    H232900   3.648   2.396   7.868 -0.2308 -0.5834 -0.1223
 3781TIP3   OH232901   6.463   4.896   1.107 -0.3016 -0.2735 -0.5279
 3781TIP3    H132902   6.437   4.878   1.017  0.9863 -2.4125 -0.5456
 3781TIP3    H232903   6.502   4.983   1.104  1.2429 -0.9434 -2.4329
 3782TIP3   OH232904   0.396   2.875   8.108  0.4049  0.3337 -0.2805
 3782TIP3    H132905   0.377   2.949   8.166  0.2767 -1.1468  1.6819
 3782TIP3    H232906   0.457   2.821   8.158  0.2549 -1.0464 -1.5276
 3783TIP3   OH232907   6.120   4.981   7.168 -0.0807  0.3184 -0.2820
 3783TIP3    H132908   6.066   4.907   7.196 -1.4350  1.1173 -0.6663
 3783TIP3    H232909   6.162   4.950   7.088  2.3250 -1.3069  1.4781
 3784TIP3   OH232910   5.251   6.605   0.912 -0.2886  0.0085 -0.6466
 3784TIP3    H132911   5.196   6.582   0.987  0.0583  0.0885 -0.3626
 3784TIP3    H232912   5.241   6.532   0.852 -1.2320  0.3269 -0.9028
 3785TIP3   OH232913   0.359   4.477   1.476  0.8337 -0.0459  0.3698
 3785TIP3    H132914   0.430   4.528   1.516  0.9900 -1.3019  1.7941
 3785TIP3    H232915   0.403   4.401   1.438  0.3111 -0.6179  0.8873
 3786TIP3   OH232916   0.556   5.452   6.018  0.0947  0.8573  0.2592
 3786TIP3    H132917   0.531   5.472   6.108  1.1325  0.8066  0.5738
 3786TIP3    H232918   0.501   5.378   5.993 -0.6675  1.2980  0.6109
 3787TIP3   OH232919   3.046   4.137   6.616 -0.2165  0.4478 -0.4303
 3787TIP3    H132920   2.952   4.127   6.603 -0.0153 -1.4891 -0.6513
 3787TIP3    H232921   3.071   4.207   6.556 -1.6981  1.9656  0.6247
 3788TIP3   OH232922   4.349   0.786   8.524 -0.3682  0.2281  0.5575
 3788TIP3    H132923   4.348   0.726   8.599 -0.1954  0.2176  0.5518
 3788TIP3    H232924   4.322   0.870   8.561 -2.9667 -0.3353  0.1327
 3789TIP3   OH232925   2.483   0.804   7.177  0.2832  0.0867 -0.1984
 3789TIP3    H132926   2.421   0.740   7.212 -0.0216 -0.1783 -1.2039
 3789TIP3    H232927   2.562   0.754   7.160  0.7432  0.3913  0.9186
 3790TIP3   OH232928   2.184   2.136   1.653 -0.0789  0.1640 -0.2451
 3790TIP3    H132929   2.102   2.161   1.695  0.5598  0.1982  1.0101
 3790TIP3    H232930   2.159   2.113   1.563 -1.1826  1.9704 -0.4511
 3791TIP3   OH232931   5.168   0.741   1.008  0.2172  0.7592  0.4797
 3791TIP3    H132932   5.177   0.646   1.014  0.3661  0.8267  1.6335
 3791TIP3    H232933   5.083   0.755   0.968  0.3569  0.1395 -0.0434
 3792TIP3   OH232934   3.966   2.734   6.930  0.5269 -0.0144  0.9719
 3792TIP3    H132935   3.989   2.736   7.023  1.2788 -0.2756  0.8014
 3792TIP3    H232936   3.992   2.646   6.901 -0.4633 -0.2279  0.6992
 3793TIP3   OH232937   4.532   3.897   7.386  0.1471 -0.2413  0.1106
 3793TIP3    H132938   4.473   3.824   7.409 -1.0230  0.6263 -0.0489
 3793TIP3    H232939   4.487   3.942   7.315  0.5202  1.0330  0.6615
 3794TIP3   OH232940   0.324   1.515   2.074  0.0479 -0.3521 -0.4285
 3794TIP3    H132941   0.360   1.589   2.123 -0.2455 -0.1769 -0.4785
 3794TIP3    H232942   0.278   1.555   2.000  0.5105 -0.6164 -0.8713
 3795TIP3   OH232943   4.299   0.756   7.656 -0.0600  0.2788  0.1116
 3795TIP3    H132944   4.238   0.682   7.655  1.6690 -1.2444  0.9373
 3795TIP3    H232945   4.385   0.715   7.662  0.9687  2.3865  0.5007
 3796TIP3   OH232946   2.146   2.407   8.643  0.0758 -0.0125  0.2066
 3796TIP3    H132947   2.063   2.372   8.610 -0.0154  1.2591 -1.0372
 3796TIP3    H232948   2.210   2.337   8.626 -0.0745  0.3725 -2.3328
 3797TIP3   OH232949   6.301   6.494   0.035  0.0321  0.3696  0.4317
 3797TIP3    H132950   6.258   6.409   0.024 -0.4613  0.7259 -0.4714
 3797TIP3    H232951   6.390   6.479   0.001 -0.6235  0.6954 -1.5412
 3798TIP3   OH232952   0.526   4.314   1.302 -0.3350 -0.1997 -0.4215
 3798TIP3    H132953   0.590   4.362   1.249  0.8533  0.2819  1.3338
 3798TIP3    H232954   0.522   4.227   1.262 -1.1222  0.7526 -2.5395
 3799TIP3   OH232955   1.852   3.748   0.504 -0.1730 -0.3531 -0.3694
 3799TIP3    H132956   1.814   3.748   0.416 -1.3125  0.3832  0.0896
 3799TIP3    H232957   1.779   3.722   0.561 -0.1223  1.4082  0.5874
 3800TIP3   OH232958   6.177   5.784   0.741 -0.2052  0.7166  0.0721
 3800TIP3    H132959   6.270   5.766   0.753 -0.5330 -1.1822  0.0851
 3800TIP3    H232960   6.158   5.855   0.803  1.3595  1.6660 -0.4764
 3801TIP3   OH232961   0.375   2.795   7.203  0.5532  0.0240  0.4452
 3801TIP3    H132962   0.439   2.740   7.159  1.3042  0.8031  0.5142
 3801TIP3    H232963   0.332   2.737   7.266  1.3567 -0.4703  0.5556
 3802TIP3   OH232964   1.769   6.008   7.691  0.4574 -0.1769  0.3034
 3802TIP3    H132965   1.769   6.028   7.784  1.9830  1.1024  0.0773
 3802TIP3    H232966   1.691   6.052   7.657  0.0271 -0.4511  0.9257
 3803TIP3   OH232967   5.629   4.988   8.431  0.1661  0.3390 -0.0525
 3803TIP3    H132968   5.638   4.908   8.484  0.2675  0.3004 -0.1301
 3803TIP3    H232969   5.601   4.956   8.345  0.8174  0.3408 -0.2667
 3804TIP3   OH232970   0.265   0.386   2.081 -0.0020 -0.1679 -0.1594
 3804TIP3    H132971   0.343   0.353   2.125  0.9628  1.0819 -0.8585
 3804TIP3    H232972   0.291   0.394   1.989 -1.3273 -0.7904 -0.6218
 3805TIP3   OH232973   3.422   0.336   7.575  0.0217 -0.2584 -0.0244
 3805TIP3    H132974   3.327   0.331   7.565  0.0853 -0.0583 -0.7454
 3805TIP3    H232975   3.440   0.281   7.652 -0.7869  0.5564  0.7845
 3806TIP3   OH232976   3.270   4.320   5.946  0.4907  0.1779  0.3338
 3806TIP3    H132977   3.176   4.326   5.931  0.4214 -1.8740 -0.4255
 3806TIP3    H232978   3.286   4.374   6.023 -1.0313  1.8330 -0.4444
 3807TIP3   OH232979   6.242   0.381   1.770 -0.0493  0.4618 -0.6427
 3807TIP3    H132980   6.236   0.411   1.861  1.0168 -1.5584  0.1596
 3807TIP3    H232981   6.283   0.454   1.724  0.1987  1.1904  0.6799
 3808TIP3   OH232982   1.153   0.362   1.864  0.4875 -0.0544  0.2147
 3808TIP3    H132983   1.209   0.287   1.845  0.7811 -0.3361  2.0087
 3808TIP3    H232984   1.209   0.422   1.913 -0.2177  0.5724  0.2706
 3809TIP3   OH232985   2.430   3.537   0.735  0.1454  1.0124  0.1634
 3809TIP3    H132986   2.411   3.629   0.753  0.3420  0.8739  1.1571
 3809TIP3    H232987   2.344   3.495   0.732  0.0760  1.1584  0.1240
 3810TIP3   OH232988   2.278   3.031   7.228  0.4888  0.0479  0.4556
 3810TIP3    H132989   2.335   3.081   7.170 -0.6731 -0.0460 -0.8034
 3810TIP3    H232990   2.333   2.960   7.261  1.2314  0.2478 -0.3393
 3811TIP3   OH232991   3.416   6.719   6.912 -0.0878  0.8228  0.4282
 3811TIP3    H132992   3.376   6.644   6.869 -0.1332  1.2372 -0.2539
 3811TIP3    H232993   3.427   6.784   6.843 -0.6230  1.6853  1.1355
 3812TIP3   OH232994   5.270   6.034   0.239 -0.0431  0.2280 -0.3625
 3812TIP3    H132995   5.249   6.115   0.194 -0.2255  0.4928  0.1929
 3812TIP3    H232996   5.333   5.990   0.182 -0.8816  0.1706 -1.2811
 3813TIP3   OH232997   0.874   3.722   7.409  0.0813  0.2043 -0.2062
 3813TIP3    H132998   0.890   3.689   7.497 -0.2597 -0.4656 -0.3864
 3813TIP3    H232999   0.857   3.815   7.421 -0.4050  0.0338  0.4895
 3814TIP3   OH233000   5.490   5.394   8.383  0.0815 -0.1658  0.0008
 3814TIP3    H133001   5.555   5.341   8.337 -0.0511 -0.2248 -0.1221
 3814TIP3    H233002   5.430   5.423   8.314  0.5969  0.8083 -0.0538
 3815TIP3   OH233003   2.889   0.796   1.775 -0.0651 -1.0291  0.0535
 3815TIP3    H133004   2.966   0.801   1.832 -0.7894 -0.3529  0.9864
 3815TIP3    H233005   2.833   0.731   1.816 -1.3124  0.6140  1.0271
 3816TIP3   OH233006   5.110   3.186   7.422 -0.0062  0.1311 -0.2064
 3816TIP3    H133007   5.062   3.263   7.391  0.3127  0.8540  1.0441
 3816TIP3    H233008   5.075   3.114   7.369 -0.7638  1.0228 -0.9621
 3817TIP3   OH233009   5.269   6.870   1.128 -0.3320  0.0679 -0.5197
 3817TIP3    H133010   5.229   6.889   1.212  0.7223  2.1335 -0.4255
 3817TIP3    H233011   5.310   6.784   1.140  1.3203  1.0658  1.7169
 3818TIP3   OH233012   0.816   6.295   0.514  0.0791 -0.1033  0.1034
 3818TIP3    H133013   0.859   6.237   0.451  1.3571 -0.0651  0.9040
 3818TIP3    H233014   0.887   6.327   0.569 -0.8911  0.5936  0.9808
 3819TIP3   OH233015   2.038   4.530   7.139 -0.1840 -0.1529 -0.1567
 3819TIP3    H133016   2.112   4.478   7.106 -0.0383  0.5620 -1.0003
 3819TIP3    H233017   1.960   4.484   7.107 -0.0497  0.3122 -1.1953
 3820TIP3   OH233018   4.636   0.291   0.685  0.7547  0.0085 -0.3001
 3820TIP3    H133019   4.590   0.255   0.761 -0.1509  1.5803 -0.0401
 3820TIP3    H233020   4.575   0.280   0.612 -0.0459  1.9742  0.0160
 3821TIP3   OH233021   3.413   4.487   7.464 -0.4627  0.0796 -0.0902
 3821TIP3    H133022   3.395   4.422   7.396 -1.8377 -0.1619  0.4812
 3821TIP3    H233023   3.496   4.459   7.503 -1.6693 -2.1669  1.0726
 3822TIP3   OH233024   2.748   5.493   8.180  0.1641 -0.2153 -0.5398
 3822TIP3    H133025   2.739   5.570   8.125  1.5433 -0.6431 -1.4211
 3822TIP3    H233026   2.770   5.422   8.119  0.5643 -0.9457  0.4254
 3823TIP3   OH233027   6.724   5.084   6.733  0.0195 -0.4941  0.3689
 3823TIP3    H133028   6.762   5.149   6.791  1.2595  0.9435 -1.9077
 3823TIP3    H233029   6.629   5.098   6.739  0.2339  1.0734  0.4498
 3824TIP3   OH233030   1.365   4.575   2.010 -0.1020  0.0944 -0.3769
 3824TIP3    H133031   1.305   4.514   2.053  1.3489 -0.3207  1.1848
 3824TIP3    H233032   1.328   4.661   2.026 -0.2175 -0.1421  0.7409
 3825TIP3   OH233033   4.896   3.147   6.776  0.1728 -0.4087 -0.2285
 3825TIP3    H133034   4.835   3.093   6.828 -0.1514  0.7743  0.6611
 3825TIP3    H233035   4.970   3.161   6.834  0.1355  0.3221 -0.3545
 3826TIP3   OH233036   3.900   3.465   7.347  0.7361  0.3127 -0.4142
 3826TIP3    H133037   3.856   3.529   7.291 -1.5776  1.0007  1.9919
 3826TIP3    H233038   3.960   3.517   7.400 -0.1611  0.3488  0.6039
 3827TIP3   OH233039   2.491   2.256   2.808  0.2120  0.1001 -0.1203
 3827TIP3    H133040   2.466   2.306   2.731 -0.1379  0.8262  0.4419
 3827TIP3    H233041   2.505   2.167   2.777  1.7277  0.7231 -1.3153
 3828TIP3   OH233042   4.991   5.374   7.553 -0.2412 -0.4493 -0.0035
 3828TIP3    H133043   4.895   5.371   7.546 -0.3848 -0.4558  1.4892
 3828TIP3    H233044   5.022   5.321   7.480 -1.3668 -0.2721 -0.6404
 3829TIP3   OH233045   5.135   3.859   6.666 -0.3668  0.3690 -0.3685
 3829TIP3    H133046   5.206   3.836   6.726 -0.1207  0.7245 -0.5226
 3829TIP3    H233047   5.097   3.775   6.641  0.7572  0.0929 -1.2137
 3830TIP3   OH233048   5.515   3.336   7.090  0.0740  0.0458 -0.0796
 3830TIP3    H133049   5.602   3.371   7.109  0.3876 -1.1459  0.8876
 3830TIP3    H233050   5.456   3.409   7.103  0.8099  0.5211  0.7191
 3831TIP3   OH233051   0.607   3.546   1.524  0.2969  0.0051 -0.5408
 3831TIP3    H133052   0.689   3.548   1.573 -0.4490  0.3959  0.7335
 3831TIP3    H233053   0.599   3.456   1.494  0.3611 -0.4602  0.7920
 3832TIP3   OH233054   2.914   2.086   7.552 -1.1647  0.1337 -0.1272
 3832TIP3    H133055   2.947   2.139   7.480  3.1634  0.7066  1.9069
 3832TIP3    H233056   2.939   1.997   7.530 -1.4493  0.0578 -0.1411
 3833TIP3   OH233057   3.718   3.372   6.548 -0.3088  0.6777  0.1097
 3833TIP3    H133058   3.711   3.320   6.629 -0.8212  0.0310 -0.3414
 3833TIP3    H233059   3.631   3.411   6.537 -1.0687 -1.2375 -1.4269
 3834TIP3   OH233060   2.902   1.451   7.456 -0.7097 -0.4743  0.2409
 3834TIP3    H133061   2.958   1.380   7.423 -0.1940  0.2492 -0.4866
 3834TIP3    H233062   2.937   1.472   7.542 -1.2795 -1.5312  0.7570
 3835TIP3   OH233063   2.620   3.152   8.592 -0.4481 -0.1476  0.1936
 3835TIP3    H133064   2.632   3.103   8.511  0.2599 -0.9217  0.7419
 3835TIP3    H233065   2.596   3.240   8.564 -2.7877 -1.0256 -0.8167
 3836TIP3   OH233066   3.959   6.209   7.468  0.5516  0.2050 -0.1241
 3836TIP3    H133067   3.985   6.130   7.516  0.3451  0.5405  0.5418
 3836TIP3    H233068   3.887   6.180   7.412  0.8096 -0.1904 -0.2676
 3837TIP3   OH233069   0.588   4.276   8.658  0.1215  0.0688  0.1411
 3837TIP3    H133070   0.656   4.241   8.600 -1.1178  0.1711 -1.4509
 3837TIP3    H233071   0.542   4.199   8.689  0.8508  0.0076  1.1167
 3838TIP3   OH233072   4.084   2.340   7.843  0.6476 -0.3724 -0.3981
 3838TIP3    H133073   4.026   2.289   7.787 -0.1516  1.2585 -1.1211
 3838TIP3    H233074   4.151   2.374   7.783  0.5092  0.3576 -0.1424
 3839TIP3   OH233075   3.125   6.558   0.416  0.2533  0.0623 -0.2896
 3839TIP3    H133076   3.185   6.590   0.484 -0.2437 -0.4056  0.3864
 3839TIP3    H233077   3.093   6.637   0.373 -2.7715  0.8284  2.8652
 3840TIP3   OH233078   0.648   2.095   1.737  0.3522  0.0893 -0.0758
 3840TIP3    H133079   0.611   2.067   1.653  3.1383  1.1524 -1.7988
 3840TIP3    H233080   0.699   2.020   1.767 -0.2285 -0.1056  0.4614
 3841TIP3   OH233081   1.913   3.562   7.885  0.0984  0.4917 -0.1475
 3841TIP3    H133082   1.861   3.626   7.933  1.0752  1.3388 -0.1669
 3841TIP3    H233083   1.859   3.484   7.881  0.0846  0.2862  2.5712
 3842TIP3   OH233084   4.157   3.547   8.026  0.0630  0.5811  0.4635
 3842TIP3    H133085   4.062   3.554   8.034  0.0048 -0.7859  1.3844
 3842TIP3    H233086   4.173   3.532   7.933 -0.9470 -2.3971  0.6434
 3843TIP3   OH233087   4.110   4.829   8.256  0.6231  0.8653 -0.1836
 3843TIP3    H133088   4.170   4.806   8.326 -0.6378 -0.9050  0.3686
 3843TIP3    H233089   4.063   4.906   8.289  0.8419  0.7471  0.4149
 3844TIP3   OH233090   4.285   6.052   0.343  0.5936  0.3617 -0.3830
 3844TIP3    H133091   4.368   6.003   0.341 -0.7866 -2.2630  1.3960
 3844TIP3    H233092   4.229   6.006   0.281 -0.2317  0.6751  0.1164
 3845TIP3   OH233093   0.973   3.695   0.436  0.7158 -0.1448 -0.1418
 3845TIP3    H133094   0.909   3.762   0.410  1.0050  0.3423  0.3580
 3845TIP3    H233095   0.967   3.628   0.369  0.1824  0.2361 -0.4817
 3846TIP3   OH233096   5.304   4.646   7.502 -0.2850  0.0777 -0.2182
 3846TIP3    H133097   5.381   4.590   7.494 -0.0851  0.4095 -0.6368
 3846TIP3    H233098   5.230   4.585   7.498 -0.0375 -0.3731  1.3104
 3847TIP3   OH233099   3.482   6.408   8.503 -0.3121 -0.3946  0.0688
 3847TIP3    H133100   3.516   6.335   8.554  0.2449 -0.7673 -0.8122
 3847TIP3    H233101   3.555   6.435   8.448 -1.0735 -0.4073 -0.9724
 3848TIP3   OH233102   5.606   5.562   1.176 -0.2050  0.5083  0.1601
 3848TIP3    H133103   5.648   5.485   1.137  0.1630  0.4362  0.6851
 3848TIP3    H233104   5.676   5.606   1.224 -0.2113  1.6823 -0.8803
 3849TIP3   OH233105   6.438   4.916   7.209 -0.1655  0.0902  0.4510
 3849TIP3    H133106   6.364   4.916   7.148 -0.2930 -0.9788  0.5848
 3849TIP3    H233107   6.512   4.947   7.157 -0.3075 -0.6579 -0.2273
 3850TIP3   OH233108   4.633   4.520   6.917 -0.5232 -0.0697  0.0628
 3850TIP3    H133109   4.696   4.448   6.928 -0.6885 -0.2112  0.0816
 3850TIP3    H233110   4.558   4.480   6.875 -0.3895  0.2154 -0.4519
 3851TIP3   OH233111   2.042   5.693   1.859 -0.1851 -0.2808 -0.0139
 3851TIP3    H133112   2.024   5.704   1.952  2.3723  1.2210  0.4071
 3851TIP3    H233113   2.100   5.767   1.837 -1.4038 -0.0780 -3.0116
 3852TIP3   OH233114   1.038   2.704   7.528 -0.8315  0.4679  0.5392
 3852TIP3    H133115   0.966   2.658   7.487 -1.3020  0.0834  1.7477
 3852TIP3    H233116   1.080   2.752   7.457 -1.6624 -0.0980 -0.3516
 3853TIP3   OH233117   4.468   4.179   6.428 -0.0017  0.8585 -0.3296
 3853TIP3    H133118   4.558   4.210   6.438  0.3927 -0.3472  0.0998
 3853TIP3    H233119   4.477   4.087   6.401 -1.0716  1.7891 -4.5756
 3854TIP3   OH233120   4.217   0.416   7.126  0.3300  0.2347  0.4965
 3854TIP3    H133121   4.269   0.339   7.148 -0.5261 -0.6157 -0.3424
 3854TIP3    H233122   4.136   0.381   7.088 -0.5737  1.5258  1.1361
 3855TIP3   OH233123   1.483   5.676   0.753  0.1922 -0.1330  0.9830
 3855TIP3    H133124   1.567   5.712   0.782 -0.5248  0.3770  2.5385
 3855TIP3    H233125   1.418   5.726   0.803 -1.1566  0.7367 -1.4579
 3856TIP3   OH233126   6.225   0.246   7.325  0.1433  0.2211 -0.2999
 3856TIP3    H133127   6.263   0.187   7.260 -0.0426  0.1520 -0.3470
 3856TIP3    H233128   6.259   0.214   7.409 -1.0757 -0.8496 -0.1828
 3857TIP3   OH233129   3.863   1.331   6.218 -0.9606 -0.3024  0.0834
 3857TIP3    H133130   3.880   1.262   6.154 -1.0125 -0.2449  0.0085
 3857TIP3    H233131   3.843   1.284   6.299 -3.2143 -0.4228 -0.4885
 3858TIP3   OH233132   4.372   6.281   0.956 -0.1855 -0.8127 -0.0850
 3858TIP3    H133133   4.360   6.236   0.872  2.6275  0.9278 -1.5745
 3858TIP3    H233134   4.457   6.250   0.988  1.2021  2.2046 -0.5019
 3859TIP3   OH233135   2.044   0.426   1.103 -0.6572  0.1911  0.0909
 3859TIP3    H133136   2.043   0.424   1.199  0.4300  0.4216  0.1154
 3859TIP3    H233137   2.098   0.351   1.079 -1.1007  0.0100 -0.3638
 3860TIP3   OH233138   3.126   2.683   8.523 -0.1254 -0.6243  0.0822
 3860TIP3    H133139   3.122   2.604   8.576 -2.8195 -0.0405  0.9120
 3860TIP3    H233140   3.071   2.746   8.571  1.0717  1.3947 -1.0957
 3861TIP3   OH233141   4.894   0.181   0.086  0.5197  0.3910 -0.3254
 3861TIP3    H133142   4.987   0.159   0.074  0.1400 -0.4667 -1.9317
 3861TIP3    H233143   4.879   0.169   0.180  1.8520 -0.1512 -0.1498
 3862TIP3   OH233144   5.968   4.904   0.128 -0.3767 -0.3789  0.5020
 3862TIP3    H133145   5.970   4.819   0.084 -0.0036 -0.1744  0.1183
 3862TIP3    H233146   6.029   4.895   0.201  0.0991 -0.2656  0.1258
 3863TIP3   OH233147   5.816   5.746   7.156  0.1496 -0.6213  0.4377
 3863TIP3    H133148   5.902   5.703   7.162  0.6823  0.4553  0.7344
 3863TIP3    H233149   5.810   5.774   7.064  0.2232 -0.4694  0.4798
 3864TIP3   OH233150   4.943   2.243   5.855 -0.8977  0.3877 -0.4140
 3864TIP3    H133151   4.947   2.338   5.869 -1.7426  0.2551  0.8666
 3864TIP3    H233152   4.850   2.224   5.843 -0.9289 -0.4784  0.9782
 3865TIP3   OH233153   2.455   6.400   2.381 -0.4571  0.2355 -0.0920
 3865TIP3    H133154   2.477   6.407   2.288 -1.5352  1.6237 -0.2812
 3865TIP3    H233155   2.540   6.402   2.426  0.0662 -0.2329 -1.0165
 3866TIP3   OH233156   4.388   1.121   7.322 -0.7319  0.3142  0.7383
 3866TIP3    H133157   4.387   1.113   7.227  1.6649  0.2351  0.6583
 3866TIP3    H233158   4.336   1.046   7.353  2.5469 -2.7908 -0.4950
 3867TIP3   OH233159   0.560   4.811   0.347  0.3897  0.2872 -0.2049
 3867TIP3    H133160   0.591   4.721   0.342 -3.2840 -1.1257 -0.8767
 3867TIP3    H233161   0.536   4.833   0.257 -1.1546  0.9299  0.3325
 3868TIP3   OH233162   0.832   0.883   8.423 -0.0294  0.1635 -0.4959
 3868TIP3    H133163   0.833   0.913   8.514 -0.5135  1.4842 -0.8948
 3868TIP3    H233164   0.894   0.810   8.421  1.8679  1.6508  0.4078
 3869TIP3   OH233165   3.239   2.394   2.451  0.7273  0.2485 -0.0090
 3869TIP3    H133166   3.242   2.302   2.425  0.6589 -0.2817  1.7106
 3869TIP3    H233167   3.222   2.391   2.545  0.9258  2.0237  0.1079
 3870TIP3   OH233168   5.521   6.059   8.134  0.2157 -0.0557 -0.4120
 3870TIP3    H133169   5.523   6.154   8.137  1.4439 -0.0895  0.3805
 3870TIP3    H233170   5.604   6.031   8.173 -0.0595 -1.4500 -0.7421
 3871TIP3   OH233171   2.523   1.355   0.438  0.3080 -0.1434  0.2184
 3871TIP3    H133172   2.491   1.275   0.481  1.7004 -0.8077  0.0721
 3871TIP3    H233173   2.617   1.356   0.457  0.2730  1.6309  0.4625
 3872TIP3   OH233174   3.170   4.853   6.908  0.0808  0.0612 -0.1950
 3872TIP3    H133175   3.254   4.871   6.951  0.6045 -1.7881 -0.3605
 3872TIP3    H233176   3.166   4.916   6.836  2.2910 -1.0679 -1.4023
 3873TIP3   OH233177   0.705   1.296   8.291  0.4082  0.4802 -0.5194
 3873TIP3    H133178   0.610   1.286   8.302  0.4881 -0.5993 -0.6643
 3873TIP3    H233179   0.718   1.389   8.276 -0.5616  0.7397  0.1869
 3874TIP3   OH233180   2.053   3.787   7.665  0.1183 -0.3607  0.0798
 3874TIP3    H133181   1.972   3.763   7.710 -0.2134  0.3643 -0.1076
 3874TIP3    H233182   2.052   3.736   7.584  0.1436 -0.8007  0.3565
 3875TIP3   OH233183   0.020   1.072   8.264 -0.0572  0.1476  0.3162
 3875TIP3    H133184   0.027   0.994   8.318 -0.6446  0.9492  1.6210
 3875TIP3    H233185   0.082   1.134   8.303  0.4971  0.3176 -0.7775
 3876TIP3   OH233186   1.506   2.415   7.893 -0.0657  0.0094  0.2397
 3876TIP3    H133187   1.537   2.495   7.934  0.5831  0.1427 -0.4801
 3876TIP3    H233188   1.561   2.345   7.929  0.0595  0.0368  0.1060
 3877TIP3   OH233189   5.578   0.382   7.108  0.1177  0.5280  0.5514
 3877TIP3    H133190   5.515   0.400   7.178 -1.2876  0.9304 -0.7600
 3877TIP3    H233191   5.534   0.411   7.028  2.0896  1.0840 -0.4002
 3878TIP3   OH233192   2.264   0.430   8.407  0.5934  0.2690 -0.0446
 3878TIP3    H133193   2.234   0.375   8.479  1.6339 -0.2007  0.0582
 3878TIP3    H233194   2.213   0.511   8.415  1.5633  0.7442  1.9888
 3879TIP3   OH233195   0.142   6.398   7.847 -0.6640  0.1480 -0.8530
 3879TIP3    H133196   0.130   6.493   7.850 -0.4052  0.2163  2.7638
 3879TIP3    H233197   0.059   6.363   7.881 -0.7270 -0.9440 -2.0721
 3880TIP3   OH233198   5.663   4.017   6.545 -0.0733 -0.2284  0.1112
 3880TIP3    H133199   5.674   4.112   6.533 -0.8460 -0.4323 -2.8461
 3880TIP3    H233200   5.597   3.992   6.480  0.5996 -2.9136  0.3659
 3881TIP3   OH233201   5.654   5.310   6.755  0.0166 -0.0299 -0.0786
 3881TIP3    H133202   5.606   5.261   6.689 -0.6398 -0.1694  0.4977
 3881TIP3    H233203   5.675   5.393   6.713 -0.9922  0.1520 -0.2355
 3882TIP3   OH233204   4.555   5.986   8.144  0.3041  0.0336  0.0518
 3882TIP3    H133205   4.611   6.014   8.073  1.3077  0.5154  1.0051
 3882TIP3    H233206   4.466   5.992   8.109  0.8272 -0.6353 -1.4357
 3883TIP3   OH233207   5.931   1.435   7.762 -0.1521 -0.2490 -0.0235
 3883TIP3    H133208   5.926   1.528   7.738  0.2443 -0.4042 -0.7469
 3883TIP3    H233209   5.974   1.394   7.687 -0.3334 -1.0202  0.2920
 3884TIP3   OH233210   5.094   2.468   1.637  0.3089 -0.0138 -0.0092
 3884TIP3    H133211   5.091   2.424   1.552  0.1807  1.4539 -0.7921
 3884TIP3    H233212   5.003   2.490   1.657  0.1775 -1.4287  1.1228
 3885TIP3   OH233213   0.236   3.374   0.090 -0.2868  0.5663 -0.1649
 3885TIP3    H133214   0.201   3.287   0.109  1.9720 -0.4197 -0.1694
 3885TIP3    H233215   0.301   3.389   0.159  0.0540  1.8124 -0.7298
 3886TIP3   OH233216   4.067   6.866   7.439 -0.0793 -0.1600 -0.1343
 3886TIP3    H133217   4.124   6.862   7.515 -0.5716  0.2287  0.2636
 3886TIP3    H233218   4.099   6.797   7.380 -0.5750 -1.4409  1.0389
 3887TIP3   OH233219   3.305   5.105   6.195  0.2690 -0.0345  0.1666
 3887TIP3    H133220   3.348   5.170   6.250 -1.1365  1.0576  0.0144
 3887TIP3    H233221   3.317   5.137   6.106  1.3283 -1.0734 -0.0920
 3888TIP3   OH233222   3.834   3.985   1.633 -0.0315  0.0599 -0.0490
 3888TIP3    H133223   3.876   4.001   1.718  0.6763  1.9140 -0.6963
 3888TIP3    H233224   3.802   4.071   1.605  0.3382 -0.3770 -1.9628
 3889TIP3   OH233225   0.400   6.351   1.196 -0.8606 -0.6758 -0.4564
 3889TIP3    H133226   0.433   6.280   1.251  0.0839 -0.7225 -1.0508
 3889TIP3    H233227   0.450   6.428   1.225 -1.1527 -0.4645 -0.5078
 3890TIP3   OH233228   0.969   2.753   0.156 -0.1085  0.1303  0.4774
 3890TIP3    H133229   0.959   2.704   0.074 -0.2682  0.1002  0.5155
 3890TIP3    H233230   0.922   2.701   0.221 -0.0517  0.1975  0.5725
 3891TIP3   OH233231   3.073   4.756   8.379  0.1171  0.3694  1.5778
 3891TIP3    H133232   3.086   4.699   8.455 -0.1652 -0.9998  0.6263
 3891TIP3    H233233   3.018   4.705   8.319  1.1727  1.0157  0.0017
 3892TIP3   OH233234   3.598   4.332   0.754  0.4153  0.3624  0.1852
 3892TIP3    H133235   3.650   4.316   0.676  2.4516 -1.8342  1.8136
 3892TIP3    H233236   3.519   4.279   0.741  0.7562 -0.0199 -0.3836
 3893TIP3   OH233237   5.146   5.187   8.042 -0.2552  0.0407 -0.5591
 3893TIP3    H133238   5.199   5.246   7.988  0.6074 -1.4916 -1.4967
 3893TIP3    H233239   5.162   5.216   8.131  0.5740  0.8936 -0.9577
 3894TIP3   OH233240   2.611   5.661   1.652  0.1045 -0.0194 -0.0407
 3894TIP3    H133241   2.649   5.744   1.626  1.2939 -0.8084 -0.9647
 3894TIP3    H233242   2.652   5.640   1.736  0.2860  0.0282 -0.1185
 3895TIP3   OH233243   1.510   5.806   1.785  0.2939 -0.0486 -0.0674
 3895TIP3    H133244   1.440   5.807   1.850  1.8206  0.3617  1.6546
 3895TIP3    H233245   1.583   5.852   1.827  1.6840 -0.6473 -1.6944
 3896TIP3   OH233246   2.697   6.217   6.994  0.4032  0.0924  0.2582
 3896TIP3    H133247   2.620   6.161   6.998  0.2586  0.1232 -1.2162
 3896TIP3    H233248   2.661   6.306   6.994 -0.1274  0.2250 -4.8293
 3897TIP3   OH233249   3.597   5.792   0.976  0.0783 -0.0426  0.4931
 3897TIP3    H133250   3.604   5.833   1.062  1.1840 -0.7654  0.7683
 3897TIP3    H233251   3.508   5.814   0.947 -0.5174 -0.2234  2.0406
 3898TIP3   OH233252   4.793   0.518   1.562  0.3834 -0.5799  0.3411
 3898TIP3    H133253   4.761   0.439   1.605  0.2898 -0.5960  0.2427
 3898TIP3    H233254   4.761   0.589   1.617 -0.8850 -0.5298 -0.4127
 3899TIP3   OH233255   5.473   3.639   6.602  0.0030 -0.2741  0.4916
 3899TIP3    H133256   5.456   3.693   6.679  0.2033  0.2412  0.1803
 3899TIP3    H233257   5.460   3.549   6.632  0.1408 -0.0814  1.1402
 3900TIP3   OH233258   3.212   3.538   1.932  0.4323  0.7487  0.6136
 3900TIP3    H133259   3.123   3.575   1.935  0.2900  0.3679  1.3154
 3900TIP3    H233260   3.264   3.597   1.987  0.9369  1.7710 -0.9070
 3901TIP3   OH233261   1.699   0.370   7.188 -0.0814 -0.0559 -0.2298
 3901TIP3    H133262   1.690   0.280   7.222  1.5066 -0.2355 -0.1772
 3901TIP3    H233263   1.793   0.388   7.196 -0.2492  1.2828 -1.0909
 3902TIP3   OH233264   4.294   6.311   7.913 -0.2184 -0.2639 -0.2964
 3902TIP3    H133265   4.204   6.281   7.899  0.0437 -1.6340  0.8388
 3902TIP3    H233266   4.284   6.396   7.955 -0.9599  0.6606 -2.1779
 3903TIP3   OH233267   2.475   0.867   0.586  0.5526 -1.0086 -0.3872
 3903TIP3    H133268   2.516   0.866   0.672  0.0688  0.9397 -0.0888
 3903TIP3    H233269   2.410   0.798   0.589 -2.2957  1.4764  2.3405
 3904TIP3   OH233270   3.385   0.867   8.503  0.0361 -0.6683 -0.3970
 3904TIP3    H133271   3.393   0.789   8.448  0.2082  0.0839 -1.4777
 3904TIP3    H233272   3.475   0.888   8.528 -0.0778 -1.2291  0.4996
 3905TIP3   OH233273   0.235   6.242   7.634  0.0617 -0.3394  0.8991
 3905TIP3    H133274   0.177   6.265   7.707  2.1609 -0.1748  2.6188
 3905TIP3    H233275   0.199   6.160   7.600 -1.9070  0.4177  1.0135
 3906TIP3   OH233276   6.721   5.651   0.701  0.3485  0.4639 -0.1301
 3906TIP3    H133277   6.708   5.735   0.656 -2.6205 -0.2592 -0.7981
 3906TIP3    H233278   6.725   5.674   0.794  0.7592  1.4360 -0.3773
 3907TIP3   OH233279   3.330   5.216   7.370  0.1582  0.1033  0.0491
 3907TIP3    H133280   3.366   5.132   7.343  0.0944  0.0370  0.1678
 3907TIP3    H233281   3.240   5.216   7.338 -0.5148 -0.7488  1.8263
 3908TIP3   OH233282   5.972   1.059   6.745 -0.1888 -0.1475 -0.1247
 3908TIP3    H133283   6.056   1.074   6.701 -0.3533  0.5025 -0.2131
 3908TIP3    H233284   5.947   1.144   6.779 -0.3679 -0.5179  0.7047
 3909TIP3   OH233285   0.100   0.463   0.240  0.2188  0.4117 -0.4474
 3909TIP3    H133286   0.166   0.437   0.176 -0.6063 -2.2111 -0.3809
 3909TIP3    H233287   0.028   0.498   0.187  0.4011  0.3102 -0.7665
 3910TIP3   OH233288   4.635   6.730   1.269  0.4303 -0.3215  0.2053
 3910TIP3    H133289   4.541   6.744   1.280  0.2792  0.6248 -1.7296
 3910TIP3    H233290   4.671   6.737   1.357 -0.9357  2.7334  0.6683
 3911TIP3   OH233291   1.532   2.753   7.823 -0.0635  0.1855 -0.4533
 3911TIP3    H133292   1.538   2.699   7.744 -1.3705 -0.7515  0.0446
 3911TIP3    H233293   1.456   2.809   7.807 -1.8562 -1.6620  1.0359
 3912TIP3   OH233294   1.964   4.738   0.933  0.1026 -0.3257  0.3276
 3912TIP3    H133295   1.875   4.703   0.943  0.4049 -1.0906  0.4029
 3912TIP3    H233296   1.951   4.832   0.921 -0.5970 -0.0170  2.8145
 3913TIP3   OH233297   5.994   1.588   7.196 -0.3044  0.2533 -0.4700
 3913TIP3    H133298   5.969   1.650   7.265  0.2331 -0.0683  0.0247
 3913TIP3    H233299   5.976   1.502   7.234  3.3868 -0.1335  0.7611
 3914TIP3   OH233300   3.684   6.378   6.742  0.4832 -0.2866  0.1770
 3914TIP3    H133301   3.766   6.397   6.697  1.0650  0.4694  1.4909
 3914TIP3    H233302   3.691   6.286   6.767  1.6560  0.1434  1.6131
 3915TIP3   OH233303   6.348   1.697   0.871 -0.0935  0.1801 -0.6000
 3915TIP3    H133304   6.255   1.675   0.869 -0.0818  0.1555 -0.9179
 3915TIP3    H233305   6.392   1.612   0.882 -0.1054  0.1918 -0.4481
 3916TIP3   OH233306   0.790   5.262   0.905  0.1309  0.4636 -0.0118
 3916TIP3    H133307   0.775   5.207   0.828 -1.2340  0.6865  0.0577
 3916TIP3    H233308   0.707   5.257   0.954  0.8383  0.6346  1.2417
 3917TIP3   OH233309   2.475   6.005   6.836  0.0736 -0.2664 -0.1756
 3917TIP3    H133310   2.412   6.055   6.783  1.4097 -1.1073 -2.7396
 3917TIP3    H233311   2.422   5.938   6.879 -1.2248  1.1298  0.5000
 3918TIP3   OH233312   5.233   4.018   7.718  0.1307  0.2551  0.0765
 3918TIP3    H133313   5.193   4.006   7.631  1.5802  0.0560 -0.5911
 3918TIP3    H233314   5.165   3.989   7.779 -0.4818 -0.7900 -1.0405
 3919TIP3   OH233315   2.354   0.353   1.584 -0.0122  0.6357 -0.3241
 3919TIP3    H133316   2.364   0.265   1.548 -2.0434  0.2492 -0.0923
 3919TIP3    H233317   2.347   0.339   1.679  0.6469  1.1620 -0.1909
 3920TIP3   OH233318   0.757   0.457   7.123 -0.6838  0.7321  0.0351
 3920TIP3    H133319   0.700   0.528   7.096  0.7807  0.8334 -3.3056
 3920TIP3    H233320   0.768   0.404   7.044  0.6299 -1.5448  1.6194
 3921TIP3   OH233321   3.810   1.982   0.751  0.1388  0.0493  0.3027
 3921TIP3    H133322   3.785   2.021   0.667  1.5881  0.2439 -0.0752
 3921TIP3    H233323   3.755   1.905   0.759 -2.1856  1.6361  0.6466
 3922TIP3   OH233324   2.369   2.814   8.537  0.0108  0.3605 -0.4561
 3922TIP3    H133325   2.426   2.853   8.604  0.2273  2.9362 -2.0030
 3922TIP3    H233326   2.423   2.746   8.496  0.5035 -0.0091  0.7552
 3923TIP3   OH233327   2.745   1.653   0.928  0.7900 -0.4166  0.1891
 3923TIP3    H133328   2.715   1.736   0.892  0.1309 -0.5311  0.4565
 3923TIP3    H233329   2.671   1.593   0.915  0.0001 -0.1466  2.8776
 3924TIP3   OH233330   0.096   3.159   0.490  0.2109 -0.6226 -0.7986
 3924TIP3    H133331   0.110   3.135   0.398 -1.3336  2.4766 -1.9780
 3924TIP3    H233332   0.161   3.227   0.508 -1.4498  0.9684 -0.6122
 3925TIP3   OH233333   3.104   5.846   6.826 -0.4247  0.6655 -0.1623
 3925TIP3    H133334   3.191   5.862   6.861 -0.4394 -2.0005  1.4212
 3925TIP3    H233335   3.053   5.922   6.852  0.7204  0.8792  1.6425
 3926TIP3   OH233336   4.197   1.612   7.012  0.5739  0.2033  0.2750
 3926TIP3    H133337   4.214   1.545   7.078 -1.3542 -0.7813 -0.1495
 3926TIP3    H233338   4.130   1.573   6.956  2.6657  0.6803 -2.7795
 3927TIP3   OH233339   2.239   5.251   1.653  0.6765  0.0789  0.1476
 3927TIP3    H133340   2.235   5.156   1.649 -1.0490  0.1343 -0.5507
 3927TIP3    H233341   2.196   5.280   1.572  1.3780  1.4519  0.2338
 3928TIP3   OH233342   2.341   3.794   0.793  0.2440  0.2891 -0.2951
 3928TIP3    H133343   2.304   3.853   0.859 -1.6379 -0.3558 -0.7286
 3928TIP3    H233344   2.276   3.791   0.723  0.0144 -2.6606 -0.0786
 3929TIP3   OH233345   5.455   6.772   8.467  0.4431  0.2637  0.0801
 3929TIP3    H133346   5.366   6.805   8.462 -0.1051 -1.3156 -1.8489
 3929TIP3    H233347   5.463   6.737   8.556 -0.2521  1.8642  0.8231
 3930TIP3   OH233348   6.477   2.277   1.589  0.5931  0.5676 -0.2649
 3930TIP3    H133349   6.414   2.221   1.543  1.3296  0.9492 -1.7969
 3930TIP3    H233350   6.464   2.256   1.682  0.3199 -1.5760 -0.7340
 3931TIP3   OH233351   5.700   5.526   0.557 -0.8013 -0.1617  0.1009
 3931TIP3    H133352   5.786   5.565   0.543 -0.5029 -1.0497 -0.6585
 3931TIP3    H233353   5.662   5.575   0.630  0.0014  0.7952 -0.1142
 3932TIP3   OH233354   6.440   4.327   1.154 -0.1202  0.0722  0.4092
 3932TIP3    H133355   6.527   4.330   1.192 -0.3225  1.1669  0.8270
 3932TIP3    H233356   6.431   4.238   1.121  1.5741  0.2418 -0.6359
 3933TIP3   OH233357   3.474   6.636   6.357  0.1522  0.3832 -0.0539
 3933TIP3    H133358   3.561   6.652   6.394 -0.1615  2.7731 -0.2116
 3933TIP3    H233359   3.413   6.660   6.426 -0.4458 -1.1872  0.0197
 3934TIP3   OH233360   3.662   5.693   6.056 -0.1573 -0.1078 -0.9778
 3934TIP3    H133361   3.576   5.672   6.092  0.2467 -0.1390  0.0220
 3934TIP3    H233362   3.658   5.666   5.965 -1.0214 -0.6275 -0.7949
 3935TIP3   OH233363   1.842   4.005   0.555  0.6510  0.5363  0.1642
 3935TIP3    H133364   1.892   3.923   0.551  0.6093  0.3615  2.2077
 3935TIP3    H233365   1.797   4.009   0.470  2.0798 -0.6039 -0.7129
 3936TIP3   OH233366   2.978   3.394   6.547  0.4292  0.3398  0.2433
 3936TIP3    H133367   2.981   3.316   6.602 -0.2043  1.6510  2.2335
 3936TIP3    H233368   2.888   3.427   6.556 -0.2580 -0.3148 -3.0086
 3937TIP3   OH233369   2.824   3.029   0.673 -0.2715  0.1153 -0.4388
 3937TIP3    H133370   2.837   2.962   0.740 -1.4210  1.8407  1.6326
 3937TIP3    H233371   2.913   3.050   0.643  0.3000 -0.4826  0.7586
 3938TIP3   OH233372   3.401   3.011   7.596  0.0078 -0.3442 -0.1391
 3938TIP3    H133373   3.456   3.059   7.534 -1.0581 -0.7602 -1.4827
 3938TIP3    H233374   3.420   3.050   7.681 -0.0353  1.7625 -1.0178
 3939TIP3   OH233375   4.154   2.176   8.295  0.4693  0.0943  0.0489
 3939TIP3    H133376   4.103   2.160   8.216  0.5873  0.2256 -0.0522
 3939TIP3    H233377   4.244   2.155   8.271  0.3441 -1.0574  0.4891
 3940TIP3   OH233378   2.186   5.716   7.426 -0.2003  0.1697 -0.1029
 3940TIP3    H133379   2.230   5.632   7.415  0.1239  0.0262  1.9139
 3940TIP3    H233380   2.098   5.701   7.392  0.5079 -0.2970 -1.8161
 3941TIP3   OH233381   1.397   4.820   6.127  0.0117  0.1580  0.2693
 3941TIP3    H133382   1.350   4.781   6.202 -0.0180 -1.5915 -0.5967
 3941TIP3    H233383   1.347   4.791   6.051  0.6997  0.9571 -0.4957
 3942TIP3   OH233384   0.529   6.300   7.658  0.3474 -0.1236 -0.0354
 3942TIP3    H133385   0.446   6.269   7.623  0.7423 -0.1367 -0.9729
 3942TIP3    H233386   0.568   6.223   7.698 -0.7715  0.2073  1.8181
 3943TIP3   OH233387   2.459   2.547   8.554  0.0993 -0.6318  0.6542
 3943TIP3    H133388   2.445   2.453   8.566  0.6541 -1.1704 -2.1206
 3943TIP3    H233389   2.541   2.565   8.600 -0.9089 -1.0399  2.7527
 3944TIP3   OH233390   1.725   6.422   8.007 -0.1911  0.6901 -0.4243
 3944TIP3    H133391   1.639   6.432   8.048  0.3433  1.8033  0.5048
 3944TIP3    H233392   1.720   6.472   7.926 -0.1504  1.5262  0.0789
 3945TIP3   OH233393   0.075   2.096   8.151  0.3652  0.4825 -0.4467
 3945TIP3    H133394   0.014   2.165   8.178  1.2635  1.4168 -0.7255
 3945TIP3    H233395   0.093   2.115   8.059  3.0972  1.8754  0.2724
 3946TIP3   OH233396   2.513   3.443   8.085 -0.3141  1.0790 -0.6134
 3946TIP3    H133397   2.591   3.388   8.076  0.4695  1.9287  0.6979
 3946TIP3    H233398   2.533   3.521   8.032 -0.3084  1.2587 -0.3473
 3947TIP3   OH233399   1.668   2.198   7.955  0.3527 -0.1991  0.1548
 3947TIP3    H133400   1.722   2.201   7.876 -1.8295  0.8256 -1.4081
 3947TIP3    H233401   1.699   2.120   8.002  2.1506 -0.4888 -1.3796
 3948TIP3   OH233402   2.683   4.447   1.111  1.0023 -0.7257  0.3591
 3948TIP3    H133403   2.773   4.440   1.078  0.6718 -3.5154 -0.2125
 3948TIP3    H233404   2.685   4.400   1.194  0.2779  0.1459  0.8829
 3949TIP3   OH233405   5.606   5.824   6.983  0.1271  0.3650  0.2051
 3949TIP3    H133406   5.605   5.917   7.004 -0.9418  0.1797  1.0743
 3949TIP3    H233407   5.604   5.780   7.068 -2.0612 -0.4341 -0.1950
 3950TIP3   OH233408   1.304   2.201   1.843 -0.1553 -0.4278 -0.4688
 3950TIP3    H133409   1.309   2.211   1.748 -0.9381 -2.5557 -0.7890
 3950TIP3    H233410   1.340   2.283   1.878 -2.8847  1.9119 -2.5763
 3951TIP3   OH233411   1.991   4.218   7.916  0.4847 -0.0488 -0.2926
 3951TIP3    H133412   1.994   4.310   7.888  1.0066  0.1992  0.5241
 3951TIP3    H233413   1.999   4.168   7.835 -1.4598  0.5962 -0.9313
 3952TIP3   OH233414   1.654   1.677   6.039  0.4291  0.3435 -0.0060
 3952TIP3    H133415   1.593   1.658   5.968  1.6356  1.2562 -1.3391
 3952TIP3    H233416   1.598   1.691   6.116 -0.8055 -2.7289 -0.2300
 3953TIP3   OH233417   5.281   5.549   1.056 -0.8863 -0.4276 -0.0524
 3953TIP3    H133418   5.370   5.514   1.064 -1.1527 -0.6748  2.6893
 3953TIP3    H233419   5.236   5.486   0.999  0.4885 -0.6747 -0.9148
 3954TIP3   OH233420   4.087   5.022   0.111  0.5448 -0.4754 -0.1022
 3954TIP3    H133421   4.151   4.977   0.166 -0.2401 -0.2172  1.0549
 3954TIP3    H233422   4.057   5.096   0.164  0.3174  0.2329 -1.1788
 3955TIP3   OH233423   4.632   1.588   7.603  0.1288 -0.4714 -0.0344
 3955TIP3    H133424   4.621   1.625   7.690 -0.3838  0.9847 -0.6672
 3955TIP3    H233425   4.595   1.500   7.608 -0.4810 -0.1657  1.0561
 3956TIP3   OH233426   0.848   6.225   8.382  0.2609  0.1911 -0.1968
 3956TIP3    H133427   0.871   6.309   8.343 -2.5035  1.5021  0.7906
 3956TIP3    H233428   0.826   6.245   8.473 -1.2469 -1.4355 -0.1410
 3957TIP3   OH233429   5.771   3.712   6.281 -0.2318  0.0955  0.5361
 3957TIP3    H133430   5.679   3.715   6.258 -0.2143 -0.1335  0.4349
 3957TIP3    H233431   5.785   3.623   6.315  0.1194 -0.1239 -0.1622
 3958TIP3   OH233432   1.808   5.266   2.482  0.2263  0.4338  0.0765
 3958TIP3    H133433   1.853   5.280   2.565  2.0370 -0.9693 -0.6231
 3958TIP3    H233434   1.750   5.191   2.498  0.6602  0.0919  0.0368
 3959TIP3   OH233435   4.820   2.143   6.471 -0.3256  0.0683  0.3234
 3959TIP3    H133436   4.898   2.107   6.429 -0.4430  0.4836 -0.2568
 3959TIP3    H233437   4.837   2.237   6.478 -0.2856  0.0027  1.2654
 3960TIP3   OH233438   5.031   0.122   7.020 -0.2733  0.8092 -0.5845
 3960TIP3    H133439   4.983   0.100   7.100  0.5050  1.9299  0.2271
 3960TIP3    H233440   4.964   0.159   6.961 -0.7737  0.3731 -0.2961
 3961TIP3   OH233441   3.632   1.804   6.773  0.0501  0.1872  0.3096
 3961TIP3    H133442   3.683   1.782   6.695  0.1857  0.4708  0.3165
 3961TIP3    H233443   3.548   1.834   6.739 -1.1650 -2.8086  0.3500
 3962TIP3   OH233444   0.600   5.646   2.577 -0.3486  0.4592 -0.3592
 3962TIP3    H133445   0.690   5.618   2.589 -0.3592  0.7405  0.4961
 3962TIP3    H233446   0.587   5.647   2.483  1.0861  2.0418 -0.6027
 3963TIP3   OH233447   2.634   2.237   1.094  0.0897 -0.4174  0.7350
 3963TIP3    H133448   2.710   2.203   1.046  0.1133  1.1942 -0.4565
 3963TIP3    H233449   2.567   2.170   1.082  1.0432 -1.4775  1.0962
 3964TIP3   OH233450   6.640   4.398   1.376  0.0938  0.3505  0.5325
 3964TIP3    H133451   6.657   4.466   1.441  1.7601  1.2030 -0.7244
 3964TIP3    H233452   6.702   4.328   1.398  1.0145  0.8513 -0.3970
 3965TIP3   OH233453   5.457   3.402   0.945 -0.4337 -0.3565 -0.4092
 3965TIP3    H133454   5.431   3.492   0.966 -2.7236 -0.8775 -0.7831
 3965TIP3    H233455   5.544   3.393   0.985  1.1411  2.8406 -2.6102
 3966TIP3   OH233456   0.008   0.032   7.620  0.1760  0.1958 -0.2385
 3966TIP3    H133457  -0.032  -0.035   7.676 -0.7591  1.4863  0.7084
 3966TIP3    H233458  -0.063   0.094   7.602  0.6053  0.1258 -2.4151
 3967TIP3   OH233459   2.183   0.280   8.602 -0.3232 -0.5511 -0.2028
 3967TIP3    H133460   2.143   0.299   8.687 -0.1001 -1.7303  0.1789
 3967TIP3    H233461   2.114   0.236   8.552 -0.0045 -1.1633 -0.1092
 3968TIP3   OH233462   2.401   6.699   0.072 -0.3086  0.1896  0.6172
 3968TIP3    H133463   2.400   6.618   0.123  1.0246  0.1426  0.5802
 3968TIP3    H233464   2.491   6.731   0.077 -0.7507  1.5473  0.4245
 3969TIP3   OH233465   3.951   2.233   8.064 -0.1064  0.4856 -0.4171
 3969TIP3    H133466   3.992   2.285   7.995  1.4833  0.2242  0.2882
 3969TIP3    H233467   3.874   2.195   8.022 -1.6947  3.7815 -0.8246
 3970TIP3   OH233468   5.328   1.816   6.788 -0.4058  0.3858  0.2697
 3970TIP3    H133469   5.292   1.765   6.715 -2.8042  1.7515  0.3824
 3970TIP3    H233470   5.371   1.751   6.843  0.6710 -0.8064 -1.8495
 3971TIP3   OH233471   0.962   2.993   0.716  0.3385 -0.3901  0.8661
 3971TIP3    H133472   1.001   2.915   0.677 -1.3622 -0.1905 -1.3979
 3971TIP3    H233473   0.987   3.065   0.657 -0.6989  0.2493  1.1697
 3972TIP3   OH233474   4.592   1.094   0.883  0.1004 -0.6821 -0.1042
 3972TIP3    H133475   4.558   1.036   0.951  1.0867 -1.2655 -0.0808
 3972TIP3    H233476   4.625   1.035   0.815 -1.7990 -0.1012 -1.6067
 3973TIP3   OH233477   3.493   1.026   0.515 -0.1667  0.3328  0.1465
 3973TIP3    H133478   3.521   1.037   0.606  2.2227  0.6039 -0.5378
 3973TIP3    H233479   3.424   1.090   0.503  0.2878  1.1068  1.4669
 3974TIP3   OH233480   4.414   3.253   7.246 -0.4673  0.1069 -0.3466
 3974TIP3    H133481   4.472   3.250   7.170  1.2056  0.4545  0.8641
 3974TIP3    H233482   4.377   3.341   7.244 -0.2714  0.1837 -0.6586
 3975TIP3   OH233483   5.071   3.858   1.036 -0.1519 -0.8182  0.0034
 3975TIP3    H133484   5.131   3.910   1.090  0.2695  0.2115 -1.3957
 3975TIP3    H233485   5.106   3.769   1.040 -0.1122 -0.7567  1.3722
 3976TIP3   OH233486   3.061   3.008   6.943 -0.5423 -0.1688 -0.4642
 3976TIP3    H133487   3.001   2.983   6.872 -0.1113  1.7767 -1.5963
 3976TIP3    H233488   3.009   3.066   6.998  0.5084  2.6171 -2.1751
 3977TIP3   OH233489   4.978   2.508   2.268  0.7108  0.1596  0.1560
 3977TIP3    H133490   4.937   2.459   2.339  0.4978  1.6024  1.0640
 3977TIP3    H233491   4.943   2.468   2.188  0.4762 -1.0816  0.8516
 3978TIP3   OH233492   3.068   0.129   6.221 -0.0783 -0.3056 -0.8323
 3978TIP3    H133493   3.163   0.135   6.220 -0.0564 -0.4076 -0.0589
 3978TIP3    H233494   3.049   0.045   6.263 -0.4988 -1.1561 -2.6246
 3979TIP3   OH233495   4.452   3.753   0.214  0.5959  0.2304  0.3832
 3979TIP3    H133496   4.392   3.776   0.285 -2.0569 -0.0892 -1.6242
 3979TIP3    H233497   4.516   3.695   0.255 -1.5110 -0.9091  2.3046
 3980TIP3   OH233498   1.073   3.293   1.008  0.4522  0.0099  0.4590
 3980TIP3    H133499   1.011   3.354   0.969 -0.6456 -1.2057  0.2394
 3980TIP3    H233500   1.033   3.207   0.997  1.4391 -0.6551  1.7492
 3981TIP3   OH233501   5.811   2.348   0.435  0.3245 -1.0970 -0.0313
 3981TIP3    H133502   5.739   2.410   0.425  0.2375 -1.2322 -0.2649
 3981TIP3    H233503   5.801   2.313   0.524 -1.1264 -2.6162 -0.7144
 3982TIP3   OH233504   6.761   4.672   0.401 -0.0799 -0.2190  0.2454
 3982TIP3    H133505   6.722   4.668   0.488 -2.7275  1.8801 -0.6862
 3982TIP3    H233506   6.736   4.589   0.359  0.1147 -0.6909  1.0486
 3983TIP3   OH233507   5.418   2.096   0.677  0.3892  0.2862 -0.4081
 3983TIP3    H133508   5.513   2.088   0.684  0.2330 -0.5976  1.7004
 3983TIP3    H233509   5.391   2.138   0.759 -1.0283  0.7486 -1.0743
 3984TIP3   OH233510   3.169   2.081   2.479 -0.3229  0.5348  0.5397
 3984TIP3    H133511   3.107   2.008   2.477 -1.1109  1.1052  2.0732
 3984TIP3    H233512   3.255   2.041   2.465 -0.9338 -0.3809 -0.8338
 3985TIP3   OH233513   0.020   0.767   1.490 -0.5083  0.0950 -0.3770
 3985TIP3    H133514   0.101   0.746   1.442  0.7698  1.2761  1.1545
 3985TIP3    H233515  -0.004   0.855   1.460  0.0956  0.6909  0.8085
 3986TIP3   OH233516   2.873   6.191   0.759  0.6373  0.0600 -0.0378
 3986TIP3    H133517   2.863   6.260   0.825  1.2352  0.6678 -0.5620
 3986TIP3    H233518   2.952   6.144   0.784  2.4684  2.0099 -1.7709
 3987TIP3   OH233519   3.094   4.906   0.879  0.3596 -0.3555  0.2107
 3987TIP3    H133520   3.017   4.848   0.873 -0.6322  0.9474 -0.0960
 3987TIP3    H233521   3.148   4.866   0.947 -1.0186 -0.8314  1.0793
 3988TIP3   OH233522   3.174   4.331   6.458  0.5404 -0.1072 -0.5563
 3988TIP3    H133523   3.269   4.327   6.462  0.5601  0.9654  0.6220
 3988TIP3    H233524   3.150   4.271   6.386  2.0566 -0.6928 -0.6050
 3989TIP3   OH233525   5.438   2.349   0.137  0.1957  0.3393 -0.2072
 3989TIP3    H133526   5.400   2.301   0.211  1.2485  1.1522  0.9072
 3989TIP3    H233527   5.370   2.411   0.112 -1.0055 -1.3408 -1.3702
 3990TIP3   OH233528   1.140   0.255   7.168  0.7746  0.4287 -0.5585
 3990TIP3    H133529   1.229   0.271   7.136  1.1993  1.4130  1.0326
 3990TIP3    H233530   1.116   0.170   7.131  1.8310  0.7860 -2.1331
 3991TIP3   OH233531   6.556   6.035   7.536 -0.5029 -0.0170 -0.0479
 3991TIP3    H133532   6.556   6.089   7.457  0.7104 -0.0038 -0.0589
 3991TIP3    H233533   6.644   6.047   7.573 -0.3418 -1.6489  0.1719
 3992TIP3   OH233534   4.376   1.866   7.045 -0.1938  0.2847  0.4500
 3992TIP3    H133535   4.417   1.795   6.995 -1.0655 -0.8679  1.3175
 3992TIP3    H233536   4.440   1.886   7.113  0.5750  1.1886 -0.5138
 3993TIP3   OH233537   0.643   3.790   1.088 -0.1323 -0.3849  0.4927
 3993TIP3    H133538   0.708   3.726   1.119  0.5391 -1.4346 -2.6836
 3993TIP3    H233539   0.558   3.747   1.103  0.1578 -0.8355  0.8599
 3994TIP3   OH233540   0.294   3.367   7.689  0.8138  0.1977 -0.1007
 3994TIP3    H133541   0.227   3.379   7.622 -0.2748 -0.6858  0.8105
 3994TIP3    H233542   0.277   3.280   7.725  2.2462  0.0908  0.3849
 3995TIP3   OH233543   5.417   1.350   1.216  0.5962  0.2039  0.5044
 3995TIP3    H133544   5.396   1.328   1.125  0.2732  4.9283 -0.8428
 3995TIP3    H233545   5.333   1.341   1.262 -0.4040  1.9870 -0.8099
 3996TIP3   OH233546   3.096   5.282   6.348  0.3207 -0.8761  0.3926
 3996TIP3    H133547   3.138   5.319   6.271  1.0663 -0.1288  1.1454
 3996TIP3    H233548   3.023   5.230   6.312  0.0123  0.2859 -0.7587
 3997TIP3   OH233549   3.028   5.814   0.399  0.6623 -0.1809 -0.0943
 3997TIP3    H133550   2.986   5.730   0.421  0.1794  0.5500  2.0078
 3997TIP3    H233551   3.083   5.833   0.475 -0.2880  2.0454  0.0999
 3998TIP3   OH233552   1.343   3.407   8.339 -0.1065 -0.5016 -0.2499
 3998TIP3    H133553   1.415   3.363   8.385  0.4493 -1.1235 -1.6765
 3998TIP3    H233554   1.266   3.388   8.393  0.4646 -1.4999  0.2517
 3999TIP3   OH233555   6.255   3.183   8.034 -0.8642 -0.2473  0.3261
 3999TIP3    H133556   6.347   3.169   8.057 -0.5647  0.6413 -0.2698
 3999TIP3    H233557   6.212   3.100   8.053  0.0911 -0.7159  0.4810
 4000TIP3   OH233558   3.496   2.866   8.552  0.0975 -0.0093  0.2402
 4000TIP3    H133559   3.498   2.779   8.512  0.9380  0.4864 -0.8435
 4000TIP3    H233560   3.586   2.882   8.579 -0.1330  0.3650  0.7962
 4001TIP3   OH233561   2.747   2.236   7.166 -0.0807  0.2929  0.1129
 4001TIP3    H133562   2.814   2.300   7.192  0.6864 -0.6995  0.6767
 4001TIP3    H233563   2.719   2.265   7.079 -0.2588  1.7734  0.6401
 4002TIP3   OH233564   1.175   4.076   2.601  0.3580  0.4768 -0.1301
 4002TIP3    H133565   1.231   4.067   2.678 -1.1510  2.7076  1.3474
 4002TIP3    H233566   1.124   3.995   2.599 -0.2793  0.7706  1.8794
 4003TIP3   OH233567   5.629   4.750   7.252  0.3768  0.5774 -0.4020
 4003TIP3    H133568   5.722   4.752   7.276  0.5376  1.2571 -1.0717
 4003TIP3    H233569   5.587   4.807   7.317  0.1655 -0.9686  0.8983
 4004TIP3   OH233570   1.362   3.021   8.588  0.0807  0.6188 -0.7127
 4004TIP3    H133571   1.283   3.007   8.537 -0.6406  1.0965  0.2490
 4004TIP3    H233572   1.336   3.083   8.656  1.0355  0.0612  0.1873
 4005TIP3   OH233573   2.258   2.738   0.885 -0.0333 -0.1927  0.1232
 4005TIP3    H133574   2.218   2.824   0.898 -1.0241 -0.7145  0.6631
 4005TIP3    H233575   2.253   2.724   0.790 -2.3984 -0.7919  0.2710
 4006TIP3   OH233576   3.879   4.077   8.024  0.5124 -0.6265 -0.2201
 4006TIP3    H133577   3.874   4.167   7.990  2.4021 -0.8811 -1.2950
 4006TIP3    H233578   3.801   4.034   7.988 -0.3020  0.4948  0.1309
 4007TIP3   OH233579   5.648   0.026   1.253  0.5577 -0.3120 -0.1409
 4007TIP3    H133580   5.690   0.100   1.297  0.8637 -0.7276  0.2774
 4007TIP3    H233581   5.585   0.066   1.193 -0.3567  0.2587  1.1641
 4008TIP3   OH233582   0.615   2.084   7.092 -0.5792  0.3181 -0.7293
 4008TIP3    H133583   0.592   1.994   7.072  1.1122 -1.0389  2.6483
 4008TIP3    H233584   0.533   2.124   7.122 -0.9056 -0.8337 -0.0322
 4009TIP3   OH233585   5.517   2.590   8.373  0.3270 -0.0002 -0.1584
 4009TIP3    H133586   5.535   2.551   8.458 -0.4007 -0.6288 -0.2802
 4009TIP3    H233587   5.578   2.547   8.313  0.1838 -0.2628 -0.1190
 4010TIP3   OH233588   0.504   5.226   7.178  0.0599 -0.7622  0.2448
 4010TIP3    H133589   0.521   5.202   7.087 -0.4874 -2.4070  0.5513
 4010TIP3    H233590   0.461   5.150   7.215 -0.8092  0.3463  1.5778
 4011TIP3   OH233591   0.316   6.097   8.092  0.3522  0.5904 -0.2443
 4011TIP3    H133592   0.380   6.027   8.109  0.1339 -0.1458 -2.2461
 4011TIP3    H233593   0.367   6.178   8.100  0.6575  0.2596  1.8946
 4012TIP3   OH233594   6.439   3.110   1.896  0.2823  0.7392  0.1901
 4012TIP3    H133595   6.356   3.144   1.929 -0.1267  0.1374 -0.2049
 4012TIP3    H233596   6.503   3.137   1.962 -0.3425  0.5374  0.9008
 4013TIP3   OH233597   4.986   5.894   0.708 -0.3502 -0.1505 -0.0394
 4013TIP3    H133598   5.058   5.876   0.769 -1.4302  0.9308  1.6122
 4013TIP3    H233599   5.012   5.975   0.664 -0.5510  0.2599  0.5813
 4014TIP3   OH233600   1.101   1.072   0.609 -0.7516  0.2448 -0.2603
 4014TIP3    H133601   1.084   0.993   0.661 -0.5345 -0.5112 -1.3061
 4014TIP3    H233602   1.194   1.066   0.587 -0.6920  0.8949 -0.1844
 4015TIP3   OH233603   5.630   6.122   8.600 -0.0455 -0.0903  0.0296
 4015TIP3    H133604   5.644   6.189   8.668 -1.8731 -0.2619  0.6484
 4015TIP3    H233605   5.618   6.173   8.520  2.4350  0.1016 -0.2783
 4016TIP3   OH233606   3.426   5.310   6.329 -0.5615  0.1795  0.0304
 4016TIP3    H133607   3.450   5.269   6.412 -0.3512  0.8476  0.3066
 4016TIP3    H233608   3.432   5.404   6.346 -0.2161  0.3221 -0.8252
 4017TIP3   OH233609   1.374   0.858   0.859  0.0475  0.5701  0.3814
 4017TIP3    H133610   1.282   0.858   0.835  0.0460  0.9976  0.3806
 4017TIP3    H233611   1.377   0.904   0.943 -0.0160 -1.3587  1.5058
 4018TIP3   OH233612   3.283   1.930   0.773  0.6918 -0.0636 -0.5583
 4018TIP3    H133613   3.314   1.951   0.685  0.6615 -1.5450 -0.9551
 4018TIP3    H233614   3.341   1.979   0.832  1.1630  0.3818 -1.3829
 4019TIP3   OH233615   5.552   0.224   7.781  0.1394 -0.0110  0.8687
 4019TIP3    H133616   5.556   0.182   7.867 -2.3658  2.7363  2.5410
 4019TIP3    H233617   5.643   0.250   7.763  1.2847 -3.4113  0.9989
 4020TIP3   OH233618   1.588   6.730   7.573  0.0805  0.4298 -0.2744
 4020TIP3    H133619   1.518   6.744   7.509 -0.4466  0.1184  0.2155
 4020TIP3    H233620   1.547   6.676   7.641  0.3219  1.5783  0.8248
 4021TIP3   OH233621   5.007   1.266   6.759  0.2242 -0.1474 -0.3114
 4021TIP3    H133622   5.000   1.223   6.673 -1.0182 -0.6556  0.0134
 4021TIP3    H233623   5.018   1.193   6.820 -2.3183 -0.1062  0.2944
 4022TIP3   OH233624   5.522   4.475   7.561  0.2552 -0.1977 -0.2630
 4022TIP3    H133625   5.510   4.381   7.569 -0.6388 -0.0864 -0.2518
 4022TIP3    H233626   5.611   4.485   7.526  0.1288 -1.0626 -0.8594
 4023TIP3   OH233627   0.160   4.070   8.097 -0.1324  0.4966  0.2106
 4023TIP3    H133628   0.088   4.030   8.146 -0.6702 -0.9557 -1.6555
 4023TIP3    H233629   0.120   4.106   8.018  1.1738 -0.7211 -1.0808
 4024TIP3   OH233630   1.921   2.994   1.233  0.0275  0.0236 -0.0278
 4024TIP3    H133631   1.883   3.080   1.246  0.4890  0.5632 -1.9361
 4024TIP3    H233632   2.006   3.011   1.192  0.3985 -1.3071  0.1399
 4025TIP3   OH233633   6.321   3.874   1.979 -0.4561 -0.7149 -0.3662
 4025TIP3    H133634   6.415   3.867   1.996 -0.3377  0.4508 -0.4076
 4025TIP3    H233635   6.290   3.935   2.046 -0.6403  1.1369 -2.0493
 4026TIP3   OH233636   1.128   6.735   0.697 -0.0626 -0.2665  0.0462
 4026TIP3    H133637   1.179   6.655   0.705  0.6960  0.1018 -0.8643
 4026TIP3    H233638   1.090   6.748   0.784  0.1800 -1.3559  0.3283
 4027TIP3   OH233639   3.512   6.055   0.333  0.4529 -0.0600  0.6555
 4027TIP3    H133640   3.537   6.139   0.372  0.6852  0.2546 -0.1554
 4027TIP3    H233641   3.587   6.031   0.279  0.4277 -0.8455  0.9546
 4028TIP3   OH233642   5.200   5.854   6.975 -0.0323  0.5072  0.6079
 4028TIP3    H133643   5.205   5.935   6.926 -0.1171  0.4364  0.4808
 4028TIP3    H233644   5.189   5.786   6.908 -1.8165  0.5607  0.8003
 4029TIP3   OH233645   4.271   2.478   1.056  0.0001  0.2917  0.0891
 4029TIP3    H133646   4.196   2.419   1.066  1.0811 -1.5710 -2.0412
 4029TIP3    H233647   4.340   2.438   1.108 -0.0692  1.3368  1.0327
 4030TIP3   OH233648   3.968   6.420   2.294  0.2864 -0.0870 -0.1498
 4030TIP3    H133649   3.912   6.498   2.297 -0.4517 -0.6316  0.9223
 4030TIP3    H233650   4.054   6.450   2.323 -0.4646 -0.0168  2.2213
 4031TIP3   OH233651   4.574   0.669   7.640 -0.1883  0.2908  0.5447
 4031TIP3    H133652   4.623   0.703   7.714  2.0096 -2.8675  0.7342
 4031TIP3    H233653   4.636   0.672   7.567 -0.8528 -0.5940 -0.0796
 4032TIP3   OH233654   5.780   5.635   8.226  0.5068 -0.2274 -0.3780
 4032TIP3    H133655   5.747   5.680   8.148 -1.1785 -0.0755  0.3789
 4032TIP3    H233656   5.826   5.559   8.191  0.4453  0.2499 -1.5526
 4033TIP3   OH233657   4.982   2.688   6.815 -0.1671  0.0994 -0.1446
 4033TIP3    H133658   5.047   2.619   6.800 -1.0892 -0.5381 -1.4370
 4033TIP3    H233659   5.028   2.769   6.791  1.0366  0.0296  1.7092
 4034TIP3   OH233660   0.500   4.390   8.133 -0.0098  0.2935  0.2705
 4034TIP3    H133661   0.581   4.378   8.083 -0.2278  1.3592 -0.3692
 4034TIP3    H233662   0.439   4.431   8.072 -0.4192  1.2608  1.2731
 4035TIP3   OH233663   3.927   2.728   7.695 -0.6973 -0.2852 -0.7091
 4035TIP3    H133664   3.855   2.732   7.758 -1.9818  0.2834 -2.1744
 4035TIP3    H233665   3.987   2.797   7.722 -0.9461 -0.4119  0.1991
 4036TIP3   OH233666   2.336   6.481   0.591 -0.0238 -0.5650  0.1793
 4036TIP3    H133667   2.396   6.550   0.565  0.7052 -1.3545 -0.2613
 4036TIP3    H233668   2.270   6.478   0.521 -0.5293  0.2173  0.6037
 4037TIP3   OH233669   6.817   2.792   7.369 -0.4472 -0.0491 -0.1955
 4037TIP3    H133670   6.868   2.819   7.293  0.3768 -0.7700  0.0838
 4037TIP3    H233671   6.742   2.746   7.333 -0.1134 -0.2951 -0.5824
 4038TIP3   OH233672   1.017   6.454   0.990  0.4153  0.1299 -0.1367
 4038TIP3    H133673   0.932   6.413   1.007  0.2889  0.7178  0.6898
 4038TIP3    H233674   1.069   6.385   0.948 -0.9933  0.2268 -2.2241
 4039TIP3   OH233675   5.627   0.570   0.036 -0.2083 -0.2651  0.2896
 4039TIP3    H133676   5.615   0.577   0.130  2.6754  1.2116  0.6721
 4039TIP3    H233677   5.567   0.634  -0.001 -0.6169 -0.1186  1.1824
 4040TIP3   OH233678   0.509   3.293   1.938  0.5877  0.1057 -0.4276
 4040TIP3    H133679   0.421   3.268   1.966  1.1587 -2.0507 -0.3904
 4040TIP3    H233680   0.496   3.369   1.881 -1.0587  1.2534  1.3659
 4041TIP3   OH233681   2.304   2.561   6.750 -0.5357 -0.4842 -0.3233
 4041TIP3    H133682   2.295   2.602   6.836  2.2164  0.8368 -0.5706
 4041TIP3    H233683   2.251   2.616   6.692  2.2233  2.2633 -0.4471
 4042TIP3   OH233684   2.798   4.884   1.697  0.3840 -0.0280 -0.5380
 4042TIP3    H133685   2.796   4.978   1.712  1.9559  0.1987 -1.5549
 4042TIP3    H233686   2.717   4.851   1.738 -1.6646  2.1119 -2.5792
 4043TIP3   OH233687   6.824   5.340   8.080  0.0509 -0.1433  0.5693
 4043TIP3    H133688   6.917   5.331   8.056 -0.5407 -0.9163 -1.5943
 4043TIP3    H233689   6.783   5.260   8.047 -1.4135  0.1912  1.5029
 4044TIP3   OH233690   4.623   4.931   0.539 -0.6929 -0.0251 -0.0167
 4044TIP3    H133691   4.588   4.956   0.624 -1.4695 -1.2030  0.0314
 4044TIP3    H233692   4.564   4.863   0.508  0.3576 -0.5623 -0.8931
 4045TIP3   OH233693   5.792   3.926   7.443 -0.2449 -0.4739 -0.3085
 4045TIP3    H133694   5.743   3.999   7.479 -2.5050 -1.6748 -0.8038
 4045TIP3    H233695   5.798   3.944   7.349 -0.1366 -0.5536 -0.3183
 4046TIP3   OH233696   0.152   1.086   7.729 -0.1490 -0.2778  0.0627
 4046TIP3    H133697   0.122   1.095   7.819  0.7050  3.1018  0.1269
 4046TIP3    H233698   0.239   1.045   7.737  0.9447  2.0339  1.0874
 4047TIP3   OH233699   3.492   5.542   8.428  0.3036 -0.3710  0.1655
 4047TIP3    H133700   3.440   5.616   8.458 -1.7889 -1.7241  0.0296
 4047TIP3    H233701   3.498   5.555   8.333 -0.8712 -0.8547  0.0162
 4048TIP3   OH233702   0.587   3.225   6.909 -0.6528 -0.3972  0.0133
 4048TIP3    H133703   0.592   3.320   6.904 -0.4883 -0.4238 -0.3366
 4048TIP3    H233704   0.493   3.206   6.916 -1.0169 -0.3716 -3.3369
 4049TIP3   OH233705   2.151   5.319   6.445  0.1582 -0.1333  0.6543
 4049TIP3    H133706   2.206   5.396   6.461  0.6754  0.0824 -1.8143
 4049TIP3    H233707   2.210   5.244   6.458  0.0336 -0.0723  1.6357
 4050TIP3   OH233708   5.285   2.785   1.395  0.5383  0.0116 -0.1876
 4050TIP3    H133709   5.251   2.696   1.387 -0.9001  0.4126  1.1357
 4050TIP3    H233710   5.373   2.780   1.357 -0.2840 -1.4773 -2.0946
 4051TIP3   OH233711   2.092   4.512   7.558 -0.0905  0.1786  0.0429
 4051TIP3    H133712   2.168   4.490   7.504  0.6833 -0.6889  1.4108
 4051TIP3    H233713   2.019   4.513   7.497  0.9903  1.0078 -1.3117
 4052TIP3   OH233714   3.790   3.694   0.666  0.3307  0.6995 -0.4010
 4052TIP3    H133715   3.759   3.675   0.755  0.9847  1.8725  0.1048
 4052TIP3    H233716   3.711   3.719   0.618 -0.3552 -1.8122 -0.7377
 4053TIP3   OH233717   2.626   1.180   0.956  0.4358 -0.1189 -0.4764
 4053TIP3    H133718   2.695   1.179   1.022 -0.3605 -1.4564  0.3878
 4053TIP3    H233719   2.547   1.206   1.003  0.2104  0.7457 -1.3056
 4054TIP3   OH233720   2.765   0.372   7.015 -0.1226  0.3016 -0.0259
 4054TIP3    H133721   2.859   0.356   7.027 -0.1685 -2.1001 -1.9696
 4054TIP3    H233722   2.760   0.459   6.976  1.5080 -0.2948 -1.7274
 4055TIP3   OH233723   5.602   1.708   7.544 -0.1289  0.4408 -0.5024
 4055TIP3    H133724   5.564   1.634   7.497  0.1081 -1.0501  1.4962
 4055TIP3    H233725   5.573   1.695   7.635  0.4146  2.4901  0.0074
 4056TIP3   OH233726   2.972   2.036   2.011  0.2426  0.2996 -0.6692
 4056TIP3    H133727   2.953   2.089   2.088  1.0118  0.4359 -0.5649
 4056TIP3    H233728   2.888   2.026   1.967 -0.9259 -2.2979  1.7548
 4057TIP3   OH233729   1.801   3.141   8.253  0.3258  0.2175 -0.1323
 4057TIP3    H133730   1.861   3.215   8.248  1.0270 -0.4296 -2.3766
 4057TIP3    H233731   1.834   3.087   8.325  0.4476  1.4794  0.8004
 4058TIP3   OH233732   0.357   4.062   7.534  0.4404 -0.5471 -0.1152
 4058TIP3    H133733   0.360   3.976   7.577 -1.4856 -0.1960  0.8206
 4058TIP3    H233734   0.360   4.125   7.606  2.1942  0.2345 -0.8095
 4059TIP3   OH233735   4.305   6.478   1.173 -0.1452 -0.6641  0.6853
 4059TIP3    H133736   4.322   6.388   1.201 -1.1489 -0.7538  1.0191
 4059TIP3    H233737   4.210   6.487   1.175 -0.0320  1.2543  3.4752
 4060TIP3   OH233738   3.267   1.618   7.701  0.0399 -0.2672  0.1793
 4060TIP3    H133739   3.189   1.623   7.756  0.5843  1.2781  0.8848
 4060TIP3    H233740   3.278   1.707   7.667  1.2733 -0.5467 -0.2234
 4061TIP3   OH233741   4.392   1.639   1.846 -0.6943 -0.5004 -0.6413
 4061TIP3    H133742   4.396   1.734   1.853  0.5445 -0.4930 -1.2654
 4061TIP3    H233743   4.482   1.612   1.830 -1.0156 -1.7920 -0.3907
 4062TIP3   OH233744   1.627   2.768   7.401  0.3490  0.2475  0.0607
 4062TIP3    H133745   1.628   2.676   7.425  0.1984  0.3769  0.5616
 4062TIP3    H233746   1.699   2.807   7.451  0.4087  0.4065 -0.1437
 4063TIP3   OH233747   5.200   6.343   7.514  0.1510 -0.4833 -0.1725
 4063TIP3    H133748   5.157   6.368   7.596 -3.0640  1.7534 -2.3211
 4063TIP3    H233749   5.138   6.282   7.473  1.2611 -0.8261 -1.3760
 4064TIP3   OH233750   4.847   5.668   0.538 -0.0969  0.2807 -0.0084
 4064TIP3    H133751   4.770   5.706   0.496 -0.7893  0.0877  1.0200
 4064TIP3    H233752   4.831   5.574   0.537  0.6931  0.1436 -0.8246
 4065TIP3   OH233753   3.644   0.770   2.381  0.2128  0.2753  0.1449
 4065TIP3    H133754   3.605   0.703   2.325 -1.1724  1.4819 -0.3996
 4065TIP3    H233755   3.664   0.843   2.322 -1.7809  1.7944  1.2304
 4066TIP3   OH233756   3.245   5.944   1.401 -0.0991 -0.1871  0.3053
 4066TIP3    H133757   3.307   6.007   1.437  0.1595 -1.8158  3.0167
 4066TIP3    H233758   3.263   5.863   1.448 -1.7524 -1.7589 -1.5883
 4067TIP3   OH233759   5.093   5.868   8.339 -0.7221 -0.2568 -0.6509
 4067TIP3    H133760   5.187   5.874   8.357 -0.6077  1.0589 -1.4717
 4067TIP3    H233761   5.075   5.775   8.332  0.4480 -0.5400 -0.1329
 4068TIP3   OH233762   1.415   4.572   7.675  0.2865  0.0647  0.2757
 4068TIP3    H133763   1.421   4.616   7.760 -1.6676 -3.3252  2.4097
 4068TIP3    H233764   1.497   4.523   7.668  0.4025  0.2637  0.2022
 4069TIP3   OH233765   3.341   4.050   5.980  0.2750  0.1325 -0.2159
 4069TIP3    H133766   3.323   4.143   5.965 -0.4387 -0.1870 -1.5438
 4069TIP3    H233767   3.425   4.035   5.937 -0.0084 -0.0035 -0.7302
 4070TIP3   OH233768   4.348   3.373   8.194  0.0069 -0.2040  0.0381
 4070TIP3    H133769   4.412   3.414   8.136 -0.2737 -0.0560 -0.1697
 4070TIP3    H233770   4.266   3.418   8.175 -0.2051 -0.5370  0.1484
 4071TIP3   OH233771   2.055   4.604   0.022 -0.4137  0.2747 -0.6710
 4071TIP3    H133772   2.020   4.675   0.077 -0.3919 -0.0730 -0.2006
 4071TIP3    H233773   2.008   4.526   0.051  1.0645 -0.2966  0.3200
 4072TIP3   OH233774   0.992   5.590   6.147  0.4495  0.2941 -0.1976
 4072TIP3    H133775   0.949   5.593   6.233  0.2500 -0.1545 -0.2776
 4072TIP3    H233776   1.076   5.548   6.165  0.0259 -0.6602 -0.3665
 4073TIP3   OH233777   0.704   1.364   2.795 -0.0480 -0.7422  0.1235
 4073TIP3    H133778   0.782   1.401   2.753 -0.5642 -1.9500 -1.9873
 4073TIP3    H233779   0.658   1.440   2.831  0.9540  0.2205 -0.5678
 4074TIP3   OH233780   2.753   0.255   6.438 -0.2957 -0.3253 -0.8222
 4074TIP3    H133781   2.694   0.309   6.490 -0.3857  0.2267 -1.4879
 4074TIP3    H233782   2.714   0.255   6.350  0.3055 -0.5585 -1.0931
 4075TIP3   OH233783   1.402   2.349   6.941  0.4179  0.1164 -0.0836
 4075TIP3    H133784   1.452   2.340   7.022  0.6006  0.4369 -0.1542
 4075TIP3    H233785   1.399   2.261   6.904 -0.6491 -0.2450  0.8368
 4076TIP3   OH233786   0.719   4.463   1.197  0.1487 -0.2644  0.7137
 4076TIP3    H133787   0.714   4.550   1.237 -1.4693  0.0718 -0.1454
 4076TIP3    H233788   0.778   4.414   1.255  0.8734  1.2992  1.3745
 4077TIP3   OH233789   6.213   6.593   1.784  0.7104 -0.2876 -0.5344
 4077TIP3    H133790   6.129   6.635   1.764  1.0664  0.0710 -1.2870
 4077TIP3    H233791   6.229   6.616   1.876 -0.6128 -1.3987  0.0139
 4078TIP3   OH233792   5.067   2.863   8.336 -0.5397 -0.0305 -0.1173
 4078TIP3    H133793   5.086   2.825   8.250 -1.7243 -0.3133 -0.2801
 4078TIP3    H233794   5.072   2.958   8.321 -0.8269 -0.0742 -0.5290
 4079TIP3   OH233795   2.982   6.360   7.992  0.0420 -0.0418  0.0833
 4079TIP3    H133796   2.978   6.453   7.970 -0.7358  0.0153  0.4317
 4079TIP3    H233797   3.022   6.319   7.915  3.3599  0.9471  1.1508
 4080TIP3   OH233798   5.992   1.424   1.965 -0.3762 -0.1944 -0.4163
 4080TIP3    H133799   6.039   1.457   2.041 -0.9478  0.8276 -0.4757
 4080TIP3    H233800   5.926   1.365   2.001 -1.4630  1.2384  0.0247
 4081TIP3   OH233801   2.957   2.716   1.164  0.0126  0.1513 -0.1438
 4081TIP3    H133802   2.889   2.781   1.149 -0.2195 -0.1500 -0.3925
 4081TIP3    H233803   3.009   2.752   1.236  0.2511  0.8981 -0.6783
 4082TIP3   OH233804   6.799   6.692   8.133 -0.0008  0.4313 -0.5237
 4082TIP3    H133805   6.742   6.618   8.114 -0.2158  0.1853  0.9400
 4082TIP3    H233806   6.830   6.676   8.222  2.3168  0.5967 -1.2387
 4083TIP3   OH233807   0.544   4.351   6.897  0.0892  0.7901  0.0473
 4083TIP3    H133808   0.527   4.438   6.860 -1.5626  0.2443 -0.5854
 4083TIP3    H233809   0.590   4.304   6.828  1.6777  1.3646  0.6730
 4084TIP3   OH233810   6.849   6.672   7.296 -0.0774 -0.3234  0.2737
 4084TIP3    H133811   6.937   6.707   7.281  0.8493 -2.9537 -1.1521
 4084TIP3    H233812   6.796   6.711   7.226 -0.0010  1.0289  0.9445
 4085TIP3   OH233813   3.216   5.592   8.106  0.1812 -0.5904 -0.0213
 4085TIP3    H133814   3.196   5.523   8.168  2.4786 -1.5414 -0.2257
 4085TIP3    H233815   3.299   5.565   8.066 -0.8764  0.2546 -3.0886
 4086TIP3   OH233816   5.032   0.597   1.298  0.1976  0.6079 -0.0546
 4086TIP3    H133817   5.022   0.533   1.228  1.8477  0.1036  0.1408
 4086TIP3    H233818   5.027   0.546   1.378 -0.2483  0.9846  0.1647
 4087TIP3   OH233819   5.092   2.065   8.030 -0.4372  0.1288  0.0767
 4087TIP3    H133820   5.071   2.156   8.006 -0.5053  0.1091  0.0611
 4087TIP3    H233821   5.129   2.027   7.951 -1.8626 -0.3169 -0.3984
 4088TIP3   OH233822   2.749   2.454   0.965  0.1677 -0.0412 -0.6508
 4088TIP3    H133823   2.688   2.459   0.891 -0.4505 -0.4753 -0.1848
 4088TIP3    H233824   2.709   2.390   1.025  0.6008  0.3738  0.1053
 4089TIP3   OH233825   0.826   1.666   0.961 -0.3273 -0.1385  0.3935
 4089TIP3    H133826   0.733   1.655   0.979 -0.8390 -0.7022 -2.1585
 4089TIP3    H233827   0.862   1.578   0.965 -0.2216 -0.1191 -0.0354
 4090TIP3   OH233828   6.676   4.431   0.274  0.1154  0.1812 -0.1418
 4090TIP3    H133829   6.709   4.348   0.240 -1.2442 -0.7789  0.8207
 4090TIP3    H233830   6.594   4.409   0.319  0.1369  1.9141  0.8471
 4091TIP3   OH233831   3.028   5.539   6.229 -0.3486 -0.2455  0.5317
 4091TIP3    H133832   3.092   5.609   6.216  0.7352 -1.1441  0.8483
 4091TIP3    H233833   3.026   5.525   6.324 -1.1763 -0.1020  0.5475
 4092TIP3   OH233834   6.331   1.496   1.255 -0.3761  0.2076  0.1035
 4092TIP3    H133835   6.290   1.409   1.254 -0.5075  0.2686  0.2306
 4092TIP3    H233836   6.261   1.555   1.226 -0.4690  0.3531  0.6167
 4093TIP3   OH233837   0.349   1.252   7.901 -0.4646 -0.8448  0.0530
 4093TIP3    H133838   0.350   1.309   7.978 -0.9634 -0.6720 -0.0611
 4093TIP3    H233839   0.397   1.174   7.928  2.1523  0.4918 -0.4722
 4094TIP3   OH233840   4.797   1.364   6.211  0.1108  0.3847 -0.4581
 4094TIP3    H133841   4.878   1.321   6.240  0.5135  1.5759  0.2698
 4094TIP3    H233842   4.820   1.457   6.208 -0.9756  0.6450 -1.1692
 4095TIP3   OH233843   4.735   0.385   7.323 -0.1158  0.6907  0.0473
 4095TIP3    H133844   4.791   0.413   7.395 -0.4736  1.3115  0.0939
 4095TIP3    H233845   4.652   0.361   7.364 -0.5072  1.5773 -0.2041
 4096TIP3   OH233846   1.217   4.169   8.300 -0.7655  0.3383 -0.0205
 4096TIP3    H133847   1.276   4.241   8.323 -1.5981  0.5190  1.8282
 4096TIP3    H233848   1.274   4.099   8.269  0.2693  1.0316  0.2614
 4097TIP3   OH233849   3.993   6.434   7.946  0.1379 -0.0325  0.3296
 4097TIP3    H133850   3.994   6.441   8.041 -1.5586 -1.0388  0.4538
 4097TIP3    H233851   3.999   6.524   7.915 -1.3000  0.4722  1.4297
 4098TIP3   OH233852   2.823   0.909   0.268 -0.0283  0.0481  0.2341
 4098TIP3    H133853   2.802   0.971   0.198 -3.4018  0.2331  1.2419
 4098TIP3    H233854   2.790   0.951   0.347  0.0120 -1.8925  1.3325
 4099TIP3   OH233855   1.360   6.860   7.181 -0.6236  0.1536  0.5690
 4099TIP3    H133856   1.410   6.783   7.210  0.0188  0.3594  0.0494
 4099TIP3    H233857   1.270   6.842   7.209  0.0110  0.5803  3.1429
 4100TIP3   OH233858   1.911   1.312   6.724 -0.4298  0.7447  0.1084
 4100TIP3    H133859   1.888   1.255   6.651 -0.8011  0.9667  0.0517
 4100TIP3    H233860   1.867   1.395   6.705  0.5215  1.2292 -0.0781
 4101TIP3   OH233861   1.994   6.580   8.286 -0.2928 -0.2325 -0.3595
 4101TIP3    H133862   2.062   6.561   8.221  1.1356  0.9658  0.6971
 4101TIP3    H233863   1.929   6.632   8.239 -0.3407 -1.1499 -1.3280
 4102TIP3   OH233864   5.813   5.810   1.630 -0.3573 -0.0200  0.6392
 4102TIP3    H133865   5.817   5.875   1.560 -0.4619 -2.2027 -1.5253
 4102TIP3    H233866   5.890   5.828   1.683 -0.3870  1.8444  0.1423
 4103TIP3   OH233867   2.278   0.522   0.040  0.2141  0.0077  0.1272
 4103TIP3    H133868   2.236   0.538  -0.044  0.5698 -0.1331 -0.0811
 4103TIP3    H233869   2.296   0.610   0.075 -0.7390  0.0699  0.4733
 4104TIP3   OH233870   1.537   2.558   0.726  0.5269  0.4088  0.3871
 4104TIP3    H133871   1.519   2.650   0.747  2.4262  1.0076 -0.3707
 4104TIP3    H233872   1.583   2.562   0.642  1.1644 -1.1930  0.6385
 4105TIP3   OH233873   1.543   6.590   8.164  0.1234 -0.3797  0.3268
 4105TIP3    H133874   1.467   6.628   8.120  0.7694  1.0763  0.4175
 4105TIP3    H233875   1.548   6.637   8.248  3.0091  2.0444 -1.0014
 4106TIP3   OH233876   5.347   0.826   7.525  0.1328  0.7671  0.2543
 4106TIP3    H133877   5.369   0.845   7.433  2.4607 -1.1722  0.3166
 4106TIP3    H233878   5.267   0.774   7.520 -0.2212  1.3629 -0.6008
 4107TIP3   OH233879   4.280   4.885   0.252 -0.0743 -0.2420 -0.1537
 4107TIP3    H133880   4.240   4.877   0.339  0.6426 -3.1463 -0.0089
 4107TIP3    H233881   4.310   4.797   0.231  2.3064  0.9225 -2.1498
 4108TIP3   OH233882   3.054   5.624   7.872  0.3512  0.0511  0.2026
 4108TIP3    H133883   3.096   5.640   7.957 -0.3248  0.3962  0.4846
 4108TIP3    H233884   2.998   5.701   7.859 -0.5189 -0.5900  0.0557
 4109TIP3   OH233885   5.744   2.634   1.234  0.1586 -0.4232  0.0098
 4109TIP3    H133886   5.765   2.667   1.321  1.5008  1.3096 -0.8956
 4109TIP3    H233887   5.796   2.554   1.225 -0.0870 -0.6863  0.8103
 4110TIP3   OH233888   4.054   4.668   6.755 -0.3244 -0.1633 -0.4894
 4110TIP3    H133889   4.035   4.581   6.720  0.5903 -0.7643  0.4760
 4110TIP3    H233890   4.075   4.653   6.847  2.7569  0.6783 -0.9543
 4111TIP3   OH233891   4.178   5.410   1.396  0.0304 -0.2493  0.2624
 4111TIP3    H133892   4.164   5.476   1.328 -0.3755  0.9605  1.4699
 4111TIP3    H233893   4.264   5.372   1.376  0.0409  0.2711 -0.7500
 4112TIP3   OH233894   1.824   0.122   0.062 -0.0892  0.0535 -0.5362
 4112TIP3    H133895   1.803   0.165  -0.020 -2.6876  0.5815  0.3070
 4112TIP3    H233896   1.806   0.029   0.047 -0.1466  0.0885 -0.6756
 4113TIP3   OH233897   5.330   5.169   8.251  0.0727  0.1943 -0.5194
 4113TIP3    H133898   5.403   5.228   8.232 -0.4813  1.1592  0.2731
 4113TIP3    H233899   5.330   5.106   8.178  3.7595 -1.9557  1.0589
 4114TIP3   OH233900   4.790   3.893   7.318 -0.3852 -0.0808  0.0784
 4114TIP3    H133901   4.707   3.866   7.359 -0.7795 -0.8153 -1.1550
 4114TIP3    H233902   4.773   3.890   7.224  0.6724  1.0182 -0.1836
 4115TIP3   OH233903   5.476   1.215   7.351  0.1891  0.2226  0.2029
 4115TIP3    H133904   5.425   1.287   7.314  0.9453  0.4021 -0.5212
 4115TIP3    H233905   5.509   1.168   7.275  2.3071  0.9646  0.5903
 4116TIP3   OH233906   0.494   5.136   0.661 -0.1868  0.6189 -0.0508
 4116TIP3    H133907   0.409   5.180   0.662 -0.0127  0.9566  0.7830
 4116TIP3    H233908   0.544   5.184   0.595 -0.7462  0.1952 -0.8032
 4117TIP3   OH233909   5.608   2.844   0.403 -0.5206 -0.3557  0.4658
 4117TIP3    H133910   5.592   2.828   0.310  0.9277  1.5989 -0.1787
 4117TIP3    H233911   5.686   2.791   0.423 -0.6593 -0.5521  0.4836
 4118TIP3   OH233912   5.121   2.735   6.459 -0.2873 -0.5204  0.3283
 4118TIP3    H133913   5.107   2.830   6.457 -1.0513 -0.6341 -0.6338
 4118TIP3    H233914   5.213   2.725   6.482  0.4232  0.5270 -1.8251
 4119TIP3   OH233915   4.446   0.790   1.286 -0.0597  0.2910  0.1374
 4119TIP3    H133916   4.412   0.825   1.368  0.6063 -0.0928  0.5921
 4119TIP3    H233917   4.510   0.724   1.313 -0.5588 -0.5644 -0.6886
 4120TIP3   OH233918   0.877   0.998   1.851 -0.3882 -0.5188  0.6459
 4120TIP3    H133919   0.930   0.920   1.869 -2.1460 -1.6546  1.2351
 4120TIP3    H233920   0.826   1.010   1.931  0.1073  1.5000  0.7025
 4121TIP3   OH233921   6.128   1.487   6.800  0.1020 -0.4472  0.3155
 4121TIP3    H133922   6.159   1.552   6.737 -0.3944 -0.5693 -0.0602
 4121TIP3    H233923   6.180   1.409   6.782  0.7609 -0.1277  0.8267
 4122TIP3   OH233924   2.210   2.615   7.647 -0.3428  0.1132 -0.0097
 4122TIP3    H133925   2.271   2.550   7.612 -3.0651 -2.5110 -0.2708
 4122TIP3    H233926   2.188   2.670   7.572 -0.2843 -0.6062 -0.5691
 4123TIP3   OH233927   6.834   0.613   1.239  0.0593  0.4375 -0.0291
 4123TIP3    H133928   6.742   0.637   1.247 -0.0142  0.0186  0.4033
 4123TIP3    H233929   6.838   0.558   1.161 -0.0375  0.5424 -0.1076
 4124TIP3   OH233930   5.008   6.586   0.165 -0.2158  0.1338 -0.0856
 4124TIP3    H133931   4.930   6.537   0.139 -0.6831  0.7664  0.0893
 4124TIP3    H233932   5.055   6.602   0.083 -1.3736  1.5850 -0.5123
 4125TIP3   OH233933   0.764   5.852   8.603  0.3156  0.3113  0.6296
 4125TIP3    H133934   0.846   5.886   8.566  0.7718 -0.7141  0.6385
 4125TIP3    H233935   0.739   5.781   8.544 -0.1650  0.1280  1.0418
 4126TIP3   OH233936   6.218   1.522   7.985  0.6238 -0.3633 -0.4355
 4126TIP3    H133937   6.278   1.596   7.978  1.0107 -0.7201 -0.9508
 4126TIP3    H233938   6.256   1.454   7.929  0.7470 -1.2757  0.7149
 4127TIP3   OH233939   2.482   1.929   8.439 -0.8521 -0.6439  0.3800
 4127TIP3    H133940   2.478   1.988   8.514  2.4970  0.0328  0.1822
 4127TIP3    H233941   2.461   1.985   8.364 -2.7734 -0.9962  0.5938
 4128TIP3   OH233942   4.067   0.845   8.356 -0.8060  0.0868  0.0459
 4128TIP3    H133943   4.024   0.871   8.275  0.6274  0.3154 -0.6729
 4128TIP3    H233944   4.148   0.896   8.358 -1.2014  0.7732  2.0784
 4129TIP3   OH233945   6.478   6.161   8.232  0.0192 -1.0364  0.8399
 4129TIP3    H133946   6.424   6.120   8.300  2.0168 -0.0390  3.1682
 4129TIP3    H233947   6.563   6.118   8.239  1.0545  0.8790  0.8588
 4130TIP3   OH233948   1.230   4.829   0.071  0.2442 -0.2892 -0.2095
 4130TIP3    H133949   1.152   4.866   0.029  0.8943 -0.9660 -2.1245
 4130TIP3    H233950   1.267   4.902   0.121 -0.5366  0.5981 -0.8839
 4131TIP3   OH233951   5.361   1.360   8.035 -0.0647 -0.1247 -0.0679
 4131TIP3    H133952   5.342   1.292   7.970  0.4692  0.2502 -0.6363
 4131TIP3    H233953   5.455   1.351   8.052 -0.1374 -0.0082  0.4131
 4132TIP3   OH233954   4.144   2.509   0.807 -0.0431  0.3510 -0.1404
 4132TIP3    H133955   4.088   2.577   0.843 -1.1108 -0.4711 -0.1883
 4132TIP3    H233956   4.210   2.493   0.876 -1.0700 -0.0517  0.7899
 4133TIP3   OH233957   0.862   0.610   8.202 -0.5131  0.0886 -0.1821
 4133TIP3    H133958   0.795   0.549   8.235 -0.4338  0.8257  1.4243
 4133TIP3    H233959   0.923   0.620   8.275 -0.1997  1.6417 -0.6277
 4134TIP3   OH233960   5.136   4.814   1.098  0.5402  0.4882 -0.4551
 4134TIP3    H133961   5.188   4.761   1.037  2.1066  2.9671 -1.4848
 4134TIP3    H233962   5.053   4.829   1.052  0.2360 -0.6783 -0.3194
 4135TIP3   OH233963   4.184   2.071   0.300 -0.0778  0.1179 -0.7103
 4135TIP3    H133964   4.213   1.983   0.325  0.9467  0.7139  0.3119
 4135TIP3    H233965   4.090   2.071   0.315  0.2589 -0.0518  1.7624
 4136TIP3   OH233966   2.634   3.190   7.397 -0.7208  0.2872  0.3135
 4136TIP3    H133967   2.582   3.199   7.317  0.7324 -2.0442 -1.0022
 4136TIP3    H233968   2.603   3.261   7.454 -2.0392  1.8413 -2.1604
 4137TIP3   OH233969   5.646   6.302   7.183  0.3258  0.2456 -0.4735
 4137TIP3    H133970   5.678   6.212   7.173 -0.4391 -0.0274 -0.4898
 4137TIP3    H233971   5.593   6.299   7.263  0.0255  0.6017 -0.6599
 4138TIP3   OH233972   1.395   5.919   7.651 -0.6122 -0.2990  0.2025
 4138TIP3    H133973   1.346   5.912   7.569 -0.3478 -0.6869  0.0732
 4138TIP3    H233974   1.328   5.937   7.717 -0.6831  1.3846 -0.2780
 4139TIP3   OH233975   1.180   5.078   1.496 -0.0698 -0.1200  0.1036
 4139TIP3    H133976   1.132   5.161   1.495 -1.7844 -1.0498  0.0248
 4139TIP3    H233977   1.200   5.060   1.405  0.1003  0.0849  0.0992
 4140TIP3   OH233978   0.520   6.379   0.182  0.2313 -0.3507 -0.3491
 4140TIP3    H133979   0.507   6.473   0.167  2.1059 -0.1165 -0.7386
 4140TIP3    H233980   0.443   6.338   0.143  0.5661  0.8848 -2.4808
 4141TIP3   OH233981   0.239   6.631   8.325  0.1105 -0.5902  0.6564
 4141TIP3    H133982   0.213   6.690   8.253 -0.1185  1.7000  2.5016
 4141TIP3    H233983   0.334   6.637   8.326  0.2171 -1.6733 -0.2204
 4142TIP3   OH233984   4.402   0.388   6.846 -0.1269  0.7229 -1.0751
 4142TIP3    H133985   4.396   0.433   6.762  0.2117  3.9582  0.4769
 4142TIP3    H233986   4.466   0.438   6.896  1.0796 -2.1840  0.5509
 4143TIP3   OH233987   3.519   5.669   0.654 -0.1070  0.3005 -0.2293
 4143TIP3    H133988   3.488   5.719   0.579 -2.0268 -1.0413 -0.4109
 4143TIP3    H233989   3.514   5.578   0.625  0.8672 -0.1460  0.9360
 4144TIP3   OH233990   3.413   2.689   1.793 -0.4220  0.5133 -0.3838
 4144TIP3    H133991   3.451   2.712   1.878 -0.8527 -0.8564  0.2095
 4144TIP3    H233992   3.364   2.608   1.810 -0.3198  0.0819 -1.9865
 4145TIP3   OH233993   2.568   3.224   1.105 -0.1358  0.1800  0.5495
 4145TIP3    H133994   2.556   3.137   1.065  0.7533 -0.0112  0.6855
 4145TIP3    H233995   2.483   3.266   1.094 -0.3985 -0.4759 -0.0832
 4146TIP3   OH233996   6.272   0.932   0.985 -0.5615 -0.3931  0.2657
 4146TIP3    H133997   6.202   0.874   0.955  0.3090 -1.4846  0.2864
 4146TIP3    H233998   6.310   0.886   1.060  0.0673  0.2702  0.3598
 4147TIP3   OH233999   2.575   0.785   1.094  0.0760  0.0706 -0.3817
 4147TIP3    H134000   2.488   0.745   1.105  0.4535 -0.6679 -0.0137
 4147TIP3    H234001   2.566   0.872   1.132  0.2182 -0.9451  2.2143
 4148TIP3   OH234002   4.964   4.260   0.134  0.1412  0.1934  0.0385
 4148TIP3    H134003   4.949   4.303   0.219 -0.4163 -1.4744  0.8298
 4148TIP3    H234004   5.014   4.323   0.084 -1.0499  1.9570  0.9659
 4149TIP3   OH234005   0.866   2.707   8.115  0.3879  0.1505  0.0042
 4149TIP3    H134006   0.835   2.616   8.112 -0.1638  0.2347  1.8095
 4149TIP3    H234007   0.945   2.707   8.061  0.6870 -1.5085  0.3763
 4150TIP3   OH234008   0.656   3.802   0.671 -0.3629 -0.1671  0.1222
 4150TIP3    H134009   0.731   3.794   0.731  1.9386  0.4623 -2.4662
 4150TIP3    H234010   0.642   3.896   0.662 -0.7572 -0.2572 -0.2268
 4151TIP3   OH234011   4.459   3.131   8.285 -0.3170  0.3802  0.2874
 4151TIP3    H134012   4.492   3.092   8.204 -1.9901 -1.0000  0.2136
 4151TIP3    H234013   4.423   3.216   8.257  2.7153  1.8463  0.3346
 4152TIP3   OH234014   5.090   0.400   8.024 -0.5677  0.0813  0.4651
 4152TIP3    H134015   5.080   0.365   7.936  1.8930  1.0857 -0.2897
 4152TIP3    H234016   5.087   0.323   8.081 -0.3317 -0.7852 -0.6728
 4153TIP3   OH234017   3.421   2.857   0.364 -0.4302  0.0382 -0.0634
 4153TIP3    H134018   3.403   2.898   0.280 -2.1808  0.6983  0.5915
 4153TIP3    H234019   3.344   2.877   0.418  1.6746  1.8120  2.5372
 4154TIP3   OH234020   4.847   4.865   6.523  0.1987  0.9689 -0.2901
 4154TIP3    H134021   4.857   4.893   6.432  0.0128 -2.0130 -1.3548
 4154TIP3    H234022   4.760   4.824   6.526  1.5782 -2.2102  0.1764
 4155TIP3   OH234023   2.418   6.304   8.162 -0.0810  0.3691  0.4077
 4155TIP3    H134024   2.417   6.327   8.255  0.9259  2.0037  0.0383
 4155TIP3    H234025   2.468   6.223   8.158  0.4273  0.6376  1.2185
 4156TIP3   OH234026   4.494   1.356   7.638  0.2178  0.0942 -0.3523
 4156TIP3    H134027   4.439   1.394   7.571  0.0950 -0.1495 -0.3912
 4156TIP3    H234028   4.453   1.272   7.659 -0.4409  0.7036  0.9105
 4157TIP3   OH234029   4.497   0.072   7.447  0.2401  0.0381 -0.5757
 4157TIP3    H134030   4.469   0.155   7.409 -0.0389 -0.2407 -0.9829
 4157TIP3    H234031   4.570   0.096   7.504 -0.9571  0.8025  0.6989
 4158TIP3   OH234032   0.132   0.665   7.348 -0.6823 -0.2179 -0.1144
 4158TIP3    H134033   0.064   0.657   7.280 -2.6933 -0.9483  1.8660
 4158TIP3    H234034   0.084   0.659   7.430  1.5959  1.2600  1.4272
 4159TIP3   OH234035   3.965   0.684   7.028 -0.0092 -1.4929  0.2493
 4159TIP3    H134036   3.925   0.632   7.098 -1.3180 -0.3852  0.3582
 4159TIP3    H234037   3.927   0.771   7.037  0.9709 -0.9104 -0.8921
 4160TIP3   OH234038   5.309   0.071   7.050 -0.5770  0.2905 -0.1968
 4160TIP3    H134039   5.217   0.097   7.050 -0.4995  0.5791 -0.9335
 4160TIP3    H234040   5.309  -0.017   7.088 -1.1017  0.4693  0.2294
 4161TIP3   OH234041   2.026   1.919   1.867  0.3611  0.2031  0.4715
 4161TIP3    H134042   1.976   1.963   1.936  0.9039 -0.2691  1.1763
 4161TIP3    H234043   1.961   1.866   1.821  0.0577  0.2554  0.8342
 4162TIP3   OH234044   6.828   3.956   0.110 -0.4210  0.5307  0.3468
 4162TIP3    H134045   6.918   3.972   0.139 -0.3423  2.5007 -0.8329
 4162TIP3    H234046   6.779   4.032   0.142 -1.2127  0.5416 -0.8510
 4163TIP3   OH234047   6.497   0.255   1.808  0.1707 -0.0865 -0.0863
 4163TIP3    H134048   6.417   0.271   1.758  0.2145 -0.3101 -0.2256
 4163TIP3    H234049   6.545   0.190   1.757  1.1544  1.1530 -0.8049
 4164TIP3   OH234050   4.168   6.332   8.496  0.1961  0.1169  0.7296
 4164TIP3    H134051   4.238   6.275   8.528  1.3921  0.8348 -0.5084
 4164TIP3    H234052   4.192   6.351   8.406 -0.0954  2.6666  1.1187
 4165TIP3   OH234053   4.386   3.552   7.229  0.8199 -0.5902 -0.4119
 4165TIP3    H134054   4.436   3.581   7.153  0.1735 -1.1895 -1.0913
 4165TIP3    H234055   4.321   3.621   7.243  0.5651 -0.7475 -0.7818
 4166TIP3   OH234056   4.373   1.245   1.004  0.5044  0.7508 -0.3698
 4166TIP3    H134057   4.453   1.207   0.967  0.7850  0.7539  0.2141
 4166TIP3    H234058   4.308   1.236   0.935  1.0194  0.7846 -0.8718
 4167TIP3   OH234059   4.357   6.639   0.640 -0.1695 -0.1728 -0.2721
 4167TIP3    H134060   4.354   6.616   0.547  0.3324  0.4493 -0.4484
 4167TIP3    H234061   4.314   6.566   0.684  1.5752 -1.5777 -0.7907
 4168TIP3   OH234062   3.515   1.808   8.047  0.8112  0.3510  0.0522
 4168TIP3    H134063   3.433   1.853   8.030  1.2143  1.3119  0.5387
 4168TIP3    H234064   3.497   1.752   8.123  0.2626 -0.4694 -0.6579
 4169TIP3   OH234065   6.186   1.869   7.938  0.4453  0.0648  0.8806
 4169TIP3    H134066   6.143   1.954   7.946 -0.1083 -0.0232 -0.7980
 4169TIP3    H234067   6.269   1.888   7.893  0.0890 -0.3238  0.0344
 4170TIP3   OH234068   0.749   2.915   1.372  0.1198 -0.1745  0.0455
 4170TIP3    H134069   0.690   2.945   1.441  0.3485  0.2590  0.0562
 4170TIP3    H234070   0.821   2.978   1.373 -0.1101  0.1258 -0.9076
 4171TIP3   OH234071   3.264   2.680   7.040  0.4176 -0.2470  0.3830
 4171TIP3    H134072   3.218   2.733   7.105  2.4675  0.0545  1.6557
 4171TIP3    H234073   3.202   2.611   7.017 -1.3142  1.1209  0.6951
 4172TIP3   OH234074   1.252   0.525   8.136  0.3141 -0.4101  0.2433
 4172TIP3    H134075   1.201   0.596   8.097 -0.2099 -0.6600  0.4697
 4172TIP3    H234076   1.305   0.568   8.204  0.2984 -0.1769  0.1101
 4173TIP3   OH234077   2.871   1.281   6.406  0.1496  0.3146 -0.6981
 4173TIP3    H134078   2.912   1.363   6.434  0.8992 -0.5495  0.8918
 4173TIP3    H234079   2.933   1.213   6.432  0.0485 -0.7197 -2.9785
 4174TIP3   OH234080   5.670   0.614   8.375  0.3790  0.1138  0.7140
 4174TIP3    H134081   5.674   0.520   8.356  0.6318  0.0263  1.1580
 4174TIP3    H234082   5.588   0.626   8.422  1.1884 -0.2277  2.3104
 4175TIP3   OH234083   0.017   5.789   0.410  0.1691 -0.1822 -0.6355
 4175TIP3    H134084  -0.070   5.781   0.370 -0.2590 -0.1715  0.2402
 4175TIP3    H234085   0.049   5.699   0.416 -1.5907 -0.7977  2.7519
 4176TIP3   OH234086   2.394   5.490   0.422  0.2142 -0.1736  0.2727
 4176TIP3    H134087   2.313   5.519   0.381  0.7715  0.1649 -0.6187
 4176TIP3    H234088   2.418   5.562   0.481 -1.0446 -1.0342  1.8965
 4177TIP3   OH234089   3.746   3.028   0.018 -0.6939  0.3427  0.4286
 4177TIP3    H134090   3.824   3.083   0.012  0.2220 -0.6563  2.3215
 4177TIP3    H234091   3.767   2.951  -0.035 -0.1958 -0.1407  1.3261
 4178TIP3   OH234092   0.890   0.713   0.161  0.2569  0.0197 -0.3410
 4178TIP3    H134093   0.877   0.630   0.115 -0.1976  0.4292 -0.9692
 4178TIP3    H234094   0.866   0.780   0.097  2.4251  0.7209 -0.5172
 4179TIP3   OH234095   4.554   1.112   6.894 -0.2617 -0.5966  0.1891
 4179TIP3    H134096   4.500   1.066   6.830 -0.7937  0.4261 -0.1240
 4179TIP3    H234097   4.492   1.143   6.960 -0.1287  0.9040 -0.3630
 4180TIP3   OH234098   4.643   2.917   1.309 -0.3436  0.4511 -0.3788
 4180TIP3    H134099   4.653   2.827   1.276  1.2081 -0.2760  1.8165
 4180TIP3    H234100   4.550   2.924   1.331 -0.4855 -0.6215 -0.5789
 4181TIP3   OH234101   2.020   6.355   7.541  0.2074 -0.2773 -0.3482
 4181TIP3    H134102   2.021   6.314   7.628 -0.1547  1.4513  0.5212
 4181TIP3    H234103   1.930   6.387   7.531  0.0195 -1.1642 -1.7403
 4182TIP3   OH234104   0.905   4.099   1.602  0.2920  0.0032 -0.3308
 4182TIP3    H134105   0.909   4.046   1.682 -0.9648 -0.4853 -0.5640
 4182TIP3    H234106   0.957   4.176   1.622 -0.0599 -0.0684  0.9974
 4183TIP3   OH234107   6.167   4.063   6.929 -0.0538 -0.1340 -0.1797
 4183TIP3    H134108   6.141   4.094   7.016  2.1577 -0.1468  0.5333
 4183TIP3    H234109   6.145   4.135   6.870 -0.2720  0.4427  0.5884
 4184TIP3   OH234110   6.375   2.750   6.855  1.0312  0.1561  0.0249
 4184TIP3    H134111   6.372   2.663   6.816 -0.2717  0.1868  0.0358
 4184TIP3    H234112   6.359   2.810   6.782 -1.6020  0.2031  0.5754
 4185TIP3   OH234113   0.596   4.184   1.587  0.9082 -0.4026 -0.0141
 4185TIP3    H134114   0.665   4.162   1.650  0.3215 -0.4428  0.6257
 4185TIP3    H234115   0.642   4.232   1.518  1.4510  0.2994  0.8013
 4186TIP3   OH234116   1.240   3.842   0.331 -0.2901 -0.2820  0.1388
 4186TIP3    H134117   1.181   3.823   0.258 -1.4351  1.6622  0.4962
 4186TIP3    H234118   1.213   3.781   0.400 -1.4317  0.0990  0.0551
 4187TIP3   OH234119   1.436   6.268   0.724 -0.1474 -0.1235 -0.0991
 4187TIP3    H134120   1.485   6.318   0.789  2.4045 -1.2607 -1.0127
 4187TIP3    H234121   1.463   6.177   0.738 -1.8844 -0.7984 -0.8132
 4188TIP3   OH234122   5.840   5.358   6.953 -0.2468  0.6296 -0.5092
 4188TIP3    H134123   5.908   5.407   6.907  1.4846 -1.0655  0.1119
 4188TIP3    H234124   5.772   5.345   6.888  1.3711 -0.2127 -2.1126
 4189TIP3   OH234125   4.521   5.306   8.283  0.1068 -0.0595  0.4212
 4189TIP3    H134126   4.563   5.383   8.321 -0.8929  2.0088 -2.3250
 4189TIP3    H234127   4.544   5.234   8.342  0.5476  2.4109  3.5154
 4190TIP3   OH234128   1.803   5.360   1.938 -0.1853  0.5152  0.4743
 4190TIP3    H134129   1.874   5.346   2.000  0.8889  0.5188 -0.7272
 4190TIP3    H234130   1.747   5.283   1.947  1.0389 -0.4610  0.0522
 4191TIP3   OH234131   2.118   1.338   1.128 -0.4473  0.4433  0.7759
 4191TIP3    H134132   2.087   1.307   1.213 -1.4897 -2.2748 -0.4729
 4191TIP3    H234133   2.040   1.336   1.072  0.5394  0.4896 -0.6567
 4192TIP3   OH234134   2.875   4.734   1.113  0.3686 -0.6612 -0.0664
 4192TIP3    H134135   2.937   4.711   1.182  2.0061 -1.5605 -1.7357
 4192TIP3    H234136   2.875   4.659   1.054 -3.3682 -1.2600  0.4728
 4193TIP3   OH234137   2.412   1.853   6.713 -0.7201  0.0576  0.1903
 4193TIP3    H134138   2.463   1.927   6.748  0.5830 -0.7185 -0.0082
 4193TIP3    H234139   2.400   1.794   6.788 -1.7295  0.4259  0.3396
 4194TIP3   OH234140   2.021   1.115   6.918 -0.8441  0.2014 -0.1685
 4194TIP3    H134141   1.997   1.203   6.889 -0.5465  1.0093  1.8619
 4194TIP3    H234142   2.089   1.129   6.983  0.4543 -1.6685 -1.0416
 4195TIP3   OH234143   2.776   1.694   0.451  0.2453  0.1843  0.0067
 4195TIP3    H134144   2.832   1.747   0.507  1.3107  0.7657 -1.5272
 4195TIP3    H234145   2.815   1.702   0.364 -0.8848 -1.3025 -0.6871
 4196TIP3   OH234146   3.661   2.593   7.714 -0.5847 -0.0124 -0.3492
 4196TIP3    H134147   3.612   2.663   7.672 -1.7499 -1.0428 -0.7880
 4196TIP3    H234148   3.737   2.579   7.657  0.5477  1.9374  0.6054
 4197TIP3   OH234149   1.041   1.173   2.087  0.3655  0.0156  0.3112
 4197TIP3    H134150   0.952   1.146   2.063  0.0275 -0.6672  2.1894
 4197TIP3    H234151   1.047   1.155   2.180  2.2126  0.8547  0.3889
 4198TIP3   OH234152   1.805   2.070   8.436  0.6991 -0.1414 -0.2026
 4198TIP3    H134153   1.770   2.159   8.441  2.0489  0.4149 -0.1882
 4198TIP3    H234154   1.900   2.082   8.427  1.1470 -1.5851  1.7966
 4199TIP3   OH234155   6.316   0.253   1.317 -0.4126  0.1025 -0.3239
 4199TIP3    H134156   6.386   0.272   1.379 -1.0565  1.1184  0.1100
 4199TIP3    H234157   6.361   0.215   1.241  0.3222 -1.8594  1.0153
 4200TIP3   OH234158   1.068   2.986   8.118 -0.3387 -0.2082  0.4053
 4200TIP3    H134159   1.030   3.019   8.036  1.1977 -0.9913 -0.6665
 4200TIP3    H234160   1.139   3.047   8.138 -0.5019 -0.2045  1.0136
 4201TIP3   OH234161   3.924   1.591   0.352  0.3957 -0.2467 -0.0602
 4201TIP3    H134162   4.003   1.602   0.299  1.0116 -1.4655  0.5426
 4201TIP3    H234163   3.852   1.598   0.290  1.0715 -1.0363 -0.9661
 4202TIP3   OH234164   5.261   6.209   7.833 -0.1614 -0.3237 -0.0705
 4202TIP3    H134165   5.352   6.201   7.803 -0.3118  0.1194 -0.6555
 4202TIP3    H234166   5.233   6.118   7.847  1.2762 -0.4263  2.9616
 4203TIP3   OH234167   6.422   5.358   7.938  0.0489  0.3051  0.0362
 4203TIP3    H134168   6.370   5.385   7.862 -0.4294 -0.6951 -0.0062
 4203TIP3    H234169   6.491   5.303   7.902 -0.1660 -0.1529  0.3101
 4204TIP3   OH234170   6.035   0.102   8.427  0.5496  0.3381 -0.1029
 4204TIP3    H134171   6.096   0.144   8.368  1.6269 -0.8795  0.0943
 4204TIP3    H234172   6.068   0.123   8.515 -1.6765  3.1020  0.2179
 4205TIP3   OH234173   2.994   1.637   0.786 -0.3011  0.5338 -0.3099
 4205TIP3    H134174   2.907   1.623   0.822 -0.0098 -1.2850 -0.2147
 4205TIP3    H234175   3.035   1.701   0.845 -0.6190 -0.6877  1.2848
 4206TIP3   OH234176   2.901   6.315   7.311  0.0056  0.3589 -0.1166
 4206TIP3    H134177   2.846   6.358   7.246  0.2700 -0.5841 -0.9784
 4206TIP3    H234178   2.843   6.252   7.353  0.1382  0.1377 -0.2625
 4207TIP3   OH234179   2.257   0.806   7.475 -0.3845  0.4889  0.1146
 4207TIP3    H134180   2.229   0.841   7.559  0.5337  1.6945 -0.0630
 4207TIP3    H234181   2.316   0.872   7.439  0.6935 -0.8441 -0.6546
 4208TIP3   OH234182   6.371   2.542   7.335 -0.3356  0.4406 -0.4291
 4208TIP3    H134183   6.301   2.601   7.363  0.0068  0.5641  0.1815
 4208TIP3    H234184   6.341   2.507   7.251 -2.8266 -2.3078  1.4373
 4209TIP3   OH234185   2.933   3.638   1.772 -0.1416 -0.0596  0.0993
 4209TIP3    H134186   2.894   3.632   1.685 -1.8980  1.7828  0.6698
 4209TIP3    H234187   2.868   3.597   1.829  1.8090 -2.9498  0.4400
 4210TIP3   OH234188   5.919   1.008   8.293 -0.4170 -0.7677  0.0928
 4210TIP3    H134189   5.828   1.038   8.300 -0.6102 -1.2732 -0.1386
 4210TIP3    H234190   5.929   0.948   8.367 -0.3769 -0.9676 -0.0733
 4211TIP3   OH234191   2.750   4.700   1.991  0.0844  0.0917 -0.0889
 4211TIP3    H134192   2.770   4.793   2.002  0.0688  0.3124 -1.6522
 4211TIP3    H234193   2.654   4.695   2.000  0.0212  0.3348 -0.5849
 4212TIP3   OH234194   5.407   1.020   0.689  0.5099 -0.1057 -0.7173
 4212TIP3    H134195   5.394   1.071   0.769 -0.1205  0.4178 -1.1435
 4212TIP3    H234196   5.322   1.022   0.646  0.2527 -2.1216 -0.4065
 4213TIP3   OH234197   0.957   4.672   0.253  0.3572 -0.7009  0.4732
 4213TIP3    H134198   0.867   4.704   0.250  0.8213  0.5870 -0.6926
 4213TIP3    H234199   0.974   4.642   0.164  1.2401 -0.4723  0.5622
 4214TIP3   OH234200   1.048   1.399   7.725  0.2135 -0.2812 -0.6919
 4214TIP3    H134201   1.130   1.402   7.774 -0.6172 -0.7984  0.7975
 4214TIP3    H234202   1.013   1.488   7.730 -0.4475 -0.5871  0.7599
 4215TIP3   OH234203   3.606   0.483   0.724 -0.1045  0.3915 -0.0008
 4215TIP3    H134204   3.613   0.530   0.641 -0.7567  0.9841  0.2687
 4215TIP3    H234205   3.619   0.550   0.791 -1.2619  0.2545  0.3957
 4216TIP3   OH234206   0.707   3.014   0.420 -0.1585 -0.0444  0.2763
 4216TIP3    H134207   0.775   3.054   0.475 -0.7614 -0.8979  1.7097
 4216TIP3    H234208   0.684   3.082   0.357  2.0580  0.2523 -0.3055
 4217TIP3   OH234209   0.019   3.788   7.415 -0.8350 -0.0665 -0.4842
 4217TIP3    H134210   0.042   3.696   7.405  1.9879  0.7332 -2.5236
 4217TIP3    H234211   0.003   3.818   7.326 -2.9172  1.2021  0.2485
 4218TIP3   OH234212   1.049   5.315   5.919  0.4660  0.3403 -0.4699
 4218TIP3    H134213   1.112   5.366   5.867  0.4870 -0.0891 -0.8730
 4218TIP3    H234214   0.966   5.361   5.908  0.6740  0.8263 -0.0568
 4219TIP3   OH234215   0.620   4.083   0.342  0.3607  0.0443  0.0104
 4219TIP3    H134216   0.648   4.173   0.356  0.2722 -0.0737  1.0657
 4219TIP3    H234217   0.529   4.081   0.372  0.4372 -0.4503  0.2255
 4220TIP3   OH234218   2.275   2.224   0.955  0.2348 -0.3015  0.4064
 4220TIP3    H134219   2.221   2.266   1.022 -0.9701  0.3248 -0.9172
 4220TIP3    H234220   2.213   2.180   0.897  1.1575  0.0661 -0.9107
 4221TIP3   OH234221   4.376   5.717   1.171 -0.4210  0.2727  0.2735
 4221TIP3    H134222   4.432   5.675   1.237 -0.2190 -1.6297 -1.0056
 4221TIP3    H234223   4.432   5.722   1.093 -0.7204  2.2740  0.1540
 4222TIP3   OH234224   3.719   0.193   7.700 -0.4338  0.1541 -0.2061
 4222TIP3    H134225   3.801   0.237   7.724 -0.3721 -0.1193  0.1066
 4222TIP3    H234226   3.737   0.150   7.617  0.2816 -1.2726  0.6388
 4223TIP3   OH234227   2.908   1.364   1.399 -0.4328 -0.2284  0.4863
 4223TIP3    H134228   2.966   1.426   1.354 -0.6635 -0.5258 -0.2323
 4223TIP3    H234229   2.821   1.403   1.392 -1.1315 -2.0108 -2.6858
 4224TIP3   OH234230   6.855   0.355   8.089  0.0161  0.1373 -0.0971
 4224TIP3    H134231   6.840   0.262   8.102  1.0859  0.0300  0.4792
 4224TIP3    H234232   6.948   0.368   8.109  0.0597  1.2002 -0.8825
 4225TIP3   OH234233   2.253   1.928   1.337 -0.0498 -0.6194 -0.1426
 4225TIP3    H134234   2.334   1.928   1.388  0.6710  0.3486 -1.2415
 4225TIP3    H234235   2.235   1.835   1.321  0.5021 -0.8719  0.6248
 4226TIP3   OH234236   4.232   5.086   2.091 -0.5299  0.2072  0.3461
 4226TIP3    H134237   4.292   5.037   2.035 -2.3812  0.6158 -2.1482
 4226TIP3    H234238   4.283   5.161   2.120  0.5605 -0.0991 -0.6764
 4227TIP3   OH234239   0.294   2.382   7.633  0.6064 -0.0619 -0.1418
 4227TIP3    H134240   0.226   2.332   7.587 -0.3456  0.2406  0.8849
 4227TIP3    H234241   0.323   2.447   7.569 -0.8126  0.4583 -0.3028
 4228TIP3   OH234242   6.191   2.081   6.904  0.1452  0.4790 -0.0185
 4228TIP3    H134243   6.274   2.038   6.883  0.0079  0.4025 -0.4264
 4228TIP3    H234244   6.156   2.031   6.978 -0.9275 -1.3642 -1.6569
 4229TIP3   OH234245   0.909   4.638   7.509  0.4883  0.3971  0.1216
 4229TIP3    H134246   0.920   4.733   7.513  1.4604  0.3481 -0.9882
 4229TIP3    H234247   0.992   4.605   7.475 -0.8520 -0.5673 -2.5051
 4230TIP3   OH234248   6.535   1.358   0.596 -0.0483 -0.4726  0.3761
 4230TIP3    H134249   6.458   1.359   0.652 -0.1326  0.2966  0.2564
 4230TIP3    H234250   6.586   1.283   0.626 -0.8104 -0.9451  0.4998
 4231TIP3   OH234251   4.474   6.639   2.327  0.7633  0.3423 -0.4998
 4231TIP3    H134252   4.523   6.595   2.398  1.9884  1.7338 -0.4286
 4231TIP3    H234253   4.417   6.701   2.373 -1.7565 -1.7665 -0.5333
 4232TIP3   OH234254   5.490   6.437   1.647 -0.5185  0.1794  0.0151
 4232TIP3    H134255   5.553   6.496   1.606 -0.5145 -1.2132 -2.1245
 4232TIP3    H234256   5.435   6.494   1.701  0.7403  1.8241 -0.3813
 4233TIP3   OH234257   0.941   4.172   0.773  0.3055 -0.0415  0.0584
 4233TIP3    H134258   0.962   4.261   0.801 -1.3341  0.3747  0.1140
 4233TIP3    H234259   0.907   4.130   0.852  1.5105 -0.8892  0.1446
 4234TIP3   OH234260   5.382   2.497   0.803  0.3815 -0.3312 -0.0661
 4234TIP3    H134261   5.469   2.534   0.785 -0.1429  0.5510 -0.9354
 4234TIP3    H234262   5.324   2.543   0.742 -0.6881 -0.9553  0.4522
 4235TIP3   OH234263   6.197   3.004   0.299 -0.4850 -0.1502  0.0949
 4235TIP3    H134264   6.236   3.039   0.379 -0.7772 -0.1445  0.2347
 4235TIP3    H234265   6.239   2.919   0.287 -0.4041 -0.1294  0.2282
 4236TIP3   OH234266   6.394   3.779   7.719 -0.5484 -0.4429 -0.0484
 4236TIP3    H134267   6.337   3.752   7.647  0.2222 -2.3235 -0.0098
 4236TIP3    H234268   6.479   3.793   7.678 -0.3664 -0.4302  0.3314
 4237TIP3   OH234269   6.817   1.854   7.552  0.2708 -0.5137 -0.3704
 4237TIP3    H134270   6.757   1.909   7.502 -1.4086 -1.6031  0.3639
 4237TIP3    H234271   6.796   1.873   7.644  1.2420 -0.7378 -0.0909
 4238TIP3   OH234272   2.419   1.306   2.062 -0.2253  0.7896 -0.1255
 4238TIP3    H134273   2.328   1.326   2.084 -0.4255 -0.5790  0.3790
 4238TIP3    H234274   2.426   1.211   2.072  1.3180  0.8974  0.0537
 4239TIP3   OH234275   2.003   4.642   5.969 -0.0112 -0.2841  0.0672
 4239TIP3    H134276   2.045   4.586   6.034 -0.3355  1.5379  1.9724
 4239TIP3    H234277   1.909   4.636   5.989 -0.1161  0.3462 -0.1958
 4240TIP3   OH234278   6.391   4.047   7.499  0.4289  0.1102 -0.2033
 4240TIP3    H134279   6.374   4.099   7.578  0.0448 -0.3315  0.0131
 4240TIP3    H234280   6.304   4.022   7.469  0.6373 -1.3747  0.3529
 4241TIP3   OH234281   0.806   1.017   0.285  0.0083 -0.3068 -0.2478
 4241TIP3    H134282   0.718   1.036   0.314  0.2369 -0.2175  0.3953
 4241TIP3    H234283   0.860   1.087   0.322  0.1915  0.3073 -1.5874
 4242TIP3   OH234284   3.558   5.594   1.611 -0.2886 -0.0901 -0.1453
 4242TIP3    H134285   3.653   5.597   1.620 -0.1823  0.6101 -1.3410
 4242TIP3    H234286   3.526   5.598   1.701  0.7856  1.4145  0.2055
 4243TIP3   OH234287   0.224   2.289   1.647  0.5944  0.1975  0.2309
 4243TIP3    H134288   0.167   2.311   1.720 -0.2458 -0.0632 -0.3328
 4243TIP3    H234289   0.302   2.252   1.688 -0.7784 -2.0794  0.9679
 4244TIP3   OH234290   6.259   6.618   0.971 -0.0522 -0.0012 -0.3844
 4244TIP3    H134291   6.224   6.661   1.050 -1.5028 -0.6103 -0.6580
 4244TIP3    H234292   6.256   6.685   0.904 -0.5382  0.0241 -0.3472
 4245TIP3   OH234293   5.643   6.017   0.272 -0.4207 -0.4516 -0.6419
 4245TIP3    H134294   5.586   6.093   0.263  0.5901  0.3213 -0.6847
 4245TIP3    H234295   5.717   6.048   0.325 -0.0063 -1.4113 -0.6346
 4246TIP3   OH234296   4.323   6.136   0.729  0.2868  0.0877 -0.3262
 4246TIP3    H134297   4.413   6.108   0.710  0.2261  0.4521 -1.2082
 4246TIP3    H234298   4.296   6.184   0.651 -1.4422 -1.8228 -1.0059
 4247TIP3   OH234299   1.624   4.467   6.863  0.0399  0.4616 -0.2166
 4247TIP3    H134300   1.551   4.528   6.872 -0.4413  0.1896 -1.8445
 4247TIP3    H234301   1.607   4.422   6.780  2.6309  1.1791 -1.2357
 4248TIP3   OH234302   4.049   2.790   0.472  0.1125  0.2953 -0.6634
 4248TIP3    H134303   4.115   2.859   0.478  1.0645 -0.5188 -1.3586
 4248TIP3    H234304   3.990   2.819   0.403 -0.0115  0.8157 -0.3465
 4249TIP3   OH234305   4.603   2.872   5.860  0.2913  0.5253  0.0896
 4249TIP3    H134306   4.661   2.932   5.814 -0.8243  1.2856 -0.3826
 4249TIP3    H234307   4.550   2.929   5.916 -0.1852 -0.1088  0.2967
 4250TIP3   OH234308   1.650   0.568   0.233 -0.0329 -0.3228 -0.3030
 4250TIP3    H134309   1.692   0.492   0.194 -0.7480 -1.5803  1.2672
 4250TIP3    H234310   1.566   0.535   0.266  0.2260  0.8073  1.6361
 4251TIP3   OH234311   4.380   1.473   1.169  0.1954 -0.6905 -0.1563
 4251TIP3    H134312   4.396   1.406   1.103 -2.0664 -0.0264 -1.4712
 4251TIP3    H234313   4.394   1.428   1.253 -1.4294 -2.8837 -0.9876
 4252TIP3   OH234314   5.360   5.040   7.095  0.0673 -0.4488 -0.3900
 4252TIP3    H134315   5.283   5.091   7.069 -1.1088 -1.9093  0.1063
 4252TIP3    H234316   5.434   5.089   7.059 -0.9982  1.5664  0.0291
 4253TIP3   OH234317   4.712   6.277   0.739  0.4233 -0.2686 -0.1698
 4253TIP3    H134318   4.692   6.193   0.699 -1.8932  0.0282  0.2499
 4253TIP3    H234319   4.727   6.336   0.665 -2.3302 -0.0694 -0.6532
 4254TIP3   OH234320   2.180   1.276   0.530  0.3235 -0.7121 -0.5339
 4254TIP3    H134321   2.116   1.266   0.601  0.3444 -1.8104 -0.6581
 4254TIP3    H234322   2.254   1.221   0.557 -0.1527 -2.1396 -1.9535
 4255TIP3   OH234323   6.604   1.181   0.279  0.2928  0.2749  0.1534
 4255TIP3    H134324   6.520   1.189   0.323 -0.4935 -3.9618 -0.1996
 4255TIP3    H234325   6.586   1.206   0.188  0.0759  1.6587  0.5485
 4256TIP3   OH234326   1.387   5.096   6.144  0.1491  0.0431 -0.6368
 4256TIP3    H134327   1.397   5.003   6.124  1.6398 -0.3161  1.4473
 4256TIP3    H234328   1.477   5.128   6.151 -0.3068  1.9490 -2.3723
 4257TIP3   OH234329   1.006   5.625   0.381 -0.4276 -0.8816 -0.0022
 4257TIP3    H134330   1.044   5.540   0.360 -1.1694 -1.1741 -0.1925
 4257TIP3    H234331   1.073   5.670   0.432  0.2661 -1.2896 -0.5485
 4258TIP3   OH234332   2.670   6.543   0.737  0.4841  0.5408  0.1104
 4258TIP3    H134333   2.700   6.500   0.817  0.8994  1.5246  0.4954
 4258TIP3    H234334   2.719   6.500   0.667 -0.8867 -1.2804  0.2017
 4259TIP3   OH234335   1.899   3.964   1.335 -0.3237  0.0122  0.4470
 4259TIP3    H134336   1.821   3.911   1.347 -0.8390  0.4540 -0.7831
 4259TIP3    H234337   1.876   4.049   1.373  0.2786 -0.4176  1.8481
 4260TIP3   OH234338   4.411   6.166   1.532 -0.1013  0.2828 -0.2104
 4260TIP3    H134339   4.396   6.217   1.612 -1.3806 -2.0382  1.1431
 4260TIP3    H234340   4.499   6.131   1.541  0.6947  1.9311 -1.0390
 4261TIP3   OH234341   2.479   5.973   6.222  0.5904 -0.5633  0.3570
 4261TIP3    H134342   2.573   5.955   6.226  0.5370 -1.3891 -1.3575
 4261TIP3    H234343   2.470   6.062   6.256  1.7431 -1.1143  2.2553
 4262TIP3   OH234344   3.456   0.843   1.910  0.0699 -0.6050 -1.0177
 4262TIP3    H134345   3.520   0.913   1.924  0.5550 -1.1894 -0.1890
 4262TIP3    H234346   3.372   0.889   1.901  0.5568  0.1499 -1.8144
 4263TIP3   OH234347   0.107   6.181   7.290 -0.0767 -0.6086  0.4886
 4263TIP3    H134348   0.093   6.126   7.213 -1.2494  2.1764 -1.4555
 4263TIP3    H234349   0.129   6.267   7.254  2.8834  0.0403  3.3604
 4264TIP3   OH234350   1.273   4.829   1.306  0.1101 -0.2968  0.1012
 4264TIP3    H134351   1.246   4.777   1.381 -0.7513  1.4124  1.0500
 4264TIP3    H234352   1.356   4.790   1.277 -0.4335 -2.0665  0.8092
 4265TIP3   OH234353   0.393   1.633   0.797 -0.0987  0.4418  0.0907
 4265TIP3    H134354   0.390   1.712   0.850  1.5476  0.2483  0.5331
 4265TIP3    H234355   0.459   1.652   0.729 -1.6768  0.4444 -1.5107
 4266TIP3   OH234356   3.651   5.971   0.118 -0.0850 -0.3044  0.6715
 4266TIP3    H134357   3.583   5.952   0.053  0.6941  1.8107 -0.8829
 4266TIP3    H234358   3.723   5.911   0.096 -0.1523 -0.1863  0.1199
 4267TIP3   OH234359   3.575   1.941   0.338  0.1265  0.1934  0.4153
 4267TIP3    H134360   3.645   1.913   0.279 -1.0506 -1.2028 -0.3906
 4267TIP3    H234361   3.494   1.922   0.290 -0.9699 -2.4102  2.9912
 4268TIP3   OH234362   5.723   6.125   7.443  0.2449  0.3808  0.0444
 4268TIP3    H134363   5.775   6.089   7.371 -0.0063 -3.8471  1.6932
 4268TIP3    H234364   5.774   6.105   7.521 -1.5232  0.7571  1.3560
 4269TIP3   OH234365   6.247   5.871   0.487 -0.4578 -0.0968 -0.1086
 4269TIP3    H134366   6.193   5.842   0.561 -0.6808  0.3692 -0.0848
 4269TIP3    H234367   6.234   5.804   0.420  0.6525 -1.1556  0.6759
 4270TIP3   OH234368   6.286   0.134   1.058 -0.1957  0.1705  0.1268
 4270TIP3    H134369   6.354   0.085   1.106 -0.6623  2.4392  3.4870
 4270TIP3    H234370   6.332   0.210   1.023 -0.3592 -0.1534 -0.8015
 4271TIP3   OH234371   0.251   0.121   0.402 -0.4778 -0.1129 -0.0375
 4271TIP3    H134372   0.213   0.197   0.447  2.1853 -0.5507  3.3566
 4271TIP3    H234373   0.291   0.158   0.323  0.5820  2.0967  1.4262
 4272TIP3   OH234374   4.282   0.875   7.356 -0.0926 -0.2262 -0.3097
 4272TIP3    H134375   4.240   0.807   7.302  1.3274  0.2703 -2.1354
 4272TIP3    H234376   4.289   0.835   7.442 -3.9733 -0.4534  0.1068
 4273TIP3   OH234377   4.491   0.411   7.715  0.5101 -0.1313 -0.6155
 4273TIP3    H134378   4.546   0.379   7.787  1.0988  0.6775 -0.6933
 4273TIP3    H234379   4.527   0.497   7.694 -2.1602  1.4499  0.8393
 4274TIP3   OH234380   0.031   0.933   7.131 -0.5778  0.3909 -0.2947
 4274TIP3    H134381  -0.006   0.967   7.050 -0.0315 -1.2829 -1.2777
 4274TIP3    H234382  -0.044   0.899   7.179 -0.7415  0.1683 -0.7036
 4275TIP3   OH234383   1.930   5.554   2.263 -0.3485  0.0004 -0.1492
 4275TIP3    H134384   1.851   5.553   2.316 -0.2798 -0.8188 -0.0363
 4275TIP3    H234385   1.948   5.461   2.246  1.3617  0.0682  1.0075
 4276TIP3   OH234386   4.234   6.504   0.845  0.0557 -0.3142  0.2113
 4276TIP3    H134387   4.276   6.457   0.918  1.3500  0.3126 -0.0977
 4276TIP3    H234388   4.187   6.436   0.797  0.2204 -0.9449  0.9160
 4277TIP3   OH234389   1.278   2.650   2.486  0.4811  0.0371  0.1412
 4277TIP3    H134390   1.313   2.561   2.487 -1.0704 -0.5882  0.1169
 4277TIP3    H234391   1.331   2.695   2.420  2.2546 -0.4250  1.1806
 4278TIP3   OH234392   2.746   1.093   0.450 -0.3355 -0.3833 -0.2409
 4278TIP3    H134393   2.824   1.100   0.505 -1.7374 -1.0567  1.9606
 4278TIP3    H234394   2.755   1.164   0.387  1.6510  0.0626  0.4532
 4279TIP3   OH234395   1.885   2.908   8.008 -0.1445 -0.4653 -0.0805
 4279TIP3    H134396   1.951   2.957   8.058  0.8422  0.1858 -1.9151
 4279TIP3    H234397   1.932   2.832   7.974 -0.8727 -1.0460  0.1771
 4280TIP3   OH234398   4.434   2.100   6.667  0.0040 -0.1537  0.5883
 4280TIP3    H134399   4.428   2.168   6.734  0.5250  0.6727 -0.2005
 4280TIP3    H234400   4.386   2.026   6.705  0.4275  0.2430  1.9407
 4281TIP3   OH234401   2.364   0.820   6.857  0.6556  0.6931  0.0772
 4281TIP3    H134402   2.372   0.735   6.901  1.4146  1.6001  1.8086
 4281TIP3    H234403   2.375   0.800   6.764  1.9483 -0.9758  0.5267
 4282TIP3   OH234404   4.996   6.217   1.927  0.0470  0.3221 -0.0913
 4282TIP3    H134405   4.935   6.184   1.861  0.6925 -0.7775 -0.1579
 4282TIP3    H234406   4.978   6.311   1.930 -1.1792  0.1321 -0.5861
 4283TIP3   OH234407   5.461   5.803   1.462 -0.3606 -0.1366 -0.2268
 4283TIP3    H134408   5.409   5.769   1.534  1.5783  0.6527  1.6589
 4283TIP3    H234409   5.412   5.780   1.383 -2.1247 -1.8153  1.2797
 4284TIP3   OH234410   2.511   0.672   7.880  0.1988  0.2647 -0.3595
 4284TIP3    H134411   2.575   0.717   7.824  1.5471  0.4313  1.2389
 4284TIP3    H234412   2.518   0.580   7.855  1.0352  0.2938 -0.2575
 4285TIP3   OH234413   5.653   1.267   8.087 -0.3575 -0.0267 -0.3746
 4285TIP3    H134414   5.615   1.184   8.060 -2.6149  1.0287 -0.7213
 4285TIP3    H234415   5.668   1.258   8.181 -1.7806 -0.4457 -0.1594
 4286TIP3   OH234416   2.547   3.961   1.233  0.2625  0.1711  0.1771
 4286TIP3    H134417   2.509   3.953   1.145  1.1335  0.8020 -0.2688
 4286TIP3    H234418   2.472   3.973   1.291 -0.2711  0.6049 -0.5905
 4287TIP3   OH234419   3.352   6.078   0.852  0.2556  0.1908 -0.2026
 4287TIP3    H134420   3.346   5.985   0.831  0.4991  0.3724 -1.0744
 4287TIP3    H234421   3.375   6.079   0.945 -0.8246 -0.6075  0.0950
 4288TIP3   OH234422   0.494   6.549   8.296 -0.5139  0.6524 -0.3212
 4288TIP3    H134423   0.491   6.460   8.262  1.1177  0.0798  0.9402
 4288TIP3    H234424   0.554   6.545   8.370  0.4849  3.0269 -0.9042
 4289TIP3   OH234425   3.723   2.525   8.490 -0.4843  0.8530 -0.0313
 4289TIP3    H134426   3.808   2.509   8.449 -0.0510  2.2941  0.2387
 4289TIP3    H234427   3.703   2.444   8.537  0.8596  0.5695  0.0878
 4290TIP3   OH234428   0.549   1.072   0.768 -0.4414  0.6335  0.2243
 4290TIP3    H134429   0.629   1.124   0.774  0.0155 -0.1736  1.5247
 4290TIP3    H234430   0.577   0.991   0.725 -0.9506  1.0533 -0.9331
 4291TIP3   OH234431   4.232   0.903   0.715 -0.5646 -0.0920  0.3026
 4291TIP3    H134432   4.315   0.925   0.757 -0.5441  0.9323 -0.2537
 4291TIP3    H234433   4.165   0.934   0.777 -0.5300  0.1065  0.2419
 4292TIP3   OH234434   6.684   3.393   7.219 -0.2375 -0.6232  0.0548
 4292TIP3    H134435   6.748   3.450   7.262  0.5803 -0.4945 -1.2616
 4292TIP3    H234436   6.728   3.308   7.211 -0.4212 -0.6804 -0.3968
 4293TIP3   OH234437   0.645   4.823   8.395  0.5300 -0.2635 -0.6206
 4293TIP3    H134438   0.583   4.896   8.401  0.1692 -0.6265  0.1587
 4293TIP3    H234439   0.680   4.814   8.483 -0.0317 -1.5426 -0.5148
 4294TIP3   OH234440   0.386   1.331   0.849 -0.2917  0.9376 -0.3013
 4294TIP3    H134441   0.461   1.383   0.820  0.9231  0.2983  1.4772
 4294TIP3    H234442   0.397   1.247   0.806 -1.3800  1.6024 -1.9443
 4295TIP3   OH234443   3.429   4.254   7.854 -0.1707  0.7683  0.7145
 4295TIP3    H134444   3.476   4.336   7.868 -0.0190  0.8232 -0.0382
 4295TIP3    H234445   3.382   4.238   7.935  0.9582  0.8428  1.4101
 4296TIP3   OH234446   0.099   5.779   7.010  0.0519  0.2318  0.0710
 4296TIP3    H134447   0.005   5.762   7.004 -0.5134  2.6914  0.8447
 4296TIP3    H234448   0.140   5.700   6.974 -2.3573  0.7151 -4.4494
 4297TIP3   OH234449   1.113   0.370   1.530  0.2503 -0.5168  0.5223
 4297TIP3    H134450   1.122   0.448   1.476 -0.0427 -1.0648 -0.3371
 4297TIP3    H234451   1.193   0.320   1.516  1.6190  0.7768  3.0357
 4298TIP3   OH234452   2.066   5.301   0.789  0.0275 -0.3441 -0.3371
 4298TIP3    H134453   1.976   5.288   0.760 -0.1379 -1.3576  0.5290
 4298TIP3    H234454   2.072   5.393   0.812 -1.3094 -0.5881  1.1761
 4299TIP3   OH234455   0.150   1.308   1.364 -0.3556  0.1500  0.6039
 4299TIP3    H134456   0.185   1.314   1.275 -1.6701  0.2674  0.0797
 4299TIP3    H234457   0.083   1.376   1.368  1.6406  2.2062  2.6538
 4300TIP3   OH234458   0.339   0.021   8.595  0.3119  0.1588  0.3090
 4300TIP3    H134459   0.335   0.089   8.662  2.8105 -1.0478  1.8488
 4300TIP3    H234460   0.418   0.043   8.545 -0.6114  0.1085 -1.2085
 4301TIP3   OH234461   3.169   1.102   0.838 -0.0026 -0.2439  0.1407
 4301TIP3    H134462   3.195   1.127   0.927 -0.1230 -2.1842  0.7570
 4301TIP3    H234463   3.082   1.141   0.827  0.3046  0.5996  0.5901
 4302TIP3   OH234464   3.037   5.250   8.490 -0.9565  0.3898 -0.2736
 4302TIP3    H134465   3.022   5.218   8.578  2.0614 -0.7733 -0.0465
 4302TIP3    H234466   2.999   5.184   8.433 -0.8020 -0.0933  0.1829
 4303TIP3   OH234467   2.710   3.056   0.341 -0.1801  0.1306  0.8689
 4303TIP3    H134468   2.708   2.984   0.404  0.2574 -0.9582 -0.3262
 4303TIP3    H234469   2.802   3.082   0.337 -0.4758  1.4507  2.0286
 4304TIP3   OH234470   4.552   2.880   1.762 -0.2294  0.3704 -0.0305
 4304TIP3    H134471   4.562   2.915   1.850 -0.2696  0.5668 -0.1055
 4304TIP3    H234472   4.634   2.903   1.718 -0.5150  0.9278 -0.2757
 4305TIP3   OH234473   1.375   0.842   1.433 -0.4007  0.1342  0.4714
 4305TIP3    H134474   1.434   0.774   1.465 -0.1015  1.4152  2.7977
 4305TIP3    H234475   1.288   0.810   1.454 -0.4545 -0.6527 -0.7965
 4306TIP3   OH234476   2.371   1.543   0.626 -0.1121 -0.0989 -0.2285
 4306TIP3    H134477   2.412   1.622   0.589  0.2940 -0.0430  0.3326
 4306TIP3    H234478   2.431   1.472   0.602 -0.3617 -0.2098 -0.5351
 4307TIP3   OH234479   1.293   5.234   1.844  0.0833  0.6433  0.0867
 4307TIP3    H134480   1.269   5.167   1.908 -0.1996  0.4504 -0.2159
 4307TIP3    H234481   1.211   5.252   1.796  0.8950 -1.5174 -2.3721
 4308TIP3   OH234482   6.812   2.311   8.218  0.0653 -0.2749 -0.2927
 4308TIP3    H134483   6.728   2.328   8.259  0.5941 -1.4199  1.3894
 4308TIP3    H234484   6.859   2.394   8.223 -0.7706  0.2381 -0.8031
 4309TIP3   OH234485   1.015   6.150   1.407  0.0369 -0.1802 -0.1713
 4309TIP3    H134486   0.924   6.118   1.411  0.2774 -1.0186 -1.0773
 4309TIP3    H234487   1.013   6.219   1.341  0.0438 -0.1223 -0.1114
 4310TIP3   OH234488   4.328   5.082   1.297 -0.1051 -0.2206  0.2646
 4310TIP3    H134489   4.380   5.005   1.275 -1.0178 -1.1077  1.1687
 4310TIP3    H234490   4.304   5.070   1.388 -0.9705  0.7265  0.1785
 4311TIP3   OH234491   1.576   4.256   0.472  0.4633  0.5010  0.1800
 4311TIP3    H134492   1.615   4.169   0.461 -1.0325 -0.4346  1.7656
 4311TIP3    H234493   1.539   4.278   0.387 -0.9376 -1.3759  0.2517
 4312TIP3   OH234494   3.166   2.256   8.371  0.3004  0.3255  0.3882
 4312TIP3    H134495   3.210   2.270   8.455  1.3861  0.5212 -0.1906
 4312TIP3    H234496   3.094   2.319   8.370  1.1624  1.3219  0.5686
 4313TIP3   OH234497   0.748   4.413   6.590 -1.0062 -0.0960  0.3670
 4313TIP3    H134498   0.726   4.431   6.499 -1.1039  0.5065  0.5011
 4313TIP3    H234499   0.695   4.336   6.613  0.6237 -1.5972 -0.6900
 4314TIP3   OH234500   1.896   0.983   0.428 -0.7656  0.5225 -0.2776
 4314TIP3    H134501   1.963   0.993   0.361  2.2092 -0.2688  2.3375
 4314TIP3    H234502   1.847   0.904   0.402 -0.8422  1.1941 -2.3156
 4315TIP3   OH234503   5.918   1.353   7.296  0.2542 -0.3481 -0.1873
 4315TIP3    H134504   5.958   1.320   7.377  0.4701  2.0407  0.7425
 4315TIP3    H234505   5.969   1.313   7.226  2.2693  0.1589  0.9218
 4316TIP3   OH234506   2.447   5.593   7.819  0.3929  0.2247 -0.5781
 4316TIP3    H134507   2.405   5.508   7.827  0.4111  0.2568 -0.0641
 4316TIP3    H234508   2.382   5.649   7.779 -0.3770  0.4820  0.9455
 4317TIP3   OH234509   5.059   4.084   7.059 -0.4512  0.1245  0.3736
 4317TIP3    H134510   5.114   4.007   7.074 -0.5352  0.2172  1.2521
 4317TIP3    H234511   4.977   4.049   7.025 -0.6124 -0.2218  1.0898
 4318TIP3   OH234512   1.326   4.077   1.727  0.1877  0.3191 -0.2072
 4318TIP3    H134513   1.416   4.111   1.728 -0.1193  1.1528  0.5268
 4318TIP3    H234514   1.277   4.138   1.783 -1.6319  2.1098 -3.4481
 4319TIP3   OH234515   2.739   6.497   8.179 -0.0399  0.0342  0.1454
 4319TIP3    H134516   2.700   6.422   8.133 -2.8487  0.6907  1.2214
 4319TIP3    H234517   2.807   6.458   8.234  0.4888 -1.3045 -1.3695
 4320TIP3   OH234518   6.673   2.601   7.799 -0.3301  0.4695  0.1265
 4320TIP3    H134519   6.730   2.677   7.788  1.4948 -0.7513  0.5757
 4320TIP3    H234520   6.650   2.574   7.710  0.5603  0.4601 -0.1076
 4321TIP3   OH234521   6.236   3.699   0.959  0.1223 -0.3264 -0.0133
 4321TIP3    H134522   6.294   3.651   0.900  0.4277 -1.3524  1.0925
 4321TIP3    H234523   6.154   3.651   0.956  0.1358 -0.3721  0.3960
 4322TIP3   OH234524   3.649   4.091   7.075 -0.1043 -0.3152 -0.0421
 4322TIP3    H134525   3.645   4.085   6.979 -0.8682  0.0870 -0.0407
 4322TIP3    H234526   3.705   4.018   7.101 -0.0725 -0.5634 -0.7812
 4323TIP3   OH234527   4.339   5.935   8.003  0.0390 -0.0105  0.1543
 4323TIP3    H134528   4.276   5.975   7.943 -0.1621 -0.7351 -0.1377
 4323TIP3    H234529   4.322   5.841   7.996 -0.4611 -0.0957  1.8585
 4324TIP3   OH234530   5.965   6.031   7.328  0.2423 -0.1587  0.1311
 4324TIP3    H134531   5.955   6.022   7.233  0.1442  0.3238  0.0919
 4324TIP3    H234532   6.058   6.053   7.339  0.3457 -0.6259  0.1777
 4325TIP3   OH234533   5.166   1.678   2.572  0.1182 -0.3110 -0.4463
 4325TIP3    H134534   5.087   1.730   2.557 -1.1952 -1.7726  0.9759
 4325TIP3    H234535   5.238   1.734   2.545 -1.3951  1.1466 -1.6088
 4326TIP3   OH234536   2.036   4.679   0.447  0.0885  0.0074  0.1443
 4326TIP3    H134537   2.073   4.765   0.428 -1.3644  0.6810  0.2047
 4326TIP3    H234538   2.015   4.682   0.541  1.0685 -0.8514  0.4138
 4327TIP3   OH234539   0.840   3.266   0.523 -0.0701  0.0203 -0.4710
 4327TIP3    H134540   0.793   3.314   0.591  0.7895 -0.8463  0.7837
 4327TIP3    H234541   0.930   3.298   0.529 -0.6167  2.8986 -3.9488
 4328TIP3   OH234542   2.090   4.035   8.265  0.1262 -0.0423 -0.6791
 4328TIP3    H134543   1.997   4.040   8.244  0.0677  0.2050 -0.3673
 4328TIP3    H234544   2.130   4.103   8.211  0.1151 -0.0899 -0.7480
 4329TIP3   OH234545   1.404   2.402   0.242  0.6283 -0.0778  0.4020
 4329TIP3    H134546   1.472   2.469   0.243  0.6190 -0.0687  1.4006
 4329TIP3    H234547   1.415   2.357   0.158  0.1712  1.6357 -0.6324
 4330TIP3   OH234548   5.890   0.766   1.915  0.9752 -0.3603  0.3818
 4330TIP3    H134549   5.886   0.677   1.950 -1.6804 -0.4431  0.0480
 4330TIP3    H234550   5.859   0.821   1.987  2.6863  0.3661  0.6194
 4331TIP3   OH234551   0.597   3.174   1.253  0.0368 -0.2892  0.3603
 4331TIP3    H134552   0.536   3.210   1.189  0.3287 -1.8754 -0.8821
 4331TIP3    H234553   0.665   3.241   1.261  0.0833 -0.1231 -1.1452
 4332TIP3   OH234554   2.804   5.094   1.108  0.4255 -0.7721  0.2179
 4332TIP3    H134555   2.749   5.146   1.167 -0.7853 -2.7285  0.8987
 4332TIP3    H234556   2.893   5.126   1.124 -0.1320  0.2471  1.5002
 4333TIP3   OH234557   1.503   5.995   0.526  0.2519  0.6416 -0.0859
 4333TIP3    H134558   1.418   6.031   0.499 -0.8945 -4.5325 -5.3923
 4333TIP3    H234559   1.559   6.007   0.450  2.6062 -0.7596  1.3157
 4334TIP3   OH234560   2.407   4.296   6.590  0.0554  0.2049  0.2571
 4334TIP3    H134561   2.409   4.306   6.495 -0.6546  0.0329  0.2174
 4334TIP3    H234562   2.407   4.385   6.624 -1.1426  0.3022  0.0471
 4335TIP3   OH234563   3.625   4.838   7.175  0.2886  0.1895  1.1021
 4335TIP3    H134564   3.686   4.862   7.105 -0.6110  0.3202  0.3483
 4335TIP3    H234565   3.668   4.765   7.219  0.3617 -0.6770 -0.3189
 4336TIP3   OH234566   0.355   5.735   7.214  0.6348  0.0960 -0.1802
 4336TIP3    H134567   0.340   5.644   7.189 -1.6603  0.1041  0.8685
 4336TIP3    H234568   0.358   5.734   7.310  0.6792  1.1061 -0.1524
 4337TIP3   OH234569   4.541   2.284   8.598 -0.8483 -0.2506  0.1766
 4337TIP3    H134570   4.449   2.304   8.579 -0.9891  0.2185  1.2626
 4337TIP3    H234571   4.537   2.214   8.663 -0.4229 -0.4360  0.0063
 4338TIP3   OH234572   3.790   6.109   6.425 -0.5853  0.4088 -0.2518
 4338TIP3    H134573   3.799   6.158   6.507  0.1695 -1.6801  0.9829
 4338TIP3    H234574   3.865   6.049   6.424 -1.5216 -0.8151 -1.6147
 4339TIP3   OH234575   4.408   4.767   7.598 -0.0295  0.5936  0.2570
 4339TIP3    H134576   4.419   4.779   7.692 -1.6147 -0.7357  0.6632
 4339TIP3    H234577   4.439   4.678   7.581  1.1305  1.1481 -0.6703
 4340TIP3   OH234578   4.714   5.360   7.574  0.2288  0.6768 -0.1844
 4340TIP3    H134579   4.636   5.398   7.534  0.6678  2.2017  0.3090
 4340TIP3    H234580   4.707   5.384   7.666  2.2491  2.7050 -0.4713
 4341TIP3   OH234581   2.551   5.788   0.282  0.3762 -0.9772 -0.6098
 4341TIP3    H134582   2.511   5.840   0.351  1.9338 -0.5375 -0.0015
 4341TIP3    H234583   2.610   5.848   0.237  1.6368 -1.9881 -0.3741
 4342TIP3   OH234584   3.003   3.206   0.355 -0.5923 -0.3387  0.0053
 4342TIP3    H134585   2.959   3.291   0.354 -1.5117 -0.7066  2.4149
 4342TIP3    H234586   3.075   3.217   0.416 -1.3312 -1.5344  1.1351
 4343TIP3   OH234587   2.273   1.718   1.047  0.1161 -0.3069 -0.0032
 4343TIP3    H134588   2.182   1.744   1.062  0.8210  2.1846  0.5395
 4343TIP3    H234589   2.290   1.742   0.956  0.3921 -0.2056  0.0754
 4344TIP3   OH234590   1.674   2.581   0.507  0.0208 -0.2788 -0.3020
 4344TIP3    H134591   1.658   2.527   0.430 -1.2530 -1.3350  0.6594
 4344TIP3    H234592   1.748   2.539   0.551 -1.4877 -1.8381  0.8873
 4345TIP3   OH234593   4.822   5.741   7.288  0.3519 -0.1437 -0.1691
 4345TIP3    H134594   4.875   5.677   7.335  0.0781  0.0367  0.3961
 4345TIP3    H234595   4.878   5.819   7.282 -0.8784  1.1666  3.2105
 4346TIP3   OH234596   2.098   0.046   6.755  0.0434  0.3900  0.2384
 4346TIP3    H134597   2.044  -0.033   6.749 -0.3262  0.3824  2.7398
 4346TIP3    H234598   2.180   0.021   6.713 -0.4922 -0.9146 -0.0989
 4347TIP3   OH234599   5.220   4.710   8.130 -0.0634 -0.0157  0.3853
 4347TIP3    H134600   5.267   4.638   8.172  1.3050 -0.1283 -1.2335
 4347TIP3    H234601   5.187   4.763   8.202 -0.1664 -1.6678  1.6034
 4348TIP3   OH234602   4.831   6.255   7.240  0.9965  0.2766  0.5310
 4348TIP3    H134603   4.763   6.188   7.245  0.9286  0.3789  0.9378
 4348TIP3    H234604   4.861   6.267   7.330  1.5240  0.2620  0.3630
 4349TIP3   OH234605   3.445   2.355   0.983  0.5277 -0.0510 -0.1024
 4349TIP3    H134606   3.460   2.274   1.030 -1.6907 -0.1142  0.5824
 4349TIP3    H234607   3.378   2.334   0.918  0.2175  1.1326 -0.1929
 4350TIP3   OH234608   5.585   4.910   8.159  0.1496 -0.0205  0.0260
 4350TIP3    H134609   5.644   4.948   8.093  0.5207  0.4753  0.6316
 4350TIP3    H234610   5.497   4.929   8.126  0.2777 -1.5702 -1.3527
 4351TIP3   OH234611   0.125   0.266   2.380 -0.0246 -0.0912  0.3122
 4351TIP3    H134612   0.109   0.179   2.416 -1.4691 -0.4887 -1.1613
 4351TIP3    H234613   0.213   0.289   2.409  0.7852 -2.4572 -0.1014
 4352TIP3   OH234614   2.833   1.570   8.122 -0.5520 -0.4818 -0.0312
 4352TIP3    H134615   2.829   1.524   8.038  0.0444 -1.2081  0.3240
 4352TIP3    H234616   2.772   1.521   8.178 -2.5532  1.2234 -0.5765
 4353TIP3   OH234617   5.245   6.674   6.289 -0.2787 -0.0789  0.0365
 4353TIP3    H134618   5.150   6.677   6.276 -0.1378 -0.6911 -1.3456
 4353TIP3    H234619   5.265   6.580   6.294  0.3741 -0.0055 -0.8750
 4354TIP3   OH234620   1.022   1.717   8.541 -0.2639  0.2708 -0.3733
 4354TIP3    H134621   1.078   1.640   8.545 -2.5699 -1.7627 -3.2202
 4354TIP3    H234622   1.054   1.766   8.465 -0.9657  0.2461 -0.6894
 4355TIP3   OH234623   5.088   2.572   1.934  0.1304 -0.6214  0.2197
 4355TIP3    H134624   5.038   2.651   1.914 -0.7112 -1.2840 -0.3595
 4355TIP3    H234625   5.025   2.512   1.974  0.6598 -1.1570  0.2802
 4356TIP3   OH234626   1.298   6.198   7.805  0.4290  0.4211  0.6918
 4356TIP3    H134627   1.252   6.264   7.753  0.0992  1.0937  1.7918
 4356TIP3    H234628   1.275   6.219   7.896 -2.3697 -3.1314  1.0449
 4357TIP3   OH234629   3.259   2.530   0.289  0.1882 -0.8317  0.3897
 4357TIP3    H134630   3.171   2.551   0.258  0.5934  2.5668  1.1569
 4357TIP3    H234631   3.257   2.435   0.306 -2.7996 -1.1310 -1.0434
 4358TIP3   OH234632   0.864   0.271   8.474 -0.6401  0.2161 -0.2805
 4358TIP3    H134633   0.823   0.192   8.511 -0.2817  0.3496  0.4177
 4358TIP3    H234634   0.952   0.244   8.451  0.6483  1.1795  3.0242
 4359TIP3   OH234635   3.796   5.087   0.626  0.0059  0.3660  0.3205
 4359TIP3    H134636   3.760   5.016   0.678 -0.4873  0.9299  0.7619
 4359TIP3    H234637   3.793   5.056   0.536  1.0665 -0.7093  0.6378
 4360TIP3   OH234638   5.426   4.259   6.712 -0.0310  0.1377  0.2457
 4360TIP3    H134639   5.387   4.346   6.707 -0.7171 -0.1971 -0.6702
 4360TIP3    H234640   5.431   4.230   6.620  1.8582 -0.0680  0.3790
 4361TIP3   OH234641   5.186   3.458   8.587  0.0969  0.5379  0.1108
 4361TIP3    H134642   5.219   3.371   8.563  1.7743  1.6656 -2.0775
 4361TIP3    H234643   5.107   3.468   8.533  1.2839  1.2588 -1.5900
 4362TIP3   OH234644   4.725   3.041   0.011 -0.2395 -0.3910 -0.2877
 4362TIP3    H134645   4.692   2.968   0.064 -1.3157  0.0810 -0.2906
 4362TIP3    H234646   4.799   3.003  -0.037 -0.4612 -1.3442  0.0933
 4363TIP3   OH234647   4.630   5.056   7.691 -0.3388  0.4191 -0.3007
 4363TIP3    H134648   4.678   5.100   7.621  1.4889  0.6627  1.0267
 4363TIP3    H234649   4.680   4.976   7.708 -0.2074  0.7932  1.2818
 4364TIP3   OH234650   6.091   1.822   7.500  0.3134 -0.2786  0.3495
 4364TIP3    H134651   6.122   1.906   7.534  1.1227  0.3495 -1.7893
 4364TIP3    H234652   6.098   1.830   7.405 -2.4165 -1.7079 -0.0742
 4365TIP3   OH234653   6.366   1.251   8.239 -0.1115 -0.1280 -0.2320
 4365TIP3    H134654   6.299   1.186   8.261 -0.3336  0.2679  0.2677
 4365TIP3    H234655   6.395   1.225   8.151 -2.1042  0.6512 -1.1962
 4366TIP3   OH234656   0.748   1.748   6.821 -0.2807  0.3858 -0.5643
 4366TIP3    H134657   0.672   1.761   6.877  0.3879  0.0399  0.4571
 4366TIP3    H234658   0.729   1.798   6.742 -1.6818  0.0777 -0.4405
 4367TIP3   OH234659   4.999   3.984   0.110  0.4558  0.2691  0.4427
 4367TIP3    H134660   4.965   4.072   0.097 -1.8762 -0.9065 -2.5990
 4367TIP3    H234661   4.921   3.931   0.128  1.8544 -1.1545  2.8013
 4368TIP3   OH234662   1.967   4.597   6.438  0.0919  0.0660  0.9324
 4368TIP3    H134663   1.918   4.665   6.484 -2.5750 -0.5471 -0.8180
 4368TIP3    H234664   1.914   4.518   6.448  1.2402 -0.8872 -0.2252
 4369TIP3   OH234665   5.580   0.070   7.165  0.3285  0.3876 -0.0547
 4369TIP3    H134666   5.495   0.077   7.122 -0.3765  0.6837  1.3285
 4369TIP3    H234667   5.578   0.136   7.234  1.7733  0.5345 -0.1207
 4370TIP3   OH234668   4.015   5.200   6.938  0.3657  0.0962  0.6574
 4370TIP3    H134669   3.927   5.236   6.935 -0.1777 -1.2175 -1.3268
 4370TIP3    H234670   4.050   5.215   6.851  1.3233 -1.2067  0.7797
 4371TIP3   OH234671   1.402   2.887   1.927 -0.1149 -0.4590  0.0818
 4371TIP3    H134672   1.399   2.793   1.946 -0.1153 -0.4410  0.1719
 4371TIP3    H234673   1.320   2.921   1.964 -1.0422 -0.7281 -1.6231
 4372TIP3   OH234674   3.722   0.048   1.712 -0.4889  0.1204 -0.0070
 4372TIP3    H134675   3.676   0.132   1.705  0.0438  0.6196  1.9340
 4372TIP3    H234676   3.786   0.062   1.781  0.2731 -1.6110 -0.3294
 4373TIP3   OH234677   5.641   2.324   1.802  0.1980  0.3211 -0.3952
 4373TIP3    H134678   5.725   2.300   1.763 -0.3176 -1.1392 -0.6608
 4373TIP3    H234679   5.582   2.251   1.781 -1.5073  1.8595 -1.3036
 4374TIP3   OH234680   5.949   5.751   0.375  0.9245 -0.3433 -0.4982
 4374TIP3    H134681   5.975   5.841   0.393  2.7568 -0.3117 -2.8306
 4374TIP3    H234682   5.883   5.759   0.306  1.0571 -0.7632 -0.6770
 4375TIP3   OH234683   2.091   3.478   7.698 -0.4803  0.4279  0.4398
 4375TIP3    H134684   2.041   3.506   7.621 -0.4314 -0.0917  0.2101
 4375TIP3    H234685   2.034   3.495   7.772 -0.6432  0.6668  0.2608
 4376TIP3   OH234686   0.236   6.396   0.988  0.1571  0.7631 -0.8861
 4376TIP3    H134687   0.305   6.397   1.055  0.0339  3.0676 -0.7138
 4376TIP3    H234688   0.182   6.472   1.009 -3.1819 -1.5466 -0.3228
 4377TIP3   OH234689   5.754   3.171   0.401 -0.5384 -0.2674  0.0959
 4377TIP3    H134690   5.729   3.136   0.315  0.0881 -0.5212  0.0114
 4377TIP3    H234691   5.850   3.171   0.400 -0.5256 -0.1722  0.7564
 4378TIP3   OH234692   4.176   2.216   1.099 -0.3347  0.1753  0.2861
 4378TIP3    H134693   4.261   2.180   1.122  0.3440  2.0978  1.0403
 4378TIP3    H234694   4.116   2.142   1.101  1.0446 -0.9491  1.2423
 4379TIP3   OH234695   1.103   0.058   1.357 -0.2153  0.6790  0.0540
 4379TIP3    H134696   1.144   0.124   1.301 -0.4850  1.6484  0.9694
 4379TIP3    H234697   1.063   0.108   1.427 -0.0215 -0.5013  1.0349
 4380TIP3   OH234698   6.128   2.848   1.860  0.1153 -0.3462  0.4039
 4380TIP3    H134699   6.145   2.900   1.939 -2.5169 -1.7661  2.0396
 4380TIP3    H234700   6.090   2.767   1.893  0.8973 -1.9135 -2.2735
 4381TIP3   OH234701   3.966   1.263   8.222 -0.2179 -0.1804  0.1850
 4381TIP3    H134702   4.023   1.209   8.167 -0.1354  0.0950  0.0000
 4381TIP3    H234703   3.892   1.286   8.165  0.6230  1.4034 -0.3075
 4382TIP3   OH234704   3.016   3.264   7.782 -0.0034  0.9693  0.3242
 4382TIP3    H134705   3.063   3.217   7.851  0.0067 -1.3509 -1.1575
 4382TIP3    H234706   3.084   3.311   7.735  0.2207  1.2131  0.8865
 4383TIP3   OH234707   4.630   2.981   7.523 -0.1928 -0.1972  0.4330
 4383TIP3    H134708   4.711   2.971   7.573  0.0885 -0.4528 -0.0585
 4383TIP3    H234709   4.596   2.892   7.515  0.0128 -0.2266 -0.2181
 4384TIP3   OH234710   5.068   2.074   0.179  0.3234 -0.2851 -0.0912
 4384TIP3    H134711   5.016   2.154   0.177 -0.4577 -0.7948 -0.7371
 4384TIP3    H234712   5.158   2.105   0.192 -0.2918  0.5137  3.4453
 4385TIP3   OH234713   5.238   0.130   1.396  0.2033  0.0873  0.1818
 4385TIP3    H134714   5.156   0.137   1.347 -0.1648  1.2917  0.9388
 4385TIP3    H234715   5.228   0.191   1.469  1.8278  0.3595  0.2152
 4386TIP3   OH234716   1.549   0.740   7.514  0.0653  0.3807 -0.0213
 4386TIP3    H134717   1.511   0.657   7.485 -0.5423  0.5011  0.3970
 4386TIP3    H234718   1.574   0.785   7.434 -0.7634  0.3248 -0.3231
 4387TIP3   OH234719   0.375   5.748   7.512  0.1762 -0.2831  0.0600
 4387TIP3    H134720   0.287   5.710   7.516  1.0433 -2.8781 -2.3471
 4387TIP3    H234721   0.431   5.684   7.556  1.3266 -0.5661 -1.7282
 4388TIP3   OH234722   2.711   1.975   7.297  0.0065 -0.0067  0.1937
 4388TIP3    H134723   2.672   1.999   7.381 -0.7382  0.6544 -0.3295
 4388TIP3    H234724   2.719   2.058   7.250 -0.7223 -0.5132 -0.8617
 4389TIP3   OH234725   2.047   0.204   2.086  0.0376  0.6410 -0.1635
 4389TIP3    H134726   2.053   0.143   2.161  1.0521  0.5990 -0.2631
 4389TIP3    H234727   2.105   0.166   2.020  0.0004  1.2586 -0.5574
 4390TIP3   OH234728   0.764   4.963   8.172 -0.0656 -0.3240 -0.3294
 4390TIP3    H134729   0.760   4.893   8.107 -1.2497 -0.6138  0.0424
 4390TIP3    H234730   0.741   4.922   8.255  1.8154 -0.0384  0.3965
 4391TIP3   OH234731   1.268   1.478   7.309  0.2739 -0.3910 -0.4183
 4391TIP3    H134732   1.355   1.444   7.287 -0.1891 -2.1423  0.2884
 4391TIP3    H234733   1.274   1.572   7.293  1.6433 -0.7759 -2.4747
 4392TIP3   OH234734   6.262   5.193   0.021  0.1487  0.0830 -0.1827
 4392TIP3    H134735   6.317   5.212  -0.055 -0.9531  1.2754 -0.6988
 4392TIP3    H234736   6.176   5.174  -0.015 -0.8650  2.4055  0.7996
 4393TIP3   OH234737   4.644   3.761   7.133  0.3239  0.8103 -0.3901
 4393TIP3    H134738   4.570   3.818   7.110 -0.4733 -0.5894 -1.4604
 4393TIP3    H234739   4.657   3.706   7.056  1.2344 -0.2864  0.5099
 4394TIP3   OH234740   5.668   5.134   7.723  0.3391 -0.1020 -0.3571
 4394TIP3    H134741   5.643   5.046   7.750  0.0629  0.2825  0.6980
 4394TIP3    H234742   5.692   5.125   7.631  2.3404 -1.6859  0.2491
 4395TIP3   OH234743   5.736   4.288   6.644  0.3655 -0.3750 -0.2154
 4395TIP3    H134744   5.799   4.353   6.677  1.2752 -1.3270  0.0079
 4395TIP3    H234745   5.701   4.327   6.564  1.4628  0.0690 -0.5088
 4396TIP3   OH234746   3.968   0.083   0.139  0.2894 -0.0454 -0.0476
 4396TIP3    H134747   4.006   0.144   0.202  0.7369 -1.3945  1.0558
 4396TIP3    H234748   3.988   0.121   0.054 -0.7135  2.0563  0.5963
 4397TIP3   OH234749   1.620   2.208   8.686  0.1981  0.2242 -0.3139
 4397TIP3    H134750   1.681   2.274   8.716  0.4350  0.0403 -0.3858
 4397TIP3    H234751   1.534   2.248   8.696  0.0594 -0.6362  2.7654
 4398TIP3   OH234752   2.691   1.310   1.229  0.5225 -0.6006  0.3866
 4398TIP3    H134753   2.756   1.261   1.178 -0.0622 -0.6448 -0.3291
 4398TIP3    H234754   2.717   1.402   1.218 -0.0495 -0.5414 -0.6692
 4399TIP3   OH234755   2.408   6.366   1.791 -0.5935 -0.1885  0.5113
 4399TIP3    H134756   2.380   6.292   1.738 -0.4501  0.9312 -1.1965
 4399TIP3    H234757   2.334   6.426   1.790  0.5513  1.3315 -1.3034
 4400TIP3   OH234758   2.068   4.652   8.054  0.0325  0.0436 -0.0471
 4400TIP3    H134759   2.157   4.652   8.020 -0.3631  0.5167 -1.1201
 4400TIP3    H234760   2.073   4.598   8.134  1.5655  1.2983  0.7536
 4401TIP3   OH234761   3.050   2.133   0.263  0.1645 -0.4368  0.3744
 4401TIP3    H134762   3.121   2.140   0.199 -0.1552  0.0047  0.0587
 4401TIP3    H234763   3.049   2.041   0.290  0.2046 -0.6547 -0.3682
 4402TIP3   OH234764   5.256   4.794   7.885 -0.0501 -0.0850 -0.1133
 4402TIP3    H134765   5.238   4.771   7.976  0.3117 -0.2623 -0.0873
 4402TIP3    H234766   5.307   4.720   7.851  0.7327  0.4619 -0.1557
 4403TIP3   OH234767   6.719   4.145   8.541 -1.0138  0.3280 -0.1782
 4403TIP3    H134768   6.779   4.151   8.466 -1.7448  2.4174 -0.6529
 4403TIP3    H234769   6.636   4.115   8.503 -1.1242  0.4612 -0.0443
 4404TIP3   OH234770   2.792   0.535   7.542  0.1148  0.1465  0.4174
 4404TIP3    H134771   2.838   0.452   7.548  1.4978  0.8069 -0.5280
 4404TIP3    H234772   2.851   0.592   7.494 -1.4789  1.2041 -0.3919
 4405TIP3   OH234773   6.254   3.474   7.388 -0.2046 -0.4407  0.0121
 4405TIP3    H134774   6.172   3.434   7.358 -0.0333 -0.7342 -0.0677
 4405TIP3    H234775   6.227   3.554   7.432 -0.5905 -0.9186  0.6512
 4406TIP3   OH234776   4.778   0.527   0.330 -0.0249  0.1351 -0.7568
 4406TIP3    H134777   4.812   0.573   0.406 -0.4770  0.9670 -1.0487
 4406TIP3    H234778   4.701   0.480   0.362  0.1472 -0.0180 -0.5659
 4407TIP3   OH234779   0.172   2.420   1.012 -0.2505 -0.2395 -0.3105
 4407TIP3    H134780   0.123   2.380   1.083 -1.2178  1.5851  0.1119
 4407TIP3    H234781   0.198   2.506   1.046  1.5113 -0.3351 -1.2546
 4408TIP3   OH234782   0.434   2.401   0.827  0.6427 -1.1632  0.2683
 4408TIP3    H134783   0.394   2.389   0.912  0.0454 -1.2472 -0.0192
 4408TIP3    H234784   0.372   2.362   0.765  0.0568  0.7374 -0.4164
 4409TIP3   OH234785   3.222   1.894   7.650 -0.3238 -0.0356 -0.2015
 4409TIP3    H134786   3.209   1.958   7.720 -0.3451 -0.5916  0.3145
 4409TIP3    H234787   3.133   1.875   7.619 -0.2393  1.1486 -1.2619
 4410TIP3   OH234788   3.805   2.661   2.075 -0.2085  0.0290  0.7388
 4410TIP3    H134789   3.795   2.708   1.993 -1.0183 -2.2012 -0.5257
 4410TIP3    H234790   3.725   2.679   2.124 -0.4698  0.0493  0.3051
 4411TIP3   OH234791   4.399   1.136   1.284  0.0283 -0.1911 -0.1109
 4411TIP3    H134792   4.373   1.186   1.206 -1.5285  0.2669  0.6483
 4411TIP3    H234793   4.490   1.160   1.300 -0.3075  1.4210 -0.5083
 4412TIP3   OH234794   1.816   4.967   7.686  0.3419 -0.2077  0.0295
 4412TIP3    H134795   1.887   4.995   7.627  0.8753 -0.3852  0.5713
 4412TIP3    H234796   1.858   4.904   7.744 -0.5601 -1.2085 -0.3883
 4413TIP3   OH234797   1.106   0.863   1.542  0.2856 -0.1578 -0.0131
 4413TIP3    H134798   1.056   0.795   1.587  0.3839  0.0741  0.4515
 4413TIP3    H234799   1.063   0.945   1.566  2.0119  0.2606  2.0161
 4414TIP3   OH234800   2.015   1.218   7.470 -0.5846  0.0729  0.5289
 4414TIP3    H134801   1.962   1.158   7.417 -2.4125  1.0531  1.1311
 4414TIP3    H234802   2.035   1.291   7.411 -0.0851 -0.1927  0.3661
 4415TIP3   OH234803   6.633   5.930   8.672  0.2360  0.0438  0.0811
 4415TIP3    H134804   6.631   6.026   8.664 -1.2205 -0.0512 -1.2706
 4415TIP3    H234805   6.551   5.908   8.715 -1.2279 -0.7461 -2.8319
 4416TIP3   OH234806   0.899   3.907   1.287  0.2123  0.5043 -0.3498
 4416TIP3    H134807   0.902   3.996   1.322 -2.5755  1.6762 -2.6346
 4416TIP3    H234808   0.833   3.862   1.340  1.5364 -0.2466  0.7293
 4417TIP3   OH234809   3.040   3.243   7.189 -0.1534 -0.5159 -0.4341
 4417TIP3    H134810   3.069   3.260   7.278 -3.0873  1.3987  0.3197
 4417TIP3    H234811   3.081   3.312   7.137  0.5601 -0.8687 -0.3480
 4418TIP3   OH234812   1.356   6.659   1.064 -0.2469 -0.7878  0.4076
 4418TIP3    H134813   1.350   6.619   1.151  1.5018 -1.9071  0.0486
 4418TIP3    H234814   1.436   6.623   1.026 -0.0278  1.0541 -0.9940
 4419TIP3   OH234815   2.289   2.623   1.528  0.6308  0.2567 -0.1512
 4419TIP3    H134816   2.245   2.540   1.509  0.5299  0.5844 -1.4469
 4419TIP3    H234817   2.234   2.689   1.486  1.6414  0.7987 -0.6548
 4420TIP3   OH234818   6.264   2.618   0.676  0.3613 -0.5885  0.4362
 4420TIP3    H134819   6.252   2.590   0.586 -1.7637  0.9669  0.1673
 4420TIP3    H234820   6.335   2.562   0.709  1.1323 -1.2667 -2.1214
 4421TIP3   OH234821   2.528   4.370   2.076 -0.0614  0.1260  0.0619
 4421TIP3    H134822   2.492   4.457   2.094  1.2950  0.9351 -0.9184
 4421TIP3    H234823   2.554   4.337   2.161 -0.9890  0.4864  0.5002
 4422TIP3   OH234824   0.586   4.863   1.639 -0.3215  0.2648  0.2294
 4422TIP3    H134825   0.520   4.902   1.581  0.0791  0.1742 -0.2884
 4422TIP3    H234826   0.548   4.873   1.727 -0.7035  0.8680  0.0090
 4423TIP3   OH234827   0.781   4.872   0.563  0.5289  0.3884 -0.4236
 4423TIP3    H134828   0.725   4.885   0.639  0.2098  2.1414 -0.9039
 4423TIP3    H234829   0.721   4.877   0.488  1.0144 -0.0305 -0.8512
 4424TIP3   OH234830   3.366   5.858   7.663  0.0724 -0.0507  0.0084
 4424TIP3    H134831   3.314   5.790   7.620 -1.0584 -0.1078  1.3737
 4424TIP3    H234832   3.416   5.898   7.593 -0.9147 -0.8186 -1.1788
 4425TIP3   OH234833   2.981   2.525   0.261 -0.0658  0.4119  0.4537
 4425TIP3    H134834   2.906   2.585   0.258 -0.5886 -0.2685 -1.0332
 4425TIP3    H234835   2.942   2.439   0.281  0.2025 -0.0695 -0.9720
 4426TIP3   OH234836   3.752   2.876   0.737  0.1733  0.4779  0.8587
 4426TIP3    H134837   3.727   2.934   0.809 -0.3307  1.7855 -0.3096
 4426TIP3    H234838   3.701   2.909   0.662  1.7046  0.0461 -0.4223
 4427TIP3   OH234839   1.738   4.097   8.477 -0.2372  0.4035  0.2234
 4427TIP3    H134840   1.806   4.162   8.459 -0.9332  1.3178  0.7814
 4427TIP3    H234841   1.781   4.033   8.535  0.2008  0.8572  0.4065
 4428TIP3   OH234842   0.834   5.931   7.901 -0.4938  0.0264 -0.1024
 4428TIP3    H134843   0.831   5.964   7.991  0.0377 -1.0870  0.3471
 4428TIP3    H234844   0.926   5.939   7.875 -0.8429  1.4199 -0.9862
 4429TIP3   OH234845   6.601   3.558   6.353 -0.6977 -0.5886 -0.2276
 4429TIP3    H134846   6.536   3.494   6.323 -2.0261  0.0395  1.1563
 4429TIP3    H234847   6.653   3.510   6.417  0.1533 -1.0537 -1.2381
 4430TIP3   OH234848   6.852   6.407   6.432  0.0225  0.6945  0.2908
 4430TIP3    H134849   6.942   6.433   6.413  0.2244  0.2079  0.5502
 4430TIP3    H234850   6.852   6.311   6.422 -0.5521  0.7274 -0.0587
 4431TIP3   OH234851   3.427   3.494   6.218 -0.4179 -0.0391 -0.0692
 4431TIP3    H134852   3.445   3.472   6.126 -2.4834  0.8529 -0.7496
 4431TIP3    H234853   3.383   3.417   6.253  0.8071 -0.5720  0.3531
 4432TIP3   OH234854   6.344   6.805   0.769  0.7387 -0.1696  0.1375
 4432TIP3    H134855   6.411   6.860   0.812 -0.4855  2.2078 -0.7897
 4432TIP3    H234856   6.361   6.816   0.676 -1.2288  0.9993 -0.1433
 4433TIP3   OH234857   3.658   2.897   7.883  0.0331 -0.0111 -0.3190
 4433TIP3    H134858   3.689   2.962   7.820 -0.0352  0.2846 -0.0469
 4433TIP3    H234859   3.592   2.847   7.835  0.8875 -0.6297 -0.9005
 4434TIP3   OH234860   0.846   3.165   6.925 -0.1675  0.1396 -0.4411
 4434TIP3    H134861   0.758   3.203   6.917  0.5567  1.6270 -1.7984
 4434TIP3    H234862   0.905   3.240   6.928  1.1169 -0.8405  0.0461
 4435TIP3   OH234863   1.127   1.325   7.455  0.2956 -0.1725 -0.1369
 4435TIP3    H134864   1.181   1.377   7.396  0.5107 -0.1941  0.0392
 4435TIP3    H234865   1.117   1.379   7.533 -1.1533  0.4510 -0.7195
 4436TIP3   OH234866   0.384   5.824   6.956 -0.2355  0.4683  0.0287
 4436TIP3    H134867   0.305   5.878   6.966 -0.9066 -0.2189 -1.3044
 4436TIP3    H234868   0.386   5.771   7.035 -1.3210  0.2494 -0.0704
 4437TIP3   OH234869   5.417   3.092   0.358  0.1278 -0.4151 -0.0951
 4437TIP3    H134870   5.489   3.075   0.298  1.3737 -0.1999  1.2835
 4437TIP3    H234871   5.441   3.173   0.403 -1.1764 -0.1239  0.1178
 4438TIP3   OH234872   4.383   5.320   8.032 -0.1307 -0.2627  0.2813
 4438TIP3    H134873   4.428   5.247   7.989  4.1052  2.4481 -0.5564
 4438TIP3    H234874   4.437   5.340   8.108 -2.0953  1.0112  1.4430
 4439TIP3   OH234875   2.013   1.462   0.256 -0.8161  0.4103  0.2572
 4439TIP3    H134876   2.107   1.473   0.272 -0.4128 -1.0756 -0.8771
 4439TIP3    H234877   1.972   1.491   0.338  0.4939  2.5551  0.2494
 4440TIP3   OH234878   4.479   0.099   1.562  0.0274 -0.7835 -0.1803
 4440TIP3    H134879   4.534   0.143   1.497 -1.1483  0.3772 -0.4380
 4440TIP3    H234880   4.541   0.055   1.621  1.1468 -0.9195 -1.4238
 4441TIP3   OH234881   2.583   3.512   8.560  0.0461  0.5979  0.1022
 4441TIP3    H134882   2.540   3.589   8.523  2.4786  2.1479  0.2583
 4441TIP3    H234883   2.560   3.440   8.501 -0.6432  1.8593 -1.2241
 4442TIP3   OH234884   0.778   2.464   8.404  0.2951  0.1538  0.2320
 4442TIP3    H134885   0.790   2.382   8.357 -1.3418  0.0888 -0.1292
 4442TIP3    H234886   0.794   2.532   8.339  0.3950  0.1127  0.2124
 4443TIP3   OH234887   4.561   6.307   1.972 -0.1791  0.0500 -0.1830
 4443TIP3    H134888   4.501   6.288   1.900  0.3368  1.0626 -0.8921
 4443TIP3    H234889   4.645   6.270   1.943  0.1185  0.7910 -0.2759
 4444TIP3   OH234890   1.760   4.056   7.629  0.0654  0.0055 -0.9356
 4444TIP3    H134891   1.709   4.097   7.699 -1.3827 -2.5509 -0.3481
 4444TIP3    H234892   1.851   4.069   7.654 -0.3844  0.8544  0.3626
 4445TIP3   OH234893   0.059   3.814   8.581 -0.2375  0.0517  0.7357
 4445TIP3    H134894   0.011   3.854   8.654 -1.2891  0.8723 -0.3606
 4445TIP3    H234895   0.084   3.728   8.613 -0.6051  0.4246  2.0953
 4446TIP3   OH234896   1.937   3.477   1.433  0.2013  0.4730  0.0326
 4446TIP3    H134897   1.921   3.404   1.493 -0.0271  0.3664 -0.1560
 4446TIP3    H234898   1.849   3.505   1.406  0.3164  0.2238 -0.6107
 4447TIP3   OH234899   1.093   0.819   6.863  0.0780 -0.4796 -0.5742
 4447TIP3    H134900   1.089   0.774   6.778  0.9870  0.2327 -1.0109
 4447TIP3    H234901   1.013   0.871   6.865 -0.8802 -1.9193 -0.1554
 4448TIP3   OH234902   5.503   3.666   6.237 -0.3433  0.2553  0.3836
 4448TIP3    H134903   5.427   3.658   6.293  0.4212 -0.7202  1.3270
 4448TIP3    H234904   5.493   3.597   6.172 -1.9095  2.2047 -1.6338
 4449TIP3   OH234905   3.858   5.583   8.486  0.0570 -0.0495  0.0890
 4449TIP3    H134906   3.937   5.558   8.534  0.4651 -1.9554 -1.4504
 4449TIP3    H234907   3.785   5.551   8.541  0.3167  1.1869  1.2188
 4450TIP3   OH234908   4.078   5.147   1.772  0.0974  0.2975 -0.7243
 4450TIP3    H134909   4.011   5.084   1.797 -1.9492  2.4496 -0.4467
 4450TIP3    H234910   4.087   5.204   1.849  3.1867 -0.5603 -0.2760
 4451TIP3   OH234911   3.062   1.086   6.473 -0.1977  0.4894 -0.1084
 4451TIP3    H134912   3.131   1.094   6.539 -0.3621  0.1524  0.1089
 4451TIP3    H234913   3.007   1.015   6.505  0.1888 -0.2487 -1.0253
 4452TIP3   OH234914   1.490   6.027   7.952 -0.1590 -0.0813 -0.6461
 4452TIP3    H134915   1.447   5.943   7.936 -0.8828 -0.1803  1.5000
 4452TIP3    H234916   1.433   6.092   7.910 -1.6949 -0.3621  0.8577
 4453TIP3   OH234917   0.439   4.082   8.176  0.2537 -0.1913  0.1187
 4453TIP3    H134918   0.452   4.174   8.153  0.5895 -0.0736  0.7643
 4453TIP3    H234919   0.344   4.070   8.176 -0.0023  1.0387  3.3286
 4454TIP3   OH234920   4.605   0.807   8.676  0.3178  0.2999  0.0584
 4454TIP3    H134921   4.539   0.874   8.690  1.1793  0.7525  2.5274
 4454TIP3    H234922   4.559   0.724   8.689 -0.4033  0.4411 -1.4339
 4455TIP3   OH234923   3.880   4.766   0.065  0.4691 -0.1260 -0.2477
 4455TIP3    H134924   3.951   4.804   0.014  1.1501 -0.2182  0.5997
 4455TIP3    H234925   3.905   4.674   0.076 -0.7624 -0.6449 -1.5971
 4456TIP3   OH234926   6.527   5.108   0.712  0.4365 -0.1867 -0.3859
 4456TIP3    H134927   6.580   5.069   0.642 -0.5885 -0.5061 -1.0096
 4456TIP3    H234928   6.511   5.198   0.682  1.3112  0.1872  0.2109
 4457TIP3   OH234929   4.294   1.675   7.410  0.1837  0.0839  0.1962
 4457TIP3    H134930   4.371   1.719   7.375  0.7346  0.4208  1.7375
 4457TIP3    H234931   4.285   1.710   7.499 -1.8025  0.1234  0.0303
 4458TIP3   OH234932   2.996   1.738   7.264 -0.6077  0.2804 -0.1154
 4458TIP3    H134933   2.957   1.684   7.195  2.0133  0.5709 -1.9514
 4458TIP3    H234934   2.982   1.828   7.235 -0.2433  0.4342  0.1820
 4459TIP3   OH234935   2.749   6.446   1.201 -0.3365 -0.4108 -0.2169
 4459TIP3    H134936   2.827   6.497   1.182 -0.0975 -0.3790  0.7714
 4459TIP3    H234937   2.719   6.480   1.286 -1.1795 -0.7088 -0.3885
 4460TIP3   OH234938   0.801   4.553   8.395 -0.3008 -0.5817  0.2557
 4460TIP3    H134939   0.753   4.510   8.466  0.9268 -1.7057  0.4520
 4460TIP3    H234940   0.750   4.631   8.375 -2.1640 -1.7035  0.4594
 4461TIP3   OH234941   3.193   2.237   7.625  0.6157  0.4318  0.1868
 4461TIP3    H134942   3.108   2.281   7.632 -0.5920 -1.3164 -1.9558
 4461TIP3    H234943   3.175   2.146   7.648  1.1742 -0.5846 -2.8570
 4462TIP3   OH234944   3.020   0.708   1.269  0.6770  0.0127  0.3178
 4462TIP3    H134945   2.928   0.690   1.287  0.9797 -0.6476  1.3091
 4462TIP3    H234946   3.057   0.624   1.244  0.8022  0.4686 -1.1124
 4463TIP3   OH234947   4.869   2.848   8.594 -0.1588 -0.4880 -0.1682
 4463TIP3    H134948   4.935   2.794   8.638 -1.1163 -1.5695 -0.0050
 4463TIP3    H234949   4.917   2.926   8.565  0.7507 -0.2768  1.7481
 4464TIP3   OH234950   3.924   0.152   1.861 -0.4657  0.2870 -0.0857
 4464TIP3    H134951   3.988   0.128   1.928 -0.0319  0.6646 -0.3649
 4464TIP3    H234952   3.910   0.246   1.873 -0.5935  0.3021 -0.3462
 4465TIP3   OH234953   5.267   3.957   0.163 -0.6050 -0.2939 -0.3383
 4465TIP3    H134954   5.174   3.978   0.166 -0.5735  0.3235 -2.0490
 4465TIP3    H234955   5.310   4.037   0.192 -0.5897  0.5023 -2.3749
 4466TIP3   OH234956   3.997   2.722   7.195  0.0817 -0.4213  0.5184
 4466TIP3    H134957   4.005   2.627   7.197  0.1771 -0.5728 -2.2574
 4466TIP3    H234958   3.927   2.742   7.257  0.0842 -2.2753  1.1882
 4467TIP3   OH234959   3.392   6.758   1.540  0.0067 -0.5288  0.2215
 4467TIP3    H134960   3.424   6.673   1.510  2.0951 -0.4859  2.0913
 4467TIP3    H234961   3.389   6.751   1.635 -0.7162  1.1906  0.3689
 4468TIP3   OH234962   4.800   5.095   6.888 -0.2205  0.1981  0.1298
 4468TIP3    H134963   4.718   5.078   6.842 -0.8779  1.4789  0.7896
 4468TIP3    H234964   4.824   5.184   6.863  0.6602  0.0542  0.4281
 4469TIP3   OH234965   5.127   2.147   0.665  0.5635 -0.2260  0.4855
 4469TIP3    H134966   5.202   2.106   0.623  1.8534  0.8062  1.7234
 4469TIP3    H234967   5.066   2.074   0.681  0.4468 -0.8117 -2.1405
 4470TIP3   OH234968   0.797   2.325   1.800 -0.4068 -0.5082 -0.4608
 4470TIP3    H134969   0.753   2.254   1.754 -0.2125 -0.4766 -0.6943
 4470TIP3    H234970   0.852   2.281   1.865  0.9546 -0.6519 -1.6679
 4471TIP3   OH234971   1.798   6.010   7.187 -0.2683  0.1920  0.2093
 4471TIP3    H134972   1.820   6.086   7.240  0.1839  0.7215 -0.7204
 4471TIP3    H234973   1.764   6.046   7.105 -0.2356 -0.5972 -0.1672
 4472TIP3   OH234974   3.808   4.544   1.825 -0.0948  0.6486 -0.6375
 4472TIP3    H134975   3.904   4.543   1.823 -0.0679  0.9568  0.1048
 4472TIP3    H234976   3.784   4.624   1.779 -0.0326  0.1617 -1.5443
 4473TIP3   OH234977   3.523   5.286   1.760  0.1569 -0.7845 -0.0241
 4473TIP3    H134978   3.577   5.280   1.839 -0.3128  1.3838  0.5195
 4473TIP3    H234979   3.507   5.379   1.748 -2.6059 -1.2516 -0.7732
 4474TIP3   OH234980   2.527   0.943   1.639 -0.1063  0.2625  0.0343
 4474TIP3    H134981   2.606   0.931   1.586 -0.4719 -1.0765 -0.2423
 4474TIP3    H234982   2.555   0.923   1.728 -0.1883 -0.4964 -0.1048
 4475TIP3   OH234983   1.098   4.539   8.443  0.1126 -0.0719 -0.7318
 4475TIP3    H134984   1.025   4.562   8.385  0.6586 -1.0425 -1.8503
 4475TIP3    H234985   1.161   4.610   8.432 -1.0904  1.3838  1.1233
 4476TIP3   OH234986   2.752   4.664   7.952 -0.4814  1.1481  0.0565
 4476TIP3    H134987   2.687   4.710   8.005  0.2383 -0.4616  2.4758
 4476TIP3    H234988   2.764   4.580   7.996  0.9999  0.1581 -2.0757
 4477TIP3   OH234989   6.283   1.050   1.648  0.2486 -0.1088  0.2994
 4477TIP3    H134990   6.221   1.014   1.712 -0.0003 -0.4056 -0.1015
 4477TIP3    H234991   6.364   1.062   1.697  0.0547 -0.3251  0.6761
 4478TIP3   OH234992   0.363   1.334   7.161  0.4025  0.0324 -0.1798
 4478TIP3    H134993   0.411   1.323   7.243 -0.1410 -0.4099  0.0809
 4478TIP3    H234994   0.310   1.413   7.175  0.5373  0.1312 -0.2204
 4479TIP3   OH234995   0.677   2.224   0.978 -0.2002  0.3937  0.8956
 4479TIP3    H134996   0.612   2.190   1.039 -0.3529 -1.1469 -0.0453
 4479TIP3    H234997   0.673   2.164   0.903  0.4298  1.8273 -0.3467
 4480TIP3   OH234998   0.559   4.881   6.249  0.3281  0.1260  0.5528
 4480TIP3    H134999   0.492   4.814   6.262  0.6619 -0.1291  0.9927
 4480TIP3    H235000   0.625   4.839   6.193  0.0081  0.4571 -0.0811
 4481TIP3   OH235001   5.159   5.623   1.489  0.7410  0.3017  0.3484
 4481TIP3    H135002   5.209   5.669   1.421  3.6172 -1.4070  1.1616
 4481TIP3    H235003   5.174   5.674   1.569 -0.6765  0.9657  0.2274
 4482TIP3   OH235004   5.609   3.131   0.130  0.6733  0.0474  0.1501
 4482TIP3    H135005   5.651   3.048   0.106  0.7999 -0.4697  2.0387
 4482TIP3    H235006   5.656   3.196   0.078  0.9496 -0.9798 -0.9484
 4483TIP3   OH235007   0.413   5.623   8.369 -0.2380 -0.1915 -0.6476
 4483TIP3    H135008   0.369   5.554   8.419 -0.4851  0.3165 -0.1566
 4483TIP3    H235009   0.358   5.700   8.382  0.7866  0.4547 -0.0434
 4484TIP3   OH235010   4.045   2.349   0.097  0.1079 -0.2143  1.0206
 4484TIP3    H135011   4.021   2.387   0.182 -0.2145  0.4651  0.6300
 4484TIP3    H235012   4.130   2.307   0.113 -0.4627 -1.0535  1.9511
 4485TIP3   OH235013   6.333   2.192   1.191 -0.4057 -0.6892 -0.4956
 4485TIP3    H135014   6.326   2.113   1.138 -0.6301 -1.3548  0.4900
 4485TIP3    H235015   6.380   2.164   1.270  0.6237  0.4554 -0.6665
 4486TIP3   OH235016   5.830   3.728   7.098 -0.2153 -0.2398  0.0299
 4486TIP3    H135017   5.795   3.654   7.048 -1.1469  0.5931 -0.6109
 4486TIP3    H235018   5.881   3.778   7.034  0.3049 -0.2649  0.4256
 4487TIP3   OH235019   3.326   4.789   0.073 -0.6606  0.0450 -0.3238
 4487TIP3    H135020   3.235   4.761   0.080 -0.3386 -0.8447  0.5703
 4487TIP3    H235021   3.368   4.724   0.016 -0.6643  0.6854 -1.0750
 4488TIP3   OH235022   4.900   2.301   2.434  0.1440  0.1028  0.2424
 4488TIP3    H135023   4.942   2.239   2.374  0.3545 -0.2793  0.7738
 4488TIP3    H235024   4.894   2.254   2.517  0.0009  0.6797  0.5676
 4489TIP3   OH235025   0.852   3.491   1.636  0.5657  0.0058 -0.4155
 4489TIP3    H135026   0.902   3.535   1.705  0.4248  0.8720 -0.8601
 4489TIP3    H235027   0.908   3.418   1.610  0.3074 -0.7690  1.0978
 4490TIP3   OH235028   4.285   5.216   7.032 -0.4753  0.5280 -0.3424
 4490TIP3    H135029   4.208   5.194   6.980 -1.9018  1.7231  1.1485
 4490TIP3    H235030   4.324   5.132   7.055 -1.3632 -0.1058 -1.0947
 4491TIP3   OH235031   0.613   1.458   0.733  0.3139 -0.4451  1.0302
 4491TIP3    H135032   0.667   1.404   0.675 -1.1916 -2.2315  1.1787
 4491TIP3    H235033   0.600   1.540   0.684 -0.0779 -1.5136 -0.7512
 4492TIP3   OH235034   3.491   4.720   7.953  0.2110  0.0364 -0.1143
 4492TIP3    H135035   3.410   4.727   7.902 -0.6667 -0.8334  1.0872
 4492TIP3    H235036   3.549   4.666   7.899  0.3664  1.4233 -1.3943
 4493TIP3   OH235037   0.476   4.040   8.467 -0.6920  0.4805  0.2357
 4493TIP3    H135038   0.484   4.036   8.372  0.5801 -2.2703  0.3635
 4493TIP3    H235039   0.388   4.009   8.486 -0.1486 -1.3781 -0.0302
 4494TIP3   OH235040   4.518   3.040   6.043  0.0381 -0.5881  0.5000
 4494TIP3    H135041   4.512   3.011   6.134  2.2405  0.2673  0.9754
 4494TIP3    H235042   4.522   3.135   6.047  0.7755 -0.5525 -0.4163
 4495TIP3   OH235043   1.494   5.802   1.423 -0.4997  0.3057  0.3252
 4495TIP3    H135044   1.417   5.854   1.400 -1.4482 -1.2746 -0.2426
 4495TIP3    H235045   1.540   5.790   1.341 -1.3861 -1.4095  0.0296
 4496TIP3   OH235046   2.753   4.827   8.677 -0.3215 -0.1970 -0.2251
 4496TIP3    H135047   2.695   4.777   8.621 -1.0130  0.7240 -0.3567
 4496TIP3    H235048   2.823   4.766   8.700 -0.5794 -0.8925 -1.2276
 4497TIP3   OH235049   2.226   4.237   1.076  0.0399 -0.4198  0.1480
 4497TIP3    H135050   2.271   4.221   0.993 -0.5803 -0.5851 -0.1637
 4497TIP3    H235051   2.191   4.151   1.100  1.0014 -0.5767  1.0652
 4498TIP3   OH235052   0.704   2.414   0.267 -0.1057  0.3133  0.0341
 4498TIP3    H135053   0.721   2.386   0.177 -0.9474  0.4044 -0.1683
 4498TIP3    H235054   0.785   2.455   0.295  0.1644  0.2979 -0.6948
 4499TIP3   OH235055   1.316   2.586   7.344 -0.5973 -0.1547 -0.2959
 4499TIP3    H135056   1.373   2.597   7.267  0.6036  1.1644  0.7181
 4499TIP3    H235057   1.248   2.653   7.333 -0.4003  0.0630 -0.1847
 4500TIP3   OH235058   6.814   6.242   7.513  0.1009 -0.5291  0.0714
 4500TIP3    H135059   6.848   6.225   7.426  1.0821  0.0289  0.3335
 4500TIP3    H235060   6.851   6.173   7.568 -0.6327 -0.9677  0.0359
 4501TIP3   OH235061   3.408   1.898   7.221 -0.6666 -0.0510  0.6129
 4501TIP3    H135062   3.364   1.934   7.144 -0.1061  0.1611  0.3856
 4501TIP3    H235063   3.446   1.815   7.190  0.5826  0.6084  0.3218
 4502TIP3   OH235064   4.665   0.899   1.556 -0.0218 -0.8501  0.1491
 4502TIP3    H135065   4.748   0.864   1.586  0.2501 -0.5227 -0.2066
 4502TIP3    H235066   4.601   0.866   1.618  0.2856 -1.6187  0.0631
 4503TIP3   OH235067   1.642   3.473   1.828 -0.1089  0.3259  0.2671
 4503TIP3    H135068   1.681   3.549   1.784  0.8794 -0.3753 -0.1015
 4503TIP3    H235069   1.617   3.414   1.757 -1.1349  0.4176  0.5411
 4504TIP3   OH235070   5.796   4.137   2.373  0.0305 -0.2667 -0.4411
 4504TIP3    H135071   5.811   4.231   2.366  1.6914 -0.5090 -0.6130
 4504TIP3    H235072   5.723   4.128   2.434  0.8490  1.0937  0.7878
 4505TIP3   OH235073   4.008   6.166   1.267 -0.0111  0.1292 -0.0785
 4505TIP3    H135074   3.935   6.108   1.287 -0.6084  0.8446 -0.1236
 4505TIP3    H235075   4.018   6.220   1.345 -1.5857  2.1320 -1.1666
 4506TIP3   OH235076   1.092   5.981   8.229 -0.1845  0.9131 -0.2454
 4506TIP3    H135077   1.084   5.948   8.319 -3.5156  0.4433 -0.6185
 4506TIP3    H235078   1.131   6.068   8.238 -0.1923  0.7568  1.6123
 4507TIP3   OH235079   2.106   6.233   8.006 -0.1981  0.9720  0.7905
 4507TIP3    H135080   2.140   6.281   8.082  2.1250 -0.2826  0.6281
 4507TIP3    H235081   2.088   6.145   8.039 -0.1395  0.6993  0.1180
 4508TIP3   OH235082   2.174   6.583   1.511  0.5665 -0.3471  0.3520
 4508TIP3    H135083   2.164   6.557   1.602  2.3832  3.7648  1.9432
 4508TIP3    H235084   2.199   6.675   1.514 -0.9302  0.5003 -4.4218
 4509TIP3   OH235085   3.158   2.308   6.708  0.1535  0.0662  0.2113
 4509TIP3    H135086   3.171   2.363   6.631  0.4917 -1.5783 -0.9471
 4509TIP3    H235087   3.206   2.228   6.689  0.1932 -0.4132  2.1235
 4510TIP3   OH235088   6.498   1.934   0.820  0.5522  0.0027  0.1123
 4510TIP3    H135089   6.591   1.910   0.821  0.8746  1.1855  1.7639
 4510TIP3    H235090   6.452   1.852   0.840  1.2192 -0.5790 -0.6639
 4511TIP3   OH235091   1.748   4.072   0.292  0.2207 -1.3375  0.0658
 4511TIP3    H135092   1.688   4.073   0.217  1.1930 -0.9560 -0.7293
 4511TIP3    H235093   1.834   4.087   0.254  0.5591  0.5590  1.4309
 4512TIP3   OH235094   4.875   2.690   6.566 -0.3747 -0.3733  0.5712
 4512TIP3    H135095   4.891   2.681   6.660 -1.9726 -0.5985  0.8590
 4512TIP3    H235096   4.961   2.710   6.528  0.1240  0.8430  2.2139
 4513TIP3   OH235097   1.404   3.488   1.277  0.5194 -0.4182  0.4755
 4513TIP3    H135098   1.379   3.580   1.264 -0.0115 -0.7877 -1.5174
 4513TIP3    H235099   1.382   3.446   1.194 -1.4173 -2.8600  2.0860
 4514TIP3   OH235100   5.390   6.092   0.496  0.0721 -0.2301  0.5656
 4514TIP3    H135101   5.454   6.163   0.488  3.2435 -2.9121 -0.3983
 4514TIP3    H235102   5.357   6.080   0.406 -0.6521  0.1246  0.7738
 4515TIP3   OH235103   3.705   3.857   0.368  0.3498  0.0684  0.2090
 4515TIP3    H135104   3.745   3.924   0.423  0.5641  0.7106 -0.7061
 4515TIP3    H235105   3.774   3.830   0.308 -0.1692  0.1361 -0.4325
 4516TIP3   OH235106   4.509   5.058   8.403 -0.2969  0.6260  0.0228
 4516TIP3    H135107   4.569   5.037   8.475 -0.3766  0.7541  0.1298
 4516TIP3    H235108   4.485   4.973   8.366 -1.6429  0.4126  1.2860
 4517TIP3   OH235109   3.488   6.218   7.801  0.1690 -0.0604 -0.2281
 4517TIP3    H135110   3.580   6.230   7.824  0.7176 -0.5673 -1.9667
 4517TIP3    H235111   3.439   6.248   7.877  1.7286  1.7594  0.1188
 4518TIP3   OH235112   2.940   1.173   7.176  0.2701 -0.2923  0.2575
 4518TIP3    H135113   2.882   1.101   7.151 -0.6819  0.8373 -0.9015
 4518TIP3    H235114   2.950   1.164   7.271 -1.8384 -0.5089  0.5042
 4519TIP3   OH235115   2.145   3.626   6.670 -0.2403 -0.1271 -0.6354
 4519TIP3    H135116   2.214   3.692   6.667 -0.1257 -0.2711 -1.7926
 4519TIP3    H235117   2.083   3.653   6.602 -2.0241  0.7018  1.2116
 4520TIP3   OH235118   4.000   2.013   0.955 -0.0125 -0.3210 -0.1148
 4520TIP3    H135119   3.960   2.000   0.869  1.3646  0.6400 -0.9384
 4520TIP3    H235120   3.958   1.948   1.011 -1.7014 -0.2711 -1.2427
 4521TIP3   OH235121   2.810   1.074   1.857  0.4831  0.0435  0.8850
 4521TIP3    H135122   2.715   1.059   1.854  0.4725  0.2312 -0.8105
 4521TIP3    H235123   2.830   1.112   1.771  1.6534  2.7245  2.2272
 4522TIP3   OH235124   1.025   0.921   7.727 -0.1314  0.1897  0.1192
 4522TIP3    H135125   0.982   0.838   7.711 -0.2521  0.5108 -1.3704
 4522TIP3    H235126   1.064   0.945   7.643  0.8561  1.1006  0.8036
 4523TIP3   OH235127   4.010   3.205   8.186 -0.1013  0.4924 -0.8653
 4523TIP3    H135128   4.010   3.157   8.268 -0.6039  0.5777 -0.8128
 4523TIP3    H235129   3.971   3.290   8.207 -0.2416  0.5114 -1.1898
 4524TIP3   OH235130   6.706   0.687   6.911 -0.0817 -0.1707  0.1099
 4524TIP3    H135131   6.621   0.731   6.924  0.3766  1.6309 -2.3608
 4524TIP3    H235132   6.728   0.703   6.820  2.5295 -1.3919  0.4375
 4525TIP3   OH235133   3.244   1.202   1.079 -0.7477  0.0588 -0.5046
 4525TIP3    H135134   3.229   1.134   1.145  1.5547 -0.7482 -0.7454
 4525TIP3    H235135   3.285   1.274   1.128 -0.5684  0.1382 -0.7720
 4526TIP3   OH235136   3.814   6.562   0.034  0.0303  0.2405  0.0657
 4526TIP3    H135137   3.806   6.648  -0.008  1.5414 -0.9536 -2.9843
 4526TIP3    H235138   3.908   6.543   0.031 -0.4120 -2.1548 -0.7926
 4527TIP3   OH235139   0.260   0.116   8.313 -0.0856  0.4458 -0.6105
 4527TIP3    H135140   0.227   0.076   8.394  0.1677 -0.1853 -0.8187
 4527TIP3    H235141   0.200   0.085   8.245  1.5864 -1.7341 -1.2103
 4528TIP3   OH235142   2.709   4.053   7.956 -0.4489 -0.0424  0.6136
 4528TIP3    H135143   2.725   3.980   8.016  0.6333 -1.4425 -1.2495
 4528TIP3    H235144   2.616   4.074   7.967 -0.8915 -1.9933  0.9287
 4529TIP3   OH235145   0.072   4.417   8.086  0.0554  0.7250  0.6374
 4529TIP3    H135146   0.110   4.331   8.064 -0.5081  0.4370  0.7692
 4529TIP3    H235147  -0.019   4.410   8.059  0.5309  2.0856 -1.4960
 4530TIP3   OH235148   2.075   1.285   7.169 -0.3464 -0.0987  0.5134
 4530TIP3    H135149   1.994   1.234   7.178  0.1988 -0.9863  0.5171
 4530TIP3    H235150   2.046   1.376   7.166 -1.2349 -0.2896  2.1573
 4531TIP3   OH235151   0.336   4.482   7.444  0.0344 -0.0862 -0.3737
 4531TIP3    H135152   0.351   4.573   7.472 -0.9668 -0.1830  0.5248
 4531TIP3    H235153   0.307   4.490   7.353 -2.5689  0.7399  0.4452
 4532TIP3   OH235154   1.998   0.362   7.224  1.0101  0.1842  0.1744
 4532TIP3    H135155   2.093   0.362   7.225  1.0818 -2.3682  0.3521
 4532TIP3    H235156   1.973   0.361   7.316  1.0286 -3.3011  0.2809
 4533TIP3   OH235157   5.679   5.599   6.753 -0.4318 -0.0678  0.2664
 4533TIP3    H135158   5.655   5.631   6.666  0.4906 -0.8979 -0.3228
 4533TIP3    H235159   5.663   5.673   6.812 -1.7105  0.2995 -0.4920
 4534TIP3   OH235160   1.014   6.138   1.788  0.5603 -0.6314 -0.7084
 4534TIP3    H135161   1.002   6.195   1.712  0.8085 -1.1785 -1.1705
 4534TIP3    H235162   1.109   6.123   1.792  0.6853  0.2990  0.3969
 4535TIP3   OH235163   1.737   3.731   1.768 -0.1807  0.0117  0.2091
 4535TIP3    H135164   1.810   3.764   1.716 -0.1183 -1.9125 -1.0453
 4535TIP3    H235165   1.769   3.732   1.858 -0.0389  2.7569  0.2009
 4536TIP3   OH235166   6.296   2.972   6.701 -0.1727  0.4908 -0.2881
 4536TIP3    H135167   6.354   3.033   6.748  0.2028  0.6171 -0.8957
 4536TIP3    H235168   6.343   2.954   6.619 -0.7236  0.1214 -0.5249
 4537TIP3   OH235169   6.592   1.244   2.874 -0.2415  0.4684 -0.8209
 4537TIP3    H135170   6.624   1.165   2.916  0.4426  1.1405 -0.0284
 4537TIP3    H235171   6.657   1.265   2.807 -0.1434  0.6370 -0.6762
 4538TIP3   OH235172   3.150   1.354   1.557  0.3291 -0.2369 -0.3447
 4538TIP3    H135173   3.188   1.426   1.508 -2.4209  2.4042  1.0528
 4538TIP3    H235174   3.063   1.342   1.519 -0.7512 -0.0945  1.8999
 4539TIP3   OH235175   1.443   0.046   7.802 -0.3583 -0.3048  0.5482
 4539TIP3    H135176   1.445   0.142   7.804 -0.0390 -0.3147  1.0745
 4539TIP3    H235177   1.402   0.024   7.719 -0.3230  0.2911  0.3695
 4540TIP3   OH235178   5.328   1.654   8.022  0.5884 -0.2684  0.0140
 4540TIP3    H135179   5.330   1.721   7.953  2.3696 -0.1994  0.1013
 4540TIP3    H235180   5.334   1.571   7.976 -1.1096 -0.3904 -0.0595
 4541TIP3   OH235181   1.486   0.145   2.105 -0.0749  1.1848  0.5725
 4541TIP3    H135182   1.542   0.169   2.179  1.1632 -2.8103  1.1231
 4541TIP3    H235183   1.540   0.162   2.028  0.2891  1.2211  0.8335
 4542TIP3   OH235184   5.710   2.969   7.889  0.5796  0.2525 -0.3255
 4542TIP3    H135185   5.744   3.049   7.931  1.0274  0.0839 -0.3614
 4542TIP3    H235186   5.775   2.902   7.910  0.2588 -0.0791 -0.3879
 4543TIP3   OH235187   1.824   4.958   0.882  0.0820  0.3045 -0.1372
 4543TIP3    H135188   1.743   4.916   0.912 -2.0362  3.3710 -1.0963
 4543TIP3    H235189   1.815   4.963   0.787  0.5802  2.1259 -0.1303
 4544TIP3   OH235190   5.187   1.536   8.250 -0.1718  0.7000  0.4055
 4544TIP3    H135191   5.208   1.536   8.157  2.6388 -1.9921  0.8725
 4544TIP3    H235192   5.101   1.495   8.256 -0.1218  0.3763 -0.9522
 4545TIP3   OH235193   6.357   0.194   7.584  0.5373 -0.5846 -0.2783
 4545TIP3    H135194   6.340   0.225   7.673 -0.3535 -1.8171  0.0077
 4545TIP3    H235195   6.352   0.098   7.591  0.3799 -0.6907 -1.6731
 4546TIP3   OH235196   4.063   4.782   0.449  0.1066  0.0026  0.0720
 4546TIP3    H135197   4.024   4.732   0.521  2.0117 -1.7472 -0.0322
 4546TIP3    H235198   4.107   4.856   0.493 -0.4471  0.0848  0.4973
 4547TIP3   OH235199   5.727   1.955   7.523 -0.3281  0.0440  0.1914
 4547TIP3    H135200   5.803   1.944   7.581 -2.1934 -0.2259  2.7841
 4547TIP3    H235201   5.706   1.866   7.494 -0.7707 -0.1493  1.0650
 4548TIP3   OH235202   0.271   4.501   1.018  0.3954 -0.7604  0.3309
 4548TIP3    H135203   0.314   4.558   1.081 -0.3252 -0.8227  0.8882
 4548TIP3    H235204   0.283   4.413   1.053 -1.4329 -0.6724  1.2864
 4549TIP3   OH235205   2.237   4.094   6.042  0.5276 -0.0540 -0.2630
 4549TIP3    H135206   2.143   4.109   6.047  0.6861  0.8342  0.4042
 4549TIP3    H235207   2.247   4.000   6.057 -0.1065  0.2202  2.4511
 4550TIP3   OH235208   4.825   6.209   7.716 -0.9181 -0.4641  0.2178
 4550TIP3    H135209   4.837   6.202   7.810 -1.0253  0.6379  0.3265
 4550TIP3    H235210   4.800   6.121   7.688 -2.3309 -0.4723  1.4227
 4551TIP3   OH235211   4.842   1.744   1.760  0.5197  0.6521 -0.2532
 4551TIP3    H135212   4.792   1.706   1.832 -0.8207  1.8089 -0.5265
 4551TIP3    H235213   4.912   1.794   1.803  0.0238  0.9356  0.2347
 4552TIP3   OH235214   6.230   6.490   7.649 -0.2322 -0.0895  0.0118
 4552TIP3    H135215   6.155   6.438   7.619 -2.2036  3.2041 -1.2962
 4552TIP3    H235216   6.305   6.449   7.608 -1.4428 -2.6306  0.1249
 4553TIP3   OH235217   0.356   5.805   7.871 -0.0075 -0.0117  0.5986
 4553TIP3    H135218   0.400   5.780   7.953  1.7535  3.0731  0.7845
 4553TIP3    H235219   0.428   5.819   7.809 -0.8792  2.1339 -0.0442
 4554TIP3   OH235220   5.533   3.554   7.265  0.7108 -0.0114  0.1649
 4554TIP3    H135221   5.472   3.595   7.203 -0.1726 -1.3223  0.1347
 4554TIP3    H235222   5.478   3.494   7.316  2.0460 -1.4605 -0.0577
 4555TIP3   OH235223   4.210   0.612   0.755  0.3182 -0.0961  0.0783
 4555TIP3    H135224   4.246   0.619   0.666 -1.7136 -1.3662 -0.9151
 4555TIP3    H235225   4.159   0.693   0.766 -1.4608 -1.0057 -0.9584
 4556TIP3   OH235226   0.436   1.308   8.379  0.3178 -0.1771  0.2602
 4556TIP3    H135227   0.345   1.280   8.380  0.6249 -1.2285  1.1688
 4556TIP3    H235228   0.433   1.403   8.389 -0.7387  0.1153 -2.1977
 4557TIP3   OH235229   1.463   1.762   8.384 -0.1044  0.4431  0.2620
 4557TIP3    H135230   1.443   1.834   8.444 -1.3500 -0.4377  0.9718
 4557TIP3    H235231   1.419   1.686   8.423  0.4428 -0.5154 -0.9166
 4558TIP3   OH235232   6.852   6.711   8.408  0.9470 -0.1622  0.0341
 4558TIP3    H135233   6.944   6.691   8.390  0.7901 -1.0313  0.1398
 4558TIP3    H235234   6.844   6.701   8.503  0.8134  0.2407  0.0668
 4559TIP3   OH235235   3.704   2.172   7.277 -0.2467 -0.5162  0.2859
 4559TIP3    H135236   3.726   2.130   7.194  0.3916 -0.3779  0.3773
 4559TIP3    H235237   3.685   2.263   7.253 -0.5469 -0.5947  0.2274
 4560TIP3   OH235238   3.943   1.405   8.682  0.0160  0.1525 -0.8304
 4560TIP3    H135239   3.981   1.416   8.595 -1.5722 -0.0925 -1.5933
 4560TIP3    H235240   3.916   1.313   8.685  0.8441 -0.0752  0.2725
 4561TIP3   OH235241   4.938   3.025   7.901 -0.1143  0.3121  0.0360
 4561TIP3    H135242   4.869   3.031   7.968  0.0891 -2.4927  0.6369
 4561TIP3    H235243   4.890   3.005   7.820 -0.1091 -1.4744  0.4225
 4562TIP3   OH235244   4.033   0.454   1.199  0.2088 -0.2096 -0.3592
 4562TIP3    H135245   4.066   0.540   1.225  1.9628 -0.9875  0.1649
 4562TIP3    H235246   4.112   0.400   1.190 -0.7675 -1.4906 -1.7415
 4563TIP3   OH235247   4.560   2.978   0.766  0.3221  0.1034 -0.2933
 4563TIP3    H135248   4.631   2.916   0.747  1.6325  0.7399  2.1516
 4563TIP3    H235249   4.485   2.922   0.788  0.8585 -0.6092 -0.2483
 4564TIP3   OH235250   0.509   2.111   1.149 -0.5483 -0.0279 -0.0503
 4564TIP3    H135251   0.507   2.016   1.134  2.4853  0.0203 -1.7076
 4564TIP3    H235252   0.418   2.138   1.139 -1.3595 -2.6232 -0.7310
 4565TIP3   OH235253   4.975   3.649   0.321  0.1216  0.5042  0.1947
 4565TIP3    H135254   4.947   3.567   0.360  0.0089  0.9358  1.0511
 4565TIP3    H235255   5.055   3.672   0.367 -0.6654  1.6360  1.0715
 4566TIP3   OH235256   6.234   4.808   8.635  0.5769 -0.7811 -0.1562
 4566TIP3    H135257   6.249   4.837   8.545 -0.1045  0.2336  0.0422
 4566TIP3    H235258   6.143   4.780   8.636  0.1684  0.5358  0.5536
 4567TIP3   OH235259   3.641   3.707   7.778  0.0550  0.1091 -0.1005
 4567TIP3    H135260   3.699   3.632   7.786 -1.8156 -1.3126  0.9030
 4567TIP3    H235261   3.700   3.782   7.772  1.9740 -1.2977  0.2232
 4568TIP3   OH235262   3.515   2.989   7.096  0.2208 -0.2972  0.2182
 4568TIP3    H135263   3.432   3.015   7.136  0.0838 -1.7034  0.8854
 4568TIP3    H235264   3.490   2.934   7.022  0.5468 -2.0106  1.3329
 4569TIP3   OH235265   2.521   6.644   8.114  0.0037 -0.0572  0.0635
 4569TIP3    H135266   2.584   6.574   8.130 -1.2384 -1.2412 -0.0778
 4569TIP3    H235267   2.488   6.668   8.201 -1.6790 -1.6981 -0.0602
 4570TIP3   OH235268   3.268   0.048   8.675  0.0876 -0.0073 -0.6641
 4570TIP3    H135269   3.250   0.141   8.691  1.0896  0.1208 -0.2234
 4570TIP3    H235270   3.192   0.018   8.625 -0.3899  0.9755 -0.5664
 4571TIP3   OH235271   0.891   0.476   8.676  0.3267 -0.3123 -0.4130
 4571TIP3    H135272   0.881   0.413   8.605  0.3312  1.9071 -2.5213
 4571TIP3    H235273   0.977   0.458   8.713  0.4364 -1.3364 -1.1438
 4572TIP3   OH235274   4.730   5.194   0.570  0.1395 -0.3052  0.4073
 4572TIP3    H135275   4.728   5.120   0.510 -2.5640  0.6704 -0.8811
 4572TIP3    H235276   4.741   5.155   0.657  0.2991 -2.0823 -0.3772
 4573TIP3   OH235277   2.925   1.880   8.606  0.6406 -0.3473  0.4782
 4573TIP3    H135278   2.939   1.923   8.522  0.3352 -1.9622 -0.4480
 4573TIP3    H235279   2.953   1.789   8.592 -1.5390 -1.2536  1.4015
 4574TIP3   OH235280   3.672   1.046   1.489  0.6554 -0.3160 -0.0451
 4574TIP3    H135281   3.714   1.058   1.404 -2.8240 -0.9638 -2.0471
 4574TIP3    H235282   3.601   1.110   1.491 -0.0552 -1.0749  1.8956
 4575TIP3   OH235283   2.956   6.103   6.678  0.2212 -0.0855  0.5523
 4575TIP3    H135284   3.049   6.128   6.675  0.9109 -2.0453  2.8641
 4575TIP3    H235285   2.932   6.094   6.586  2.4964 -0.0856 -0.1209
 4576TIP3   OH235286   0.448   2.787   7.614 -0.1314 -0.0404 -0.0925
 4576TIP3    H135287   0.377   2.750   7.667 -0.4144  1.0793  0.3363
 4576TIP3    H235288   0.466   2.720   7.549 -2.5411  0.1641 -1.1006
 4577TIP3   OH235289   5.294   5.849   6.401 -0.1850 -0.1107  0.1433
 4577TIP3    H135290   5.343   5.775   6.437 -0.6790 -1.2663 -1.4835
 4577TIP3    H235291   5.230   5.809   6.342 -0.6897  1.6082 -0.5180
 4578TIP3   OH235292   1.648   6.290   0.882  0.3336  0.4942  0.2927
 4578TIP3    H135293   1.648   6.194   0.893 -2.4370  0.1514 -1.7647
 4578TIP3    H235294   1.588   6.322   0.949  0.4251  0.6983  0.2781
 4579TIP3   OH235295   2.526   4.662   8.316  0.6734  0.5243  0.0488
 4579TIP3    H135296   2.601   4.694   8.366  0.9039 -0.0868  0.0997
 4579TIP3    H235297   2.532   4.707   8.232  1.0850  0.4934  0.0605
 4580TIP3   OH235298   2.485   4.033   1.503  0.1892 -0.3712  0.9532
 4580TIP3    H135299   2.577   4.056   1.495 -0.2166  1.0162 -0.2988
 4580TIP3    H235300   2.458   4.071   1.587  0.3956  0.6762  0.5682
 4581TIP3   OH235301   0.130   5.997   7.532 -0.1028  0.1209  0.3004
 4581TIP3    H135302   0.122   5.969   7.441 -0.8630 -0.7943  0.6345
 4581TIP3    H235303   0.200   5.943   7.568  1.0286  1.3014 -0.0222
 4582TIP3   OH235304   1.075   5.814   1.631 -0.4340  0.3660  0.3522
 4582TIP3    H135305   1.100   5.904   1.652  0.1734  0.2182  0.2629
 4582TIP3    H235306   1.138   5.785   1.565 -0.6108 -0.1336  0.3953
 4583TIP3   OH235307   1.650   2.689   8.357 -0.5292 -0.0571 -0.2620
 4583TIP3    H135308   1.605   2.616   8.398 -0.2425 -0.1766 -0.1527
 4583TIP3    H235309   1.612   2.696   8.270 -2.0782  1.0385  0.4592
 4584TIP3   OH235310   0.705   1.897   1.086  0.3057 -0.3218 -0.4475
 4584TIP3    H135311   0.785   1.874   1.039 -0.0244  0.8825 -1.6444
 4584TIP3    H235312   0.735   1.938   1.167  0.9616  1.6139 -1.6120
 4585TIP3   OH235313   5.834   3.197   7.226  0.0347 -0.3649  0.1733
 4585TIP3    H135314   5.758   3.177   7.281  1.7986 -2.7655  1.9381
 4585TIP3    H235315   5.809   3.168   7.138 -0.8834 -1.6604  0.8437
 4586TIP3   OH235316   0.793   0.652   0.734  0.1659  0.5189  0.3471
 4586TIP3    H135317   0.859   0.717   0.760  0.7308 -0.5242  1.6189
 4586TIP3    H235318   0.710   0.691   0.759  0.2581  1.7986 -1.1547
 4587TIP3   OH235319   3.389   3.533   1.428 -0.4258 -0.1565  0.4659
 4587TIP3    H135320   3.476   3.507   1.399  0.0275  0.3239  1.3653
 4587TIP3    H235321   3.369   3.611   1.377 -0.5817 -0.6022 -0.1637
 4588TIP3   OH235322   3.099   2.954   0.681 -0.1760  0.2260 -0.2400
 4588TIP3    H135323   3.092   2.947   0.776  1.6242 -1.0955 -0.1602
 4588TIP3    H235324   3.191   2.972   0.665  0.0514 -1.9774 -1.8167
 4589TIP3   OH235325   6.337   2.481   6.746  0.3034 -0.6736  0.3152
 4589TIP3    H135326   6.292   2.409   6.702 -1.3418  0.6584 -0.2811
 4589TIP3    H235327   6.381   2.528   6.676 -1.3898  0.7964  0.1733
 4590TIP3   OH235328   3.018   1.364   8.504 -0.1994  0.3618 -0.8042
 4590TIP3    H135329   3.024   1.453   8.469  0.9329  1.1326  1.1944
 4590TIP3    H235330   3.037   1.308   8.430 -0.6947  1.7893 -2.0608
 4591TIP3   OH235331   6.427   0.330   0.903  0.1343 -0.5725 -0.3378
 4591TIP3    H135332   6.416   0.425   0.904 -0.2902 -0.5510 -2.4947
 4591TIP3    H235333   6.356   0.298   0.847  0.4573 -2.1403  0.0883
 4592TIP3   OH235334   4.271   0.877   7.912  0.2420 -0.4372 -0.2395
 4592TIP3    H135335   4.354   0.925   7.920  0.0801 -0.2170  0.1616
 4592TIP3    H235336   4.294   0.796   7.867  0.5755 -0.1244 -0.6472
 4593TIP3   OH235337   0.968   4.387   1.928  0.2438 -0.2275 -0.2077
 4593TIP3    H135338   1.055   4.355   1.903  0.7393  0.7728  0.1986
 4593TIP3    H235339   0.955   4.356   2.017 -0.0694 -0.8640 -0.4676
 4594TIP3   OH235340   5.958   1.202   8.095  0.3351  0.2449  0.0075
 4594TIP3    H135341   6.016   1.164   8.030 -0.4626 -1.7210  0.3789
 4594TIP3    H235342   5.945   1.133   8.160 -1.2758  1.1133  0.6803
 4595TIP3   OH235343   1.766   4.502   0.424 -0.3518  0.1911  0.4716
 4595TIP3    H135344   1.709   4.560   0.374  0.2161  1.5226  1.3299
 4595TIP3    H235345   1.709   4.428   0.448 -1.9925  1.8890  2.0665
 4596TIP3   OH235346   1.576   3.483   0.786  0.1960 -0.0919 -0.0776
 4596TIP3    H135347   1.486   3.515   0.795  0.2664  0.7565 -1.9537
 4596TIP3    H235348   1.624   3.558   0.751  1.6604 -0.5313  0.9283
 4597TIP3   OH235349   5.834   5.166   0.934  0.2594 -0.0268  0.9877
 4597TIP3    H135350   5.885   5.197   0.859 -1.2523 -1.1636 -0.5963
 4597TIP3    H235351   5.743   5.171   0.904 -0.2569 -2.9378  1.7417
 4598TIP3   OH235352   2.957   1.453   0.387 -0.2137  0.7068 -0.0551
 4598TIP3    H135353   2.885   1.492   0.437 -1.3643 -0.6262 -0.6057
 4598TIP3    H235354   2.914   1.398   0.322  1.2980  0.8010 -1.1817
 4599TIP3   OH235355   6.349   3.163   0.830 -0.6929  0.2561  0.0837
 4599TIP3    H135356   6.362   3.075   0.864  1.2264  0.9001  1.1805
 4599TIP3    H235357   6.372   3.157   0.738  0.6867 -0.1565  0.4350
 4600TIP3   OH235358   4.799   1.762   6.906 -0.0816  0.3865  0.4766
 4600TIP3    H135359   4.786   1.844   6.859  1.1175  1.4265  1.8509
 4600TIP3    H235360   4.855   1.709   6.849 -1.3845  0.2327 -0.6992
 4601TIP3   OH235361   5.404   1.110   8.642 -0.3693  0.1038 -0.0175
 4601TIP3    H135362   5.370   1.061   8.567 -0.6508 -0.5077  0.5052
 4601TIP3    H235363   5.448   1.185   8.602  2.3358 -1.8366 -1.0248
 4602TIP3   OH235364   3.376   6.384   6.497  0.1414 -0.3981 -0.1056
 4602TIP3    H135365   3.398   6.407   6.406  2.0535 -0.6176  0.2690
 4602TIP3    H235366   3.399   6.462   6.547 -1.8964  0.1148  0.1141
 4603TIP3   OH235367   1.781   6.730   0.009  0.0363  0.6862 -0.2585
 4603TIP3    H135368   1.696   6.738  -0.035 -0.0034 -1.4787 -0.6922
 4603TIP3    H235369   1.785   6.638   0.037  2.1476  0.7865 -0.0556
 4604TIP3   OH235370   3.456   4.022   7.508  0.2346  0.2043  0.3612
 4604TIP3    H135371   3.394   3.972   7.561 -0.1763  0.2720 -0.0429
 4604TIP3    H235372   3.431   4.002   7.417  1.2628 -0.3491  0.1725
 4605TIP3   OH235373   4.010   2.500   0.324  0.4394  0.2069 -0.9077
 4605TIP3    H135374   3.942   2.466   0.382  0.1439 -0.7031 -1.7581
 4605TIP3    H235375   4.024   2.589   0.354  0.8264 -0.4626  1.0330
 4606TIP3   OH235376   3.192   2.011   7.887  0.1822 -0.3046  0.4154
 4606TIP3    H135377   3.287   2.001   7.885  0.4405  1.1266  2.1630
 4606TIP3    H235378   3.177   2.079   7.953 -1.9248  1.1703 -1.4243
 4607TIP3   OH235379   2.966   4.210   7.669 -0.1499 -0.4286 -0.1742
 4607TIP3    H135380   2.905   4.234   7.738  0.0621 -1.6276  0.4432
 4607TIP3    H235381   2.978   4.291   7.619 -0.8119  0.2810  0.7859
 4608TIP3   OH235382   0.617   4.902   0.853  0.1322  0.1775  0.6432
 4608TIP3    H135383   0.570   4.981   0.824 -1.3849 -0.4341  1.3055
 4608TIP3    H235384   0.676   4.934   0.921 -0.0784  0.8231  0.5363
 4609TIP3   OH235385   3.444   6.017   7.427  0.2650  0.3029  0.5811
 4609TIP3    H135386   3.391   6.062   7.361 -0.2354  1.6460  1.8191
 4609TIP3    H235387   3.531   6.013   7.389 -0.4712 -1.0268 -1.0809
 4610TIP3   OH235388   2.563   4.216   7.366  0.1027 -0.0038 -0.4639
 4610TIP3    H135389   2.640   4.192   7.314 -0.2403  0.6690 -1.3225
 4610TIP3    H235390   2.596   4.277   7.431  0.3372  0.1112 -0.6876
 4611TIP3   OH235391   4.471   0.160   0.859  0.3417 -0.2640 -0.3660
 4611TIP3    H135392   4.512   0.100   0.922 -0.5293  1.8834  2.5037
 4611TIP3    H235393   4.391   0.114   0.832 -0.7800 -0.1997  2.4636
 4612TIP3   OH235394   2.156   5.501   1.480 -0.1821  0.2583 -0.2901
 4612TIP3    H135395   2.144   5.591   1.449  0.0321 -0.1109 -1.4734
 4612TIP3    H235396   2.251   5.489   1.482 -0.2199 -0.1125 -0.6470
 4613TIP3   OH235397   6.111   0.542   0.277 -0.2445  0.0773 -0.2781
 4613TIP3    H135398   6.180   0.481   0.250  2.2863  1.8904  1.5771
 4613TIP3    H235399   6.103   0.602   0.203 -1.0523 -1.0512 -1.1491
 4614TIP3   OH235400   1.365   6.521   8.547 -0.4725 -0.1654 -0.6831
 4614TIP3    H135401   1.320   6.598   8.582 -1.1128 -0.4753 -0.8051
 4614TIP3    H235402   1.339   6.450   8.606  2.2120  0.1404  1.0736
 4615TIP3   OH235403   6.152   1.538   7.534  0.4328  0.2057  0.1066
 4615TIP3    H135404   6.233   1.574   7.567  0.9726  1.1592 -2.0884
 4615TIP3    H235405   6.112   1.609   7.484 -1.1387 -0.6249  0.1049
 4616TIP3   OH235406   3.156   5.817   8.243 -0.0234 -0.0836 -0.1077
 4616TIP3    H135407   3.174   5.729   8.209 -1.4773 -0.2693 -0.4684
 4616TIP3    H235408   3.150   5.872   8.165 -1.2980 -0.1053 -0.0420
 4617TIP3   OH235409   2.891   6.695   8.434 -0.1814 -0.1678  0.2628
 4617TIP3    H135410   2.926   6.619   8.389  0.9051  0.1595  0.5356
 4617TIP3    H235411   2.861   6.753   8.363  1.8052  0.4783 -0.0984
 4618TIP3   OH235412   1.967   5.769   0.634 -0.3563 -0.3261 -0.5417
 4618TIP3    H135413   2.019   5.688   0.638  0.0137 -0.0424  0.7800
 4618TIP3    H235414   2.022   5.829   0.584 -0.1713 -0.5662 -0.6325
 4619TIP3   OH235415   3.317   4.469   8.065  0.2270 -0.3397  0.4524
 4619TIP3    H135416   3.257   4.466   7.990 -1.4702 -0.5439  1.7679
 4619TIP3    H235417   3.337   4.378   8.083 -1.4632 -0.4855  1.8177
 4620TIP3   OH235418   5.074   2.586   0.678  0.6194  0.0695  0.0977
 4620TIP3    H135419   5.034   2.501   0.663  0.4230  0.1443  0.1972
 4620TIP3    H235420   5.029   2.621   0.754  0.8912  0.1440  0.2270
 4621TIP3   OH235421   3.136   4.463   6.996 -0.2250  0.2897 -0.5940
 4621TIP3    H135422   3.153   4.369   6.999 -0.8166  0.1824 -0.5902
 4621TIP3    H235423   3.152   4.494   7.085 -4.3202 -0.5718  0.6374
 4622TIP3   OH235424   4.396   1.098   7.688 -1.0760  0.1421 -0.6798
 4622TIP3    H135425   4.335   1.065   7.622 -1.2389 -2.1313  0.5096
 4622TIP3    H235426   4.341   1.119   7.763 -0.6067  0.0383 -0.3038
 4623TIP3   OH235427   6.299   4.320   0.225  0.0240  0.1364 -0.0422
 4623TIP3    H135428   6.319   4.259   0.154  1.4470  0.8928 -0.3168
 4623TIP3    H235429   6.278   4.402   0.181  0.6515  0.5355  0.3883
 4624TIP3   OH235430   3.926   0.234   2.195  0.3187  0.5458 -0.1891
 4624TIP3    H135431   3.930   0.154   2.247 -0.1279  1.3969  1.2125
 4624TIP3    H235432   4.004   0.230   2.139  1.4489  0.1016  1.3422
 4625TIP3   OH235433   0.702   4.589   7.804  0.0344 -0.0771 -0.2347
 4625TIP3    H135434   0.652   4.562   7.881  0.1104  0.7370  0.1113
 4625TIP3    H235435   0.652   4.662   7.768  0.2015 -0.2105 -0.7398
 4626TIP3   OH235436   5.721   4.245   8.318 -0.1724  0.3046  0.5897
 4626TIP3    H135437   5.768   4.285   8.245  1.6887  0.2815  1.6995
 4626TIP3    H235438   5.786   4.190   8.361 -1.7730 -1.2966  1.0801
 4627TIP3   OH235439   4.975   6.291   0.885 -0.2136 -0.3152  0.3638
 4627TIP3    H135440   4.937   6.366   0.840 -3.6287 -1.9680  0.1203
 4627TIP3    H235441   5.029   6.328   0.954 -0.6221  2.3175 -0.6288
 4628TIP3   OH235442   3.498   1.996   0.915 -0.1333  0.4599  0.6354
 4628TIP3    H135443   3.538   1.920   0.872 -0.2790  0.8031 -0.1125
 4628TIP3    H235444   3.565   2.064   0.909 -0.5784  0.8380 -0.0296
 4629TIP3   OH235445   2.071   3.101   0.832 -0.6135 -0.0291 -0.1285
 4629TIP3    H135446   2.118   3.055   0.902 -0.9433 -3.8210 -2.1181
 4629TIP3    H235447   2.139   3.151   0.787  0.3722 -0.7371  0.5244
 4630TIP3   OH235448   1.304   0.181   1.523 -0.1378  0.4552 -0.6953
 4630TIP3    H135449   1.303   0.091   1.492  1.4358  0.3816 -0.5982
 4630TIP3    H235450   1.339   0.176   1.612  0.4070  1.1894 -0.8535
 4631TIP3   OH235451   2.280   1.458   8.598  0.1882 -0.6068 -0.3701
 4631TIP3    H135452   2.281   1.553   8.589  3.4009  0.0100  3.6758
 4631TIP3    H235453   2.337   1.427   8.528 -0.2951  0.4725 -1.2790
 4632TIP3   OH235454   6.055   1.009   1.227 -0.1143  0.4008 -0.4204
 4632TIP3    H135455   6.106   0.935   1.196 -1.4066 -0.5056 -0.4418
 4632TIP3    H235456   6.009   0.977   1.304 -0.5512  1.2357 -0.3146
 4633TIP3   OH235457   5.292   6.245   1.617 -0.2711  0.7755  0.1116
 4633TIP3    H135458   5.217   6.276   1.567 -0.0688 -0.1894 -0.8139
 4633TIP3    H235459   5.354   6.319   1.616 -0.6901  1.1250 -0.1889
 4634TIP3   OH235460   1.652   2.475   7.395 -0.5474 -0.4292  0.6776
 4634TIP3    H135461   1.682   2.387   7.372 -2.1577 -0.7424 -0.3514
 4634TIP3    H235462   1.662   2.480   7.490  0.7434 -1.2531  0.6070
 4635TIP3   OH235463   0.173   2.795   7.989  0.2144  0.3858  0.3017
 4635TIP3    H135464   0.253   2.841   8.015  1.0066 -1.2199  0.8311
 4635TIP3    H235465   0.204   2.719   7.939 -0.9946 -0.0368  0.1568
 4636TIP3   OH235466   6.611   3.207   2.097  0.0081  0.1692  0.0881
 4636TIP3    H135467   6.652   3.292   2.084  1.1269 -0.3884 -0.2118
 4636TIP3    H235468   6.670   3.161   2.156 -1.7414  0.3819  2.1299
 4637TIP3   OH235469   2.603   5.725   1.309  0.2888 -0.3721 -0.4504
 4637TIP3    H135470   2.650   5.743   1.391 -0.8865 -0.2280  0.2016
 4637TIP3    H235471   2.538   5.794   1.303 -0.2546 -0.9312 -1.0245
 4638TIP3   OH235472   1.165   2.835   7.325 -0.0670 -0.4973 -0.3717
 4638TIP3    H135473   1.192   2.838   7.234 -1.6359 -0.2119 -0.8636
 4638TIP3    H235474   1.186   2.922   7.360 -0.8250 -0.0900 -0.8981
 4639TIP3   OH235475   2.450   1.997   0.559 -0.0280 -0.6238 -0.1464
 4639TIP3    H135476   2.375   2.021   0.613 -0.7011 -2.6166 -0.1036
 4639TIP3    H235477   2.426   2.025   0.471  0.3225  1.0517  0.2509
 4640TIP3   OH235478   0.470   5.650   2.276  0.2050 -0.1782  0.2875
 4640TIP3    H135479   0.515   5.667   2.194 -0.1147 -0.1344  0.1208
 4640TIP3    H235480   0.393   5.598   2.252  0.2478 -0.3843  0.5871
 4641TIP3   OH235481   3.769   3.315   8.503  0.6784  0.2301 -0.2634
 4641TIP3    H135482   3.747   3.240   8.448  0.8914  0.7156 -1.0296
 4641TIP3    H235483   3.837   3.283   8.562  1.4491  0.0602 -1.2172
 4642TIP3   OH235484   5.735   4.897   2.243  0.0089 -0.5705  0.6898
 4642TIP3    H135485   5.741   4.902   2.339  1.4221  0.7298  0.5639
 4642TIP3    H235486   5.816   4.852   2.217 -0.1284 -0.4656  0.0799
 4643TIP3   OH235487   2.563   1.368   1.830  0.2978  0.4721  0.2076
 4643TIP3    H135488   2.506   1.338   1.758  0.5416  0.8336 -0.1393
 4643TIP3    H235489   2.515   1.344   1.909 -0.4875  1.0513 -0.0815
 4644TIP3   OH235490   0.681   5.285   0.051  0.2211  0.3782 -0.0430
 4644TIP3    H135491   0.732   5.222   0.001 -0.0100  0.9067 -0.9830
 4644TIP3    H235492   0.747   5.339   0.095  0.4748  0.6677 -0.7533
 4645TIP3   OH235493   2.272   3.144   0.122  0.5820  0.7849 -0.3657
 4645TIP3    H135494   2.197   3.198   0.148 -0.0411 -0.1145 -0.2724
 4645TIP3    H235495   2.299   3.100   0.203 -0.1848 -0.5844 -0.8304
 4646TIP3   OH235496   4.993   2.819   0.560 -0.2549  0.0469  0.1771
 4646TIP3    H135497   5.001   2.803   0.466  0.3198  2.3165 -0.2229
 4646TIP3    H235498   5.052   2.755   0.601 -0.5607 -1.0065 -0.9908
 4647TIP3   OH235499   3.951   4.415   7.423  0.4045 -0.1369 -0.4037
 4647TIP3    H135500   4.007   4.389   7.496  0.5628  0.9848 -0.1045
 4647TIP3    H235501   3.956   4.342   7.361 -1.3810 -2.1109  1.5841
 4648TIP3   OH235502   5.865   2.685   0.882  0.2584 -0.0210 -0.2094
 4648TIP3    H135503   5.827   2.625   0.946  1.0300  0.4382  0.7123
 4648TIP3    H235504   5.959   2.668   0.886  0.4597  0.9945 -0.1794
 4649TIP3   OH235505   1.386   4.362   8.402  0.8716 -0.3464  0.2321
 4649TIP3    H135506   1.428   4.429   8.347 -0.5445 -0.2587 -0.7760
 4649TIP3    H235507   1.383   4.402   8.489  1.5777  0.2024  0.0200
 4650TIP3   OH235508   4.511   2.244   6.455  0.6603  0.5592 -0.0282
 4650TIP3    H135509   4.478   2.201   6.535 -2.6210  3.2455  0.3025
 4650TIP3    H235510   4.586   2.295   6.485  1.5190 -0.9782  0.5731
 4651TIP3   OH235511   4.286   5.727   0.705  0.3414 -0.0816 -0.1551
 4651TIP3    H135512   4.272   5.811   0.748  1.6702 -0.1552  0.4513
 4651TIP3    H235513   4.201   5.706   0.665  0.1802  1.8660 -0.9152
 4652TIP3   OH235514   3.309   1.033   1.600  0.2471  0.0923  0.4746
 4652TIP3    H135515   3.276   1.085   1.673  0.8196 -1.1325  1.6614
 4652TIP3    H235516   3.329   0.948   1.639  5.1432  0.7443  0.0710
 4653TIP3   OH235517   2.575   0.390   8.007 -0.5828 -0.4424 -0.5144
 4653TIP3    H135518   2.538   0.442   8.079  1.9461  0.6915  0.0760
 4653TIP3    H235519   2.502   0.378   7.946 -1.8238  2.0049  0.3417
 4654TIP3   OH235520   2.038   6.012   0.813 -0.0754 -0.0592 -0.1461
 4654TIP3    H135521   1.963   6.028   0.871  2.1088 -0.2673  2.9353
 4654TIP3    H235522   2.067   5.924   0.834  1.2187  0.1173 -1.0681
 4655TIP3   OH235523   0.199   3.249   8.446 -0.7470 -0.2397 -0.2336
 4655TIP3    H135524   0.277   3.287   8.486 -0.1550 -0.8049 -0.8215
 4655TIP3    H235525   0.180   3.305   8.371 -0.2596 -0.7234 -0.7218
 4656TIP3   OH235526   0.865   1.877   8.134  0.1859  0.9265 -0.0074
 4656TIP3    H135527   0.902   1.938   8.069  0.8552 -0.5909 -1.1011
 4656TIP3    H235528   0.819   1.812   8.082 -0.7990  0.6599  1.1625
 4657TIP3   OH235529   1.462   6.359   1.050 -0.0269  0.2132  0.0681
 4657TIP3    H135530   1.398   6.308   1.000  1.8473 -1.6937 -0.5049
 4657TIP3    H235531   1.459   6.322   1.138 -0.9056  1.3136  0.5357
 4658TIP3   OH235532   1.772   4.739   0.655 -0.3043  0.9650 -0.0728
 4658TIP3    H135533   1.685   4.733   0.695  0.2361  0.6870  1.0929
 4658TIP3    H235534   1.800   4.648   0.646  0.5615  1.0926  1.1476
 4659TIP3   OH235535   1.412   2.857   1.617 -0.3505 -0.2976  0.3658
 4659TIP3    H135536   1.412   2.880   1.710  0.2393  0.9078  0.0777
 4659TIP3    H235537   1.343   2.911   1.578  0.9657  0.9546 -0.2962
 4660TIP3   OH235538   5.998   5.718   7.959  0.1418  0.3985  0.2787
 4660TIP3    H135539   6.021   5.625   7.946 -0.5309  0.2845 -0.1455
 4660TIP3    H235540   6.082   5.764   7.954  0.3881 -0.1019 -0.3370
 4661TIP3   OH235541   5.797   3.756   0.003  0.1184  0.5437  0.5063
 4661TIP3    H135542   5.858   3.695  -0.038  0.4140  0.8527  0.4794
 4661TIP3    H235543   5.710   3.725  -0.022  0.3002  0.8145 -0.4751
 4662TIP3   OH235544   5.225   4.213   1.987 -0.2122  0.2125  0.3699
 4662TIP3    H135545   5.315   4.235   2.011 -0.1951  0.7112 -0.1473
 4662TIP3    H235546   5.199   4.280   1.925 -0.3060 -1.0049 -0.9491
 4663TIP3   OH235547   6.749   1.302   7.798 -0.0953  0.7292 -0.0145
 4663TIP3    H135548   6.732   1.215   7.833  2.0271 -0.6128 -2.1172
 4663TIP3    H235549   6.806   1.344   7.863  0.5698 -0.2290  0.0259
 4664TIP3   OH235550   4.286   0.367   0.028 -0.7071 -0.6296  0.4844
 4664TIP3    H135551   4.269   0.289  -0.026  1.5028 -0.4200 -0.6408
 4664TIP3    H235552   4.220   0.363   0.097 -0.4215 -3.7802  0.7395
 4665TIP3   OH235553   2.128   3.750   0.622  0.4228 -0.5136 -0.0076
 4665TIP3    H135554   2.110   3.715   0.709  1.1975 -0.3324  0.2365
 4665TIP3    H235555   2.042   3.770   0.586  0.0221 -1.6581  0.2663
 4666TIP3   OH235556   2.406   5.703   2.253 -0.2632 -0.0518  0.2171
 4666TIP3    H135557   2.474   5.770   2.243 -0.0302 -0.1083  1.2760
 4666TIP3    H235558   2.335   5.731   2.195  1.1320 -0.6506 -1.9082
 4667TIP3   OH235559   0.837   5.094   8.534  0.2754  0.0897  0.2265
 4667TIP3    H135560   0.912   5.118   8.480 -0.4935 -0.3722 -1.0983
 4667TIP3    H235561   0.871   5.030   8.596  0.9156 -0.4405 -0.6406
 4668TIP3   OH235562   1.788   6.536   0.933  0.2086  0.0369 -0.5307
 4668TIP3    H135563   1.742   6.461   0.896 -0.9275 -0.0696  1.0054
 4668TIP3    H235564   1.835   6.575   0.859 -0.7457 -1.0326 -1.7350
 4669TIP3   OH235565   1.916   5.036   5.899 -0.1546  0.4991  0.1213
 4669TIP3    H135566   1.904   4.953   5.852 -2.0791  1.3866 -1.0896
 4669TIP3    H235567   1.902   5.104   5.833 -1.0769  1.7902  1.5638
 4670TIP3   OH235568   4.296   1.922   0.786  0.1734  0.0395  0.2473
 4670TIP3    H135569   4.243   1.996   0.816  1.3602  1.2102 -0.4174
 4670TIP3    H235570   4.257   1.897   0.702  1.0690  1.3980 -0.6154
 4671TIP3   OH235571   3.850   1.851   8.077 -0.0059 -0.7020  0.2871
 4671TIP3    H135572   3.909   1.926   8.075 -1.1009  0.3347  2.7418
 4671TIP3    H235573   3.763   1.889   8.081 -0.8666 -2.1897 -2.2362
 4672TIP3   OH235574   0.078   5.831   7.833 -0.3790 -0.2402  0.9419
 4672TIP3    H135575   0.057   5.743   7.863  1.5008 -1.6516 -1.4509
 4672TIP3    H235576   0.173   5.831   7.825 -0.4972  1.1664 -1.3209
 4673TIP3   OH235577   0.699   3.193   2.225 -0.3325  0.5439 -0.7524
 4673TIP3    H135578   0.614   3.226   2.254  0.4817  2.2491 -0.2003
 4673TIP3    H235579   0.694   3.098   2.242 -1.3852  0.8811  1.2286
 4674TIP3   OH235580   2.063   2.268   8.022 -0.0376  0.4189  0.0763
 4674TIP3    H135581   2.081   2.361   8.009 -0.4844  0.4053 -0.7036
 4674TIP3    H235582   1.996   2.265   8.090  1.1623  0.5726  1.3260
 4675TIP3   OH235583   6.447   3.704   0.281  0.7649  0.3861  0.0327
 4675TIP3    H135584   6.433   3.645   0.356  1.5441  0.2685  0.0915
 4675TIP3    H235585   6.480   3.785   0.321 -1.0888  1.1976  0.0421
 4676TIP3   OH235586   6.490   3.221   8.229 -0.0836  0.1075  0.1235
 4676TIP3    H135587   6.472   3.172   8.309  0.7870 -0.5651 -0.0752
 4676TIP3    H235588   6.572   3.184   8.196 -1.3139 -0.8482 -2.0256
 4677TIP3   OH235589   1.653   3.556   1.377  0.2497 -0.0664  0.0208
 4677TIP3    H135590   1.569   3.514   1.362  0.2474  0.2787 -1.0640
 4677TIP3    H235591   1.635   3.624   1.442 -0.4390  0.3298 -0.5584
 4678TIP3   OH235592   4.823   0.021   7.461  0.4239 -0.1399 -0.0299
 4678TIP3    H135593   4.869   0.072   7.394 -1.6604  1.0837 -0.6133
 4678TIP3    H235594   4.794   0.086   7.524  1.2490 -1.1400  1.4251
 4679TIP3   OH235595   2.252   1.226   0.083 -0.2269 -0.0778 -0.3347
 4679TIP3    H135596   2.247   1.286   0.009 -0.6489 -0.9545 -1.0289
 4679TIP3    H235597   2.314   1.268   0.143  0.4040  0.4711 -1.3400
 4680TIP3   OH235598   4.564   2.706   8.658 -0.4394 -0.2806 -0.2839
 4680TIP3    H135599   4.596   2.730   8.746  0.7815 -0.8224 -0.5572
 4680TIP3    H235600   4.521   2.786   8.626 -1.9406 -0.4148  1.2377
 4681TIP3   OH235601   1.995   2.665   6.884 -0.1665 -0.2248 -0.3036
 4681TIP3    H135602   2.045   2.689   6.806 -0.5100 -0.3806 -0.5749
 4681TIP3    H235603   2.010   2.736   6.945 -0.4673  0.2545 -0.7755
 4682TIP3   OH235604   2.509   6.367   7.474 -0.6574  0.4270  0.8139
 4682TIP3    H135605   2.561   6.289   7.453 -0.3764  0.5242  1.1410
 4682TIP3    H235606   2.419   6.336   7.473 -0.5241  0.0030  1.3532
 4683TIP3   OH235607   5.896   5.969   0.558 -0.2564 -0.1270 -0.1227
 4683TIP3    H135608   5.896   6.005   0.469  1.3633 -0.0075 -0.0964
 4683TIP3    H235609   5.951   6.029   0.608  0.8578 -1.5217  0.3839
 4684TIP3   OH235610   2.299   4.717   7.935 -0.0888 -0.5284 -0.3488
 4684TIP3    H135611   2.355   4.736   7.860 -1.5002 -0.0866 -1.3252
 4684TIP3    H235612   2.307   4.794   7.992 -0.9433  0.2755 -1.2785
 4685TIP3   OH235613   1.524   4.743   0.749 -0.1340  0.0301 -0.6393
 4685TIP3    H135614   1.452   4.701   0.703  0.5794 -1.6837 -0.2557
 4685TIP3    H235615   1.489   4.828   0.776 -1.5778 -0.2507 -1.5576
 4686TIP3   OH235616   2.704   4.195   0.048 -0.6538 -0.5048 -0.2342
 4686TIP3    H135617   2.715   4.110   0.091 -1.5574 -0.4208  0.1805
 4686TIP3    H235618   2.700   4.258   0.120 -0.1525 -0.1154 -0.5338
 4687TIP3   OH235619   5.921   2.807   8.491  0.6401  0.0080 -0.8321
 4687TIP3    H135620   5.912   2.726   8.442  0.7589 -0.3300 -0.3068
 4687TIP3    H235621   5.922   2.876   8.425 -2.2194 -0.1685 -1.1578
 4688TIP3   OH235622   0.080   4.358   1.246 -0.2985 -0.0588 -0.1056
 4688TIP3    H135623   0.123   4.286   1.293  0.3088 -0.6186 -1.4765
 4688TIP3    H235624   0.123   4.437   1.279 -1.1692 -0.2638  1.6249
 4689TIP3   OH235625   5.826   3.574   1.764  0.3831 -0.0350 -0.0834
 4689TIP3    H135626   5.740   3.536   1.783  0.0069  1.4112  1.2933
 4689TIP3    H235627   5.808   3.645   1.702  0.0937  2.2038  2.4161
 4690TIP3   OH235628   3.716   6.392   0.230  0.3226  0.0269 -0.2282
 4690TIP3    H135629   3.762   6.441   0.299 -0.8206  0.2087  0.4395
 4690TIP3    H235630   3.731   6.442   0.151  2.7877 -0.8957 -0.4197
 4691TIP3   OH235631   5.955   6.192   1.367 -0.2491 -0.6756  0.0901
 4691TIP3    H135632   5.935   6.230   1.282 -0.4588  0.5051  0.6559
 4691TIP3    H235633   5.878   6.213   1.421  0.9100  0.7455  1.2594
 4692TIP3   OH235634   6.604   3.374   0.159  0.0959 -0.5038 -0.0535
 4692TIP3    H135635   6.629   3.463   0.185 -0.9747 -0.2511  0.1341
 4692TIP3    H235636   6.656   3.356   0.081  0.9680 -0.0517  0.4077
 4693TIP3   OH235637   1.577   2.059   0.379  0.5913 -0.0409  0.9794
 4693TIP3    H135638   1.535   2.129   0.429 -0.1093  0.2734 -0.0180
 4693TIP3    H235639   1.506   1.998   0.359  0.2898  1.0821 -1.7469
 4694TIP3   OH235640   5.881   0.556   7.615 -0.3617  0.0371 -0.2452
 4694TIP3    H135641   5.841   0.472   7.636 -0.1494 -0.0217 -0.0829
 4694TIP3    H235642   5.912   0.546   7.525  1.0896 -0.5990  0.3002
 4695TIP3   OH235643   1.642   5.282   1.033 -0.2477 -0.5001 -0.1620
 4695TIP3    H135644   1.661   5.372   1.060 -0.8753 -0.6575  0.8446
 4695TIP3    H235645   1.729   5.242   1.023  0.0232 -0.3204  1.2644
 4696TIP3   OH235646   3.076   0.730   2.033 -0.2809  0.4444  0.8192
 4696TIP3    H135647   3.152   0.682   2.066 -0.0521 -0.3816 -0.8300
 4696TIP3    H235648   3.088   0.819   2.067  0.5907 -0.0510  1.8723
 4697TIP3   OH235649   2.348   1.743   8.600 -0.0263 -0.3437 -0.3749
 4697TIP3    H135650   2.300   1.819   8.632 -0.3325 -0.0176 -1.5634
 4697TIP3    H235651   2.374   1.767   8.511  0.4875 -1.3576 -0.5104
 4698TIP3   OH235652   5.177   1.753   6.549  0.0005  0.0833 -0.0055
 4698TIP3    H135653   5.225   1.804   6.485  1.2964  0.5044  1.2359
 4698TIP3    H235654   5.108   1.710   6.499  1.0829  0.2125 -1.6993
 4699TIP3   OH235655   1.503   5.308   2.011 -0.4794  0.2135  0.4190
 4699TIP3    H135656   1.562   5.234   1.993 -0.0546  0.3117  1.3508
 4699TIP3    H235657   1.419   5.280   1.975  0.0754 -0.0165 -0.7433
 4700TIP3   OH235658   2.347   5.530   1.225 -0.1525  0.3647 -0.1955
 4700TIP3    H135659   2.296   5.608   1.248  0.3793  1.1287 -1.5290
 4700TIP3    H235660   2.292   5.483   1.163  0.6983  1.1541 -1.5836
 4701TIP3   OH235661   4.188   4.943   0.845 -0.6601  0.2187 -0.5079
 4701TIP3    H135662   4.184   4.988   0.930  0.5986  1.5625 -1.1021
 4701TIP3    H235663   4.125   4.872   0.852  1.9810 -2.0998  2.9101
 4702TIP3   OH235664   0.005   1.553   1.321  0.5470  0.2122  0.0709
 4702TIP3    H135665  -0.090   1.557   1.309  0.0208 -2.3766  2.3346
 4702TIP3    H235666   0.032   1.644   1.334 -1.4980  1.0698 -1.1640
 4703TIP3   OH235667   2.352   4.941   8.108 -0.3722  0.3610 -0.3411
 4703TIP3    H135668   2.385   4.933   8.197  1.0281  0.7781 -0.7927
 4703TIP3    H235669   2.313   5.028   8.105 -1.1701  0.0262  0.0842
 4704TIP3   OH235670   4.852   2.915   7.652 -0.1421  0.3083  0.0585
 4704TIP3    H135671   4.852   2.822   7.672 -0.2165  0.5343  1.1790
 4704TIP3    H235672   4.942   2.934   7.625 -0.5225 -0.3993 -1.7956
 4705TIP3   OH235673   0.110   3.099   0.197 -0.5040  0.1990 -0.1621
 4705TIP3    H135674   0.074   3.074   0.112  1.4806 -1.5666 -0.5510
 4705TIP3    H235675   0.138   3.016   0.236 -1.0308  1.0135  2.0792
 4706TIP3   OH235676   3.549   1.137   0.898 -0.4701 -0.8967 -0.1853
 4706TIP3    H135677   3.530   1.058   0.847 -1.6611 -1.3726  0.9394
 4706TIP3    H235678   3.534   1.111   0.989 -1.1576  0.6937  0.1938
 4707TIP3   OH235679   5.642   4.192   1.726 -0.1134  0.2546  0.6890
 4707TIP3    H135680   5.555   4.222   1.701  0.2954  0.7537 -0.1849
 4707TIP3    H235681   5.701   4.234   1.664  0.8103  0.3530  1.6014
 4708TIP3   OH235682   4.835   3.936   6.979  0.0927 -0.0720  0.4451
 4708TIP3    H135683   4.846   3.941   6.884  2.6836 -0.4123  0.6418
 4708TIP3    H235684   4.775   3.863   6.993  0.2713 -0.5001 -0.9007
 4709TIP3   OH235685   2.713   3.199   7.007  0.1125 -0.9188  0.0394
 4709TIP3    H135686   2.623   3.211   7.039  0.5354 -0.9466  1.2917
 4709TIP3    H235687   2.751   3.135   7.067  1.0774 -0.6586 -0.2762
 4710TIP3   OH235688   0.655   1.026   1.559  0.4755  0.2563 -0.2807
 4710TIP3    H135689   0.685   0.935   1.564 -0.3319 -0.1093 -1.5590
 4710TIP3    H235690   0.571   1.026   1.605  0.9072  0.5746  0.5260
 4711TIP3   OH235691   4.242   0.708   7.093  0.4675 -0.0377 -0.1997
 4711TIP3    H135692   4.220   0.722   7.000  1.7626 -0.9497 -0.6713
 4711TIP3    H235693   4.231   0.614   7.106  1.6913 -0.1473  0.1674
 4712TIP3   OH235694   1.647   5.500   1.546  0.1868 -0.1693 -0.0002
 4712TIP3    H135695   1.665   5.407   1.560  0.4783  0.0587  1.3276
 4712TIP3    H235696   1.631   5.508   1.452  2.7790 -1.1152 -0.6149
 4713TIP3   OH235697   5.651   5.658   7.357 -0.3282  0.1640  0.0290
 4713TIP3    H135698   5.606   5.730   7.402 -4.0059 -0.1076 -2.7549
 4713TIP3    H235699   5.674   5.694   7.272 -1.3767 -1.5820 -1.0526
 4714TIP3   OH235700   4.776   3.963   8.533 -0.2946 -0.0104  0.1555
 4714TIP3    H135701   4.804   3.873   8.547 -0.6591 -0.0920  0.3804
 4714TIP3    H235702   4.681   3.961   8.546 -0.0733  0.8113  2.4153
 4715TIP3   OH235703   4.592   5.011   1.606  0.0184 -0.9293 -0.2411
 4715TIP3    H135704   4.583   4.971   1.693 -1.3226  1.6623  0.9074
 4715TIP3    H235705   4.674   5.059   1.610  0.0069 -0.8902 -0.4696
 4716TIP3   OH235706   4.648   4.026   0.746 -0.3556 -0.4946 -0.6383
 4716TIP3    H135707   4.581   3.998   0.684  1.6454 -1.5783 -2.4663
 4716TIP3    H235708   4.711   3.954   0.747  1.8686  1.3487 -0.6761
 4717TIP3   OH235709   6.120   1.103   0.163  0.0559 -0.0215  0.0328
 4717TIP3    H135710   6.072   1.033   0.207  1.0209 -0.4738  0.3845
 4717TIP3    H235711   6.052   1.153   0.117 -1.1950  1.2686  3.0257
 4718TIP3   OH235712   4.603   4.188   7.235  0.3714 -0.1920 -0.3173
 4718TIP3    H135713   4.566   4.100   7.223  0.7230 -0.8301  2.6673
 4718TIP3    H235714   4.662   4.179   7.309  1.1201  2.3989 -0.5282
 4719TIP3   OH235715   0.270   2.566   7.863  0.1802 -0.6682 -0.0422
 4719TIP3    H135716   0.277   2.530   7.775  0.2366  0.1154 -0.3651
 4719TIP3    H235717   0.244   2.491   7.917  0.7162 -1.2843 -0.6157
 4720TIP3   OH235718   0.945   2.880   7.734 -0.0638  0.2666 -0.6051
 4720TIP3    H135719   0.871   2.854   7.788  1.7663  1.6279  2.8808
 4720TIP3    H235720   0.986   2.797   7.708 -1.0765 -0.4502  0.0201
 4721TIP3   OH235721   6.283   5.290   7.250 -0.3049 -0.1546  0.4676
 4721TIP3    H135722   6.192   5.294   7.281 -0.6270  0.4388 -0.5085
 4721TIP3    H235723   6.276   5.259   7.160  0.3850  0.8176  0.0646
 4722TIP3   OH235724   5.626   4.521   6.828  0.2747 -0.4652  0.0484
 4722TIP3    H135725   5.595   4.441   6.786 -2.3022  0.1858  0.5401
 4722TIP3    H235726   5.552   4.582   6.822  1.4743  1.2275  1.3903
 4723TIP3   OH235727   5.980   5.299   0.719 -1.1563 -0.2377 -0.1656
 4723TIP3    H135728   6.074   5.304   0.702 -1.1883 -1.5845 -0.8955
 4723TIP3    H235729   5.952   5.390   0.727  0.2400  0.1856  0.3223
 4724TIP3   OH235730   2.087   0.279   7.531  0.6586  0.6510 -0.3145
 4724TIP3    H135731   2.120   0.358   7.574  0.1664 -0.1371  1.6499
 4724TIP3    H235732   2.153   0.256   7.466  1.7947  1.5597  0.4882
 4725TIP3   OH235733   6.721   4.969   0.275 -0.0182  0.2201  0.0328
 4725TIP3    H135734   6.694   4.934   0.190 -0.8595  1.1235 -0.0938
 4725TIP3    H235735   6.664   5.044   0.289  0.4241  0.3632  1.1919
 4726TIP3   OH235736   2.241   0.538   7.270  0.2567 -0.2465 -0.2297
 4726TIP3    H135737   2.229   0.578   7.356  0.6637 -0.4389 -0.0783
 4726TIP3    H235738   2.277   0.451   7.290 -3.2624 -1.9192 -0.3541
 4727TIP3   OH235739   3.477   0.583   7.020  0.0556 -0.1329  0.2470
 4727TIP3    H135740   3.430   0.600   7.102  0.0897 -0.4702  0.3368
 4727TIP3    H235741   3.427   0.631   6.954 -0.8963 -1.1417  0.2108
 4728TIP3   OH235742   2.308   5.095   6.460  0.0937  0.2752 -0.2138
 4728TIP3    H135743   2.391   5.107   6.413 -0.9925 -1.7599 -2.9831
 4728TIP3    H235744   2.328   5.028   6.525  0.5730 -0.5870 -1.2076
 4729TIP3   OH235745   2.927   5.433   0.167  0.3928 -0.2197  0.1760
 4729TIP3    H135746   2.839   5.468   0.180  1.2528  1.3284  2.6020
 4729TIP3    H235747   2.974   5.502   0.120  0.3639 -1.0111 -1.0500
 4730TIP3   OH235748   5.198   0.305   0.511  0.5123  0.1301  0.6713
 4730TIP3    H135749   5.262   0.349   0.568  0.1837  1.3349  0.1428
 4730TIP3    H235750   5.178   0.370   0.444 -2.2956  0.3235  1.5907
 4731TIP3   OH235751   5.575   1.318   8.534 -0.6097  0.1316 -0.3891
 4731TIP3    H135752   5.625   1.370   8.597 -0.4070  0.4330 -0.8001
 4731TIP3    H235753   5.525   1.382   8.484 -1.2880 -0.1568 -0.0949
 4732TIP3   OH235754   2.440   2.770   0.283  0.3968  0.1040  0.2060
 4732TIP3    H135755   2.444   2.731   0.370  2.5916 -0.1616  0.0516
 4732TIP3    H235756   2.411   2.699   0.225 -2.6087  0.6770  0.8405
 4733TIP3   OH235757   5.047   5.303   0.347  0.5666 -0.0843  0.2818
 4733TIP3    H135758   5.083   5.260   0.269  1.6005  0.0422  0.6677
 4733TIP3    H235759   4.952   5.297   0.336  0.6907 -0.2251 -0.8979
 4734TIP3   OH235760   3.446   6.153   1.454  0.2669  0.8555 -0.0042
 4734TIP3    H135761   3.475   6.079   1.506  0.0901  0.2593 -0.7489
 4734TIP3    H235762   3.474   6.230   1.504  1.6943  0.3004  0.0800
 4735TIP3   OH235763   4.656   0.920   6.485  0.1561  0.5462  0.3610
 4735TIP3    H135764   4.727   0.861   6.459 -0.8767 -0.1824 -0.9787
 4735TIP3    H235765   4.582   0.862   6.501 -0.6611  1.4083 -0.1866
 4736TIP3   OH235766   3.135   2.098   1.315  0.5622  0.1401  0.0871
 4736TIP3    H135767   3.123   2.003   1.317  0.0691  0.1002 -1.9961
 4736TIP3    H235768   3.205   2.112   1.251 -0.7272  1.2270 -1.1553
 4737TIP3   OH235769   6.411   0.605   1.548 -0.4994  0.0437  0.3502
 4737TIP3    H135770   6.419   0.673   1.482  1.8714  1.5949  2.0578
 4737TIP3    H235771   6.343   0.636   1.608 -1.3251 -0.4583 -0.3030
 4738TIP3   OH235772   1.669   5.188   1.321 -0.3788 -0.4006 -0.1225
 4738TIP3    H135773   1.607   5.114   1.323 -0.1414 -0.5826  1.1112
 4738TIP3    H235774   1.615   5.265   1.341 -0.3359 -0.4650  0.2458
 4739TIP3   OH235775   3.149   0.305   7.505  0.0913  0.1038  0.1160
 4739TIP3    H135776   3.056   0.321   7.520  0.1721 -1.0075  2.1613
 4739TIP3    H235777   3.163   0.215   7.535  2.1791  0.9057  1.8478
 4740TIP3   OH235778   3.163   0.768   0.652  0.2036  0.4489 -1.1731
 4740TIP3    H135779   3.077   0.803   0.627  0.1548  0.5157 -0.9157
 4740TIP3    H235780   3.175   0.797   0.743 -0.7773 -1.9550 -0.1973
 4741TIP3   OH235781   6.258   4.907   7.431  0.4500 -0.4584 -0.0250
 4741TIP3    H135782   6.251   4.915   7.336  2.6651 -0.0784 -0.2184
 4741TIP3    H235783   6.172   4.933   7.465  0.3081  1.6267 -1.8049
 4742TIP3   OH235784   4.301   1.294   6.788  0.0731  0.3698 -0.6083
 4742TIP3    H135785   4.219   1.317   6.833  0.6811 -0.7266  1.1570
 4742TIP3    H235786   4.274   1.229   6.723 -0.8487  2.1217 -2.0693
 4743TIP3   OH235787   0.582   1.555   1.015  0.3548 -0.1098 -0.6094
 4743TIP3    H135788   0.564   1.505   0.936 -1.9134 -0.6775  0.1889
 4743TIP3    H235789   0.531   1.636   1.004  2.0561  0.9916 -0.8073
 4744TIP3   OH235790   5.953   6.541   7.968 -0.0293  0.3487  0.1835
 4744TIP3    H135791   5.996   6.614   8.012  1.1746 -0.5763  0.6114
 4744TIP3    H235792   5.926   6.576   7.883  1.3804  1.0580 -0.0080
 4745TIP3   OH235793   1.139   5.368   7.497  0.1462 -0.9902 -0.6391
 4745TIP3    H135794   1.186   5.367   7.413  0.2236 -1.6646 -0.5907
 4745TIP3    H235795   1.057   5.412   7.478  1.3099  1.4445 -0.4433
 4746TIP3   OH235796   6.468   0.702   1.992  0.4890 -0.3133 -0.0694
 4746TIP3    H135797   6.491   0.738   2.077 -3.6890 -1.6080  1.8527
 4746TIP3    H235798   6.501   0.613   1.993  0.0499 -0.4722  0.4024
 4747TIP3   OH235799   2.454   0.545   8.221 -0.4666  0.0881 -0.0583
 4747TIP3    H135800   2.397   0.541   8.298 -0.5520  0.1301 -0.1195
 4747TIP3    H235801   2.492   0.633   8.225 -0.6763  0.1851 -0.2109
 4748TIP3   OH235802   1.407   3.753   1.200 -0.0938  0.2950  0.1016
 4748TIP3    H135803   1.359   3.789   1.274  0.5283  2.8563 -0.6552
 4748TIP3    H235804   1.341   3.742   1.131 -0.6774 -2.1135  0.9333
 4749TIP3   OH235805   4.469   5.135   1.050  0.0135 -0.1510  0.7129
 4749TIP3    H135806   4.379   5.164   1.067 -0.1347 -0.0688 -0.1823
 4749TIP3    H235807   4.518   5.162   1.129 -0.4055  1.3151  0.4984
 4750TIP3   OH235808   1.037   2.464   0.900 -0.0605  0.0937  0.2729
 4750TIP3    H135809   1.033   2.477   0.806  1.8414 -0.0015  0.1420
 4750TIP3    H235810   0.974   2.394   0.917  1.9023 -2.2966 -1.4687
 4751TIP3   OH235811   6.597   1.820   2.483  0.4669  0.1019 -0.2383
 4751TIP3    H135812   6.666   1.849   2.423 -1.0467 -0.6180 -2.4605
 4751TIP3    H235813   6.554   1.900   2.511  1.0915  0.4404 -0.2217
 4752TIP3   OH235814   2.513   6.690   8.400 -0.3193  0.5298  0.3907
 4752TIP3    H135815   2.585   6.690   8.462 -1.3500  0.9225  1.6289
 4752TIP3    H235816   2.443   6.642   8.444 -0.3484 -1.2348 -1.4033
 4753TIP3   OH235817   6.349   2.455   0.154  0.3703  0.0500 -0.1528
 4753TIP3    H135818   6.298   2.516   0.101  2.4559  1.9211 -0.1596
 4753TIP3    H235819   6.292   2.379   0.165 -1.1919  0.7200 -2.7202
 4754TIP3   OH235820   2.657   5.553   0.226  0.0050 -0.1996 -0.2936
 4754TIP3    H135821   2.586   5.534   0.166 -0.4358  1.2675 -0.2813
 4754TIP3    H235822   2.639   5.642   0.258  0.5048 -0.7207  1.5971
 4755TIP3   OH235823   3.541   2.129   6.908 -0.3388 -0.6841  0.0298
 4755TIP3    H135824   3.452   2.093   6.911  0.1221 -1.8822 -0.2503
 4755TIP3    H235825   3.539   2.202   6.970 -1.1599 -1.5108  1.0049
 4756TIP3   OH235826   5.799   2.409   7.710 -0.2934 -0.1552  0.4267
 4756TIP3    H135827   5.785   2.477   7.645  0.1331 -0.5867 -0.1258
 4756TIP3    H235828   5.854   2.451   7.777 -0.8339  0.3230  0.5720
 4757TIP3   OH235829   5.059   0.845   1.389  0.0214 -0.2038  0.0437
 4757TIP3    H135830   5.131   0.874   1.334 -1.2521  0.9004 -1.1057
 4757TIP3    H235831   5.038   0.757   1.357  0.3333 -0.2065 -0.1527
 4758TIP3   OH235832   4.008   6.584   7.541  0.8224 -0.1239  0.1156
 4758TIP3    H135833   3.949   6.524   7.586  2.0281 -0.6390  1.0462
 4758TIP3    H235834   3.954   6.662   7.525 -0.3463 -0.8882  0.1795
 4759TIP3   OH235835   4.198   0.041   6.978 -0.0556 -0.1284 -0.5846
 4759TIP3    H135836   4.246  -0.041   6.969  1.6306  0.4590  1.9366
 4759TIP3    H235837   4.121   0.019   7.030 -0.3573 -0.3425 -1.1168
 4760TIP3   OH235838   5.208   1.367   7.491  0.4781 -0.4388 -0.8562
 4760TIP3    H135839   5.191   1.282   7.530  1.8696  0.2108  1.3216
 4760TIP3    H235840   5.121   1.404   7.474 -0.1695 -1.1952  0.6935
 4761TIP3   OH235841   3.404   3.740   7.889  0.2587  0.2328  0.4166
 4761TIP3    H135842   3.496   3.731   7.867 -0.1214 -0.8916 -0.8924
 4761TIP3    H235843   3.362   3.763   7.806 -0.5862  1.2291  1.0899
 4762TIP3   OH235844   3.137   5.946   7.334  0.2438  0.1338 -0.0623
 4762TIP3    H135845   3.193   6.021   7.320 -0.6400  0.7228 -0.5679
 4762TIP3    H235846   3.196   5.871   7.333  1.4350  0.9296  2.5281
 4763TIP3   OH235847   2.238   1.700   1.813  0.5687 -0.2252  0.0892
 4763TIP3    H135848   2.219   1.633   1.878  1.8087  1.4624  2.3423
 4763TIP3    H235849   2.171   1.767   1.829  0.9704  0.2685 -0.2719
 4764TIP3   OH235850   1.083   5.555   7.703  0.1467 -0.0971  0.3352
 4764TIP3    H135851   0.995   5.520   7.694  0.9409 -2.1036 -0.1655
 4764TIP3    H235852   1.139   5.492   7.657  1.9400  0.6822  1.3479
 4765TIP3   OH235853   2.327   5.754   1.661  0.5854  0.4553  0.0631
 4765TIP3    H135854   2.335   5.849   1.673  0.2608  0.6511 -1.1745
 4765TIP3    H235855   2.417   5.723   1.651  0.5870  1.1472 -2.9625
 4766TIP3   OH235856   1.733   5.557   6.791  0.0376  0.7934 -0.1132
 4766TIP3    H135857   1.744   5.465   6.814 -2.7740  0.2019 -0.6828
 4766TIP3    H235858   1.733   5.558   6.695 -0.6724  1.2375 -0.1218
 4767TIP3   OH235859   1.055   5.220   8.363 -0.0946  0.4099  0.3639
 4767TIP3    H135860   1.146   5.234   8.339  0.9044  0.4498  3.5896
 4767TIP3    H235861   1.015   5.306   8.359 -0.3699  0.2355 -2.0982
 4768TIP3   OH235862   5.027   2.282   7.869  0.1650 -0.1417  0.1954
 4768TIP3    H135863   4.975   2.357   7.896  1.8716  0.5598  1.7701
 4768TIP3    H235864   5.111   2.319   7.843  0.6155 -1.4137 -0.2508
 4769TIP3   OH235865   6.658   4.656   0.650  0.1122 -0.8263 -0.1833
 4769TIP3    H135866   6.579   4.710   0.662  0.5739 -0.3374  0.7890
 4769TIP3    H235867   6.691   4.643   0.739  1.6012 -0.3146 -0.6323
 4770TIP3   OH235868   6.240   2.834   7.341 -0.0789  0.2935 -0.4516
 4770TIP3    H135869   6.194   2.909   7.303  1.5132  1.2407 -0.6235
 4770TIP3    H235870   6.171   2.772   7.364 -1.3593  1.3266 -1.3615
 4771TIP3   OH235871   6.217   4.560   8.153  0.2417 -0.5989  0.0567
 4771TIP3    H135872   6.180   4.478   8.124 -0.4531 -0.2410 -0.0776
 4771TIP3    H235873   6.143   4.610   8.186  0.8649 -0.6428  1.6277
 4772TIP3   OH235874   6.136   2.070   7.553  0.5515  1.1772 -0.3589
 4772TIP3    H135875   6.197   2.135   7.587  0.7443  1.3728 -1.0620
 4772TIP3    H235876   6.055   2.086   7.600  0.4418  2.2812 -0.9032
 4773TIP3   OH235877   3.078   3.205   6.360 -0.3562 -0.5376  0.1873
 4773TIP3    H135878   2.989   3.170   6.366 -1.2696  1.4787 -0.7560
 4773TIP3    H235879   3.076   3.286   6.411  1.1528 -0.8295  0.7519
 4774TIP3   OH235880   3.142   2.789   1.361  0.1114 -0.9173  1.0651
 4774TIP3    H135881   3.214   2.757   1.306 -1.0474 -1.3194 -0.2689
 4774TIP3    H235882   3.134   2.724   1.430 -0.0315 -1.7482  0.2859
 4775TIP3   OH235883   2.042   5.045   7.562 -0.7651  0.1853  0.2040
 4775TIP3    H135884   2.103   5.023   7.632  1.7568  0.0816 -1.8811
 4775TIP3    H235885   2.032   5.140   7.567  0.2756  0.3113  0.0695
 4776TIP3   OH235886   3.693   2.677   0.063 -0.4487 -0.6205  0.0219
 4776TIP3    H135887   3.737   2.638  -0.013  0.9101  0.2357  0.3326
 4776TIP3    H235888   3.603   2.646   0.057 -0.5969  0.1055 -2.4131
 4777TIP3   OH235889   1.723   0.262   8.537  0.6513 -0.4987  0.1716
 4777TIP3    H135890   1.750   0.349   8.509 -1.4846  0.8340  1.8965
 4777TIP3    H235891   1.727   0.209   8.457  0.5459  1.5542 -1.2863
 4778TIP3   OH235892   4.570   1.333   6.036  0.2460 -0.1425 -0.1810
 4778TIP3    H135893   4.537   1.419   6.060  2.2182  0.7951 -0.5781
 4778TIP3    H235894   4.636   1.313   6.103 -0.7287 -1.7220  0.3525
 4779TIP3   OH235895   4.046   5.736   1.919  0.5822 -0.7040  0.2196
 4779TIP3    H135896   4.018   5.690   1.999 -1.2885  0.1749  0.1372
 4779TIP3    H235897   4.130   5.776   1.942  0.5237 -1.2341  1.4355
 4780TIP3   OH235898   2.842   0.388   0.810 -0.7653 -0.2632  0.6965
 4780TIP3    H135899   2.844   0.334   0.730 -0.4130  0.0757  0.4744
 4780TIP3    H235900   2.757   0.432   0.807 -0.6252 -0.0086  0.3414
 4781TIP3   OH235901   4.010   5.841   1.293  0.0262 -0.3207  0.1923
 4781TIP3    H135902   4.049   5.852   1.379  1.4756 -1.3695 -0.2808
 4781TIP3    H235903   3.924   5.881   1.300  0.6865  0.9464  1.6793
 4782TIP3   OH235904   5.185   5.468   6.958 -0.3337 -0.1544  0.5193
 4782TIP3    H135905   5.168   5.524   6.882  0.9918 -3.1382 -2.1978
 4782TIP3    H235906   5.109   5.410   6.963 -0.6144  0.2783  1.8385
 4783TIP3   OH235907   6.476   6.574   7.774  0.3936  0.2269  0.1736
 4783TIP3    H135908   6.390   6.586   7.813  0.2006 -0.2379 -0.1085
 4783TIP3    H235909   6.464   6.506   7.709  0.7637  0.8296 -0.5462
 4784TIP3   OH235910   0.365   4.720   6.348  0.4633  0.4198 -0.5219
 4784TIP3    H135911   0.362   4.765   6.433 -0.6842  0.8133 -0.7563
 4784TIP3    H235912   0.279   4.680   6.339  1.0525 -0.8110 -0.8848
 4785TIP3   OH235913   5.956   2.167   7.730 -0.0969 -0.2206 -0.1599
 4785TIP3    H135914   5.918   2.119   7.804 -0.2690  2.9357  1.9588
 4785TIP3    H235915   5.897   2.241   7.717  2.2961  1.7430 -0.4929
 4786TIP3   OH235916   3.048   5.097   0.556  0.0513 -0.3559  0.1673
 4786TIP3    H135917   2.994   5.134   0.626 -0.9301 -0.2826 -0.6099
 4786TIP3    H235918   3.057   5.168   0.492  1.0385 -0.3841  0.2640
 4787TIP3   OH235919   5.826   2.661   0.594  1.0988 -0.9093  1.0146
 4787TIP3    H135920   5.880   2.587   0.620  0.9122 -2.1006 -1.6284
 4787TIP3    H235921   5.743   2.647   0.638  1.6551 -1.2593  1.9698
 4788TIP3   OH235922   1.953   6.463   1.375  0.7767 -0.0254 -0.0776
 4788TIP3    H135923   2.015   6.515   1.426  0.4983  1.9254 -1.6102
 4788TIP3    H235924   1.957   6.500   1.287 -2.5421  0.2176 -0.2589
 4789TIP3   OH235925   6.262   1.879   0.025  0.4370  0.1104  0.5195
 4789TIP3    H135926   6.234   1.954  -0.028 -2.7672 -1.0088  0.3755
 4789TIP3    H235927   6.297   1.816  -0.039 -0.0781  0.1638  0.1765
 4790TIP3   OH235928   1.353   4.362   7.210 -0.3818  0.8058 -0.3298
 4790TIP3    H135929   1.415   4.330   7.146  0.6171  0.3863  0.8141
 4790TIP3    H235930   1.393   4.442   7.244 -0.0919  0.1566  0.9212
 4791TIP3   OH235931   3.813   1.406   2.422  0.3442 -0.0067  1.0834
 4791TIP3    H135932   3.906   1.420   2.410  0.2280  0.2917  0.4822
 4791TIP3    H235933   3.793   1.446   2.506  0.6789  0.3079  1.0164
 4792TIP3   OH235934   3.957   3.802   1.001  0.1352  0.7657  0.3220
 4792TIP3    H135935   3.881   3.783   0.947 -0.7919  0.8018  1.5721
 4792TIP3    H235936   3.943   3.751   1.081  1.2141  1.1012  0.7478
 4793TIP3   OH235937   6.684   6.324   1.229  0.1334 -0.5185 -0.2923
 4793TIP3    H135938   6.641   6.409   1.226 -0.4247 -0.8143 -0.9693
 4793TIP3    H235939   6.618   6.265   1.266  0.1107 -0.8805 -0.8931
 4794TIP3   OH235940   1.999   1.463   8.597  0.0460 -0.3164  0.2092
 4794TIP3    H135941   2.083   1.436   8.634 -0.0021  0.2756  0.7587
 4794TIP3    H235942   1.961   1.521   8.662 -0.5273 -0.1071 -0.3005
 4795TIP3   OH235943   3.228   5.062   1.919 -0.5792  0.8101  0.2144
 4795TIP3    H135944   3.274   5.085   1.999  1.7160  0.5500 -0.9531
 4795TIP3    H235945   3.135   5.075   1.940  0.0744  3.1586  2.1052
 4796TIP3   OH235946   0.940   2.465   2.158  0.6619 -0.0220 -0.0336
 4796TIP3    H135947   0.847   2.473   2.181  0.7924 -0.4123  0.6664
 4796TIP3    H235948   0.943   2.390   2.098  0.5380 -0.0980  0.0529
 4797TIP3   OH235949   5.806   4.294   7.137 -0.2657 -0.4719 -0.1941
 4797TIP3    H135950   5.805   4.390   7.131  0.6620 -0.4608 -0.3337
 4797TIP3    H235951   5.757   4.265   7.061  1.1392 -0.1291 -1.2747
 4798TIP3   OH235952   1.160   1.046   8.078  0.3570 -0.1785 -0.0898
 4798TIP3    H135953   1.242   1.047   8.030  0.1916  3.1153 -0.5379
 4798TIP3    H235954   1.105   0.982   8.032  1.5642 -0.0439 -1.7600
 4799TIP3   OH235955   4.779   1.314   7.716  0.1543  0.0469 -0.3270
 4799TIP3    H135956   4.731   1.360   7.648  0.1672 -0.7695 -0.9093
 4799TIP3    H235957   4.746   1.224   7.711  1.3296 -0.3932 -0.3552
 4800TIP3   OH235958   4.326   1.015   7.061 -0.6813  0.6685 -0.0371
 4800TIP3    H135959   4.305   0.924   7.079 -0.6408  0.0061 -2.8873
 4800TIP3    H235960   4.241   1.058   7.052 -0.7916  0.2125 -1.5397
 4801TIP3   OH235961   2.152   1.303   2.120  0.1539 -0.4308 -0.6528
 4801TIP3    H135962   2.138   1.387   2.077  0.4419 -0.0455 -0.0175
 4801TIP3    H235963   2.160   1.325   2.213 -1.1585 -1.3075 -0.3029
 4802TIP3   OH235964   3.728   6.028   7.404  0.4698  0.5015  0.2306
 4802TIP3    H135965   3.700   6.009   7.493  2.3754  2.0808  1.2510
 4802TIP3    H235966   3.762   5.945   7.370 -0.8827 -0.2693  0.6859
 4803TIP3   OH235967   2.035   5.786   1.570  0.3547 -0.0846 -0.1536
 4803TIP3    H135968   2.119   5.763   1.609  1.5802  2.7043 -0.8744
 4803TIP3    H235969   2.012   5.869   1.612 -0.7014  0.5373 -1.8675
 4804TIP3   OH235970   1.087   0.017   7.033  0.0651  0.4373 -0.3092
 4804TIP3    H135971   1.039  -0.066   7.035  3.0455 -1.4233  0.8011
 4804TIP3    H235972   1.061   0.057   6.950 -2.5234 -0.8683 -0.2573
 4805TIP3   OH235973   6.009   5.570   0.615 -0.2715  0.7217 -0.3503
 4805TIP3    H135974   6.044   5.573   0.526  1.4306 -1.9999  0.0835
 4805TIP3    H235975   6.068   5.625   0.666 -0.3368  1.0704 -0.6483
 4806TIP3   OH235976   5.882   0.604   7.198 -0.3789  0.2861 -0.1617
 4806TIP3    H135977   5.816   0.590   7.130 -0.9735  1.5713  0.1266
 4806TIP3    H235978   5.965   0.581   7.156 -0.9229 -0.6681 -0.7468
 4807TIP3   OH235979   6.174   2.686   7.045  0.3579  0.2817  0.9488
 4807TIP3    H135980   6.164   2.750   7.116 -0.7130  2.1425 -0.7509
 4807TIP3    H235981   6.249   2.718   6.995 -1.9744  2.1486 -1.6564
 4808TIP3   OH235982   0.407   6.256   0.609  0.1834 -0.1923 -0.2345
 4808TIP3    H135983   0.370   6.175   0.643 -1.6960  0.9214  0.5645
 4808TIP3    H235984   0.362   6.269   0.525  0.6290 -0.0737 -0.4588
 4809TIP3   OH235985   0.431   1.299   1.878  0.7466  0.4855 -0.5838
 4809TIP3    H135986   0.377   1.376   1.861  0.9995  0.3971 -1.9610
 4809TIP3    H235987   0.488   1.325   1.951 -1.6290  0.3004  1.4428
 4810TIP3   OH235988   3.378   3.074   8.225  0.2239  0.4486  0.2444
 4810TIP3    H135989   3.350   3.000   8.279  2.8580  0.0652  1.1970
 4810TIP3    H235990   3.307   3.086   8.162 -2.0084 -0.4281  2.4402
 4811TIP3   OH235991   2.639   2.982   7.615 -0.0119 -0.1819 -0.5731
 4811TIP3    H135992   2.718   2.943   7.577  0.1591  0.7341 -1.1937
 4811TIP3    H235993   2.615   3.051   7.554 -1.4909 -0.6576 -0.5569
 4812TIP3   OH235994   0.297   0.287   7.313  0.3532 -0.1941 -0.2482
 4812TIP3    H135995   0.385   0.253   7.329  0.3442  0.2061  0.7106
 4812TIP3    H235996   0.311   0.375   7.279  0.3319  0.2514  0.8372
 4813TIP3   OH235997   1.498   5.451   1.299 -0.2526  0.0477 -0.4381
 4813TIP3    H135998   1.409   5.424   1.323  0.0082  0.3291  0.9382
 4813TIP3    H235999   1.486   5.512   1.226 -1.1906  0.0544 -0.2927
 4814TIP3   OH236000   3.042   1.070   0.550 -0.3186 -0.0891 -0.0258
 4814TIP3    H136001   3.101   1.085   0.476 -1.0408 -0.4118 -0.6785
 4814TIP3    H236002   3.100   1.056   0.624  0.4171  0.6701 -0.4392
 4815TIP3   OH236003   0.360   3.327   7.394  0.5219 -0.3548  0.0885
 4815TIP3    H136004   0.351   3.417   7.363 -0.2637 -0.5595 -0.3188
 4815TIP3    H236005   0.270   3.301   7.416  0.9371 -0.5002  1.7610
 4816TIP3   OH236006   3.429   0.063   8.268 -0.0036 -0.2480  0.3545
 4816TIP3    H136007   3.418  -0.029   8.243 -0.7144 -0.1494  0.2791
 4816TIP3    H236008   3.353   0.082   8.323  1.8012 -0.6400  3.2225
 4817TIP3   OH236009   3.625   3.431   1.353  0.4149  0.1288 -0.0128
 4817TIP3    H136010   3.680   3.353   1.345  0.0828 -0.2905  1.5065
 4817TIP3    H236011   3.669   3.497   1.299  1.2155 -0.8259 -0.5533
 4818TIP3   OH236012   1.480   2.254   7.641 -0.2065  0.3256 -0.5997
 4818TIP3    H136013   1.534   2.252   7.562  0.0177 -0.7485 -0.4324
 4818TIP3    H236014   1.419   2.327   7.626  0.8254  1.1068 -1.0895
 4819TIP3   OH236015   1.095   3.127   0.334  0.5156  0.5728 -0.7210
 4819TIP3    H136016   1.102   3.193   0.403 -1.1544 -1.5561  1.7169
 4819TIP3    H236017   1.163   3.063   0.355  0.3432  0.1652 -1.3697
 4820TIP3   OH236018   5.350   3.802   6.835 -0.1142 -0.1222 -0.3954
 4820TIP3    H136019   5.436   3.844   6.830 -0.1316 -0.1765 -1.1926
 4820TIP3    H236020   5.369   3.712   6.861  0.0937 -0.2257 -0.9077
 4821TIP3   OH236021   2.777   2.351   1.980  0.4694  0.9403 -0.2109
 4821TIP3    H136022   2.793   2.296   2.056 -2.2141 -0.1040 -0.3154
 4821TIP3    H236023   2.844   2.419   1.985  1.1224  0.2001  2.3647
 4822TIP3   OH236024   2.887   0.470   0.427  0.2097 -0.7501  0.1975
 4822TIP3    H136025   2.845   0.533   0.485 -0.4608 -1.1369  0.1368
 4822TIP3    H236026   2.960   0.435   0.479 -0.3553 -1.0591  0.7951
 4823TIP3   OH236027   4.162   6.049   7.829 -0.1214  0.4820  0.3821
 4823TIP3    H136028   4.081   6.001   7.844 -0.4598  1.0619  0.4616
 4823TIP3    H236029   4.134   6.131   7.788  0.5101  0.2709 -0.5096
 4824TIP3   OH236030   5.095   2.546   8.345 -0.0258  0.1564 -0.1669
 4824TIP3    H136031   5.069   2.465   8.387  0.2341  0.3599  0.3867
 4824TIP3    H236032   5.029   2.609   8.371  0.3734  0.3896  0.3042
 4825TIP3   OH236033   6.200   6.400   6.626 -0.7812  0.5086  0.4725
 4825TIP3    H136034   6.124   6.420   6.571 -0.5208  0.0967 -0.0572
 4825TIP3    H236035   6.184   6.310   6.657 -0.5896  0.4792  0.4875
 4826TIP3   OH236036   5.052   0.514   0.273  0.2142  0.1081 -0.3628
 4826TIP3    H136037   5.099   0.584   0.318  0.2229  0.2874 -0.6559
 4826TIP3    H236038   4.961   0.524   0.303  0.1895  0.3289 -0.5144
 4827TIP3   OH236039   3.250   5.462   2.202 -0.7077  0.3896 -0.2868
 4827TIP3    H136040   3.230   5.467   2.109 -0.0238  0.6711 -0.4223
 4827TIP3    H236041   3.322   5.525   2.215  0.7464 -1.2673  0.0058
 4828TIP3   OH236042   3.741   4.558   6.847  0.0183 -0.4421 -0.2541
 4828TIP3    H136043   3.702   4.478   6.882  1.3121 -1.3788 -0.8373
 4828TIP3    H236044   3.826   4.529   6.811  0.3427  1.1215 -0.8274
 4829TIP3   OH236045   5.558   4.405   8.000  0.1274  0.2865 -0.0774
 4829TIP3    H136046   5.483   4.374   8.051  0.5278  3.4237  2.7442
 4829TIP3    H236047   5.520   4.463   7.934 -0.1259 -0.6939 -0.8029
 4830TIP3   OH236048   0.053   1.995   1.985 -0.6348  0.2476 -0.0349
 4830TIP3    H136049  -0.010   2.033   2.047  0.4306  0.8661  0.6971
 4830TIP3    H236050   0.128   1.972   2.039  0.6739  1.5754 -1.2039
 4831TIP3   OH236051   1.548   6.518   7.778  0.3629 -0.4061 -0.1790
 4831TIP3    H136052   1.621   6.496   7.719  0.6910 -0.8528  0.3777
 4831TIP3    H236053   1.470   6.497   7.728  0.5300  1.9231 -1.5299
 4832TIP3   OH236054   1.278   2.434   1.625 -0.0724 -0.3198 -0.7153
 4832TIP3    H136055   1.232   2.482   1.556  1.5598 -1.6475 -2.8372
 4832TIP3    H236056   1.335   2.499   1.666 -0.5168  0.3277 -1.1055
 4833TIP3   OH236057   0.351   6.595   0.401 -0.2579 -0.1895  0.1053
 4833TIP3    H136058   0.298   6.637   0.468  0.0758 -0.4154  0.5118
 4833TIP3    H236059   0.336   6.501   0.413 -0.2997 -0.2267 -0.2210
 4834TIP3   OH236060   5.980   4.157   8.587  0.0153 -0.2490  0.5834
 4834TIP3    H136061   5.908   4.113   8.542  0.5882 -0.1396 -0.4580
 4834TIP3    H236062   5.989   4.109   8.669 -1.4692 -0.0419  0.8966
 4835TIP3   OH236063   0.548   0.318   7.798 -0.3961 -0.2042 -0.6582
 4835TIP3    H136064   0.501   0.399   7.776  0.2682  0.7912  1.3485
 4835TIP3    H236065   0.483   0.249   7.785 -1.4503  0.8034 -0.9627
 4836TIP3   OH236066   0.391   1.572   8.446  0.4200 -0.0076 -0.4052
 4836TIP3    H136067   0.308   1.577   8.494  0.0100  0.9963 -1.1986
 4836TIP3    H236068   0.456   1.601   8.510  0.0243  0.2287 -0.0977
 4837TIP3   OH236069   4.608   4.930   1.861 -0.3568  0.2678 -0.5258
 4837TIP3    H136070   4.525   4.897   1.896 -0.3773  0.8614  0.0118
 4837TIP3    H236071   4.651   4.971   1.937  0.0713  0.6580 -0.9739
 4838TIP3   OH236072   2.666   1.594   1.662 -0.0124  0.2921  0.0441
 4838TIP3    H136073   2.654   1.508   1.702  0.3938  0.7719  1.2126
 4838TIP3    H236074   2.579   1.616   1.627  0.3476 -1.5303 -2.2864
 4839TIP3   OH236075   5.458   6.643   1.116 -0.5229 -0.0918  0.3775
 4839TIP3    H136076   5.455   6.598   1.201 -1.9225 -0.4780  0.1457
 4839TIP3    H236077   5.423   6.579   1.054  1.6009 -0.2594 -0.7394
 4840TIP3   OH236078   4.984   1.546   6.754  0.3687  0.6169  0.1666
 4840TIP3    H136079   4.988   1.553   6.658  1.0100  1.2434  0.2283
 4840TIP3    H236080   4.973   1.453   6.771  0.9695  0.4122 -0.5049
 4841TIP3   OH236081   2.583   3.765   2.328 -0.2519 -0.5774 -0.7052
 4841TIP3    H136082   2.668   3.806   2.343 -0.0761 -0.4237 -1.9581
 4841TIP3    H236083   2.537   3.826   2.270 -1.5821 -0.2303  0.6605
 4842TIP3   OH236084   0.895   4.149   7.303 -0.1808  0.6397 -0.0855
 4842TIP3    H136085   0.958   4.213   7.268  2.3527 -0.6425  1.7872
 4842TIP3    H236086   0.866   4.099   7.227  0.2198  1.9517 -1.1419
 4843TIP3   OH236087   1.836   3.274   1.579 -0.0919 -0.2518  0.4593
 4843TIP3    H136088   1.830   3.249   1.671  1.4605 -0.8652  0.4335
 4843TIP3    H236089   1.915   3.229   1.548 -0.9680 -0.6291 -1.3549
 4844TIP3   OH236090   5.697   2.681   1.539 -0.1431 -0.4086  0.2897
 4844TIP3    H136091   5.771   2.656   1.594  0.1879 -0.2248 -0.0670
 4844TIP3    H236092   5.667   2.764   1.576  0.9811  0.4582 -0.6505
 4845TIP3   OH236093   0.841   5.226   0.569 -0.7517  0.2931 -0.2896
 4845TIP3    H136094   0.753   5.238   0.606 -0.2675  1.9958  0.4024
 4845TIP3    H236095   0.837   5.269   0.483 -0.4219  1.0198  0.0461
 4846TIP3   OH236096   2.381   2.690   7.050  0.0600  0.1025 -0.1360
 4846TIP3    H136097   2.452   2.666   6.990  0.3472 -2.3284  1.0601
 4846TIP3    H236098   2.410   2.771   7.091  1.2661  0.1374 -0.9976
 4847TIP3   OH236099   6.217   0.382   6.274  0.0895 -0.0780 -0.3650
 4847TIP3    H136100   6.283   0.402   6.208 -0.6999 -0.2140 -1.2129
 4847TIP3    H236101   6.266   0.376   6.356  0.9482  1.0983 -0.7620
 4848TIP3   OH236102   4.795   2.842   2.347  0.4205 -0.3418  0.6810
 4848TIP3    H136103   4.862   2.822   2.282 -0.9760 -2.0951 -0.3369
 4848TIP3    H236104   4.760   2.756   2.372 -1.1364  0.4783  1.4802
 4849TIP3   OH236105   5.418   5.915   2.299  0.0585  0.0078 -0.0316
 4849TIP3    H136106   5.495   5.935   2.245 -0.1102 -0.0613 -0.3021
 4849TIP3    H236107   5.441   5.833   2.343 -0.2717 -0.5886 -0.9358
 4850TIP3   OH236108   2.336   6.250   7.823  0.3563 -0.3075 -1.0198
 4850TIP3    H136109   2.338   6.324   7.762  3.2949  1.0642  0.5294
 4850TIP3    H236110   2.252   6.258   7.867 -0.0495  1.1848 -1.9876
 4851TIP3   OH236111   2.523   1.745   1.166  0.0233 -0.7750 -0.3828
 4851TIP3    H136112   2.438   1.716   1.132 -0.5713  0.9897 -0.5090
 4851TIP3    H236113   2.521   1.841   1.156  1.6507 -0.6235  0.4891
 4852TIP3   OH236114   3.191   5.904   0.634  0.4812 -0.3393 -0.4704
 4852TIP3    H136115   3.139   5.928   0.711 -0.4608 -0.9812 -0.8900
 4852TIP3    H236116   3.247   5.833   0.664  0.5580 -0.1720 -0.2144
 4853TIP3   OH236117   3.880   4.206   8.626  0.0224 -0.1250 -0.2083
 4853TIP3    H136118   3.801   4.252   8.599 -0.4093  0.1819  1.4317
 4853TIP3    H236119   3.873   4.201   8.722  1.5374 -0.9138 -0.1047
 4854TIP3   OH236120   4.909   4.752   0.105 -0.0838  0.2652  0.3795
 4854TIP3    H136121   4.859   4.677   0.139  0.1851  0.4860  1.2908
 4854TIP3    H236122   4.948   4.720   0.024  1.9517 -1.3902  1.8844
 4855TIP3   OH236123   4.413   5.714   7.747 -0.3471 -0.1327 -0.4453
 4855TIP3    H136124   4.319   5.735   7.751  0.0364  1.6022  0.9697
 4855TIP3    H236125   4.445   5.764   7.672 -0.1751  1.1732  0.4657
 4856TIP3   OH236126   5.396   4.148   8.060 -0.2338 -0.0125  0.0381
 4856TIP3    H136127   5.478   4.112   8.093 -0.5942 -0.8259  0.0741
 4856TIP3    H236128   5.342   4.071   8.040  0.2590  0.3481 -3.3177
 4857TIP3   OH236129   3.378   2.710   1.250 -0.3567 -0.3045 -0.6098
 4857TIP3    H136130   3.454   2.767   1.263  0.8367 -2.0359  0.5813
 4857TIP3    H236131   3.416   2.629   1.214 -1.5038 -1.4693  0.6853
 4858TIP3   OH236132   1.207   4.668   0.366 -0.0727  0.2314  0.6770
 4858TIP3    H136133   1.121   4.683   0.328  0.2689 -2.2850 -1.3408
 4858TIP3    H236134   1.268   4.708   0.304  0.3094  0.9555  1.4917
 4859TIP3   OH236135   6.109   3.647   0.273 -0.2035  0.0489 -0.4958
 4859TIP3    H136136   6.154   3.612   0.196  0.4423 -0.2468  0.0094
 4859TIP3    H236137   6.062   3.572   0.309 -3.1578  0.8217 -2.3764
 4860TIP3   OH236138   6.638   2.946   7.136 -1.0784 -0.3874 -0.1723
 4860TIP3    H136139   6.732   2.954   7.121 -1.3762  1.2568 -1.4943
 4860TIP3    H236140   6.620   2.853   7.131  0.5898 -0.8314  1.0160
 4861TIP3   OH236141   4.412   6.686   7.391  0.0694  0.5538 -0.7258
 4861TIP3    H136142   4.432   6.777   7.416  0.0917  0.3223  0.1310
 4861TIP3    H236143   4.496   6.649   7.367 -0.0931  1.0749 -2.1720
 4862TIP3   OH236144   2.094   2.382   7.715  0.1903 -0.3395 -0.2085
 4862TIP3    H136145   2.130   2.342   7.794 -1.6523 -1.3047  0.2107
 4862TIP3    H236146   2.126   2.473   7.718  1.0472 -0.6517  1.0568
 4863TIP3   OH236147   0.000   0.118   1.593 -0.4346 -0.1957  0.6673
 4863TIP3    H136148  -0.022   0.211   1.594 -0.6360 -0.1633 -1.3699
 4863TIP3    H236149   0.096   0.116   1.586 -0.4632 -0.1037  0.1655
 4864TIP3   OH236150   4.105   0.310   0.281  0.2770 -0.2921 -0.1720
 4864TIP3    H136151   4.134   0.240   0.339  0.3758  1.1198  1.5636
 4864TIP3    H236152   4.030   0.349   0.325  0.3262  0.8141 -1.0143
 4865TIP3   OH236153   4.642   5.631   8.027 -0.0335 -0.4265 -0.4359
 4865TIP3    H136154   4.553   5.614   8.055  1.1627 -0.4304  4.2932
 4865TIP3    H236155   4.649   5.727   8.028  0.0216 -0.4276 -0.7452
 4866TIP3   OH236156   2.571   0.761   0.219 -0.3434 -0.2940 -0.6157
 4866TIP3    H136157   2.569   0.732   0.310 -1.0414 -0.2662 -0.6152
 4866TIP3    H236158   2.624   0.840   0.220  1.1936 -1.2964 -0.5404
 4867TIP3   OH236159   3.328   3.977   7.275  0.3367 -0.5095 -1.2332
 4867TIP3    H136160   3.332   4.010   7.185  1.6506  0.0624 -0.9881
 4867TIP3    H236161   3.235   3.971   7.294  0.0439  0.3999 -2.2689
 4868TIP3   OH236162   5.994   6.490   6.472  0.2144 -0.3430 -0.2546
 4868TIP3    H136163   6.021   6.529   6.389 -0.1209 -1.7262 -1.0336
 4868TIP3    H236164   5.923   6.546   6.503 -0.8968 -0.8267 -1.8185
 4869TIP3   OH236165   1.093   4.266   8.561 -0.1399 -0.0797  0.1244
 4869TIP3    H136166   1.079   4.360   8.545 -0.3385 -0.3867 -1.7193
 4869TIP3    H236167   1.130   4.233   8.480  2.4261 -1.1608  1.5980
 4870TIP3   OH236168   0.944   3.105   7.906 -0.2010 -0.5694  0.2978
 4870TIP3    H136169   1.021   3.158   7.886 -0.0391 -1.0173 -0.3382
 4870TIP3    H236170   0.932   3.051   7.827 -1.2805 -0.3657  0.3108
 4871TIP3   OH236171   6.804   5.283   1.969  0.9622 -0.2228  0.7495
 4871TIP3    H136172   6.773   5.229   2.041 -0.0452  0.8610  1.1728
 4871TIP3    H236173   6.811   5.371   2.007  0.8522  0.2785 -0.3408
 4872TIP3   OH236174   3.401   2.504   7.307 -0.5014 -0.6772  0.2359
 4872TIP3    H136175   3.489   2.537   7.287 -0.3621  0.1603  2.0088
 4872TIP3    H236176   3.350   2.582   7.328 -1.2097 -1.2800  0.8502
 4873TIP3   OH236177   2.086   2.877   7.062 -0.0468 -0.0471  0.5295
 4873TIP3    H136178   2.159   2.931   7.092 -0.4412 -0.4709  2.3218
 4873TIP3    H236179   2.009   2.914   7.105 -0.4459 -1.4684  1.0899
 4874TIP3   OH236180   2.934   0.029   2.082 -0.1493  0.3328  0.3171
 4874TIP3    H136181   2.851   0.063   2.114  0.3125  0.4642  1.4060
 4874TIP3    H236182   2.968  -0.025   2.154 -0.9330 -2.6223 -1.3801
 4875TIP3   OH236183   0.401   1.897   0.663  0.0528  0.3629 -0.2684
 4875TIP3    H136184   0.417   1.902   0.757 -1.5319 -1.0182  0.1153
 4875TIP3    H236185   0.349   1.975   0.642 -2.2906 -0.8836  0.6422
 4876TIP3   OH236186   3.878   1.214   7.690  0.2988 -0.5329 -0.1803
 4876TIP3    H136187   3.804   1.273   7.703  0.1266 -0.1836 -2.3874
 4876TIP3    H236188   3.946   1.269   7.651  0.5602 -1.4956 -1.1392
 4877TIP3   OH236189   5.861   1.469   0.824  0.3869 -0.1054 -0.1158
 4877TIP3    H136190   5.829   1.379   0.830  2.8486 -1.0395  0.1985
 4877TIP3    H236191   5.848   1.493   0.733  1.1482 -1.3885 -0.5825
 4878TIP3   OH236192   4.335   2.651   1.402 -0.8778 -0.5202 -0.1418
 4878TIP3    H136193   4.303   2.708   1.332 -0.0012 -0.3939 -0.4623
 4878TIP3    H236194   4.348   2.711   1.476 -0.5303 -0.4025 -0.2933
 4879TIP3   OH236195   5.189   1.327   1.392 -0.6618  0.1362  0.1103
 4879TIP3    H136196   5.110   1.283   1.425  0.3293 -2.5279 -0.8598
 4879TIP3    H236197   5.240   1.347   1.471 -1.4407  0.2008  0.6085
 4880TIP3   OH236198   0.204   5.194   1.114 -0.1006  0.3450 -0.2104
 4880TIP3    H136199   0.150   5.116   1.101 -0.6246 -0.0661  3.3370
 4880TIP3    H236200   0.235   5.217   1.027 -2.3164 -2.0810 -1.7823
 4881TIP3   OH236201   2.718   0.183   6.816  0.1637 -0.0444  0.6068
 4881TIP3    H136202   2.691   0.238   6.890  0.5191 -0.3397  0.9628
 4881TIP3    H236203   2.646   0.188   6.754  1.1379  2.6974 -0.4335
 4882TIP3   OH236204   4.160   5.335   1.983  0.4085  0.0543 -0.3569
 4882TIP3    H136205   4.187   5.404   2.044 -0.6448  0.5132 -0.3765
 4882TIP3    H236206   4.155   5.256   2.037 -1.1252  0.5780  0.3437
 4883TIP3   OH236207   5.715   4.729   7.733  0.1613 -0.0670 -0.3609
 4883TIP3    H136208   5.705   4.709   7.640 -0.4189  0.2545 -0.3754
 4883TIP3    H236209   5.650   4.798   7.750 -0.7062 -1.0888  0.5884
 4884TIP3   OH236210   4.292   5.790   8.308 -0.1596 -0.4011  0.2849
 4884TIP3    H136211   4.369   5.768   8.360 -0.7817 -2.2083  0.5167
 4884TIP3    H236212   4.318   5.769   8.218 -0.0324  0.0202  0.2207
 4885TIP3   OH236213   6.668   4.375   0.697  0.8357 -0.0867  0.9965
 4885TIP3    H136214   6.720   4.442   0.740  0.9291  0.7784 -0.3959
 4885TIP3    H236215   6.638   4.416   0.616 -0.6703 -1.1109  0.9962
 4886TIP3   OH236216   3.657   0.546   1.637 -0.1247 -0.1211 -0.0014
 4886TIP3    H136217   3.711   0.522   1.712  1.6191 -0.8878 -1.4340
 4886TIP3    H236218   3.655   0.642   1.638  1.9071 -0.0413 -0.3100
 4887TIP3   OH236219   0.835   1.576   8.385 -0.2192 -0.1793 -0.0030
 4887TIP3    H136220   0.845   1.625   8.466 -1.5062  1.2447 -0.6568
 4887TIP3    H236221   0.922   1.578   8.345  0.2023 -0.0990  0.8806
 4888TIP3   OH236222   5.412   6.498   7.824 -0.5053  0.1195 -0.1457
 4888TIP3    H136223   5.413   6.568   7.758 -1.4803  0.7838  0.5066
 4888TIP3    H236224   5.378   6.541   7.903  2.2165 -0.2242  1.3195
 4889TIP3   OH236225   1.170   4.446   0.679 -0.2342  0.8961 -0.1279
 4889TIP3    H136226   1.224   4.395   0.739 -1.0701  0.0943 -0.0199
 4889TIP3    H236227   1.088   4.460   0.728 -0.3237  1.6266 -0.4800
 4890TIP3   OH236228   5.080   5.366   1.442  0.5357 -0.3287 -0.3702
 4890TIP3    H136229   5.117   5.453   1.451  0.8526 -0.4063 -0.8588
 4890TIP3    H236230   5.034   5.350   1.525  0.0419  0.5005 -0.4716
 4891TIP3   OH236231   3.023   6.006   8.386  0.1990 -0.5461 -0.4719
 4891TIP3    H136232   3.088   6.066   8.423 -0.2712 -0.9055  1.0280
 4891TIP3    H236233   3.075   5.940   8.339  0.7782  0.3890 -1.1803
 4892TIP3   OH236234   5.652   1.909   7.053  0.2842  0.6442  0.2242
 4892TIP3    H136235   5.720   1.844   7.038  0.6811  1.2530 -0.6596
 4892TIP3    H236236   5.591   1.866   7.114  1.0275 -0.1952  0.3954
 4893TIP3   OH236237   0.716   3.476   0.230 -0.1417  0.6043  0.3398
 4893TIP3    H136238   0.626   3.476   0.199 -0.6123 -1.1921  1.5276
 4893TIP3    H236239   0.709   3.484   0.325  1.0833  2.3946  0.3414
 4894TIP3   OH236240   1.925   1.019   6.266  0.1364 -0.3419  0.4635
 4894TIP3    H136241   1.977   1.066   6.201 -0.4466  0.1369  0.3318
 4894TIP3    H236242   1.842   1.002   6.223 -0.3452  0.1950  1.1612
 4895TIP3   OH236243   3.832   1.034   0.733 -0.8109  0.6224 -0.7394
 4895TIP3    H136244   3.863   0.959   0.784  2.0022  2.4661  0.5312
 4895TIP3    H236245   3.741   1.045   0.759 -1.8912 -3.2814 -2.2734
 4896TIP3   OH236246   3.245   0.859   7.475  1.0750  0.1657 -0.2511
 4896TIP3    H136247   3.226   0.897   7.561 -1.7840 -0.2483 -0.6064
 4896TIP3    H236248   3.195   0.913   7.414  0.9582 -1.1370 -1.3421
 4897TIP3   OH236249   2.509   2.375   6.701 -0.3256  0.1599  0.3630
 4897TIP3    H136250   2.531   2.356   6.610 -2.2941 -1.4964  0.1579
 4897TIP3    H236251   2.424   2.420   6.697 -0.3189  0.2955  1.3812
 4898TIP3   OH236252   3.814   5.587   1.385  0.1435  0.2461 -0.0792
 4898TIP3    H136253   3.818   5.560   1.294  0.4250  1.3088 -0.4015
 4898TIP3    H236254   3.731   5.633   1.393 -1.3544 -2.4168  0.9927
 4899TIP3   OH236255   4.295   2.856   6.334 -0.5518 -0.2599  0.2307
 4899TIP3    H136256   4.371   2.799   6.347  0.1107 -0.2845 -2.8827
 4899TIP3    H236257   4.323   2.919   6.267 -2.3222  1.6977  1.2209
 4900TIP3   OH236258   2.669   4.959   1.405  0.1526  0.1147  0.6056
 4900TIP3    H136259   2.599   4.929   1.462  0.6062 -1.9211  0.1927
 4900TIP3    H236260   2.728   5.009   1.462 -0.9862  0.7900  1.2086
 4901TIP3   OH236261   4.948   5.253   1.232  0.1892 -0.1279 -0.1570
 4901TIP3    H136262   4.999   5.298   1.299 -1.9962  0.0484  1.5006
 4901TIP3    H236263   4.955   5.161   1.255 -2.1570  0.0470  1.6631
 4902TIP3   OH236264   1.066   3.304   1.321 -0.0716  0.6601  0.4723
 4902TIP3    H136265   1.102   3.287   1.234  1.1109 -3.6864  1.5533
 4902TIP3    H236266   1.142   3.326   1.375 -0.5304  1.4244  0.8257
 4903TIP3   OH236267   5.210   4.589   0.527 -0.0354 -0.1494  0.5821
 4903TIP3    H136268   5.268   4.578   0.452  0.3600  1.0036  0.7016
 4903TIP3    H236269   5.162   4.670   0.509 -1.3689 -0.8889  0.6524
 4904TIP3   OH236270   6.298   0.699   1.760 -0.9741 -0.4016 -0.1326
 4904TIP3    H136271   6.224   0.759   1.767 -0.3991  0.1995  1.0507
 4904TIP3    H236272   6.336   0.697   1.848 -0.1988 -1.5002 -0.4684
 4905TIP3   OH236273   4.373   3.874   0.504 -0.2651  0.3913 -0.1518
 4905TIP3    H136274   4.381   3.922   0.586  2.1037  1.4268 -0.9032
 4905TIP3    H236275   4.279   3.867   0.489 -0.8146 -0.4134  2.9353
 4906TIP3   OH236276   3.589   0.592   2.167  0.2028 -0.1886  0.2402
 4906TIP3    H136277   3.537   0.593   2.087 -0.5429 -1.4362  0.6748
 4906TIP3    H236278   3.665   0.538   2.145 -0.2886 -1.0105  0.5267
 4907TIP3   OH236279   5.772   4.544   7.445  0.1565 -0.7194  0.0719
 4907TIP3    H136280   5.787   4.637   7.426  0.2968 -0.7524  0.0187
 4907TIP3    H236281   5.857   4.503   7.429 -0.3428 -1.1365 -1.6491
 4908TIP3   OH236282   3.426   1.345   8.090 -0.2020  0.4138 -0.7295
 4908TIP3    H136283   3.520   1.326   8.085 -0.2462  0.0719 -0.3163
 4908TIP3    H236284   3.387   1.294   8.019 -0.2539 -0.6565  0.0404
 4909TIP3   OH236285   2.641   3.489   7.184  0.5678 -0.4655  0.4061
 4909TIP3    H136286   2.661   3.565   7.130  1.5549 -0.2722  1.0164
 4909TIP3    H236287   2.545   3.484   7.184  0.5351 -0.5713 -1.4583
 4910TIP3   OH236288   4.735   4.538   7.744  0.1629 -0.0172  0.2515
 4910TIP3    H136289   4.783   4.589   7.810  0.1275  1.2203 -0.6449
 4910TIP3    H236290   4.651   4.519   7.786 -1.1118  3.3782 -0.4120
 4911TIP3   OH236291   4.178   3.142   8.428 -0.1889  0.1458  0.3049
 4911TIP3    H136292   4.228   3.071   8.387  1.8408  1.5616  0.1692
 4911TIP3    H236293   4.244   3.203   8.460 -1.8304  2.5449 -0.5647
 4912TIP3   OH236294   5.788   0.235   7.061  0.5239  0.2379  0.0279
 4912TIP3    H136295   5.754   0.149   7.086  0.1049 -0.5179 -2.7689
 4912TIP3    H236296   5.712   0.293   7.066  0.0791 -0.2403 -0.9386
 4913TIP3   OH236297   5.192   0.235   0.981 -0.5916 -0.0168  0.2017
 4913TIP3    H136298   5.217   0.155   1.028  4.1042 -0.0317 -1.7895
 4913TIP3    H236299   5.150   0.203   0.901  0.4928 -0.4918 -0.1905
 4914TIP3   OH236300   6.636   2.215   8.615  0.2867  0.4542  0.2865
 4914TIP3    H136301   6.621   2.284   8.680  0.4058  0.1370  0.6558
 4914TIP3    H236302   6.730   2.216   8.600  0.1218  1.3202 -0.7759
 4915TIP3   OH236303   5.143   2.243   7.534  0.2317  0.2693  0.7201
 4915TIP3    H136304   5.082   2.171   7.520 -0.4917  0.6156  1.9567
 4915TIP3    H236305   5.088   2.321   7.531  0.9469  0.7633 -0.1817
 4916TIP3   OH236306   3.368   6.496   6.155 -0.7049  0.7203  0.1500
 4916TIP3    H136307   3.427   6.565   6.188 -0.8538  1.2578 -0.6878
 4916TIP3    H236308   3.400   6.416   6.197  0.7093  0.9821 -0.3577
 4917TIP3   OH236309   2.257   2.889   6.845  0.7214 -0.2977 -0.1430
 4917TIP3    H136310   2.213   2.872   6.928 -1.1873 -0.2331 -1.0765
 4917TIP3    H236311   2.196   2.856   6.779  1.6897  0.6266 -1.5533
 4918TIP3   OH236312   6.044   0.733   0.970  0.2685 -0.5184  0.3407
 4918TIP3    H136313   6.039   0.646   0.931  0.0506 -0.8137  1.0128
 4918TIP3    H236314   5.958   0.772   0.952  0.9268  0.2397 -1.4664
 4919TIP3   OH236315   4.722   3.015   1.957 -0.1234  0.0023  0.5009
 4919TIP3    H136316   4.765   3.076   1.897 -1.1066  1.0699  0.8465
 4919TIP3    H236317   4.640   3.059   1.981 -1.1192 -1.7037  0.3508
 4920TIP3   OH236318   5.573   3.086   0.909 -0.1480 -0.1323 -0.0578
 4920TIP3    H136319   5.580   2.996   0.877 -0.6808 -0.1766 -0.0725
 4920TIP3    H236320   5.616   3.086   0.994  1.0859 -0.0697 -0.6675
 4921TIP3   OH236321   0.621   1.760   2.066  0.5852 -0.5223  0.0187
 4921TIP3    H136322   0.528   1.779   2.081  0.7943  0.9603 -0.4419
 4921TIP3    H236323   0.657   1.749   2.154  0.1357 -0.2674  0.2413
 4922TIP3   OH236324   6.477   2.743   7.524 -0.3531  0.1230  0.0720
 4922TIP3    H136325   6.449   2.717   7.436  0.2988  0.3527 -0.2158
 4922TIP3    H236326   6.529   2.669   7.556  0.7959  0.6825 -0.4128
 4923TIP3   OH236327   4.434   5.329   1.392 -0.5104  0.6339 -0.3211
 4923TIP3    H136328   4.526   5.311   1.411  0.3847  1.7582 -3.0510
 4923TIP3    H236329   4.400   5.247   1.357  0.3205  0.9346 -1.9576
 4924TIP3   OH236330   2.294   2.258   8.307  0.1850  0.2362  0.3759
 4924TIP3    H136331   2.338   2.325   8.254 -0.5620  0.8710  0.5238
 4924TIP3    H236332   2.348   2.251   8.386  0.1017  0.9109  0.5036
 4925TIP3   OH236333   4.048   6.433   1.130 -0.4554 -0.2265 -0.1816
 4925TIP3    H136334   3.995   6.452   1.053  1.2687  1.1066 -1.0962
 4925TIP3    H236335   3.984   6.417   1.200 -2.0912 -2.6028 -2.0599
 4926TIP3   OH236336   0.863   3.189   1.705 -0.1567 -0.2397 -0.0267
 4926TIP3    H136337   0.825   3.262   1.754  0.3597  0.2155 -0.2920
 4926TIP3    H236338   0.879   3.121   1.770  2.4305  1.0932  0.8593
 4927TIP3   OH236339   0.909   5.114   6.051  0.1139 -0.3270  0.1510
 4927TIP3    H136340   0.843   5.081   5.989 -1.4467 -1.2115  2.1500
 4927TIP3    H236341   0.965   5.171   5.999 -1.8432 -0.0576 -1.8068
 4928TIP3   OH236342   4.170   3.295   6.946 -0.1368 -0.2842 -0.4944
 4928TIP3    H136343   4.118   3.217   6.929 -1.5113  0.3484  0.6152
 4928TIP3    H236344   4.160   3.311   7.040 -0.5883  1.7037 -0.8398
 4929TIP3   OH236345   0.443   3.324   6.381  0.2917  0.4046 -0.0976
 4929TIP3    H136346   0.416   3.286   6.465  0.6217  1.6276  0.5849
 4929TIP3    H236347   0.408   3.263   6.316  1.5967 -1.5929  0.9414
 4930TIP3   OH236348   1.451   2.395   1.940  0.3022  0.0415 -0.9200
 4930TIP3    H136349   1.536   2.363   1.969 -0.2143  0.8211  1.7141
 4930TIP3    H236350   1.454   2.489   1.954 -0.3964  0.3322 -2.5038
 4931TIP3   OH236351   1.134   0.404   0.113  0.0468  0.0053  0.2164
 4931TIP3    H136352   1.123   0.360   0.198  0.4370 -0.8983 -0.1851
 4931TIP3    H236353   1.207   0.359   0.073 -0.3776  0.1795 -0.7697
 4932TIP3   OH236354   3.408   2.533   6.604  0.1121  0.3810  0.4859
 4932TIP3    H136355   3.441   2.481   6.530  1.6378  0.5793  0.9894
 4932TIP3    H236356   3.315   2.542   6.587 -0.0194 -1.6618 -0.1482
 4933TIP3   OH236357   3.028   4.873   0.281  0.9350  0.4714  0.5989
 4933TIP3    H136358   3.112   4.903   0.316  2.5079 -1.2156 -1.4734
 4933TIP3    H236359   3.036   4.886   0.186  0.1488 -2.6283  0.0277
 4934TIP3   OH236360   6.743   4.580   1.180  0.3311  0.3439  0.5767
 4934TIP3    H136361   6.700   4.648   1.232  0.8429 -0.5473  2.2492
 4934TIP3    H236362   6.713   4.498   1.218  2.4657 -0.3234  0.9838
 4935TIP3   OH236363   3.906   6.012   1.815  0.2235 -0.9781  0.4855
 4935TIP3    H136364   3.868   6.070   1.750  1.0254  0.5571  1.3272
 4935TIP3    H236365   3.864   5.927   1.799  0.2811 -0.6317 -1.9018
 4936TIP3   OH236366   2.400   5.724   1.042 -0.4765 -0.6759  0.0806
 4936TIP3    H136367   2.413   5.669   1.120  1.2708 -2.4364 -1.3303
 4936TIP3    H236368   2.478   5.779   1.039 -1.8476  1.4121  1.0363
 4937TIP3   OH236369   2.222   0.052   0.136 -0.2180  0.7950 -0.0118
 4937TIP3    H136370   2.224   0.044   0.040 -0.1524  0.6556  0.0011
 4937TIP3    H236371   2.270  -0.025   0.167  2.1727  2.2279  0.0663
 4938TIP3   OH236372   0.132   4.387   0.075 -0.3985 -0.7282  0.2218
 4938TIP3    H136373   0.083   4.469   0.075  0.4627 -0.2056  0.2631
 4938TIP3    H236374   0.136   4.362  -0.017  1.7400  0.7642 -0.1625
 4939TIP3   OH236375   3.049   3.797   1.551 -0.1152 -0.0362 -0.4957
 4939TIP3    H136376   3.008   3.713   1.530  1.5414 -1.1712  0.6372
 4939TIP3    H236377   3.015   3.820   1.638  1.7589 -1.1221  0.5743
 4940TIP3   OH236378   1.295   6.519   0.687  0.5051  0.0009  0.1489
 4940TIP3    H136379   1.300   6.561   0.601  1.5671 -2.8305 -1.3232
 4940TIP3    H236380   1.382   6.532   0.725 -0.1142  1.6768  1.0878
 4941TIP3   OH236381   4.836   2.753   8.106 -0.4822  0.3744 -0.1166
 4941TIP3    H136382   4.926   2.778   8.127 -0.3894 -0.2549  0.2900
 4941TIP3    H236383   4.796   2.736   8.192 -1.1217  1.0961 -0.2728
 4942TIP3   OH236384   4.615   2.646   0.270 -0.2299 -0.0780 -0.0407
 4942TIP3    H136385   4.521   2.651   0.286 -0.3544 -1.2707 -0.2831
 4942TIP3    H236386   4.646   2.576   0.327  0.6246  0.6574  0.4377
 4943TIP3   OH236387   3.312   6.683   7.780 -0.2116  0.2123  0.3992
 4943TIP3    H136388   3.307   6.607   7.721 -1.6627  0.2893  0.3974
 4943TIP3    H236389   3.343   6.647   7.863 -1.5785 -0.5270  0.6082
 4944TIP3   OH236390   3.661   4.687   0.933 -0.5349  0.2600  0.1550
 4944TIP3    H136391   3.629   4.767   0.974 -0.1775  1.1392 -1.2286
 4944TIP3    H236392   3.746   4.670   0.974 -1.6300 -0.7774  2.1560
 4945TIP3   OH236393   5.076   1.677   2.025 -0.0238  0.2202 -0.5857
 4945TIP3    H136394   5.003   1.734   2.049 -0.6325 -0.8787  0.2447
 4945TIP3    H236395   5.063   1.597   2.076  2.1804  0.2693  0.1559
 4946TIP3   OH236396   3.376   2.031   0.100 -0.4070  0.0385 -0.2191
 4946TIP3    H136397   3.414   2.075   0.024 -0.6073  0.6915  0.0430
 4946TIP3    H236398   3.407   1.941   0.095 -0.7225 -0.0169 -1.2748
 4947TIP3   OH236399   2.468   6.555   2.127  0.2706 -0.2800 -0.1235
 4947TIP3    H136400   2.542   6.614   2.141  0.4898 -0.6483  0.2724
 4947TIP3    H236401   2.426   6.588   2.047  0.6379  0.1555 -0.1408
 4948TIP3   OH236402   0.847   5.695   6.640  0.2518 -0.0257 -0.2174
 4948TIP3    H136403   0.789   5.651   6.577  0.7336  0.1830 -0.8206
 4948TIP3    H236404   0.788   5.726   6.708 -0.4877  0.9660 -1.2611
 4949TIP3   OH236405   0.700   3.912   1.454 -0.3090  0.2301 -0.4020
 4949TIP3    H136406   0.730   3.998   1.483  1.3813 -0.1793 -0.8281
 4949TIP3    H236407   0.699   3.859   1.535  0.6732  0.1103 -0.4584
 4950TIP3   OH236408   0.336   2.039   8.269 -0.2618  0.8159  0.2641
 4950TIP3    H136409   0.391   2.107   8.231  0.0721  1.9364  2.5272
 4950TIP3    H236410   0.252   2.047   8.223  0.9190  0.0973 -2.1753
 4951TIP3   OH236411   3.770   6.359   7.221 -0.3737  0.3370  0.8947
 4951TIP3    H136412   3.807   6.285   7.172  0.6850 -0.4569  2.8131
 4951TIP3    H236413   3.836   6.428   7.215 -1.2674  1.1269 -0.7087
 4952TIP3   OH236414   6.862   4.037   8.299 -0.4964  0.0616  0.3581
 4952TIP3    H136415   6.883   3.951   8.334  0.6523 -0.2635 -1.0479
 4952TIP3    H236416   6.784   4.023   8.246  0.4597 -0.4227 -0.9626
 4953TIP3   OH236417   2.564   4.059   0.394 -0.3452 -0.4467  0.7052
 4953TIP3    H136418   2.574   4.094   0.482  0.1240  1.4357 -0.0437
 4953TIP3    H236419   2.653   4.038   0.367 -0.2414  0.7169  0.0513
 4954TIP3   OH236420   2.110   3.189   7.404 -0.2101  0.1169  0.8168
 4954TIP3    H136421   2.107   3.117   7.341 -1.5553  1.2063 -0.4581
 4954TIP3    H236422   2.194   3.231   7.389 -0.0211 -0.3495  0.5623
 4955TIP3   OH236423   6.652   4.321   6.929  0.0686  0.6548  0.1280
 4955TIP3    H136424   6.691   4.240   6.963 -2.8299 -0.3971  1.2002
 4955TIP3    H236425   6.691   4.331   6.842  2.0315 -0.7244  0.7634
 4956TIP3   OH236426   5.273   1.644   2.243  0.0117  0.3373  0.1838
 4956TIP3    H136427   5.319   1.676   2.320 -3.1541  1.2558  1.8702
 4956TIP3    H236428   5.236   1.722   2.202  1.5816 -0.1329 -2.3860
 4957TIP3   OH236429   0.044   0.098   0.120 -0.0125  0.7452  0.2313
 4957TIP3    H136430   0.125   0.124   0.163  1.4672 -0.7148 -1.4960
 4957TIP3    H236431   0.048   0.139   0.034 -1.0311  0.5347  0.0742
 4958TIP3   OH236432   0.223   5.091   7.132 -0.0493 -0.4243  0.2155
 4958TIP3    H136433   0.201   5.184   7.140  0.4433 -0.3198  0.3782
 4958TIP3    H236434   0.211   5.071   7.039 -1.8044 -0.6244  0.4492
 4959TIP3   OH236435   5.424   4.318   1.613  0.2455  0.1800  0.4690
 4959TIP3    H136436   5.440   4.409   1.638 -0.5822  0.4844 -0.0582
 4959TIP3    H236437   5.452   4.314   1.521 -1.7757  0.5169 -0.2247
 4960TIP3   OH236438   3.653   4.810   1.349 -0.1429  0.2025 -0.4814
 4960TIP3    H136439   3.600   4.744   1.393  0.2828  0.4707  0.4696
 4960TIP3    H236440   3.694   4.860   1.421 -0.9740  1.9313 -1.1539
 4961TIP3   OH236441   3.087   2.946   0.244 -0.3555  0.4067  0.1523
 4961TIP3    H136442   3.071   3.041   0.242 -0.3024  0.5128  2.3445
 4961TIP3    H236443   3.166   2.935   0.192  1.3571  2.0197  2.2229
 4962TIP3   OH236444   6.838   1.988   0.125 -0.4844 -0.1713 -0.3993
 4962TIP3    H136445   6.897   1.913   0.134  1.1565  1.3149  2.6279
 4962TIP3    H236446   6.782   1.983   0.202  0.4668  2.3077  0.5370
 4963TIP3   OH236447   1.373   3.881   8.051  0.1983 -0.3759  0.3400
 4963TIP3    H136448   1.364   3.862   8.144 -0.2534  1.6555  0.7675
 4963TIP3    H236449   1.359   3.797   8.008 -0.2782 -1.2305  2.0628
 4964TIP3   OH236450   2.667   0.127   8.521 -0.2755 -0.1999  0.5523
 4964TIP3    H136451   2.621   0.191   8.467 -0.0353  0.7472  1.4420
 4964TIP3    H236452   2.733   0.089   8.463  1.1693  2.0708  0.6041
 4965TIP3   OH236453   6.396   0.634   8.092 -0.2021 -0.2303 -0.5594
 4965TIP3    H136454   6.379   0.573   8.164  1.0215  1.3608  1.1591
 4965TIP3    H236455   6.311   0.643   8.048 -1.2654 -0.3887  1.3583
 4966TIP3   OH236456   3.798   5.261   0.951 -0.3710 -0.2088  0.2875
 4966TIP3    H136457   3.832   5.203   0.882 -1.2880  1.2782 -1.5138
 4966TIP3    H236458   3.704   5.243   0.952 -0.5744  0.8147  0.1186
 4967TIP3   OH236459   1.016   6.437   8.329 -0.9187  0.0756  0.1427
 4967TIP3    H136460   0.989   6.476   8.412 -0.4627  1.6831 -0.4254
 4967TIP3    H236461   1.093   6.487   8.303 -2.3649  1.1918 -2.3528
 4968TIP3   OH236462   4.718   5.691   1.907 -0.6612  0.0432  0.1428
 4968TIP3    H136463   4.651   5.645   1.958 -0.8520 -1.9532 -1.7720
 4968TIP3    H236464   4.794   5.633   1.908 -0.4939  0.1842 -1.3364
 4969TIP3   OH236465   5.047   4.927   7.175 -0.2980  0.2901 -0.5323
 4969TIP3    H136466   4.954   4.909   7.191 -0.5554 -1.4189 -3.3144
 4969TIP3    H236467   5.091   4.889   7.251 -1.8144  0.6511  0.5816
 4970TIP3   OH236468   3.665   4.757   8.254 -0.0539 -0.8167 -0.2522
 4970TIP3    H136469   3.753   4.736   8.222  0.4904 -1.1276  1.3394
 4970TIP3    H236470   3.657   4.851   8.240  0.2822 -0.8861 -0.9743
 4971TIP3   OH236471   1.690   2.424   7.692  0.1007  0.2655  0.4420
 4971TIP3    H136472   1.618   2.374   7.730 -0.0880  0.0706 -0.1647
 4971TIP3    H236473   1.763   2.363   7.689 -0.6830 -0.6985 -2.2189
 4972TIP3   OH236474   1.662   2.180   7.433  0.1238  0.0059  0.1856
 4972TIP3    H136475   1.610   2.102   7.413 -0.0425  0.3911 -1.0020
 4972TIP3    H236476   1.742   2.146   7.474 -0.5561 -0.6707  0.9665
 4973TIP3   OH236477   5.853   0.099   6.410  0.2910 -0.0089  0.2195
 4973TIP3    H136478   5.886   0.015   6.380  1.5359  0.6497 -0.3401
 4973TIP3    H236479   5.871   0.159   6.337 -1.7495  0.4920  0.0813
 4974TIP3   OH236480   3.978   1.928   1.552 -0.0283  0.3181  0.0531
 4974TIP3    H136481   3.911   1.867   1.520  0.3960 -1.8695  2.9361
 4974TIP3    H236482   4.061   1.884   1.534  0.7469  2.5500 -2.5515
 4975TIP3   OH236483   2.900   3.231   7.434 -0.5172 -0.6622 -0.5220
 4975TIP3    H136484   2.893   3.289   7.357 -0.4713 -0.8286 -0.6516
 4975TIP3    H236485   2.812   3.194   7.444 -0.8354  0.2459  0.2057
 4976TIP3   OH236486   5.947   4.735   2.095  0.5410 -0.3741 -0.2589
 4976TIP3    H136487   5.943   4.748   2.000  2.0825 -0.3238 -0.3475
 4976TIP3    H236488   5.970   4.643   2.105  0.0191 -0.4677  0.0772
 4977TIP3   OH236489   3.587   0.673   6.551 -0.4635 -0.4533  0.0582
 4977TIP3    H136490   3.570   0.604   6.615  1.8731 -0.1171  1.1366
 4977TIP3    H236491   3.571   0.754   6.600 -1.9109 -0.1828 -0.8133
 4978TIP3   OH236492   2.086   1.026   1.688  0.5094 -0.1476 -0.2593
 4978TIP3    H136493   2.122   1.100   1.639 -0.6009 -0.4470 -1.5752
 4978TIP3    H236494   2.095   1.052   1.780  2.6878  0.4032 -0.5618
 4979TIP3   OH236495   3.765   5.127   7.401 -0.6776 -0.0574 -0.8631
 4979TIP3    H136496   3.842   5.072   7.414 -2.0867 -2.5732 -2.5545
 4979TIP3    H236497   3.791   5.188   7.332  0.1979  0.0521 -0.4617
 4980TIP3   OH236498   6.672   0.174   8.650  0.0907  0.0784 -0.2045
 4980TIP3    H136499   6.754   0.179   8.698 -0.3810 -1.8347  0.8697
 4980TIP3    H236500   6.698   0.150   8.561  0.7252  0.2613 -0.0778
 4981TIP3   OH236501   1.774   1.579   1.287  0.0602  0.0250 -0.4935
 4981TIP3    H136502   1.773   1.491   1.249 -0.0824  0.5593 -1.7871
 4981TIP3    H236503   1.715   1.630   1.232  0.5062  1.0519 -0.0560
 4982TIP3   OH236504   2.736   4.580   7.153 -0.1339  0.1167  0.3581
 4982TIP3    H136505   2.802   4.553   7.216  0.8720 -0.4490 -0.8892
 4982TIP3    H236506   2.768   4.548   7.069 -1.2152  1.2035 -0.5168
 4983TIP3   OH236507   0.765   6.589   8.284  0.0037 -0.0539  0.2148
 4983TIP3    H136508   0.841   6.552   8.329  0.5048 -0.9269 -1.2959
 4983TIP3    H236509   0.789   6.680   8.265 -0.3987  0.4904  2.0413
 4984TIP3   OH236510   5.617   5.524   7.077 -0.5195 -0.0960  0.2214
 4984TIP3    H136511   5.703   5.509   7.117  1.2039  1.4657 -2.5845
 4984TIP3    H236512   5.628   5.496   6.986 -2.4568  1.7132 -0.6555
 4985TIP3   OH236513   2.450   6.719   0.785  0.3185  0.3750  0.1164
 4985TIP3    H136514   2.516   6.737   0.852 -0.3290 -0.6446  1.0758
 4985TIP3    H236515   2.449   6.623   0.779 -0.1942  0.4341 -0.7802
 4986TIP3   OH236516   1.240   6.447   0.242  0.5278  0.0959  0.4966
 4986TIP3    H136517   1.292   6.429   0.321  0.7046 -0.6516  0.2189
 4986TIP3    H236518   1.188   6.524   0.265  1.3290  0.5105  0.9833
 4987TIP3   OH236519   4.441   0.330   8.376  0.7023 -0.2909 -0.3013
 4987TIP3    H136520   4.382   0.406   8.377  0.9076 -0.1108 -1.2100
 4987TIP3    H236521   4.503   0.348   8.446 -0.6038 -0.7239  1.0270
 4988TIP3   OH236522   0.374   3.820   7.758 -0.5920  0.2908 -0.5952
 4988TIP3    H136523   0.431   3.808   7.834 -2.1724 -0.9440  0.4761
 4988TIP3    H236524   0.414   3.766   7.690 -0.3884 -0.4884  0.1118
 4989TIP3   OH236525   5.597   6.295   0.541  0.0064 -0.2908 -0.4127
 4989TIP3    H136526   5.589   6.384   0.575  0.4409 -0.4504  0.1216
 4989TIP3    H236527   5.665   6.301   0.474  2.1941 -0.7465  1.6320
 4990TIP3   OH236528   6.095   2.468   0.345  0.2276 -0.1312  0.1528
 4990TIP3    H136529   6.089   2.432   0.257 -0.1329 -0.7955  0.4393
 4990TIP3    H236530   6.018   2.433   0.390  0.7167 -0.2696  0.8962
 4991TIP3   OH236531   5.880   3.588   1.436 -0.1769 -0.2492  0.7185
 4991TIP3    H136532   5.857   3.578   1.528  1.2618 -0.3385  1.0916
 4991TIP3    H236533   5.954   3.649   1.436  0.4476 -0.9701 -0.2795
 4992TIP3   OH236534   2.325   6.818   1.516  0.1596  0.1106  0.2294
 4992TIP3    H136535   2.320   6.888   1.451  0.3531  0.0177  0.1153
 4992TIP3    H236536   2.417   6.817   1.544  0.4215 -0.8528 -0.6009
 4993TIP3   OH236537   6.229   6.504   0.633  0.3450  0.3767  0.0052
 4993TIP3    H136538   6.246   6.547   0.717  2.7700 -1.7617  0.7407
 4993TIP3    H236539   6.302   6.531   0.577 -0.0639  0.0439 -0.7020
 4994TIP3   OH236540   4.812   0.701   1.187  0.2004  0.1541  0.4252
 4994TIP3    H136541   4.896   0.699   1.234  0.6727  0.2141 -0.4016
 4994TIP3    H236542   4.834   0.730   1.099 -0.6906  0.1288  0.1828
 4995TIP3   OH236543   4.832   1.074   7.424  0.1405 -0.6752 -0.2245
 4995TIP3    H136544   4.909   1.022   7.445  0.4229 -1.2864 -2.5775
 4995TIP3    H236545   4.758   1.015   7.439  0.3270 -1.0827 -0.9208
 4996TIP3   OH236546   4.134   2.516   6.219 -0.1576 -0.1502 -0.2681
 4996TIP3    H136547   4.178   2.601   6.215 -0.9903  0.2360 -2.2511
 4996TIP3    H236548   4.203   2.454   6.242  0.2507  1.1357  2.4515
 4997TIP3   OH236549   1.455   3.345   7.919 -0.3787 -0.7244 -0.1426
 4997TIP3    H136550   1.517   3.305   7.980 -0.3999  0.1085  0.4519
 4997TIP3    H236551   1.383   3.375   7.975 -0.1939  0.4587 -0.5025
 4998TIP3   OH236552   6.576   1.826   8.128 -0.8574  0.3590  0.1158
 4998TIP3    H136553   6.597   1.810   8.220  0.2523 -0.0725 -0.1976
 4998TIP3    H236554   6.581   1.921   8.118 -0.7679  0.3895  0.4438
 4999TIP3   OH236555   4.468   1.306   2.013 -0.1402  0.5721 -0.2625
 4999TIP3    H136556   4.487   1.322   1.920  0.5778 -0.0298 -0.2319
 4999TIP3    H236557   4.527   1.366   2.059  1.5772 -1.1151 -0.1692
 5000TIP3   OH236558   1.772   2.026   0.193 -0.5628 -0.3758  0.2716
 5000TIP3    H136559   1.735   2.089   0.131  0.0705  1.7063  1.9012
 5000TIP3    H236560   1.710   2.022   0.265 -1.1119 -2.5055 -0.2361
 5001TIP3   OH236561   6.684   3.247   8.585 -0.4095 -0.3105 -0.1614
 5001TIP3    H136562   6.702   3.312   8.517 -2.9794  1.5240  0.7427
 5001TIP3    H236563   6.601   3.208   8.558 -1.6715  0.7055  1.9816
 5002TIP3   OH236564   4.457   3.990   7.094  0.0430 -0.3038 -0.1385
 5002TIP3    H136565   4.367   3.964   7.116 -0.3590  0.3285 -0.9847
 5002TIP3    H236566   4.449   4.037   7.011  1.4495 -2.3925 -1.5816
 5003TIP3   OH236567   0.478   2.058   1.508  0.3400  0.1151  0.6811
 5003TIP3    H136568   0.428   2.028   1.584 -1.4821 -0.3781 -0.6258
 5003TIP3    H236569   0.497   1.978   1.459 -1.3006  0.6517 -0.9447
 5004TIP3   OH236570   4.179   5.421   6.768 -0.2418 -0.0504  0.4597
 5004TIP3    H136571   4.130   5.470   6.835  1.2804  1.0891  0.7923
 5004TIP3    H236572   4.151   5.460   6.685 -1.2784 -0.6888  0.4895
 5005TIP3   OH236573   1.320   3.446   1.026  0.0036  0.0784 -0.2267
 5005TIP3    H136574   1.283   3.504   0.960 -0.6393  0.2018  0.2340
 5005TIP3    H236575   1.251   3.382   1.043 -0.0767  0.4137  0.7632
 5006TIP3   OH236576   0.916   3.093   1.444  0.5314 -0.3240 -1.1870
 5006TIP3    H136577   0.960   3.166   1.402  1.3457 -0.1848 -0.1236
 5006TIP3    H236578   0.884   3.128   1.527 -0.9822 -0.6113 -1.6170
 5007TIP3   OH236579   4.358   4.314   7.241  0.0203 -0.7180 -0.1565
 5007TIP3    H136580   4.452   4.298   7.234  0.0487 -0.9481  0.6748
 5007TIP3    H236581   4.325   4.298   7.153  0.7399 -0.7503 -0.4321
 5008TIP3   OH236582   1.076   0.322   8.235 -0.2101  0.1992 -0.3828
 5008TIP3    H136583   1.112   0.404   8.202 -0.0529 -0.5825 -2.2898
 5008TIP3    H236584   1.001   0.304   8.178  0.8228 -1.8554 -1.1983
 5009TIP3   OH236585   4.799   6.511   1.149 -0.1091 -0.1412  0.3911
 5009TIP3    H136586   4.742   6.570   1.198 -1.3868 -1.5238  0.6583
 5009TIP3    H236587   4.746   6.484   1.074  0.1558 -1.5109  0.6757
 5010TIP3   OH236588   6.757   3.102   8.112  0.5120  0.0037  0.6417
 5010TIP3    H136589   6.844   3.106   8.152 -0.5900 -2.3993  3.6544
 5010TIP3    H236590   6.749   3.013   8.078 -0.4307  0.5131 -0.5636
 5011TIP3   OH236591   5.484   1.601   6.917  0.3604 -0.2818 -0.0573
 5011TIP3    H136592   5.517   1.551   6.843  0.9706  1.2571 -0.8571
 5011TIP3    H236593   5.562   1.619   6.970 -0.0885 -1.4957  1.0797
 5012TIP3   OH236594   6.495   0.864   8.186  0.1923  0.3852 -0.0514
 5012TIP3    H136595   6.418   0.888   8.237  0.1366  1.7396 -0.7380
 5012TIP3    H236596   6.462   0.805   8.118 -0.3765  1.3879 -0.6812
 5013TIP3   OH236597   0.680   4.794   8.670  0.4736  0.1003  0.1971
 5013TIP3    H136598   0.619   4.854   8.714  0.7444 -0.8307  1.9613
 5013TIP3    H236599   0.628   4.716   8.652  0.9930 -0.5305  1.3108
 5014TIP3   OH236600   2.981   0.298   2.060 -0.4328  0.0938  0.2088
 5014TIP3    H136601   2.913   0.328   2.120 -0.1479 -0.8826  1.0515
 5014TIP3    H236602   2.943   0.220   2.019 -0.5077  0.5845 -0.6638
 5015TIP3   OH236603   4.847   5.282   8.492 -0.1046  0.2901  0.7471
 5015TIP3    H136604   4.835   5.333   8.572 -0.9608 -0.5109  1.1491
 5015TIP3    H236605   4.849   5.191   8.521  2.5996  0.0983  0.1764
 5016TIP3   OH236606   1.732   4.878   8.290 -0.1664  0.1509  0.5710
 5016TIP3    H136607   1.751   4.935   8.365 -0.9913  1.3114 -0.0733
 5016TIP3    H236608   1.716   4.938   8.217  1.8603 -0.9664 -0.8907
 5017TIP3   OH236609   6.562   0.370   8.292  0.6843 -0.7664  0.3146
 5017TIP3    H136610   6.612   0.430   8.349  0.7161 -1.4805  1.0527
 5017TIP3    H236611   6.479   0.357   8.338  0.1912 -0.3412 -0.4414
 5018TIP3   OH236612   1.300   2.111   6.837  0.0067 -0.4339  0.0077
 5018TIP3    H136613   1.293   2.187   6.781  0.2060 -1.5158 -1.5379
 5018TIP3    H236614   1.363   2.053   6.793 -0.2384 -1.5589  1.0536
 5019TIP3   OH236615   3.722   2.169   0.921  0.3120 -0.4822 -0.0741
 5019TIP3    H136616   3.740   2.182   1.014  0.5145  1.4736 -0.3451
 5019TIP3    H236617   3.780   2.098   0.894  0.8890 -0.4718  1.1037
 5020TIP3   OH236618   2.503   0.519   1.430  0.0330  0.2503  0.6595
 5020TIP3    H136619   2.458   0.450   1.479  0.3260 -0.7365 -0.4244
 5020TIP3    H236620   2.573   0.548   1.488 -1.4173  1.2160  2.0289
 5021TIP3   OH236621   2.222   2.320   6.397  0.0496  0.2181  0.8307
 5021TIP3    H136622   2.142   2.346   6.442 -0.8516  0.0627 -0.6184
 5021TIP3    H236623   2.258   2.403   6.365 -1.7475  0.0365 -2.0260
 5022TIP3   OH236624   5.304   2.127   6.084  0.1258  0.4859  0.4228
 5022TIP3    H136625   5.221   2.080   6.077  0.7914 -0.7079  0.2446
 5022TIP3    H236626   5.362   2.066   6.129  1.6322  0.2830 -1.6431
 5023TIP3   OH236627   1.245   1.019   6.709 -0.3438 -0.3639 -0.1140
 5023TIP3    H136628   1.282   0.973   6.784 -0.2596 -0.9211 -0.4892
 5023TIP3    H236629   1.245   0.954   6.638 -1.0665 -0.0584 -0.4094
 5024TIP3   OH236630   6.435   1.182   7.899  0.3814  0.3247 -0.1640
 5024TIP3    H136631   6.394   1.216   7.819  1.6368  2.1649 -0.0998
 5024TIP3    H236632   6.508   1.129   7.868 -0.5820 -1.0064 -0.2378
 5025TIP3   OH236633   2.287   3.939   0.375  0.6939  0.0372 -0.3108
 5025TIP3    H136634   2.273   3.898   0.460  1.8048  0.6564  0.1892
 5025TIP3    H236635   2.363   3.996   0.388 -0.2899  1.6076 -1.2134
 5026TIP3   OH236636   6.044   1.638   1.815 -0.3719 -0.0442 -0.4715
 5026TIP3    H136637   6.032   1.557   1.864  0.6443  0.4796  0.6994
 5026TIP3    H236638   6.015   1.707   1.874  0.6467  0.5907 -0.6724
 5027TIP3   OH236639   6.625   2.535   0.904  0.6482  0.1520  0.6219
 5027TIP3    H136640   6.692   2.587   0.861  0.2399  0.4387  0.3238
 5027TIP3    H236641   6.592   2.477   0.836  2.3562 -1.8240  1.3707
 5028TIP3   OH236642   3.439   5.246   8.170  0.5221 -1.1757 -0.1954
 5028TIP3    H136643   3.416   5.166   8.125  1.4431 -1.0254 -0.9612
 5028TIP3    H236644   3.519   5.225   8.219  0.2220 -0.9939  0.3930
 5029TIP3   OH236645   3.141   4.390   7.895 -0.5591  1.0158 -0.7365
 5029TIP3    H136646   3.129   4.305   7.936 -0.8224 -0.2223 -3.2408
 5029TIP3    H236647   3.062   4.440   7.918 -0.5555  0.5059  0.4573
 5030TIP3   OH236648   3.781   4.354   1.125 -0.2155 -0.8184 -0.0311
 5030TIP3    H136649   3.829   4.329   1.047 -1.2037 -0.1449 -0.8795
 5030TIP3    H236650   3.812   4.442   1.146 -1.0783 -0.3662 -0.6035
 5031TIP3   OH236651   5.483   4.024   2.081  0.0900 -0.1184 -0.5119
 5031TIP3    H136652   5.514   3.987   1.998  0.3917  0.1095 -0.5003
 5031TIP3    H236653   5.428   3.955   2.118  0.1100 -0.2986 -0.8085
 5032TIP3   OH236654   1.700   4.687   2.251 -0.7879 -0.0851 -0.1644
 5032TIP3    H136655   1.713   4.661   2.342  1.5914  0.6267 -0.2288
 5032TIP3    H236656   1.642   4.762   2.255 -2.5560 -1.4225  0.5325
 5033TIP3   OH236657   5.853   2.617   8.252 -0.1942  0.3668  0.3903
 5033TIP3    H136658   5.787   2.554   8.222  0.3115  0.3206 -0.6743
 5033TIP3    H236659   5.905   2.636   8.174  1.6274 -0.2802  1.4003
 5034TIP3   OH236660   3.309   1.666   0.880 -0.6659 -0.0755  0.0142
 5034TIP3    H136661   3.378   1.628   0.826 -2.2892 -1.6884 -1.0712
 5034TIP3    H236662   3.298   1.755   0.847  1.9335  0.8324  1.3283
 5035TIP3   OH236663   5.958   2.532   7.085 -0.5311 -0.3131 -0.2850
 5035TIP3    H136664   5.992   2.445   7.105 -0.4538 -0.4463 -0.9718
 5035TIP3    H236665   6.036   2.586   7.071 -0.5789 -0.4042 -0.9598
 5036TIP3   OH236666   6.013   6.290   2.284  0.0198  0.1447 -0.2916
 5036TIP3    H136667   6.034   6.370   2.235  1.0245  0.9904  1.4254
 5036TIP3    H236668   5.983   6.321   2.369 -0.3013 -1.3033  0.1463
 5037TIP3   OH236669   6.231   0.508   2.277  0.1745  0.1073  0.1446
 5037TIP3    H136670   6.259   0.569   2.345 -0.2610  1.3588 -0.7509
 5037TIP3    H236671   6.172   0.447   2.322  0.5710  0.3755  1.0528
 5038TIP3   OH236672   2.187   5.068   7.806 -0.6181 -0.1251  0.1450
 5038TIP3    H136673   2.183   5.160   7.829 -1.3793 -0.5574  1.8999
 5038TIP3    H236674   2.280   5.048   7.796 -0.3881  0.5404  0.9781
 5039TIP3   OH236675   1.837   3.088   7.650  0.2627  0.0282  0.4279
 5039TIP3    H136676   1.848   3.177   7.616 -1.0028 -0.3321 -1.0253
 5039TIP3    H236677   1.828   3.100   7.744  1.0675  1.3481  0.3613
 5040TIP3   OH236678   5.514   6.696   6.841 -0.3902  0.4801  0.0629
 5040TIP3    H136679   5.507   6.616   6.789 -0.0962 -0.2772  1.1524
 5040TIP3    H236680   5.455   6.682   6.915 -0.7237  1.4967  0.0162
 5041TIP3   OH236681   3.160   6.026   1.109  0.1957 -0.1986  0.1147
 5041TIP3    H136682   3.232   5.989   1.160  0.5164  0.2330 -0.0254
 5041TIP3    H236683   3.141   6.110   1.152 -1.4337 -1.1039  1.2763
 5042TIP3   OH236684   3.468   4.002   1.507  0.1404  0.2505 -0.8019
 5042TIP3    H136685   3.442   4.087   1.473 -0.0294  1.2011  1.4931
 5042TIP3    H236686   3.496   4.020   1.597  1.8125 -1.8558 -0.8217
 5043TIP3   OH236687   4.492   5.866   0.359  0.1649 -0.3226 -0.4319
 5043TIP3    H136688   4.490   5.820   0.444 -1.9041 -0.3563 -0.4515
 5043TIP3    H236689   4.478   5.797   0.294  1.5087 -0.2599 -0.8257
 5044TIP3   OH236690   4.514   3.454   7.985 -0.0724 -0.5016  0.3402
 5044TIP3    H136691   4.594   3.506   7.995  0.9395 -1.9784  0.1552
 5044TIP3    H236692   4.464   3.501   7.917  0.5399  0.5123  0.5622
 5045TIP3   OH236693   3.028   5.412   1.002  0.1228 -0.0877  0.2648
 5045TIP3    H136694   2.983   5.494   1.025 -2.7525 -0.9319 -1.7886
 5045TIP3    H236695   2.996   5.348   1.065 -1.5608 -0.6331 -1.0515
 5046TIP3   OH236696   6.409   1.761   8.488  0.0092 -0.4337 -0.0945
 5046TIP3    H136697   6.461   1.840   8.473  1.3761 -0.8830  1.8327
 5046TIP3    H236698   6.411   1.714   8.404  0.1354  1.0129 -0.9316
 5047TIP3   OH236699   4.756   5.302   1.024 -1.0218 -0.5141  0.4693
 5047TIP3    H136700   4.812   5.278   1.098 -0.5916  1.0472  0.7080
 5047TIP3    H236701   4.792   5.255   0.949 -0.8764 -1.3802  1.0784
 5048TIP3   OH236702   6.857   2.335   2.087 -0.6294  0.2709 -0.1540
 5048TIP3    H136703   6.858   2.394   2.163  0.4634  0.2660 -0.1559
 5048TIP3    H236704   6.835   2.249   2.123  2.7432 -0.3610  0.6673
 5049TIP3   OH236705   1.169   2.762   0.841  0.6647 -0.3495 -0.1728
 5049TIP3    H136706   1.257   2.765   0.877  0.6106 -0.1647 -0.0555
 5049TIP3    H236707   1.111   2.778   0.916  0.5786  0.6743 -0.4418
 5050TIP3   OH236708   1.681   2.075   2.197  0.4934  0.0935  0.7408
 5050TIP3    H136709   1.660   2.158   2.240  1.9089  0.4346  0.8276
 5050TIP3    H236710   1.623   2.073   2.121 -1.7857 -0.3321  2.3527
 5051TIP3   OH236711   2.847   0.831   7.797 -0.0313  0.2342 -0.2270
 5051TIP3    H136712   2.758   0.864   7.810  0.0838  0.9757 -1.2158
 5051TIP3    H236713   2.836   0.736   7.793 -1.2281  0.3797 -3.0094
 5052TIP3   OH236714   2.726   0.706   1.312  0.1460  0.3947  0.1742
 5052TIP3    H136715   2.635   0.707   1.282 -0.3238  2.0840  1.4960
 5052TIP3    H236716   2.722   0.742   1.400  2.1568  0.9037  0.0958
 5053TIP3   OH236717   1.684   4.833   1.159  0.1034 -0.4414  0.7123
 5053TIP3    H136718   1.613   4.775   1.131 -0.9626  1.1260  0.0558
 5053TIP3    H236719   1.655   4.867   1.244 -0.4785  0.9954 -0.0199
 5054TIP3   OH236720   2.308   4.774   0.932 -0.1348  0.0832 -0.0193
 5054TIP3    H136721   2.266   4.718   0.997 -0.4651  1.2671  0.8055
 5054TIP3    H236722   2.246   4.776   0.859 -1.1626  1.1650  0.8614
 5055TIP3   OH236723   0.921   0.510   0.978  0.3479  0.1762 -0.0205
 5055TIP3    H136724   0.973   0.532   0.901  0.2169  1.4621  0.2401
 5055TIP3    H236725   0.898   0.594   1.017 -0.9382 -0.3941  0.5330
 5056TIP3   OH236726   6.560   6.227   7.318  0.5037 -0.0368 -0.1173
 5056TIP3    H136727   6.646   6.265   7.298 -0.0597  0.4223 -1.8093
 5056TIP3    H236728   6.497   6.293   7.289 -0.4554  0.0367  1.9493
 5057TIP3   OH236729   4.136   1.771   1.789 -0.2642  0.6565 -0.0441
 5057TIP3    H136730   4.213   1.807   1.832 -0.3492  1.3112 -0.4279
 5057TIP3    H236731   4.066   1.781   1.853 -0.1317  0.4850  0.1305
 5058TIP3   OH236732   0.716   2.376   0.003  0.3829  0.2752 -0.3314
 5058TIP3    H136733   0.627   2.369   0.037  0.5829  2.2284  0.7660
 5058TIP3    H236734   0.705   2.390  -0.091 -0.4944  0.7246 -0.1722
 5059TIP3   OH236735   6.257   4.580   0.882 -0.4892  0.5220  0.6366
 5059TIP3    H136736   6.264   4.488   0.856 -0.3713 -0.5674  4.0955
 5059TIP3    H236737   6.320   4.626   0.825 -1.1287 -1.3143 -1.7220
 5060TIP3   OH236738   0.445   3.886   6.502 -0.3946 -0.1600  0.2648
 5060TIP3    H136739   0.518   3.939   6.536 -0.7721 -0.8161  2.1849
 5060TIP3    H236740   0.487   3.808   6.466 -0.1635 -0.8234  1.9234
 5061TIP3   OH236741   3.257   2.287   1.558  0.6233  0.1817  0.0282
 5061TIP3    H136742   3.252   2.295   1.462 -1.5374  0.5092  0.1121
 5061TIP3    H236743   3.316   2.358   1.584  0.3326  0.8404 -1.0002
 5062TIP3   OH236744   0.314   6.269   0.058  0.1270 -0.4256  0.3311
 5062TIP3    H136745   0.268   6.192   0.090 -1.5563  0.5855  0.4643
 5062TIP3    H236746   0.285   6.278  -0.033 -0.9264  0.9099  0.7714
 5063TIP3   OH236747   2.081   4.961   6.405 -0.0719  0.2280  0.4929
 5063TIP3    H136748   2.070   4.914   6.322  0.0962 -1.2375  1.2740
 5063TIP3    H236749   2.165   5.007   6.395  0.3441 -0.5919  0.1479
 5064TIP3   OH236750   4.369   4.407   0.069 -0.5840  0.4706 -0.4927
 5064TIP3    H136751   4.275   4.388   0.071 -0.8532  1.7455  0.7412
 5064TIP3    H236752   4.410   4.331   0.110 -1.1178  0.0920 -0.6506
 5065TIP3   OH236753   0.927   5.227   6.305  0.0250 -0.3720 -0.5825
 5065TIP3    H136754   0.928   5.184   6.219  0.0128 -2.2923  0.3109
 5065TIP3    H236755   0.960   5.160   6.365  0.1722  0.9772  0.8955
 5066TIP3   OH236756   3.418   5.009   8.036  0.0340  0.2469  0.2009
 5066TIP3    H136757   3.420   4.916   8.016 -0.0618  0.1800  0.5055
 5066TIP3    H236758   3.504   5.042   8.008  0.3146 -0.0549  0.6941
 5067TIP3   OH236759   2.287   2.016   1.892 -0.4654  0.3347  0.5167
 5067TIP3    H136760   2.281   2.077   1.818 -0.9516  1.6810  1.6354
 5067TIP3    H236761   2.196   1.988   1.906 -0.5325  0.9024  1.2568
 5068TIP3   OH236762   6.109   2.596   0.890 -0.6068  0.0749 -0.3108
 5068TIP3    H136763   6.167   2.525   0.916  0.9403  1.3827 -0.0182
 5068TIP3    H236764   6.163   2.651   0.833 -1.3150  1.7221  0.5308
 5069TIP3   OH236765   2.597   3.155   0.604  0.2795 -0.7854 -0.0582
 5069TIP3    H136766   2.666   3.091   0.622  1.3393  0.2216 -0.4165
 5069TIP3    H236767   2.625   3.234   0.649  0.3123  0.1918 -1.6910
 5070TIP3   OH236768   0.863   1.547   6.601 -0.1322 -0.4448 -0.0105
 5070TIP3    H136769   0.908   1.544   6.516 -1.5275 -2.5599 -0.7791
 5070TIP3    H236770   0.856   1.640   6.621  2.3958  0.0460 -0.9810
 5071TIP3   OH236771   6.055   0.407   8.458 -0.6231  0.3740 -0.3313
 5071TIP3    H136772   6.003   0.455   8.522  0.7117  1.0757  0.2496
 5071TIP3    H236773   6.077   0.325   8.502  2.4928  1.8894  1.2487
 5072TIP3   OH236774   2.075   2.749   7.869  0.1401 -0.4850 -0.0201
 5072TIP3    H136775   2.120   2.694   7.933  0.7270  0.1450  0.1224
 5072TIP3    H236776   2.114   2.725   7.785 -0.6842 -1.3669 -0.1735
 5073TIP3   OH236777   5.691   3.655   0.728 -0.1246 -0.2244  0.2472
 5073TIP3    H136778   5.738   3.587   0.679 -0.9681  0.8568 -2.1754
 5073TIP3    H236779   5.607   3.663   0.683 -1.3790  0.1584  2.5201
 5074TIP3   OH236780   4.958   2.435   7.595  0.3285 -0.0416 -0.2951
 5074TIP3    H136781   4.862   2.426   7.592  0.4521 -1.7148 -0.1849
 5074TIP3    H236782   4.973   2.523   7.628 -1.1688  1.1515 -2.5242
 5075TIP3   OH236783   1.827   3.230   0.642  0.4458  0.4195  0.2106
 5075TIP3    H136784   1.862   3.284   0.713 -0.9434  0.7235  0.6776
 5075TIP3    H236785   1.897   3.229   0.577  0.5759  2.6798  0.2372
 5076TIP3   OH236786   0.741   3.144   8.111  0.5326 -0.3401 -0.0544
 5076TIP3    H136787   0.705   3.058   8.135 -0.2441  0.0720  0.2830
 5076TIP3    H236788   0.801   3.125   8.039 -0.0090 -1.1077 -0.3223
 5077TIP3   OH236789   3.562   4.013   1.129 -0.3365 -0.4159  0.2192
 5077TIP3    H136790   3.535   4.103   1.108  1.7433  0.7941  2.2129
 5077TIP3    H236791   3.481   3.967   1.150 -1.4724  0.9176 -0.9862
 5078TIP3   OH236792   1.346   1.034   7.732 -0.2979 -0.0657  0.1623
 5078TIP3    H136793   1.260   0.997   7.713 -0.0481 -0.7479  0.3382
 5078TIP3    H236794   1.402   1.003   7.661  0.0769 -0.6197  0.6862
 5079TIP3   OH236795   2.782   5.646   8.572 -0.3875  0.2079  0.1382
 5079TIP3    H136796   2.687   5.647   8.585 -0.6222 -1.8935 -0.8989
 5079TIP3    H236797   2.800   5.558   8.538  1.9129  0.6353  0.1035
 5080TIP3   OH236798   5.808   4.318   1.272  0.0398 -0.5293  0.3887
 5080TIP3    H136799   5.804   4.360   1.186  0.7807  1.2774  1.1931
 5080TIP3    H236800   5.722   4.334   1.311 -0.1031 -0.8575  0.2122
 5081TIP3   OH236801   3.323   4.903   1.631 -0.3292 -0.4793 -0.1377
 5081TIP3    H136802   3.384   4.839   1.668 -1.1690 -2.1727 -1.5614
 5081TIP3    H236803   3.276   4.938   1.708  2.8742  1.5688  1.1336
 5082TIP3   OH236804   4.655   3.251   6.986 -0.0655 -0.0182  0.2361
 5082TIP3    H136805   4.719   3.316   7.014 -0.2573 -0.3191  1.4316
 5082TIP3    H236806   4.636   3.273   6.895  1.0855  0.5919  0.1314
 5083TIP3   OH236807   2.304   1.697   6.480  0.4552  0.7674 -0.1999
 5083TIP3    H136808   2.303   1.763   6.550 -0.2282  2.8582 -2.0400
 5083TIP3    H236809   2.214   1.665   6.476 -0.0278  2.1508 -1.3620
 5084TIP3   OH236810   6.701   3.388   0.883 -1.0612 -0.5847 -0.3835
 5084TIP3    H136811   6.741   3.303   0.901  1.3755  0.4354 -0.6354
 5084TIP3    H236812   6.715   3.402   0.789  1.2193  1.2812  0.1374
 5085TIP3   OH236813   5.723   3.135   7.598 -0.1172  0.3551  0.0691
 5085TIP3    H136814   5.694   3.151   7.508 -0.6567 -2.6232 -0.3856
 5085TIP3    H236815   5.814   3.108   7.589  0.7836  2.8924  0.7994
 5086TIP3   OH236816   4.343   6.343   8.271 -0.2181 -0.4656 -0.0498
 5086TIP3    H136817   4.309   6.254   8.263  0.9252 -0.9116 -0.2530
 5086TIP3    H236818   4.295   6.393   8.205 -0.6234 -1.0134 -0.1768
 5087TIP3   OH236819   1.570   4.692   7.861  0.0237  0.0948  0.3145
 5087TIP3    H136820   1.553   4.786   7.852 -0.2635  0.1085  0.9343
 5087TIP3    H236821   1.628   4.686   7.937  1.1366 -0.1274 -0.5303
 5088TIP3   OH236822   4.562   6.347   1.336  0.1468 -0.2834  0.9345
 5088TIP3    H136823   4.620   6.389   1.400 -1.2701  0.4362  1.8051
 5088TIP3    H236824   4.595   6.376   1.251 -0.3388  2.0878  1.4779
 5089TIP3   OH236825   6.452   0.902   0.483 -0.0163  0.0472 -0.2553
 5089TIP3    H136826   6.421   0.947   0.405  0.6065  0.4623 -0.2740
 5089TIP3    H236827   6.402   0.820   0.485 -0.8951  0.5651 -0.4210
 5090TIP3   OH236828   2.944   6.351   1.712 -0.3202 -0.9409 -0.4551
 5090TIP3    H136829   2.938   6.365   1.806 -0.7914 -0.8789 -0.4921
 5090TIP3    H236830   2.938   6.438   1.674  1.8691 -0.7537 -0.4656
 5091TIP3   OH236831   6.209   2.356   8.278  0.1101 -0.0729 -0.4866
 5091TIP3    H136832   6.146   2.292   8.246 -0.5465  1.0708 -1.5983
 5091TIP3    H236833   6.277   2.358   8.211  0.3924  0.0111 -0.2005
 5092TIP3   OH236834   0.078   3.553   0.233 -0.1930 -0.0289  0.8970
 5092TIP3    H136835   0.129   3.630   0.210  1.5251 -0.4978  2.7991
 5092TIP3    H236836   0.125   3.480   0.191 -1.3507 -0.1507 -0.2343
 5093TIP3   OH236837   0.575   5.743   6.083 -0.5226  0.0777  0.0112
 5093TIP3    H136838   0.609   5.796   6.011  1.0203 -0.5668  0.2413
 5093TIP3    H236839   0.544   5.663   6.041  0.9294 -0.5546  0.0982
 5094TIP3   OH236840   3.521   5.238   8.467 -0.0385  0.0672  0.2176
 5094TIP3    H136841   3.458   5.195   8.524 -0.5411  1.5863  0.8745
 5094TIP3    H236842   3.483   5.324   8.450  1.6243  0.8561  0.2346
 5095TIP3   OH236843   0.161   4.969   0.260 -0.0828 -0.0204  0.4442
 5095TIP3    H136844   0.170   5.053   0.305 -0.1560  0.1971  0.0596
 5095TIP3    H236845   0.068   4.964   0.237 -0.1937 -0.4655  0.9545
 5096TIP3   OH236846   4.496   4.238   7.874  0.3811 -0.0849  0.0378
 5096TIP3    H136847   4.427   4.297   7.904 -0.8062 -1.1511 -0.5001
 5096TIP3    H236848   4.565   4.248   7.939  0.1978  1.8120  0.0210
 5097TIP3   OH236849   5.434   1.447   8.335 -0.1715 -0.4049 -0.4094
 5097TIP3    H136850   5.514   1.484   8.298 -0.6380 -0.0085 -1.0386
 5097TIP3    H236851   5.364   1.480   8.279 -0.8607 -0.0923  0.6098
 5098TIP3   OH236852   4.994   3.643   1.928  0.2160 -0.5708 -0.5017
 5098TIP3    H136853   5.036   3.699   1.993  0.1428 -0.9557 -0.1191
 5098TIP3    H236854   4.903   3.671   1.928  0.7032  1.3321 -2.4378
 5099TIP3   OH236855   3.496   0.661   7.845  0.4232 -0.0317 -0.8651
 5099TIP3    H136856   3.495   0.721   7.770  0.0783 -1.7523 -2.3160
 5099TIP3    H236857   3.460   0.580   7.811 -1.6718 -0.3240  1.7406
 5100TIP3   OH236858   2.279   1.612   7.248  0.0302  0.1215  0.1249
 5100TIP3    H136859   2.352   1.558   7.219 -0.4965  0.1813 -1.4312
 5100TIP3    H236860   2.222   1.552   7.297  0.1454 -0.4104 -0.3772
 5101TIP3   OH236861   1.095   1.491   1.044 -0.2844 -0.2847  0.1906
 5101TIP3    H136862   1.061   1.416   0.996  1.0094 -0.7204 -0.0815
 5101TIP3    H236863   1.023   1.519   1.100 -0.6639 -1.9465  0.5563
 5102TIP3   OH236864   5.172   0.585   6.588 -0.3834 -0.8258 -0.1143
 5102TIP3    H136865   5.178   0.501   6.542 -0.4646 -0.8826 -0.0231
 5102TIP3    H236866   5.252   0.590   6.639 -0.8191 -1.3010  0.6336
 5103TIP3   OH236867   0.670   5.913   0.382  0.0225  0.0165  0.5136
 5103TIP3    H136868   0.597   5.873   0.336  0.6402  0.1482 -0.6200
 5103TIP3    H236869   0.655   5.893   0.474 -0.5839 -1.3351  0.1368
 5104TIP3   OH236870   2.440   2.123   6.793  0.5487  0.1492 -0.4533
 5104TIP3    H136871   2.356   2.156   6.826  0.2120  0.6891 -1.7981
 5104TIP3    H236872   2.482   2.200   6.755  2.0946  0.0875  1.0298
 5105TIP3   OH236873   0.939   1.478   2.607 -0.7337  0.2253  0.5537
 5105TIP3    H136874   0.938   1.429   2.525 -2.3752 -2.8138  2.2062
 5105TIP3    H236875   0.873   1.547   2.595  0.0365  0.7277 -1.0800
 5106TIP3   OH236876   0.112   4.074   6.635  0.5892  0.5713  0.0505
 5106TIP3    H136877   0.053   4.080   6.560 -0.4949  1.5413  0.9590
 5106TIP3    H236878   0.100   4.156   6.683  1.5132  0.1150  1.1142
 5107TIP3   OH236879   4.259   5.289   8.389  0.0291  0.2474 -0.1729
 5107TIP3    H136880   4.288   5.260   8.476 -0.5134  1.8822  0.5880
 5107TIP3    H236881   4.333   5.267   8.331  0.2544 -1.1956  0.5981
 5108TIP3   OH236882   4.030   6.677   0.286 -0.5707 -0.5986  0.7013
 5108TIP3    H136883   4.021   6.757   0.233 -2.7608 -0.5840  1.0116
 5108TIP3    H236884   4.115   6.686   0.328  0.2492  0.4691 -1.0580
 5109TIP3   OH236885   4.668   1.877   8.575 -0.1619  0.1408  0.2574
 5109TIP3    H136886   4.660   1.881   8.480 -3.6135 -3.7919  0.1098
 5109TIP3    H236887   4.728   1.804   8.591  0.0669  0.5035  1.1338
 5110TIP3   OH236888   0.014   4.469   6.991  0.0519 -0.4281 -0.2078
 5110TIP3    H136889  -0.000   4.500   6.902  0.6640 -1.8430 -0.8373
 5110TIP3    H236890  -0.073   4.440   7.020 -0.4098  1.2328  0.1794
 5111TIP3   OH236891   5.930   1.106   0.515  0.2855 -0.4458  0.5628
 5111TIP3    H136892   5.836   1.122   0.508 -0.1256 -2.4303  1.0455
 5111TIP3    H236893   5.937   1.018   0.552  2.3357  0.0956  1.6222
 5112TIP3   OH236894   0.055   5.110   7.724  0.2358 -0.0137  0.3757
 5112TIP3    H136895   0.023   5.045   7.661  1.0311 -0.8271  0.7804
 5112TIP3    H236896   0.030   5.074   7.810  2.9983 -1.2243  0.7929
 5113TIP3   OH236897   4.991   1.564   6.480  0.0262  0.3660 -0.4566
 5113TIP3    H136898   5.021   1.485   6.436 -0.1120 -0.6174  1.1448
 5113TIP3    H236899   4.942   1.612   6.413  0.4295 -0.7045 -1.5462
 5114TIP3   OH236900   0.234   2.936   1.060 -0.3502 -0.4269  0.0899
 5114TIP3    H136901   0.162   2.888   1.102 -0.2998  0.2222  0.9609
 5114TIP3    H236902   0.303   2.937   1.126 -0.5293  1.2499  0.3083
 5115TIP3   OH236903   0.448   4.689   1.868 -0.0007 -0.1546 -0.1321
 5115TIP3    H136904   0.395   4.678   1.947 -0.1446  0.1407 -0.1861
 5115TIP3    H236905   0.392   4.739   1.809  0.0067 -0.6038 -0.5213
 5116TIP3   OH236906   6.211   1.527   8.289  0.1985  0.3398 -0.6110
 5116TIP3    H136907   6.287   1.470   8.287 -0.2504 -0.2635 -0.6823
 5116TIP3    H236908   6.195   1.549   8.198  1.2445  1.7769 -0.4804
 5117TIP3   OH236909   4.866   4.351   2.047 -0.3967 -0.0551 -0.0929
 5117TIP3    H136910   4.922   4.405   1.991  0.9091  1.4098  2.4538
 5117TIP3    H236911   4.824   4.413   2.106 -0.1049 -1.6652  1.9049
 5118TIP3   OH236912   3.487   0.821   7.620 -0.2283  0.5567 -0.1491
 5118TIP3    H136913   3.418   0.852   7.562 -0.7624  0.4862  0.4393
 5118TIP3    H236914   3.567   0.862   7.586 -0.1636 -1.0379 -2.1595
 5119TIP3   OH236915   1.740   5.762   7.992  0.4587 -0.0705  0.3412
 5119TIP3    H136916   1.701   5.676   7.973  2.3951 -1.0072  0.4066
 5119TIP3    H236917   1.829   5.756   7.958  1.6135  0.8659  2.9287
 5120TIP3   OH236918   0.327   2.375   0.554  0.4163 -0.2731 -0.4310
 5120TIP3    H136919   0.388   2.304   0.536  0.8043 -0.0830  0.1419
 5120TIP3    H236920   0.366   2.452   0.512  1.0123  0.0350  0.6413
 5121TIP3   OH236921   1.733   3.735   0.030  0.1665  0.2488  0.0458
 5121TIP3    H136922   1.700   3.753   0.118  1.9191 -0.4167  0.8904
 5121TIP3    H236923   1.770   3.818   0.001 -0.9820  0.6368 -0.3471
 5122TIP3   OH236924   3.795   0.364   0.035 -0.2298 -0.2695  0.0234
 5122TIP3    H136925   3.702   0.342   0.031 -0.0037 -1.1545 -0.7926
 5122TIP3    H236926   3.801   0.432   0.101 -1.5482  0.2384 -0.3531
 5123TIP3   OH236927   4.928   0.807   1.628  0.6666  0.1613 -0.2013
 5123TIP3    H136928   5.003   0.803   1.688  0.4747 -1.6949 -0.0329
 5123TIP3    H236929   4.968   0.816   1.541  1.0027  1.1442  0.0440
 5124TIP3   OH236930   0.207   5.335   7.633  0.2227 -0.1880  0.0615
 5124TIP3    H136931   0.170   5.251   7.662  1.3971 -0.5382  0.5920
 5124TIP3    H236932   0.163   5.400   7.687 -0.0318 -0.5432  0.2899
 5125TIP3   OH236933   1.508   4.583   8.278 -0.7154  0.1331 -0.1242
 5125TIP3    H136934   1.452   4.566   8.202 -1.7816  1.6527  0.2682
 5125TIP3    H236935   1.592   4.609   8.240 -0.3573 -1.7391 -0.7258
 5126TIP3   OH236936   3.902   0.880   8.141  0.0358 -0.2003  0.0759
 5126TIP3    H136937   3.827   0.913   8.190  0.6908  1.1420  0.2087
 5126TIP3    H236938   3.863   0.836   8.065 -0.8724  1.2639 -0.3355
 5127TIP3   OH236939   5.212   0.106   7.489 -0.2415 -0.5045  0.0385
 5127TIP3    H136940   5.141   0.044   7.507 -2.6291  2.0629  0.1052
 5127TIP3    H236941   5.170   0.179   7.444  2.1285  1.7128  1.1466
 5128TIP3   OH236942   0.210   1.506   0.265 -0.0413  0.3306  0.0321
 5128TIP3    H136943   0.161   1.500   0.182 -0.5690  1.4790  0.2427
 5128TIP3    H236944   0.233   1.416   0.285 -0.5736 -0.0519 -0.9772
 5129TIP3   OH236945   2.313   3.807   1.110  0.0031  0.2958 -0.5562
 5129TIP3    H136946   2.375   3.736   1.099  0.6473  0.4856  1.5184
 5129TIP3    H236947   2.324   3.837   1.200 -2.5268  0.8864 -0.3380
 5130TIP3   OH236948   3.773   0.405   2.043 -0.0757  0.0593  0.3827
 5130TIP3    H136949   3.838   0.407   1.973 -0.2258  1.9540  0.2249
 5130TIP3    H236950   3.816   0.361   2.116  0.7365 -0.2986 -0.3006
 5131TIP3   OH236951   4.433   4.651   0.252 -0.1916  0.0393 -0.0832
 5131TIP3    H136952   4.474   4.657   0.338 -0.3236 -0.0067 -0.0169
 5131TIP3    H236953   4.437   4.558   0.230 -0.4595  0.0020  0.0218
 5132TIP3   OH236954   2.177   0.990   8.665  0.5449  0.8279 -0.2408
 5132TIP3    H136955   2.172   1.017   8.573 -0.5352  0.8105 -0.2025
 5132TIP3    H236956   2.214   1.066   8.710 -0.5707  1.5212 -0.4431
 5133TIP3   OH236957   3.104   3.721   7.448  0.5903 -0.9357 -0.0663
 5133TIP3    H136958   3.034   3.744   7.508  1.4299  0.2710  0.5062
 5133TIP3    H236959   3.068   3.653   7.393 -1.2080  0.0402 -0.1528
 5134TIP3   OH236960   6.753   1.752   0.988 -0.2201 -0.3685  0.0315
 5134TIP3    H136961   6.732   1.659   0.981  1.2977 -0.8177  0.9269
 5134TIP3    H236962   6.692   1.785   1.054  0.5547 -1.2204  1.2278
 5135TIP3   OH236963   2.702   0.214   0.317  0.0560 -0.1535 -0.2713
 5135TIP3    H136964   2.772   0.212   0.251  0.2524 -1.4774 -0.0427
 5135TIP3    H236965   2.630   0.259   0.273  0.6475  0.1904 -0.9136
 5136TIP3   OH236966   1.729   0.332   7.778  0.2166 -0.1332 -0.4703
 5136TIP3    H136967   1.714   0.301   7.688  1.6560  2.0163 -1.5518
 5136TIP3    H236968   1.781   0.412   7.767 -1.1823  1.2953  2.2022
 5137TIP3   OH236969   4.603   5.847   8.598 -0.1461  0.1642 -0.1653
 5137TIP3    H136970   4.629   5.807   8.515  0.8045 -0.3338  0.3513
 5137TIP3    H236971   4.686   5.874   8.638 -0.6153  0.6425  0.4998
 5138TIP3   OH236972   2.856   1.739   1.526  0.7362 -0.0978  0.4177
 5138TIP3    H136973   2.804   1.672   1.571  0.5806  0.5579  1.2341
 5138TIP3    H236974   2.791   1.800   1.490  0.9125  0.2826  0.7413
 5139TIP3   OH236975   4.645   5.810   7.102  0.0522 -0.2821 -0.1616
 5139TIP3    H136976   4.653   5.744   7.032 -0.5351 -0.1206 -0.3815
 5139TIP3    H236977   4.701   5.777   7.172 -0.1523 -0.9684 -0.3128
 5140TIP3   OH236978   3.513   1.496   0.633 -0.5663  0.4336  0.3832
 5140TIP3    H136979   3.477   1.424   0.581  1.0687  0.1114 -0.3729
 5140TIP3    H236980   3.476   1.575   0.594  1.5361  0.2965 -2.1980
 5141TIP3   OH236981   0.997   4.960   0.387 -0.2390 -0.1103 -0.1160
 5141TIP3    H136982   0.949   4.913   0.455 -1.4766  1.2854  0.0389
 5141TIP3    H236983   1.027   4.892   0.327  1.8700 -1.5000  2.3435
 5142TIP3   OH236984   2.144   4.890   0.369 -0.3776 -0.3103 -0.4497
 5142TIP3    H136985   2.204   4.896   0.294 -0.1085 -3.6531 -0.6503
 5142TIP3    H236986   2.175   4.957   0.430  3.1621 -1.3475 -0.8678
 5143TIP3   OH236987   5.558   0.520   2.427  0.2423 -0.3358 -0.5023
 5143TIP3    H136988   5.495   0.518   2.356 -0.8700 -1.4013  0.4614
 5143TIP3    H236989   5.559   0.611   2.456 -0.8938 -0.3106 -0.5147
 5144TIP3   OH236990   3.855   3.373   1.198  0.6292 -0.1098 -0.1016
 5144TIP3    H136991   3.857   3.465   1.171 -0.3295  0.2804  1.0681
 5144TIP3    H236992   3.919   3.368   1.269  0.4756 -0.2780  0.0264
 5145TIP3   OH236993   2.064   3.454   7.246 -0.1543  0.3562  0.0591
 5145TIP3    H136994   2.038   3.365   7.226  1.6439  0.3289 -2.6102
 5145TIP3    H236995   2.032   3.506   7.173 -0.4341  1.7862  1.1452
 5146TIP3   OH236996   5.341   5.496   7.407 -0.2015 -0.2224  0.5785
 5146TIP3    H136997   5.385   5.559   7.464  2.0703 -2.1797  1.2118
 5146TIP3    H236998   5.327   5.542   7.325  1.3126  1.1180  1.0277
 5147TIP3   OH236999   4.704   3.638   6.591  0.0541  0.5337 -0.3236
 5147TIP3    H137000   4.706   3.693   6.513 -0.9022  0.6137 -0.3017
 5147TIP3    H237001   4.631   3.577   6.576  1.5895 -1.3092 -0.7280
 5148TIP3   OH237002   4.183   0.144   0.501 -0.0492  0.3674  0.0495
 5148TIP3    H137003   4.103   0.096   0.479  1.2516 -1.1029 -1.8662
 5148TIP3    H237004   4.218   0.101   0.578  0.7252 -1.4267 -1.2365
 5149TIP3   OH237005   3.796   1.937   1.868  0.5329  0.2203 -0.3430
 5149TIP3    H137006   3.863   1.872   1.889 -0.0205 -0.0544  0.6427
 5149TIP3    H237007   3.728   1.888   1.822 -0.5058 -0.2343  1.5592
 5150TIP3   OH237008   4.661   6.709   6.715 -0.0283  0.2071 -0.2291
 5150TIP3    H137009   4.583   6.763   6.724 -0.7782 -0.4189 -2.3545
 5150TIP3    H237010   4.662   6.683   6.623  1.8670 -1.0580  0.0815
 5151TIP3   OH237011   3.708   4.582   7.235  0.1269 -0.4387  0.1113
 5151TIP3    H137012   3.693   4.513   7.300  1.0317 -0.7548  0.0032
 5151TIP3    H237013   3.679   4.544   7.152  0.4617 -0.6308  0.0799
 5152TIP3   OH237014   0.517   2.500   1.148 -0.4317  0.4050 -0.1729
 5152TIP3    H137015   0.557   2.428   1.195 -2.5518 -0.8438 -0.1454
 5152TIP3    H237016   0.589   2.559   1.128  1.1944 -1.1744  0.7641
 5153TIP3   OH237017   3.824   2.238   6.113 -0.7159 -0.3731 -0.1026
 5153TIP3    H137018   3.825   2.279   6.200 -3.6165 -0.6152  0.1650
 5153TIP3    H237019   3.913   2.246   6.081  0.5873 -0.7209  3.0938
 5154TIP3   OH237020   1.884   4.363   6.157  0.3263 -0.5722 -0.2286
 5154TIP3    H137021   1.962   4.416   6.171 -0.4213  0.0529  1.9901
 5154TIP3    H237022   1.817   4.426   6.129 -0.0030 -0.6893  0.2772
 5155TIP3   OH237023   4.750   4.384   8.392  0.0708 -0.1318 -0.5361
 5155TIP3    H137024   4.666   4.402   8.436  0.9954 -0.9659  1.7297
 5155TIP3    H237025   4.809   4.452   8.424  0.4537  0.0551 -1.6035
 5156TIP3   OH237026   1.988   5.281   0.188 -0.3655 -0.0721  0.1594
 5156TIP3    H137027   1.995   5.190   0.160  1.0086 -0.0068  0.2564
 5156TIP3    H237028   1.912   5.281   0.247 -2.1633 -0.5724 -2.0073
 5157TIP3   OH237029   0.586   0.226   8.640  0.2342 -0.5073 -0.5534
 5157TIP3    H137030   0.556   0.316   8.648  0.1171 -0.5161 -0.8740
 5157TIP3    H237031   0.594   0.211   8.546 -0.9216 -1.2151 -0.5544
 5158TIP3   OH237032   0.378   0.701   1.833  0.3776  0.3357  0.0442
 5158TIP3    H137033   0.453   0.663   1.788  1.1555  1.4064  0.3994
 5158TIP3    H237034   0.302   0.658   1.793  1.2034 -1.7323  0.5825
 5159TIP3   OH237035   3.616   1.781   0.714  0.3680  0.6790 -1.1186
 5159TIP3    H137036   3.571   1.796   0.630  2.8837  1.7508 -2.3904
 5159TIP3    H237037   3.660   1.698   0.703  0.9864  0.9889 -1.0069
 5160TIP3   OH237038   2.648   2.358   0.436 -0.0020 -0.1551  0.3915
 5160TIP3    H137039   2.719   2.345   0.372 -0.5721 -3.8666  0.3248
 5160TIP3    H237040   2.568   2.339   0.387 -0.9565  1.8590  1.0430
 5161TIP3   OH237041   4.236   4.587   1.194  0.1613  0.0022 -0.2543
 5161TIP3    H137042   4.181   4.547   1.127  1.2977 -1.0288 -0.6130
 5161TIP3    H237043   4.303   4.521   1.213  0.8089  0.9001  0.7420
 5162TIP3   OH237044   0.281   0.251   8.031 -0.0876  0.0901  0.0151
 5162TIP3    H137045   0.371   0.284   8.040  0.7624 -1.6448 -1.3411
 5162TIP3    H237046   0.279   0.212   7.943 -1.1613 -2.6778  1.1403
 5163TIP3   OH237047   3.618   0.667   0.933 -0.6903  0.2330 -0.1250
 5163TIP3    H137048   3.595   0.760   0.935 -1.1258  0.1190  0.1915
 5163TIP3    H237049   3.693   0.660   0.993  0.5678  0.6923 -1.5570
 5164TIP3   OH237050   2.596   4.345   1.822 -0.0502 -0.5253  0.0596
 5164TIP3    H137051   2.597   4.347   1.918 -1.0640  1.1507  0.0624
 5164TIP3    H237052   2.688   4.342   1.797  0.2822  0.4549  1.0803
 5165TIP3   OH237053   3.150   5.680   7.606  0.1627  0.7010 -0.5109
 5165TIP3    H137054   3.117   5.644   7.688 -2.0994  2.1695 -0.6974
 5165TIP3    H237055   3.183   5.604   7.559  2.0789 -0.1136  1.9252
 5166TIP3   OH237056   6.758   2.746   0.224  0.3467 -0.0394 -0.0786
 5166TIP3    H137057   6.719   2.701   0.149  0.1843 -0.7321  0.4223
 5166TIP3    H237058   6.696   2.816   0.245  0.4260  0.2031 -0.6284
 5167TIP3   OH237059   1.808   3.209   6.911 -0.0674  0.5123  0.5123
 5167TIP3    H137060   1.788   3.283   6.854  0.8494  0.0743 -0.3987
 5167TIP3    H237061   1.742   3.143   6.889  1.1561 -0.2136 -1.1252
 5168TIP3   OH237062   5.478   1.484   0.672 -0.2246 -0.2246  0.2914
 5168TIP3    H137063   5.425   1.562   0.657  0.3940  0.2694  0.5997
 5168TIP3    H237064   5.463   1.428   0.596 -1.1419 -0.0739  0.3555
 5169TIP3   OH237065   5.462   1.942   8.049  0.1505  0.0508 -0.2262
 5169TIP3    H137066   5.444   1.977   7.962 -0.0406 -2.2457 -1.1555
 5169TIP3    H237067   5.383   1.961   8.100 -0.3371  0.0614 -0.9806
 5170TIP3   OH237068   3.956   6.628   0.640  0.1445  0.1097  0.1600
 5170TIP3    H137069   3.974   6.722   0.640  1.1202 -0.0399  1.9344
 5170TIP3    H237070   3.982   6.598   0.727 -0.3148 -1.7858 -0.3038
 5171TIP3   OH237071   1.680   5.843   6.854 -0.0925  0.4568 -0.4061
 5171TIP3    H137072   1.689   5.748   6.865  1.0869  0.4772 -1.0047
 5171TIP3    H237073   1.754   5.867   6.798 -0.8516  1.6181 -0.9267
 5172TIP3   OH237074   5.072   6.853   7.838  0.5510  0.3852 -0.1281
 5172TIP3    H137075   5.157   6.830   7.876 -1.4755 -0.6761  4.4155
 5172TIP3    H237076   5.027   6.769   7.828 -0.5521  1.0431 -0.9354
 5173TIP3   OH237077   2.793   5.400   8.442  0.3679 -0.3187  0.1202
 5173TIP3    H137078   2.869   5.345   8.422 -0.1571 -0.2839 -2.2403
 5173TIP3    H237079   2.759   5.426   8.357 -0.1539  2.6911  1.1421
 5174TIP3   OH237080   3.388   1.777   0.195  0.1788 -0.4358  0.2053
 5174TIP3    H137081   3.293   1.783   0.182  0.3813 -0.6455 -1.6338
 5174TIP3    H237082   3.408   1.684   0.185  0.5164 -0.5172  1.3763
 5175TIP3   OH237083   1.799   2.363   8.411 -0.4283 -0.1700 -0.0937
 5175TIP3    H137084   1.797   2.385   8.318  0.8765  0.6709  0.0645
 5175TIP3    H237085   1.716   2.396   8.446  0.6550  3.0341 -0.2229
 5176TIP3   OH237086   5.307   1.662   1.022  0.6394  0.0392 -0.1796
 5176TIP3    H137087   5.383   1.632   1.072 -0.5632 -0.9625  1.1083
 5176TIP3    H237088   5.257   1.582   1.005  0.6757  0.4365 -2.4817
 5177TIP3   OH237089   2.846   2.245   8.098  0.4278  0.4523  0.0073
 5177TIP3    H137090   2.831   2.328   8.053  0.3649  0.7229  0.5271
 5177TIP3    H237091   2.788   2.247   8.174  0.4377 -0.0589  0.0291
 5178TIP3   OH237092   0.817   5.109   1.873  0.2366  0.5584  0.0093
 5178TIP3    H137093   0.833   5.043   1.941  1.8750  0.4831 -0.4137
 5178TIP3    H237094   0.723   5.102   1.855 -0.0942  0.0511  1.7104
 5179TIP3   OH237095   0.640   1.170   8.053 -0.3203  0.1681 -0.1078
 5179TIP3    H137096   0.685   1.088   8.073 -0.1549  0.2078 -0.3189
 5179TIP3    H237097   0.673   1.232   8.118 -0.0551  0.2031 -0.2759
 5180TIP3   OH237098   2.225   6.047   7.666 -0.4483  0.0082 -0.6524
 5180TIP3    H137099   2.298   6.086   7.715 -0.2703 -0.0572 -0.8648
 5180TIP3    H237100   2.147   6.075   7.714 -0.2827  0.0491 -0.4022
 5181TIP3   OH237101   6.527   0.667   6.648  0.3490  0.2115  0.3653
 5181TIP3    H137102   6.479   0.749   6.647  0.1225  0.0995 -1.4899
 5181TIP3    H237103   6.602   0.682   6.590  0.0215 -1.0224 -0.4155
 5182TIP3   OH237104   3.570   5.964   6.438  0.0649 -0.4797  0.5370
 5182TIP3    H137105   3.650   6.008   6.409 -0.0445 -0.8352 -0.3456
 5182TIP3    H237106   3.572   5.879   6.394 -1.1084 -0.2453 -0.0087
 5183TIP3   OH237107   4.511   6.575   2.071 -0.2376  0.0211 -0.0523
 5183TIP3    H137108   4.518   6.479   2.074 -1.6694 -0.0955  0.4932
 5183TIP3    H237109   4.490   6.600   2.161  0.7642  0.9325 -0.0476
 5184TIP3   OH237110   0.541   4.653   0.924  0.6251 -0.4397  0.1206
 5184TIP3    H137111   0.581   4.739   0.914 -0.2567  0.0377  0.5148
 5184TIP3    H237112   0.483   4.662   1.000 -1.6267 -0.5304 -1.4985
 5185TIP3   OH237113   0.796   1.278   1.325 -0.2682  0.7580  0.0208
 5185TIP3    H137114   0.855   1.315   1.391  2.3409  0.2078 -1.8483
 5185TIP3    H237115   0.720   1.337   1.326  0.8458  2.2993  1.6304
 5186TIP3   OH237116   3.946   2.430   0.636 -0.3775 -0.3055 -0.1355
 5186TIP3    H137117   3.962   2.336   0.631  0.5401 -0.1325 -0.7165
 5186TIP3    H237118   4.009   2.462   0.701 -1.4641 -0.2490  0.9117
 5187TIP3   OH237119   1.005   4.427   8.002  0.6142  0.3050 -0.0141
 5187TIP3    H137120   1.094   4.400   8.027 -0.1384 -0.1944  2.3342
 5187TIP3    H237121   1.015   4.516   7.969  1.9476  0.3881  0.5608
 5188TIP3   OH237122   3.363   1.505   0.196  0.2926  0.0561  0.6422
 5188TIP3    H137123   3.381   1.435   0.134 -1.0326  0.0022  0.2783
 5188TIP3    H237124   3.320   1.461   0.270 -0.4873  0.4523  0.4411
 5189TIP3   OH237125   3.277   5.619   0.233 -0.3586 -0.2560  0.8443
 5189TIP3    H137126   3.263   5.571   0.315 -0.1901 -1.4009  0.2142
 5189TIP3    H237127   3.195   5.667   0.219 -1.2687 -1.8378  0.5323
 5190TIP3   OH237128   2.969   5.463   0.650  0.5367 -0.4556  0.1941
 5190TIP3    H137129   2.982   5.391   0.589  0.0630 -0.9013  0.6075
 5190TIP3    H237130   2.926   5.531   0.599 -0.4799 -1.0842  0.1802
 5191TIP3   OH237131   3.556   5.173   7.845 -0.8320 -0.1831 -0.3773
 5191TIP3    H137132   3.649   5.159   7.858 -0.8132  0.6022  0.5329
 5191TIP3    H237133   3.543   5.169   7.750  1.0221  4.4477 -1.1366
 5192TIP3   OH237134   4.419   2.071   8.393 -0.3175 -0.4164 -0.4278
 5192TIP3    H137135   4.450   2.007   8.330  1.7061 -0.2264  0.3253
 5192TIP3    H237136   4.423   2.027   8.477  2.4073  1.0048  0.2983
 5193TIP3   OH237137   1.433   3.902   0.739  0.1384 -0.0051  0.2251
 5193TIP3    H137138   1.362   3.935   0.793 -0.2177 -3.0793  1.8993
 5193TIP3    H237139   1.506   3.961   0.756 -1.3082  1.8150  0.3378
 5194TIP3   OH237140   5.115   1.425   0.772  0.4633 -0.0845  0.3866
 5194TIP3    H137141   5.158   1.479   0.706  0.9486 -1.0423 -0.0996
 5194TIP3    H237142   5.065   1.361   0.722 -3.0843  2.0687  0.8698
 5195TIP3   OH237143   6.196   3.638   0.649  0.3256  0.1838  0.1728
 5195TIP3    H137144   6.203   3.546   0.675 -1.0046  0.5637  2.0886
 5195TIP3    H237145   6.108   3.645   0.612  0.4852  0.6556 -0.1223
 5196TIP3   OH237146   5.360   2.645   6.789 -0.0408 -0.0196  0.4265
 5196TIP3    H137147   5.386   2.723   6.838  1.1269 -0.9374  1.3560
 5196TIP3    H237148   5.330   2.584   6.856 -2.4194  0.1154 -0.4134
 5197TIP3   OH237149   2.321   3.864   8.274 -0.3390 -0.3998  0.5883
 5197TIP3    H137150   2.252   3.926   8.298 -0.1604 -0.5885  1.6212
 5197TIP3    H237151   2.282   3.808   8.207 -0.9855 -0.1252  0.7353
 5198TIP3   OH237152   5.224   3.734   1.406 -0.1721  0.1623  0.7210
 5198TIP3    H137153   5.141   3.708   1.447 -0.9300  2.4005  0.7232
 5198TIP3    H237154   5.223   3.829   1.407  2.1788  0.2586  0.1960
 5199TIP3   OH237155   5.308   5.023   1.083 -0.1073 -0.2823  0.7758
 5199TIP3    H137156   5.350   5.006   1.167  0.4936 -0.9798  0.3455
 5199TIP3    H237157   5.233   4.964   1.080  0.4666 -1.0077  0.3955
 5200TIP3   OH237158   6.538   3.827   6.405  0.0258  0.5135  0.6130
 5200TIP3    H137159   6.547   3.737   6.373 -1.1481  0.4018  0.5482
 5200TIP3    H237160   6.463   3.862   6.358 -0.2007  1.1708  1.4349
 5201TIP3   OH237161   3.458   3.576   6.894 -0.5925 -0.2898  0.0899
 5201TIP3    H137162   3.402   3.560   6.970 -0.3793  0.1865  0.3535
 5201TIP3    H237163   3.541   3.533   6.916 -0.7491 -0.7295 -0.1670
 5202TIP3   OH237164   4.844   2.402   6.300  0.2984  0.6189 -1.1610
 5202TIP3    H137165   4.845   2.478   6.241  2.9110  2.7045  1.2630
 5202TIP3    H237166   4.930   2.362   6.289  1.0334  1.3150  1.3467
 5203TIP3   OH237167   1.870   6.838   1.256  0.4553 -0.0213 -0.4096
 5203TIP3    H137168   1.957   6.877   1.254  0.4924 -0.1189 -1.3479
 5203TIP3    H237169   1.867   6.782   1.179 -0.9893  1.2482 -1.3599
 5204TIP3   OH237170   3.065   6.562   0.743  0.5681 -0.0012 -0.6968
 5204TIP3    H137171   3.155   6.585   0.724  0.3112  0.0027 -1.9532
 5204TIP3    H237172   3.012   6.623   0.692 -0.1421 -0.2309 -0.2565
 5205TIP3   OH237173   3.932   3.713   7.953  0.0156 -0.5198 -0.0400
 5205TIP3    H137174   3.972   3.773   8.016 -0.7663 -0.5092  0.4517
 5205TIP3    H237175   3.936   3.760   7.870  3.1319 -1.4057 -0.5469
 5206TIP3   OH237176   0.183   6.149   8.321  0.7425 -0.2097 -0.4266
 5206TIP3    H137177   0.215   6.131   8.233  0.1707 -2.4662 -0.2373
 5206TIP3    H237178   0.260   6.146   8.377  1.0041  0.5060 -0.7377
 5207TIP3   OH237179   0.611   0.790   7.838 -0.1904  0.0897 -0.1827
 5207TIP3    H137180   0.640   0.878   7.816  0.8262 -0.7111 -2.4151
 5207TIP3    H237181   0.691   0.738   7.839 -0.9716 -1.2127 -1.2729
 5208TIP3   OH237182   5.703   5.135   1.754  0.1191 -0.5579  0.5780
 5208TIP3    H137183   5.786   5.088   1.747 -0.5835 -1.6783 -0.7994
 5208TIP3    H237184   5.699   5.189   1.675 -0.8954 -1.2873  0.1081
 5209TIP3   OH237185   5.810   5.173   8.465 -0.4731  0.3610 -0.0969
 5209TIP3    H137186   5.750   5.104   8.439 -0.3405 -0.2240  1.0921
 5209TIP3    H237187   5.764   5.221   8.534  0.3986 -0.1117  0.8511
 5210TIP3   OH237188   6.274   5.334   0.907 -0.4910 -0.1938 -0.0562
 5210TIP3    H137189   6.296   5.296   0.992 -0.5896 -0.7171 -0.2602
 5210TIP3    H237190   6.346   5.393   0.887 -0.4809 -0.0476  0.4027
 5211TIP3   OH237191   6.087   2.289   0.985  0.8503  0.5703  0.0819
 5211TIP3    H137192   6.177   2.297   1.015  1.1495  0.9776 -0.8718
 5211TIP3    H237193   6.094   2.266   0.892 -0.0309  0.0344  0.1287
 5212TIP3   OH237194   2.643   2.881   7.145 -0.1644  0.6881 -0.1628
 5212TIP3    H137195   2.684   2.820   7.083 -0.3715  0.1497  0.2214
 5212TIP3    H237196   2.713   2.942   7.168 -0.2555  1.3082 -1.4320
 5213TIP3   OH237197   0.523   0.173   8.314 -0.1683  0.0154  0.6834
 5213TIP3    H137198   0.565   0.093   8.281 -1.2211 -0.2982  0.0534
 5213TIP3    H237199   0.430   0.162   8.293 -0.5243  0.8566  1.7161
 5214TIP3   OH237200   0.231   2.439   0.229  0.3877  0.1403  0.4178
 5214TIP3    H137201   0.190   2.491   0.159  0.9616 -0.8430 -0.6930
 5214TIP3    H237202   0.240   2.500   0.302  0.4086  1.4180 -0.6000
 5215TIP3   OH237203   0.338   0.402   8.453  0.0499  0.0884 -0.5681
 5215TIP3    H137204   0.409   0.340   8.433 -0.6804 -0.5123 -1.3577
 5215TIP3    H237205   0.278   0.394   8.378 -1.7726 -0.7449  0.9105
 5216TIP3   OH237206   0.535   6.547   0.665 -0.3625 -0.7402  0.1014
 5216TIP3    H137207   0.626   6.544   0.637 -0.6283 -1.3868 -0.7345
 5216TIP3    H237208   0.494   6.472   0.623 -1.0678 -1.0341  1.2583
 5217TIP3   OH237209   2.506   1.348   7.177  0.0578 -0.3555 -0.2345
 5217TIP3    H137210   2.555   1.411   7.124  2.0954 -1.9201 -0.3113
 5217TIP3    H237211   2.433   1.321   7.121  0.4780  0.2002 -1.0783
 5218TIP3   OH237212   1.175   1.782   6.666  0.1093  0.3407 -0.3411
 5218TIP3    H137213   1.230   1.774   6.588 -0.4617  1.7075 -0.9061
 5218TIP3    H237214   1.105   1.842   6.641 -0.7698 -0.1235  0.8604
 5219TIP3   OH237215   4.478   0.308   0.436  0.2432  0.4859  0.3119
 5219TIP3    H137216   4.475   0.240   0.368  0.4327 -0.5045  1.2606
 5219TIP3    H237217   4.386   0.331   0.451  0.1159 -0.1200  0.5118
 5220TIP3   OH237218   4.611   3.813   8.148  0.0923  0.1407 -0.1080
 5220TIP3    H137219   4.544   3.784   8.086  0.0914 -0.4549  0.1629
 5220TIP3    H237220   4.565   3.820   8.231  0.6977 -2.0298  0.4934
 5221TIP3   OH237221   4.048   4.690   7.701  0.6749 -0.7059 -0.1924
 5221TIP3    H137222   4.086   4.612   7.742  0.8178 -1.0550 -0.9739
 5221TIP3    H237223   4.036   4.666   7.609  0.3034  0.0444 -0.3497
 5222TIP3   OH237224   4.746   0.147   8.060 -0.6103  0.3748 -0.6008
 5222TIP3    H137225   4.700   0.224   8.026 -0.4134  1.7830  2.1066
 5222TIP3    H237226   4.733   0.151   8.155  2.7959 -0.6950  0.0285
 5223TIP3   OH237227   1.835   0.622   1.403  0.2896  0.4352  0.7170
 5223TIP3    H137228   1.762   0.624   1.464  0.2511  0.1775  0.6771
 5223TIP3    H237229   1.796   0.638   1.317  0.0165 -1.5888  0.4305
 5224TIP3   OH237230   6.609   6.564   6.449  0.1039 -0.1930 -0.0105
 5224TIP3    H137231   6.535   6.510   6.420  1.0240 -0.8860 -1.1236
 5224TIP3    H237232   6.678   6.502   6.469  0.6078  0.4849  0.4119
 5225TIP3   OH237233   3.179   2.998   7.458  0.0534 -0.5726  0.0736
 5225TIP3    H137234   3.186   3.086   7.421  0.6195 -0.5607  0.1915
 5225TIP3    H237235   3.250   2.994   7.522  0.7495 -1.4917 -0.7184
 5226TIP3   OH237236   2.083   5.012   8.435  0.0680 -0.1567  0.3250
 5226TIP3    H137237   2.101   5.106   8.442  1.6297 -0.4006 -0.0048
 5226TIP3    H237238   2.169   4.971   8.441 -0.7220 -1.7117  2.4417
 5227TIP3   OH237239   1.261   0.568   7.262 -0.0659  0.8185 -0.5129
 5227TIP3    H137240   1.223   0.487   7.293  3.3798 -0.6716  0.3151
 5227TIP3    H237241   1.210   0.591   7.185 -2.9519 -0.4890  0.8716
 5228TIP3   OH237242   6.783   6.367   0.834  0.8011  0.0174 -0.2339
 5228TIP3    H137243   6.835   6.428   0.781  3.9209 -0.2453  2.2093
 5228TIP3    H237244   6.777   6.408   0.919 -1.8194 -0.7223  0.0143
 5229TIP3   OH237245   3.426   1.114   7.011 -0.1085 -0.1148 -0.0549
 5229TIP3    H137246   3.345   1.077   6.976  0.4701 -1.9617  0.4700
 5229TIP3    H237247   3.474   1.039   7.046  1.1643  1.1377  1.0070
 5230TIP3   OH237248   0.476   1.050   6.871  0.1674 -0.0135  0.3674
 5230TIP3    H137249   0.517   1.069   6.787 -0.2876  0.4773  0.2577
 5230TIP3    H237250   0.394   1.098   6.870 -0.1920 -0.6025  0.7893
 5231TIP3   OH237251   6.567   3.278   1.226 -0.3827  0.4527  0.2855
 5231TIP3    H137252   6.482   3.279   1.270 -0.3628 -2.7468  0.6126
 5231TIP3    H237253   6.545   3.272   1.133 -0.6393 -2.3099  0.4591
 5232TIP3   OH237254   6.664   1.749   7.779 -0.2658  0.0375 -0.1383
 5232TIP3    H137255   6.651   1.667   7.731  0.3887 -1.3317  1.8818
 5232TIP3    H237256   6.592   1.751   7.842  0.1459  0.6381  0.3238
 5233TIP3   OH237257   6.411   3.934   1.644  0.6480 -0.5363 -0.6283
 5233TIP3    H137258   6.446   3.853   1.606 -0.4774 -1.4312  0.1863
 5233TIP3    H237259   6.379   3.909   1.730  0.0494  0.7334 -0.4517
 5234TIP3   OH237260   1.989   0.434   6.392  0.2849  0.6015 -0.1694
 5234TIP3    H137261   1.965   0.341   6.393 -0.4097  0.7739 -0.1962
 5234TIP3    H237262   2.068   0.438   6.338  0.7630 -0.0695  0.4653
 5235TIP3   OH237263   6.234   6.203   0.049 -0.2909  1.2319 -0.3856
 5235TIP3    H137264   6.259   6.140   0.117  1.2222  1.0182 -1.0952
 5235TIP3    H237265   6.141   6.220   0.065 -0.0011  1.0971  1.6368
 5236TIP3   OH237266   1.903   5.313   7.626 -0.1597 -0.6461  0.1901
 5236TIP3    H137267   1.936   5.401   7.647 -0.3337 -0.6774  0.5955
 5236TIP3    H237268   1.832   5.329   7.564  1.0667 -0.6155 -1.2795
 5237TIP3   OH237269   5.256   6.090   6.495  0.2929 -0.0877  0.2693
 5237TIP3    H137270   5.329   6.125   6.547  0.6735  0.2327 -0.4754
 5237TIP3    H237271   5.286   6.003   6.467  0.9490  0.5663 -1.1429
 5238TIP3   OH237272   4.702   2.580   6.147  0.0921  0.0127 -0.4374
 5238TIP3    H137273   4.686   2.606   6.238 -0.4553 -0.3438 -0.4291
 5238TIP3    H237274   4.723   2.662   6.102 -1.3952  0.4699 -0.3619
 5239TIP3   OH237275   6.474   4.233   6.349  0.2142 -0.2468 -0.4178
 5239TIP3    H137276   6.496   4.304   6.409 -0.6624  0.1504 -0.5524
 5239TIP3    H237277   6.393   4.261   6.307  1.3865  0.0420 -2.6503
 5240TIP3   OH237278   2.445   4.372   0.167  0.3803 -0.4661 -0.2960
 5240TIP3    H137279   2.483   4.337   0.247  0.8635 -1.7650 -1.0665
 5240TIP3    H237280   2.503   4.341   0.097  0.4943  1.4030 -1.0872
 5241TIP3   OH237281   5.247   4.812   1.362 -0.0982  0.1750  0.1623
 5241TIP3    H137282   5.216   4.830   1.273  0.1005 -0.7237 -0.1077
 5241TIP3    H237283   5.167   4.789   1.410 -0.3281  1.5407  0.4663
 5242TIP3   OH237284   5.051   1.905   8.531 -0.0603 -0.0267  0.0316
 5242TIP3    H137285   5.026   1.833   8.473  0.7037  0.5327 -1.0048
 5242TIP3    H237286   4.976   1.964   8.531 -1.0528 -1.2076  1.5727
 5243TIP3   OH237287   5.290   6.777   1.971  0.3287 -0.8148  0.2320
 5243TIP3    H137288   5.334   6.712   1.917  0.7818 -0.2050 -0.1436
 5243TIP3    H237289   5.205   6.739   1.990  0.3388 -1.2361 -0.5288
 5244TIP3   OH237290   5.369   4.168   6.441  0.2048 -0.7328 -0.3841
 5244TIP3    H137291   5.384   4.080   6.406  0.5255 -0.7268 -0.2586
 5244TIP3    H237292   5.320   4.212   6.371  0.1396 -0.9746 -0.4945
 5245TIP3   OH237293   2.497   4.138   8.522 -0.0571 -0.9039  0.5360
 5245TIP3    H137294   2.416   4.086   8.524  0.6635 -2.0690  0.2037
 5245TIP3    H237295   2.546   4.110   8.599  0.9841 -1.8186 -0.4210
 5246TIP3   OH237296   3.943   6.040   0.551  0.8191 -0.1195  0.1367
 5246TIP3    H137297   3.956   5.951   0.519 -0.8651 -1.4641  2.8327
 5246TIP3    H237298   3.951   6.095   0.473  0.9108 -2.6913 -1.8045
 5247TIP3   OH237299   2.782   0.878   1.522 -0.3643 -0.4402  0.6442
 5247TIP3    H137300   2.800   0.846   1.610 -1.6865  1.7202  1.7685
 5247TIP3    H237301   2.861   0.926   1.497  0.1591 -1.3677  0.4473
 5248TIP3   OH237302   3.740   2.689   0.535 -0.0567 -0.2113  0.2553
 5248TIP3    H137303   3.798   2.746   0.585 -0.8855  2.0603 -1.1944
 5248TIP3    H237304   3.707   2.626   0.599 -0.3026  1.9328  2.3804
 5249TIP3   OH237305   0.476   3.446   6.759 -0.0782 -0.1940  0.3401
 5249TIP3    H137306   0.421   3.520   6.785 -0.7025 -0.3638 -0.4564
 5249TIP3    H237307   0.566   3.477   6.770 -0.3299  1.0209 -0.9160
 5250TIP3   OH237308   4.135   5.096   1.078  0.1352  0.4590 -0.3714
 5250TIP3    H137309   4.169   5.186   1.072  2.1484 -0.1269  0.8947
 5250TIP3    H237310   4.169   5.065   1.162  0.1177 -1.7356 -1.1312
 5251TIP3   OH237311   6.614   6.504   8.012 -0.0988  0.0683  0.5895
 5251TIP3    H137312   6.660   6.421   8.001 -1.7222 -1.1507  2.4219
 5251TIP3    H237313   6.562   6.513   7.932  0.2458 -0.5484  0.2873
 5252TIP3   OH237314   1.042   4.930   1.109 -0.5136 -0.0838  0.2848
 5252TIP3    H137315   1.104   4.960   1.175 -1.5782  0.7247  0.9483
 5252TIP3    H237316   1.071   4.971   1.028  0.6232 -0.8311  0.2860
 5253TIP3   OH237317   3.278   4.671   7.165  0.1043  0.3205 -0.3157
 5253TIP3    H137318   3.341   4.727   7.120 -0.0808  1.1532  0.4315
 5253TIP3    H237319   3.295   4.686   7.258  0.6086 -1.5026 -0.0569
 5254TIP3   OH237320   1.240   5.315   8.014  0.1535  0.4770 -0.1398
 5254TIP3    H137321   1.280   5.290   8.097 -0.6917 -1.0685 -0.1705
 5254TIP3    H237322   1.159   5.360   8.040  0.3350  0.7978 -0.1231
 5255TIP3   OH237323   2.913   4.526   8.330 -0.2619  1.0608 -0.1055
 5255TIP3    H137324   2.909   4.448   8.386 -2.3746  1.4266  0.3426
 5255TIP3    H237325   2.917   4.491   8.241 -0.0657  0.4425  0.1407
 5256TIP3   OH237326   0.406   2.694   1.450 -0.0497  0.1787  0.3632
 5256TIP3    H137327   0.445   2.758   1.392 -0.4091 -1.7299 -2.1422
 5256TIP3    H237328   0.479   2.637   1.475 -0.0154  0.6209  1.3051
 5257TIP3   OH237329   6.066   2.628   7.363 -0.2199 -0.1442 -0.6980
 5257TIP3    H137330   5.984   2.653   7.322 -0.7250 -1.0914 -0.3052
 5257TIP3    H237331   6.050   2.540   7.398  0.3034  0.4436  1.1635
 5258TIP3   OH237332   5.940   3.690   1.139  0.2179  0.5369  0.0090
 5258TIP3    H137333   5.935   3.614   1.081  0.2775 -0.6818  1.5337
 5258TIP3    H237334   5.911   3.657   1.225  1.4288  1.9167  1.0050
 5259TIP3   OH237335   4.653   5.200   7.954  0.7208 -0.2857 -0.3133
 5259TIP3    H137336   4.635   5.172   7.865  0.0651  0.1937 -0.3400
 5259TIP3    H237337   4.658   5.118   8.004 -0.7993 -0.4961 -0.4496
 5260TIP3   OH237338   1.373   6.110   1.222  0.0152  0.3498  0.1086
 5260TIP3    H137339   1.320   6.087   1.299 -1.3775  1.5126 -0.4664
 5260TIP3    H237340   1.322   6.079   1.148  0.8819  0.1277 -0.4070
 5261TIP3   OH237341   0.839   3.429   7.734 -0.9017  0.1585  0.2031
 5261TIP3    H137342   0.893   3.411   7.811  1.1923 -1.0683 -1.4250
 5261TIP3    H237343   0.833   3.524   7.730  1.5941  0.3916  0.2439
 5262TIP3   OH237344   3.981   1.582   2.695  0.4689  0.0747  0.5469
 5262TIP3    H137345   4.072   1.559   2.676  0.9993 -1.1132  3.8208
 5262TIP3    H237346   3.986   1.672   2.727  0.2384  0.5140 -0.6101
 5263TIP3   OH237347   4.700   3.377   1.240 -0.6155 -0.5609  0.5227
 5263TIP3    H137348   4.716   3.296   1.191 -0.7849 -0.5439  0.4378
 5263TIP3    H237349   4.612   3.365   1.276 -0.0708 -1.0495  1.7533
 5264TIP3   OH237350   0.300   0.986   2.134  0.2924 -0.2082  0.0304
 5264TIP3    H137351   0.252   1.062   2.168  1.0142 -0.3004  1.2827
 5264TIP3    H237352   0.392   1.011   2.140  0.5089 -0.9245 -0.2077
 5265TIP3   OH237353   5.917   1.730   2.646  0.0020  0.4915  0.1588
 5265TIP3    H137354   5.990   1.791   2.638 -0.7925  1.7236  1.7399
 5265TIP3    H237355   5.845   1.773   2.599 -1.2507  2.0629  3.2115
 5266TIP3   OH237356   2.677   0.582   7.281  0.1703 -0.1696  0.2573
 5266TIP3    H137357   2.700   0.606   7.371  1.3232 -0.5177  0.0706
 5266TIP3    H237358   2.614   0.510   7.291  0.1606 -0.0914  0.7835
 5267TIP3   OH237359   0.890   1.600   0.221  0.3815 -0.3606  0.8030
 5267TIP3    H137360   0.985   1.614   0.223  0.4418 -0.8254  1.5747
 5267TIP3    H237361   0.852   1.687   0.233  0.6918 -0.0050 -0.6587
 5268TIP3   OH237362   0.954   6.052   0.392  0.3043  0.1487  0.3973
 5268TIP3    H137363   0.922   6.000   0.467  0.8853  0.8694  1.1647
 5268TIP3    H237364   0.933   5.998   0.316 -1.7236  0.0827  0.9280
 5269TIP3   OH237365   4.374   3.321   1.087  0.0528  0.2606  0.4570
 5269TIP3    H137366   4.365   3.337   1.181  0.9025  1.9929  0.3035
 5269TIP3    H237367   4.285   3.311   1.056 -0.1948 -1.3634  1.5815
 5270TIP3   OH237368   2.228   3.956   1.635  0.7888  0.5909 -0.1493
 5270TIP3    H137369   2.226   3.951   1.730 -0.6260  0.1033 -0.1878
 5270TIP3    H237370   2.202   4.046   1.615 -0.8395  0.1702 -0.0899
 5271TIP3   OH237371   4.549   2.124   5.901 -0.1974  0.4660 -0.5915
 5271TIP3    H137372   4.457   2.096   5.906 -0.6932  1.4379 -2.8885
 5271TIP3    H237373   4.551   2.209   5.944 -0.0770 -0.1172  0.5873
 5272TIP3   OH237374   6.817   3.543   1.597 -0.0385 -0.0046  0.0457
 5272TIP3    H137375   6.790   3.568   1.509  2.6169  1.4781 -0.4466
 5272TIP3    H237376   6.737   3.508   1.637 -1.1565 -1.5743 -3.1774
 5273TIP3   OH237377   6.518   3.496   7.463  0.2088 -0.6193  0.2940
 5273TIP3    H137378   6.424   3.501   7.451  0.1215  0.7293  1.2878
 5273TIP3    H237379   6.549   3.443   7.390 -1.3109 -1.1165 -0.0286
 5274TIP3   OH237380   0.509   5.614   8.113 -0.3170 -0.1868 -0.0014
 5274TIP3    H137381   0.590   5.569   8.138  0.1186  1.0133  0.8328
 5274TIP3    H237382   0.457   5.616   8.193 -0.3966  0.6547 -0.0674
 5275TIP3   OH237383   1.506   6.021   0.794  0.6154 -0.3018 -0.1540
 5275TIP3    H137384   1.516   5.998   0.702  1.8945 -0.7811  0.0884
 5275TIP3    H237385   1.583   5.984   0.837  1.2015  1.7879  0.7573
 5276TIP3   OH237386   6.327   2.421   0.960  0.3985  0.0441 -0.5123
 5276TIP3    H137387   6.375   2.489   0.912 -0.4978 -1.0277 -3.1293
 5276TIP3    H237388   6.382   2.343   0.949  0.2283 -0.1994  0.3534
 5277TIP3   OH237389   2.047   3.641   1.703  0.6343  0.1621  0.5433
 5277TIP3    H137390   2.139   3.613   1.698  0.2924 -1.0997  1.0038
 5277TIP3    H237391   2.000   3.581   1.645 -0.0238  0.1791  1.0442
 5278TIP3   OH237392   6.792   0.148   1.036  0.1191 -0.1851 -0.0736
 5278TIP3    H137393   6.699   0.167   1.052  0.1178 -0.3699  0.1353
 5278TIP3    H237394   6.805   0.059   1.068  0.5052  0.0499  0.4274
 5279TIP3   OH237395   3.322   5.351   1.180  0.0327  0.1171  0.0288
 5279TIP3    H137396   3.328   5.391   1.266 -0.7421 -0.1645  0.2124
 5279TIP3    H237397   3.240   5.384   1.143  1.4711  2.2325 -1.6261
 5280TIP3   OH237398   6.106   2.293   7.058 -0.2278 -0.0942 -0.0840
 5280TIP3    H137399   6.128   2.225   6.994 -0.1358 -0.3718  0.2349
 5280TIP3    H237400   6.067   2.245   7.132 -0.0849  0.1912  0.1810
 5281TIP3   OH237401   5.722   0.231   0.983  0.0158 -0.4338  0.2998
 5281TIP3    H137402   5.640   0.232   1.032 -0.5121  0.5449 -0.5568
 5281TIP3    H237403   5.707   0.168   0.912  0.0524 -0.3625  0.2283
 5282TIP3   OH237404   6.766   1.006   1.391  0.1405 -0.0175  0.2026
 5282TIP3    H137405   6.743   0.988   1.300 -1.9785 -0.8378  0.8412
 5282TIP3    H237406   6.702   1.071   1.420 -1.4321 -2.2309  2.0131
 5283TIP3   OH237407   5.728   1.238   0.821  0.6502 -0.1230  0.0728
 5283TIP3    H137408   5.701   1.154   0.860  1.1446 -1.4593 -2.2432
 5283TIP3    H237409   5.719   1.223   0.726 -0.8039  3.0007 -0.3996
 5284TIP3   OH237410   3.744   2.219   1.189 -0.6346  0.5783 -0.4880
 5284TIP3    H137411   3.688   2.241   1.264 -1.5767 -1.1576 -0.6405
 5284TIP3    H237412   3.816   2.168   1.226 -1.6422 -1.1645 -0.8527
 5285TIP3   OH237413   1.198   0.573   1.359  0.7183 -0.0225  0.5996
 5285TIP3    H137414   1.272   0.518   1.336 -1.4305 -3.1422  0.6266
 5285TIP3    H237415   1.212   0.654   1.309  3.0320 -1.3216 -1.0311
 5286TIP3   OH237416   5.638   0.512   1.078  0.4323 -0.2082 -0.0476
 5286TIP3    H137417   5.559   0.564   1.069  1.3508  0.9317 -2.0057
 5286TIP3    H237418   5.620   0.431   1.029 -0.1608 -0.7917  1.0878
 5287TIP3   OH237419   4.904   1.494   7.910 -0.7834  0.5150  0.3290
 5287TIP3    H137420   4.894   1.435   7.836  1.8896  0.4823 -0.1090
 5287TIP3    H237421   4.917   1.580   7.871 -0.7352  0.7309  0.8089
 5288TIP3   OH237422   0.454   1.986   1.985 -0.0710 -0.0325 -0.3809
 5288TIP3    H137423   0.508   2.057   2.019 -1.8109  2.3853 -2.3130
 5288TIP3    H237424   0.376   1.986   2.040  0.5331 -1.5407  0.5487
 5289TIP3   OH237425   1.129   3.301   1.680  0.3570 -0.1940  0.3789
 5289TIP3    H137426   1.174   3.229   1.724  2.4779 -0.2119 -1.6257
 5289TIP3    H237427   1.043   3.265   1.657  0.2780 -1.0806  1.9164
 5290TIP3   OH237428   4.293   4.399   0.543 -0.5128 -0.1346 -0.4717
 5290TIP3    H137429   4.276   4.308   0.566  1.6046 -0.6363 -0.6811
 5290TIP3    H237430   4.253   4.410   0.457 -1.6335 -0.5602 -0.0227
 5291TIP3   OH237431   2.056   6.181   0.441 -0.1589  0.1029  0.2950
 5291TIP3    H137432   2.104   6.193   0.523  1.4797 -0.4854 -0.5313
 5291TIP3    H237433   1.994   6.110   0.460  0.9274 -0.7544  0.7438
 5292TIP3   OH237434   2.217   3.604   0.201 -0.5521 -0.1848 -0.3301
 5292TIP3    H137435   2.274   3.543   0.154  1.1587  1.5728 -0.6810
 5292TIP3    H237436   2.161   3.641   0.133  0.9817  1.3362 -0.8426
 5293TIP3   OH237437   1.971   5.839   0.186  0.0994 -0.0823  0.5216
 5293TIP3    H137438   1.969   5.935   0.186 -0.1355 -0.0857 -0.1660
 5293TIP3    H237439   2.061   5.817   0.159 -0.2447 -0.0526 -0.7004
 5294TIP3   OH237440   0.917   2.265   1.070  0.1810  0.2408 -0.1430
 5294TIP3    H137441   0.957   2.178   1.062 -0.0886  0.0165  0.8486
 5294TIP3    H237442   0.824   2.250   1.053  0.5263  0.8621 -3.0720
 5295TIP3   OH237443   0.439   0.334   0.556  0.1978 -0.0896 -0.2551
 5295TIP3    H137444   0.430   0.261   0.617  1.5100 -0.4126 -0.3978
 5295TIP3    H237445   0.518   0.380   0.586 -0.7826  1.4623  0.0102
 5296TIP3   OH237446   2.871   4.087   0.877 -0.2410 -0.1272  0.4282
 5296TIP3    H137447   2.918   4.007   0.852  0.5128  0.2039  0.7670
 5296TIP3    H237448   2.865   4.082   0.973  1.3184  1.0238  0.6298
 5297TIP3   OH237449   5.342   0.180   2.371 -0.3522  0.1227 -0.2043
 5297TIP3    H137450   5.283   0.178   2.446 -1.1094 -0.4515 -0.7996
 5297TIP3    H237451   5.357   0.273   2.354 -1.6381  0.2974 -0.4707
 5298TIP3   OH237452   3.364   3.356   2.095  0.1979 -0.2668  0.3558
 5298TIP3    H137453   3.377   3.278   2.041  0.0403  1.4068 -2.3100
 5298TIP3    H237454   3.292   3.403   2.053  0.9729  1.8153  1.1937
 5299TIP3   OH237455   5.940   3.780   1.918 -0.1185 -0.3751  0.2062
 5299TIP3    H137456   5.905   3.693   1.899 -0.8548 -0.2740  1.0491
 5299TIP3    H237457   5.999   3.766   1.992  1.0611 -0.4155 -0.7163
 5300TIP3   OH237458   4.775   0.161   7.675 -0.3668 -0.4244  0.0590
 5300TIP3    H137459   4.761   0.102   7.749 -0.5032 -1.0014 -0.4172
 5300TIP3    H237460   4.842   0.222   7.705 -1.7929  0.5875  1.3753
 5301TIP3   OH237461   0.349   0.367   1.812 -0.0291  0.1368  0.6832
 5301TIP3    H137462   0.356   0.421   1.733 -0.6042  1.0715  1.2468
 5301TIP3    H237463   0.405   0.291   1.795  0.3010  0.6050 -0.3866
 5302TIP3   OH237464   5.475   2.511   6.354 -0.3270  0.0067 -0.1979
 5302TIP3    H137465   5.438   2.592   6.318  0.6698  0.2058 -0.7923
 5302TIP3    H237466   5.568   2.515   6.332 -0.1801 -1.0829  0.1796
 5303TIP3   OH237467   2.270   0.482   0.848  0.4235  0.3857  0.2937
 5303TIP3    H137468   2.280   0.420   0.776  1.1692  0.7959  0.0296
 5303TIP3    H237469   2.227   0.432   0.918 -1.0296  0.1969 -0.6926
 5304TIP3   OH237470   3.935   5.977   2.088  0.9693 -0.7323  0.3054
 5304TIP3    H137471   3.894   6.054   2.127 -1.3825 -2.2761  1.0838
 5304TIP3    H237472   3.944   5.999   1.996  0.5737  0.5621  0.5532
 5305TIP3   OH237473   1.409   6.771   2.153 -0.0935  0.2447  0.5140
 5305TIP3    H137474   1.478   6.705   2.156 -0.3314 -0.2580 -2.5046
 5305TIP3    H237475   1.454   6.853   2.133 -0.1646  0.3475  0.7626
 5306TIP3   OH237476   5.034   3.393   0.467 -0.5310  0.1658 -0.0791
 5306TIP3    H137477   5.099   3.463   0.462 -0.8238  0.3505 -2.2185
 5306TIP3    H237478   5.086   3.313   0.469 -0.1912  0.3351 -1.2018
 5307TIP3   OH237479   0.807   5.370   1.681 -0.0733 -0.8058  0.2497
 5307TIP3    H137480   0.782   5.390   1.771 -0.7873  0.5935 -0.2309
 5307TIP3    H237481   0.848   5.450   1.649  1.2384 -1.6685 -0.3239
 5308TIP3   OH237482   6.362   2.439   7.069 -0.5447 -0.9772 -0.1941
 5308TIP3    H137483   6.355   2.475   6.981 -0.8025 -1.5604 -0.4177
 5308TIP3    H237484   6.283   2.387   7.081  0.4282 -2.5801 -0.4027
 5309TIP3   OH237485   2.899   5.923   1.101 -0.8519 -0.4676 -0.2510
 5309TIP3    H137486   2.832   5.983   1.133  0.9829  0.6751  1.7293
 5309TIP3    H237487   2.977   5.978   1.090 -0.0133 -1.8712 -1.7731
 5310TIP3   OH237488   2.149   4.421   0.432  0.2109  0.0043  0.1375
 5310TIP3    H137489   2.098   4.500   0.413  1.4464  0.2417 -2.7073
 5310TIP3    H237490   2.130   4.362   0.359  2.0773 -0.8714  0.3029
 5311TIP3   OH237491   4.844   4.374   0.361 -0.5215 -0.0448 -0.4913
 5311TIP3    H137492   4.869   4.420   0.441 -0.5384  0.1236 -0.5828
 5311TIP3    H237493   4.765   4.327   0.384  0.9350 -2.2195  0.4098
 5312TIP3   OH237494   4.015   4.969   7.125 -0.3349  0.0412 -0.1090
 5312TIP3    H137495   4.032   5.032   7.055 -0.0983 -1.0789 -1.0778
 5312TIP3    H237496   3.986   4.890   7.081  0.5925 -0.9619  0.9797
 5313TIP3   OH237497   6.663   2.660   0.004  0.6571 -0.0151 -0.1207
 5313TIP3    H137498   6.601   2.664  -0.069 -1.6565  1.0855  1.7874
 5313TIP3    H237499   6.665   2.567   0.029  1.7634 -0.4744 -1.7125
 5314TIP3   OH237500   1.431   5.605   1.037 -0.1447  0.5558 -0.3504
 5314TIP3    H137501   1.366   5.669   1.066 -0.7147  0.2612 -0.9400
 5314TIP3    H237502   1.385   5.551   0.973 -0.1393 -1.4226  1.2037
 5315TIP3   OH237503   1.104   0.247   7.789  0.4304 -0.3491  0.6276
 5315TIP3    H137504   1.192   0.260   7.753 -0.0289 -0.4998 -0.5803
 5315TIP3    H237505   1.052   0.317   7.750 -0.1667 -0.7429  0.7151
 5316TIP3   OH237506   5.654   1.511   7.327 -0.3019 -0.1294  0.0374
 5316TIP3    H137507   5.617   1.434   7.283  0.4074 -0.7802  0.5551
 5316TIP3    H237508   5.743   1.485   7.350  0.4346  1.3395 -1.0240
 5317TIP3   OH237509   4.570   4.559   7.968 -0.4754 -0.6539  0.1928
 5317TIP3    H137510   4.586   4.554   8.062  1.4387 -1.4749 -0.1179
 5317TIP3    H237511   4.475   4.566   7.959 -0.5819  1.8962  2.2469
 5318TIP3   OH237512   1.199   5.136   7.808  0.3534 -0.1763 -0.0379
 5318TIP3    H137513   1.225   5.200   7.875 -0.5796  0.3329 -0.1480
 5318TIP3    H237514   1.271   5.137   7.745  0.4415  0.6125  0.0677
 5319TIP3   OH237515   3.099   6.783   6.358  0.5607  0.3292 -0.1835
 5319TIP3    H137516   3.081   6.703   6.309 -1.2849 -0.5253  1.7537
 5319TIP3    H237517   3.168   6.758   6.420  1.7474  0.9725 -1.1941
 5320TIP3   OH237518   4.169   1.897   7.958 -0.2532 -0.2104  0.1408
 5320TIP3    H137519   4.217   1.814   7.967 -0.6676 -0.6535 -1.4494
 5320TIP3    H237520   4.079   1.870   7.942 -0.1561  0.4870 -1.7728
 5321TIP3   OH237521   4.060   4.778   1.322 -0.3911  0.0150 -0.4816
 5321TIP3    H137522   4.125   4.718   1.285  0.3949  0.3216  0.3898
 5321TIP3    H237523   4.050   4.751   1.413  0.4771  1.6141  0.1200
 5322TIP3   OH237524   6.783   4.682   6.508 -0.1619 -0.4068 -0.0107
 5322TIP3    H137525   6.712   4.731   6.466 -0.6749 -0.7010  0.4939
 5322TIP3    H237526   6.854   4.745   6.515 -0.8545  0.3125  0.7466
 5323TIP3   OH237527   4.581   1.949   0.886 -0.4778 -0.8524 -0.0998
 5323TIP3    H137528   4.603   2.020   0.825 -0.2151 -1.1065 -0.3072
 5323TIP3    H237529   4.487   1.935   0.874 -0.5206 -0.5778 -0.0973
 5324TIP3   OH237530   0.153   1.801   0.133  0.0437  0.1195  0.1566
 5324TIP3    H137531   0.137   1.738   0.063 -1.9890  0.7992 -0.0598
 5324TIP3    H237532   0.247   1.819   0.129  0.3714 -1.6094 -0.8509
 5325TIP3   OH237533   4.255   2.476   7.688 -0.0076  0.0194  0.3568
 5325TIP3    H137534   4.279   2.513   7.773  1.5168 -1.3796  0.5947
 5325TIP3    H237535   4.295   2.536   7.624  3.0129 -1.3840  0.7382
 5326TIP3   OH237536   6.551   3.736   6.670  0.2399  0.0798 -0.2613
 5326TIP3    H137537   6.533   3.642   6.662  1.4375 -0.2224  0.3671
 5326TIP3    H237538   6.554   3.767   6.580 -0.9664 -0.3015 -0.4606
 5327TIP3   OH237539   3.108   2.162   8.116 -0.0041 -0.5835  0.1591
 5327TIP3    H137540   3.128   2.200   8.202 -0.7847 -0.7037  0.3975
 5327TIP3    H237541   3.013   2.172   8.107  0.0026 -1.0472 -0.4641
 5328TIP3   OH237542   3.948   0.561   8.087  0.5453  0.0682 -0.1153
 5328TIP3    H137543   3.875   0.583   8.144 -0.0459 -0.1415 -0.7834
 5328TIP3    H237544   3.992   0.489   8.131  1.2846  1.2058  1.0643
 5329TIP3   OH237545   6.517   3.571   2.352 -0.2173  0.1881 -0.0482
 5329TIP3    H137546   6.522   3.629   2.276 -0.7846  0.6797  0.2874
 5329TIP3    H237547   6.600   3.586   2.399 -0.6310  1.2331  0.3893
 5330TIP3   OH237548   2.484   3.665   0.259  0.0782 -0.2377  0.0823
 5330TIP3    H137549   2.390   3.658   0.244  0.0777  1.2169 -0.7709
 5330TIP3    H237550   2.501   3.608   0.334 -1.1606 -2.0199 -0.9242
 5331TIP3   OH237551   2.337   6.497   6.312  0.1447  0.4974 -0.3117
 5331TIP3    H137552   2.392   6.544   6.249  0.3991  2.4007  1.2327
 5331TIP3    H237553   2.284   6.565   6.353  0.7575 -0.4876  2.3055
 5332TIP3   OH237554   5.772   0.644   6.949  0.0628  0.1803  0.3120
 5332TIP3    H137555   5.741   0.645   6.858 -0.2926  1.0232  0.4306
 5332TIP3    H237556   5.866   0.656   6.942  0.0992 -0.2439  0.0369
 5333TIP3   OH237557   3.693   3.785   8.346  0.8046 -0.1267  0.3870
 5333TIP3    H137558   3.695   3.733   8.265  2.4540  0.6258 -0.0992
 5333TIP3    H237559   3.783   3.815   8.357  0.3229  0.8921  1.8028
 5334TIP3   OH237560   4.352   3.550   7.737  0.9679  0.1582  0.1543
 5334TIP3    H137561   4.262   3.521   7.723  0.0933  3.5289 -2.3091
 5334TIP3    H237562   4.399   3.523   7.658  2.2890 -1.7423  1.4975
 5335TIP3   OH237563   0.969   3.665   1.146 -0.1160 -0.3368 -0.1173
 5335TIP3    H137564   0.994   3.744   1.194  0.4452 -0.3543 -0.3704
 5335TIP3    H237565   0.900   3.626   1.199 -0.1140  0.1095  0.2222
 5336TIP3   OH237566   4.730   0.552   0.655 -0.3434  0.4779 -0.0671
 5336TIP3    H137567   4.717   0.459   0.640  1.2280 -0.2364  2.3875
 5336TIP3    H237568   4.672   0.574   0.728  1.0362  0.7790  0.9934
 5337TIP3   OH237569   0.433   5.284   1.509 -0.0994  0.1102 -0.3985
 5337TIP3    H137570   0.407   5.374   1.528 -1.0028 -0.2883  0.3297
 5337TIP3    H237571   0.358   5.231   1.536  1.4300 -1.1018  1.8403
 5338TIP3   OH237572   1.652   3.351   8.452 -0.2179  0.3964  0.3160
 5338TIP3    H137573   1.724   3.352   8.389  0.5249  3.1673  1.0576
 5338TIP3    H237574   1.643   3.259   8.476  1.2740 -0.3872 -1.7795
 5339TIP3   OH237575   5.465   2.244   6.380 -0.2703  0.1989 -0.4664
 5339TIP3    H137576   5.468   2.340   6.371 -0.3009  0.1134 -1.4734
 5339TIP3    H237577   5.516   2.212   6.306  1.6868 -0.5380  1.1270
 5340TIP3   OH237578   4.336   0.080   0.002 -0.5514  0.1878 -0.2827
 5340TIP3    H137579   4.304   0.052   0.087 -0.1586  0.0692 -0.1723
 5340TIP3    H237580   4.412   0.135   0.021 -0.1950 -0.1964 -0.5668
 5341TIP3   OH237581   3.466   5.783   0.392  0.3371  0.1113 -0.5137
 5341TIP3    H137582   3.490   5.864   0.347  0.8827  0.1378 -0.1833
 5341TIP3    H237583   3.410   5.737   0.330  0.8701  0.2666 -1.1168
 5342TIP3   OH237584   4.973   5.530   1.000  0.0763 -0.5126  0.6019
 5342TIP3    H137585   5.009   5.594   1.061 -1.6479  1.6115 -0.4778
 5342TIP3    H237586   4.889   5.505   1.039 -0.3216 -0.3161 -0.1040
 5343TIP3   OH237587   3.055   4.917   0.007  0.4324 -1.0630  0.3480
 5343TIP3    H137588   3.107   4.932  -0.072 -0.4540 -2.3057 -0.5145
 5343TIP3    H237589   2.999   4.995   0.014 -0.3451 -1.4623 -0.9808
 5344TIP3   OH237590   0.034   2.224   0.809 -0.3362  0.2337  0.3643
 5344TIP3    H137591  -0.057   2.213   0.781 -0.3445 -0.1343  0.5236
 5344TIP3    H237592   0.029   2.280   0.886 -0.6884 -1.7338  1.8706
 5345TIP3   OH237593   4.804   4.652   0.693  0.1655  0.5422  0.7472
 5345TIP3    H137594   4.838   4.569   0.659 -1.2183  0.6776 -1.1218
 5345TIP3    H237595   4.719   4.630   0.730 -0.7982  1.2812 -0.9232
 5346TIP3   OH237596   3.067   4.123   8.279  0.4050 -0.0575 -0.3170
 5346TIP3    H137597   3.047   4.183   8.351 -0.8836 -0.0807 -0.6364
 5346TIP3    H237598   3.144   4.074   8.309 -1.1563 -1.3649  1.8679
 5347TIP3   OH237599   5.904   1.199   1.746  0.3130  0.0845 -0.3350
 5347TIP3    H137600   5.881   1.106   1.745  2.2603 -0.4639  0.7536
 5347TIP3    H237601   5.891   1.226   1.837  1.1490  0.4957 -0.3306
 5348TIP3   OH237602   5.279   5.378   1.691  0.4645 -0.6612 -0.2636
 5348TIP3    H137603   5.321   5.346   1.611  0.3502 -2.3927  0.3449
 5348TIP3    H237604   5.240   5.301   1.731 -1.0394  0.4695  0.5664
 5349TIP3   OH237605   4.030   1.160   1.885 -0.4678 -0.3261  0.5730
 5349TIP3    H137606   3.950   1.133   1.839 -1.0834 -1.7432  2.3610
 5349TIP3    H237607   4.090   1.086   1.875 -0.2910 -0.2886  1.3123
 5350TIP3   OH237608   0.545   6.800   8.177 -0.3383  0.0276 -0.0308
 5350TIP3    H137609   0.540   6.719   8.228  0.0387 -0.4581 -0.7453
 5350TIP3    H237610   0.469   6.797   8.119  0.5056 -0.5792 -1.1394
 5351TIP3   OH237611   2.445   0.122   1.033  0.3853 -0.0647 -0.2449
 5351TIP3    H137612   2.492   0.199   1.001 -0.1160  0.7927  1.0046
 5351TIP3    H237613   2.513   0.067   1.071  0.5091  0.7562  0.7596
 5352TIP3   OH237614   3.878   1.708   7.554  0.1545 -0.5191  0.3007
 5352TIP3    H137615   3.789   1.673   7.554  0.6095 -1.7708  1.3692
 5352TIP3    H237616   3.888   1.748   7.468 -0.7445 -2.2379 -0.6500
 5353TIP3   OH237617   4.014   3.532   0.683 -0.2093  0.2685  0.8853
 5353TIP3    H137618   3.972   3.455   0.644 -0.8995 -0.7274  3.4256
 5353TIP3    H237619   3.942   3.593   0.698  0.1309  0.8619  0.1345
 5354TIP3   OH237620   1.745   6.110   7.954 -0.0280 -0.1589  0.0681
 5354TIP3    H137621   1.744   6.192   8.003  0.7482 -0.4820  0.6499
 5354TIP3    H237622   1.653   6.084   7.950 -0.1842  0.2625  0.6931
 5355TIP3   OH237623   1.816   4.142   7.214  0.0984  0.4181  0.3708
 5355TIP3    H137624   1.895   4.090   7.200  0.1408  0.4799  0.3833
 5355TIP3    H237625   1.776   4.148   7.127  0.0036  0.2185  0.4010
 5356TIP3   OH237626   0.689   4.827   1.986 -0.6442  0.0328 -0.3656
 5356TIP3    H137627   0.625   4.759   2.006 -0.0265 -0.6668 -0.7233
 5356TIP3    H237628   0.639   4.896   1.944 -1.0232 -0.9058 -1.4979
 5357TIP3   OH237629   4.445   5.491   7.571 -0.3127  0.4798  0.3049
 5357TIP3    H137630   4.401   5.422   7.621 -1.7570  1.1083 -0.0359
 5357TIP3    H237631   4.451   5.564   7.632  0.8548  0.1975  0.5425
 5358TIP3   OH237632   3.388   0.539   1.001  0.4664 -0.5194  0.0176
 5358TIP3    H137633   3.405   0.481   1.076  1.6184  0.1760  0.3111
 5358TIP3    H237634   3.472   0.580   0.982 -0.0227  0.0233 -1.0733
 5359TIP3   OH237635   6.287   3.021   7.530 -0.1802 -0.6200 -0.2171
 5359TIP3    H137636   6.250   2.962   7.596 -2.9443  0.0117 -1.0816
 5359TIP3    H237637   6.313   2.963   7.458  1.9818 -1.2129  0.9393
 5360TIP3   OH237638   2.181   3.583   1.394  0.3692 -0.0982 -0.1370
 5360TIP3    H137639   2.175   3.663   1.446  0.9088 -0.5788  0.6809
 5360TIP3    H237640   2.094   3.545   1.399 -0.2977  1.0980 -1.6557
 5361TIP3   OH237641   0.006   2.208   6.543  0.1686  0.0965 -0.4084
 5361TIP3    H137642  -0.040   2.279   6.498  0.2779  0.7026  0.4114
 5361TIP3    H237643  -0.064   2.151   6.576 -0.3056  2.4891  3.3170
 5362TIP3   OH237644   4.543   3.800   8.432  0.3226  0.1716 -0.9227
 5362TIP3    H137645   4.457   3.825   8.464 -0.0306 -0.5477 -1.2860
 5362TIP3    H237646   4.558   3.712   8.468 -0.1010 -0.6825 -2.6994
 5363TIP3   OH237647   6.605   1.660   6.870  0.3197  0.0526 -0.1987
 5363TIP3    H137648   6.511   1.646   6.864  0.4851 -0.5680 -2.2291
 5363TIP3    H237649   6.617   1.751   6.842  0.3941 -0.2307 -1.1279
 5364TIP3   OH237650   2.520   3.588   1.116  0.8502 -0.0276 -0.0792
 5364TIP3    H137651   2.586   3.590   1.185 -0.2076 -0.7346  0.9965
 5364TIP3    H237652   2.548   3.518   1.057  0.3293 -1.3413  1.1714
 5365TIP3   OH237653   3.504   1.628   8.605  0.7547  0.4964  0.3988
 5365TIP3    H137654   3.587   1.645   8.559  1.3581 -2.0617  0.3669
 5365TIP3    H237655   3.437   1.645   8.539  1.5074 -1.1171 -0.8638
 5366TIP3   OH237656   6.785   0.972   7.400  0.4607 -0.2384 -0.0455
 5366TIP3    H137657   6.861   1.024   7.427  0.4381 -0.2481  0.0367
 5366TIP3    H237658   6.787   0.896   7.458  0.6654 -0.4784 -0.3589
 5367TIP3   OH237659   0.512   4.345   0.545  0.2656 -0.4801  0.1792
 5367TIP3    H137660   0.461   4.425   0.559  0.5609 -0.1260 -0.6664
 5367TIP3    H237661   0.533   4.346   0.451  1.4820 -0.8202  0.4214
 5368TIP3   OH237662   2.684   4.921   6.525  0.2630 -0.0278  0.1313
 5368TIP3    H137663   2.767   4.968   6.534  0.8591 -1.0352  0.0106
 5368TIP3    H237664   2.709   4.832   6.500 -0.5913 -1.4217  3.6036
 5369TIP3   OH237665   6.128   2.584   0.016 -0.0331 -0.7129 -0.3079
 5369TIP3    H137666   6.099   2.539  -0.063 -1.1877 -2.5348  1.0668
 5369TIP3    H237667   6.143   2.674  -0.011 -0.3751 -1.2947 -2.5862
 5370TIP3   OH237668   4.975   1.752   8.080 -0.1735 -0.5727  0.0854
 5370TIP3    H137669   4.881   1.747   8.066 -0.0222 -2.0230 -0.5187
 5370TIP3    H237670   5.013   1.750   7.992  0.4469 -0.7253  0.3472
 5371TIP3   OH237671   0.366   1.729   7.208  0.3321 -0.1283 -0.0902
 5371TIP3    H137672   0.316   1.656   7.246  0.1240  0.5102  0.8967
 5371TIP3    H237673   0.310   1.805   7.218  0.7996  0.2847 -0.5531
 5372TIP3   OH237674   6.068   0.032   0.902 -0.5458  0.4687 -0.3020
 5372TIP3    H137675   6.158   0.048   0.931 -1.3947  4.1497  0.8897
 5372TIP3    H237676   6.038  -0.041   0.956  1.1729  0.3156  0.5274
 5373TIP3   OH237677   5.179   6.291   1.108 -0.8135 -0.1150 -0.3636
 5373TIP3    H137678   5.220   6.228   1.047 -1.9490  0.8971 -2.2511
 5373TIP3    H237679   5.114   6.239   1.155 -1.3489 -0.5057 -1.4977
 5374TIP3   OH237680   3.362   4.871   0.591  0.3245  0.0648 -0.2184
 5374TIP3    H137681   3.354   4.830   0.505 -2.8608 -2.0047  0.8901
 5374TIP3    H237682   3.422   4.814   0.639 -0.2026 -0.4645 -0.1862
 5375TIP3   OH237683   2.466   2.983   7.820 -0.1426 -0.4616 -0.2911
 5375TIP3    H137684   2.424   3.069   7.830  1.7024  0.3458  1.0169
 5375TIP3    H237685   2.507   2.987   7.734  0.2731  0.1319 -0.0706
 5376TIP3   OH237686   0.985   3.012   7.498 -0.1407 -0.3086 -0.1260
 5376TIP3    H137687   0.953   2.954   7.567  0.2070 -1.8427 -1.2168
 5376TIP3    H237688   1.028   3.084   7.546 -1.2905 -0.5012  1.2599
 5377TIP3   OH237689   5.889   1.525   0.547 -0.3567 -0.2677 -0.0843
 5377TIP3    H137690   5.978   1.502   0.572 -0.5109 -2.9664 -1.6191
 5377TIP3    H237691   5.857   1.448   0.499 -2.6774  1.5421 -1.6618
 5378TIP3   OH237692   3.410   5.415   0.116 -0.0244  0.2528  0.2923
 5378TIP3    H137693   3.364   5.373   0.044  1.5513  0.4723 -0.9106
 5378TIP3    H237694   3.361   5.496   0.132 -1.0660 -0.3579  0.2814
 5379TIP3   OH237695   6.434   0.539   6.201 -0.0412  0.2968  0.7003
 5379TIP3    H137696   6.434   0.600   6.127  1.5668  1.1169  1.3302
 5379TIP3    H237697   6.523   0.543   6.236  0.3711 -3.0111  0.3515
 5380TIP3   OH237698   4.182   4.842   1.724  0.3241 -0.4425 -0.5676
 5380TIP3    H137699   4.091   4.845   1.694  0.7581  0.1430 -1.9082
 5380TIP3    H237700   4.219   4.765   1.682  0.1463 -1.4312  0.9984
 5381TIP3   OH237701   6.608   5.876   1.518 -0.1231 -0.5407 -0.1296
 5381TIP3    H137702   6.684   5.823   1.543 -0.6979 -1.1992  0.2571
 5381TIP3    H237703   6.619   5.891   1.424 -0.1139 -1.6418 -0.3220
 5382TIP3   OH237704   1.672   3.067   7.970 -0.4752 -0.4599  0.1374
 5382TIP3    H137705   1.684   3.098   8.060  1.5868 -0.5336 -0.0529
 5382TIP3    H237706   1.735   2.995   7.962 -0.2060 -0.0735 -1.5311
 5383TIP3   OH237707   1.879   0.222   0.463  0.2346  0.1508  0.7551
 5383TIP3    H137708   1.961   0.173   0.450  0.3819  0.8900 -1.5091
 5383TIP3    H237709   1.907   0.308   0.493  0.2661  0.2297  0.5037
 5384TIP3   OH237710   4.105   1.167   6.967  0.5290  1.0943  0.0226
 5384TIP3    H137711   4.065   1.172   7.053 -1.5310 -0.4341 -0.7677
 5384TIP3    H237712   4.048   1.220   6.911 -0.2649 -0.8203 -1.0585
 5385TIP3   OH237713   1.225   5.098   6.938  0.4324 -0.0249 -0.3191
 5385TIP3    H137714   1.184   5.138   7.015 -0.1989 -0.4399 -0.4353
 5385TIP3    H237715   1.256   5.012   6.969 -0.5423 -0.5371 -0.7155
 5386TIP3   OH237716   6.066   5.454   7.910  0.4810 -0.3068  0.8726
 5386TIP3    H137717   6.139   5.493   7.862  0.6321 -1.4667  0.1249
 5386TIP3    H237718   5.990   5.471   7.856  0.4367 -0.4126  0.9002
 5387TIP3   OH237719   2.597   3.616   2.068  0.4861 -0.3382  0.1832
 5387TIP3    H137720   2.648   3.594   2.145  1.4541  0.6752 -0.1484
 5387TIP3    H237721   2.642   3.572   1.996  1.1873  0.9261 -0.1767
 5388TIP3   OH237722   0.139   4.353   8.497 -0.1362  0.0292  0.2411
 5388TIP3    H137723   0.203   4.287   8.470 -0.0270 -0.0492  0.6792
 5388TIP3    H237724   0.140   4.418   8.428  1.3776  0.6983  0.8708
 5389TIP3   OH237725   2.205   2.408   0.348  0.3489  0.2321 -0.3576
 5389TIP3    H137726   2.266   2.463   0.299  0.7948  0.3792  0.3353
 5389TIP3    H237727   2.255   2.328   0.366  0.7627  0.7908  1.1683
 5390TIP3   OH237728   5.807   1.796   8.091  0.3680  0.0810 -0.4042
 5390TIP3    H137729   5.770   1.708   8.090  1.1143 -0.2323 -0.3620
 5390TIP3    H237730   5.761   1.840   8.162  1.0239 -0.7194  0.5322
 5391TIP3   OH237731   1.323   3.124   1.790 -0.1242 -0.3404  0.6165
 5391TIP3    H137732   1.407   3.101   1.829 -0.3438  2.2168  2.8757
 5391TIP3    H237733   1.257   3.092   1.852 -0.6755  0.3224  0.3890
 5392TIP3   OH237734   6.553   2.395   8.276  0.2603  0.3859  0.2054
 5392TIP3    H137735   6.548   2.483   8.238 -0.1300  0.4859  0.4782
 5392TIP3    H237736   6.485   2.395   8.343  0.1229 -0.1981  0.0663
 5393TIP3   OH237737   5.314   6.634   1.713  0.0233  0.0621 -0.2897
 5393TIP3    H137738   5.369   6.696   1.666 -0.5744 -0.4711 -1.7786
 5393TIP3    H237739   5.237   6.623   1.657  0.1994 -2.1521 -0.2188
 5394TIP3   OH237740   2.855   3.034   7.216 -0.5320 -0.0244  0.2323
 5394TIP3    H137741   2.923   3.101   7.206  2.0450 -2.5211 -0.3286
 5394TIP3    H237742   2.858   3.010   7.308 -0.2358 -0.5303  0.0936
 5395TIP3   OH237743   2.061   2.534   8.291  0.5064 -0.0883  0.1011
 5395TIP3    H137744   2.070   2.582   8.373 -2.2245  1.2000 -0.2446
 5395TIP3    H237745   1.967   2.529   8.276  0.8828 -1.0626 -2.5301
 5396TIP3   OH237746   6.329   3.249   2.186  0.4511 -0.6381 -0.4537
 5396TIP3    H137747   6.415   3.261   2.144  0.1305  0.0043 -0.9445
 5396TIP3    H237748   6.268   3.241   2.113  0.2155 -2.1443 -0.1169
 5397TIP3   OH237749   6.682   5.887   1.835  0.3345  0.0803  0.4098
 5397TIP3    H137750   6.722   5.939   1.904 -0.3006  1.0176  0.0964
 5397TIP3    H237751   6.754   5.868   1.775  0.0781  3.5789 -1.2945
 5398TIP3   OH237752   3.133   1.983   6.554 -0.3500  0.2497 -0.3267
 5398TIP3    H137753   3.068   2.045   6.586 -0.0995  1.7239 -2.4461
 5398TIP3    H237754   3.082   1.912   6.515 -0.6514  0.1691  0.2073
 5399TIP3   OH237755   2.424   6.355   1.458  0.3870  0.2010 -0.0610
 5399TIP3    H137756   2.456   6.274   1.419  1.0138  0.5760 -0.3510
 5399TIP3    H237757   2.378   6.400   1.387  1.1125  0.6604 -0.2570
 5400TIP3   OH237758   3.656   6.253   0.480 -0.3125 -0.4573  0.1629
 5400TIP3    H137759   3.643   6.277   0.572 -0.5571 -2.3604  0.6785
 5400TIP3    H237760   3.733   6.302   0.452 -0.3969  0.3538  1.3060
 5401TIP3   OH237761   3.528   5.391   0.579  0.5376 -0.2537  0.0696
 5401TIP3    H137762   3.566   5.391   0.490  0.1682 -0.8892 -0.0954
 5401TIP3    H237763   3.602   5.414   0.636  1.0158 -0.7898 -0.3147
 5402TIP3   OH237764   3.067   6.732   7.206 -0.4483 -0.0166 -0.6832
 5402TIP3    H137765   2.994   6.733   7.143 -0.9646  0.9984 -0.0850
 5402TIP3    H237766   3.033   6.778   7.282 -0.0106 -1.6633  0.5654
 5403TIP3   OH237767   2.020   4.982   0.082  0.0327 -0.2732 -0.1723
 5403TIP3    H137768   1.975   4.901   0.104 -1.0143 -0.1503 -1.7361
 5403TIP3    H237769   2.109   4.971   0.117 -0.7452 -1.1200  1.6575
 5404TIP3   OH237770   0.047   6.021   8.043  0.4110  0.9512  0.1048
 5404TIP3    H137771   0.135   6.047   8.072  0.3981  1.7743 -0.5981
 5404TIP3    H237772   0.059   5.988   7.954  0.7478 -3.2424  1.4721
 5405TIP3   OH237773   4.788   3.768   0.119  0.0283  0.1147  0.0026
 5405TIP3    H137774   4.751   3.719   0.045  0.1597 -0.0012  0.0115
 5405TIP3    H237775   4.764   3.717   0.196  0.1635  0.0660  0.0124
 5406TIP3   OH237776   3.421   6.699   1.812  0.6624 -0.2078 -0.3452
 5406TIP3    H137777   3.334   6.667   1.791  0.1865  0.0087  1.1551
 5406TIP3    H237778   3.470   6.621   1.839 -0.0105  0.0395  1.7429
 5407TIP3   OH237779   5.938   2.281   8.152  0.5165  0.6100  0.0439
 5407TIP3    H137780   5.870   2.328   8.201  0.9349  0.6050  0.6393
 5407TIP3    H237781   5.959   2.205   8.206  0.8920  0.5305 -0.2072
 5408TIP3   OH237782   4.346   4.860   1.943  0.2478  0.0937  0.0478
 5408TIP3    H137783   4.291   4.810   2.003  1.2329 -0.1430  0.7692
 5408TIP3    H237784   4.295   4.864   1.862 -0.5455 -0.6813  0.4919
 5409TIP3   OH237785   1.588   5.765   7.755  0.2495 -0.1526 -0.6890
 5409TIP3    H137786   1.527   5.826   7.714  0.8604 -0.3003 -1.8552
 5409TIP3    H237787   1.626   5.815   7.828 -2.4033 -0.5776  1.1486
 5410TIP3   OH237788   0.428   3.403   8.449  0.3661 -0.6759  0.0704
 5410TIP3    H137789   0.456   3.444   8.368 -1.9622  0.4731 -0.2480
 5410TIP3    H237790   0.499   3.418   8.511  0.6652  1.6241 -0.7623
 5411TIP3   OH237791   6.800   6.059   2.018  0.1561  0.2468  0.1298
 5411TIP3    H137792   6.882   6.108   2.028 -0.3346  1.0298  0.3298
 5411TIP3    H237793   6.740   6.099   2.080 -0.8318  0.6480 -1.0517
 5412TIP3   OH237794   6.723   2.254   0.535  0.0740  0.2550 -0.1850
 5412TIP3    H137795   6.636   2.243   0.497 -0.8312 -0.8854  2.0250
 5412TIP3    H237796   6.783   2.239   0.462 -1.5417  1.6519 -1.8967
 5413TIP3   OH237797   4.877   5.925   2.048  0.0261 -0.6857  0.2351
 5413TIP3    H137798   4.830   5.991   1.997  0.7096 -1.2023 -1.1075
 5413TIP3    H237799   4.883   5.849   1.990  1.5341 -1.0140  0.7743
 5414TIP3   OH237800   6.319   4.743   0.560  0.0076 -0.2168 -0.3157
 5414TIP3    H137801   6.380   4.775   0.494  1.7933 -2.7635 -0.0450
 5414TIP3    H237802   6.265   4.678   0.514 -0.6287 -0.0161  0.1202
 5415TIP3   OH237803   0.431   3.578   6.427  0.2320 -0.2096  0.1249
 5415TIP3    H137804   0.465   3.489   6.423  0.2537 -0.1559 -1.4183
 5415TIP3    H237805   0.419   3.603   6.335  1.2367  1.7700  0.4934
 5416TIP3   OH237806   2.830   5.614   0.468  0.0286  0.2553 -0.1711
 5416TIP3    H137807   2.795   5.584   0.384 -1.2839 -0.7776  0.7083
 5416TIP3    H237808   2.753   5.640   0.518  0.8047  1.0018  0.6730
 5417TIP3   OH237809   4.424   4.375   1.216  0.1408 -0.6113 -0.2491
 5417TIP3    H137810   4.441   4.353   1.308 -0.0336  0.0704 -0.0505
 5417TIP3    H237811   4.499   4.340   1.168  1.9256  1.9321  0.5403
 5418TIP3   OH237812   3.660   4.355   8.607 -0.3183  0.1990  0.3073
 5418TIP3    H137813   3.640   4.397   8.690  0.7406  0.3822  0.4821
 5418TIP3    H237814   3.574   4.329   8.572 -1.0253  2.4444  0.2060
 5419TIP3   OH237815   1.620   1.412   7.824  0.2154 -0.2217  0.3584
 5419TIP3    H137816   1.695   1.393   7.769 -0.1824 -0.0901 -0.2447
 5419TIP3    H237817   1.582   1.326   7.844  0.0321 -0.2389 -0.0511
 5420TIP3   OH237818   4.353   4.129   8.237  0.5473  0.5610 -0.0861
 5420TIP3    H137819   4.318   4.066   8.301 -0.6933 -0.1693 -1.4242
 5420TIP3    H237820   4.440   4.150   8.270  0.2460 -0.3852  1.4339
 5421TIP3   OH237821   2.140   5.578   0.764 -0.0500 -0.4445  0.2439
 5421TIP3    H137822   2.123   5.641   0.834  1.8032  0.8193 -0.3692
 5421TIP3    H237823   2.220   5.610   0.722 -0.2623 -2.0227 -1.4818
 5422TIP3   OH237824   5.479   3.955   0.512  0.3284  0.2581  0.8395
 5422TIP3    H137825   5.429   4.001   0.579  0.4297 -1.1168  1.9054
 5422TIP3    H237826   5.550   4.016   0.489 -0.8287  1.5295  0.5331
 5423TIP3   OH237827   2.437   1.308   1.312  0.1716  0.0855  0.5602
 5423TIP3    H137828   2.400   1.342   1.231 -0.3607 -0.9034  0.3750
 5423TIP3    H237829   2.532   1.321   1.302  0.0308  0.9023  0.2310
 5424TIP3   OH237830   4.749   1.298   1.240  0.1573 -0.4489 -0.2210
 5424TIP3    H137831   4.822   1.296   1.178  2.2187 -0.0335  2.0913
 5424TIP3    H237832   4.760   1.220   1.294 -1.3930 -0.6176 -0.0895
 5425TIP3   OH237833   4.612   0.624   8.137  0.5980 -0.1806  0.0828
 5425TIP3    H137834   4.676   0.695   8.135  1.5948 -0.9601  1.8646
 5425TIP3    H237835   4.550   0.649   8.206 -0.7832  0.3207 -1.2791
 5426TIP3   OH237836   0.911   5.353   6.621 -0.5056 -0.5940  0.7052
 5426TIP3    H137837   0.823   5.317   6.610 -1.6367  2.1348  0.1030
 5426TIP3    H237838   0.962   5.281   6.658 -2.4534 -2.9148 -0.8058
 5427TIP3   OH237839   1.782   0.067   7.147  0.1601  0.4112  0.0092
 5427TIP3    H137840   1.767   0.081   7.054  1.4398  0.5164 -0.1980
 5427TIP3    H237841   1.873   0.039   7.153  0.4885  1.5969  1.3334
 5428TIP3   OH237842   3.035   5.346   0.393 -0.1964  0.2892  0.2883
 5428TIP3    H137843   3.000   5.377   0.310 -4.2295  0.5967  1.8584
 5428TIP3    H237844   3.105   5.408   0.415  0.5843  0.5146 -2.5033
 5429TIP3   OH237845   5.168   0.761   8.240 -0.0663  0.1422 -0.1606
 5429TIP3    H137846   5.079   0.736   8.215 -0.0371  1.1390 -1.3792
 5429TIP3    H237847   5.223   0.689   8.210 -0.4498 -0.4332  0.5117
 5430TIP3   OH237848   4.476   5.088   0.141 -0.0187  0.8351 -0.1089
 5430TIP3    H137849   4.538   5.126   0.204  0.2218 -0.2827  0.3553
 5430TIP3    H237850   4.421   5.031   0.194  0.4328 -0.4258 -0.9719
 5431TIP3   OH237851   1.065   6.376   1.254 -0.3555  0.2079  0.2834
 5431TIP3    H137852   1.107   6.374   1.168 -0.3144 -1.1174  0.3023
 5431TIP3    H237853   1.047   6.468   1.271 -1.7168  0.3984 -1.8241
 5432TIP3   OH237854   3.328   6.727   7.364  0.1398  0.5166  0.1906
 5432TIP3    H137855   3.232   6.726   7.366  0.1211 -1.3884  1.3612
 5432TIP3    H237856   3.352   6.647   7.316  1.0863 -0.2372  1.8144
 5433TIP3   OH237857   0.352   0.070   2.638 -0.0134 -0.2152  0.2687
 5433TIP3    H137858   0.344   0.140   2.573 -1.6220 -1.7334 -1.2794
 5433TIP3    H237859   0.399   0.000   2.593  1.3690 -0.2674  1.7155
 5434TIP3   OH237860   6.119   4.422   8.576  0.3060 -0.6472  0.5140
 5434TIP3    H137861   6.211   4.399   8.584  0.5555 -0.6497 -1.7733
 5434TIP3    H237862   6.073   4.339   8.573  0.6907 -0.8613 -2.3791
 5435TIP3   OH237863   2.946   1.143   6.758  0.3407 -0.1815 -0.0114
 5435TIP3    H137864   2.907   1.166   6.842  3.5840  0.1545  1.5471
 5435TIP3    H237865   2.986   1.224   6.726 -0.6503 -0.3495 -1.8336
 5436TIP3   OH237866   5.268   1.906   0.931  0.1310 -0.3212  0.2765
 5436TIP3    H137867   5.266   1.816   0.964 -1.1236  0.2547  1.9185
 5436TIP3    H237868   5.284   1.897   0.837 -3.0091 -2.4443 -0.1963
 5437TIP3   OH237869   5.719   4.697   0.029 -0.0069 -0.3719  0.5943
 5437TIP3    H137870   5.636   4.655   0.051  0.5305 -1.6062  0.3090
 5437TIP3    H237871   5.720   4.777   0.082 -0.9675 -0.7990  1.2775
 5438TIP3   OH237872   2.578   6.855   1.708 -0.3760 -0.1723 -0.5023
 5438TIP3    H137873   2.551   6.874   1.797  4.0086 -0.4444  1.1679
 5438TIP3    H237874   2.548   6.765   1.692 -0.8677 -0.2679  0.8601
 5439TIP3   OH237875   4.658   2.391   0.389  0.9896 -0.6451 -0.1756
 5439TIP3    H137876   4.642   2.317   0.330  1.1379 -2.1393  1.5665
 5439TIP3    H237877   4.746   2.375   0.425  0.7713  0.0293  0.7037
 5440TIP3   OH237878   2.439   5.432   2.177  0.2212  0.3813 -0.2030
 5440TIP3    H137879   2.412   5.515   2.216  0.8254  1.6375 -2.2881
 5440TIP3    H237880   2.488   5.388   2.246 -3.7533 -0.3587  2.4972
 5441TIP3   OH237881   3.832   4.623   1.186  0.0731 -0.3217  0.5701
 5441TIP3    H137882   3.762   4.673   1.228  0.6052 -0.0278  1.1298
 5441TIP3    H237883   3.908   4.682   1.187  0.1365 -0.3727 -0.6846
 5442TIP3   OH237884   5.711   3.507   6.946 -0.6079 -0.1289 -0.2067
 5442TIP3    H137885   5.619   3.532   6.932 -0.5046  0.4407  0.1265
 5442TIP3    H237886   5.732   3.451   6.871 -1.0545  0.2047 -0.5855
 5443TIP3   OH237887   0.123   4.559   8.326 -0.1227  0.0996  0.0642
 5443TIP3    H137888   0.027   4.550   8.324 -0.0999 -0.2735  0.5431
 5443TIP3    H237889   0.152   4.519   8.244 -0.3224 -0.5069  0.2878
 5444TIP3   OH237890   6.760   5.235   1.540  0.4778  0.0968  0.4292
 5444TIP3    H137891   6.714   5.161   1.580  0.5450 -0.1658  0.0234
 5444TIP3    H237892   6.689   5.290   1.506  0.4599 -0.5276 -0.5880
 5445TIP3   OH237893   2.929   1.642   7.729  0.4384 -0.2906 -0.6549
 5445TIP3    H137894   2.939   1.691   7.810 -0.1236  0.8858 -1.2774
 5445TIP3    H237895   2.921   1.551   7.758  1.1121  0.0037  0.5422
 5446TIP3   OH237896   5.492   6.774   0.853  0.0822 -0.2203  0.3901
 5446TIP3    H137897   5.491   6.769   0.948 -0.1899 -1.4313  0.3426
 5446TIP3    H237898   5.399   6.775   0.828  0.1214  1.9098  0.1872
 5447TIP3   OH237899   6.070   5.735   6.583 -0.4485  0.1573  0.4862
 5447TIP3    H137900   6.042   5.805   6.524  0.3413  0.0764 -0.0021
 5447TIP3    H237901   6.030   5.656   6.547  3.2218 -0.6432 -2.4941
 5448TIP3   OH237902   1.054   2.652   8.413 -0.2103  0.2126 -0.0109
 5448TIP3    H137903   1.057   2.577   8.353  1.5502  0.2550 -0.0104
 5448TIP3    H237904   1.136   2.647   8.462 -1.0188  0.9598  1.4709
 5449TIP3   OH237905   2.590   3.038   8.159 -0.2458  0.2064  0.4896
 5449TIP3    H137906   2.583   2.978   8.085 -1.4223  1.8772 -0.8185
 5449TIP3    H237907   2.505   3.030   8.204  0.8106 -1.5722  2.3828
 5450TIP3   OH237908   6.407   3.794   0.021 -0.1703  0.5870  1.1777
 5450TIP3    H137909   6.320   3.763  -0.004  0.1266 -0.0125  0.8783
 5450TIP3    H237910   6.433   3.738   0.094 -0.7292  1.8661  2.3954
 5451TIP3   OH237911   3.488   5.480   7.702  0.1775  0.6181  0.1698
 5451TIP3    H137912   3.527   5.403   7.660  0.5202  1.3405 -0.8883
 5451TIP3    H237913   3.417   5.506   7.643  1.7034  2.6255 -0.8996
 5452TIP3   OH237914   2.746   1.948   0.116  0.4751 -0.7146  0.0035
 5452TIP3    H137915   2.788   1.913   0.037 -2.7868 -4.0423 -0.5525
 5452TIP3    H237916   2.666   1.990   0.084  0.3075  0.0895  1.4084
 5453TIP3   OH237917   3.606   2.547   0.751  0.1739 -0.4172  0.1996
 5453TIP3    H137918   3.583   2.454   0.758 -0.3054 -0.2136  1.6708
 5453TIP3    H237919   3.587   2.583   0.838 -0.5927  1.2753 -0.6404
 5454TIP3   OH237920   6.499   0.280   8.030  0.1846 -0.1939  0.2081
 5454TIP3    H137921   6.539   0.301   8.114  2.9902  0.0936 -1.0760
 5454TIP3    H237922   6.532   0.348   7.971 -0.3408 -1.3301 -1.4566
 5455TIP3   OH237923   6.557   0.017   7.992  0.4318  0.2563 -0.1242
 5455TIP3    H137924   6.523   0.107   7.998  1.0288  0.3938  3.3848
 5455TIP3    H237925   6.481  -0.039   8.005  0.2148  0.2194 -1.3801
 5456TIP3   OH237926   4.318   3.136   1.505 -0.0820 -0.2193  0.6720
 5456TIP3    H137927   4.255   3.122   1.434  0.9350 -2.1186  0.0826
 5456TIP3    H237928   4.265   3.168   1.578 -1.4511 -0.0980 -0.3351
 5457TIP3   OH237929   2.664   2.255   8.285 -0.0769  1.1423 -0.4655
 5457TIP3    H137930   2.615   2.318   8.338 -1.2710  1.2819 -1.6958
 5457TIP3    H237931   2.598   2.195   8.252  0.6243  1.1000 -1.8535
 5458TIP3   OH237932   5.582   1.487   6.674 -0.4226 -0.3972  0.0301
 5458TIP3    H137933   5.623   1.568   6.641  0.7707 -0.8391  0.3702
 5458TIP3    H237934   5.644   1.418   6.651 -1.0908 -1.1330  0.3866
 5459TIP3   OH237935   4.101   1.814   7.246  0.6732 -0.1286 -0.0547
 5459TIP3    H137936   4.155   1.746   7.286  0.3384 -0.0775  0.5037
 5459TIP3    H237937   4.108   1.888   7.306  0.4490  0.0765 -0.2793
 5460TIP3   OH237938   1.597   2.423   6.527 -0.0282  0.0032 -0.1993
 5460TIP3    H137939   1.516   2.446   6.574  0.9105 -0.6183  1.8460
 5460TIP3    H237940   1.662   2.484   6.563  0.6218 -0.1290 -1.1397
 5461TIP3   OH237941   4.163   2.064   0.001  0.4604 -0.9198  0.7682
 5461TIP3    H137942   4.246   2.059  -0.047  0.2808  1.9804 -0.0866
 5461TIP3    H237943   4.187   2.098   0.087  0.1440  0.8918  0.1857
 5462TIP3   OH237944   4.435   1.485   6.235 -0.5603 -0.3608  0.0496
 5462TIP3    H137945   4.426   1.407   6.289 -1.6051 -0.0176  0.3948
 5462TIP3    H237946   4.382   1.551   6.280  0.1890  0.5088 -0.3130
 5463TIP3   OH237947   5.175   5.924   7.525  0.7902  0.0620  0.1586
 5463TIP3    H137948   5.209   5.938   7.437  0.5456 -0.6703 -0.0619
 5463TIP3    H237949   5.135   5.837   7.522  1.1516 -0.1576  1.1100
 5464TIP3   OH237950   3.570   5.253   7.560 -0.2406  0.3213  0.0811
 5464TIP3    H137951   3.644   5.207   7.520 -0.3216  0.6080 -0.4070
 5464TIP3    H237952   3.496   5.233   7.503 -0.1808  1.4502 -0.4220
 5465TIP3   OH237953   0.079   3.595   6.972  0.4283 -0.5410 -0.2140
 5465TIP3    H137954   0.111   3.539   6.902  1.5993  0.5901 -0.6304
 5465TIP3    H237955   0.140   3.669   6.974 -0.6608  0.3898  0.7557
 5466TIP3   OH237956   4.923   6.047   0.994  0.1343 -0.0222  0.5371
 5466TIP3    H137957   4.865   5.980   0.957  1.7329 -2.0311  1.4724
 5466TIP3    H237958   4.940   6.106   0.921 -3.0402  0.7039  0.2197
 5467TIP3   OH237959   0.047   5.565   7.336  0.1891  0.0936 -0.0638
 5467TIP3    H137960   0.068   5.627   7.406 -1.0154  0.1741  0.2516
 5467TIP3    H237961  -0.014   5.613   7.279  0.0895 -0.4398 -0.4107
 5468TIP3   OH237962   6.410   0.617   0.910  0.1012 -0.3085  0.2393
 5468TIP3    H137963   6.365   0.678   0.969 -1.1103 -0.5783 -0.3761
 5468TIP3    H237964   6.448   0.673   0.842 -2.2154 -0.2474 -1.1301
 5469TIP3   OH237965   0.878   2.780   6.968 -0.1837  0.5502 -0.0653
 5469TIP3    H137966   0.791   2.741   6.967 -1.0633  2.4113  0.1254
 5469TIP3    H237967   0.927   2.728   7.033 -1.2173 -0.3288  0.0382
 5470TIP3   OH237968   2.376   0.395   7.831  0.4769  0.0450 -0.5472
 5470TIP3    H137969   2.412   0.347   7.757  2.5617  1.3781 -0.4637
 5470TIP3    H237970   2.317   0.459   7.791  2.2813  1.3691 -1.1929
 5471TIP3   OH237971   0.081   1.386   7.958  1.0098  0.4479  0.1840
 5471TIP3    H137972   0.085   1.381   8.054  2.5673  2.4948  0.3084
 5471TIP3    H237973   0.163   1.348   7.929  0.5615 -0.1216 -0.3592
 5472TIP3   OH237974   1.629   5.742   1.193 -0.2382 -0.0478 -0.2061
 5472TIP3    H137975   1.593   5.681   1.128  0.5259 -1.3946  0.5889
 5472TIP3    H237976   1.671   5.811   1.141  1.4402 -1.7227 -1.1950
 5473TIP3   OH237977   6.421   4.320   0.861 -0.5144  0.2072 -0.3282
 5473TIP3    H137978   6.505   4.331   0.815  0.0295  0.7740  0.7549
 5473TIP3    H237979   6.443   4.333   0.953 -1.3501 -2.0010  0.2394
 5474TIP3   OH237980   0.170   4.633   1.338 -0.4529  0.0215 -0.0920
 5474TIP3    H137981   0.164   4.722   1.372 -0.7767  0.6858 -1.8104
 5474TIP3    H237982   0.243   4.593   1.386  0.9684  1.8338 -0.6439
 5475TIP3   OH237983   1.630   4.291   1.518 -0.4572  0.1946  0.2374
 5475TIP3    H137984   1.608   4.199   1.506  0.8837 -0.4291  2.0635
 5475TIP3    H237985   1.665   4.296   1.607  1.1518  2.1394 -0.4130
 5476TIP3   OH237986   0.305   0.025   6.371 -0.0931 -0.0126  0.2601
 5476TIP3    H137987   0.292   0.041   6.465 -0.4373 -1.7461  0.5575
 5476TIP3    H237988   0.345  -0.062   6.367 -1.7251 -0.7754 -1.2353
 5477TIP3   OH237989   4.382   1.716   0.965 -0.3799  0.5236  0.7048
 5477TIP3    H137990   4.352   1.786   0.907  1.0421  1.5556  1.1462
 5477TIP3    H237991   4.308   1.698   1.023 -1.8883 -0.6249 -1.4415
 5478TIP3   OH237992   1.408   5.027   1.679  0.4132  0.1450  0.2392
 5478TIP3    H137993   1.335   5.043   1.619  0.8136 -0.4777 -0.4347
 5478TIP3    H237994   1.410   5.104   1.736  0.0672  0.7897 -0.5964
 5479TIP3   OH237995   3.512   0.990   1.152 -0.0280 -0.0420 -0.1929
 5479TIP3    H137996   3.599   1.029   1.149  0.1507 -0.4705 -1.7177
 5479TIP3    H237997   3.501   0.964   1.243  0.3333  2.3914  0.6182
 5480TIP3   OH237998   2.258   6.692   6.998 -0.4934  0.0719 -0.1459
 5480TIP3    H137999   2.289   6.738   6.920 -0.7614  0.2101 -0.1691
 5480TIP3    H238000   2.336   6.647   7.031 -0.5743 -0.7682 -1.0396
 5481TIP3   OH238001   0.860   4.794   7.944 -0.3888 -0.2037 -0.3529
 5481TIP3    H138002   0.801   4.736   7.896  0.3578 -1.5477  0.3112
 5481TIP3    H238003   0.863   4.874   7.891 -0.3091 -1.2811 -2.0509
 5482TIP3   OH238004   2.578   0.266   7.680 -0.2492  0.4412  0.1497
 5482TIP3    H138005   2.535   0.180   7.687  1.3043 -0.3999 -0.0591
 5482TIP3    H238006   2.656   0.258   7.735  0.7814  1.1491 -1.1582
 5483TIP3   OH238007   4.600   0.383   1.004  0.3375 -0.3849 -0.0103
 5483TIP3    H138008   4.585   0.477   0.994  0.4881 -0.2580  0.8695
 5483TIP3    H238009   4.512   0.347   1.017  0.3496 -0.2656  0.4107
 5484TIP3   OH238010   0.188   1.964   7.436  0.2454  0.1677  0.1588
 5484TIP3    H138011   0.109   1.910   7.445 -0.4733  1.1397 -0.0875
 5484TIP3    H238012   0.205   1.966   7.342 -0.2501  1.0575  0.0744
 5485TIP3   OH238013   0.043   3.082   8.621 -0.3052  0.3718 -0.3337
 5485TIP3    H138014   0.119   3.131   8.590 -0.7162  1.5728  0.5061
 5485TIP3    H238015  -0.032   3.138   8.601 -0.8175 -0.0589  0.3564
 5486TIP3   OH238016   2.166   1.655   1.413  0.1789  0.1110  0.4411
 5486TIP3    H138017   2.140   1.565   1.395  1.8586 -0.2957 -0.1646
 5486TIP3    H238018   2.085   1.705   1.412 -0.7948 -1.4104  0.9282
 5487TIP3   OH238019   3.487   4.306   6.894 -0.3657 -0.1524  0.2410
 5487TIP3    H138020   3.530   4.346   6.818  1.2421  0.0421  1.1932
 5487TIP3    H238021   3.492   4.374   6.962 -1.4683 -0.4456  0.6329
 5488TIP3   OH238022   5.597   4.784   6.953  0.7074 -0.4095  0.2701
 5488TIP3    H138023   5.587   4.781   7.049  0.7121  0.6238  0.3103
 5488TIP3    H238024   5.514   4.751   6.920  0.8072 -1.0493  0.6188
 5489TIP3   OH238025   5.896   4.779   1.608  0.6030 -0.3349 -0.0219
 5489TIP3    H138026   5.977   4.733   1.584 -0.4263 -3.0392  1.3064
 5489TIP3    H238027   5.923   4.838   1.680  1.8996  1.1370 -1.6058
 5490TIP3   OH238028   1.684   0.284   8.047  0.1162 -0.8037  0.1000
 5490TIP3    H138029   1.598   0.317   8.075  0.8470  1.6353 -0.3430
 5490TIP3    H238030   1.694   0.316   7.958  1.0151 -2.0917 -0.2857
 5491TIP3   OH238031   1.380   5.721   8.548  0.0957 -0.2385  0.8850
 5491TIP3    H138032   1.310   5.660   8.526  1.6629 -1.8754  0.1790
 5491TIP3    H238033   1.398   5.704   8.641  1.7115 -2.2319  0.2796
 5492TIP3   OH238034   3.945   0.006   0.500 -0.1044  0.2358 -0.0882
 5492TIP3    H138035   3.872   0.067   0.494 -0.0509  0.2546 -0.5647
 5492TIP3    H238036   3.908  -0.078   0.471 -0.2933 -0.0692  0.9663
 5493TIP3   OH238037   0.283   5.519   1.578 -0.1353 -0.5842  0.2092
 5493TIP3    H138038   0.209   5.476   1.535  0.2059 -3.0774  1.8274
 5493TIP3    H238039   0.243   5.586   1.633 -0.8913  0.0187 -1.0312
 5494TIP3   OH238040   4.411   6.806   1.958  0.1758  0.1628  0.0629
 5494TIP3    H138041   4.460   6.724   1.962 -1.3813 -1.0835 -3.0545
 5494TIP3    H238042   4.323   6.783   1.987 -0.0256  0.9923  0.1391
 5495TIP3   OH238043   6.225   2.804   8.277 -0.7740 -0.3827 -0.5141
 5495TIP3    H138044   6.317   2.786   8.260 -0.2377  0.9855  0.7386
 5495TIP3    H238045   6.197   2.735   8.336  0.1286  0.4675  0.9736
 5496TIP3   OH238046   5.451   6.763   0.452 -0.0724 -0.4677 -0.2462
 5496TIP3    H138047   5.466   6.846   0.407  0.1159 -0.0101  0.6354
 5496TIP3    H238048   5.522   6.706   0.422  0.4960  0.0744  0.0567
 5497TIP3   OH238049   4.198   2.460   7.234  0.4076 -0.6809  0.9560
 5497TIP3    H138050   4.203   2.507   7.151  0.5693 -1.1761  0.6865
 5497TIP3    H238051   4.240   2.376   7.217  0.1609 -0.9074  1.4557
 5498TIP3   OH238052   3.326   1.631   1.810  0.0449  0.3709  0.2447
 5498TIP3    H138053   3.282   1.617   1.726  1.9058  0.4286 -0.8006
 5498TIP3    H238054   3.270   1.693   1.857 -1.8710 -0.9108 -0.2445
 5499TIP3   OH238055   1.746   5.603   0.490 -0.1021 -0.2888  0.0778
 5499TIP3    H138056   1.773   5.693   0.474 -1.9308  0.2307 -0.2970
 5499TIP3    H238057   1.827   5.558   0.515  0.9575  1.2973 -0.3251
 5500TIP3   OH238058   2.563   4.892   1.831 -0.0770  0.2700  0.2047
 5500TIP3    H138059   2.617   4.961   1.868 -0.3490  0.4788  0.2180
 5500TIP3    H238060   2.524   4.849   1.907  1.3482 -0.9551  0.2916
 5501TIP3   OH238061   1.524   0.666   8.008 -0.3460 -0.2764  0.0044
 5501TIP3    H138062   1.578   0.681   7.929 -1.1761 -1.2518 -0.7816
 5501TIP3    H238063   1.471   0.590   7.985  0.6896 -1.7545  2.1879
 5502TIP3   OH238064   4.065   1.015   0.072 -0.4115  0.5569  0.1594
 5502TIP3    H138065   4.063   0.962   0.152 -2.3720 -1.3110 -1.0278
 5502TIP3    H238066   4.001   1.085   0.088 -0.2454  0.6406  0.4807
 5503TIP3   OH238067   6.336   2.351   6.156  0.3208  0.0437 -0.1599
 5503TIP3    H138068   6.265   2.319   6.213  0.5243  1.4864  0.9748
 5503TIP3    H238069   6.410   2.363   6.215  0.7852  0.8040 -0.8788
 5504TIP3   OH238070   2.443   2.962   6.660  1.5178  0.5729 -0.5078
 5504TIP3    H138071   2.389   2.936   6.735  1.3188 -0.8665 -1.1185
 5504TIP3    H238072   2.526   2.988   6.699  1.2058  0.4471  0.2639
 5505TIP3   OH238073   0.407   3.861   2.134  0.4919  0.4074 -0.1722
 5505TIP3    H138074   0.440   3.939   2.178  1.6179 -0.3441  0.3840
 5505TIP3    H238075   0.478   3.837   2.074  1.0861 -1.3306  1.1424
 5506TIP3   OH238076   0.954   6.777   1.648 -0.2199  0.1750  0.4341
 5506TIP3    H138077   0.969   6.870   1.666 -0.6951  0.0634  1.5015
 5506TIP3    H238078   1.039   6.744   1.620 -0.2444  1.1076 -0.8261
 5507TIP3   OH238079   0.250   3.899   0.858  0.8562  0.5236 -0.5393
 5507TIP3    H138080   0.281   3.989   0.844  1.4177  0.3763 -0.2660
 5507TIP3    H238081   0.297   3.847   0.793  0.2168  0.4880 -0.9765
 5508TIP3   OH238082   1.617   2.440   7.101 -0.1968  0.3362 -0.2686
 5508TIP3    H138083   1.647   2.349   7.103  1.3918  0.7922 -1.1463
 5508TIP3    H238084   1.628   2.470   7.191  0.4312 -0.0047 -0.2205
 5509TIP3   OH238085   1.020   4.021   1.046 -0.1284  0.0145  0.3103
 5509TIP3    H138086   0.934   4.028   1.004 -0.5251 -1.8860  0.7281
 5509TIP3    H238087   1.002   3.984   1.132  0.8949  1.9279  1.4161
 5510TIP3   OH238088   0.236   0.562   6.462 -0.3943 -0.0939 -0.7452
 5510TIP3    H138089   0.303   0.597   6.403 -2.1544  1.6393 -1.8452
 5510TIP3    H238090   0.187   0.639   6.491  0.0550 -0.9550  2.6413
 5511TIP3   OH238091   1.773   6.648   7.059 -0.3413  0.0984  0.4814
 5511TIP3    H138092   1.712   6.575   7.048 -0.6848  0.5914 -1.1157
 5511TIP3    H238093   1.736   6.701   7.129 -1.0195 -0.3328  0.4517
 5512TIP3   OH238094   1.895   4.275   7.437 -0.1599  0.6116 -0.4663
 5512TIP3    H138095   1.841   4.352   7.419 -0.8431  0.2131 -0.1971
 5512TIP3    H238096   1.869   4.211   7.370 -1.0239 -0.0575  0.4644
 5513TIP3   OH238097   6.241   6.053   6.991 -0.4473  0.0486 -0.3358
 5513TIP3    H138098   6.227   6.021   6.902  1.5821 -2.0997  0.0306
 5513TIP3    H238099   6.153   6.054   7.030 -1.3101  0.5674 -2.1486
 5514TIP3   OH238100   5.117   3.985   0.702  0.6338  0.2042  0.2959
 5514TIP3    H138101   5.137   4.017   0.614 -0.6481 -1.7536 -0.7770
 5514TIP3    H238102   5.023   4.001   0.713  0.6684 -0.0600  1.0910
 5515TIP3   OH238103   0.946   4.258   2.169  0.1811  0.3032  0.3675
 5515TIP3    H138104   1.007   4.236   2.239 -0.9353 -0.7615  1.0470
 5515TIP3    H238105   0.894   4.178   2.157 -0.9547  1.1198 -0.3065
 5516TIP3   OH238106   0.069   1.679   7.999  0.3434 -0.1822 -0.1542
 5516TIP3    H138107   0.068   1.675   8.094  0.6202 -0.3541 -0.1578
 5516TIP3    H238108   0.062   1.588   7.970 -0.8182 -0.0561 -0.3150
 5517TIP3   OH238109   2.010   6.190   7.766 -0.5756  0.2398  0.0288
 5517TIP3    H138110   1.936   6.130   7.780 -0.7148  0.2003 -0.8609
 5517TIP3    H238111   2.037   6.215   7.855 -0.7938 -0.7902  0.3975
 5518TIP3   OH238112   6.411   3.459   1.489 -0.2059 -0.4680  0.4059
 5518TIP3    H138113   6.444   3.442   1.578  0.9001  0.4110  0.1955
 5518TIP3    H238114   6.427   3.553   1.476 -0.8310 -0.4854 -0.5344
 5519TIP3   OH238115   2.027   2.148   8.665  0.6648 -0.2043 -1.0292
 5519TIP3    H138116   1.949   2.140   8.610  0.1115 -1.1099 -0.1564
 5519TIP3    H238117   2.006   2.220   8.725  0.3980 -0.6153 -0.6305
 5520TIP3   OH238118   5.781   5.466   0.280  0.2198  0.2995  0.5103
 5520TIP3    H138119   5.846   5.450   0.349  0.7181  0.0905  0.0026
 5520TIP3    H238120   5.756   5.558   0.292  0.4692  0.3272  0.8345
 5521TIP3   OH238121   0.117   0.815   1.181 -0.0891 -0.1056  0.1854
 5521TIP3    H138122   0.065   0.741   1.211 -1.1501  0.8379  0.7237
 5521TIP3    H238123   0.169   0.840   1.257 -0.0749 -0.0024  0.1422
 5522TIP3   OH238124   5.016   3.758   7.282 -0.0279 -0.1765  0.2666
 5522TIP3    H138125   4.942   3.817   7.271 -0.4716 -0.7980 -0.0998
 5522TIP3    H238126   5.023   3.712   7.199  1.1365  0.2868  0.0860
 5523TIP3   OH238127   1.592   5.027   8.056 -0.5787 -0.2511 -0.8026
 5523TIP3    H138128   1.564   5.010   7.966 -0.0768 -1.6436 -0.7066
 5523TIP3    H238129   1.677   5.070   8.047 -0.1824 -1.0685 -0.9799
 5524TIP3   OH238130   2.885   4.527   7.381  0.2088  0.2520  0.3985
 5524TIP3    H138131   2.816   4.510   7.446  0.1265  0.2731  0.3161
 5524TIP3    H238132   2.919   4.613   7.405  2.0795 -0.8625  2.1535
 5525TIP3   OH238133   2.301   0.255   7.318  0.3989 -0.1788  0.0200
 5525TIP3    H138134   2.385   0.248   7.363  0.7990 -1.8265 -0.8828
 5525TIP3    H238135   2.283   0.166   7.288 -0.8518  0.4712 -1.2689
 5526TIP3   OH238136   3.198   4.608   1.663 -0.0190  0.3722 -0.1747
 5526TIP3    H138137   3.235   4.691   1.633 -2.8694  0.9114 -2.7795
 5526TIP3    H238138   3.119   4.633   1.711  1.4357 -0.8018  3.1746
 5527TIP3   OH238139   4.232   5.957   1.189  0.0011 -0.1432  0.1938
 5527TIP3    H138140   4.296   5.894   1.156 -0.8636 -0.9752  0.0762
 5527TIP3    H238141   4.162   5.904   1.226  0.0739  0.7600  1.7175
 5528TIP3   OH238142   5.676   2.180   0.658  0.4434 -0.2096 -0.3273
 5528TIP3    H138143   5.727   2.124   0.600  1.0860 -0.5230  0.5156
 5528TIP3    H238144   5.736   2.199   0.730 -0.2923  0.2872  0.1567
 5529TIP3   OH238145   2.985   2.349   7.113  0.1416  0.2994 -0.0382
 5529TIP3    H138146   2.955   2.263   7.083 -0.4244  0.6421 -0.4531
 5529TIP3    H238147   3.023   2.390   7.036 -0.1803  0.6861  0.0122
 5530TIP3   OH238148   5.209   3.610   0.471 -0.0475  0.0968  0.0414
 5530TIP3    H138149   5.299   3.603   0.439 -0.6252 -0.2071 -1.6179
 5530TIP3    H238150   5.218   3.641   0.561  1.7419 -0.7604  0.2026
 5531TIP3   OH238151   0.611   0.027   0.128 -0.0153  0.5422  0.0318
 5531TIP3    H138152   0.607   0.097   0.064 -1.6323 -0.0910 -0.6323
 5531TIP3    H238153   0.704   0.010   0.141  0.3515  1.1124 -1.6795
 5532TIP3   OH238154   1.293   4.950   6.615 -0.7536  0.0161 -0.2681
 5532TIP3    H138155   1.380   4.923   6.586 -0.3710 -0.5202  1.3107
 5532TIP3    H238156   1.240   4.870   6.608  0.2913 -1.3030  4.0570
 5533TIP3   OH238157   3.317   3.994   1.976  0.5385 -0.2921 -0.2473
 5533TIP3    H138158   3.330   4.076   1.928  2.5481 -0.7667 -0.6135
 5533TIP3    H238159   3.234   3.960   1.943 -0.3048  1.5400 -0.1367
 5534TIP3   OH238160   2.024   5.490   0.529  0.2043  0.3637 -0.3253
 5534TIP3    H138161   2.085   5.427   0.491  1.1005  0.0537  1.5526
 5534TIP3    H238162   2.039   5.485   0.623 -2.7192  0.2912  0.2216
 5535TIP3   OH238163   2.075   4.484   1.008 -0.0982 -0.3415 -0.3316
 5535TIP3    H138164   2.021   4.424   0.956  1.6812 -2.2753 -0.0746
 5535TIP3    H238165   2.084   4.562   0.953 -0.6643 -1.1725 -1.6492
 5536TIP3   OH238166   2.083   1.361   1.714 -0.1525  0.2474  0.3889
 5536TIP3    H138167   2.136   1.358   1.635  1.0993  0.5868  1.1755
 5536TIP3    H238168   2.118   1.289   1.768  0.6885  1.5276  1.6114
 5537TIP3   OH238169   4.979   2.346   8.508  0.1513 -0.1547  0.1416
 5537TIP3    H138170   4.919   2.419   8.496  0.6440  0.0099 -1.4317
 5537TIP3    H238171   4.923   2.272   8.532 -0.8660 -0.2821 -2.3598
 5538TIP3   OH238172   0.937   2.904   8.348 -0.5333  0.3011 -0.5654
 5538TIP3    H138173   0.967   2.824   8.391  2.1766  2.3461  1.7671
 5538TIP3    H238174   0.984   2.906   8.265  2.0720  0.9607  0.8156
 5539TIP3   OH238175   5.422   3.831   7.840  0.2561 -0.0252 -0.3907
 5539TIP3    H138176   5.341   3.879   7.821 -0.4580 -1.5001 -1.2104
 5539TIP3    H238177   5.444   3.787   7.759  0.2318 -2.0282  0.6305
 5540TIP3   OH238178   6.203   6.155   1.308  0.0310  0.2973 -0.2485
 5540TIP3    H138179   6.213   6.205   1.227 -1.2829 -0.1873 -0.7342
 5540TIP3    H238180   6.110   6.162   1.329  0.1330 -0.6027  0.5552
 5541TIP3   OH238181   4.653   1.070   1.863 -0.4570  0.6823  0.3274
 5541TIP3    H138182   4.700   1.056   1.945 -0.4655  1.3895  0.4528
 5541TIP3    H238183   4.713   1.120   1.809 -0.7990  0.9851  0.2278
 5542TIP3   OH238184   1.212   1.106   0.913 -0.2774  0.3536 -0.0905
 5542TIP3    H138185   1.152   1.038   0.882 -1.1345  0.5909  0.9749
 5542TIP3    H238186   1.278   1.114   0.844 -0.9367 -0.5892 -0.8506
 5543TIP3   OH238187   5.719   1.649   8.418  0.0522 -0.2694 -0.1947
 5543TIP3    H138188   5.645   1.674   8.364 -0.3192 -0.8482  0.0395
 5543TIP3    H238189   5.783   1.613   8.356 -0.0158 -0.1277 -0.3474
 5544TIP3   OH238190   5.649   6.650   1.836  0.3866  0.9155  0.2339
 5544TIP3    H138191   5.610   6.602   1.909 -0.7499  1.6701  0.1485
 5544TIP3    H238192   5.710   6.711   1.877 -0.7168  1.7876  0.6385
 5545TIP3   OH238193   1.420   1.549   0.405 -0.0727 -0.0868  0.3508
 5545TIP3    H138194   1.416   1.616   0.474  0.7301 -1.1032  1.4404
 5545TIP3    H238195   1.511   1.552   0.375 -0.5836  0.8453 -1.2386
 5546TIP3   OH238196   1.921   6.008   8.346 -0.2988  0.1077  0.8621
 5546TIP3    H138197   1.874   5.936   8.387  0.3331 -1.3009 -0.7719
 5546TIP3    H238198   1.855   6.053   8.293  0.0917 -2.0407 -1.6614
 5547TIP3   OH238199   2.078   0.566   2.052  0.3476 -0.8610 -0.3349
 5547TIP3    H138200   2.021   0.640   2.032  0.2102 -0.8451  0.1076
 5547TIP3    H238201   2.157   0.583   2.001 -0.2959 -1.2249 -1.4598
 5548TIP3   OH238202   4.826   6.431   0.032 -0.1311 -0.5125 -0.2569
 5548TIP3    H138203   4.797   6.508  -0.018  0.3333  0.6870  1.2347
 5548TIP3    H238204   4.884   6.384  -0.029  0.3058  0.8110 -0.9203
 5549TIP3   OH238205   5.166   0.095   0.102 -0.8588  0.1398 -0.4209
 5549TIP3    H138206   5.218   0.070   0.026  2.8517  5.0683 -0.0411
 5549TIP3    H238207   5.185   0.029   0.168 -0.2053 -1.6003 -2.2757
 5550TIP3   OH238208   2.819   4.400   8.113  0.3532 -0.2616 -0.0316
 5550TIP3    H138209   2.815   4.322   8.168  2.1316 -0.4222 -0.0811
 5550TIP3    H238210   2.822   4.367   8.024  0.6996 -0.1206 -0.0730
 5551TIP3   OH238211   3.510   2.117   8.558 -0.4500  0.6751 -0.5406
 5551TIP3    H138212   3.539   2.204   8.584 -0.1083  0.7731 -1.2320
 5551TIP3    H238213   3.570   2.091   8.488 -0.7963  0.0522 -0.6161
 5552TIP3   OH238214   1.739   0.705   1.154  0.1411 -0.3934  0.3519
 5552TIP3    H138215   1.802   0.707   1.082 -0.4178 -0.5361 -0.1502
 5552TIP3    H238216   1.659   0.669   1.115 -0.9390  1.7882  0.4126
 5553TIP3   OH238217   3.472   4.599   1.433 -0.2066 -0.6315 -0.5023
 5553TIP3    H138218   3.496   4.642   1.515 -3.0855  0.3065 -0.0107
 5553TIP3    H238219   3.478   4.506   1.452  1.1244 -0.4381  0.1061
 5554TIP3   OH238220   6.463   6.353   7.589 -0.6533  0.0363  0.2785
 5554TIP3    H138221   6.474   6.291   7.661  0.6947  1.2818  1.1813
 5554TIP3    H238222   6.474   6.299   7.510  0.9564 -0.8011  1.0398
 5555TIP3   OH238223   6.207   5.894   6.734 -0.1196  0.2074 -0.1135
 5555TIP3    H138224   6.180   5.823   6.676 -1.6342 -2.1176  3.1840
 5555TIP3    H238225   6.292   5.866   6.768  0.1361  0.9076 -0.1613
 5556TIP3   OH238226   3.946   5.414   1.599  0.2255 -1.0038 -0.8054
 5556TIP3    H138227   3.950   5.469   1.677  0.8673 -0.2003 -1.3967
 5556TIP3    H238228   3.923   5.473   1.528  0.1717 -1.6339 -1.3250
 5557TIP3   OH238229   0.533   0.850   8.102  0.0186 -0.4171 -0.1556
 5557TIP3    H138230   0.495   0.779   8.153 -1.4082  1.3947  1.4917
 5557TIP3    H238231   0.534   0.818   8.012 -0.7579 -2.4169  0.4986
 5558TIP3   OH238232   3.265   6.444   8.660  0.3554 -0.3927  0.5054
 5558TIP3    H138233   3.282   6.521   8.714 -0.7655  1.6797 -1.9012
 5558TIP3    H238234   3.344   6.433   8.607 -0.0208  0.0012 -0.1477
 5559TIP3   OH238235   1.129   5.552   6.520  0.1314 -0.5413  0.2729
 5559TIP3    H138236   1.049   5.538   6.570  0.1849 -0.3488  0.4160
 5559TIP3    H238237   1.178   5.471   6.530 -0.3726 -0.9431 -0.4341
 5560TIP3   OH238238   5.836   0.934   1.702  0.2721  0.2814  0.0487
 5560TIP3    H138239   5.753   0.950   1.657  0.1145  1.2433  0.6565
 5560TIP3    H238240   5.815   0.869   1.769  0.0562  0.3744  0.0716
 5561TIP3   OH238241   5.005   3.785   1.598 -0.3601  0.3953 -0.3615
 5561TIP3    H138242   5.024   3.709   1.653  1.4315 -0.1389 -1.6377
 5561TIP3    H238243   4.951   3.842   1.654  0.6474 -0.5067  1.6222
 5562TIP3   OH238244   6.797   2.374   7.834 -0.3805  0.5654  0.6127
 5562TIP3    H138245   6.879   2.400   7.876  0.4634  0.1467 -0.7433
 5562TIP3    H238246   6.746   2.455   7.831  0.7718  1.2942 -0.2862
 5563TIP3   OH238247   0.099   5.853   7.285 -0.3695  0.3729  0.3946
 5563TIP3    H138248   0.185   5.815   7.264 -0.8140 -0.9601  0.9007
 5563TIP3    H238249   0.068   5.888   7.202  0.6539  0.8685  0.1968
 5564TIP3   OH238250   1.350   3.647   0.817  0.1288  0.1006  0.0397
 5564TIP3    H138251   1.406   3.718   0.785  0.1056 -0.6984 -1.9174
 5564TIP3    H238252   1.292   3.690   0.880  2.1670  1.1630  1.3084
 5565TIP3   OH238253   0.442   0.225   1.119 -0.5418 -0.3233  0.9006
 5565TIP3    H138254   0.447   0.176   1.037  0.8386  0.6413  0.3706
 5565TIP3    H238255   0.479   0.165   1.185  0.6744 -0.2097  0.3522
 5566TIP3   OH238256   2.017   1.531   6.316  0.0401  0.2870 -0.1112
 5566TIP3    H138257   2.039   1.449   6.361 -0.5019 -0.2070 -0.7278
 5566TIP3    H238258   1.960   1.577   6.377  0.8420  0.4958  0.5016
 5567TIP3   OH238259   4.310   4.563   7.391 -0.0594  0.4065  0.5072
 5567TIP3    H138260   4.313   4.523   7.304  0.2656  0.7727  0.3521
 5567TIP3    H238261   4.398   4.551   7.426 -0.5909 -1.1734  1.4363
 5568TIP3   OH238262   2.063   4.044   0.232 -0.7207  0.2034 -0.1033
 5568TIP3    H138263   2.090   4.131   0.204 -0.7685  0.0547 -0.6267
 5568TIP3    H238264   2.135   4.012   0.286 -0.4006  0.2903 -0.4810
 5569TIP3   OH238265   2.207   5.788   2.066 -0.3272 -0.1778 -0.0473
 5569TIP3    H138266   2.162   5.786   2.150  0.0302  0.1828  0.1553
 5569TIP3    H238267   2.226   5.881   2.051 -1.9811 -0.0081 -1.3834
 5570TIP3   OH238268   0.874   4.975   1.379  0.0865 -0.2113  0.3202
 5570TIP3    H138269   0.943   4.928   1.333  0.5818 -0.0380  0.8806
 5570TIP3    H238270   0.907   5.064   1.387 -0.1901 -0.1357  0.6299
 5571TIP3   OH238271   0.340   5.605   0.655 -0.1177  0.2205 -0.5010
 5571TIP3    H138272   0.422   5.577   0.695  0.4228  0.5903 -1.3311
 5571TIP3    H238273   0.359   5.691   0.618 -0.6579 -0.0141 -1.3629
 5572TIP3   OH238274   1.616   6.546   1.316  0.4705  0.2219  0.1927
 5572TIP3    H138275   1.642   6.621   1.263 -0.1253  0.7616  0.6515
 5572TIP3    H238276   1.696   6.495   1.326  1.0581  1.1809  0.5046
 5573TIP3   OH238277   5.500   4.899   7.769 -0.0330  0.0347 -0.9091
 5573TIP3    H138278   5.434   4.932   7.708 -0.6657  2.5304  0.9533
 5573TIP3    H238279   5.449   4.877   7.848  0.9534 -1.5291 -0.6774
 5574TIP3   OH238280   5.868   4.359   0.567  0.0142 -0.2135 -0.4369
 5574TIP3    H138281   5.912   4.357   0.652 -0.4070 -0.0600 -0.2132
 5574TIP3    H238282   5.929   4.315   0.508  2.2216  3.1898 -0.9764
 5575TIP3   OH238283   1.098   0.365   7.406  0.2536  0.5843  0.7059
 5575TIP3    H138284   1.023   0.343   7.461 -2.1872  3.8241 -1.0361
 5575TIP3    H238285   1.088   0.309   7.329 -1.5210  2.2338 -0.3252
 5576TIP3   OH238286   4.075   1.453   8.447  0.0945 -0.2219  0.3744
 5576TIP3    H138287   4.034   1.389   8.389  0.5382 -1.1545  1.0643
 5576TIP3    H238288   4.134   1.502   8.390 -0.6987 -0.0017 -0.2827
 5577TIP3   OH238289   3.844   1.593   1.683  0.2964 -0.2383 -0.2400
 5577TIP3    H138290   3.858   1.586   1.777 -1.4145  0.0289  0.0789
 5577TIP3    H238291   3.748   1.591   1.673  0.2407  2.8318 -1.6711
 5578TIP3   OH238292   5.270   2.493   6.591 -0.5686  0.1858  0.2195
 5578TIP3    H138293   5.337   2.501   6.523 -0.6204 -0.9862  0.0138
 5578TIP3    H238294   5.297   2.555   6.659  0.5215 -0.0139 -0.0139
 5579TIP3   OH238295   1.011   3.874   0.176 -0.5751 -0.0267  0.7953
 5579TIP3    H138296   1.005   3.933   0.101 -1.2679  0.1037  0.9434
 5579TIP3    H238297   0.950   3.911   0.240 -0.6665 -0.6407  1.0673
 5580TIP3   OH238298   0.474   2.852   0.196 -0.4843  0.3782  0.4674
 5580TIP3    H138299   0.563   2.882   0.209 -1.5987  4.4857  0.1223
 5580TIP3    H238300   0.474   2.812   0.108  0.8216  1.1567  0.0909
 5581TIP3   OH238301   1.605   1.255   6.753  0.4295  0.0449  0.2008
 5581TIP3    H138302   1.510   1.260   6.764  0.5268  1.4081  0.6124
 5581TIP3    H238303   1.617   1.210   6.669 -0.5442 -1.0241  0.6124
 5582TIP3   OH238304   3.949   0.512   7.821  0.0734 -0.3423 -0.0695
 5582TIP3    H138305   3.943   0.513   7.917  3.2652  0.3359  0.2445
 5582TIP3    H238306   3.978   0.423   7.800 -1.6797 -0.8342 -0.5738
 5583TIP3   OH238307   5.155   0.685   1.880  0.2289 -0.3648  0.1341
 5583TIP3    H138308   5.167   0.623   1.808  0.1243 -0.9123  0.5843
 5583TIP3    H238309   5.212   0.652   1.950  1.5798  1.0507 -0.2384
 5584TIP3   OH238310   5.252   4.253   8.481 -0.4694  0.2689 -0.1172
 5584TIP3    H138311   5.346   4.244   8.501 -0.2315 -0.1631 -1.3079
 5584TIP3    H238312   5.217   4.164   8.488 -0.9597  0.5354  1.0174
 5585TIP3   OH238313   0.873   0.059   1.137  0.2109 -0.7306  0.6843
 5585TIP3    H138314   0.956   0.093   1.171  0.7022  0.4519 -1.4812
 5585TIP3    H238315   0.898   0.008   1.060 -1.0929  0.7711 -0.8281
 5586TIP3   OH238316   5.657   2.314   8.673  0.2761 -0.2204  0.1316
 5586TIP3    H138317   5.596   2.270   8.614  0.1516 -3.5732  2.4805
 5586TIP3    H238318   5.601   2.363   8.734  0.2926  1.2631 -1.0012
 5587TIP3   OH238319   0.622   2.669   6.935 -0.0285  0.1249  0.3649
 5587TIP3    H138320   0.576   2.593   6.972  0.2257 -1.7233 -2.8246
 5587TIP3    H238321   0.557   2.711   6.880  0.7905  0.1776 -0.5829
 5588TIP3   OH238322   0.174   3.173   1.229  0.0556 -0.7206  0.0807
 5588TIP3    H138323   0.197   3.084   1.255  0.4217 -0.2788  1.3202
 5588TIP3    H238324   0.089   3.189   1.269 -1.5340 -1.5513 -2.6595
 5589TIP3   OH238325   4.805   0.072   6.321  0.1989 -0.3727 -0.2696
 5589TIP3    H138326   4.850  -0.013   6.321  1.7954  0.3267 -3.2811
 5589TIP3    H238327   4.747   0.067   6.245 -0.4245  0.8895  0.1059
 5590TIP3   OH238328   5.975   3.676   8.489 -0.0351 -0.1914  0.2066
 5590TIP3    H138329   5.916   3.625   8.433 -0.5928  0.1081  0.5228
 5590TIP3    H238330   6.023   3.732   8.428  0.8930 -1.3712 -0.1980
 5591TIP3   OH238331   6.225   3.476   1.275  0.1140 -0.6767  0.3293
 5591TIP3    H138332   6.279   3.436   1.343 -0.8186 -0.9155  0.9459
 5591TIP3    H238333   6.288   3.510   1.211  1.0183 -0.2410  1.4140
 5592TIP3   OH238334   4.211   5.348   1.076 -0.4433  0.0030  0.2611
 5592TIP3    H138335   4.175   5.408   1.142 -0.3705 -0.1590  0.4503
 5592TIP3    H238336   4.230   5.404   1.001 -0.0345  0.2845  0.5645
 5593TIP3   OH238337   3.047   4.814   1.818  0.0365  0.1806 -0.6676
 5593TIP3    H138338   2.971   4.798   1.762 -1.1772 -3.1584  1.6141
 5593TIP3    H238339   3.028   4.897   1.862 -1.1363  0.5429 -1.7873
 5594TIP3   OH238340   1.108   0.635   1.710  0.5103 -0.3978 -0.1188
 5594TIP3    H138341   1.061   0.668   1.787  1.0267  1.5705 -0.5695
 5594TIP3    H238342   1.144   0.551   1.737 -1.1383 -0.7715  1.0555
 5595TIP3   OH238343   6.692   5.963   8.238  0.3016  0.1898 -0.0243
 5595TIP3    H138344   6.753   6.036   8.247 -0.3081  0.6621  0.4348
 5595TIP3    H238345   6.709   5.928   8.151  1.2516  0.2788  0.1208
 5596TIP3   OH238346   5.129   3.709   0.082 -0.0507  0.1639 -1.3823
 5596TIP3    H138347   5.096   3.663   0.159  0.5162 -1.1943 -1.9169
 5596TIP3    H238348   5.096   3.798   0.092 -1.5080 -0.4230 -0.4891
 5597TIP3   OH238349   5.036   3.262   7.691  0.8279 -0.3551  0.2439
 5597TIP3    H138350   5.031   3.220   7.605 -0.9656  0.7039 -0.2158
 5597TIP3    H238351   5.085   3.343   7.675  0.3662 -0.0861  0.1764
 5598TIP3   OH238352   5.685   0.035   7.564  0.3370 -0.3794 -0.0785
 5598TIP3    H138353   5.624   0.080   7.507  0.6930  0.1579 -0.0449
 5598TIP3    H238354   5.662   0.066   7.652 -0.7946 -1.8742  0.1977
 5599TIP3   OH238355   5.479   3.910   6.376 -0.2752  0.2240  0.2949
 5599TIP3    H138356   5.391   3.898   6.341  0.1941 -2.5775 -0.0780
 5599TIP3    H238357   5.528   3.834   6.347  2.0997  1.3246  1.1447
 5600TIP3   OH238358   3.000   5.487   7.330  0.2248  0.6145  0.1681
 5600TIP3    H138359   3.036   5.464   7.415 -0.8931  2.4686  1.1935
 5600TIP3    H238360   3.067   5.544   7.290  0.9408 -0.5951 -0.4299
 5601TIP3   OH238361   1.328   5.178   7.376  0.2978 -0.0296  0.0288
 5601TIP3    H138362   1.381   5.113   7.331 -0.6398 -1.3828  0.8138
 5601TIP3    H238363   1.369   5.262   7.354  1.7348 -0.8959 -0.7260
 5602TIP3   OH238364   6.655   1.511   7.640 -0.0294 -0.0951  0.2918
 5602TIP3    H138365   6.680   1.427   7.677  0.7046 -0.1916 -0.3752
 5602TIP3    H238366   6.723   1.529   7.574 -0.2798  0.9208  0.2893
 5603TIP3   OH238367   0.643   4.407   0.798 -0.1995  0.0565  0.4193
 5603TIP3    H138368   0.594   4.382   0.720 -0.9253 -0.8489  1.1403
 5603TIP3    H238369   0.606   4.492   0.823  0.8086  0.9027 -0.8291
 5604TIP3   OH238370   4.455   1.334   7.029 -0.4524  0.0575 -0.0528
 5604TIP3    H138371   4.402   1.304   6.955  0.4432  0.1166 -0.7241
 5604TIP3    H238372   4.477   1.425   7.007 -1.1377  0.4584  0.8365
 5605TIP3   OH238373   4.821   0.903   2.162 -0.2096 -0.2702 -0.0162
 5605TIP3    H138374   4.893   0.947   2.207  1.0731 -1.4889 -0.8060
 5605TIP3    H238375   4.850   0.897   2.071 -0.6316 -2.1201 -0.0559
 5606TIP3   OH238376   2.397   5.248   1.020  0.5171  0.4035  0.7551
 5606TIP3    H138377   2.331   5.182   0.997 -0.3203  1.7830 -1.0669
 5606TIP3    H238378   2.354   5.303   1.085  0.4892  0.3112  0.8153
 5607TIP3   OH238379   4.592   4.859   0.009  0.1216  0.5684  0.3721
 5607TIP3    H138380   4.557   4.814   0.086  1.7542  1.9348  2.0093
 5607TIP3    H238381   4.539   4.938   0.001  0.7900  1.0809  0.9232
 5608TIP3   OH238382   0.544   0.492   0.319  0.5102  0.0484  0.8211
 5608TIP3    H138383   0.628   0.452   0.294  0.4384  0.4081 -0.0518
 5608TIP3    H238384   0.506   0.430   0.381  0.0261 -1.7255 -1.1004
 5609TIP3   OH238385   5.489   5.041   1.267  0.6447 -0.1713 -0.5140
 5609TIP3    H138386   5.584   5.049   1.260  0.4933  1.5169 -1.2362
 5609TIP3    H238387   5.458   5.132   1.266 -0.8072 -0.5307  2.5004
 5610TIP3   OH238388   1.938   0.453   8.055  0.8086  0.0192  0.4266
 5610TIP3    H138389   1.908   0.488   8.139 -0.9844 -0.2270 -0.0738
 5610TIP3    H238390   1.858   0.420   8.013  1.7071 -0.0579 -1.2851
 5611TIP3   OH238391   4.405   5.548   6.956 -0.3548 -0.2160  0.6594
 5611TIP3    H138392   4.324   5.524   6.911  0.5993 -1.9324 -0.2359
 5611TIP3    H238393   4.460   5.588   6.888 -0.8084  1.9860  1.5027
 5612TIP3   OH238394   2.892   6.722   8.111 -0.3199  0.3769  0.4424
 5612TIP3    H138395   2.831   6.654   8.141  0.9974 -0.6232  0.9928
 5612TIP3    H238396   2.949   6.677   8.049 -1.6742  1.9169 -2.0617
 5613TIP3   OH238397   3.787   6.095   1.548 -0.2858  0.3194  0.6126
 5613TIP3    H138398   3.776   6.066   1.457  0.9879 -2.1132  1.1303
 5613TIP3    H238399   3.699   6.119   1.577 -0.9756 -0.3559 -0.8132
 5614TIP3   OH238400   3.707   0.056   8.241 -0.6532  0.5793  0.0570
 5614TIP3    H138401   3.747   0.140   8.217 -0.5061  0.9707  1.5679
 5614TIP3    H238402   3.613   0.074   8.242 -0.6524  0.5924 -0.1197
 5615TIP3   OH238403   3.984   1.608   8.155  0.4703  0.3085 -0.3385
 5615TIP3    H138404   3.953   1.687   8.110 -0.7475  0.5004  0.7857
 5615TIP3    H238405   4.074   1.629   8.180  0.0573  1.5029  0.2425
 5616TIP3   OH238406   2.987   1.824   7.517 -0.4506 -0.2040  0.5829
 5616TIP3    H138407   2.928   1.775   7.574 -2.0070  1.8686  0.9081
 5616TIP3    H238408   2.971   1.790   7.429 -2.1517  0.2632  0.6820
 5617TIP3   OH238409   5.354   1.893   6.357 -0.1878  0.2509  0.0942
 5617TIP3    H138410   5.444   1.895   6.388  0.4278 -2.5115 -1.2279
 5617TIP3    H238411   5.361   1.896   6.262 -1.1888 -2.8553 -0.1916
 5618TIP3   OH238412   5.400   1.935   1.355  0.2248 -0.2576  0.2598
 5618TIP3    H138413   5.378   1.899   1.270  1.7909  0.1417 -0.3493
 5618TIP3    H238414   5.450   2.015   1.336 -0.8627  0.7975  1.5623
 5619TIP3   OH238415   2.494   1.718   0.448  0.7384 -0.1312  0.4572
 5619TIP3    H138416   2.484   1.808   0.480  1.7410  0.0816  0.2101
 5619TIP3    H238417   2.588   1.702   0.453  0.4919 -1.4709  1.3027
 5620TIP3   OH238418   5.857   3.545   8.152  0.1203 -0.3160  0.2801
 5620TIP3    H138419   5.952   3.545   8.161  0.3521  0.1916 -1.6016
 5620TIP3    H238420   5.842   3.506   8.065 -1.4407 -1.1499  0.8814
 5621TIP3   OH238421   6.346   3.662   6.859 -0.2200 -0.1882  0.2067
 5621TIP3    H138422   6.274   3.719   6.885 -0.0686 -0.3788  1.0869
 5621TIP3    H238423   6.375   3.696   6.774 -1.5795 -0.3465 -0.3377
 5622TIP3   OH238424   5.612   1.015   6.566  0.1021 -0.4595 -0.0741
 5622TIP3    H138425   5.517   1.007   6.556  0.0709  0.4617 -0.6197
 5622TIP3    H238426   5.641   0.928   6.591 -0.7601 -1.0109 -0.9479
 5623TIP3   OH238427   5.747   1.591   7.023 -0.0251  0.0972 -0.2212
 5623TIP3    H138428   5.770   1.518   6.965 -0.3110 -0.4217  0.3148
 5623TIP3    H238429   5.815   1.591   7.090 -0.5732 -0.3198  0.3517
 5624TIP3   OH238430   0.422   5.317   8.322  0.1594  0.3531  0.1244
 5624TIP3    H138431   0.494   5.313   8.258 -0.5119 -0.6971 -0.5929
 5624TIP3    H238432   0.344   5.331   8.270 -0.1406  1.9966  0.9444
 5625TIP3   OH238433   3.493   6.615   8.022 -0.1298 -0.5220 -0.2612
 5625TIP3    H138434   3.568   6.557   8.011  1.1146  0.6124  1.6221
 5625TIP3    H238435   3.530   6.703   8.016 -1.4140  0.0640  0.1131
 5626TIP3   OH238436   2.443   1.236   1.636 -0.0335 -0.4012  0.1607
 5626TIP3    H138437   2.392   1.257   1.557  1.5634 -0.4141 -0.9160
 5626TIP3    H238438   2.431   1.141   1.647  0.9665 -0.6913 -1.0076
 5627TIP3   OH238439   4.382   2.836   8.089 -0.7690 -0.5895 -0.2621
 5627TIP3    H138440   4.453   2.820   8.027 -0.3840 -2.0331  0.5100
 5627TIP3    H238441   4.355   2.927   8.072  1.4441  0.0922 -0.3774
 5628TIP3   OH238442   3.463   2.818   0.929  0.2094 -0.7649 -0.4615
 5628TIP3    H138443   3.511   2.750   0.976 -1.3489 -1.0208  0.8410
 5628TIP3    H238444   3.462   2.789   0.838  1.5461 -1.2854 -0.3322
 5629TIP3   OH238445   3.011   0.293   1.500 -0.0028 -0.2500 -0.0754
 5629TIP3    H138446   3.002   0.380   1.539  1.6310  0.7432 -1.7761
 5629TIP3    H238447   3.104   0.275   1.502 -0.3602 -2.2594  0.7484
 5630TIP3   OH238448   5.460   1.382   7.125 -0.2252 -0.1791 -0.6464
 5630TIP3    H138449   5.387   1.338   7.082  0.6633 -2.5324  0.1017
 5630TIP3    H238450   5.473   1.462   7.074 -1.8330 -0.8327 -2.1923
 5631TIP3   OH238451   3.118   1.214   0.030  0.3165  0.2449  0.0261
 5631TIP3    H138452   3.039   1.165   0.055  0.2559 -0.0756 -0.7449
 5631TIP3    H238453   3.085   1.285  -0.025  0.3105  1.7280  1.8477
 5632TIP3   OH238454   2.965   5.706   2.026  0.2646 -0.0194  0.0665
 5632TIP3    H138455   2.972   5.794   1.987  0.7532 -0.2778 -0.4482
 5632TIP3    H238456   3.005   5.716   2.113  1.4248  0.0102 -0.4395
 5633TIP3   OH238457   3.410   2.777   0.655 -0.2270 -0.5638 -0.5173
 5633TIP3    H138458   3.492   2.788   0.608  0.1080 -1.4047 -0.1474
 5633TIP3    H238459   3.387   2.685   0.642  0.1528 -0.9684  1.3869
 5634TIP3   OH238460   5.903   5.226   6.545  0.7000 -0.3993  0.0186
 5634TIP3    H138461   5.870   5.146   6.587 -1.5476  0.1697 -0.4878
 5634TIP3    H238462   5.919   5.200   6.454 -0.1210 -0.2943 -0.1699
 5635TIP3   OH238463   4.691   4.692   1.507 -0.3036 -0.6046  0.3879
 5635TIP3    H138464   4.640   4.750   1.564  1.4853 -0.3101  1.7872
 5635TIP3    H238465   4.700   4.611   1.557 -1.1256 -1.4026 -0.7237
 5636TIP3   OH238466   3.396   1.376   1.201 -0.1358 -0.2346  0.0224
 5636TIP3    H138467   3.406   1.319   1.278  0.4881 -0.2159 -0.0383
 5636TIP3    H238468   3.485   1.403   1.180  0.1586 -2.7219 -2.5867
 5637TIP3   OH238469   4.277   6.547   8.043 -0.3781  0.0906 -0.2815
 5637TIP3    H138470   4.202   6.607   8.044 -0.7419 -0.3375  1.1939
 5637TIP3    H238471   4.346   6.596   7.999 -0.9448  1.2482  0.0646
 5638TIP3   OH238472   1.101   3.328   8.444  0.3085  0.7611 -0.1563
 5638TIP3    H138473   1.085   3.234   8.442  2.4608  0.3379 -2.2362
 5638TIP3    H238474   1.091   3.352   8.536  0.4594 -1.6527  0.5638
 5639TIP3   OH238475   6.040   4.481   1.381  0.4034 -0.4191  0.3335
 5639TIP3    H138476   5.952   4.450   1.360 -0.4793  1.8408  0.4175
 5639TIP3    H238477   6.046   4.565   1.337  1.5402  0.6665  2.4491
 5640TIP3   OH238478   6.054   5.855   1.842  1.0100 -0.7311 -0.0801
 5640TIP3    H138479   6.082   5.779   1.893 -1.8485 -2.9301 -1.4817
 5640TIP3    H238480   5.981   5.891   1.892  0.5891 -0.6142 -0.7671
 5641TIP3   OH238481   1.229   6.424   1.593 -0.0441 -0.1777  0.3895
 5641TIP3    H138482   1.151   6.412   1.647 -0.5725  0.3077 -0.2478
 5641TIP3    H238483   1.200   6.400   1.504 -0.8407  4.2116 -0.7953
 5642TIP3   OH238484   1.480   5.014   1.040 -0.0670 -0.1188  0.1623
 5642TIP3    H138485   1.481   5.110   1.036  1.1423  0.0262  2.2643
 5642TIP3    H238486   1.552   4.992   1.100  0.7513 -2.4404 -1.5086
 5643TIP3   OH238487   1.977   3.725   8.238  0.4879 -0.1634  0.3345
 5643TIP3    H138488   1.900   3.763   8.196 -1.1509 -0.3150  2.9427
 5643TIP3    H238489   2.041   3.715   8.168 -0.3958  3.6742 -1.2474
 5644TIP3   OH238490   0.531   1.339   0.071 -0.5008  0.0473  0.7904
 5644TIP3    H138491   0.551   1.428   0.042  0.7849 -0.3715  0.3536
 5644TIP3    H238492   0.517   1.348   0.166 -0.1475  0.6684  0.7934
 5645TIP3   OH238493   6.521   2.410   0.686  0.0054 -0.1660  0.0111
 5645TIP3    H138494   6.522   2.319   0.716  1.3063 -0.5948 -1.2137
 5645TIP3    H238495   6.549   2.406   0.595 -0.6847  1.4031 -0.3106
 5646TIP3   OH238496   3.782   1.842   0.159  0.4058  0.1838  0.4196
 5646TIP3    H138497   3.850   1.858   0.093 -0.3975  1.0666 -0.2188
 5646TIP3    H238498   3.735   1.765   0.127  0.5258  0.1216  0.3916
 5647TIP3   OH238499   2.354   1.028   7.018  0.0616 -0.3361 -0.4527
 5647TIP3    H138500   2.338   0.953   6.960 -1.4540 -0.4880  0.1069
 5647TIP3    H238501   2.357   0.990   7.106  2.1119 -0.0752 -0.3554
 5648TIP3   OH238502   0.511   3.501   8.189  0.1385  0.0751 -0.0318
 5648TIP3    H138503   0.563   3.464   8.118  0.2528 -1.4308  0.7991
 5648TIP3    H238504   0.576   3.540   8.248  0.3812 -1.7362  0.9649
 5649TIP3   OH238505   1.695   3.032   0.254  0.2256 -0.1278  0.3886
 5649TIP3    H138506   1.624   2.995   0.202 -0.1355  0.5845  0.3646
 5649TIP3    H238507   1.762   2.963   0.256 -0.3038 -0.6579  0.0954
 5650TIP3   OH238508   5.546   6.164   7.737  0.0837 -0.3033  0.0278
 5650TIP3    H138509   5.583   6.076   7.733 -0.6240 -0.5706 -0.5944
 5650TIP3    H238510   5.623   6.221   7.744  0.5525 -0.9492  0.2710
 5651TIP3   OH238511   3.743   5.888   8.438  0.5327 -0.1421  0.2761
 5651TIP3    H138512   3.803   5.922   8.504  0.9982 -1.1237  0.3848
 5651TIP3    H238513   3.700   5.814   8.481  0.7726 -0.7293 -0.4784
 5652TIP3   OH238514   6.511   5.389   1.798 -0.1471  0.3092  0.2694
 5652TIP3    H138515   6.589   5.444   1.794  0.1255 -0.1383 -0.9690
 5652TIP3    H238516   6.443   5.446   1.834  0.3972  1.1206  0.0240
 5653TIP3   OH238517   6.336   1.538   0.265  0.2443 -0.5053  0.1549
 5653TIP3    H138518   6.429   1.524   0.285  0.6399 -0.0323 -1.2339
 5653TIP3    H238519   6.312   1.466   0.207 -0.2195 -0.5313  0.3733
 5654TIP3   OH238520   1.957   1.505   7.339  0.1794  0.9480 -0.1914
 5654TIP3    H138521   2.010   1.540   7.411  0.1652  0.4660  0.0565
 5654TIP3    H238522   1.915   1.582   7.300 -0.0493  1.1846  0.5078
 5655TIP3   OH238523   0.737   2.833   0.790  0.7253  0.0921 -0.7230
 5655TIP3    H138524   0.663   2.893   0.779  1.3818  1.2788  0.9517
 5655TIP3    H238525   0.812   2.881   0.755  1.3614  0.5406  1.1682
 5656TIP3   OH238526   4.136   2.974   7.094  0.4281 -0.5589 -0.3821
 5656TIP3    H138527   4.133   3.048   7.154 -1.1317 -0.0223 -1.0757
 5656TIP3    H238528   4.094   2.902   7.141  1.0601 -0.7455 -0.0830
 5657TIP3   OH238529   1.500   0.943   0.381 -0.2884 -0.3238  0.7031
 5657TIP3    H138530   1.444   0.965   0.306  3.9417 -1.1278 -3.1605
 5657TIP3    H238531   1.494   0.848   0.389 -0.3121 -0.2956  1.0507
 5658TIP3   OH238532   3.581   0.368   7.326  0.5023 -0.3043  0.2483
 5658TIP3    H138533   3.667   0.327   7.325  1.3351  1.3750  0.0836
 5658TIP3    H238534   3.544   0.344   7.411  1.0242 -1.2138  0.2339
 5659TIP3   OH238535   0.325   1.047   0.584  0.3704  0.7537  0.1979
 5659TIP3    H138536   0.281   0.967   0.552  2.4380  0.3504 -1.8719
 5659TIP3    H238537   0.394   1.015   0.641 -0.9724  1.3237  2.2599
 5660TIP3   OH238538   6.191   3.446   7.067 -0.0191  0.0593 -0.4495
 5660TIP3    H138539   6.134   3.468   7.140 -1.8455 -0.6721 -1.6096
 5660TIP3    H238540   6.270   3.411   7.108 -1.6605 -1.9677  1.1961
 5661TIP3   OH238541   5.296   1.191   7.834 -0.3655 -0.0858  0.2074
 5661TIP3    H138542   5.203   1.178   7.815 -0.4058 -2.0018  1.5128
 5661TIP3    H238543   5.339   1.115   7.797  0.8413  1.1725 -1.0965
 5662TIP3   OH238544   4.233   4.406   1.474 -0.1757 -0.0426  0.7092
 5662TIP3    H138545   4.318   4.362   1.479  0.2579  0.2782 -2.1598
 5662TIP3    H238546   4.188   4.364   1.401 -1.7797  1.0148  1.0193
 5663TIP3   OH238547   1.088   5.848   6.274 -0.1110  0.1050  0.3419
 5663TIP3    H138548   1.044   5.861   6.190 -2.4117 -0.3252  1.4011
 5663TIP3    H238549   1.156   5.783   6.256  0.8807  1.5363 -1.5766
 5664TIP3   OH238550   6.452   4.902   0.059  0.4957  0.0253 -0.5682
 5664TIP3    H138551   6.361   4.873   0.057  0.1956  0.9630 -1.0436
 5664TIP3    H238552   6.450   4.991   0.023  1.1341  1.2703  2.1942
 5665TIP3   OH238553   5.647   1.020   1.003  0.1467 -0.2622  0.5727
 5665TIP3    H138554   5.552   1.018   1.015  0.2592  0.5779  1.7056
 5665TIP3    H238555   5.683   1.029   1.091  1.2078  1.3270  0.0282
 5666TIP3   OH238556   6.688   0.437   7.839  0.4463  0.0862 -0.5352
 5666TIP3    H138557   6.702   0.346   7.816 -2.1525 -0.4163 -0.3945
 5666TIP3    H238558   6.717   0.444   7.930  4.5754  0.5137 -1.6903
 5667TIP3   OH238559   6.527   6.547   0.933 -0.0359 -0.2005  0.1090
 5667TIP3    H138560   6.437   6.574   0.948  0.7945  1.5198  2.7610
 5667TIP3    H238561   6.548   6.579   0.846 -1.2468  1.6722  0.4461
 5668TIP3   OH238562   0.177   2.307   6.723 -0.2605  0.1711 -0.0892
 5668TIP3    H138563   0.125   2.263   6.655 -1.0781  0.3097  0.4230
 5668TIP3    H238564   0.111   2.344   6.782  0.3517  2.7453 -0.8892
 5669TIP3   OH238565   3.517   5.919   1.568  0.1942  0.4630 -0.2588
 5669TIP3    H138566   3.583   5.878   1.624  1.3246  1.1312 -1.0452
 5669TIP3    H238567   3.437   5.870   1.585  1.3808 -1.8145 -0.8483
 5670TIP3   OH238568   0.300   0.954   1.868  1.1334  0.4990  0.5180
 5670TIP3    H138569   0.326   0.862   1.868  2.0590  0.7518 -0.2742
 5670TIP3    H238570   0.300   0.979   1.961  0.1242 -0.4850  0.8065
 5671TIP3   OH238571   0.504   3.039   7.544 -0.4131  0.1592 -0.0615
 5671TIP3    H138572   0.549   3.056   7.626 -1.3528  0.3616  0.4343
 5671TIP3    H238573   0.490   2.944   7.543 -1.0202  0.2360  0.3641
 5672TIP3   OH238574   4.115   3.991   0.391 -0.6284 -0.0379  0.2567
 5672TIP3    H138575   4.101   3.977   0.297  1.0955 -2.6764  0.3062
 5672TIP3    H238576   4.048   3.937   0.433 -1.1698  0.8624  0.5738
 5673TIP3   OH238577   3.831   5.707   8.250  0.0798  0.4740 -0.0442
 5673TIP3    H138578   3.835   5.656   8.331  2.3976  0.5741 -0.0153
 5673TIP3    H238579   3.777   5.783   8.272  1.4152  0.9914  1.7734
 5674TIP3   OH238580   3.637   4.437   0.309 -0.2224  0.0674 -0.5840
 5674TIP3    H138581   3.724   4.428   0.349  0.1278  1.2297 -1.0407
 5674TIP3    H238582   3.585   4.368   0.349  0.6611 -0.0484  0.4108
 5675TIP3   OH238583   5.433   3.932   7.400 -0.6547  0.3723  0.4626
 5675TIP3    H138584   5.340   3.909   7.410 -2.1874  4.3709 -2.0221
 5675TIP3    H238585   5.450   3.921   7.306  1.3616 -0.0964  0.8449
 5676TIP3   OH238586   2.186   0.935   7.707  0.3338  0.1008 -0.0736
 5676TIP3    H138587   2.125   0.992   7.659 -0.6809  0.8247  1.9863
 5676TIP3    H238588   2.195   0.975   7.793  2.8280 -0.6697  0.1033
 5677TIP3   OH238589   0.341   5.956   0.741 -0.0867  0.4912  0.0737
 5677TIP3    H138590   0.320   5.988   0.828 -1.0083 -0.5909  0.2687
 5677TIP3    H238591   0.258   5.923   0.707  0.8323 -1.9656  0.0250
 5678TIP3   OH238592   4.590   0.650   1.696 -0.2052 -0.0430 -0.0325
 5678TIP3    H138593   4.499   0.633   1.669 -0.9470  3.0829  0.1416
 5678TIP3    H238594   4.597   0.610   1.783 -1.3764 -0.4818 -0.1220
 5679TIP3   OH238595   1.394   6.138   2.202  0.0458 -0.0068 -0.1264
 5679TIP3    H138596   1.421   6.046   2.209  0.9242  0.2848  0.3687
 5679TIP3    H238597   1.475   6.186   2.185 -0.3895  0.6972 -0.2454
 5680TIP3   OH238598   5.692   5.766   0.702  0.2051 -0.5152 -0.2515
 5680TIP3    H138599   5.612   5.818   0.689 -0.7929 -1.1433  2.6263
 5680TIP3    H238600   5.753   5.800   0.637 -2.0184  0.7801 -1.8096
 5681TIP3   OH238601   1.208   5.304   0.353  0.2105  0.2747  0.1683
 5681TIP3    H138602   1.182   5.343   0.270  2.5779 -0.7595 -1.1545
 5681TIP3    H238603   1.281   5.358   0.384 -0.9663  0.9644  1.8979
 5682TIP3   OH238604   5.444   3.978   1.353  0.2517 -0.0986  0.2743
 5682TIP3    H138605   5.425   3.987   1.447 -0.2934  1.5094  0.0536
 5682TIP3    H238606   5.519   3.920   1.349  0.6671  0.2878  1.7648
 5683TIP3   OH238607   1.821   1.266   0.777  0.1454 -0.3609  0.2600
 5683TIP3    H138608   1.776   1.192   0.818 -1.7599 -0.1001 -1.2322
 5683TIP3    H238609   1.859   1.230   0.697 -0.4533  0.1711 -0.2726
 5684TIP3   OH238610   6.068   4.402   2.634 -0.6320  0.0721  0.5778
 5684TIP3    H138611   6.113   4.324   2.601 -1.9474 -0.1532 -0.7804
 5684TIP3    H238612   6.077   4.466   2.564 -1.5701  0.3448  0.6956
 5685TIP3   OH238613   4.560   0.848   7.324 -0.3597 -0.1411  0.1885
 5685TIP3    H138614   4.576   0.892   7.240 -0.8490  1.3906  0.8508
 5685TIP3    H238615   4.468   0.822   7.320 -0.6814  0.8522  0.6085
 5686TIP3   OH238616   2.543   2.969   0.994  0.9506  0.0468  0.2563
 5686TIP3    H138617   2.490   2.966   0.914  2.1586 -2.0677 -0.5341
 5686TIP3    H238618   2.505   2.903   1.051  0.3809  1.2282  1.2846
 5687TIP3   OH238619   4.993   4.089   2.107 -0.1039 -0.7033  0.3162
 5687TIP3    H138620   4.939   4.168   2.094  0.6556  0.0341  1.4776
 5687TIP3    H238621   5.077   4.111   2.067 -0.1071 -1.1934  0.0357
 5688TIP3   OH238622   4.511   3.231   0.396 -0.0873 -0.1517 -0.4891
 5688TIP3    H138623   4.585   3.174   0.373 -1.4402 -1.7758 -0.9798
 5688TIP3    H238624   4.510   3.297   0.327  1.1543  0.1638 -0.2374
 5689TIP3   OH238625   2.601   1.173   6.409  0.4024 -0.3846 -0.1486
 5689TIP3    H138626   2.664   1.243   6.393  0.4801 -0.6292 -1.0041
 5689TIP3    H238627   2.516   1.218   6.413  0.4350 -0.2445 -0.8404
 5690TIP3   OH238628   4.807   3.558   1.421  0.6145 -0.0423  0.2320
 5690TIP3    H138629   4.762   3.498   1.362 -0.9334  1.7340 -0.5363
 5690TIP3    H238630   4.887   3.513   1.447 -0.4825 -2.4007 -0.2539
 5691TIP3   OH238631   2.242   5.167   8.155 -0.2546 -0.2124  0.0287
 5691TIP3    H138632   2.329   5.201   8.176  0.2678 -0.5018 -1.5362
 5691TIP3    H238633   2.184   5.242   8.165  0.5031  0.5228 -0.8670
 5692TIP3   OH238634   3.528   3.532   2.222 -0.3165 -0.5759  0.2064
 5692TIP3    H138635   3.608   3.486   2.246 -0.9192 -0.8455  1.7992
 5692TIP3    H238636   3.481   3.472   2.164  1.0658 -0.0032 -1.6000
 5693TIP3   OH238637   4.613   1.165   0.278  1.0351  0.4889  0.0517
 5693TIP3    H138638   4.628   1.195   0.368 -2.2920  1.1727  0.5337
 5693TIP3    H238639   4.578   1.242   0.232  0.6271 -0.3984 -1.1849
 5694TIP3   OH238640   1.463   5.604   8.302  0.3304 -0.4299 -0.1555
 5694TIP3    H138641   1.501   5.657   8.231  1.6844 -0.9271  0.1552
 5694TIP3    H238642   1.475   5.657   8.381 -1.2464  0.1582 -0.2764
 5695TIP3   OH238643   1.276   3.109   0.947  0.0789  0.2660 -0.2896
 5695TIP3    H138644   1.225   3.181   0.984 -0.3925 -0.9065  1.4712
 5695TIP3    H238645   1.360   3.112   0.994  0.3657  0.1408 -0.7823
 5696TIP3   OH238646   1.937   6.626   7.755  0.1513  0.3458  0.6513
 5696TIP3    H138647   1.901   6.559   7.696 -0.2808  0.0452  1.2483
 5696TIP3    H238648   1.932   6.707   7.705  2.4690 -0.3299 -0.8496
 5697TIP3   OH238649   5.860   1.438   8.299  0.1358 -0.5432  1.0040
 5697TIP3    H138650   5.867   1.346   8.322 -2.3558 -0.9535  0.4669
 5697TIP3    H238651   5.909   1.447   8.218  2.2990 -0.8418  2.2115
 5698TIP3   OH238652   2.062   5.080   6.673 -0.3763  0.0683 -0.0266
 5698TIP3    H138653   2.069   5.000   6.725  0.4400  0.1813  0.0563
 5698TIP3    H238654   2.065   5.051   6.582 -0.0223  0.0119  0.0042
 5699TIP3   OH238655   6.579   4.865   7.423  0.6317 -0.3159 -0.5469
 5699TIP3    H138656   6.525   4.848   7.501 -0.3721 -0.7082 -1.3066
 5699TIP3    H238657   6.515   4.889   7.355  1.5635  0.9514 -1.0091
 5700TIP3   OH238658   0.534   5.897   8.083 -0.3648  0.7806  0.1565
 5700TIP3    H138659   0.512   5.811   8.118 -0.4877  0.6376 -0.2676
 5700TIP3    H238660   0.621   5.916   8.118  0.5362 -0.3890 -1.3055
 5701TIP3   OH238661   2.259   4.676   6.490  0.1027  0.3212  0.0696
 5701TIP3    H138662   2.293   4.597   6.448  0.7599 -0.2013  1.5218
 5701TIP3    H238663   2.164   4.669   6.479  0.2172 -0.1025 -0.7613
 5702TIP3   OH238664   2.737   3.745   0.126  0.2454  0.3328 -0.1731
 5702TIP3    H138665   2.658   3.695   0.141 -0.1275  0.8888 -0.2494
 5702TIP3    H238666   2.804   3.702   0.179  0.0427 -0.4949 -0.5683
 5703TIP3   OH238667   4.358   2.950   1.283  0.1027 -0.1863 -0.1711
 5703TIP3    H138668   4.337   3.042   1.269 -2.6415 -0.0311  3.4684
 5703TIP3    H238669   4.280   2.903   1.251  0.7028 -1.0979 -0.3205
 5704TIP3   OH238670   6.221   1.883   8.195  0.1385  0.1665  0.2258
 5704TIP3    H138671   6.210   1.850   8.106  1.2482 -1.8125  0.7603
 5704TIP3    H238672   6.275   1.961   8.185  1.6887 -0.9691 -0.7365
 5705TIP3   OH238673   0.086   4.722   7.588 -0.5808  0.0671  0.5670
 5705TIP3    H138674  -0.003   4.692   7.605 -0.8957 -0.6675 -1.9278
 5705TIP3    H238675   0.075   4.809   7.550 -0.0787  0.7537  1.9399
 5706TIP3   OH238676   0.512   2.423   7.006 -0.6945 -0.1849 -0.7496
 5706TIP3    H138677   0.449   2.421   7.079  1.2997 -0.9507  1.0627
 5706TIP3    H238678   0.465   2.383   6.933 -2.8117  0.6557  0.0523
 5707TIP3   OH238679   6.789   5.115   8.648  0.1720  0.6782 -0.0368
 5707TIP3    H138680   6.832   5.199   8.630 -1.9723  2.1738  1.3525
 5707TIP3    H238681   6.696   5.131   8.632 -0.4351 -1.0890  1.3540
 5708TIP3   OH238682   3.252   4.701   7.420  0.6775 -0.1673  0.0509
 5708TIP3    H138683   3.231   4.745   7.503  2.6767  0.8748  0.0679
 5708TIP3    H238684   3.305   4.626   7.446 -1.0906 -1.5282 -0.1248
 5709TIP3   OH238685   5.853   0.438   0.275 -0.0245  0.1653 -0.1315
 5709TIP3    H138686   5.945   0.460   0.290 -0.6242  1.3793  2.1787
 5709TIP3    H238687   5.815   0.517   0.238  0.0479 -0.7087 -2.1829
 5710TIP3   OH238688   4.832   0.770   7.712 -0.5675  0.0519  0.6705
 5710TIP3    H138689   4.824   0.865   7.709  0.4733  0.1413  0.0735
 5710TIP3    H238690   4.826   0.743   7.620  3.0382 -0.0517  0.3090
 5711TIP3   OH238691   1.677   4.617   0.944  0.1395 -0.0238  0.1264
 5711TIP3    H138692   1.625   4.645   0.869  0.2630  0.1845  0.1173
 5711TIP3    H238693   1.614   4.575   1.002 -0.0000  0.0283  0.0140
 5712TIP3   OH238694   0.629   4.709   7.483  0.4697  0.0623  0.2312
 5712TIP3    H138695   0.699   4.750   7.433  1.4266 -1.7252  0.0280
 5712TIP3    H238696   0.548   4.735   7.438  1.1772  0.0162 -1.1033
 5713TIP3   OH238697   6.224   0.724   0.457  0.0859 -0.1436  0.0485
 5713TIP3    H138698   6.212   0.652   0.395 -0.3300 -0.7700  0.8300
 5713TIP3    H238699   6.209   0.684   0.543  0.1680  0.8102  0.5191
 5714TIP3   OH238700   1.674   2.635   6.004  0.2051  0.0467  0.2678
 5714TIP3    H138701   1.682   2.628   6.099 -1.5409  3.2534  0.7933
 5714TIP3    H238702   1.580   2.637   5.987  0.4238 -2.3122 -1.8114
 5715TIP3   OH238703   0.121   1.055   8.016  0.7242  0.3256 -0.6675
 5715TIP3    H138704   0.211   1.054   8.050  0.6619  0.0133 -0.5074
 5715TIP3    H238705   0.067   1.076   8.092  0.4232 -2.0420 -0.1408
 5716TIP3   OH238706   0.217   1.523   7.294 -0.8555  0.1322 -0.1553
 5716TIP3    H138707   0.135   1.475   7.307 -0.8797  0.4021  0.8093
 5716TIP3    H238708   0.256   1.527   7.382  0.4575 -0.4714 -0.6807
 5717TIP3   OH238709   1.348   3.961   6.309 -0.4013  0.1307 -0.5112
 5717TIP3    H138710   1.410   4.033   6.304 -0.0953 -0.0268  0.6967
 5717TIP3    H238711   1.262   4.001   6.294 -0.2049  0.6979 -0.1209
 5718TIP3   OH238712   5.672   1.003   0.263  0.2289 -0.0680 -0.1379
 5718TIP3    H138713   5.665   0.979   0.355  0.1993  1.0250  0.1587
 5718TIP3    H238714   5.599   1.064   0.248  0.8851  0.6347 -0.5846
 5719TIP3   OH238715   4.887   4.443   1.153 -0.7999  0.2432  0.1888
 5719TIP3    H138716   4.906   4.522   1.204  2.3199  0.2767 -0.8330
 5719TIP3    H238717   4.889   4.473   1.062  0.1830 -0.9471 -0.2009
 5720TIP3   OH238718   5.965   1.738   7.740 -0.2039 -0.3441  0.5347
 5720TIP3    H138719   6.013   1.763   7.661 -1.7584  3.2080  0.5012
 5720TIP3    H238720   6.013   1.782   7.811 -0.1874 -1.5178  1.2758
 5721TIP3   OH238721   3.662   0.609   0.476  0.2124  1.0464 -0.3830
 5721TIP3    H138722   3.593   0.674   0.487 -0.4351  0.3532 -0.2533
 5721TIP3    H238723   3.668   0.596   0.381  0.9956  1.9662 -0.4738
 5722TIP3   OH238724   3.822   5.004   0.387 -0.8230 -0.1887  0.2748
 5722TIP3    H138725   3.808   5.042   0.301 -0.9259 -0.9326 -0.0420
 5722TIP3    H238726   3.868   4.922   0.371  0.5708  0.4113  1.0413
 5723TIP3   OH238727   2.058   0.878   1.078 -0.2597  0.3865  0.0358
 5723TIP3    H138728   2.052   0.813   1.148  0.5804 -0.1105 -0.3400
 5723TIP3    H238729   2.007   0.841   1.006 -3.5192  2.1248  1.2196
 5724TIP3   OH238730   0.880   2.657   8.601  0.3875 -0.4199  0.1679
 5724TIP3    H138731   0.941   2.693   8.537 -0.4726  0.9610  0.0978
 5724TIP3    H238732   0.841   2.581   8.556 -0.3190  0.6180 -1.0416
 5725TIP3   OH238733   1.758   1.866   2.371 -0.4875 -0.3372 -0.2007
 5725TIP3    H138734   1.705   1.916   2.309 -0.2854  1.6392  1.1456
 5725TIP3    H238735   1.802   1.932   2.425  0.0962 -1.9551  1.4190
 5726TIP3   OH238736   5.138   1.625   1.472  0.1398  0.8132 -0.4378
 5726TIP3    H138737   5.190   1.680   1.530  1.4704 -1.3720  0.6112
 5726TIP3    H238738   5.179   1.635   1.386  2.4378 -0.8428  0.3598
 5727TIP3   OH238739   5.426   3.562   7.699  0.1047  0.3913  0.7073
 5727TIP3    H138740   5.491   3.492   7.687 -1.5952 -1.1889  0.2368
 5727TIP3    H238741   5.450   3.628   7.634  0.9496 -0.3904  0.1930
 5728TIP3   OH238742   1.203   4.043   1.488 -0.0429 -0.4625 -0.0065
 5728TIP3    H138743   1.256   4.048   1.567 -0.1633 -2.2622  0.2311
 5728TIP3    H238744   1.121   4.087   1.511  0.3108 -0.0623  0.5126
 5729TIP3   OH238745   1.780   3.293   7.855 -0.6836  0.3602 -0.0852
 5729TIP3    H138746   1.873   3.288   7.876 -0.7713  0.8920  0.4837
 5729TIP3    H238747   1.739   3.225   7.909 -0.4519 -0.9921 -1.5482
 5730TIP3   OH238748   5.332   6.574   0.042  0.4666  0.5195 -0.2767
 5730TIP3    H138749   5.276   6.586  -0.035 -0.8139  1.7440  0.7756
 5730TIP3    H238750   5.372   6.660   0.056  1.5710  0.0120 -0.2158
 5731TIP3   OH238751   1.977   5.000   0.629  0.3789 -0.2903 -0.3965
 5731TIP3    H138752   1.998   5.080   0.582 -0.3949  0.1943  0.0577
 5731TIP3    H238753   1.912   4.956   0.575 -1.3905  0.8375  0.7253
 5732TIP3   OH238754   4.343   2.137   1.541  0.0635 -0.3815  0.5575
 5732TIP3    H138755   4.417   2.095   1.583  0.6908 -1.1082 -1.1881
 5732TIP3    H238756   4.282   2.066   1.523  0.4673 -0.3571 -1.0584
 5733TIP3   OH238757   2.586   3.898   7.540 -0.1246  0.0383  0.5573
 5733TIP3    H138758   2.633   3.880   7.459 -0.5271 -0.4696  0.4297
 5733TIP3    H238759   2.506   3.943   7.512  0.4838  1.3372  0.8095
 5734TIP3   OH238760   2.805   4.901   2.335 -0.2685  0.4304  0.0287
 5734TIP3    H138761   2.772   4.914   2.246 -1.4339 -0.0342  0.3718
 5734TIP3    H238762   2.727   4.877   2.386  0.4400  0.3435  1.1008
 5735TIP3   OH238763   4.027   5.048   7.649  0.1412 -0.5892  0.2671
 5735TIP3    H138764   4.037   5.027   7.557  0.9478 -0.0443  0.2251
 5735TIP3    H238765   3.980   4.973   7.686 -1.2064 -0.3220 -0.7938
 5736TIP3   OH238766   4.054   2.423   7.481 -0.5323 -0.3882 -0.3696
 5736TIP3    H138767   4.108   2.455   7.553 -2.5589  0.4295  0.8803
 5736TIP3    H238768   4.104   2.445   7.402  0.7331  0.7427  0.6981
 5737TIP3   OH238769   1.917   1.930   7.961 -0.6623 -0.2444 -0.2118
 5737TIP3    H138770   1.848   1.953   8.023 -0.4143 -2.2280  0.8790
 5737TIP3    H238771   1.998   1.955   8.005 -0.5506 -0.3496 -0.3559
 5738TIP3   OH238772   6.263   5.697   1.165  0.5650  0.6304  0.4331
 5738TIP3    H138773   6.221   5.657   1.088  0.8545 -0.2342  0.7111
 5738TIP3    H238774   6.341   5.739   1.131  0.6678  0.2894  0.2374
 5739TIP3   OH238775   5.210   0.545   7.703  0.1515 -0.4063  0.1037
 5739TIP3    H138776   5.281   0.584   7.754  1.1234  2.9898 -3.4345
 5739TIP3    H238777   5.236   0.453   7.693  1.0064 -0.6871  3.6118
 5740TIP3   OH238778   4.809   6.477   8.053  1.1026 -0.6609 -0.0572
 5740TIP3    H138779   4.800   6.571   8.041  1.3717 -0.5209  0.7986
 5740TIP3    H238780   4.723   6.441   8.032  0.4405 -0.0293  1.4538
 5741TIP3   OH238781   0.671   2.895   8.203 -0.8045  0.0688  0.2984
 5741TIP3    H138782   0.758   2.855   8.210 -0.8491 -0.2838 -0.9096
 5741TIP3    H238783   0.638   2.894   8.293  0.0867 -0.5919  0.6438
 5742TIP3   OH238784   4.077   0.604   6.380  0.0433  0.0529 -0.2450
 5742TIP3    H138785   4.113   0.687   6.350 -1.4513  1.5053  1.7199
 5742TIP3    H238786   3.982   0.616   6.377 -0.2375 -1.9056 -0.7123
 5743TIP3   OH238787   3.053   0.313   0.969  0.0562 -0.2451 -0.3613
 5743TIP3    H138788   2.967   0.304   0.928  0.1236 -1.2810 -0.2851
 5743TIP3    H238789   3.107   0.355   0.901 -0.4277  0.1497 -0.5079
 5744TIP3   OH238790   4.148   2.747   1.890  0.6757  0.5166 -0.1719
 5744TIP3    H138791   4.074   2.735   1.949  0.2641 -1.6720 -1.0579
 5744TIP3    H238792   4.212   2.795   1.943  0.2361 -1.1280  2.0197
 5745TIP3   OH238793   6.143   3.961   1.016 -0.4667 -0.8688  0.1136
 5745TIP3    H138794   6.153   3.868   0.997  1.6621 -0.9371  1.2781
 5745TIP3    H238795   6.224   3.985   1.059 -2.2133  0.8006  2.7415
 5746TIP3   OH238796   4.998   1.548   8.557 -0.2924  0.1624 -0.4894
 5746TIP3    H138797   5.057   1.571   8.629  1.7700 -1.9350 -1.3743
 5746TIP3    H238798   4.961   1.463   8.583 -2.2095  0.9795 -0.4172
 5747TIP3   OH238799   4.036   3.984   0.055  0.5474 -0.7500 -0.0746
 5747TIP3    H138800   3.993   4.059   0.013 -0.6571 -1.6994 -0.5921
 5747TIP3    H238801   4.097   3.951  -0.011  0.1751 -0.9647 -0.3173
 5748TIP3   OH238802   2.959   5.034   8.370 -0.8066  0.3078 -0.4414
 5748TIP3    H138803   3.011   4.960   8.402 -1.2341  0.3359  0.3478
 5748TIP3    H238804   2.916   5.000   8.291 -1.0259 -0.3018 -0.0665
 5749TIP3   OH238805   2.619   4.850   8.123 -0.6439  0.3395  0.3548
 5749TIP3    H138806   2.704   4.893   8.118 -0.2180 -0.6293 -2.2805
 5749TIP3    H238807   2.556   4.920   8.103 -0.1424  0.3096 -1.4641
 5750TIP3   OH238808   3.083   5.994   8.026  0.2461  0.2615  0.9014
 5750TIP3    H138809   3.131   6.023   7.948 -0.2043  2.6693  1.4717
 5750TIP3    H238810   3.004   5.952   7.991  0.5852  0.2998  0.0539
 5751TIP3   OH238811   2.198   0.224   0.997 -0.0728  0.4653  0.9075
 5751TIP3    H138812   2.168   0.203   0.909 -0.9909  0.6000  1.1688
 5751TIP3    H238813   2.282   0.181   1.006 -0.4027 -0.3165  0.2877
 5752TIP3   OH238814   1.300   2.987   0.411 -0.2259  0.0703  0.1972
 5752TIP3    H138815   1.336   2.995   0.499  1.6205  0.2912 -0.5351
 5752TIP3    H238816   1.346   2.911   0.373  0.4863  1.1521 -1.2171
 5753TIP3   OH238817   0.578   5.783   6.776 -0.2698  0.3393 -0.7840
 5753TIP3    H138818   0.503   5.801   6.832  0.3247 -0.9115  0.4823
 5753TIP3    H238819   0.550   5.710   6.720 -0.0066 -0.1408 -0.2974
 5754TIP3   OH238820   2.519   1.035   1.189  0.8158  0.0162 -0.3977
 5754TIP3    H138821   2.535   1.105   1.252  2.2882  0.0212 -0.7242
 5754TIP3    H238822   2.424   1.030   1.181  0.6846  1.9969 -0.3963
 5755TIP3   OH238823   3.597   5.536   1.021  0.1144  0.4803  0.3992
 5755TIP3    H138824   3.565   5.626   1.012  1.2375  0.8605  0.1368
 5755TIP3    H238825   3.678   5.544   1.071  0.8135 -0.2670 -0.5864
 5756TIP3   OH238826   1.229   5.777   1.112 -0.7573 -0.1427 -0.5242
 5756TIP3    H138827   1.222   5.865   1.074 -0.1771 -0.0269 -0.3707
 5756TIP3    H238828   1.159   5.727   1.069  0.2220 -0.1714 -2.1997
 5757TIP3   OH238829   3.513   6.678   1.215 -0.2426 -0.2850  0.0290
 5757TIP3    H138830   3.541   6.769   1.202 -1.6897 -0.0661 -2.0067
 5757TIP3    H238831   3.595   6.628   1.215  0.4873  0.8396 -0.6288
 5758TIP3   OH238832   1.741   4.458   8.525  0.5212 -0.0713 -0.2943
 5758TIP3    H138833   1.822   4.421   8.490  1.3975  0.2055  1.3299
 5758TIP3    H238834   1.748   4.552   8.510 -0.0358 -0.1536 -1.1504
 5759TIP3   OH238835   4.632   3.725   0.660 -0.0377 -0.9872  0.1242
 5759TIP3    H138836   4.694   3.744   0.589  2.5488 -0.9865  2.2238
 5759TIP3    H238837   4.636   3.630   0.671  2.3223 -0.7342  2.4184
 5760TIP3   OH238838   4.537   4.624   0.494 -0.0954  0.1356  0.1158
 5760TIP3    H138839   4.540   4.641   0.588  0.4234 -0.0346  0.1367
 5760TIP3    H238840   4.550   4.530   0.486  0.3727  0.2182 -0.1482
 5761TIP3   OH238841   1.076   2.451   1.204 -0.1204  0.5622 -0.3895
 5761TIP3    H138842   1.160   2.469   1.162 -0.0873  0.0516 -0.5454
 5761TIP3    H238843   1.029   2.395   1.142  0.5472 -1.5096  0.8939
 5762TIP3   OH238844   4.521   2.774   2.191 -0.1542 -0.0844  0.4531
 5762TIP3    H138845   4.567   2.692   2.211  0.1480  0.3670  1.7189
 5762TIP3    H238846   4.569   2.841   2.242  0.1790  1.0426 -1.2540
 5763TIP3   OH238847   2.753   3.681   1.583  0.2432 -0.5345  0.0531
 5763TIP3    H138848   2.752   3.733   1.502  1.9924 -0.9389 -0.2518
 5763TIP3    H238849   2.663   3.688   1.616 -0.3767  0.0713 -1.6369
 5764TIP3   OH238850   5.379   2.783   0.582 -0.0637 -0.2193  0.1693
 5764TIP3    H138851   5.446   2.785   0.650  0.5049 -1.2026 -0.3386
 5764TIP3    H238852   5.421   2.823   0.505  0.2864 -1.6229 -0.4123
 5765TIP3   OH238853   2.805   4.193   6.026 -0.1526 -0.5003 -0.4186
 5765TIP3    H138854   2.817   4.173   6.118 -1.2453 -0.3771 -0.2383
 5765TIP3    H238855   2.711   4.208   6.016  0.1110  0.7986 -1.2813
 5766TIP3   OH238856   5.434   5.362   8.652  0.3536  0.3016 -0.3583
 5766TIP3    H138857   5.423   5.324   8.565 -0.2107 -0.5146  0.0615
 5766TIP3    H238858   5.507   5.314   8.690 -0.5169 -0.5554  0.2660
 5767TIP3   OH238859   4.834   0.260   1.664  0.2963  0.3432  0.1869
 5767TIP3    H138860   4.917   0.213   1.652 -0.1911 -0.5392  0.1999
 5767TIP3    H238861   4.831   0.280   1.757 -0.2074 -0.9890  0.4753
 5768TIP3   OH238862   2.982   5.896   7.570 -0.0488 -0.1887 -0.0169
 5768TIP3    H138863   3.022   5.814   7.597  1.2975  0.7041  0.8653
 5768TIP3    H238864   3.025   5.918   7.487 -1.4553 -1.0534 -1.0195
 5769TIP3   OH238865   4.898   4.966   1.330 -0.0990 -0.3687 -0.2741
 5769TIP3    H138866   4.806   4.948   1.310 -0.2099  0.2390 -0.3399
 5769TIP3    H238867   4.920   4.905   1.400 -0.6888 -0.2214  0.0482
 5770TIP3   OH238868   6.445   5.848   6.816 -0.3200  0.1177  0.3029
 5770TIP3    H138869   6.521   5.791   6.831 -0.5357 -0.4164 -0.5476
 5770TIP3    H238870   6.477   5.935   6.837  0.4460 -0.1362  0.2449
 5771TIP3   OH238871   6.505   0.413   7.283  0.1916 -0.0530 -0.0210
 5771TIP3    H138872   6.563   0.452   7.218 -0.1253  0.5438  0.0449
 5771TIP3    H238873   6.418   0.419   7.244  0.2154 -1.3422 -0.3098
 5772TIP3   OH238874   5.898   0.505   2.038 -0.6006  0.1717  0.1197
 5772TIP3    H138875   5.908   0.479   2.129 -0.4918  0.2311  0.1243
 5772TIP3    H238876   5.856   0.429   1.996  0.4764 -0.3492 -0.0395
 5773TIP3   OH238877   6.038   1.211   7.529 -0.2807 -0.1877 -0.1537
 5773TIP3    H138878   6.088   1.203   7.611  0.7946  0.3847 -0.7325
 5773TIP3    H238879   6.052   1.127   7.485 -0.1305 -0.1647 -0.1503
 5774TIP3   OH238880   5.690   5.301   0.083 -0.2763 -0.0788 -0.5768
 5774TIP3    H138881   5.743   5.256   0.149 -0.3426 -1.6619 -1.5556
 5774TIP3    H238882   5.714   5.393   0.091  0.5963 -0.4051  0.8287
 5775TIP3   OH238883   4.700   5.080   2.107 -0.2187 -0.4229 -0.0934
 5775TIP3    H138884   4.752   5.155   2.079 -0.1109 -0.9560 -1.4036
 5775TIP3    H238885   4.725   5.066   2.198 -0.9250  1.6851  0.4863
 5776TIP3   OH238886   6.280   5.517   8.130 -0.6344  0.3290 -0.0069
 5776TIP3    H138887   6.317   5.461   8.199 -0.1947  0.5636 -0.0522
 5776TIP3    H238888   6.279   5.461   8.052  1.8746  1.0329 -0.6178
 5777TIP3   OH238889   4.231   2.368   2.057 -0.6966  0.2307  0.6099
 5777TIP3    H138890   4.261   2.449   2.098 -0.2222  0.5088 -0.2437
 5777TIP3    H238891   4.144   2.390   2.022 -1.0449  0.0314  1.3445
 5778TIP3   OH238892   5.677   0.110   0.460  0.1272 -0.0561 -0.3983
 5778TIP3    H138893   5.648   0.191   0.503 -0.8162 -0.4348 -0.2985
 5778TIP3    H238894   5.766   0.129   0.431 -0.3985  1.3222 -1.1749
 5779TIP3   OH238895   5.145   5.093   0.529 -0.0329  0.8802 -0.3340
 5779TIP3    H138896   5.128   5.158   0.462 -0.8460  0.5576 -0.4480
 5779TIP3    H238897   5.168   5.014   0.481  1.5010  1.2072 -0.1895
 5780TIP3   OH238898   5.063   6.590   1.124  0.2623  0.2613  0.2365
 5780TIP3    H138899   4.971   6.563   1.131  0.0339  1.0662  0.5317
 5780TIP3    H238900   5.073   6.658   1.191  0.2947  2.2082 -1.6279
 5781TIP3   OH238901   0.416   2.417   2.287 -0.7899 -0.0571  0.0920
 5781TIP3    H138902   0.388   2.356   2.219  1.1504  0.9681 -1.7769
 5781TIP3    H238903   0.335   2.446   2.329 -2.2985  0.4101 -2.8475
 5782TIP3   OH238904   0.087   5.536   7.814 -0.2781  0.2546 -0.2349
 5782TIP3    H138905   0.006   5.517   7.861  0.2602  0.0122  0.6398
 5782TIP3    H238906   0.155   5.528   7.881  0.4838  0.2806 -0.9873
 5783TIP3   OH238907   4.902   6.631   2.610 -0.1258  0.5520 -0.1239
 5783TIP3    H138908   4.858   6.551   2.579  1.6603 -1.6184  2.4399
 5783TIP3    H238909   4.862   6.648   2.695  0.5806  1.4854  0.0331
 5784TIP3   OH238910   1.673   2.665   6.298 -0.5067  0.2019  0.4000
 5784TIP3    H138911   1.737   2.671   6.369  0.7471 -2.0648 -0.4359
 5784TIP3    H238912   1.644   2.574   6.301 -2.6458  0.8117 -0.1834
 5785TIP3   OH238913   5.292   3.612   6.400  0.2499 -0.0755 -0.1202
 5785TIP3    H138914   5.356   3.624   6.471 -0.7126 -0.4931  0.8479
 5785TIP3    H238915   5.263   3.521   6.409 -0.0018 -0.0828 -0.9592
 5786TIP3   OH238916   5.293   0.266   7.715  0.2788 -0.1173 -0.2784
 5786TIP3    H138917   5.262   0.196   7.657  0.8015 -1.6921  1.2475
 5786TIP3    H238918   5.386   0.276   7.694 -0.2724  1.8988 -2.1661
 5787TIP3   OH238919   4.274   1.461   7.237  0.6004 -0.7943  0.2740
 5787TIP3    H138920   4.360   1.424   7.219  0.2923 -1.4653  0.1687
 5787TIP3    H238921   4.291   1.531   7.301  1.2051 -1.0054  0.3510
 5788TIP3   OH238922   5.111   5.712   0.182 -0.0548 -0.2250  0.1938
 5788TIP3    H138923   5.134   5.646   0.247  0.7893  0.1895  0.3277
 5788TIP3    H238924   5.195   5.742   0.147 -0.4893 -0.2826 -0.9351
 5789TIP3   OH238925   5.092   2.790   0.914  0.6309  0.4013 -0.0568
 5789TIP3    H138926   5.156   2.727   0.945  0.2605  0.4730  0.8703
 5789TIP3    H238927   5.141   2.872   0.905  0.5768  0.5690  1.0900
 5790TIP3   OH238928   2.052   3.313   1.138 -1.1697 -0.0979 -1.0771
 5790TIP3    H138929   2.121   3.364   1.181 -1.7187 -0.7445  0.6520
 5790TIP3    H238930   2.098   3.240   1.096 -0.7356 -0.1508 -0.5159
 5791TIP3   OH238931   2.787   1.352   2.314 -0.1906 -0.0158 -0.1919
 5791TIP3    H138932   2.716   1.371   2.374 -1.3881 -1.0400 -1.2379
 5791TIP3    H238933   2.865   1.391   2.355 -1.1674  0.2894  1.4236
 5792TIP3   OH238934   0.116   1.317   6.403 -0.3841  0.1470 -0.5636
 5792TIP3    H138935   0.165   1.268   6.469  0.9986  2.6400  0.4121
 5792TIP3    H238936   0.069   1.250   6.353 -3.2340 -1.9035  4.1384
 5793TIP3   OH238937   2.180   1.209   7.762 -0.3445 -0.1215  0.5464
 5793TIP3    H138938   2.182   1.232   7.669 -1.2514  0.5921  0.6891
 5793TIP3    H238939   2.261   1.248   7.798 -0.3849  0.2875  0.2032
 5794TIP3   OH238940   0.663   2.450   2.174 -0.1002  0.6411 -0.1780
 5794TIP3    H138941   0.581   2.446   2.223 -0.4962 -1.7300 -0.9468
 5794TIP3    H238942   0.637   2.471   2.085  0.2086  0.5750 -0.2845
 5795TIP3   OH238943   4.732   2.698   7.380 -0.3209  0.2179  0.2679
 5795TIP3    H138944   4.684   2.687   7.463 -2.0970  0.4935 -0.6856
 5795TIP3    H238945   4.695   2.632   7.322  0.6142  0.3067 -0.4600
 5796TIP3   OH238946   4.662   5.451   7.822 -0.4079 -0.2147  0.2743
 5796TIP3    H138947   4.625   5.370   7.858  0.4278 -0.2427  1.1052
 5796TIP3    H238948   4.658   5.514   7.895 -1.4434  0.6405 -0.4794
 5797TIP3   OH238949   2.189   3.456   8.250  0.0112  0.2086  0.2306
 5797TIP3    H138950   2.205   3.476   8.342 -0.2879 -1.1011  0.5877
 5797TIP3    H238951   2.210   3.537   8.204  1.7840  0.3904  1.2757
 5798TIP3   OH238952   5.389   4.066   0.757 -0.3574  0.0491 -0.3307
 5798TIP3    H138953   5.434   4.012   0.822  0.0338  2.2851  1.3506
 5798TIP3    H238954   5.298   4.036   0.761 -0.5615  0.7610  2.0248
 5799TIP3   OH238955   3.589   3.541   0.212 -0.2936 -0.4081 -0.1296
 5799TIP3    H138956   3.568   3.631   0.238 -4.2973 -0.6348 -1.8882
 5799TIP3    H238957   3.545   3.487   0.278  1.9829 -1.2064  0.8456
 5800TIP3   OH238958   5.352   1.362   0.927  0.0550  0.2778  0.0658
 5800TIP3    H138959   5.413   1.371   0.855 -1.6124  1.3709 -1.2897
 5800TIP3    H238960   5.274   1.410   0.899 -0.8940  0.2008  2.3292
 5801TIP3   OH238961   4.925   1.330   2.284  0.2350 -0.4968  0.0530
 5801TIP3    H138962   4.888   1.411   2.247  0.2584 -0.3631  0.3164
 5801TIP3    H238963   4.932   1.348   2.377 -1.8724 -1.6209  0.4865
 5802TIP3   OH238964   4.604   6.848   0.994 -0.4073  0.0609 -0.4658
 5802TIP3    H138965   4.607   6.753   0.996 -0.8283  0.0546  0.2965
 5802TIP3    H238966   4.605   6.874   1.086 -1.4750  0.7483 -0.6322
 5803TIP3   OH238967   0.452   4.055   0.088 -0.3829  0.5104  0.5127
 5803TIP3    H138968   0.506   3.999   0.144 -1.2191  0.2292  1.0547
 5803TIP3    H238969   0.434   4.002   0.010 -1.1404  0.0215  1.0078
 5804TIP3   OH238970   0.347   1.157   1.658  0.5607 -0.5763  0.0918
 5804TIP3    H138971   0.374   1.186   1.745  1.8718 -1.9596  0.1912
 5804TIP3    H238972   0.252   1.144   1.666  0.2455  1.5340  0.6060
 5805TIP3   OH238973   1.462   2.772   0.458  0.4191 -0.1581  0.5958
 5805TIP3    H138974   1.536   2.713   0.445 -1.0107 -2.0127  0.4011
 5805TIP3    H238975   1.393   2.717   0.495 -0.8209  1.5248  0.9251
 5806TIP3   OH238976   0.715   3.593   1.261 -0.4448 -0.0585  0.2996
 5806TIP3    H138977   0.678   3.636   1.338  1.2005  0.2951  0.9548
 5806TIP3    H238978   0.728   3.502   1.288 -3.0934 -0.8439 -0.7863
 5807TIP3   OH238979   4.189   0.365   0.870  0.4717 -0.2874 -0.1339
 5807TIP3    H138980   4.223   0.297   0.813 -2.0752 -1.3939 -0.4811
 5807TIP3    H238981   4.210   0.447   0.825 -1.5199 -1.1042 -2.8833
 5808TIP3   OH238982   4.752   2.834   1.569  0.5372  0.3269 -0.0380
 5808TIP3    H138983   4.697   2.856   1.494  0.0983 -0.9707 -0.1247
 5808TIP3    H238984   4.795   2.752   1.544  1.6545  0.7359  0.4848
 5809TIP3   OH238985   2.109   2.326   7.437  0.0504  0.2244  0.0395
 5809TIP3    H138986   2.083   2.397   7.379 -0.1609  0.6421  0.6280
 5809TIP3    H238987   2.094   2.361   7.525  2.0640  0.2554  0.4013
 5810TIP3   OH238988   0.026   5.312   7.175 -0.3721 -0.1540  0.2803
 5810TIP3    H138989   0.038   5.246   7.243  0.2728  0.4646  0.7867
 5810TIP3    H238990   0.034   5.396   7.221 -1.3260  0.2871 -0.3253
 5811TIP3   OH238991   2.160   0.073   7.774 -0.2373  0.1035  0.3460
 5811TIP3    H138992   2.168  -0.017   7.741  0.5377  0.0374  0.6952
 5811TIP3    H238993   2.131   0.124   7.698  0.0109 -0.3220 -0.0375
 5812TIP3   OH238994   6.544   2.222   6.696  0.1534 -0.3867 -0.8361
 5812TIP3    H138995   6.462   2.241   6.650  0.8562  1.2791 -1.4833
 5812TIP3    H238996   6.576   2.308   6.723  0.0408 -1.2129  2.3989
 5813TIP3   OH238997   2.137   1.576   2.033  0.3347  0.6803 -0.1286
 5813TIP3    H138998   2.045   1.569   2.058  0.6108 -0.5161  0.6197
 5813TIP3    H238999   2.180   1.615   2.109  0.7852 -0.7400  0.3680
 5814TIP3   OH239000   3.924   2.118   1.356 -0.1298 -0.2456 -0.6435
 5814TIP3    H139001   4.005   2.166   1.372 -1.2393  0.8593  2.4216
 5814TIP3    H239002   3.923   2.049   1.422 -1.0325 -1.1599 -1.5812
 5815TIP3   OH239003   1.543   4.174   7.425 -0.1699  0.0434  0.2905
 5815TIP3    H139004   1.622   4.170   7.478  1.1049 -0.1305 -1.5063
 5815TIP3    H239005   1.537   4.265   7.397 -0.4587  0.0072  0.2261
 5816TIP3   OH239006   5.785   2.954   8.272  0.4282 -0.3472 -0.0024
 5816TIP3    H139007   5.709   2.908   8.307  1.3734 -1.0172  1.2545
 5816TIP3    H239008   5.757   2.984   8.185 -0.6068 -2.3337 -0.4163
 5817TIP3   OH239009   5.930   6.804   1.473 -0.2060  0.3347  0.0851
 5817TIP3    H139010   5.996   6.795   1.542  0.2043 -1.4578 -0.4823
 5817TIP3    H239011   5.883   6.884   1.495  1.7555  1.3439  0.8580
 5818TIP3   OH239012   0.781   0.604   6.535  0.3501  0.1207 -0.0450
 5818TIP3    H139013   0.712   0.665   6.560  1.7907  1.4057  1.0276
 5818TIP3    H239014   0.736   0.534   6.488 -1.8929  0.0981  1.9301
 5819TIP3   OH239015   3.442   1.248   1.469 -0.4816  0.4571  0.0314
 5819TIP3    H139016   3.384   1.313   1.507 -1.0508 -0.9429  1.6344
 5819TIP3    H239017   3.423   1.167   1.516  0.8335 -0.6858 -1.2925
 5820TIP3   OH239018   2.575   6.115   8.487  0.0571 -0.2030 -0.7335
 5820TIP3    H139019   2.646   6.175   8.506  0.8956 -1.5000  0.4130
 5820TIP3    H239020   2.608   6.029   8.513 -2.5034 -0.6600  1.5220
 5821TIP3   OH239021   6.352   5.604   7.793 -0.7930 -0.5934  0.0454
 5821TIP3    H139022   6.289   5.600   7.721  0.3407 -0.5119 -0.9854
 5821TIP3    H239023   6.312   5.663   7.857 -1.8220 -0.6665 -0.5067
 5822TIP3   OH239024   1.692   0.001   6.319 -0.1367 -0.2202 -0.0931
 5822TIP3    H139025   1.612   0.052   6.307 -0.0844  1.0700  3.5821
 5822TIP3    H239026   1.663  -0.090   6.326 -0.9295 -0.0699 -1.2466
 5823TIP3   OH239027   2.350   5.115   1.893 -0.3357 -0.0053  0.2182
 5823TIP3    H139028   2.347   5.027   1.854 -2.0744  0.2246 -0.2479
 5823TIP3    H239029   2.413   5.107   1.964  0.4832 -1.2970 -0.6087
 5824TIP3   OH239030   4.453   3.784   1.059  0.3394 -0.0864 -0.1766
 5824TIP3    H139031   4.505   3.706   1.076 -0.1899 -0.5382 -0.6231
 5824TIP3    H239032   4.411   3.768   0.975 -0.5132  0.2732  0.1683
 5825TIP3   OH239033   1.615   1.098   0.586 -0.2361  0.1188 -0.6054
 5825TIP3    H139034   1.569   1.043   0.523 -0.9934 -0.0974  0.1210
 5825TIP3    H239035   1.703   1.060   0.593 -0.1552  0.1264 -1.4861
 5826TIP3   OH239036   6.517   0.994   7.315 -0.1282 -0.1135 -0.0763
 5826TIP3    H139037   6.601   0.953   7.336 -0.2645 -1.5570 -2.0696
 5826TIP3    H239038   6.452   0.941   7.359 -0.0410  1.4569  2.1158
 5827TIP3   OH239039   4.111   2.093   6.998 -0.1164 -0.0949  0.6444
 5827TIP3    H139040   4.066   2.165   7.042  0.6896 -0.3801  1.9753
 5827TIP3    H239041   4.191   2.132   6.964  0.8150 -0.5522  2.2486
 5828TIP3   OH239042   2.271   6.852   8.222  0.1326 -0.4125  0.1081
 5828TIP3    H139043   2.223   6.824   8.300  0.5216  0.0344  0.5103
 5828TIP3    H239044   2.362   6.830   8.241  0.3133  0.2549  0.0368
 5829TIP3   OH239045   5.083   0.887   8.651  0.1583  0.1304 -0.3487
 5829TIP3    H139046   5.037   0.970   8.665 -0.0673 -0.0119 -0.2353
 5829TIP3    H239047   5.138   0.903   8.575  1.7127  1.0407  0.9162
 5830TIP3   OH239048   4.556   2.471   0.812 -0.5207  1.0679  0.8628
 5830TIP3    H139049   4.507   2.409   0.758  1.4261  0.0287  0.2007
 5830TIP3    H239050   4.528   2.452   0.902  2.1537 -2.9875  1.0717
 5831TIP3   OH239051   1.559   6.169   7.616 -0.1787  0.0646 -0.0787
 5831TIP3    H139052   1.504   6.091   7.623 -0.5131  0.2350 -0.7665
 5831TIP3    H239053   1.504   6.240   7.649  0.0559  0.0447  0.3617
 5832TIP3   OH239054   4.628   4.847   7.894 -0.5313 -0.7785 -0.8918
 5832TIP3    H139055   4.628   4.891   7.979 -0.3469 -0.0266 -1.2715
 5832TIP3    H239056   4.628   4.753   7.915  2.1676 -0.6786 -0.0282
 5833TIP3   OH239057   4.760   2.052   7.532 -0.2420  0.1754 -0.0292
 5833TIP3    H139058   4.815   2.050   7.610 -0.4915  1.1071  0.1820
 5833TIP3    H239059   4.693   1.985   7.548 -0.7235  0.8623  0.8891
 5834TIP3   OH239060   4.482   5.781   2.442  0.0530  0.0683 -0.2100
 5834TIP3    H139061   4.538   5.838   2.495  0.5738 -0.7427  0.1252
 5834TIP3    H239062   4.406   5.763   2.498  0.3369 -0.3293  0.0543
 5835TIP3   OH239063   4.729   2.065   7.994  0.0875 -0.0272  0.1626
 5835TIP3    H139064   4.799   2.103   7.941 -0.5485  0.7609 -0.1301
 5835TIP3    H239065   4.706   1.984   7.948 -0.9466  1.0032 -1.1932
 5836TIP3   OH239066   3.340   2.071   8.259  0.3693  0.0078  0.3200
 5836TIP3    H139067   3.294   2.152   8.281  0.4283  0.2232 -0.3398
 5836TIP3    H239068   3.422   2.100   8.218  0.1369 -0.3814 -0.4373
 5837TIP3   OH239069   5.493   1.371   7.611 -0.5177  0.0310  0.0201
 5837TIP3    H139070   5.401   1.345   7.605 -0.1507 -1.0910 -1.2783
 5837TIP3    H239071   5.531   1.344   7.528  0.8758  0.9979  0.3053
 5838TIP3   OH239072   1.067   1.654   8.024 -0.0522  0.2369  0.4581
 5838TIP3    H139073   1.009   1.618   7.957  1.0042 -0.7631  0.0556
 5838TIP3    H239074   1.044   1.605   8.104  0.5724 -0.5364  0.1783
 5839TIP3   OH239075   5.393   5.710   0.157 -0.2734 -1.1906  0.4864
 5839TIP3    H139076   5.476   5.756   0.147 -0.3977 -1.1229 -0.3503
 5839TIP3    H239077   5.371   5.682   0.068 -1.8166 -0.0079  0.4531
 5840TIP3   OH239078   5.609   3.807   2.312 -0.0717  0.5616 -0.2247
 5840TIP3    H139079   5.624   3.719   2.280  1.2512  0.6017  0.2097
 5840TIP3    H239080   5.592   3.859   2.234 -0.8299 -0.0682 -0.4827
 5841TIP3   OH239081   3.416   1.421   7.368 -0.1333 -0.2199  0.4659
 5841TIP3    H139082   3.439   1.395   7.279  1.3425 -0.4520  0.8908
 5841TIP3    H239083   3.497   1.457   7.405 -1.2392  1.9120  1.0245
 5842TIP3   OH239084   4.849   3.036   0.906  0.1065  0.0804 -0.1534
 5842TIP3    H139085   4.755   3.051   0.895  0.0975  1.1996  1.1730
 5842TIP3    H239086   4.881   3.018   0.818 -1.8153 -3.4032 -0.3239
 5843TIP3   OH239087   4.469   6.246   7.356  0.4990  0.2083  0.9112
 5843TIP3    H139088   4.507   6.320   7.402  0.7285 -0.3118  1.5853
 5843TIP3    H239089   4.375   6.264   7.354  0.6373  0.9109  0.3179
 5844TIP3   OH239090   1.530   3.210   0.795  0.3244  0.0034 -0.5608
 5844TIP3    H139091   1.549   3.302   0.778 -0.9118  0.4282  0.2455
 5844TIP3    H239092   1.534   3.201   0.890 -1.1405 -0.3815 -0.5008
 5845TIP3   OH239093   2.892   4.828   0.537 -0.4652 -0.4823  0.1686
 5845TIP3    H139094   2.838   4.898   0.575  0.5492  0.3299  0.1800
 5845TIP3    H239095   2.934   4.869   0.461  0.7075 -0.8355  0.5991
 5846TIP3   OH239096   2.172   3.518   0.470 -0.1832 -0.3397  0.2728
 5846TIP3    H139097   2.189   3.557   0.384 -0.2993  1.0356  0.8481
 5846TIP3    H239098   2.159   3.593   0.528  1.7088 -1.1565  1.8834
 5847TIP3   OH239099   6.030   1.781   6.852 -0.4782 -0.0840  0.3521
 5847TIP3    H139100   5.941   1.798   6.820 -0.0677  0.2617 -0.6429
 5847TIP3    H239101   6.076   1.746   6.776  0.6364  1.1348  0.4413
 5848TIP3   OH239102   0.148   1.722   6.818 -0.1917  0.1228  0.0929
 5848TIP3    H139103   0.093   1.676   6.882 -0.5524 -1.0392 -1.0109
 5848TIP3    H239104   0.233   1.677   6.823 -0.4330 -0.4409 -0.7299
 5849TIP3   OH239105   6.782   6.523   7.515  0.0254 -0.0209  0.0347
 5849TIP3    H139106   6.772   6.565   7.429  2.2723 -0.7654 -0.6630
 5849TIP3    H239107   6.780   6.429   7.496  0.9968 -0.1915  0.7075
 5850TIP3   OH239108   1.238   4.019   0.878  0.2672 -0.0912 -0.3791
 5850TIP3    H139109   1.280   4.104   0.865 -1.6535  0.7647 -1.4315
 5850TIP3    H239110   1.157   4.039   0.925 -0.2908 -1.3100 -0.7798
 5851TIP3   OH239111   0.874   5.980   7.156 -0.5891 -0.0674  0.1801
 5851TIP3    H139112   0.946   6.037   7.184  0.9397 -2.6376  1.9095
 5851TIP3    H239113   0.805   5.995   7.220 -0.5372  0.4218  0.1264
 5852TIP3   OH239114   0.926   4.383   7.664  0.5668  0.2515 -0.0960
 5852TIP3    H139115   0.975   4.302   7.676  0.5942 -0.0448 -1.9156
 5852TIP3    H239116   0.973   4.448   7.716  1.7244 -0.4720 -0.2068
 5853TIP3   OH239117   1.323   2.788   1.265 -0.4770  0.4129  0.2579
 5853TIP3    H139118   1.396   2.843   1.239 -0.4921 -0.0445 -0.7905
 5853TIP3    H239119   1.246   2.845   1.262 -0.3517  0.5730  0.1357
 5854TIP3   OH239120   2.229   6.512   8.077 -0.1750  0.1902 -0.4573
 5854TIP3    H139121   2.296   6.456   8.117 -1.5004 -0.5362  0.8280
 5854TIP3    H239122   2.212   6.472   7.992  0.7508  0.1829 -0.6544
 5855TIP3   OH239123   3.472   2.774   6.889  0.2264  0.4581  0.1137
 5855TIP3    H139124   3.530   2.702   6.865  1.2300  0.8151  1.3315
 5855TIP3    H239125   3.399   2.732   6.935 -1.7944 -0.2429 -3.3897
 5856TIP3   OH239126   2.151   1.849   0.291  0.0883  0.6579 -0.0626
 5856TIP3    H139127   2.189   1.769   0.255  0.9533  0.5769  0.9684
 5856TIP3    H239128   2.068   1.859   0.245 -1.6360 -2.6216  1.9486
 5857TIP3   OH239129   0.185   6.489   7.501 -0.0346 -0.0048  0.1108
 5857TIP3    H139130   0.203   6.424   7.568 -0.3683  1.4127  1.6595
 5857TIP3    H239131   0.089   6.496   7.499 -0.3090 -2.5125 -3.0965
 5858TIP3   OH239132   1.930   2.536   0.919  0.4478  0.3586  0.4281
 5858TIP3    H139133   1.928   2.631   0.933  0.2540  0.3159  0.7150
 5858TIP3    H239134   1.841   2.507   0.941  0.8966 -0.0767  1.7551
 5859TIP3   OH239135   1.296   1.347   1.144 -0.3825  0.3272  0.0980
 5859TIP3    H139136   1.213   1.389   1.121  1.6523  3.3434 -2.5768
 5859TIP3    H239137   1.326   1.393   1.223  0.3688  1.9249 -1.0536
 5860TIP3   OH239138   6.085   6.789   7.116  0.0755 -0.5384  0.1853
 5860TIP3    H139139   6.175   6.819   7.127  0.1587 -1.3078  1.7927
 5860TIP3    H239140   6.031   6.853   7.163 -0.2358 -0.1083 -0.7276
 5861TIP3   OH239141   3.231   6.144   8.185 -0.4891  0.1262 -0.6803
 5861TIP3    H139142   3.284   6.175   8.112 -0.5634 -1.5097 -1.4859
 5861TIP3    H239143   3.159   6.096   8.144 -1.0836  0.0036  0.4509
 5862TIP3   OH239144   3.734   4.345   7.075 -0.0752 -0.0843  0.4538
 5862TIP3    H139145   3.813   4.294   7.089 -0.0767 -0.5334 -1.0805
 5862TIP3    H239146   3.663   4.281   7.080 -0.1539 -0.0766 -0.4755
 5863TIP3   OH239147   0.449   5.303   0.221  0.0716 -0.1289 -0.0301
 5863TIP3    H139148   0.533   5.303   0.175  0.5592 -0.7082  0.8323
 5863TIP3    H239149   0.385   5.286   0.153  0.6393  0.4722 -0.7283
 5864TIP3   OH239150   2.497   1.110   7.923  0.2345  0.6286 -0.6368
 5864TIP3    H139151   2.498   1.205   7.914  1.2696  0.5908 -1.0712
 5864TIP3    H239152   2.460   1.094   8.010  0.6530  1.4562 -0.2996
 5865TIP3   OH239153   3.409   4.933   7.038  1.0630  0.7810  0.0608
 5865TIP3    H139154   3.481   4.915   7.098  0.6545 -2.0488 -0.1165
 5865TIP3    H239155   3.445   4.916   6.951  0.5911  0.8306 -0.1525
 5866TIP3   OH239156   2.523   3.964   0.129  0.6680  0.3754  0.2910
 5866TIP3    H139157   2.546   3.877   0.162 -0.3157  0.5988  1.6706
 5866TIP3    H239158   2.501   4.014   0.207  0.9835  1.8100 -0.5028
 5867TIP3   OH239159   2.457   5.295   7.625  0.2047 -0.3653  0.2669
 5867TIP3    H139160   2.550   5.294   7.646  0.5702  3.6808 -0.4320
 5867TIP3    H239161   2.413   5.306   7.710  0.5608  0.1860  0.3843
 5868TIP3   OH239162   2.491   2.975   2.274  0.0684  0.1869  0.2862
 5868TIP3    H139163   2.531   3.026   2.344 -0.3620  0.2183  0.5152
 5868TIP3    H239164   2.396   2.986   2.287 -0.0651 -1.4848  0.9476
 5869TIP3   OH239165   3.158   2.523   6.551  0.0946 -0.5629  0.6646
 5869TIP3    H139166   3.103   2.510   6.474 -0.7330 -2.1930  1.4921
 5869TIP3    H239167   3.109   2.586   6.605  0.5103  0.3101  0.0537
 5870TIP3   OH239168   2.266   2.375   1.757  0.7191  0.2561  0.4495
 5870TIP3    H139169   2.269   2.293   1.707 -0.8143  0.5948 -0.2573
 5870TIP3    H239170   2.305   2.439   1.699  0.0855  0.4017  0.1723
 5871TIP3   OH239171   5.932   6.808   7.521 -0.5162  0.5587 -0.5021
 5871TIP3    H139172   5.846   6.850   7.531  0.9033  3.5527  0.2968
 5871TIP3    H239173   5.977   6.861   7.455  0.4768 -1.4118 -1.4674
 5872TIP3   OH239174   5.522   4.280   1.333 -0.3594 -0.4335  0.4307
 5872TIP3    H139175   5.543   4.188   1.348  1.9773 -0.2983 -1.3416
 5872TIP3    H239176   5.502   4.285   1.239  0.2341  0.9514  0.3490
 5873TIP3   OH239177   0.352   4.171   7.792  0.3518 -0.2361  0.0587
 5873TIP3    H139178   0.353   4.105   7.861  0.8588  1.1924  1.4664
 5873TIP3    H239179   0.367   4.253   7.837 -1.6357  1.0569 -1.4408
 5874TIP3   OH239180   6.402   5.580   8.560  0.0215 -0.0336 -0.0494
 5874TIP3    H139181   6.338   5.556   8.493  1.3772 -0.4640 -1.2290
 5874TIP3    H239182   6.443   5.659   8.527 -2.6735  2.7918  2.6423
 5875TIP3   OH239183   1.889   5.919   6.683 -0.1796  0.4531 -0.0617
 5875TIP3    H139184   1.898   6.015   6.685 -2.3635  0.7105  0.3833
 5875TIP3    H239185   1.862   5.900   6.593  0.2298  0.2455 -0.1427
 5876TIP3   OH239186   6.156   5.580   0.952 -0.6590  0.5365 -0.1299
 5876TIP3    H139187   6.120   5.631   0.879  1.3812 -0.6748 -2.1223
 5876TIP3    H239188   6.173   5.494   0.915  2.6178  0.5378  1.0757
 5877TIP3   OH239189   6.642   2.299   7.347  0.6865 -0.0341  0.8399
 5877TIP3    H139190   6.652   2.204   7.345  1.7084  0.0604 -1.4849
 5877TIP3    H239191   6.731   2.333   7.356  0.6974  0.6637 -1.2541
 5878TIP3   OH239192   0.259   0.068   1.319  0.2323  0.0962 -0.1399
 5878TIP3    H139193   0.307   0.018   1.253  2.3746  1.7247  0.0897
 5878TIP3    H239194   0.206   0.130   1.269  0.0974 -0.1994 -0.3641
 5879TIP3   OH239195   5.084   2.423   6.804  0.6727 -0.7584  0.5125
 5879TIP3    H139196   4.996   2.384   6.807  0.3080 -0.0727 -0.5150
 5879TIP3    H239197   5.113   2.407   6.714  1.5892 -0.9405  0.8368
 5880TIP3   OH239198   1.604   3.570   2.210 -0.5524 -0.2870 -0.1181
 5880TIP3    H139199   1.554   3.644   2.244 -1.3130 -1.8563  2.4468
 5880TIP3    H239200   1.691   3.580   2.248  0.0184  0.4185 -1.5465
 5881TIP3   OH239201   5.341   1.560   7.331  0.3689  0.3867 -0.0348
 5881TIP3    H139202   5.297   1.510   7.400  2.0895 -1.5773 -0.2828
 5881TIP3    H239203   5.336   1.504   7.253  0.9286  1.3306 -0.7705
 5882TIP3   OH239204   3.511   6.010   6.102 -0.2388 -0.1233  0.1167
 5882TIP3    H139205   3.537   5.964   6.022  2.3717 -0.4274  1.0289
 5882TIP3    H239206   3.501   5.941   6.167  0.5268  0.3302  0.7278
 5883TIP3   OH239207   0.261   2.214   2.071 -0.2550  0.2956 -0.4676
 5883TIP3    H139208   0.169   2.230   2.050 -0.5124 -0.8606 -0.2635
 5883TIP3    H239209   0.262   2.125   2.106  0.9469  0.3002 -0.4755
 5884TIP3   OH239210   1.933   3.551   1.083 -0.3816 -0.4996 -0.1639
 5884TIP3    H139211   1.983   3.618   1.130 -1.0457  1.1338 -1.6803
 5884TIP3    H239212   1.973   3.468   1.109  0.5343  0.4695  1.7088
 5885TIP3   OH239213   2.497   4.333   6.330 -0.2416  0.2943  0.0563
 5885TIP3    H139214   2.454   4.299   6.252 -1.4325  0.2327  0.7119
 5885TIP3    H239215   2.581   4.287   6.334  0.0710  0.6910 -1.4577
 5886TIP3   OH239216   0.352   3.849   0.603 -0.0405  0.1705 -0.1840
 5886TIP3    H139217   0.446   3.835   0.599  0.1047  1.0753 -0.1294
 5886TIP3    H239218   0.339   3.938   0.569 -0.7431  0.5068  0.8925
 5887TIP3   OH239219   2.706   5.980   7.595  0.5349 -0.0080 -0.5141
 5887TIP3    H139220   2.713   6.009   7.685 -0.6070 -0.2583 -0.3273
 5887TIP3    H239221   2.786   5.929   7.579 -0.2387 -1.8239  1.0664
 5888TIP3   OH239222   1.404   6.695   7.950  0.2212 -0.1089  0.3713
 5888TIP3    H139223   1.443   6.642   7.882  0.1741 -0.5064  0.6489
 5888TIP3    H239224   1.388   6.780   7.909  2.4252  0.4563  0.5682
 5889TIP3   OH239225   2.986   4.527   8.637  0.1073 -0.0901  0.1940
 5889TIP3    H139226   3.008   4.547   8.728 -0.8935 -0.2122  0.4763
 5889TIP3    H239227   2.898   4.489   8.641 -0.6843  1.4669 -0.9712
 5890TIP3   OH239228   1.399   5.951   8.422 -0.1735  0.1113 -0.2738
 5890TIP3    H139229   1.451   5.948   8.342 -1.1988 -2.3443 -0.9483
 5890TIP3    H239230   1.409   5.864   8.461 -1.2254  0.6247  1.2486
 5891TIP3   OH239231   3.142   4.144   6.266  0.1998 -0.1780  0.2240
 5891TIP3    H139232   3.091   4.222   6.244  0.5321  0.3249  1.2071
 5891TIP3    H239233   3.108   4.077   6.207 -0.5967  0.5186 -0.1363
 5892TIP3   OH239234   3.403   0.291   0.689  0.3324 -0.1246  0.2093
 5892TIP3    H139235   3.491   0.328   0.693  0.2342  0.2738 -0.8214
 5892TIP3    H239236   3.346   0.359   0.725  0.5575 -0.8817  2.0741
 5893TIP3   OH239237   3.008   5.419   6.756  0.1651  0.4377  0.3363
 5893TIP3    H139238   3.048   5.334   6.775  0.5269  0.7904  1.2098
 5893TIP3    H239239   2.983   5.453   6.842 -1.5324  0.4739 -0.1356
 5894TIP3   OH239240   5.940   0.203   0.747 -0.0790  0.2026 -0.2472
 5894TIP3    H139241   5.868   0.232   0.803  0.4499  1.0322  0.0307
 5894TIP3    H239242   5.953   0.111   0.769 -0.3384  0.3388  0.4951
 5895TIP3   OH239243   1.036   3.420   2.028  0.2917  0.3284  0.2104
 5895TIP3    H139244   0.986   3.362   1.971 -0.1264  1.5856 -0.7368
 5895TIP3    H239245   1.054   3.368   2.107  0.7528 -1.3932 -0.9935
 5896TIP3   OH239246   5.296   4.400   7.063 -0.1744  0.3632  0.3276
 5896TIP3    H139247   5.221   4.452   7.092  0.8484  2.0700  0.0626
 5896TIP3    H239248   5.370   4.435   7.113  0.7031 -0.2292 -0.5221
 5897TIP3   OH239249   1.239   1.267   0.376  0.1541 -0.0110 -0.8546
 5897TIP3    H139250   1.267   1.317   0.299 -0.4558  1.4848 -0.1628
 5897TIP3    H239251   1.235   1.332   0.446 -1.3687 -0.8900 -0.0583
 5898TIP3   OH239252   1.768   5.545   8.212  0.2356 -0.3291  0.1543
 5898TIP3    H139253   1.799   5.454   8.214  0.3055 -0.2974  1.2441
 5898TIP3    H239254   1.695   5.544   8.151  0.9501 -0.8765 -0.7268
 5899TIP3   OH239255   6.449   4.281   0.437 -0.1883  0.1101 -0.6400
 5899TIP3    H139256   6.396   4.296   0.358 -0.2673 -1.0970 -0.8348
 5899TIP3    H239257   6.471   4.188   0.433 -0.3097 -0.0028  0.8381
 5900TIP3   OH239258   3.010   2.999   8.500 -0.2418  0.4641  0.6530
 5900TIP3    H139259   2.952   2.957   8.563  0.6722 -1.4508  0.2915
 5900TIP3    H239260   3.055   3.067   8.550 -0.2250 -0.3755  1.8154
 5901TIP3   OH239261   2.485   1.670   6.958 -0.2140  0.4491  0.1621
 5901TIP3    H139262   2.556   1.606   6.952 -1.2929 -0.8677  0.8624
 5901TIP3    H239263   2.517   1.735   7.021  0.1870 -0.3928  0.8453
 5902TIP3   OH239264   1.946   0.720   7.133  0.0474  0.0050  0.2763
 5902TIP3    H139265   2.038   0.740   7.149  0.4277 -0.8656 -0.6783
 5902TIP3    H239266   1.938   0.627   7.157 -1.0464  0.5398  2.1589
 5903TIP3   OH239267   5.212   4.452   1.862 -0.1128  0.4813  1.0074
 5903TIP3    H139268   5.158   4.525   1.833  0.5797 -0.5001 -3.5901
 5903TIP3    H239269   5.297   4.490   1.881 -0.0745  1.0949 -0.2700
 5904TIP3   OH239270   5.919   3.718   7.565 -0.1068  0.1831 -0.3500
 5904TIP3    H139271   5.865   3.654   7.520  0.1570  0.6331 -1.3387
 5904TIP3    H239272   5.898   3.802   7.523  0.2826  0.5865  0.2363
 5905TIP3   OH239273   1.014   2.698   6.652 -0.1055 -0.0637  0.1941
 5905TIP3    H139274   0.928   2.671   6.619 -2.0693  2.6424  2.5664
 5905TIP3    H239275   1.059   2.616   6.672 -2.5469 -1.5871 -0.1344
 5906TIP3   OH239276   6.815   6.221   2.297 -0.4492 -0.3891  0.4050
 5906TIP3    H139277   6.751   6.154   2.272  0.3692 -1.2807  0.6271
 5906TIP3    H239278   6.830   6.271   2.217  0.2451 -1.6057 -0.2414
 5907TIP3   OH239279   3.550   0.485   8.047  0.6964 -0.5195  0.5413
 5907TIP3    H139280   3.555   0.554   7.981  4.2861  0.5537  1.6674
 5907TIP3    H239281   3.491   0.420   8.009 -1.5089  2.3244 -1.3312
 5908TIP3   OH239282   4.910   4.825   0.968 -0.7293 -0.3035  0.4828
 5908TIP3    H139283   4.830   4.861   1.008 -1.7871 -1.0646 -0.8730
 5908TIP3    H239284   4.893   4.827   0.874  1.4898  0.9283  0.0381
 5909TIP3   OH239285   1.916   6.569   0.703  0.0308 -0.7005  0.5059
 5909TIP3    H139286   1.897   6.491   0.650  0.0302 -0.3149 -0.0645
 5909TIP3    H239287   2.005   6.595   0.677 -0.4636  0.2576 -0.2731
 5910TIP3   OH239288   5.618   1.263   1.677 -0.1355 -0.2037 -0.3958
 5910TIP3    H139289   5.659   1.243   1.593  0.4910 -1.0813  0.1049
 5910TIP3    H239290   5.666   1.210   1.740 -1.4772 -0.5787  0.3316
 5911TIP3   OH239291   6.169   3.858   6.749  0.4637 -0.1557  0.1537
 5911TIP3    H139292   6.178   3.891   6.660 -0.6206 -0.2518  0.0040
 5911TIP3    H239293   6.182   3.935   6.805  1.0253 -0.0743 -0.0779
 5912TIP3   OH239294   1.626   1.983   1.581 -0.8149 -0.3580  0.4093
 5912TIP3    H139295   1.700   1.926   1.601 -0.0965  0.1012 -0.8244
 5912TIP3    H239296   1.656   2.071   1.603 -0.3825  0.0274 -1.5487
 5913TIP3   OH239297   3.664   4.207   6.331 -0.5150  0.3465 -0.7065
 5913TIP3    H139298   3.664   4.134   6.392 -0.7805 -0.7257 -1.9279
 5913TIP3    H239299   3.745   4.197   6.281 -0.1345  1.3985 -0.3092
 5914TIP3   OH239300   1.264   4.400   2.189 -0.3281  0.7484  0.5259
 5914TIP3    H139301   1.196   4.334   2.201  0.4079 -0.5751 -1.8797
 5914TIP3    H239302   1.341   4.365   2.234  0.1429 -0.2310 -0.9887
 5915TIP3   OH239303   6.533   4.951   6.935 -0.0448 -0.5945  0.1546
 5915TIP3    H139304   6.453   4.898   6.937 -1.8854  2.0176  2.5762
 5915TIP3    H239305   6.510   5.029   6.885  0.6575  0.5754  1.5712
 5916TIP3   OH239306   2.277   1.747   7.716  0.0191 -0.1597  0.4470
 5916TIP3    H139307   2.346   1.810   7.701  0.1969 -0.1456  1.3117
 5916TIP3    H239308   2.267   1.742   7.811 -2.6718  1.4852  0.3606
 5917TIP3   OH239309   5.384   5.850   6.699  0.0345  0.6635 -0.5202
 5917TIP3    H139310   5.415   5.841   6.789 -1.9328  1.1754  0.2569
 5917TIP3    H239311   5.411   5.769   6.656  3.6048  1.6038 -0.3675
 5918TIP3   OH239312   4.410   4.005   7.768 -0.6359 -0.1260 -0.0633
 5918TIP3    H139313   4.459   4.079   7.804  0.1253 -0.3337 -0.6479
 5918TIP3    H239314   4.370   3.963   7.844 -0.8885  0.7495  0.2949
 5919TIP3   OH239315   5.556   5.363   6.450  0.4969  0.0137  0.4974
 5919TIP3    H139316   5.618   5.298   6.418  1.1968 -0.3247  2.3766
 5919TIP3    H239317   5.493   5.312   6.501 -0.3037  0.5594  0.0741
 5920TIP3   OH239318   6.825   2.270   2.381  0.2094 -0.0911  0.0214
 5920TIP3    H139319   6.732   2.288   2.368  0.1156  0.0117  0.8128
 5920TIP3    H239320   6.830   2.223   2.464  0.7325 -1.3704 -0.7125
 5921TIP3   OH239321   1.361   2.398   8.222 -0.0112  0.3262  0.8071
 5921TIP3    H139322   1.401   2.411   8.308 -1.1022 -0.1589  1.4090
 5921TIP3    H239323   1.408   2.324   8.183 -0.0930 -0.0156  1.3565
 5922TIP3   OH239324   6.119   3.243   1.029  0.5718  0.2200 -0.1276
 5922TIP3    H139325   6.130   3.172   0.966  0.1415 -0.1581  0.2197
 5922TIP3    H239326   6.206   3.252   1.068  0.6011 -0.2062 -0.0816
 5923TIP3   OH239327   5.897   6.362   7.401 -0.6945 -0.4510  0.1279
 5923TIP3    H139328   5.841   6.284   7.395 -1.1570 -0.1397  0.3628
 5923TIP3    H239329   5.904   6.380   7.495 -0.5669 -0.2256  0.0764
 5924TIP3   OH239330   5.004   6.361   1.581 -0.2140 -0.3119  0.0753
 5924TIP3    H139331   5.021   6.395   1.669 -1.0152  1.5155 -0.4400
 5924TIP3    H239332   5.053   6.418   1.523  0.1318 -1.3689 -0.7057
 5925TIP3   OH239333   0.624   6.710   8.588 -0.0278 -0.1842  0.7600
 5925TIP3    H139334   0.537   6.733   8.620  0.4779  0.2440  1.8596
 5925TIP3    H239335   0.623   6.614   8.585 -1.2326 -0.1720 -1.2791
 5926TIP3   OH239336   0.901   5.599   1.589 -0.5101  0.0888  0.0930
 5926TIP3    H139337   0.985   5.635   1.617 -0.5162  0.6281 -0.5343
 5926TIP3    H239338   0.836   5.652   1.636 -0.5107  0.4924 -0.3565
 5927TIP3   OH239339   6.548   0.328   0.377 -0.0359  0.3252  0.2355
 5927TIP3    H139340   6.556   0.300   0.469 -0.9506  0.2852  0.3161
 5927TIP3    H239341   6.607   0.270   0.330 -0.7330 -0.7354  0.6103
 5928TIP3   OH239342   0.403   6.353   7.933 -0.2612  0.3974  0.3373
 5928TIP3    H139343   0.316   6.350   7.893 -0.5463  0.9375  0.8993
 5928TIP3    H239344   0.444   6.271   7.907 -1.5057 -0.5882  1.3085
 5929TIP3   OH239345   3.115   1.899   0.379 -0.4686 -0.1802  0.8268
 5929TIP3    H139346   3.074   1.813   0.376 -1.5973  0.2247  2.9715
 5929TIP3    H239347   3.190   1.887   0.437 -0.1318  0.1131  0.4585
 5930TIP3   OH239348   1.760   0.954   7.054 -0.2809  0.0824 -0.6136
 5930TIP3    H139349   1.825   0.883   7.052  0.6748  0.8695  1.1207
 5930TIP3    H239350   1.796   1.020   6.995 -0.6476 -0.3984 -1.3993
 5931TIP3   OH239351   1.232   3.376   7.169  0.4574  0.3495  0.2132
 5931TIP3    H139352   1.154   3.321   7.181 -0.4319  0.9666 -2.1352
 5931TIP3    H239353   1.284   3.328   7.104 -0.1235  1.9728 -1.5375
 5932TIP3   OH239354   2.849   3.091   6.435  0.6141  0.3555  0.4831
 5932TIP3    H139355   2.891   3.005   6.446  0.2543  0.1632  0.3866
 5932TIP3    H239356   2.756   3.070   6.423  0.4900  0.7763  0.7141
 5933TIP3   OH239357   5.114   2.828   8.065  0.9442  0.0603  0.1593
 5933TIP3    H139358   5.093   2.911   8.024  0.6487 -0.6936 -1.2695
 5933TIP3    H239359   5.188   2.794   8.015 -0.8067 -1.9094 -1.2458
 5934TIP3   OH239360   0.738   2.621   0.992  0.4218 -0.1329 -0.1427
 5934TIP3    H139361   0.754   2.530   0.967  3.5554  0.7762 -1.9576
 5934TIP3    H239362   0.730   2.668   0.909 -0.8287  1.3532  0.7546
 5935TIP3   OH239363   5.874   5.022   6.927 -0.1810  0.0003 -0.1245
 5935TIP3    H139364   5.791   4.975   6.939  0.2553 -0.5710  0.7544
 5935TIP3    H239365   5.900   5.002   6.837 -0.9526  0.1128 -0.3801
 5936TIP3   OH239366   0.386   1.422   8.099  0.7146  0.1959 -0.4123
 5936TIP3    H139367   0.356   1.512   8.113 -1.2647 -0.7901  3.1323
 5936TIP3    H239368   0.472   1.419   8.141  0.6953  0.4223 -0.3525
 5937TIP3   OH239369   1.571   4.992   7.802  0.0962 -0.5067 -0.3221
 5937TIP3    H139370   1.510   5.054   7.763 -0.5886 -1.3900 -0.6605
 5937TIP3    H239371   1.634   4.973   7.732  0.5377  0.0871 -0.0988
 5938TIP3   OH239372   6.060   4.629   7.464  0.1749 -0.1479 -0.3160
 5938TIP3    H139373   6.075   4.573   7.541  2.4338 -0.4582 -0.9141
 5938TIP3    H239374   6.128   4.604   7.402  1.8381  3.7615 -0.3518
 5939TIP3   OH239375   5.508   4.235   1.047  0.1663  0.6445 -0.5676
 5939TIP3    H139376   5.577   4.226   0.982  0.0829 -0.2821 -0.5342
 5939TIP3    H239377   5.468   4.149   1.052  0.1761  0.6971  0.7256
 5940TIP3   OH239378   0.005   0.544   1.940 -0.4436 -0.1087  0.3339
 5940TIP3    H139379   0.089   0.550   1.895 -0.8666  0.1557 -0.4349
 5940TIP3    H239380  -0.026   0.635   1.944 -1.7346 -0.4174 -1.4248
 5941TIP3   OH239381   3.790   3.936   7.786  0.4422 -0.3310 -0.3997
 5941TIP3    H139382   3.882   3.954   7.763 -0.0453 -0.0622 -2.2898
 5941TIP3    H239383   3.745   4.018   7.765  0.2482  0.9844  4.1138
 5942TIP3   OH239384   4.900   2.072   7.753 -0.2849  0.4403  0.1849
 5942TIP3    H139385   4.947   2.146   7.792 -0.2705 -0.1018  1.2456
 5942TIP3    H239386   4.958   2.040   7.684 -0.4696  1.6542 -0.5566
 5943TIP3   OH239387   3.549   0.869   0.275  0.4035 -0.4228  0.3570
 5943TIP3    H139388   3.622   0.887   0.216  1.7205 -2.3569  1.2903
 5943TIP3    H239389   3.533   0.952   0.320 -0.0797  0.8659 -2.0228
 5944TIP3   OH239390   1.721   1.551   6.602  0.2115 -0.3740 -0.1425
 5944TIP3    H139391   1.656   1.622   6.602  1.0852  0.4945  1.3954
 5944TIP3    H239392   1.681   1.483   6.658  0.0684 -0.4104 -0.2870
 5945TIP3   OH239393   5.549   0.334   8.553  0.1747  0.8602  0.3553
 5945TIP3    H139394   5.511   0.406   8.604  1.6262  1.4940  0.6034
 5945TIP3    H239395   5.602   0.286   8.616  1.5600  1.3311 -0.4204
 5946TIP3   OH239396   1.168   1.684   0.294  0.3444 -0.2351 -0.5415
 5946TIP3    H139397   1.229   1.611   0.285  1.4020  0.5207  0.3455
 5946TIP3    H239398   1.163   1.701   0.388  0.0336  0.7666 -0.7256
 5947TIP3   OH239399   0.139   0.015   0.871 -0.3096  0.1306 -0.2035
 5947TIP3    H139400   0.073   0.045   0.934 -1.0054 -0.0375 -0.8324
 5947TIP3    H239401   0.140   0.082   0.803  1.4056  0.9988  0.6139
 5948TIP3   OH239402   4.442   2.093   7.795 -0.8184 -0.5480  0.0423
 5948TIP3    H139403   4.424   2.111   7.888 -1.1415 -0.3000 -0.0660
 5948TIP3    H239404   4.380   2.024   7.772 -1.0712 -0.2724 -0.1134
 5949TIP3   OH239405   3.544   3.150   0.148  0.6256 -0.5206  0.0961
 5949TIP3    H139406   3.503   3.214   0.090  0.2909  0.2598  1.1555
 5949TIP3    H239407   3.606   3.104   0.092  0.9994  0.8439 -0.6755
 5950TIP3   OH239408   0.361   0.840   1.586  0.5464 -0.0311  0.3182
 5950TIP3    H139409   0.311   0.835   1.667 -0.7464  1.8763 -0.2993
 5950TIP3    H239410   0.362   0.933   1.564  0.5395 -0.5257 -2.0318
 5951TIP3   OH239411   4.093   5.598   6.974  0.3084 -0.0904 -0.4335
 5951TIP3    H139412   4.107   5.673   6.917 -0.4313 -0.6433 -1.3699
 5951TIP3    H239413   4.000   5.603   6.997  0.4543 -0.2378  0.2077
 5952TIP3   OH239414   6.249   4.079   7.797  0.3869 -0.0982  0.1694
 5952TIP3    H139415   6.172   4.068   7.741  1.9392 -2.1962 -1.7269
 5952TIP3    H239416   6.268   4.173   7.793  0.2616 -0.1027 -2.7124
 5953TIP3   OH239417   1.029   6.789   6.740 -0.0402  0.0326  0.1446
 5953TIP3    H139418   1.028   6.884   6.749  0.5595 -0.1092  2.3586
 5953TIP3    H239419   1.103   6.771   6.682 -0.6136  0.9130 -0.9015
 5954TIP3   OH239420   3.256   5.635   1.219 -0.0556 -0.0743 -0.4523
 5954TIP3    H139421   3.227   5.589   1.298 -0.9674  0.2466 -0.5891
 5954TIP3    H239422   3.175   5.657   1.173  0.4955 -1.1304 -1.9957
 5955TIP3   OH239423   6.778   0.752   7.578 -0.0338 -0.6757 -0.3701
 5955TIP3    H139424   6.704   0.694   7.597 -0.3386 -0.3228 -0.4681
 5955TIP3    H239425   6.838   0.739   7.651 -1.2124  0.7054  0.9053
 5956TIP3   OH239426   5.368   3.119   7.105 -0.2038 -0.1622  0.4809
 5956TIP3    H139427   5.392   3.103   7.196  0.1900  2.6497  0.9445
 5956TIP3    H239428   5.428   3.187   7.076 -1.7850  0.6028 -1.1834
 5957TIP3   OH239429   3.976   3.675   8.473  0.0503 -0.5284 -0.3013
 5957TIP3    H139430   4.044   3.616   8.441  0.4164  0.3923 -1.2884
 5957TIP3    H239431   4.021   3.759   8.486 -1.0046  0.2883 -1.6474
 5958TIP3   OH239432   3.178   3.167   8.633  0.1374 -0.4494  0.2104
 5958TIP3    H139433   3.146   3.249   8.670 -1.3113 -0.3982 -1.0742
 5958TIP3    H239434   3.260   3.190   8.589 -0.5726  0.4570 -0.6815
 5959TIP3   OH239435   4.368   2.836   7.291  0.4547  0.0220  0.1718
 5959TIP3    H139436   4.356   2.775   7.217 -0.0410 -1.0032  1.0731
 5959TIP3    H239437   4.424   2.905   7.255 -0.4632  0.0093 -1.4143
 5960TIP3   OH239438   5.020   3.913   7.940 -0.3084 -0.1463  0.3121
 5960TIP3    H139439   4.943   3.970   7.933  0.1642  0.4484 -0.1984
 5960TIP3    H239440   5.033   3.902   8.034  1.1262  2.7695  0.5531
 5961TIP3   OH239441   5.985   4.201   6.441  0.1871  0.4228  0.4445
 5961TIP3    H139442   5.949   4.266   6.380  0.5158 -0.5577 -0.8610
 5961TIP3    H239443   5.916   4.188   6.506 -0.8950  0.2921 -0.6786
 5962TIP3   OH239444   5.846   0.265   6.627  0.0302 -0.3119 -0.1026
 5962TIP3    H139445   5.870   0.209   6.554 -0.7159  0.7218 -1.1723
 5962TIP3    H239446   5.781   0.326   6.591 -0.0485  0.4921  1.3056
 5963TIP3   OH239447   3.767   2.131   1.634 -0.5515 -0.4501  0.0031
 5963TIP3    H139448   3.810   2.190   1.571 -2.2660  0.9410  0.0833
 5963TIP3    H239449   3.815   2.049   1.625  0.5984  0.3372 -1.6102
 5964TIP3   OH239450   3.411   5.501   6.998  0.2537 -0.1845  0.4325
 5964TIP3    H139451   3.414   5.406   6.998  0.8509 -0.1724  1.0346
 5964TIP3    H239452   3.500   5.529   6.979 -0.2624  0.2825 -1.5369
 5965TIP3   OH239453   2.261   3.987   1.330  0.1847  0.6246 -0.7166
 5965TIP3    H139454   2.177   4.032   1.329 -0.8223 -1.1820 -0.6031
 5965TIP3    H239455   2.289   3.991   1.422 -1.7549 -2.1499  0.1322
 5966TIP3   OH239456   4.237   4.409   7.953  0.1540  0.1883 -0.2971
 5966TIP3    H139457   4.217   4.385   8.044  0.9276 -1.7823 -0.5980
 5966TIP3    H239458   4.277   4.495   7.960  0.2314  0.0630  1.2507
 5967TIP3   OH239459   1.106   1.129   1.190 -0.0127 -0.3561 -0.1363
 5967TIP3    H139460   1.181   1.098   1.139 -0.3167 -0.2472 -0.6518
 5967TIP3    H239461   1.030   1.086   1.150 -0.1925 -0.7601  0.6192
 5968TIP3   OH239462   4.863   4.432   6.707  0.2478 -0.2508  0.0528
 5968TIP3    H139463   4.957   4.420   6.691  0.2430  1.4316 -1.5399
 5968TIP3    H239464   4.825   4.346   6.690  1.2320 -0.3984 -1.6592
 5969TIP3   OH239465   5.591   5.170   0.603  0.3876  0.2054  0.3634
 5969TIP3    H139466   5.548   5.252   0.583  1.8280  1.5704  2.4412
 5969TIP3    H239467   5.682   5.182   0.574  1.4153  0.6365  3.3696
 5970TIP3   OH239468   2.917   1.921   0.568 -0.3477 -0.0061  0.0347
 5970TIP3    H139469   2.848   1.965   0.518 -0.3662  1.3993  1.2248
 5970TIP3    H239470   2.997   1.935   0.518 -0.4343  1.0156  0.1751
 5971TIP3   OH239471   2.724   6.772   0.348  0.5945 -0.0221  0.2244
 5971TIP3    H139472   2.693   6.835   0.413  1.2743 -0.3252  0.8569
 5971TIP3    H239473   2.739   6.825   0.269 -0.6013  0.2799  0.1851
 5972TIP3   OH239474   3.169   6.576   6.761 -0.8211 -0.7592 -0.0420
 5972TIP3    H139475   3.222   6.505   6.799 -1.4321  0.6575  3.9739
 5972TIP3    H239476   3.126   6.535   6.686  2.4010 -3.2355 -0.7778
 5973TIP3   OH239477   4.586   2.936   6.290  0.0973  0.0884  0.1413
 5973TIP3    H139478   4.607   2.901   6.376 -1.0015 -1.2478 -0.1054
 5973TIP3    H239479   4.646   2.892   6.230  0.2389  0.3366  0.0960
 5974TIP3   OH239480   5.053   5.898   1.168  0.4388 -0.1998 -0.3547
 5974TIP3    H139481   5.003   5.967   1.123 -0.7831 -0.9061 -0.1162
 5974TIP3    H239482   4.988   5.854   1.223  1.2496 -1.4389 -0.3751
 5975TIP3   OH239483   5.128   4.570   7.237 -0.6130 -0.0232 -0.2802
 5975TIP3    H139484   5.081   4.588   7.319  0.0725  0.8258 -0.0587
 5975TIP3    H239485   5.183   4.647   7.224  2.7586 -2.0135  0.8779
 5976TIP3   OH239486   6.111   1.803   1.545 -0.7097 -0.5093 -0.1115
 5976TIP3    H139487   6.087   1.867   1.612  1.8628  0.1866  0.2417
 5976TIP3    H239488   6.178   1.749   1.587 -0.7347 -1.5450 -1.3700
 5977TIP3   OH239489   5.115   3.600   6.088 -0.4540  0.4579 -0.1313
 5977TIP3    H139490   5.208   3.583   6.074 -0.5199 -1.1799  1.1589
 5977TIP3    H239491   5.074   3.574   6.005 -0.1301 -2.5404  0.5409
 5978TIP3   OH239492   6.542   3.935   0.432 -0.5891  0.1336  0.5658
 5978TIP3    H139493   6.475   3.916   0.498 -0.2386 -1.4095  0.5151
 5978TIP3    H239494   6.611   3.981   0.480 -1.7809  2.1064  0.5479
 5979TIP3   OH239495   3.361   6.435   7.637  0.1174 -0.1066 -0.4260
 5979TIP3    H139496   3.321   6.419   7.551  1.5175  0.6112 -1.2585
 5979TIP3    H239497   3.409   6.355   7.656 -0.2303 -0.2835 -0.2841
 5980TIP3   OH239498   0.637   3.086   7.775  0.3201  0.1748  0.4133
 5980TIP3    H139499   0.673   3.005   7.812  1.7026  1.7137  2.6501
 5980TIP3    H239500   0.576   3.118   7.841 -0.9942  0.4918 -0.9006
 5981TIP3   OH239501   5.754   2.469   1.014  0.4534  0.0796 -0.1380
 5981TIP3    H139502   5.693   2.418   1.068 -0.5359  0.4407 -0.8755
 5981TIP3    H239503   5.818   2.405   0.984  0.0223 -0.4582  0.0666
 5982TIP3   OH239504   1.861   1.384   1.024  0.4429 -0.0542  0.0193
 5982TIP3    H139505   1.853   1.336   0.941 -0.6163  0.1966 -0.0383
 5982TIP3    H239506   1.811   1.332   1.086 -1.1830  1.2072 -0.1650
 5983TIP3   OH239507   3.144   1.707   8.501 -0.0877 -0.1012 -0.1090
 5983TIP3    H139508   3.188   1.791   8.491  0.9241 -0.6460 -0.3414
 5983TIP3    H239509   3.130   1.676   8.411 -1.1122  0.1410 -0.0447
 5984TIP3   OH239510   0.365   6.157   7.384 -0.1937 -0.4750  0.0609
 5984TIP3    H139511   0.346   6.229   7.444 -0.3070  0.8957 -1.5686
 5984TIP3    H239512   0.278   6.123   7.361 -0.2141 -0.1892 -0.2863
 5985TIP3   OH239513   3.766   6.622   1.717  0.4448  0.0939  0.2197
 5985TIP3    H139514   3.680   6.580   1.723  0.0478  0.6649 -1.0457
 5985TIP3    H239515   3.748   6.715   1.733  0.6380  0.3701 -1.0407
 5986TIP3   OH239516   0.307   2.944   8.587 -0.5983  0.1612  0.4604
 5986TIP3    H139517   0.319   2.857   8.626 -1.1198  0.2807  0.9113
 5986TIP3    H239518   0.234   2.982   8.637 -0.0458  1.0528  0.6129
 5987TIP3   OH239519   3.598   4.406   1.648  0.7444 -0.6190  0.5393
 5987TIP3    H139520   3.645   4.452   1.718 -0.7511 -1.6339  2.2911
 5987TIP3    H239521   3.662   4.344   1.613  1.5983  0.0776  0.8195
 5988TIP3   OH239522   6.142   4.829   0.326  0.0302 -0.0271  0.0948
 5988TIP3    H139523   6.183   4.750   0.291 -2.1343 -2.2326  2.1937
 5988TIP3    H239524   6.212   4.895   0.324  1.8859 -1.9018 -1.8495
 5989TIP3   OH239525   6.503   6.109   1.346 -0.1711  0.1135 -0.7310
 5989TIP3    H139526   6.507   6.072   1.434 -0.2442 -0.5630 -1.0027
 5989TIP3    H239527   6.410   6.130   1.333 -0.0504  0.8726 -0.3870
 5990TIP3   OH239528   5.486   3.653   0.531  0.1502 -0.2507 -0.3795
 5990TIP3    H139529   5.452   3.743   0.533 -0.7943 -0.5996  1.3928
 5990TIP3    H239530   5.560   3.657   0.470  1.0480  2.0704  0.7234
 5991TIP3   OH239531   0.512   6.083   1.326 -0.3994 -0.8385 -0.1666
 5991TIP3    H139532   0.592   6.102   1.376  1.1189  0.7010 -2.9250
 5991TIP3    H239533   0.541   6.022   1.257 -1.5153 -0.1043 -1.3317
 5992TIP3   OH239534   1.268   2.055   0.026 -0.6893  0.1655  0.0141
 5992TIP3    H139535   1.202   2.037  -0.041 -1.4579 -1.2169  1.0883
 5992TIP3    H239536   1.346   2.007  -0.003 -0.7597  0.2311 -0.2887
 5993TIP3   OH239537   4.478   4.468   8.251 -0.3719  0.1336 -0.1851
 5993TIP3    H139538   4.390   4.439   8.230 -0.3487 -0.3769  0.4087
 5993TIP3    H239539   4.500   4.424   8.333 -0.1303  1.4058  0.4638
 5994TIP3   OH239540   6.808   2.090   6.855 -0.1131  0.3513  0.0901
 5994TIP3    H139541   6.734   2.046   6.894 -1.6943  2.2088 -0.6450
 5994TIP3    H239542   6.827   2.041   6.775 -1.7287  0.8710 -0.6364
 5995TIP3   OH239543   3.997   6.185   8.225  0.6482  0.0516 -0.1731
 5995TIP3    H139544   3.962   6.137   8.149  1.3384  2.8773 -2.4397
 5995TIP3    H239545   4.088   6.157   8.232  0.1839 -1.3482  0.6497
 5996TIP3   OH239546   1.415   5.376   1.611  0.3211  0.3860 -0.3368
 5996TIP3    H139547   1.484   5.436   1.583  1.7121 -1.2786 -0.6933
 5996TIP3    H239548   1.461   5.311   1.664 -0.8458 -1.1671 -1.1476
 5997TIP3   OH239549   2.198   5.513   6.953 -0.4449 -0.3053 -0.5438
 5997TIP3    H139550   2.186   5.449   7.023  1.6410  0.0350  0.1842
 5997TIP3    H239551   2.177   5.465   6.873 -1.6878 -1.0456  0.1802
 5998TIP3   OH239552   4.568   2.639   0.563  0.1942  0.1124 -0.4271
 5998TIP3    H139553   4.587   2.558   0.611 -1.4822  0.1612  0.3687
 5998TIP3    H239554   4.473   2.648   0.568  0.2915  1.7650 -1.1259
 5999TIP3   OH239555   6.209   0.096   6.776  0.5538  0.0466 -0.1174
 5999TIP3    H139556   6.298   0.095   6.810  1.5218  3.3879 -2.0263
 5999TIP3    H239557   6.164   0.163   6.828  0.1332  0.5323 -1.0673
 6000TIP3   OH239558   2.924   0.615   8.199  0.0990 -0.0971  0.2310
 6000TIP3    H139559   2.851   0.612   8.262 -0.2272 -0.5367 -0.1591
 6000TIP3    H239560   2.989   0.671   8.241 -0.0075 -0.5794  1.0785
 6001TIP3   OH239561   2.227   2.259   6.863 -0.1054 -0.2073 -0.0276
 6001TIP3    H139562   2.240   2.309   6.943 -1.8301 -1.9324  1.4462
 6001TIP3    H239563   2.155   2.303   6.819  0.4243  0.3788 -0.3123
 6002TIP3   OH239564   5.802   0.724   0.256  0.2434  0.2619  0.5885
 6002TIP3    H139565   5.784   0.781   0.182  1.6980  0.0794  0.0673
 6002TIP3    H239566   5.789   0.780   0.333  0.0253  0.8217  0.1513
 6003TIP3   OH239567   5.327   0.857   1.654  0.3605 -0.3553  0.1702
 6003TIP3    H139568   5.256   0.794   1.662 -0.0137  0.1599  1.0552
 6003TIP3    H239569   5.283   0.942   1.648  0.8733 -0.1175 -0.4159
 6004TIP3   OH239570   5.542   0.790   0.761  0.0955 -0.1508  0.3535
 6004TIP3    H139571   5.545   0.791   0.856  0.1860  0.3123  0.3467
 6004TIP3    H239572   5.496   0.870   0.736 -0.1329 -0.3826  0.0132
 6005TIP3   OH239573   1.856   6.311   8.208  0.1143 -0.1917 -0.1226
 6005TIP3    H139574   1.826   6.360   8.131 -1.1698  2.5603  1.9496
 6005TIP3    H239575   1.949   6.332   8.214 -0.1948  1.2240  0.1255
 6006TIP3   OH239576   6.603   5.146   0.978  0.0221  0.4111  0.2843
 6006TIP3    H139577   6.697   5.130   0.971 -0.1496 -1.6848  1.6745
 6006TIP3    H239578   6.569   5.124   0.891  0.7779  1.0230 -0.1814
 6007TIP3   OH239579   5.486   3.349   0.513  0.1825  0.0803 -0.0699
 6007TIP3    H139580   5.420   3.297   0.559 -0.2407 -0.2351 -1.0080
 6007TIP3    H239581   5.455   3.439   0.520 -2.7787 -0.3587 -4.1224
 6008TIP3   OH239582   0.983   4.786   0.713  0.5506 -0.2064  0.3769
 6008TIP3    H139583   0.972   4.701   0.755 -0.1482 -0.2522  0.1257
 6008TIP3    H239584   0.903   4.797   0.661  1.1985  0.0231 -0.6146
 6009TIP3   OH239585   0.886   3.479   8.008  0.0459 -0.2111  0.4989
 6009TIP3    H139586   0.839   3.455   8.088  2.1269 -1.3829  1.4508
 6009TIP3    H239587   0.913   3.570   8.023  1.3895 -0.7751  1.6686
 6010TIP3   OH239588   6.453   0.531   6.985  0.3312  0.5171  0.6481
 6010TIP3    H139589   6.531   0.532   6.930 -0.1202 -0.3594 -0.0378
 6010TIP3    H239590   6.397   0.600   6.949 -0.5598 -0.9649 -0.9367
 6011TIP3   OH239591   5.016   2.759   5.850 -1.4086 -1.0488 -0.7539
 6011TIP3    H139592   4.997   2.806   5.931  0.7399 -0.6782 -0.4065
 6011TIP3    H239593   5.040   2.828   5.787 -1.0675 -1.4775 -1.1008
 6012TIP3   OH239594   2.647   1.276   6.733 -0.0237  0.5073  0.5194
 6012TIP3    H139595   2.627   1.184   6.713  0.0203  1.0672 -2.5878
 6012TIP3    H239596   2.740   1.284   6.715  0.4979  0.7011  3.0455
 6013TIP3   OH239597   2.270   5.750   7.691 -0.5106  0.4229 -0.9511
 6013TIP3    H139598   2.276   5.844   7.676 -0.9425  0.6863  0.3804
 6013TIP3    H239599   2.267   5.711   7.603  1.8089  1.4828 -1.5728
 6014TIP3   OH239600   4.193   1.887   6.786  0.9785 -0.3525 -0.5445
 6014TIP3    H139601   4.104   1.899   6.753  0.4892  1.6331  1.2987
 6014TIP3    H239602   4.239   1.843   6.714 -0.8751  0.6302 -2.4545
 6015TIP3   OH239603   5.807   4.387   8.098 -0.0997 -0.2517 -0.5280
 6015TIP3    H139604   5.835   4.478   8.096 -1.0347  0.0385 -0.9391
 6015TIP3    H239605   5.711   4.391   8.091 -0.1899 -1.2418 -0.0077
 6016TIP3   OH239606   0.244   5.064   8.534 -0.1849 -1.0630 -0.0620
 6016TIP3    H139607   0.339   5.057   8.530  0.0197  0.9249  0.2536
 6016TIP3    H239608   0.214   4.975   8.553  1.4383 -2.2131 -2.3605
 6017TIP3   OH239609   4.281   1.645   7.695 -0.6208 -0.2272  0.2959
 6017TIP3    H139610   4.230   1.565   7.685 -1.1043  0.2526 -1.5994
 6017TIP3    H239611   4.300   1.651   7.788 -0.7993 -2.3907  0.5139
 6018TIP3   OH239612   1.146   0.553   7.632  0.2148  0.3644  0.1372
 6018TIP3    H139613   1.172   0.625   7.575 -1.4151  0.3742 -0.6417
 6018TIP3    H239614   1.154   0.475   7.576  0.7730  0.0724  0.6041
 6019TIP3   OH239615   1.319   3.178   2.154 -0.3289  0.1113 -0.1925
 6019TIP3    H139616   1.343   3.251   2.097 -0.3915 -0.0111 -0.3757
 6019TIP3    H239617   1.238   3.144   2.117  0.3323 -0.8129 -0.8276
 6020TIP3   OH239618   2.606   5.780   0.698  0.7322 -0.4129  1.0105
 6020TIP3    H139619   2.628   5.813   0.785  0.9199  1.2170  0.3687
 6020TIP3    H239620   2.636   5.848   0.638 -1.4775 -0.4144 -0.1923
 6021TIP3   OH239621   0.643   5.258   8.181  0.0837  0.2412  0.0256
 6021TIP3    H139622   0.711   5.275   8.116  0.7414 -1.1840  0.3063
 6021TIP3    H239623   0.642   5.163   8.191 -0.0179  0.4171  2.0882
 6022TIP3   OH239624   3.302   0.399   7.864 -0.0111 -0.4330  0.2061
 6022TIP3    H139625   3.210   0.373   7.870 -0.1254  0.0913  0.8658
 6022TIP3    H239626   3.346   0.322   7.828 -0.5234 -1.1574  1.0629
 6023TIP3   OH239627   0.101   3.280   7.473 -0.5339 -0.4383 -0.1353
 6023TIP3    H139628   0.021   3.301   7.521 -0.5077  0.1514 -0.3538
 6023TIP3    H239629   0.073   3.267   7.383 -0.1119  1.8365 -0.6511
 6024TIP3   OH239630   3.933   5.440   0.520 -0.5179 -0.5117 -0.3250
 6024TIP3    H139631   3.937   5.524   0.566 -1.1608  0.1979 -1.5211
 6024TIP3    H239632   3.856   5.396   0.555 -0.8288 -0.1103 -0.5058
 6025TIP3   OH239633   1.263   0.122   7.985  0.4152 -0.0492 -0.9403
 6025TIP3    H139634   1.194   0.151   7.925 -0.5385 -1.0171 -0.3534
 6025TIP3    H239635   1.337   0.102   7.928  0.4409  1.5644 -1.5303
 6026TIP3   OH239636   0.497   6.013   6.251 -0.2537  0.0663 -0.1344
 6026TIP3    H139637   0.413   6.029   6.294 -2.3140  0.9120 -4.0420
 6026TIP3    H239638   0.508   5.918   6.253 -2.2563 -0.2336 -1.0730
 6027TIP3   OH239639   2.530   0.561   7.591  0.0140  0.4392  0.0254
 6027TIP3    H139640   2.562   0.641   7.549  2.5682 -0.8387 -0.6987
 6027TIP3    H239641   2.608   0.507   7.602 -0.6833 -0.0543  5.0219
 6028TIP3   OH239642   1.540   4.491   2.401 -0.7051  0.3549 -0.0697
 6028TIP3    H139643   1.484   4.422   2.366 -0.2448  0.3395 -0.8113
 6028TIP3    H239644   1.480   4.550   2.446 -0.8119 -2.2031  3.6078
 6029TIP3   OH239645   4.883   3.522   1.087 -0.0604 -0.4442  0.2393
 6029TIP3    H139646   4.813   3.547   1.028  0.7018 -1.6715 -1.2472
 6029TIP3    H239647   4.841   3.468   1.154 -0.4875 -1.4740 -0.8418
 6030TIP3   OH239648   0.083   2.578   8.232  0.5160  0.4413  0.1476
 6030TIP3    H139649   0.165   2.529   8.235  1.1385  1.4254 -0.2575
 6030TIP3    H239650   0.102   2.660   8.277 -0.2248  0.7073 -0.0070
 6031TIP3   OH239651   3.804   5.540   1.847  0.1786  0.8948  0.2305
 6031TIP3    H139652   3.768   5.460   1.883 -0.1524  0.8733 -0.1517
 6031TIP3    H239653   3.881   5.558   1.902  0.5440  0.0528  0.0116
 6032TIP3   OH239654   1.577   4.348   0.210 -0.0764 -0.5860  0.5931
 6032TIP3    H139655   1.507   4.413   0.214 -0.4470 -1.0427  2.2976
 6032TIP3    H239656   1.571   4.312   0.121  0.5397  2.0668 -0.6091
 6033TIP3   OH239657   5.792   3.246   0.851 -0.5798  0.0172  0.0307
 6033TIP3    H139658   5.842   3.232   0.932 -0.7745  1.3793  0.4172
 6033TIP3    H239659   5.718   3.185   0.858 -0.6634  0.2011  0.9577
 6034TIP3   OH239660   4.201   1.487   1.991 -0.1048 -0.0523 -0.1274
 6034TIP3    H139661   4.158   1.541   2.057  0.4798 -0.8374  0.9304
 6034TIP3    H239662   4.278   1.537   1.965 -0.5099  0.4046 -0.4531
 6035TIP3   OH239663   3.722   0.983   2.175  0.3441 -0.3640  0.1110
 6035TIP3    H139664   3.755   0.956   2.089  0.3046  0.7514 -0.2656
 6035TIP3    H239665   3.639   1.026   2.157  0.1859 -0.3930  0.7470
 6036TIP3   OH239666   3.896   4.680   8.149 -0.1300  0.1567  0.6066
 6036TIP3    H139667   3.966   4.726   8.195 -1.2883  0.5843  2.0396
 6036TIP3    H239668   3.926   4.590   8.142  0.8215  0.4693  0.6184
 6037TIP3   OH239669   6.513   3.737   1.443 -1.0417 -0.2124 -0.2490
 6037TIP3    H139670   6.603   3.715   1.417 -0.9513  1.8210 -1.9119
 6037TIP3    H239671   6.469   3.760   1.361 -3.6709 -2.8181  0.2576
 6038TIP3   OH239672   2.035   1.101   0.224 -0.2104 -0.0214 -0.0236
 6038TIP3    H139673   1.965   1.124   0.163 -0.6885 -0.2153  0.4413
 6038TIP3    H239674   2.101   1.170   0.212 -0.3699  0.0305 -0.6352
 6039TIP3   OH239675   2.377   3.543   7.654 -0.4045  0.7123 -0.6304
 6039TIP3    H139676   2.288   3.508   7.658 -0.4517  0.9061  0.1105
 6039TIP3    H239677   2.371   3.628   7.698 -0.1563  1.3856 -1.8338
 6040TIP3   OH239678   5.261   2.544   1.305  0.1787 -0.0759 -0.5034
 6040TIP3    H139679   5.183   2.497   1.277 -0.0069  1.3575 -2.6764
 6040TIP3    H239680   5.308   2.564   1.224  2.4498 -0.2423  0.6815
 6041TIP3   OH239681   1.526   0.551   7.332  0.4782 -0.5550  0.4065
 6041TIP3    H139682   1.577   0.511   7.261 -0.3003 -3.5478  1.3893
 6041TIP3    H239683   1.441   0.570   7.293  1.3949  2.0842 -0.5541
 6042TIP3   OH239684   5.785   2.828   7.426  0.3568 -0.3950 -0.3366
 6042TIP3    H139685   5.799   2.900   7.365 -1.5962 -0.6009 -1.0933
 6042TIP3    H239686   5.840   2.849   7.501  0.8478  1.1863 -1.0974
 6043TIP3   OH239687   3.372   6.555   7.146  0.7211  0.1010 -0.0638
 6043TIP3    H139688   3.289   6.524   7.109  0.7114  1.2836 -1.0944
 6043TIP3    H239689   3.395   6.631   7.092  0.4812  2.2196  2.6428
 6044TIP3   OH239690   3.264   6.645   1.090  0.4471  0.0475 -0.3139
 6044TIP3    H139691   3.274   6.724   1.038  1.8624 -0.1451 -0.3895
 6044TIP3    H239692   3.337   6.648   1.152  0.0530 -0.8038  0.2122
 6045TIP3   OH239693   2.924   3.835   0.963  0.2997 -0.2135 -0.1721
 6045TIP3    H139694   2.925   3.765   0.896  0.5599  1.8188 -2.4275
 6045TIP3    H239695   3.009   3.828   1.006  0.9068 -0.4483 -1.3462
 6046TIP3   OH239696   0.741   2.656   1.280  0.1004  0.4204  1.0793
 6046TIP3    H139697   0.740   2.747   1.308  0.1545  1.0535 -0.8179
 6046TIP3    H239698   0.750   2.660   1.185  1.3220 -1.5905  1.0423
 6047TIP3   OH239699   1.644   4.146   1.230  0.7044 -0.5877 -0.3172
 6047TIP3    H139700   1.717   4.189   1.275  2.5128 -1.4533 -2.2612
 6047TIP3    H239701   1.678   4.060   1.206 -0.8517 -0.8917 -1.5899
 6048TIP3   OH239702   5.925   2.759   0.334 -0.2958 -0.4630  0.6921
 6048TIP3    H139703   5.989   2.693   0.308 -0.3584 -0.4707  0.5504
 6048TIP3    H239704   5.911   2.744   0.427 -0.0434 -0.4172  0.7380
 6049TIP3   OH239705   2.873   3.587   7.992 -0.6342 -0.3881  0.1399
 6049TIP3    H139706   2.964   3.568   7.969 -0.4206  1.6220 -0.8382
 6049TIP3    H239707   2.874   3.603   8.086 -0.0799 -0.8785  0.2184
 6050TIP3   OH239708   6.312   5.446   1.265 -0.4450 -0.0393 -0.0461
 6050TIP3    H139709   6.391   5.463   1.316  1.2010 -1.7345 -1.8278
 6050TIP3    H239710   6.281   5.532   1.239  2.0886  0.6639 -1.0553
 6051TIP3   OH239711   1.993   5.429   7.945 -0.6572 -0.7601  1.1093
 6051TIP3    H139712   2.036   5.448   7.861  0.6006 -0.0268  1.8709
 6051TIP3    H239713   1.914   5.381   7.922 -1.5041  1.3193 -0.6650
 6052TIP3   OH239714   2.301   6.757   1.168  0.4554  0.1722 -0.0741
 6052TIP3    H139715   2.392   6.787   1.160  0.4260  0.1698 -0.4259
 6052TIP3    H239716   2.308   6.663   1.180  0.5234  0.2423  0.4492
 6053TIP3   OH239717   5.320   2.239   0.911  0.1692  0.2744  0.6215
 6053TIP3    H139718   5.334   2.328   0.879 -0.3210  0.3261  0.5354
 6053TIP3    H239719   5.246   2.207   0.859  1.9048 -1.0782 -1.1193
 6054TIP3   OH239720   5.039   6.758   7.563 -0.0395  0.3762 -0.1981
 6054TIP3    H139721   5.027   6.713   7.646 -0.5989  1.1736  0.1718
 6054TIP3    H239722   4.954   6.800   7.547  0.6644  1.8460 -0.1834
 6055TIP3   OH239723   2.974   6.432   8.308 -0.7731 -0.0756 -0.0040
 6055TIP3    H139724   2.975   6.344   8.346  0.1518  0.3869  1.1146
 6055TIP3    H239725   3.047   6.432   8.246  1.4962  0.8573  2.4577
 6056TIP3   OH239726   3.896   6.044   8.030  0.3861  0.5189 -0.3771
 6056TIP3    H139727   3.848   5.985   8.088 -0.4203  0.4570 -1.0862
 6056TIP3    H239728   3.892   6.002   7.944  2.3802  0.1268 -0.3322
 6057TIP3   OH239729   1.556   2.937   1.205  0.5764 -0.0537  0.1991
 6057TIP3    H139730   1.601   2.853   1.208  2.7801  1.0801  0.9856
 6057TIP3    H239731   1.559   2.969   1.295 -2.0976 -0.0036  0.3459
 6058TIP3   OH239732   2.952   1.860   8.231  0.3701 -0.3740  0.5025
 6058TIP3    H139733   2.930   1.939   8.281 -0.1873 -0.1043 -0.1434
 6058TIP3    H239734   2.876   1.803   8.243  1.1664 -1.2200  1.7290
 6059TIP3   OH239735   4.777   2.032   0.465 -0.3727 -0.1806 -0.2664
 6059TIP3    H139736   4.716   2.057   0.396 -0.5218  0.6813  0.1706
 6059TIP3    H239737   4.741   2.070   0.545  0.6718  0.2550  0.0187
 6060TIP3   OH239738   5.566   0.564   1.661  0.2388  0.3698 -0.3802
 6060TIP3    H139739   5.541   0.568   1.753 -0.3615 -0.5009 -0.4948
 6060TIP3    H239740   5.661   0.551   1.663  0.0931 -0.7877  0.1563
 6061TIP3   OH239741   0.883   3.714   8.473 -0.1409  0.2535 -0.2049
 6061TIP3    H139742   0.891   3.676   8.560 -0.7786  0.7620  0.0796
 6061TIP3    H239743   0.859   3.805   8.488  0.4000  0.5251 -0.9023
 6062TIP3   OH239744   5.656   1.144   8.343  0.0160  0.4027 -0.0025
 6062TIP3    H139745   5.627   1.198   8.417  0.1353  2.4055 -1.3327
 6062TIP3    H239746   5.575   1.113   8.303 -0.0429 -1.2345  1.2891
 6063TIP3   OH239747   5.204   2.149   6.354  0.1798 -0.1952  0.1290
 6063TIP3    H139748   5.170   2.185   6.272 -0.9914 -0.0937  0.6526
 6063TIP3    H239749   5.295   2.180   6.357  0.2118 -0.1322 -1.0863
 6064TIP3   OH239750   5.860   6.733   1.218 -0.0817 -0.1904  0.9149
 6064TIP3    H139751   5.784   6.783   1.187 -1.4903 -2.2360  0.8844
 6064TIP3    H239752   5.874   6.765   1.308 -1.2502 -0.0900  1.0716
 6065TIP3   OH239753   4.212   6.483   2.417 -0.0288  1.2699  0.0974
 6065TIP3    H139754   4.159   6.441   2.485 -1.7020 -1.7672 -2.7905
 6065TIP3    H239755   4.300   6.447   2.429 -0.5855 -0.2002  0.0268
 6066TIP3   OH239756   3.237   6.875   0.268 -0.4606 -0.0389 -0.6209
 6066TIP3    H139757   3.156   6.824   0.264  0.3767 -1.3737 -1.0362
 6066TIP3    H239758   3.242   6.917   0.182 -0.3703 -0.5070 -0.8481
 6067TIP3   OH239759   6.320   3.198   1.534 -0.0528  0.1190 -0.2031
 6067TIP3    H139760   6.382   3.267   1.512  1.0393 -0.6478  0.4029
 6067TIP3    H239761   6.372   3.118   1.539 -1.6188 -1.1898 -2.9159
 6068TIP3   OH239762   3.192   0.980   6.938 -0.2631  0.3297 -0.1309
 6068TIP3    H139763   3.223   0.931   6.862  1.0421 -1.7318  1.6355
 6068TIP3    H239764   3.102   1.004   6.916 -0.9691 -2.8509 -1.1278
 6069TIP3   OH239765   3.692   3.006   8.288 -0.2374  0.6137  0.6453
 6069TIP3    H139766   3.721   3.060   8.214 -1.5114  0.1896 -0.2152
 6069TIP3    H239767   3.614   2.962   8.255 -0.5774  0.0624  2.1236
 6070TIP3   OH239768   0.818   0.747   1.548  0.7372  0.0488 -0.4116
 6070TIP3    H139769   0.806   0.714   1.458  3.0158  0.9043 -1.0899
 6070TIP3    H239770   0.876   0.684   1.589  0.0912 -0.0728  0.3320
 6071TIP3   OH239771   6.654   3.753   7.961  0.0853 -0.2930 -0.7386
 6071TIP3    H139772   6.687   3.668   7.933 -2.7045 -1.2573 -1.4538
 6071TIP3    H239773   6.689   3.815   7.897  2.4023 -0.7762 -0.0389
 6072TIP3   OH239774   1.222   1.643   0.857  0.1894 -0.4514  0.0164
 6072TIP3    H139775   1.311   1.638   0.892 -0.4206 -2.3227  1.4736
 6072TIP3    H239776   1.180   1.562   0.886 -2.2910  0.7860  0.1639
 6073TIP3   OH239777   5.490   3.938   1.018  0.2131 -0.2833  0.2425
 6073TIP3    H139778   5.562   3.921   1.079  1.8072  1.2995 -1.0874
 6073TIP3    H239779   5.474   3.853   0.977  1.5659 -0.6153  0.3413
 6074TIP3   OH239780   4.998   0.159   8.128  0.3335 -0.2813  0.0243
 6074TIP3    H139781   4.912   0.148   8.088 -0.3345 -1.7935  1.7201
 6074TIP3    H239782   4.981   0.211   8.207  0.5758 -2.2299  1.4264
 6075TIP3   OH239783   0.912   0.540   0.504  0.1361  0.9825  0.0383
 6075TIP3    H139784   0.958   0.619   0.477 -1.8849  2.0104 -0.5988
 6075TIP3    H239785   0.854   0.569   0.575  0.8954 -0.4029  1.2840
 6076TIP3   OH239786   0.236   3.970   1.145  0.3273 -0.1582  0.1450
 6076TIP3    H139787   0.289   4.047   1.124  1.0350 -0.7129 -0.1459
 6076TIP3    H239788   0.221   3.928   1.061 -0.5014 -0.0663  0.2381
 6077TIP3   OH239789   2.867   0.133   6.028 -0.5177  0.5248 -0.3838
 6077TIP3    H139790   2.794   0.144   6.089 -1.2200 -2.3739 -0.5760
 6077TIP3    H239791   2.945   0.143   6.083 -1.1226 -0.0894  0.6326
 6078TIP3   OH239792   4.178   2.837   7.881 -0.0691  0.1876  0.0216
 6078TIP3    H139793   4.205   2.911   7.936 -0.0349 -0.0715  0.3613
 6078TIP3    H239794   4.183   2.870   7.792 -0.8811  0.8504  0.2183
 6079TIP3   OH239795   5.029   0.618   0.008 -0.3407  0.2515  0.0980
 6079TIP3    H139796   5.071   0.589   0.089  0.6660  1.8039  0.1724
 6079TIP3    H239797   5.070   0.703  -0.011 -0.9015  0.1333 -1.7828
 6080TIP3   OH239798   1.404   0.958   1.185  0.2753  0.4068  0.4456
 6080TIP3    H139799   1.485   1.000   1.213  0.1001  0.0145  1.5643
 6080TIP3    H239800   1.391   0.886   1.246 -0.4785 -0.0516 -0.2381
 6081TIP3   OH239801   0.207   5.502   6.068 -0.4776 -0.6975 -0.1682
 6081TIP3    H139802   0.219   5.550   5.985 -0.1346  2.1798  1.4133
 6081TIP3    H239803   0.134   5.548   6.111 -1.4245 -2.8656  0.6794
 6082TIP3   OH239804   1.261   6.545   8.291 -0.0485  0.2159 -0.6255
 6082TIP3    H139805   1.283   6.630   8.254  1.0678 -0.0747 -0.6589
 6082TIP3    H239806   1.283   6.552   8.384 -2.2153  0.7243 -0.0978
 6083TIP3   OH239807   6.636   5.385   0.401 -0.7304 -0.1569 -0.9430
 6083TIP3    H139808   6.701   5.422   0.460  1.0572 -3.1347 -0.8721
 6083TIP3    H239809   6.552   5.420   0.433  0.4897  1.1717  1.0260
 6084TIP3   OH239810   5.699   4.716   1.831 -0.4231  0.3747 -0.4508
 6084TIP3    H139811   5.786   4.680   1.817  0.1226  1.5105 -0.1032
 6084TIP3    H239812   5.654   4.651   1.886  0.6534  0.3866  0.4707
 6085TIP3   OH239813   5.724   2.582   7.462  0.1993 -0.1136  0.6233
 6085TIP3    H139814   5.693   2.557   7.375 -1.5815 -0.6700  1.3893
 6085TIP3    H239815   5.757   2.671   7.451 -1.1549  0.2865 -0.3740
 6086TIP3   OH239816   5.901   5.577   7.638 -0.3367  0.2111 -0.3287
 6086TIP3    H139817   5.842   5.652   7.651  0.1842  0.8650 -1.5272
 6086TIP3    H239818   5.856   5.521   7.576 -0.0550  0.3185 -0.6359
 6087TIP3   OH239819   3.543   0.019   7.279 -0.2238 -0.5688  0.5360
 6087TIP3    H139820   3.504   0.044   7.363  0.7461  0.3893  0.7231
 6087TIP3    H239821   3.479   0.047   7.214 -1.0875 -1.5200  0.9515
 6088TIP3   OH239822   3.708   3.280   7.250 -0.4296 -0.7986  0.4208
 6088TIP3    H139823   3.693   3.338   7.175 -0.7535 -1.5327 -0.0938
 6088TIP3    H239824   3.765   3.331   7.308  1.5907 -0.9915 -1.2762
 6089TIP3   OH239825   3.419   1.623   8.279  0.2025 -0.3659 -0.0362
 6089TIP3    H139826   3.421   1.528   8.290  0.6874 -0.2652  0.7635
 6089TIP3    H239827   3.326   1.645   8.282  0.1644 -0.6231  1.5645
 6090TIP3   OH239828   3.597   6.244   0.779  0.0674 -0.4833  0.8310
 6090TIP3    H139829   3.525   6.182   0.767  0.1356 -1.2764  3.7433
 6090TIP3    H239830   3.676   6.189   0.780  0.4707  0.0676  0.3128
 6091TIP3   OH239831   5.313   4.730   7.127  0.2973 -0.0799 -0.1994
 6091TIP3    H139832   5.321   4.821   7.099 -0.8496 -0.1428 -0.8091
 6091TIP3    H239833   5.348   4.679   7.054  0.6043 -0.1433 -0.0098
 6092TIP3   OH239834   5.365   4.897   8.663 -0.5573 -0.6599 -0.1148
 6092TIP3    H139835   5.319   4.964   8.613 -0.4824 -1.8535 -1.8614
 6092TIP3    H239836   5.401   4.943   8.739 -0.9322  1.1519 -1.0016
 6093TIP3   OH239837   0.763   1.140   7.446 -0.5474  0.0906  0.3280
 6093TIP3    H139838   0.792   1.204   7.380 -0.3475 -0.8472 -0.5217
 6093TIP3    H239839   0.828   1.147   7.516  0.5208 -0.4164 -0.5604
 6094TIP3   OH239840   1.993   5.745   8.182 -0.2332 -0.0740  0.8883
 6094TIP3    H139841   1.936   5.671   8.159 -0.9767  1.0104 -0.9944
 6094TIP3    H239842   1.980   5.756   8.276 -0.7368 -1.7953  1.0642
 6095TIP3   OH239843   2.882   2.815   0.392  0.6011 -0.1379  0.2731
 6095TIP3    H139844   2.923   2.798   0.476 -2.1180  1.7199  2.1535
 6095TIP3    H239845   2.935   2.884   0.352  0.4553  0.8616  1.7445
 6096TIP3   OH239846   1.262   6.119   0.408 -0.5117  0.0351 -0.1721
 6096TIP3    H139847   1.298   6.072   0.333 -1.1333  0.1116 -0.5225
 6096TIP3    H239848   1.167   6.109   0.400 -0.5593 -0.7621  1.1274
 6097TIP3   OH239849   5.400   4.521   8.220 -0.2906  0.3773  0.0939
 6097TIP3    H139850   5.424   4.499   8.310 -0.3056 -0.2319 -0.0484
 6097TIP3    H239851   5.459   4.594   8.197 -0.5443  0.7872  0.7161
 6098TIP3   OH239852   6.587   4.626   6.732 -0.2321 -0.0094  0.0706
 6098TIP3    H139853   6.581   4.574   6.813 -1.3876  0.6213  0.4126
 6098TIP3    H239854   6.679   4.622   6.708 -0.1054 -1.3545  0.6577
 6099TIP3   OH239855   4.979   6.145   0.528 -0.4204 -0.3225 -0.2564
 6099TIP3    H139856   4.969   6.071   0.468 -0.3839 -0.8819  0.4204
 6099TIP3    H239857   4.946   6.220   0.478  0.5758 -0.5801 -1.3562
 6100TIP3   OH239858   6.213   3.627   8.617  0.6822  0.1956 -0.2305
 6100TIP3    H139859   6.122   3.617   8.590  0.8192 -0.3515 -0.5124
 6100TIP3    H239860   6.260   3.559   8.568  1.4720  1.4082 -1.2344
 6101TIP3   OH239861   4.126   1.967   2.117 -0.5562 -0.7571  0.0150
 6101TIP3    H139862   4.161   1.998   2.033  0.1982 -1.7451 -0.0534
 6101TIP3    H239863   4.043   1.925   2.094 -1.1460  0.3659 -0.0054
 6102TIP3   OH239864   3.465   4.658   0.739  0.3392  0.1363 -0.4044
 6102TIP3    H139865   3.509   4.679   0.821  0.6191 -0.2375 -0.4545
 6102TIP3    H239866   3.510   4.579   0.707 -0.4791 -0.3662 -0.3651
 6103TIP3   OH239867   3.595   2.223   1.808  1.1273 -0.2364 -0.0295
 6103TIP3    H139868   3.617   2.242   1.899 -0.7943 -2.1626  0.9365
 6103TIP3    H239869   3.679   2.203   1.766  2.0278  0.5150  1.3486
 6104TIP3   OH239870   3.575   1.143   7.745  0.2926 -0.6436  0.0290
 6104TIP3    H139871   3.553   1.233   7.768  2.9848  0.0242  0.4010
 6104TIP3    H239872   3.587   1.144   7.650  3.8468  0.4213  0.3465
 6105TIP3   OH239873   6.755   4.067   7.018  0.3257 -0.5824 -0.0625
 6105TIP3    H139874   6.802   4.017   6.951  0.8387  0.3586 -0.4356
 6105TIP3    H239875   6.666   4.031   7.018  0.1078 -0.1068 -1.7804
 6106TIP3   OH239876   4.967   4.316   8.165 -0.1101 -0.4039  0.1281
 6106TIP3    H139877   5.054   4.299   8.131 -0.8364 -0.7881 -1.6920
 6106TIP3    H239878   4.958   4.257   8.240  1.5498  0.4345  1.0419
 6107TIP3   OH239879   0.841   3.154   8.534 -0.2737  0.1369  0.4415
 6107TIP3    H139880   0.868   3.089   8.469  0.9996 -1.3867  2.4068
 6107TIP3    H239881   0.850   3.110   8.618 -0.6320  2.4576  1.7858
 6108TIP3   OH239882   5.010   0.988   2.530 -0.7174  0.0997 -0.1109
 6108TIP3    H139883   5.013   0.898   2.562 -1.8262  0.4202  0.9701
 6108TIP3    H239884   4.930   0.992   2.479  0.2475  0.0217 -1.7017
 6109TIP3   OH239885   1.453   0.331   7.811 -0.6020 -0.6585 -0.6554
 6109TIP3    H139886   1.409   0.397   7.757  0.3059  1.7319  1.3074
 6109TIP3    H239887   1.546   0.339   7.787 -0.6364 -2.4294 -1.5245
 6110TIP3   OH239888   3.585   6.554   2.278 -0.2990  0.0817 -0.3608
 6110TIP3    H139889   3.671   6.593   2.286 -0.3302  0.4591 -1.7071
 6110TIP3    H239890   3.597   6.463   2.305  0.6876 -0.0640 -1.2693
 6111TIP3   OH239891   0.554   2.587   7.974  0.2392 -0.6014  0.2514
 6111TIP3    H139892   0.465   2.617   7.955  0.7238  0.4206 -0.4834
 6111TIP3    H239893   0.572   2.522   7.906  0.6982  0.5160 -0.7268
 6112TIP3   OH239894   3.154   6.261   7.770  0.1535  0.0702  0.0430
 6112TIP3    H139895   3.163   6.167   7.756  0.0625  0.1775 -0.8009
 6112TIP3    H239896   3.244   6.293   7.775  0.2147 -0.3019  2.2365
 6113TIP3   OH239897   4.808   1.805   6.548 -0.2919  0.6103 -0.0242
 6113TIP3    H139898   4.833   1.882   6.600  1.5884  0.6398 -0.8775
 6113TIP3    H239899   4.842   1.823   6.461 -2.0911 -0.0999 -0.9189
 6114TIP3   OH239900   6.455   3.314   7.060  0.0051  0.0211  0.2423
 6114TIP3    H139901   6.498   3.387   7.016  0.5131  0.5811  1.6426
 6114TIP3    H239902   6.511   3.293   7.134 -1.0659 -0.5954  0.9058
 6115TIP3   OH239903   6.332   0.364   0.221  0.3678  0.0663 -0.2207
 6115TIP3    H139904   6.419   0.359   0.259 -0.0049  1.3867  0.8744
 6115TIP3    H239905   6.347   0.365   0.127  1.4078 -1.4768 -0.1106
 6116TIP3   OH239906   2.615   1.058   0.150 -0.0670 -0.1215 -0.2007
 6116TIP3    H139907   2.596   1.020   0.064 -1.2148 -0.3682  0.1353
 6116TIP3    H239908   2.567   1.141   0.150 -0.8021 -0.5219  0.4967
 6117TIP3   OH239909   1.086   6.647   1.278  0.6428  0.0854 -0.1332
 6117TIP3    H139910   1.105   6.727   1.326  2.9341 -0.7177  0.4297
 6117TIP3    H239911   1.168   6.597   1.280 -0.3571 -1.7612 -1.4642
 6118TIP3   OH239912   5.078   5.533   7.976 -0.5796 -0.2646  0.3045
 6118TIP3    H139913   5.025   5.457   8.000 -0.9000 -1.0369 -2.5262
 6118TIP3    H239914   5.165   5.498   7.959  0.1030  0.5344  1.9843
 6119TIP3   OH239915   5.849   6.654   7.747 -0.2397 -0.5003  0.4429
 6119TIP3    H139916   5.790   6.698   7.807 -2.5220  0.5263 -2.3217
 6119TIP3    H239917   5.900   6.724   7.707  0.5854 -1.0475  0.5161
 6120TIP3   OH239918   6.686   4.795   8.685 -0.1187  0.1678  0.3076
 6120TIP3    H139919   6.702   4.866   8.623  1.4636 -0.6658 -0.2937
 6120TIP3    H239920   6.595   4.807   8.713 -0.5812  1.1070 -1.4586
 6121TIP3   OH239921   6.261   0.829   1.422  0.0264 -0.2694 -0.1924
 6121TIP3    H139922   6.166   0.833   1.424  0.0399  0.8363 -0.9525
 6121TIP3    H239923   6.289   0.897   1.484  0.3408 -1.5934  1.1676
 6122TIP3   OH239924   5.334   3.009   8.286 -0.0813  0.2106  0.1665
 6122TIP3    H139925   5.242   2.983   8.278 -0.5604  1.0243  2.4092
 6122TIP3    H239926   5.345   3.078   8.221 -0.9878 -0.0506 -0.2777
 6123TIP3   OH239927   2.740   1.518   0.115 -0.3654  0.3034 -0.0083
 6123TIP3    H139928   2.657   1.565   0.129  0.1069  1.2032 -0.1634
 6123TIP3    H239929   2.807   1.578   0.147  0.1830 -0.7591  0.9005
 6124TIP3   OH239930   3.870   6.368   1.700  0.0630  0.0916 -0.4091
 6124TIP3    H139931   3.793   6.313   1.695 -0.0713  0.1300  0.8763
 6124TIP3    H239932   3.837   6.455   1.723  0.3156  0.6309 -1.9361
 6125TIP3   OH239933   1.107   5.181   8.678  0.1867  0.0822 -0.1729
 6125TIP3    H139934   1.137   5.271   8.697  4.7463 -1.3116  0.5994
 6125TIP3    H239935   1.115   5.174   8.582 -0.0108  0.4567 -0.2207
 6126TIP3   OH239936   1.790   0.890   0.751  0.2369 -0.2453  0.9983
 6126TIP3    H139937   1.760   0.948   0.821 -0.2121 -2.3985  2.6638
 6126TIP3    H239938   1.710   0.852   0.715  0.4032  1.2612 -1.1817
 6127TIP3   OH239939   4.839   5.727   0.216  0.0482  0.1645 -0.5976
 6127TIP3    H139940   4.829   5.801   0.156  0.7996  0.7680 -0.0060
 6127TIP3    H239941   4.927   5.738   0.252 -1.7272  2.4079  3.9459
 6128TIP3   OH239942   4.402   3.538   8.491  0.2787  0.2090  0.3138
 6128TIP3    H139943   4.366   3.510   8.575 -0.7996  0.8664  0.0994
 6128TIP3    H239944   4.480   3.485   8.479 -0.6328 -1.3048  0.8090
 6129TIP3   OH239945   5.699   6.786   7.928  0.3408  0.0769 -0.5530
 6129TIP3    H139946   5.637   6.764   7.997  1.0885  0.0237  0.1144
 6129TIP3    H239947   5.740   6.867   7.957 -0.2379  0.7515 -1.5503
 6130TIP3   OH239948   1.806   3.145   0.912  0.3294  0.0117 -0.5912
 6130TIP3    H139949   1.812   3.224   0.967  0.5175  0.8016 -1.7194
 6130TIP3    H239950   1.893   3.134   0.876  0.1075 -0.2590 -1.0541
 6131TIP3   OH239951   4.281   2.820   0.192 -0.4464 -0.1246  0.1743
 6131TIP3    H139952   4.294   2.739   0.241  1.6680  0.6261  0.9982
 6131TIP3    H239953   4.192   2.815   0.159 -1.5506 -1.2928  3.0271
 6132TIP3   OH239954   1.773   2.208   6.534 -0.7809 -1.2128 -0.7785
 6132TIP3    H139955   1.696   2.256   6.564 -1.4800 -1.7299 -1.7296
 6132TIP3    H239956   1.753   2.116   6.550  1.3903 -1.2600  3.0552
 6133TIP3   OH239957   6.159   2.149   8.651  0.3410 -0.3069  0.0974
 6133TIP3    H139958   6.138   2.151   8.557  1.3880  0.8410 -0.1452
 6133TIP3    H239959   6.108   2.221   8.688  1.8075  0.8866 -0.0701
 6134TIP3   OH239960   0.661   6.216   0.746  0.2883  0.0102 -0.1206
 6134TIP3    H139961   0.568   6.237   0.740 -0.3928 -1.9955  2.0729
 6134TIP3    H239962   0.695   6.230   0.658 -2.1436  0.5128 -1.0319
 6135TIP3   OH239963   3.810   0.804   1.266  0.2669  0.1576 -0.3092
 6135TIP3    H139964   3.727   0.789   1.311  0.2694 -0.5226 -0.5183
 6135TIP3    H239965   3.870   0.834   1.335 -0.0858  0.4031 -0.1105
 6136TIP3   OH239966   1.077   6.731   0.963 -0.0588 -0.4406  0.5186
 6136TIP3    H139967   1.166   6.697   0.954 -0.0315 -0.1016 -0.5661
 6136TIP3    H239968   1.024   6.655   0.986  0.5764 -0.5582  1.6601
 6137TIP3   OH239969   4.281   2.623   0.563  0.6481  0.3610 -0.1436
 6137TIP3    H139970   4.258   2.600   0.653  0.8259  0.8656  0.0301
 6137TIP3    H239971   4.201   2.663   0.528  0.3034 -0.6015 -0.4798
 6138TIP3   OH239972   5.072   2.147   1.408 -0.1023 -0.3736 -0.2663
 6138TIP3    H139973   5.049   2.073   1.465 -0.1384 -0.5674 -0.5282
 6138TIP3    H239974   5.101   2.106   1.326 -0.5151 -0.0887 -0.5596
 6139TIP3   OH239975   4.754   3.749   1.848  0.5947  0.3289  0.1187
 6139TIP3    H139976   4.756   3.703   1.764  2.8125 -0.5672  0.5873
 6139TIP3    H239977   4.665   3.738   1.880  0.6612 -2.4582 -0.4587
 6140TIP3   OH239978   5.063   4.970   0.076  0.3894 -0.2701  0.5617
 6140TIP3    H139979   5.101   4.952   0.163  0.5118 -0.4277  0.4771
 6140TIP3    H239980   5.029   4.885   0.047 -2.9867  0.4336  2.0193
 6141TIP3   OH239981   3.985   3.183   7.897 -0.1840 -0.5722 -0.0494
 6141TIP3    H139982   4.057   3.239   7.870 -0.2636 -0.4236  0.0498
 6141TIP3    H239983   3.992   3.177   7.992  0.0889 -1.0878 -0.0937
 6142TIP3   OH239984   2.348   5.340   7.900 -0.4025 -0.0737 -0.3487
 6142TIP3    H139985   2.339   5.369   7.991 -1.2807 -0.4476 -0.3080
 6142TIP3    H239986   2.404   5.262   7.905 -0.2933  0.0136 -0.1552
 6143TIP3   OH239987   0.804   0.949   0.006  1.0103  0.1648 -0.1592
 6143TIP3    H139988   0.806   0.966   0.100 -1.0479 -0.7333  0.0892
 6143TIP3    H239989   0.738   1.009  -0.028  0.2266 -0.9481 -0.6690
 6144TIP3   OH239990   5.112   4.383   6.546 -0.0498 -0.5851  0.3032
 6144TIP3    H139991   5.161   4.430   6.613 -0.9014 -0.4017  0.8122
 6144TIP3    H239992   5.178   4.359   6.480  0.9621 -1.5628  1.6122
 6145TIP3   OH239993   5.278   6.303   0.120  0.1743 -0.2053 -0.0278
 6145TIP3    H139994   5.288   6.397   0.138 -2.5388  0.2211 -0.1836
 6145TIP3    H239995   5.289   6.296   0.025 -3.1377  0.6985 -0.6169
 6146TIP3   OH239996   3.612   0.779   8.398 -0.5551 -0.0759 -0.3248
 6146TIP3    H139997   3.559   0.790   8.320 -0.8149 -1.4503 -0.3714
 6146TIP3    H239998   3.647   0.690   8.391 -1.2247 -0.5318  1.4896
 6147TIP3   OH239999   4.436   1.832   8.219 -0.1529 -0.0914  0.3862
 6147TIP3    H140000   4.421   1.810   8.127  0.2896 -1.2379  0.5776
 6147TIP3    H240001   4.460   1.749   8.261 -0.2892  0.4195  1.5301
 6148TIP3   OH240002   5.083   1.610   0.274  0.5602 -0.4267  0.2420
 6148TIP3    H140003   5.056   1.641   0.360  0.0800  0.8159 -0.3382
 6148TIP3    H240004   5.073   1.685   0.216 -1.9218 -1.9500 -1.5246
 6149TIP3   OH240005   4.917   1.483   8.212  0.7761  0.1833  0.3554
 6149TIP3    H140006   4.852   1.518   8.272 -2.4512 -1.8799 -1.6525
 6149TIP3    H240007   4.906   1.532   8.131  2.4047  0.3833  0.2082
 6150TIP3   OH240008   0.929   0.176   1.647  0.3806  0.3426 -0.2377
 6150TIP3    H140009   1.007   0.232   1.643 -0.0965  1.1700  1.3562
 6150TIP3    H240010   0.876   0.204   1.572  0.5783  1.4152 -0.0004
 6151TIP3   OH240011   1.522   3.176   1.056  0.4249  0.2812  0.3090
 6151TIP3    H140012   1.577   3.243   1.097  0.8922 -0.5097  1.0178
 6151TIP3    H240013   1.564   3.093   1.080 -0.9928 -0.3481  0.7654
 6152TIP3   OH240014   4.244   0.258   7.647  0.3735 -0.4192  0.7575
 6152TIP3    H140015   4.225   0.329   7.586  0.5124 -1.5684 -0.6702
 6152TIP3    H240016   4.314   0.293   7.703  1.4832  0.0962 -0.8627
 6153TIP3   OH240017   0.569   2.170   2.132  0.2203  0.5951 -0.0823
 6153TIP3    H140018   0.622   2.249   2.131  1.2680 -0.0444  1.6626
 6153TIP3    H240019   0.574   2.137   2.222 -0.6843 -1.1285 -0.6020
 6154TIP3   OH240020   1.316   4.585   8.056  0.5099 -0.1886  0.2730
 6154TIP3    H140021   1.262   4.664   8.051  1.2250  0.2562 -0.6394
 6154TIP3    H240022   1.253   4.513   8.050  0.0404  0.3228 -1.3002
 6155TIP3   OH240023   4.544   0.901   2.138 -0.5209  0.0841 -0.0813
 6155TIP3    H140024   4.636   0.881   2.124 -0.6116 -1.8913  1.5763
 6155TIP3    H240025   4.537   0.919   2.232 -1.8234  0.1369 -0.1641
 6156TIP3   OH240026   3.886   2.222   7.692 -0.2869  0.0557 -0.0920
 6156TIP3    H140027   3.837   2.163   7.635  0.2551  1.3527 -2.0119
 6156TIP3    H240028   3.913   2.294   7.634  0.2226  1.5031  1.8397
 6157TIP3   OH240029   5.082   4.961   8.416 -0.1734  0.0636  0.1251
 6157TIP3    H140030   5.157   4.923   8.371 -0.2692  0.4542 -0.3706
 6157TIP3    H240031   5.044   4.888   8.464  0.4234 -0.1733  0.2447
 6158TIP3   OH240032   4.390   5.208   7.627  0.1348 -0.3374 -0.5437
 6158TIP3    H140033   4.354   5.154   7.697  0.3656  1.3164  0.9167
 6158TIP3    H240034   4.459   5.155   7.588 -0.4510 -1.5474  0.0245
 6159TIP3   OH240035   2.567   6.134   1.393  0.0258  0.3163 -0.0467
 6159TIP3    H140036   2.641   6.187   1.365 -0.7577  1.7319  0.4230
 6159TIP3    H240037   2.602   6.046   1.403  1.5461  0.8774 -0.2017
 6160TIP3   OH240038   1.923   5.752   7.159  0.1829  0.4028  0.8634
 6160TIP3    H140039   1.979   5.762   7.082  0.2778 -0.4876  0.7992
 6160TIP3    H240040   1.896   5.841   7.182  0.5287  0.7147  0.0825
 6161TIP3   OH240041   3.422   6.428   6.807  0.3163 -0.0144 -0.0747
 6161TIP3    H140042   3.404   6.357   6.869 -0.4621 -0.6876 -1.0386
 6161TIP3    H240043   3.514   6.416   6.784  0.6948  0.4130  1.1380
 6162TIP3   OH240044   1.949   6.012   1.724  0.1129 -0.3183  0.0609
 6162TIP3    H140045   1.964   5.988   1.815 -1.2093 -0.0888  0.3497
 6162TIP3    H240046   1.983   6.101   1.717 -1.0256  0.1832  0.6975
 6163TIP3   OH240047   3.220   4.203   6.832 -0.4517  0.4757  0.2227
 6163TIP3    H140048   3.303   4.248   6.849  0.3053 -0.4870 -0.7470
 6163TIP3    H240049   3.189   4.242   6.750 -0.0404 -0.3955 -0.3591
 6164TIP3   OH240050   6.397   4.213   1.670  0.1648 -0.2881  0.1949
 6164TIP3    H140051   6.424   4.123   1.653 -0.0823 -0.5833  1.2445
 6164TIP3    H240052   6.469   4.250   1.722  1.3100  0.8479 -2.0643
 6165TIP3   OH240053   4.025   4.652   7.033  0.3103 -0.1112  0.6285
 6165TIP3    H140054   4.000   4.596   7.107 -0.4806 -1.2314 -0.4424
 6165TIP3    H240055   3.948   4.705   7.016  0.3797 -0.0773  0.4154
 6166TIP3   OH240056   0.244   5.228   0.407 -0.1544 -0.1620  0.5401
 6166TIP3    H140057   0.176   5.273   0.357  0.1631  1.9302  1.8362
 6166TIP3    H240058   0.324   5.244   0.358 -0.3795 -1.5417 -0.3213
 6167TIP3   OH240059   5.572   3.758   7.571  0.1787  0.2017 -0.5981
 6167TIP3    H140060   5.531   3.808   7.500  0.9469  1.5491 -0.1291
 6167TIP3    H240061   5.665   3.774   7.560  0.5012 -1.5263 -0.6873
 6168TIP3   OH240062   1.451   3.804   7.423 -0.2777  0.1571  0.2882
 6168TIP3    H140063   1.545   3.820   7.426  0.0369 -0.6240 -2.4155
 6168TIP3    H240064   1.438   3.722   7.470  0.6075 -0.3756 -0.3773
 6169TIP3   OH240065   5.044   2.129   6.720 -0.0402 -0.7501  0.1203
 6169TIP3    H140066   4.959   2.087   6.734 -0.5610  0.8093  2.1186
 6169TIP3    H240067   5.035   2.172   6.635 -0.6260 -1.9963 -0.4724
 6170TIP3   OH240068   6.796   1.001   6.897 -0.5662  0.5807 -0.6374
 6170TIP3    H140069   6.829   0.978   6.810  0.9465 -0.5813  0.2070
 6170TIP3    H240070   6.718   0.945   6.909  0.0119 -0.2596 -0.7213
 6171TIP3   OH240071   2.558   6.531   0.306  0.1107 -0.1408 -0.1613
 6171TIP3    H140072   2.626   6.595   0.328 -0.6287  0.6428 -0.0885
 6171TIP3    H240073   2.600   6.446   0.318  1.1805  0.3288 -0.4695
 6172TIP3   OH240074   6.304   4.265   7.242  0.0635  0.0424 -0.7435
 6172TIP3    H140075   6.332   4.251   7.333 -0.6849  1.7973 -0.2088
 6172TIP3    H240076   6.211   4.287   7.249 -0.3503 -1.1973 -2.0818
 6173TIP3   OH240077   1.494   6.164   1.914 -1.0625 -0.0828  0.3296
 6173TIP3    H140078   1.421   6.151   1.975 -0.2191  0.3824  1.4600
 6173TIP3    H240079   1.551   6.089   1.929 -1.1745 -0.3170 -0.3834
 6174TIP3   OH240080   0.348   1.403   6.251 -0.0826 -0.1066 -0.0671
 6174TIP3    H140081   0.281   1.378   6.315 -1.3918  0.5973 -1.1016
 6174TIP3    H240082   0.317   1.486   6.215  0.1720 -0.8360 -2.1539
 6175TIP3   OH240083   2.490   4.493   7.002 -0.0376 -0.3929  0.1046
 6175TIP3    H140084   2.520   4.573   6.958  1.2010 -1.1069 -0.4081
 6175TIP3    H240085   2.478   4.520   7.093  0.8751  0.2780  0.0471
 6176TIP3   OH240086   5.747   3.730   0.395 -0.1273  0.6872  0.2966
 6176TIP3    H140087   5.817   3.674   0.362 -0.9008 -0.3299  0.3113
 6176TIP3    H240088   5.792   3.803   0.437  0.9031  0.7222 -0.8014
 6177TIP3   OH240089   0.334   0.521   7.186 -0.0352  0.3515 -0.3879
 6177TIP3    H140090   0.411   0.576   7.190  1.3718 -1.3712 -1.8242
 6177TIP3    H240091   0.264   0.573   7.227  1.5640  2.4541 -0.1848
 6178TIP3   OH240092   5.547   2.160   7.581  0.3371  0.4955 -0.2144
 6178TIP3    H140093   5.594   2.236   7.547  1.7668 -1.0122 -1.8521
 6178TIP3    H240094   5.607   2.087   7.568 -1.0358 -0.9596  1.1438
 6179TIP3   OH240095   5.178   3.735   8.294 -0.3299 -0.3812  0.1176
 6179TIP3    H140096   5.186   3.809   8.234  2.2825  0.6832  1.6011
 6179TIP3    H240097   5.253   3.679   8.273 -0.0205 -0.5616  1.5786
 6180TIP3   OH240098   6.134   3.959   6.512  0.0375 -0.6962  0.1631
 6180TIP3    H140099   6.057   3.931   6.464  0.0068 -0.1761 -0.0927
 6180TIP3    H240100   6.121   4.053   6.527  0.5403 -0.6389  0.2613
 6181TIP3   OH240101   0.262   3.597   0.623 -0.2882 -0.8341  0.3507
 6181TIP3    H140102   0.316   3.675   0.611 -0.6122 -0.7628 -0.8675
 6181TIP3    H240103   0.259   3.584   0.717 -0.6789  0.9696  0.6348
 6182TIP3   OH240104   4.645   5.019   8.146  0.2851 -0.1089 -0.2911
 6182TIP3    H140105   4.618   5.054   8.231  0.5867 -0.7513  0.0766
 6182TIP3    H240106   4.740   5.007   8.154  0.6273  1.6105 -1.3868
 6183TIP3   OH240107   5.932   4.572   1.859  0.0134  0.3678 -0.3416
 6183TIP3    H140108   6.003   4.618   1.814  0.3925 -0.1994 -0.3275
 6183TIP3    H240109   5.970   4.489   1.888 -1.0044 -0.5432 -1.4980
 6184TIP3   OH240110   3.611   0.313   1.505 -0.1551 -0.0883  0.3963
 6184TIP3    H140111   3.636   0.391   1.554 -0.0945 -0.1795  0.5132
 6184TIP3    H240112   3.661   0.319   1.423  0.1579 -0.2063  0.5760
 6185TIP3   OH240113   6.405   3.675   1.182 -0.3881 -0.6621 -0.1893
 6185TIP3    H140114   6.474   3.624   1.139 -0.3514  0.1411 -1.0987
 6185TIP3    H240115   6.343   3.695   1.112  0.0174  1.2672 -0.0529
 6186TIP3   OH240116   2.718   5.726   7.128  0.0361 -0.8648 -0.2253
 6186TIP3    H140117   2.760   5.740   7.043 -1.7238 -1.4134 -1.2301
 6186TIP3    H240118   2.752   5.797   7.183  1.8263 -0.9802 -1.1208
 6187TIP3   OH240119   4.434   6.444   7.050 -0.2486  0.5501 -0.6698
 6187TIP3    H140120   4.521   6.453   7.012 -0.3672 -1.7692 -1.6153
 6187TIP3    H240121   4.450   6.414   7.140 -0.0606 -0.3876 -1.0087
 6188TIP3   OH240122   3.121   4.434   7.619 -0.0028 -0.3246  0.4231
 6188TIP3    H140123   3.146   4.386   7.698 -0.3917 -1.2229  0.0110
 6188TIP3    H240124   3.205   4.461   7.581  0.1821  0.2788  1.2295
 6189TIP3   OH240125   6.824   6.284   8.306  0.1105  0.2125 -0.1674
 6189TIP3    H140126   6.905   6.237   8.324 -0.3635 -0.6429 -0.2225
 6189TIP3    H240127   6.806   6.331   8.388  0.2881 -0.1709  0.0994
 6190TIP3   OH240128   3.189   0.960   7.229  0.4820 -0.2064 -0.2830
 6190TIP3    H140129   3.094   0.965   7.243  0.7122 -0.2286  1.5884
 6190TIP3    H240130   3.200   0.973   7.135 -1.2141  1.9763 -0.2637
 6191TIP3   OH240131   0.927   2.214   0.067 -0.4781 -0.0790  0.5538
 6191TIP3    H140132   0.857   2.263   0.025 -0.6225 -1.4964 -0.9245
 6191TIP3    H240133   0.974   2.171  -0.004  0.3783 -1.1364  1.7002
 6192TIP3   OH240134   2.304   0.239   8.044 -0.6221 -0.2479 -0.3883
 6192TIP3    H140135   2.309   0.289   7.963 -0.7986  1.4544  0.6197
 6192TIP3    H240136   2.270   0.300   8.109  1.4763 -0.8921  1.4738
 6193TIP3   OH240137   6.646   5.893   2.310 -0.1118  0.0335 -0.1698
 6193TIP3    H140138   6.562   5.887   2.357  0.1131  0.2611  0.2705
 6193TIP3    H240139   6.636   5.968   2.252  0.2966  0.9707  0.9458
 6194TIP3   OH240140   2.780   0.652   2.165  0.3892 -0.4504  0.0241
 6194TIP3    H140141   2.737   0.588   2.221 -0.7461 -0.4329 -0.8065
 6194TIP3    H240142   2.858   0.678   2.215 -0.1476 -1.0386  1.2182
 6195TIP3   OH240143   0.922   3.764   8.127 -0.2339  0.0306 -0.5691
 6195TIP3    H140144   0.957   3.846   8.162  0.8799  0.4657 -2.5621
 6195TIP3    H240145   0.935   3.700   8.198 -1.3857  1.5719  1.1239
 6196TIP3   OH240146   3.400   5.041   0.905 -0.5500  0.2484 -0.0634
 6196TIP3    H140147   3.454   4.988   0.964 -1.6152 -1.4572 -0.5155
 6196TIP3    H240148   3.424   5.131   0.923  1.3177 -0.3848  0.8146
 6197TIP3   OH240149   3.265   0.936   6.661  0.4494 -0.3467  0.2084
 6197TIP3    H140150   3.287   1.005   6.598  1.6754 -1.0980 -0.2315
 6197TIP3    H240151   3.349   0.913   6.702  0.0604 -1.4864  0.4136
 6198TIP3   OH240152   1.804   6.444   8.442  0.6964  0.4577  0.1559
 6198TIP3    H140153   1.856   6.489   8.375 -0.6698  0.3033 -1.0535
 6198TIP3    H240154   1.833   6.353   8.438 -1.4757 -0.2492 -2.4878
 6199TIP3   OH240155   1.199   3.652   8.613  0.0609 -0.6699  0.1383
 6199TIP3    H140156   1.172   3.732   8.568 -1.0390 -1.1815 -0.1346
 6199TIP3    H240157   1.295   3.652   8.605 -0.0808 -0.8050 -2.3345
 6200TIP3   OH240158   5.281   2.617   0.082 -0.2441 -0.0487 -0.2254
 6200TIP3    H140159   5.296   2.650  -0.006  1.0823 -0.2786 -0.1030
 6200TIP3    H240160   5.351   2.656   0.134  0.4835 -1.8799  0.2156
 6201TIP3   OH240161   5.182   3.475   7.627 -0.9727 -0.6430  0.6819
 6201TIP3    H140162   5.260   3.507   7.672  0.5481 -1.4923 -1.1842
 6201TIP3    H240163   5.159   3.545   7.565 -1.9085 -0.2771  1.4109
 6202TIP3   OH240164   3.496   0.053   1.965  0.6572  0.1431  0.2875
 6202TIP3    H140165   3.545   0.028   2.044  1.2851 -0.6577 -0.3239
 6202TIP3    H240166   3.461  -0.030   1.932 -1.5638  0.7556  0.9620
 6203TIP3   OH240167   6.364   0.726   1.175  0.0156 -0.1670  0.2601
 6203TIP3    H140168   6.356   0.634   1.150  0.4866 -0.5290  1.4020
 6203TIP3    H240169   6.313   0.734   1.256  0.1996  0.5161  0.3159
 6204TIP3   OH240170   2.018   3.170   6.189  0.8002  0.6889  0.3026
 6204TIP3    H140171   2.073   3.247   6.172  1.2194  0.3186 -0.0421
 6204TIP3    H240172   2.055   3.102   6.133  0.3865  0.2543  0.5556
 6205TIP3   OH240173   1.674   4.508   7.650 -0.1368 -0.2061 -0.0370
 6205TIP3    H140174   1.644   4.570   7.717 -0.5454  0.7260 -1.0516
 6205TIP3    H240175   1.764   4.487   7.676 -0.5883 -0.6036  1.3174
 6206TIP3   OH240176   4.174   3.621   0.397  0.0907  0.3295 -0.5655
 6206TIP3    H140177   4.188   3.598   0.489  0.5443 -0.6061 -0.8533
 6206TIP3    H240178   4.092   3.670   0.397  0.7654  1.5159  0.5075
 6207TIP3   OH240179   6.392   5.908   2.439 -0.3818 -0.2898 -0.1949
 6207TIP3    H140180   6.334   5.941   2.508 -1.8565 -0.3588 -1.3538
 6207TIP3    H240181   6.381   5.813   2.441 -1.1949 -0.2309 -1.1410
 6208TIP3   OH240182   4.896   0.431   7.528  0.0926 -0.1125 -0.3045
 6208TIP3    H140183   4.875   0.455   7.619  1.9600  0.2694  0.0753
 6208TIP3    H240184   4.991   0.430   7.526  0.0815  0.1878 -2.3646
 6209TIP3   OH240185   1.853   2.803   0.989 -0.3764 -0.2617  0.2314
 6209TIP3    H140186   1.900   2.884   1.010 -1.4273  0.7595 -1.1419
 6209TIP3    H240187   1.794   2.789   1.063  1.5008 -1.1692  1.6346
 6210TIP3   OH240188   0.031   1.039   2.225  0.0943 -0.6096  0.3388
 6210TIP3    H140189  -0.002   1.128   2.214 -0.1835 -0.7483  0.0296
 6210TIP3    H240190  -0.047   0.986   2.239  0.2121 -0.8868 -0.0433
 6211TIP3   OH240191   4.268   3.471   0.022 -0.1327 -0.0111  0.2979
 6211TIP3    H140192   4.180   3.452  -0.011  0.0744  0.3601 -0.4773
 6211TIP3    H240193   4.255   3.544   0.083 -0.3628  0.0427  0.1849
 6212TIP3   OH240194   2.632   3.851   0.981 -0.3864  0.5321  0.2335
 6212TIP3    H140195   2.624   3.757   0.997  0.3628  0.3422 -0.4183
 6212TIP3    H240196   2.723   3.871   1.002 -0.2695  0.9066 -0.5631
 6213TIP3   OH240197   2.094   1.464   6.069  0.1321  0.7306  0.5490
 6213TIP3    H140198   2.069   1.488   6.158 -0.3967  0.6409  0.4285
 6213TIP3    H240199   2.188   1.447   6.074  0.1566  0.9923  1.0315
 6214TIP3   OH240200   4.195   5.627   0.224  0.2521  1.0275  0.0666
 6214TIP3    H140201   4.208   5.667   0.138  2.0297 -0.3838 -0.3721
 6214TIP3    H240202   4.113   5.664   0.255 -0.3256  1.7597 -2.1420
 6215TIP3   OH240203   4.057   2.743   8.413 -0.8486 -0.3596 -0.5276
 6215TIP3    H140204   4.020   2.678   8.474 -1.1277  0.0595 -0.2437
 6215TIP3    H240205   4.014   2.825   8.437  1.0456  0.3808  0.5155
 6216TIP3   OH240206   1.856   4.971   1.440  0.1347  0.0328  0.0369
 6216TIP3    H140207   1.769   4.944   1.469  0.3192 -1.4900 -0.7075
 6216TIP3    H240208   1.911   4.964   1.517 -0.0343 -0.8053  0.0869
 6217TIP3   OH240209   5.653   6.541   0.799  0.2228  0.0344 -0.4030
 6217TIP3    H140210   5.625   6.621   0.842  1.2157 -0.2071  0.7579
 6217TIP3    H240211   5.589   6.527   0.729 -1.8432  0.1232  1.3604
 6218TIP3   OH240212   1.620   1.756   2.643 -0.0790 -0.0741 -0.9618
 6218TIP3    H140213   1.678   1.769   2.568  0.6422  1.5244 -0.1841
 6218TIP3    H240214   1.567   1.836   2.646  0.5385  0.2988  0.7453
 6219TIP3   OH240215   2.129   0.677   7.788 -0.0360  0.3211  0.3825
 6219TIP3    H140216   2.164   0.764   7.767 -0.3409  0.8759  2.0535
 6219TIP3    H240217   2.112   0.680   7.882  0.9744 -1.9193  0.6983
 6220TIP3   OH240218   1.484   4.764   6.459 -0.0914 -0.0523 -0.2229
 6220TIP3    H140219   1.484   4.668   6.453 -1.9161 -0.2151  1.4678
 6220TIP3    H240220   1.414   4.792   6.400 -0.9457  0.0429  0.7858
 6221TIP3   OH240221   1.576   0.018   8.414 -0.5502 -0.5483 -0.9521
 6221TIP3    H140222   1.521   0.059   8.481  1.5769  1.5013 -0.3297
 6221TIP3    H240223   1.581  -0.074   8.441 -1.6624 -0.2647  0.3584
 6222TIP3   OH240224   2.164   1.222   8.026  0.2424  0.6192 -0.1290
 6222TIP3    H140225   2.167   1.197   7.933 -0.5301  2.4531 -0.6924
 6222TIP3    H240226   2.242   1.276   8.038 -0.2223  1.2612  0.0132
 6223TIP3   OH240227   3.634   0.517   8.311  0.6576 -0.6856  0.2818
 6223TIP3    H140228   3.591   0.509   8.226  0.1945 -0.7301  0.5134
 6223TIP3    H240229   3.567   0.489   8.374  0.4737  0.7839  0.7709
 6224TIP3   OH240230   3.172   0.148   1.217  0.5885 -0.2099  0.7720
 6224TIP3    H140231   3.188   0.190   1.133 -0.3367 -1.8811 -0.2987
 6224TIP3    H240232   3.246   0.088   1.228 -0.7746 -2.1947 -0.3676
 6225TIP3   OH240233   4.530   2.726   7.593  0.3223  0.1816  0.2626
 6225TIP3    H140234   4.495   2.655   7.539 -0.5614  1.2153 -0.5631
 6225TIP3    H240235   4.522   2.694   7.683 -0.8645 -0.4229 -0.0410
 6226TIP3   OH240236   0.001   3.474   1.224  0.4361 -0.0724 -0.0040
 6226TIP3    H140237   0.082   3.455   1.176  0.7833  1.0725  0.1019
 6226TIP3    H240238  -0.029   3.388   1.255  0.2648 -0.8558 -2.1213
 6227TIP3   OH240239   5.359   3.179   6.300  0.1264 -0.7986 -0.4368
 6227TIP3    H140240   5.287   3.118   6.290  0.3932 -1.0734 -0.7020
 6227TIP3    H240241   5.437   3.130   6.274  0.8760 -1.4951  2.6431
 6228TIP3   OH240242   6.091   3.949   8.047  0.0127 -0.1393  0.2510
 6228TIP3    H140243   6.017   3.890   8.063 -0.5280  0.5044  0.1625
 6228TIP3    H240244   6.051   4.031   8.018  0.6022  1.0235  2.4847
 6229TIP3   OH240245   3.479   3.550   6.607  0.1452 -0.4308  0.0715
 6229TIP3    H140246   3.468   3.536   6.701  0.5885  0.2157  0.2269
 6229TIP3    H240247   3.391   3.538   6.571  0.3016 -2.6081  0.2836
 6230TIP3   OH240248   3.227   0.379   2.101  0.4128 -0.5105 -0.7737
 6230TIP3    H140249   3.263   0.449   2.046 -0.5820  1.0742  0.4835
 6230TIP3    H240250   3.148   0.351   2.057 -1.4038  2.0339  0.5800
 6231TIP3   OH240251   5.626   1.930   8.302  0.0113 -0.2648 -0.3782
 6231TIP3    H140252   5.571   1.892   8.370  1.0494 -2.5049 -0.6880
 6231TIP3    H240253   5.564   1.957   8.234 -0.8084 -1.5292 -0.1722
 6232TIP3   OH240254   4.471   5.401   0.385  0.2118 -0.3156 -0.4260
 6232TIP3    H140255   4.379   5.406   0.411  0.6236 -0.3051  1.1348
 6232TIP3    H240256   4.483   5.476   0.326 -1.5889 -2.3069 -3.5909
 6233TIP3   OH240257   4.916   2.659   7.795 -0.3794 -0.0781 -0.0023
 6233TIP3    H140258   4.854   2.611   7.849  0.6799 -1.6186 -0.1018
 6233TIP3    H240259   4.991   2.676   7.853 -0.2810  0.5071 -0.2839
 6234TIP3   OH240260   0.701   4.577   0.345 -0.2748 -0.1365 -0.3029
 6234TIP3    H140261   0.790   4.551   0.367  0.1961  0.3209 -1.5672
 6234TIP3    H240262   0.670   4.509   0.285  0.5340  1.4369 -2.6728
 6235TIP3   OH240263   5.216   4.352   8.064 -0.2663  0.4317 -0.5512
 6235TIP3    H140264   5.297   4.300   8.059 -0.4101  0.1705 -0.1472
 6235TIP3    H240265   5.241   4.430   8.112 -0.1791  0.4986 -0.7031
 6236TIP3   OH240266   1.121   2.427   8.583  0.1992 -0.2054  0.2006
 6236TIP3    H140267   1.046   2.480   8.555 -0.3396 -0.6217  0.8021
 6236TIP3    H240268   1.102   2.406   8.675  1.6311  0.6488  0.7274
 6237TIP3   OH240269   6.014   1.826   0.631  0.2357  0.1472  0.1387
 6237TIP3    H140270   5.974   1.744   0.603  1.3519 -0.8891  1.4762
 6237TIP3    H240271   6.102   1.825   0.591  0.0553  0.9925 -0.3234
 6238TIP3   OH240272   0.242   3.554   1.567  0.0381  0.0165  0.0704
 6238TIP3    H140273   0.270   3.484   1.509 -1.2870  0.8758 -1.7214
 6238TIP3    H240274   0.147   3.542   1.574 -0.1704  1.4471 -0.0433
 6239TIP3   OH240275   2.781   0.244   7.880 -0.1733 -0.1015  0.3641
 6239TIP3    H140276   2.874   0.267   7.877 -0.5198  1.3344 -2.5913
 6239TIP3    H240277   2.738   0.318   7.922 -0.1832  0.2300 -0.2139
 6240TIP3   OH240278   6.060   1.940   0.919 -0.3396 -0.3885  0.4428
 6240TIP3    H140279   6.004   1.933   0.997 -1.8694 -0.5610 -0.6076
 6240TIP3    H240280   6.054   1.853   0.879  1.5305 -0.7240  0.8126
 6241TIP3   OH240281   1.004   3.462   0.271 -0.1128  0.4278  0.1522
 6241TIP3    H140282   1.065   3.393   0.296  0.1179 -0.2437 -2.0344
 6241TIP3    H240283   0.918   3.420   0.275 -0.2038  0.6632  0.8665
 6242TIP3   OH240284   2.295   6.669   1.894  0.0324 -0.1936 -0.2754
 6242TIP3    H140285   2.239   6.592   1.884  0.9538 -1.4110  2.6454
 6242TIP3    H240286   2.363   6.659   1.828 -1.3005 -0.4594 -1.6546
 6243TIP3   OH240287   0.537   2.218   0.516  0.1930  0.0904 -0.0555
 6243TIP3    H140288   0.513   2.201   0.425 -1.7022 -0.3399  0.4807
 6243TIP3    H240289   0.632   2.233   0.513  0.4376 -1.4096 -1.8761
 6244TIP3   OH240290   6.475   0.577   0.385 -0.8625 -0.1336 -0.9733
 6244TIP3    H140291   6.411   0.555   0.453  1.4456 -2.2325  0.6715
 6244TIP3    H240292   6.504   0.493   0.351  1.8883  0.6414 -0.7655
 6245TIP3   OH240293   0.283   0.797   2.522 -0.1799 -0.0645  0.1879
 6245TIP3    H140294   0.280   0.774   2.615  1.8880  0.9346  0.5412
 6245TIP3    H240295   0.274   0.892   2.521  0.2994 -0.0230 -0.5996
 6246TIP3   OH240296   2.768   4.125   1.138  0.4151 -0.0002 -0.3193
 6246TIP3    H140297   2.690   4.076   1.163  1.0797 -0.6173  0.6687
 6246TIP3    H240298   2.757   4.211   1.178  0.1953 -0.0591 -0.2562
 6247TIP3   OH240299   5.901   5.926   1.066 -0.4617 -0.1842 -0.0180
 6247TIP3    H140300   5.885   5.842   1.023 -0.1584  0.2004 -0.8908
 6247TIP3    H240301   5.903   5.904   1.159  1.9239 -1.5760 -0.2921
 6248TIP3   OH240302   3.726   6.692   7.237 -0.0988 -0.2355  0.0630
 6248TIP3    H140303   3.659   6.760   7.229 -0.9524 -1.1922 -1.4676
 6248TIP3    H240304   3.711   6.653   7.323 -0.9033  0.2109  0.1302
 6249TIP3   OH240305   4.870   1.652   1.497 -0.0455 -0.4308 -0.4976
 6249TIP3    H140306   4.865   1.701   1.579 -0.8931 -1.7007  0.2402
 6249TIP3    H240307   4.963   1.639   1.482  0.0783 -1.2406  0.9141
 6250TIP3   OH240308   5.820   6.293   0.381  0.6519  0.0638 -0.3955
 6250TIP3    H140309   5.869   6.274   0.301  2.2486 -1.5507  0.8888
 6250TIP3    H240310   5.880   6.345   0.435 -0.2794  0.8509 -0.0792
 6251TIP3   OH240311   4.596   3.447   0.700  0.4151 -0.2085 -0.4161
 6251TIP3    H140312   4.647   3.402   0.632 -0.4966 -1.7637 -0.1299
 6251TIP3    H240313   4.525   3.386   0.720 -1.0657  1.5170 -0.1898
 6252TIP3   OH240314   4.172   1.289   0.826  0.1435  0.2417  0.7260
 6252TIP3    H140315   4.200   1.368   0.781  0.6641 -0.2495  0.1541
 6252TIP3    H240316   4.088   1.312   0.866  1.8702  2.1593  3.5927
 6253TIP3   OH240317   5.019   5.633   8.585 -0.1454 -0.3194 -0.1812
 6253TIP3    H140318   5.003   5.668   8.673 -0.3067  0.2754 -0.4444
 6253TIP3    H240319   5.113   5.620   8.581 -0.2179 -1.0788  0.3482
 6254TIP3   OH240320   2.937   1.634   7.012 -0.7024  0.1680  0.3203
 6254TIP3    H140321   2.926   1.542   6.987 -0.0844  0.4137 -0.9286
 6254TIP3    H240322   2.857   1.677   6.981 -0.3157  0.3163 -0.4973
 6255TIP3   OH240323   6.347   1.870   1.340  0.8320  0.1192  0.0693
 6255TIP3    H140324   6.262   1.831   1.317  1.2486 -0.6427 -0.2019
 6255TIP3    H240325   6.407   1.836   1.274  1.7700 -0.9845  1.4486
 6256TIP3   OH240326   5.436   5.495   0.428  0.8207 -0.2410 -0.6726
 6256TIP3    H140327   5.425   5.549   0.350  1.2291  1.8423  0.6436
 6256TIP3    H240328   5.528   5.504   0.451  0.5013 -0.0507  0.5869
 6257TIP3   OH240329   1.934   0.789   1.921  0.7217 -0.0519  0.1698
 6257TIP3    H140330   1.943   0.735   1.843 -0.3141  0.6693 -0.4779
 6257TIP3    H240331   1.840   0.791   1.938  0.9494 -0.4905  1.6672
 6258TIP3   OH240332   6.588   1.662   0.052  0.2853 -0.2629  0.8181
 6258TIP3    H140333   6.587   1.755   0.029  0.3590 -0.5320 -0.3265
 6258TIP3    H240334   6.637   1.658   0.134  2.6533  0.4311 -0.4581
 6259TIP3   OH240335   2.276   3.262   8.059 -0.2984 -0.0755 -0.6151
 6259TIP3    H140336   2.262   3.330   8.124  1.5157 -0.4095  0.2037
 6259TIP3    H240337   2.353   3.292   8.010 -1.5520  0.1173 -2.5664
 6260TIP3   OH240338   0.302   1.986   1.705  0.3273 -0.7117  0.0789
 6260TIP3    H140339   0.222   1.935   1.690  0.6879 -0.9981 -0.9451
 6260TIP3    H240340   0.305   1.998   1.800 -2.2624  1.4378  0.0058
 6261TIP3   OH240341   0.526   6.458   1.657  1.0770 -0.1699  0.5098
 6261TIP3    H140342   0.615   6.452   1.623  0.7086  1.3682 -0.8763
 6261TIP3    H240343   0.536   6.498   1.743  1.7047  0.4380  0.1633
 6262TIP3   OH240344   6.120   1.217   7.139 -0.5560  0.2485  0.7992
 6262TIP3    H140345   6.129   1.142   7.199  0.2787  0.0294  0.4216
 6262TIP3    H240346   6.171   1.287   7.181 -1.4386  0.6537  1.2137
 6263TIP3   OH240347   2.219   6.047   6.651  0.2423 -0.3980 -0.3334
 6263TIP3    H140348   2.172   5.970   6.618 -1.2879  1.1581 -2.0044
 6263TIP3    H240349   2.168   6.122   6.620  0.0107  1.3532  3.6390
 6264TIP3   OH240350   1.337   6.485   6.439  0.3658  0.3925 -0.5256
 6264TIP3    H140351   1.346   6.414   6.375 -2.2732 -0.7783  0.2688
 6264TIP3    H240352   1.313   6.441   6.521 -2.3703  2.1555 -0.2293
 6265TIP3   OH240353   6.798   4.190   1.451  0.0482 -0.4111  0.2499
 6265TIP3    H140354   6.890   4.173   1.428 -0.4045 -1.6282 -0.8010
 6265TIP3    H240355   6.790   4.156   1.540  0.5491 -0.5665  0.2429
 6266TIP3   OH240356   3.575   3.314   7.658  0.0215 -0.3317  0.0706
 6266TIP3    H140357   3.487   3.326   7.692  0.0199 -4.3921  2.0450
 6266TIP3    H240358   3.563   3.265   7.577  0.4491  0.2544 -0.3548
 6267TIP3   OH240359   3.953   4.250   1.725  0.0281 -0.1399  0.5357
 6267TIP3    H140360   3.994   4.332   1.753 -1.3352  1.0286 -0.7074
 6267TIP3    H240361   4.001   4.226   1.645 -1.6788  1.3194 -1.0165
 6268TIP3   OH240362   2.569   4.575   1.474 -0.1512  0.7171 -0.0810
 6268TIP3    H140363   2.528   4.569   1.560  0.0433 -0.9983 -0.0756
 6268TIP3    H240364   2.659   4.544   1.488 -0.2269  0.0515 -0.9495
 6269TIP3   OH240365   3.958   6.787   7.140  0.5977 -0.8267 -0.8660
 6269TIP3    H140366   3.879   6.753   7.182  0.7609  0.1263  0.2655
 6269TIP3    H240367   4.028   6.730   7.172  0.3021 -2.0980 -2.4072
 6270TIP3   OH240368   1.031   0.791   0.376 -0.3514  0.2993  0.1741
 6270TIP3    H140369   0.968   0.860   0.397 -1.5180 -0.9257  0.9137
 6270TIP3    H240370   0.998   0.752   0.295 -1.3760 -1.2008  1.2427
 6271TIP3   OH240371   5.490   1.929   6.136  0.6288 -0.1199 -0.2340
 6271TIP3    H140372   5.535   2.011   6.154  0.0896 -0.2596  1.9850
 6271TIP3    H240373   5.559   1.869   6.107  1.3211  0.5654 -0.0158
 6272TIP3   OH240374   0.206   6.811   8.110 -0.0704  0.1276 -1.0242
 6272TIP3    H140375   0.204   6.882   8.045 -0.5122 -0.5953 -1.8227
 6272TIP3    H240376   0.241   6.736   8.062  0.3874 -0.2085 -0.1889
 6273TIP3   OH240377   3.267   0.683   7.258  0.3866  0.1382 -0.0526
 6273TIP3    H140378   3.224   0.754   7.210 -2.7321 -1.3376  0.2891
 6273TIP3    H240379   3.257   0.706   7.350 -2.0660 -1.3044  0.1468
 6274TIP3   OH240380   6.614   3.776   2.190  0.5248  0.3079 -0.7401
 6274TIP3    H140381   6.707   3.760   2.173  0.5188  1.0466 -1.5643
 6274TIP3    H240382   6.610   3.867   2.219  0.0410  0.3407 -0.9038
 6275TIP3   OH240383   1.724   6.087   0.011  0.7127  0.2346  0.5885
 6275TIP3    H140384   1.743   6.141  -0.066  0.5749 -0.4703  0.0595
 6275TIP3    H240385   1.740   5.997  -0.017 -1.8550 -0.2732  0.5803
 6276TIP3   OH240386   3.164   5.625   7.133 -0.3773 -0.2025  0.1277
 6276TIP3    H140387   3.220   5.690   7.176 -0.5497  1.3931 -1.9160
 6276TIP3    H240388   3.225   5.555   7.108 -0.1591 -0.8299  2.1715
 6277TIP3   OH240389   1.960   4.843   1.216  0.3826  0.0799 -0.8167
 6277TIP3    H140390   1.947   4.905   1.289  0.9937  0.0328 -0.6659
 6277TIP3    H240391   1.873   4.833   1.178  0.2332  0.8709 -0.7044
 6278TIP3   OH240392   0.850   0.939   6.856 -0.1078  0.3324  0.3304
 6278TIP3    H140393   0.828   0.938   6.763  0.4558  0.3216  0.1970
 6278TIP3    H240394   0.851   1.032   6.879 -2.1560  0.2934  0.7929
 6279TIP3   OH240395   1.784   6.738   8.184  0.7582 -0.1705  0.3932
 6279TIP3    H140396   1.724   6.675   8.144 -1.3244  1.6669  0.4615
 6279TIP3    H240397   1.759   6.822   8.147  2.9381  0.7684  0.8976
 6280TIP3   OH240398   3.460   0.087   1.391  0.3781  0.0153 -0.0649
 6280TIP3    H140399   3.420   0.003   1.411  2.0757 -1.0681 -1.0506
 6280TIP3    H240400   3.515   0.107   1.467  3.4566 -2.0067 -1.5987
 6281TIP3   OH240401   1.557   3.608   7.818  0.2834  0.0611 -0.2723
 6281TIP3    H140402   1.567   3.530   7.873  1.7682  0.9287  0.7714
 6281TIP3    H240403   1.539   3.574   7.731 -2.2634 -1.3777  0.7063
 6282TIP3   OH240404   3.563   5.696   7.474  0.0700  0.3964 -0.3168
 6282TIP3    H140405   3.614   5.777   7.479  0.5454  0.1281 -0.8036
 6282TIP3    H240406   3.591   5.645   7.550  0.1060  0.4908 -0.2667
 6283TIP3   OH240407   0.750   2.429   8.094  0.7332 -0.1860 -0.5575
 6283TIP3    H140408   0.681   2.493   8.076  0.6845  0.1277  0.6872
 6283TIP3    H240409   0.714   2.346   8.061 -0.2438 -0.0233  0.0555
 6284TIP3   OH240410   5.612   1.088   7.567 -0.3763 -0.2043 -0.2448
 6284TIP3    H140411   5.571   1.124   7.489 -0.7636  0.4533  0.2572
 6284TIP3    H240412   5.539   1.061   7.622 -0.1488  0.7643  0.5597
 6285TIP3   OH240413   3.337   0.582   1.513 -0.0106 -0.6919  0.0229
 6285TIP3    H140414   3.288   0.513   1.468 -2.1307  1.0681 -0.5450
 6285TIP3    H240415   3.270   0.639   1.551  1.5764  1.5721 -0.3199
 6286TIP3   OH240416   1.321   3.813   7.783 -0.2973  0.0685  0.8630
 6286TIP3    H140417   1.393   3.766   7.741 -1.5905 -1.0354 -0.2460
 6286TIP3    H240418   1.335   3.905   7.761 -1.0378 -0.4712 -2.3466
 6287TIP3   OH240419   0.753   5.575   0.474  0.1320  0.1019 -0.0966
 6287TIP3    H140420   0.715   5.663   0.468  1.0386  0.4505 -1.0139
 6287TIP3    H240421   0.839   5.583   0.433  1.0301 -0.7824  1.5041
 6288TIP3   OH240422   3.847   6.256   2.116  0.1786  0.1171  0.3010
 6288TIP3    H140423   3.868   6.320   2.184  0.8183 -2.0632  2.2754
 6288TIP3    H240424   3.781   6.299   2.062 -1.4267  1.4655  3.1208
 6289TIP3   OH240425   6.611   1.969   7.027 -0.2323  0.0220 -0.4296
 6289TIP3    H140426   6.593   1.895   7.084  0.3824 -0.5324 -0.9403
 6289TIP3    H240427   6.584   2.046   7.078  1.5558 -0.3360  1.1555
 6290TIP3   OH240428   6.142   0.690   7.449 -0.1973 -0.3417 -0.0945
 6290TIP3    H140429   6.155   0.739   7.368  0.0591  0.7883  0.6175
 6290TIP3    H240430   6.219   0.633   7.455 -0.8189 -1.3472 -1.2599
 6291TIP3   OH240431   6.314   4.430   1.542 -0.5364 -0.6893 -0.4369
 6291TIP3    H140432   6.382   4.487   1.576  0.8088 -0.6190 -2.9947
 6291TIP3    H240433   6.329   4.345   1.585  0.8945 -0.5446 -0.6044
 6292TIP3   OH240434   6.044   0.160   7.866 -0.3145 -0.1742 -0.4769
 6292TIP3    H140435   6.100   0.097   7.820 -0.4479 -0.1732 -0.6417
 6292TIP3    H240436   6.105   0.222   7.905 -0.0404 -1.4873  1.3468
 6293TIP3   OH240437   5.544   6.055   1.665  0.3104  0.1326 -0.8454
 6293TIP3    H140438   5.518   5.966   1.641 -0.3734  0.6895 -2.2944
 6293TIP3    H240439   5.593   6.087   1.589  2.6359  0.2101  0.5943
 6294TIP3   OH240440   5.999   2.366   7.473  0.1722 -0.4584 -0.3852
 6294TIP3    H140441   5.904   2.362   7.477  0.1862 -0.7908 -0.3535
 6294TIP3    H240442   6.023   2.298   7.411  0.4507 -1.1120  0.4252
 6295TIP3   OH240443   0.483   2.494   0.125 -0.2280  0.0761  0.1360
 6295TIP3    H140444   0.547   2.504   0.196 -0.3021 -2.3456  0.6478
 6295TIP3    H240445   0.401   2.473   0.170 -0.7459  0.4527 -0.6159
 6296TIP3   OH240446   6.092   1.786   2.230 -0.1051 -0.5181 -0.1203
 6296TIP3    H140447   6.058   1.696   2.235 -1.4444 -0.0423 -0.2201
 6296TIP3    H240448   6.158   1.790   2.299  1.3085 -2.1074 -1.2970
 6297TIP3   OH240449   2.003   2.644   1.386  0.7173 -0.0289  0.4980
 6297TIP3    H140450   1.978   2.554   1.363  2.1297 -0.0894 -0.9986
 6297TIP3    H240451   2.054   2.674   1.311  0.6522  1.8863  1.1735
 6298TIP3   OH240452   6.629   2.425   1.399 -0.0576  0.5896 -0.1874
 6298TIP3    H140453   6.606   2.513   1.430  0.3388  0.5711  0.1634
 6298TIP3    H240454   6.558   2.369   1.429 -0.8028  0.9413 -1.2270
 6299TIP3   OH240455   4.323   4.615   1.626 -0.0125 -0.1299  0.4189
 6299TIP3    H140456   4.352   4.561   1.699 -1.4016 -0.4919  0.7252
 6299TIP3    H240457   4.306   4.553   1.555  2.6191  0.3201 -0.7247
 6300TIP3   OH240458   0.053   0.243   0.736 -0.3496 -0.5252 -0.3879
 6300TIP3    H140459   0.014   0.320   0.777  1.2130 -0.3245  0.8090
 6300TIP3    H240460   0.066   0.268   0.644 -0.6318  0.3275 -0.1989
 6301TIP3   OH240461   4.860   2.659   1.403 -0.0618 -0.5042  0.1404
 6301TIP3    H140462   4.900   2.580   1.441  0.6773 -0.8507 -1.2528
 6301TIP3    H240463   4.871   2.647   1.308 -2.9374 -0.2925 -0.2892
 6302TIP3   OH240464   4.043   4.263   1.286  0.0191 -0.4120 -0.5419
 6302TIP3    H140465   3.983   4.205   1.241 -0.3491  0.4185 -1.1542
 6302TIP3    H240466   4.032   4.348   1.243 -0.3458  0.4187  1.0887
 6303TIP3   OH240467   1.154   6.054   0.684 -0.4014 -0.1023  0.4365
 6303TIP3    H140468   1.195   5.995   0.621 -0.4349  0.2832  0.0516
 6303TIP3    H240469   1.063   6.024   0.689 -0.5918  0.3265 -0.2670
 6304TIP3   OH240470   4.326   5.969   7.465  0.0762  0.5762  0.1980
 6304TIP3    H140471   4.332   6.042   7.527 -0.5331  1.0432 -0.2786
 6304TIP3    H240472   4.415   5.935   7.460  0.3964  1.3790  0.3199
 6305TIP3   OH240473   4.954   0.190   7.303  0.4808  0.0788 -0.7996
 6305TIP3    H140474   5.026   0.252   7.313  0.5462 -0.4090  3.2903
 6305TIP3    H240475   4.879   0.244   7.281  1.1751  1.1850 -0.5244
 6306TIP3   OH240476   6.067   2.242   1.519  0.0168  0.1466 -0.2979
 6306TIP3    H140477   5.994   2.303   1.511 -1.1228 -1.0235  0.7816
 6306TIP3    H240478   6.063   2.188   1.439  0.3895  0.7853 -0.7551
 6307TIP3   OH240479   3.703   1.421   7.821 -0.1427 -0.3255  0.4104
 6307TIP3    H140480   3.692   1.462   7.907  0.6835  0.2322  0.2600
 6307TIP3    H240481   3.631   1.456   7.769 -1.0196 -1.1453  1.0383
 6308TIP3   OH240482   4.699   4.115   7.481  0.0307 -0.2006 -0.2712
 6308TIP3    H140483   4.689   4.023   7.457 -1.3769 -0.3170  0.6669
 6308TIP3    H240484   4.760   4.113   7.556  0.5240 -0.2937 -0.6685
 6309TIP3   OH240485   0.802   6.010   8.154 -0.5274  0.0663 -1.0394
 6309TIP3    H140486   0.792   6.098   8.188 -0.8076 -0.2271 -0.3434
 6309TIP3    H240487   0.891   5.983   8.180 -0.6832 -0.0985 -0.6721
 6310TIP3   OH240488   1.891   2.940   1.763 -0.2311  0.3989 -0.4705
 6310TIP3    H140489   1.846   2.893   1.693  1.3986 -1.4539 -0.3430
 6310TIP3    H240490   1.830   3.010   1.788 -1.7021 -0.1399 -2.3295
 6311TIP3   OH240491   4.247   2.906   0.880 -0.3447  0.2590 -0.0537
 6311TIP3    H140492   4.235   2.950   0.965 -1.7889 -2.2302  1.1603
 6311TIP3    H240493   4.162   2.918   0.836  0.4831  1.7645 -1.3473
 6312TIP3   OH240494   1.404   3.070   2.410  0.0929 -0.2366 -0.7083
 6312TIP3    H140495   1.345   3.131   2.454  2.7195  2.3220 -0.4116
 6312TIP3    H240496   1.425   3.112   2.327  3.4093  0.3857  0.2689
 6313TIP3   OH240497   4.841   4.091   7.704 -0.1914 -0.2112 -0.7761
 6313TIP3    H140498   4.807   4.060   7.788 -0.9955  1.2483 -0.5415
 6313TIP3    H240499   4.899   4.020   7.675 -0.3508 -1.0029  0.7154
 6314TIP3   OH240500   5.796   0.168   8.008  0.1693 -0.4955 -0.4926
 6314TIP3    H140501   5.881   0.157   7.965  0.1116 -0.4800 -0.6120
 6314TIP3    H240502   5.817   0.194   8.098  0.2903 -0.5350 -0.5097
 6315TIP3   OH240503   2.183   5.380   7.264 -0.5748 -0.3798 -0.3827
 6315TIP3    H140504   2.252   5.439   7.295 -0.7448 -1.2626  1.8643
 6315TIP3    H240505   2.103   5.410   7.307 -0.9705 -1.2306 -0.4952
 6316TIP3   OH240506   1.413   2.638   2.060  0.3379  0.1039  0.5265
 6316TIP3    H140507   1.319   2.627   2.075  0.5154 -0.5061  1.2674
 6316TIP3    H240508   1.448   2.666   2.145  0.7602  0.7812  0.1378
 6317TIP3   OH240509   4.848   4.225   0.761 -0.0259  0.2094 -0.4983
 6317TIP3    H140510   4.783   4.159   0.737  2.0660 -2.0004 -0.4600
 6317TIP3    H240511   4.816   4.263   0.842 -1.6330 -0.2614 -0.8850
 6318TIP3   OH240512   4.953   3.084   8.530 -0.5174 -0.5990  0.1543
 6318TIP3    H140513   5.027   3.077   8.590  1.1044 -1.1518 -1.8106
 6318TIP3    H240514   4.992   3.110   8.446 -2.9177  2.4713 -0.2048
 6319TIP3   OH240515   3.486   2.431   1.655  0.0130  0.7021  0.1906
 6319TIP3    H140516   3.565   2.485   1.649  1.2127 -1.0058 -0.2414
 6319TIP3    H240517   3.515   2.352   1.701 -0.9289 -0.8335 -1.7049
 6320TIP3   OH240518   1.456   6.790   1.535 -0.6339 -0.1294  0.6101
 6320TIP3    H140519   1.493   6.793   1.623 -0.2780  0.2135  0.4524
 6320TIP3    H240520   1.500   6.861   1.488 -2.8754  1.6068  0.9558
 6321TIP3   OH240521   2.604   1.091   7.277 -0.5998  0.0599  0.0977
 6321TIP3    H140522   2.587   1.178   7.240  1.1115  0.3363 -0.1334
 6321TIP3    H240523   2.632   1.038   7.202 -0.7267 -0.4335  0.3911
 6322TIP3   OH240524   1.010   4.586   7.095  0.2274 -0.5383 -0.0253
 6322TIP3    H140525   0.972   4.664   7.135 -0.6329 -0.5506 -0.7842
 6322TIP3    H240526   0.947   4.560   7.028  1.3973 -0.7827 -1.0691
 6323TIP3   OH240527   2.065   5.963   6.282 -0.2290  0.2506 -0.4159
 6323TIP3    H140528   2.154   6.000   6.277 -1.1513  2.7741  0.2596
 6323TIP3    H240529   2.068   5.902   6.355  0.9824  0.2281 -0.4631
 6324TIP3   OH240530   2.719   1.959   1.389  0.7253  0.1876 -0.0143
 6324TIP3    H140531   2.763   2.040   1.415 -1.4803  1.1606  0.9896
 6324TIP3    H240532   2.736   1.951   1.296  1.4792  1.5119 -0.0203
 6325TIP3   OH240533   4.347   6.216   1.263 -0.1639 -0.5964  0.2858
 6325TIP3    H140534   4.332   6.143   1.322  0.1991 -0.5055  0.4904
 6325TIP3    H240535   4.435   6.247   1.284  0.2876 -1.0613 -0.8350
 6326TIP3   OH240536   6.729   3.394   8.134 -0.2004  0.0742 -0.4213
 6326TIP3    H140537   6.814   3.433   8.116 -0.3593  0.1979 -0.9339
 6326TIP3    H240538   6.732   3.309   8.090 -0.3792  0.1260 -0.5337
 6327TIP3   OH240539   4.849   3.828   0.512  0.0208 -0.1714  0.0237
 6327TIP3    H140540   4.856   3.768   0.437  1.4881 -0.7555  0.5934
 6327TIP3    H240541   4.766   3.874   0.498 -0.0851 -0.7836 -1.5746
 6328TIP3   OH240542   2.407   2.430   2.589  0.2801  0.0635 -0.8787
 6328TIP3    H140543   2.492   2.467   2.564  0.5414 -1.8042 -3.0798
 6328TIP3    H240544   2.345   2.500   2.571  1.0902  0.5740 -1.8342
 6329TIP3   OH240545   1.150   3.617   7.882 -0.0244  0.3136  0.1246
 6329TIP3    H140546   1.166   3.596   7.975 -0.9196  1.2132  0.4959
 6329TIP3    H240547   1.209   3.690   7.864 -0.5165  0.7492  0.2573
 6330TIP3   OH240548   5.858   4.978   6.642 -0.2316  0.1562 -0.2365
 6330TIP3    H140549   5.943   4.960   6.601  0.3008  0.6769  0.5903
 6330TIP3    H240550   5.814   4.893   6.645 -0.9834  0.3518 -3.2969
 6331TIP3   OH240551   6.557   6.386   6.706 -0.4814  0.3922  0.0166
 6331TIP3    H140552   6.553   6.298   6.668 -1.8804 -1.4230  3.8690
 6331TIP3    H240553   6.650   6.405   6.714 -0.1324 -1.0803 -0.2074
 6332TIP3   OH240554   6.390   1.704   1.786  0.9356  0.0743  0.0752
 6332TIP3    H140555   6.432   1.663   1.862  0.6493 -1.5759 -0.6150
 6332TIP3    H240556   6.318   1.645   1.764  0.7806  0.7302 -1.2357
 6333TIP3   OH240557   0.614   3.220   0.070 -0.0007 -0.2475 -0.3030
 6333TIP3    H140558   0.685   3.283   0.072 -0.6786  0.5169  0.3780
 6333TIP3    H240559   0.604   3.198  -0.023  0.5490  0.2882 -0.4951
 6334TIP3   OH240560   5.175   5.803   8.030 -0.6051  0.0424 -0.2038
 6334TIP3    H140561   5.167   5.844   7.944 -0.0204  1.3745  0.3398
 6334TIP3    H240562   5.112   5.731   8.029 -0.9327  0.3270 -1.5765
 6335TIP3   OH240563   1.907   1.648   0.430  0.0096  0.5383  0.0976
 6335TIP3    H140564   1.834   1.586   0.427  1.6844 -1.5879  0.6947
 6335TIP3    H240565   1.899   1.697   0.348  0.8713 -3.2974 -2.5877
 6336TIP3   OH240566   5.617   4.122   7.485  0.3258 -0.3111  0.3061
 6336TIP3    H140567   5.572   4.050   7.440 -1.6795  1.1703 -0.2381
 6336TIP3    H240568   5.554   4.153   7.550  0.7912  1.4312 -0.0034
 6337TIP3   OH240569   0.868   5.981   0.728  0.1721  0.5775  0.5826
 6337TIP3    H140570   0.841   5.908   0.783 -0.0317  0.3175  0.1409
 6337TIP3    H240571   0.800   6.047   0.740 -0.1142  0.3385  0.2854
 6338TIP3   OH240572   3.215   1.612   8.021 -0.3664  0.5105 -0.6468
 6338TIP3    H140573   3.292   1.564   8.050 -1.2647 -0.0378  0.9997
 6338TIP3    H240574   3.223   1.698   8.062 -1.1172  0.0923  0.4370
 6339TIP3   OH240575   2.818   2.164   6.607 -0.1022  0.7304  0.6023
 6339TIP3    H140576   2.781   2.077   6.592  1.5363  0.1366 -0.2046
 6339TIP3    H240577   2.757   2.224   6.563 -0.5817 -0.1230  0.0812
 6340TIP3   OH240578   6.659   1.186   2.027  0.1337 -0.4015  0.3512
 6340TIP3    H140579   6.644   1.231   2.109  0.6284 -1.0335  0.8008
 6340TIP3    H240580   6.692   1.100   2.052 -1.4864 -1.3079 -0.4598
 6341TIP3   OH240581   4.977   2.644   0.029  0.1310 -0.2489 -0.1786
 6341TIP3    H140582   4.899   2.590   0.030  1.0619 -1.6297  0.1063
 6341TIP3    H240583   5.034   2.604  -0.036  0.2836  1.2426 -1.0052
 6342TIP3   OH240584   2.714   5.590   7.917 -0.1010  0.5869 -0.4426
 6342TIP3    H140585   2.634   5.640   7.902 -0.0589  0.7420 -0.1476
 6342TIP3    H240586   2.685   5.498   7.914 -0.0199  0.5865 -1.9124
 6343TIP3   OH240587   2.325   5.347   0.041  0.1978 -0.1364  0.4280
 6343TIP3    H140588   2.280   5.328  -0.042 -1.0851  1.5657  0.6758
 6343TIP3    H240589   2.395   5.408   0.017 -0.2961  0.5125  0.5809
 6344TIP3   OH240590   1.074   4.014   7.014 -0.4450 -0.1603  0.2559
 6344TIP3    H140591   0.986   4.010   7.051 -1.1268  3.4064 -0.6329
 6344TIP3    H240592   1.062   4.001   6.920  0.0490 -0.0891  0.1795
 6345TIP3   OH240593   3.780   2.758   6.726 -0.0803 -0.0158 -0.1018
 6345TIP3    H140594   3.845   2.774   6.794  0.7116  1.8550 -1.2115
 6345TIP3    H240595   3.709   2.711   6.771  2.9506 -4.5222  0.6665
 6346TIP3   OH240596   0.997   0.082   2.003 -0.7149  0.2631  0.2520
 6346TIP3    H140597   1.092   0.071   1.998 -0.8535 -0.9707 -0.0635
 6346TIP3    H240598   0.971   0.027   2.077 -1.0862  1.3316  0.9261
 6347TIP3   OH240599   6.135   5.991   8.154  0.1572  0.2704  0.3456
 6347TIP3    H140600   6.196   5.927   8.191 -1.8962 -1.2812  1.2397
 6347TIP3    H240601   6.148   6.069   8.206 -0.0575 -0.7174  1.9452
 6348TIP3   OH240602   1.011   2.151   1.342 -0.5887  0.4073 -0.0496
 6348TIP3    H140603   1.037   2.236   1.306 -0.9946  1.7018  2.4974
 6348TIP3    H240604   1.083   2.093   1.320  1.0888  2.1390  0.6077
 6349TIP3   OH240605   5.929   0.331   6.260  0.2104  0.5291  0.2128
 6349TIP3    H140606   6.023   0.339   6.244  0.2115 -0.2265 -0.2013
 6349TIP3    H240607   5.893   0.416   6.233  1.1634  2.2143  3.7219
 6350TIP3   OH240608   0.227   5.499   0.148 -0.0903  0.0228  0.6722
 6350TIP3    H140609   0.317   5.479   0.174  0.4820  0.7119 -0.6698
 6350TIP3    H240610   0.219   5.594   0.157 -0.7123 -0.0419  0.8541
 6351TIP3   OH240611   3.338   1.338   7.785  0.3045  0.0807 -0.1476
 6351TIP3    H140612   3.331   1.418   7.733 -1.4632 -0.2292 -0.4440
 6351TIP3    H240613   3.256   1.334   7.834  1.9406  0.4303  2.8458
 6352TIP3   OH240614   6.667   6.566   6.937 -0.3108  0.0610 -0.0542
 6352TIP3    H140615   6.677   6.654   6.900  2.5273  0.2556  0.9499
 6352TIP3    H240616   6.644   6.511   6.863  0.0919  1.2714 -1.1119
 6353TIP3   OH240617   5.037   1.880   0.683 -0.6016  0.4361 -0.1582
 6353TIP3    H140618   5.075   1.795   0.708 -3.3085 -0.7933  0.1297
 6353TIP3    H240619   5.027   1.874   0.588  1.4214  1.4820 -0.4881
 6354TIP3   OH240620   5.209   3.833   6.243  0.0743  0.5303  0.7172
 6354TIP3    H140621   5.193   3.796   6.156 -0.9804  0.0795  1.0797
 6354TIP3    H240622   5.210   3.757   6.301 -1.2154  0.9675  1.3549
 6355TIP3   OH240623   1.354   3.279   7.672 -0.3706 -0.2682  0.2109
 6355TIP3    H140624   1.401   3.296   7.754  1.5386 -0.3148 -0.8275
 6355TIP3    H240625   1.415   3.225   7.620 -1.6000 -0.3762 -1.1824
 6356TIP3   OH240626   6.841   1.342   0.868 -0.4521 -0.1292  0.3273
 6356TIP3    H140627   6.877   1.277   0.929  0.7076  0.2361  0.0515
 6356TIP3    H240628   6.897   1.418   0.879 -0.6207  0.1598 -0.7541
 6357TIP3   OH240629   0.014   0.357   0.488  0.1500  0.1124  0.5987
 6357TIP3    H140630   0.035   0.368   0.396  1.2822 -0.7141  0.7231
 6357TIP3    H240631  -0.072   0.397   0.499  0.5073  1.2708 -0.5637
 6358TIP3   OH240632   3.386   1.702   0.489 -0.1680 -0.1477 -0.6045
 6358TIP3    H140633   3.401   1.716   0.395 -2.2577  1.4070 -0.7708
 6358TIP3    H240634   3.292   1.688   0.496 -0.0673 -0.0845  1.3065
 6359TIP3   OH240635   0.569   6.065   7.242  0.5885  0.6990 -0.0298
 6359TIP3    H140636   0.524   6.102   7.317  0.5106  0.4457  0.0502
 6359TIP3    H240637   0.506   6.071   7.170  0.3060  0.0645  0.1540
 6360TIP3   OH240638   1.962   3.432   1.893  0.0032  0.6763 -0.0875
 6360TIP3    H140639   1.907   3.494   1.845 -1.4166  0.2318  0.8737
 6360TIP3    H240640   1.906   3.402   1.965  0.7543 -1.4213 -0.3080
 6361TIP3   OH240641   5.088   2.378   0.374  0.2366  0.3759 -0.1603
 6361TIP3    H140642   5.022   2.333   0.321  1.9166 -0.8458 -1.3069
 6361TIP3    H240643   5.059   2.366   0.465  0.8203 -3.5586 -0.3343
 6362TIP3   OH240644   2.897   2.521   7.971 -0.0792  0.1781 -1.2746
 6362TIP3    H140645   2.821   2.579   7.974 -1.6591 -1.7497 -2.0695
 6362TIP3    H240646   2.968   2.573   8.008 -1.8377  1.9463 -0.1941
 6363TIP3   OH240647   5.122   4.455   7.815  0.2865  0.0748  0.1954
 6363TIP3    H140648   5.028   4.435   7.819  0.5006 -2.0786 -2.4171
 6363TIP3    H240649   5.159   4.409   7.889 -0.3929 -1.8615 -0.6068
 6364TIP3   OH240650   3.901   6.626   0.931  0.4010  0.1955  0.0867
 6364TIP3    H140651   3.844   6.552   0.951  0.3634  0.2216  0.0736
 6364TIP3    H240652   3.863   6.700   0.978 -0.1170  0.4250 -0.6895
 6365TIP3   OH240653   0.971   3.254   7.267 -0.2980 -0.0636 -0.5559
 6365TIP3    H140654   0.883   3.260   7.230 -0.0115 -0.5671 -1.3355
 6365TIP3    H240655   0.977   3.330   7.326 -1.4716 -0.3754  0.0077
 6366TIP3   OH240656   1.019   2.841   0.506  0.3379  0.3369 -0.3283
 6366TIP3    H140657   1.006   2.892   0.426 -0.2750  0.6979  0.0008
 6366TIP3    H240658   1.005   2.750   0.478 -0.0130  0.4718 -0.5991
 6367TIP3   OH240659   3.998   0.869   0.298 -0.6822  0.2701  0.3009
 6367TIP3    H140660   4.017   0.790   0.247  0.6694  0.5134  0.3972
 6367TIP3    H240661   4.018   0.844   0.388 -1.3884  0.3744  0.4889
 6368TIP3   OH240662   5.434   5.071   7.968 -0.0944  0.0515 -0.0318
 6368TIP3    H140663   5.492   5.060   7.893  2.2840 -0.0298  1.7167
 6368TIP3    H240664   5.412   5.164   7.968 -0.3445  0.0001 -0.9649
 6369TIP3   OH240665   3.917   3.553   0.012  0.0604  0.3232  0.5486
 6369TIP3    H140666   3.931   3.587  -0.077  0.7953  1.4127  1.0501
 6369TIP3    H240667   3.915   3.631   0.067  3.0384 -0.4130  1.9173
 6370TIP3   OH240668   6.288   1.763   2.461 -0.5005  0.5945 -0.1205
 6370TIP3    H140669   6.273   1.707   2.538 -0.4664 -1.1680 -1.3445
 6370TIP3    H240670   6.382   1.779   2.461 -0.2111 -0.9924 -0.8192
 6371TIP3   OH240671   1.765   0.883   8.546 -0.1566  1.2341 -0.4643
 6371TIP3    H140672   1.763   0.961   8.489 -1.1464  2.4631  1.1470
 6371TIP3    H240673   1.674   0.874   8.575  0.5982  1.7004  2.2471
 6372TIP3   OH240674   6.307   3.093   0.521  0.1333 -0.1470 -0.3965
 6372TIP3    H140675   6.372   3.162   0.518 -0.3466  0.3391  0.1465
 6372TIP3    H240676   6.349   3.023   0.573 -0.4068  0.8680  1.4958
 6373TIP3   OH240677   0.978   6.192   7.283  0.3589 -0.0396  0.1881
 6373TIP3    H140678   0.987   6.142   7.363 -0.0627  0.4955  0.5784
 6373TIP3    H240679   1.020   6.276   7.302  0.1206  0.1488 -0.0910
 6374TIP3   OH240680   3.064   0.583   0.015  0.2037 -0.1523 -0.5746
 6374TIP3    H140681   3.121   0.573  -0.062 -2.0487  0.7230 -2.4558
 6374TIP3    H240682   3.045   0.676   0.019  1.4715  0.0999  2.0754
 6375TIP3   OH240683   0.767   0.709   7.502 -0.1976  0.4937 -0.7254
 6375TIP3    H140684   0.825   0.680   7.432  0.5240  1.5786 -0.5964
 6375TIP3    H240685   0.812   0.686   7.583 -0.6743 -0.0685 -0.6183
 6376TIP3   OH240686   6.253   6.074   0.305 -0.1617 -0.1740 -0.1011
 6376TIP3    H140687   6.268   6.004   0.367 -0.3747 -0.9630 -0.9215
 6376TIP3    H240688   6.232   6.150   0.359 -1.8667 -1.2023  0.7710
 6377TIP3   OH240689   6.721   3.230   1.631 -0.0086 -0.5261  0.0423
 6377TIP3    H140690   6.639   3.260   1.670  0.9370  0.8298  1.0716
 6377TIP3    H240691   6.776   3.207   1.706  1.2519  0.5251 -0.5111
 6378TIP3   OH240692   6.822   1.045   8.633  0.0658 -0.3258  0.1970
 6378TIP3    H140693   6.886   0.974   8.628  0.2626 -0.0948 -0.8444
 6378TIP3    H240694   6.740   1.002   8.658  0.2049 -0.9055 -0.3383
 6379TIP3   OH240695   4.005   3.246   0.582 -0.6727  0.0106  0.1677
 6379TIP3    H140696   3.976   3.281   0.498 -1.2497 -1.1448 -0.1409
 6379TIP3    H240697   4.100   3.251   0.580 -0.7140  0.6153 -0.2725
 6380TIP3   OH240698   5.018   3.645   7.048  0.0606 -0.4879 -0.3450
 6380TIP3    H140699   4.945   3.583   7.050 -1.1958  0.9328  1.3674
 6380TIP3    H240700   5.018   3.680   6.959 -0.3194 -1.6324 -0.8134
 6381TIP3   OH240701   1.739   2.934   1.426  0.0854  0.3617  0.4382
 6381TIP3    H140702   1.813   2.929   1.365 -0.3474 -1.2617 -0.0221
 6381TIP3    H240703   1.756   2.865   1.491 -1.5451 -0.8912 -0.3596
 6382TIP3   OH240704   5.115   3.085   0.337 -0.8443  0.4489 -0.1151
 6382TIP3    H140705   5.121   3.044   0.424 -0.5631  3.5886  1.5023
 6382TIP3    H240706   5.202   3.075   0.300 -1.2840 -2.0017 -0.6714
 6383TIP3   OH240707   5.492   0.153   0.264 -0.2907 -0.0379 -0.0888
 6383TIP3    H140708   5.544   0.145   0.345 -1.4660 -0.7889  0.6212
 6383TIP3    H240709   5.441   0.233   0.276 -0.9431 -0.4859  0.2256
 6384TIP3   OH240710   6.339   6.088   0.642  0.4527 -0.1329 -0.1772
 6384TIP3    H140711   6.266   6.147   0.657  1.2165  1.5188 -2.3747
 6384TIP3    H240712   6.300   6.010   0.602 -0.2026  0.4823 -0.7658
 6385TIP3   OH240713   2.098   0.721   1.332  0.2852 -0.1374 -0.3304
 6385TIP3    H140714   2.118   0.743   1.423  0.1920 -1.6035  0.0835
 6385TIP3    H240715   2.018   0.668   1.338  0.3954 -0.4195 -1.2469
 6386TIP3   OH240716   4.624   2.264   1.079 -0.3980  0.1153 -0.2663
 6386TIP3    H140717   4.628   2.209   1.157  2.1433  1.4660  0.6870
 6386TIP3    H240718   4.624   2.354   1.112 -0.7228  0.7188 -1.7977
 6387TIP3   OH240719   4.938   4.865   0.633  0.2518 -0.2187  0.3295
 6387TIP3    H140720   4.930   4.891   0.541  0.8088 -0.5999  0.1667
 6387TIP3    H240721   4.885   4.786   0.640  0.2039 -0.1860  0.3378
 6388TIP3   OH240722   6.396   4.380   8.269 -0.6423 -0.3801 -0.2559
 6388TIP3    H140723   6.469   4.412   8.321 -1.5957 -0.8048  1.4108
 6388TIP3    H240724   6.352   4.459   8.238 -0.2885 -0.1135 -0.0813
 6389TIP3   OH240725   3.804   5.100   7.933  0.7893  0.1279  0.2765
 6389TIP3    H140726   3.847   5.149   8.003  1.9925 -0.7910  0.2016
 6389TIP3    H240727   3.856   5.021   7.923  0.0727 -0.2083 -1.0159
 6390TIP3   OH240728   1.117   2.014   1.927 -0.7158  0.4713 -0.0310
 6390TIP3    H140729   1.163   2.009   2.011 -0.0850 -1.3263 -0.4568
 6390TIP3    H240730   1.172   2.071   1.873 -0.4027  0.5109  0.3230
 6391TIP3   OH240731   2.135   2.799   7.427  0.3993  0.1836 -0.3329
 6391TIP3    H140732   2.170   2.858   7.360 -1.0612  1.3134 -0.1674
 6391TIP3    H240733   2.086   2.733   7.377  0.5126  0.1793 -0.4381
 6392TIP3   OH240734   3.024   2.685   0.612 -0.2316  0.0424 -0.2977
 6392TIP3    H140735   2.985   2.647   0.690 -0.9807 -0.0236 -0.6946
 6392TIP3    H240736   3.033   2.778   0.632 -1.3917  0.2187 -0.4960
 6393TIP3   OH240737   1.157   5.062   7.547 -0.2619 -0.3619  0.4016
 6393TIP3    H140738   1.120   5.116   7.618 -1.3380  0.3215 -0.6400
 6393TIP3    H240739   1.183   5.126   7.481  0.2395 -1.0295 -0.0487
 6394TIP3   OH240740   2.678   1.813   8.051 -0.3718  0.4941  0.4719
 6394TIP3    H140741   2.767   1.835   8.024  0.0675 -1.9819 -0.3669
 6394TIP3    H240742   2.689   1.766   8.133 -0.9799  0.6921  0.6713
 6395TIP3   OH240743   2.090   4.469   2.253 -0.6658  0.3789 -0.3319
 6395TIP3    H140744   2.184   4.476   2.240 -0.6920  0.5084 -0.4516
 6395TIP3    H240745   2.080   4.400   2.319 -0.5165 -0.0159 -0.7208
 6396TIP3   OH240746   2.820   6.400   0.538 -0.2405 -0.1994  0.3512
 6396TIP3    H140747   2.883   6.390   0.466 -0.1030  1.1284  0.2590
 6396TIP3    H240748   2.823   6.316   0.584  2.4215  0.1292  0.9765
 6397TIP3   OH240749   1.996   2.084   0.552  0.1084 -0.1426  0.2600
 6397TIP3    H140750   1.904   2.059   0.560  0.4994 -2.2791 -1.0399
 6397TIP3    H240751   2.025   2.039   0.473  1.7824  2.1021 -0.4705
 6398TIP3   OH240752   5.894   0.853   7.659 -0.2666  0.2745  0.1077
 6398TIP3    H140753   5.823   0.908   7.626 -0.5566  0.1855  0.5825
 6398TIP3    H240754   5.891   0.774   7.604 -1.9692 -0.7202  1.5360
 6399TIP3   OH240755   6.805   6.026   7.681  0.1144 -0.4629 -0.2265
 6399TIP3    H140756   6.834   5.973   7.755  2.5044 -0.1277 -0.8175
 6399TIP3    H240757   6.866   6.003   7.610 -1.4119  0.0120 -1.7697
 6400TIP3   OH240758   2.345   3.548   1.976 -0.4976 -0.0834 -0.1497
 6400TIP3    H140759   2.438   3.546   1.996  0.0207  1.5522 -2.1095
 6400TIP3    H240760   2.339   3.526   1.883 -2.1517 -0.8198  0.0812
 6401TIP3   OH240761   0.496   6.662   0.153 -0.1135  0.0874  0.0580
 6401TIP3    H140762   0.538   6.748   0.147  0.2806 -0.0302  0.9916
 6401TIP3    H240763   0.454   6.662   0.239  0.2606 -0.8149  0.2524
 6402TIP3   OH240764   6.832   0.343   7.109 -0.1157 -0.2365  0.1245
 6402TIP3    H140765   6.884   0.288   7.168  2.3287  0.4482 -1.2938
 6402TIP3    H240766   6.863   0.321   7.021 -1.5120  0.9817 -0.7247
 6403TIP3   OH240767   5.143   3.578   1.016  0.2173 -0.2236  0.0320
 6403TIP3    H140768   5.135   3.519   0.942  1.1254  0.7570 -0.8839
 6403TIP3    H240769   5.055   3.582   1.053 -0.6522  0.5279 -1.9824
 6404TIP3   OH240770   0.731   0.313   1.449  0.1283 -0.3011 -0.1111
 6404TIP3    H140771   0.762   0.382   1.507  0.3492 -0.1381 -0.4179
 6404TIP3    H240772   0.777   0.329   1.366 -1.1228  0.2607 -0.7429
 6405TIP3   OH240773   0.459   3.271   2.254  0.2127  0.3430  0.0642
 6405TIP3    H140774   0.401   3.263   2.329 -0.6853 -0.8477 -0.7150
 6405TIP3    H240775   0.408   3.319   2.189  0.4187  0.0184 -0.3393
 6406TIP3   OH240776   1.980   0.746   8.171  0.2215 -0.0184 -0.0206
 6406TIP3    H140777   2.017   0.776   8.255  1.3498 -1.7596  0.1594
 6406TIP3    H240778   2.018   0.805   8.106 -0.0801  0.8874  0.5984
 6407TIP3   OH240779   6.006   3.104   2.230 -0.4100 -0.0059  0.6592
 6407TIP3    H140780   6.033   3.186   2.272 -0.8638 -0.2446  1.4357
 6407TIP3    H240781   5.954   3.059   2.296 -0.3705 -0.8177  0.1544
 6408TIP3   OH240782   3.310   4.832   1.358  0.3369  0.0375 -0.0886
 6408TIP3    H140783   3.328   4.890   1.432  0.9829 -0.3862  0.0963
 6408TIP3    H240784   3.368   4.757   1.372  0.9691  0.2590 -1.3824
 6409TIP3   OH240785   1.858   2.211   7.727 -0.3200  0.9080 -0.0051
 6409TIP3    H140786   1.887   2.121   7.713 -1.3892  0.5683 -0.1664
 6409TIP3    H240787   1.933   2.265   7.702  0.5099  0.0508  0.6026
 6410TIP3   OH240788   3.544   3.722   0.540 -0.5546 -0.1850 -0.8414
 6410TIP3    H140789   3.586   3.752   0.460  2.6792 -0.1047  0.7535
 6410TIP3    H240790   3.497   3.799   0.573  0.3462  0.5810 -1.3047
 6411TIP3   OH240791   2.771   4.309   0.765  0.3750  0.0984  0.5240
 6411TIP3    H140792   2.814   4.230   0.797  0.9334  0.1212 -0.1611
 6411TIP3    H240793   2.774   4.370   0.839 -1.1241 -0.9013  1.4827
 6412TIP3   OH240794   0.328   1.300   1.139 -0.4718 -0.0228  0.5497
 6412TIP3    H140795   0.393   1.238   1.170 -1.5925 -0.5520  1.9180
 6412TIP3    H240796   0.349   1.312   1.046  1.0020 -0.8577  0.7433
 6413TIP3   OH240797   0.281   2.111   6.478 -0.6312 -0.0124 -0.2545
 6413TIP3    H140798   0.290   2.022   6.443  0.2361 -0.1402  0.2500
 6413TIP3    H240799   0.191   2.116   6.509 -0.0996 -1.4615  1.6598
 6414TIP3   OH240800   0.378   1.585   6.702 -0.4027  0.3029 -0.1356
 6414TIP3    H140801   0.441   1.558   6.635 -0.3381  0.7705 -0.2741
 6414TIP3    H240802   0.397   1.529   6.777 -0.7757 -0.5321 -0.6538
 6415TIP3   OH240803   2.740   4.311   1.354 -0.2109 -0.4367 -0.8809
 6415TIP3    H140804   2.750   4.231   1.404  1.4393  0.5161  0.4149
 6415TIP3    H240805   2.805   4.371   1.391 -1.3469  1.4840 -1.8328
 6416TIP3   OH240806   3.681   2.105   0.525  0.0846 -0.2089 -0.2977
 6416TIP3    H140807   3.626   2.183   0.518 -0.3907 -0.5835 -0.7792
 6416TIP3    H240808   3.658   2.052   0.449 -0.1590 -1.1683  0.4172
 6417TIP3   OH240809   6.506   6.306   0.639  0.3963 -0.0226 -0.4142
 6417TIP3    H140810   6.450   6.247   0.690  2.4806 -0.0259  2.0517
 6417TIP3    H240811   6.538   6.252   0.567  2.4091 -2.1163  1.8783
 6418TIP3   OH240812   3.944   5.662   0.312  0.0295  0.2166 -0.2370
 6418TIP3    H140813   3.886   5.704   0.375 -1.2144  1.3958 -2.0511
 6418TIP3    H240814   3.921   5.569   0.316  1.7040 -0.1917  2.6964
 6419TIP3   OH240815   3.073   6.249   1.241  0.2227  0.2709  0.3526
 6419TIP3    H140816   3.129   6.289   1.308 -0.8808  0.3702  1.2417
 6419TIP3    H240817   2.987   6.242   1.282 -0.1344 -1.0494 -0.5438
 6420TIP3   OH240818   4.740   6.469   7.649  0.2679 -0.9075 -0.7173
 6420TIP3    H140819   4.779   6.488   7.563  2.2561 -0.7507  0.1568
 6420TIP3    H240820   4.744   6.374   7.657 -0.5435 -0.9782 -1.0530
 6421TIP3   OH240821   2.226   3.151   0.582 -0.6165 -0.2911 -0.2532
 6421TIP3    H140822   2.282   3.104   0.520 -1.1342 -0.7748 -0.3561
 6421TIP3    H240823   2.151   3.178   0.530 -0.4118  0.4998 -0.1511
 6422TIP3   OH240824   1.823   1.971   7.208 -0.1872  0.2893 -0.3908
 6422TIP3    H140825   1.841   2.042   7.270  0.7479  0.0679 -0.3894
 6422TIP3    H240826   1.737   1.939   7.233 -1.2641  2.3110 -1.2559
 6423TIP3   OH240827   6.011   1.668   8.641  0.3041 -0.1828 -0.0382
 6423TIP3    H140828   6.015   1.753   8.685 -1.9233  0.3808 -0.8040
 6423TIP3    H240829   6.031   1.688   8.550 -0.2281 -0.4622 -0.2193
 6424TIP3   OH240830   3.888   4.940   1.004  0.4807 -0.0721  0.2714
 6424TIP3    H140831   3.965   4.996   0.996  0.7747 -0.5704 -0.5378
 6424TIP3    H240832   3.911   4.860   0.956  0.2811 -1.1229  1.8398
 6425TIP3   OH240833   4.175   1.200   7.441 -0.1818 -0.0977  0.8054
 6425TIP3    H140834   4.269   1.189   7.425  0.2739  1.5685  2.0336
 6425TIP3    H240835   4.153   1.130   7.501  0.7464  0.6049  2.0172
 6426TIP3   OH240836   2.038   0.979   0.685  0.7333 -0.5544 -0.0230
 6426TIP3    H140837   2.021   0.987   0.591 -0.6882 -1.1549  0.1500
 6426TIP3    H240838   1.978   0.910   0.714 -0.6759  1.3117  1.7579
 6427TIP3   OH240839   2.957   6.528   8.684 -0.1547 -0.4219 -1.0126
 6427TIP3    H140840   3.034   6.476   8.707  0.1510  0.1397 -0.7441
 6427TIP3    H240841   2.979   6.566   8.599  0.1913  0.3566 -0.5851
 6428TIP3   OH240842   5.967   0.915   6.377  0.1361  0.6399 -0.2985
 6428TIP3    H140843   5.924   0.883   6.456 -0.7560  2.9486  0.2520
 6428TIP3    H240844   6.055   0.877   6.380 -1.1864 -2.7519 -0.5066
 6429TIP3   OH240845   5.898   1.467   1.352 -0.5934  0.1002 -0.2360
 6429TIP3    H140846   5.979   1.422   1.376  0.8245  1.7476 -1.6396
 6429TIP3    H240847   5.879   1.436   1.263 -1.8401 -0.6586  0.2643
 6430TIP3   OH240848   2.392   1.396   7.977  0.1721  0.3144  0.2279
 6430TIP3    H140849   2.379   1.427   8.066  0.4758  2.6659 -0.4668
 6430TIP3    H240850   2.456   1.456   7.939 -0.0312 -0.5312 -1.6122
 6431TIP3   OH240851   5.591   2.907   1.354  0.3316  0.5434 -0.0891
 6431TIP3    H140852   5.622   2.960   1.427 -0.7941  2.2912 -0.8020
 6431TIP3    H240853   5.628   2.820   1.369  0.9534  1.1227  1.9823
 6432TIP3   OH240854   3.683   4.707   0.440 -0.4157 -0.0847 -0.2574
 6432TIP3    H140855   3.679   4.634   0.377 -0.9303 -1.8477  1.7124
 6432TIP3    H240856   3.606   4.760   0.420 -1.4985 -1.5251 -0.1228
 6433TIP3   OH240857   2.753   3.896   1.832 -0.8721  0.1132 -0.3126
 6433TIP3    H140858   2.809   3.964   1.795 -0.0561 -0.3939 -0.0268
 6433TIP3    H240859   2.778   3.816   1.786 -1.1475 -0.1752  0.0301
 6434TIP3   OH240860   5.347   2.328   1.457  0.7276 -0.0311 -0.4713
 6434TIP3    H140861   5.266   2.279   1.441 -0.4057  0.9486  1.7988
 6434TIP3    H240862   5.349   2.394   1.388 -3.0093  2.9542  1.8872
 6435TIP3   OH240863   4.773   0.877   8.072 -0.2353 -0.3593  0.1483
 6435TIP3    H140864   4.843   0.928   8.032 -0.4201  1.8039  2.3576
 6435TIP3    H240865   4.818   0.810   8.124  0.2341  0.5678  0.9758
 6436TIP3   OH240866   0.799   4.258   8.510  0.0884  0.0706 -0.1478
 6436TIP3    H140867   0.886   4.224   8.532 -0.9845 -1.9364  1.2082
 6436TIP3    H240868   0.801   4.269   8.415  0.7459 -3.2812 -0.6226
 6437TIP3   OH240869   3.763   2.410   0.422  0.1274  0.0709 -0.5710
 6437TIP3    H140870   3.788   2.427   0.513 -0.3382 -2.1528  0.0317
 6437TIP3    H240871   3.725   2.493   0.392 -2.0784  0.1876  2.0998
 6438TIP3   OH240872   4.502   2.779   6.844  0.1693  0.5646 -0.0415
 6438TIP3    H140873   4.420   2.827   6.855  0.2174  0.4150  1.0869
 6438TIP3    H240874   4.480   2.707   6.785 -0.5553  0.4451  0.3618
 6439TIP3   OH240875   6.758   0.162   0.314  0.0762  0.1069  0.4305
 6439TIP3    H140876   6.788   0.101   0.382  2.0433  1.0172  0.4476
 6439TIP3    H240877   6.794   0.128   0.233  0.9415  1.0606  0.3967
 6440TIP3   OH240878   4.439   0.813   8.267 -0.2526 -0.0982  0.3317
 6440TIP3    H140879   4.400   0.805   8.354 -1.0388 -0.6257 -0.0498
 6440TIP3    H240880   4.369   0.786   8.207  0.3855 -0.0841 -0.4411
 6441TIP3   OH240881   0.430   6.119   0.969  0.2074 -0.1340 -0.4227
 6441TIP3    H140882   0.411   6.211   0.986 -0.0855 -0.2387 -0.1805
 6441TIP3    H240883   0.515   6.105   1.010 -0.7502 -0.5357  1.5381
 6442TIP3   OH240884   0.146   3.373   6.838  0.0640  0.5091  0.0563
 6442TIP3    H140885   0.224   3.343   6.886  1.0120  0.6084 -1.3598
 6442TIP3    H240886   0.140   3.313   6.764  0.2410  1.9809 -1.1874
 6443TIP3   OH240887   1.638   4.073   6.709  0.3455 -0.4289 -0.0803
 6443TIP3    H140888   1.557   4.024   6.695 -0.4719  0.8843 -0.1338
 6443TIP3    H240889   1.623   4.157   6.666  1.9752 -0.3614 -0.5946
 6444TIP3   OH240890   5.041   6.233   6.413 -0.6822  0.2525 -0.5408
 6444TIP3    H140891   4.962   6.188   6.443  0.4887 -0.7422  1.2838
 6444TIP3    H240892   5.113   6.183   6.452  0.8015  2.0442 -0.8331
 6445TIP3   OH240893   2.301   1.425   6.795 -0.4746 -0.1781  0.3808
 6445TIP3    H140894   2.223   1.480   6.805 -1.2543 -1.3469  0.9450
 6445TIP3    H240895   2.309   1.380   6.880  0.4577 -0.5194  0.1175
 6446TIP3   OH240896   0.805   1.311   7.221  0.0046 -0.4484 -0.0285
 6446TIP3    H140897   0.842   1.390   7.182  1.7473 -1.8016 -1.2477
 6446TIP3    H240898   0.746   1.277   7.153 -0.6748 -0.2770  0.4613
 6447TIP3   OH240899   1.093   2.478   8.179 -0.5513 -0.4145 -0.3709
 6447TIP3    H140900   1.183   2.472   8.212 -0.6452  0.3216  0.0364
 6447TIP3    H240901   1.091   2.560   8.130 -1.0408 -0.3430 -0.2385
 6448TIP3   OH240902   0.686   0.387   8.276 -0.2614 -0.5195 -0.2872
 6448TIP3    H140903   0.747   0.378   8.350 -0.6525 -1.7475 -0.0897
 6448TIP3    H240904   0.624   0.315   8.287 -1.0529  0.0038 -1.1476
 6449TIP3   OH240905   3.316   5.068   2.204 -0.4554  0.7814 -0.3685
 6449TIP3    H140906   3.321   4.973   2.208 -1.9459  0.7010  0.1747
 6449TIP3    H240907   3.283   5.095   2.290 -2.3898  1.5716 -1.2903
 6450TIP3   OH240908   4.606   6.472   8.502 -0.3825 -0.2325  0.2384
 6450TIP3    H140909   4.540   6.482   8.570  0.1311  1.3935  0.5589
 6450TIP3    H240910   4.561   6.428   8.431 -0.3488 -4.1973  2.3928
 6451TIP3   OH240911   1.555   3.197   8.181  0.1858  0.2121  0.3031
 6451TIP3    H140912   1.626   3.157   8.231  0.6213  0.6375  0.0284
 6451TIP3    H240913   1.583   3.287   8.167  0.5316 -0.1470 -1.5773
 6452TIP3   OH240914   4.806   0.233   6.877 -0.1536 -0.0554 -1.0447
 6452TIP3    H140915   4.815   0.323   6.908  0.5516 -0.4976  0.1150
 6452TIP3    H240916   4.746   0.239   6.802 -1.8693  1.0767  0.3403
 6453TIP3   OH240917   1.574   6.312   8.556  0.1859  0.3095  0.4068
 6453TIP3    H140918   1.635   6.349   8.493 -0.4402 -0.9400 -1.0054
 6453TIP3    H240919   1.487   6.337   8.523 -0.1394  0.4188  1.3052
 6454TIP3   OH240920   5.599   4.889   0.483 -0.1785  0.0918  0.2662
 6454TIP3    H140921   5.585   4.983   0.491 -0.0871  0.2828 -1.4492
 6454TIP3    H240922   5.642   4.863   0.564  1.5041  1.8647 -0.0068
 6455TIP3   OH240923   2.521   0.381   0.222  0.1379 -0.3557 -0.2138
 6455TIP3    H140924   2.547   0.457   0.274  0.2777  1.2391 -2.4624
 6455TIP3    H240925   2.430   0.399   0.196 -0.4753 -1.8945  0.7658
 6456TIP3   OH240926   6.809   3.918   1.168 -0.1407 -0.2547 -0.2574
 6456TIP3    H140927   6.904   3.929   1.165 -0.0964  0.1124  1.3957
 6456TIP3    H240928   6.775   4.007   1.163 -0.2851 -0.1950  1.3887
 6457TIP3   OH240929   0.052   1.072   1.834 -0.2697  0.3955  0.2592
 6457TIP3    H140930   0.067   1.119   1.752 -0.8608 -1.4984 -0.9833
 6457TIP3    H240931   0.139   1.042   1.861 -0.3082 -0.6445 -0.7354
 6458TIP3   OH240932   1.127   2.653   7.775  0.3800  0.0917 -0.1785
 6458TIP3    H140933   1.090   2.664   7.688  0.6092  0.9288 -0.1854
 6458TIP3    H240934   1.160   2.563   7.777  0.3515  0.0605 -0.9430
 6459TIP3   OH240935   6.801   1.469   8.239 -0.0024  0.0006  0.2654
 6459TIP3    H140936   6.722   1.476   8.185 -0.2276  0.6534  0.6556
 6459TIP3    H240937   6.771   1.493   8.327  0.3466 -1.1044  0.6920
 6460TIP3   OH240938   3.401   6.321   8.044 -0.0032 -0.1424 -0.5702
 6460TIP3    H140939   3.484   6.321   8.092 -0.7315 -1.6186  0.7907
 6460TIP3    H240940   3.363   6.406   8.064  1.3173  0.7197 -1.5368
 6461TIP3   OH240941   6.557   6.792   7.338 -0.5182 -0.4623  0.6064
 6461TIP3    H140942   6.630   6.845   7.369 -0.9977  0.3488  0.3618
 6461TIP3    H240943   6.491   6.799   7.406 -1.6587  1.4978 -0.6031
 6462TIP3   OH240944   1.460   1.375   8.547 -0.2209 -0.1873  0.2838
 6462TIP3    H140945   1.410   1.379   8.466 -0.1619 -0.6105  0.2212
 6462TIP3    H240946   1.436   1.290   8.585  1.9957 -1.3875 -0.7611
 6463TIP3   OH240947   5.452   0.389   7.964  0.1145 -0.0196  0.0707
 6463TIP3    H140948   5.377   0.393   7.906  0.4948  0.4289 -0.3972
 6463TIP3    H240949   5.448   0.301   8.002 -0.1531 -0.3089 -0.6092
 6464TIP3   OH240950   4.487   3.391   0.156  0.2449  0.2431 -0.0136
 6464TIP3    H140951   4.508   3.312   0.107 -0.4293 -1.6138  2.4806
 6464TIP3    H240952   4.414   3.431   0.108  1.8740  0.5436 -2.4163
 6465TIP3   OH240953   2.758   3.803   1.326  0.2887 -0.3106 -0.0415
 6465TIP3    H140954   2.817   3.850   1.268  0.8649  0.6390  1.2499
 6465TIP3    H240955   2.674   3.848   1.317  0.2843 -0.3921 -0.4027
 6466TIP3   OH240956   4.269   6.547   7.562  0.2886 -0.3822  0.3079
 6466TIP3    H140957   4.178   6.573   7.576 -0.4910 -2.6780 -0.0727
 6466TIP3    H240958   4.310   6.625   7.524 -1.1871  1.0955  1.5687
 6467TIP3   OH240959   5.999   3.299   1.324  0.7802 -0.1987 -0.3988
 6467TIP3    H140960   6.069   3.355   1.291 -0.0246  0.0089 -1.8302
 6467TIP3    H240961   6.014   3.295   1.419  2.4825  0.1399 -0.6254
 6468TIP3   OH240962   1.994   2.280   1.823 -0.1104 -0.0253 -0.0595
 6468TIP3    H140963   1.966   2.327   1.902 -1.1141 -0.2024 -0.3060
 6468TIP3    H240964   2.086   2.305   1.813 -0.2480  0.8030  0.5889
 6469TIP3   OH240965   4.345   4.844   6.874  0.4156  0.2142  0.7998
 6469TIP3    H140966   4.260   4.856   6.832  0.5894 -1.6485 -0.1749
 6469TIP3    H240967   4.332   4.769   6.932  1.8931 -1.5228 -0.9808
 6470TIP3   OH240968   1.353   4.026   0.514  0.6615  0.0810  0.3851
 6470TIP3    H140969   1.336   3.966   0.442  1.4887 -0.2362  0.4361
 6470TIP3    H240970   1.393   3.971   0.582  0.9916  0.5975  0.6171
 6471TIP3   OH240971   2.144   4.260   8.133 -0.0079  0.2026  0.1066
 6471TIP3    H140972   2.205   4.326   8.099  0.9310 -1.4520 -1.5986
 6471TIP3    H240973   2.096   4.230   8.055  0.4528 -1.9652  0.6017
 6472TIP3   OH240974   1.318   5.478   7.020 -0.4599  0.6785 -0.3719
 6472TIP3    H140975   1.315   5.422   6.942 -0.3226  0.2763 -0.0955
 6472TIP3    H240976   1.375   5.550   6.995 -2.2277  1.7778 -1.4107
 6473TIP3   OH240977   3.657   5.492   7.331  0.4104 -0.2724 -0.0141
 6473TIP3    H140978   3.719   5.517   7.400  0.6637  0.2028 -0.4083
 6473TIP3    H240979   3.604   5.571   7.318  0.9829 -0.0481 -1.0263
 6474TIP3   OH240980   4.139   1.861   8.431 -0.2277 -0.0834 -0.1304
 6474TIP3    H140981   4.067   1.920   8.409  0.1931  0.4979  0.0395
 6474TIP3    H240982   4.204   1.875   8.362  1.7221  2.7721  2.0155
 6475TIP3   OH240983   3.047   1.390   6.718 -0.0950 -0.5984  0.0273
 6475TIP3    H140984   3.130   1.433   6.740  0.1309 -0.2748 -1.4003
 6475TIP3    H240985   3.009   1.444   6.648 -1.7833 -0.4283  1.0044
 6476TIP3   OH240986   0.643   2.522   1.898 -0.1058  0.0845  0.0251
 6476TIP3    H140987   0.563   2.530   1.847 -0.9259 -0.4274  1.1970
 6476TIP3    H240988   0.694   2.454   1.853 -1.3944 -1.3080  0.6157
 6477TIP3   OH240989   0.893   5.692   7.127 -1.1269  0.0346 -0.0896
 6477TIP3    H140990   0.914   5.784   7.139 -1.4993  0.2346 -0.9159
 6477TIP3    H240991   0.799   5.687   7.141 -1.0650 -0.2743  0.2358
 6478TIP3   OH240992   1.260   6.750   1.928 -0.2864  0.4430 -0.2045
 6478TIP3    H140993   1.268   6.655   1.916  0.0580  0.6425 -1.7713
 6478TIP3    H240994   1.283   6.764   2.020  0.4578 -0.9137 -0.1495
 6479TIP3   OH240995   5.214   2.515   7.019 -0.0575  0.3793 -0.6297
 6479TIP3    H140996   5.159   2.476   6.951 -0.2173 -1.0475  0.2739
 6479TIP3    H240997   5.265   2.442   7.053 -2.2612  0.2497  2.9671
 6480TIP3   OH240998   3.508   5.112   0.236 -0.6865  0.1641 -0.6877
 6480TIP3    H140999   3.593   5.068   0.232 -0.8994 -0.1512 -3.0287
 6480TIP3    H241000   3.530   5.204   0.252  0.1270  0.1380 -1.5722
 6481TIP3   OH241001   1.486   4.705   6.764 -0.3031  0.4251  0.3590
 6481TIP3    H141002   1.507   4.647   6.691  0.1484 -0.0918  0.8951
 6481TIP3    H241003   1.558   4.767   6.768 -0.2387  0.3426  0.4782
 6482TIP3   OH241004   5.087   3.125   8.248 -0.3298  0.2043 -0.1754
 6482TIP3    H141005   5.061   3.124   8.156 -0.1332  1.5642 -0.2643
 6482TIP3    H241006   5.107   3.217   8.266  0.4513 -0.1742  0.9957
 6483TIP3   OH241007   0.781   5.551   8.128 -0.1410 -0.2572  1.2051
 6483TIP3    H141008   0.811   5.487   8.193  1.6335 -0.8565 -0.1362
 6483TIP3    H241009   0.850   5.552   8.061 -1.1133  1.5544  0.1443
 6484TIP3   OH241010   4.734   1.406   7.109 -0.3705  0.3299  0.0760
 6484TIP3    H141011   4.770   1.332   7.059  0.9793  0.7608  0.3798
 6484TIP3    H241012   4.646   1.378   7.132 -1.2267  0.2940 -2.9093
 6485TIP3   OH241013   2.173   3.228   1.880  0.5501  0.1464 -0.3936
 6485TIP3    H141014   2.260   3.241   1.917  0.3903 -0.7003  0.3097
 6485TIP3    H241015   2.134   3.315   1.879  1.0906  0.3953  0.0798
 6486TIP3   OH241016   0.432   6.738   1.159 -0.0472  0.3830 -0.5075
 6486TIP3    H141017   0.389   6.700   1.236  0.6835 -0.1214 -0.3299
 6486TIP3    H241018   0.526   6.730   1.178  0.2048 -1.3327 -2.1614
 6487TIP3   OH241019   0.396   3.021   0.387 -0.7472 -0.1113  0.0387
 6487TIP3    H141020   0.303   3.008   0.408 -0.5719 -1.9003 -0.1018
 6487TIP3    H241021   0.416   2.952   0.323  0.2802  1.3067 -1.2307
 6488TIP3   OH241022   5.313   2.063   7.819  0.1609  0.4963 -0.2173
 6488TIP3    H141023   5.322   2.101   7.732  0.8985 -1.7006 -1.1816
 6488TIP3    H241024   5.339   2.133   7.879  0.3071  1.8422 -1.7919
 6489TIP3   OH241025   2.137   1.495   0.809  0.0058  0.1094 -0.0684
 6489TIP3    H141026   2.197   1.499   0.734  1.3200  1.4986  1.0161
 6489TIP3    H241027   2.124   1.401   0.824  0.2709 -0.1991 -1.5902
 6490TIP3   OH241028   0.609   4.762   6.922  0.0800  0.3007 -0.3127
 6490TIP3    H141029   0.598   4.709   7.001 -0.4005  0.6127 -0.1714
 6490TIP3    H241030   0.559   4.716   6.855 -2.5026  1.8541  0.3881
 6491TIP3   OH241031   2.579   0.980   8.596 -0.0004  0.2404  0.2401
 6491TIP3    H141032   2.582   1.065   8.552  1.3159  0.1744  0.1772
 6491TIP3    H241033   2.652   0.930   8.559 -1.6129 -1.4774 -0.8114
 6492TIP3   OH241034   5.057   5.685   7.426  0.5094  0.5194  0.2062
 6492TIP3    H141035   5.048   5.635   7.508  0.8483 -1.3936 -0.8591
 6492TIP3    H241036   5.070   5.618   7.359  0.3999  2.0522 -1.4079
 6493TIP3   OH241037   2.927   5.543   7.007 -0.6099 -0.3189  0.2418
 6493TIP3    H141038   3.010   5.590   7.011 -1.0931  0.6065 -0.2582
 6493TIP3    H241039   2.870   5.588   7.070 -1.1327 -0.1138 -0.3671
 6494TIP3   OH241040   1.253   0.642   8.543  0.5474 -0.7368  0.1905
 6494TIP3    H141041   1.282   0.722   8.585  0.8027 -0.2852 -0.8052
 6494TIP3    H241042   1.330   0.610   8.496  0.3454 -1.3608  0.2644
 6495TIP3   OH241043   4.347   0.536   1.612 -0.0407  0.1057  0.3513
 6495TIP3    H141044   4.366   0.537   1.518  0.4916  0.4987  0.4613
 6495TIP3    H241045   4.251   0.539   1.617 -0.0534  2.7033 -0.1785
 6496TIP3   OH241046   3.366   6.633   0.124 -0.4919  0.0788  0.5507
 6496TIP3    H141047   3.370   6.590   0.210 -1.8302 -0.0430  0.5724
 6496TIP3    H241048   3.342   6.724   0.145 -2.6232 -0.3637  0.2404
 6497TIP3   OH241049   3.684   1.273   0.307  0.1410 -0.0506 -0.2310
 6497TIP3    H141050   3.767   1.286   0.353 -0.1706 -0.2830  0.4026
 6497TIP3    H241051   3.623   1.333   0.351 -0.1368 -0.2030 -0.4071
 6498TIP3   OH241052   5.222   0.721   0.350 -0.0110 -0.3796  0.6275
 6498TIP3    H141053   5.238   0.733   0.444 -1.4899 -0.9840  0.9896
 6498TIP3    H241054   5.162   0.791   0.326  2.1314  1.2132 -0.4596
 6499TIP3   OH241055   2.304   0.618   1.912  0.6742 -0.3224 -0.4366
 6499TIP3    H141056   2.348   0.676   1.974 -1.2920  0.9882 -0.1935
 6499TIP3    H241057   2.312   0.662   1.827  0.0464 -0.1763 -0.4263
 6500TIP3   OH241058   2.286   2.088   0.369  0.1517  0.5157  0.1654
 6500TIP3    H141059   2.335   2.054   0.294  1.5855  1.4613  0.6153
 6500TIP3    H241060   2.207   2.035   0.373  1.2181 -1.2026 -0.5249
 6501TIP3   OH241061   1.203   3.014   1.503  0.2447 -0.1333 -0.2759
 6501TIP3    H141062   1.121   3.007   1.454  0.0551 -1.3805  0.1968
 6501TIP3    H241063   1.239   3.099   1.477 -0.1932 -0.4566 -2.0374
 6502TIP3   OH241064   4.111   6.543   8.656 -0.2455 -0.3719  0.4204
 6502TIP3    H141065   4.198   6.577   8.676  0.0120 -1.3120  0.9801
 6502TIP3    H241066   4.127   6.471   8.595 -0.6482 -0.4570  0.4143
 6503TIP3   OH241067   0.961   1.350   0.115 -0.4577 -0.2874  0.0745
 6503TIP3    H141068   0.907   1.417   0.157  2.0487  0.8381  1.7375
 6503TIP3    H241069   0.920   1.337   0.030 -2.4594  1.5477  0.6485
 6504TIP3   OH241070   3.393   4.558   1.102  0.0774  0.1359  0.4104
 6504TIP3    H141071   3.401   4.502   1.179  1.8843 -0.3121 -0.0678
 6504TIP3    H241072   3.463   4.530   1.044 -0.3350  1.4508 -0.7786
 6505TIP3   OH241073   2.805   6.277   8.525  0.5619  0.1887  0.1398
 6505TIP3    H141074   2.752   6.325   8.589  0.1670  0.1626 -0.1609
 6505TIP3    H241075   2.855   6.214   8.577 -1.7151 -1.6960  0.2422
 6506TIP3   OH241076   1.982   5.960   8.025 -0.1695 -0.0586 -0.1534
 6506TIP3    H141077   2.017   5.895   8.085  0.0017 -0.2559 -0.4659
 6506TIP3    H241078   1.887   5.946   8.027 -0.0909 -0.7093 -0.6665
 6507TIP3   OH241079   2.920   0.656   7.129 -0.3627  0.3247 -0.5326
 6507TIP3    H141080   2.830   0.624   7.134 -0.4811  0.7338 -0.0213
 6507TIP3    H241081   2.920   0.713   7.052 -0.5628  0.3878 -0.4875
 6508TIP3   OH241082   2.621   6.315   0.059  0.0152 -1.0524 -0.3515
 6508TIP3    H141083   2.528   6.335   0.046  0.0351 -0.3031  0.5679
 6508TIP3    H241084   2.625   6.279   0.147  0.8243  0.6764  0.3693
 6509TIP3   OH241085   6.798   6.720   0.157  0.1501  0.3739  0.7303
 6509TIP3    H141086   6.884   6.763   0.153 -0.1015  0.7845 -1.4320
 6509TIP3    H241087   6.749   6.758   0.085 -2.5517  1.4791  2.9855
 6510TIP3   OH241088   1.168   6.697   6.519  0.5075  0.3772 -0.2771
 6510TIP3    H141089   1.097   6.724   6.460  2.2619  2.0343 -1.7309
 6510TIP3    H241090   1.223   6.640   6.466 -0.5234 -2.3625  1.3483
 6511TIP3   OH241091   4.555   4.582   0.759 -0.6812  0.6499  0.0462
 6511TIP3    H141092   4.541   4.488   0.770 -2.4012  0.7274 -1.1412
 6511TIP3    H241093   4.532   4.619   0.844 -0.3865  0.0410  0.4012
 6512TIP3   OH241094   3.248   6.024   0.252  0.6318  0.4103 -0.0496
 6512TIP3    H141095   3.335   6.057   0.275  0.1659  1.1314  0.6980
 6512TIP3    H241096   3.224   5.968   0.326  0.2482  0.6141 -0.0217
 6513TIP3   OH241097   0.609   5.754   6.373  0.9831  0.7950 -0.1389
 6513TIP3    H141098   0.617   5.725   6.282  0.6288  2.1919 -0.6308
 6513TIP3    H241099   0.554   5.687   6.414  0.1350  0.7811 -1.2575
 6514TIP3   OH241100   6.475   6.460   8.243 -0.2850  0.3683 -0.5589
 6514TIP3    H141101   6.521   6.473   8.160 -0.0672 -0.8482 -0.6508
 6514TIP3    H241102   6.469   6.364   8.252  0.7915  0.4378  1.4275
 6515TIP3   OH241103   2.325   4.440   7.964  0.0989 -0.0162  0.4851
 6515TIP3    H141104   2.399   4.435   8.024  0.5673  1.1754  0.0287
 6515TIP3    H241105   2.301   4.532   7.962 -0.9864 -0.2893  0.1223
 6516TIP3   OH241106   3.509   3.667   7.543  0.5511 -0.4236  0.1093
 6516TIP3    H141107   3.548   3.701   7.624 -0.8523 -0.1315  0.6936
 6516TIP3    H241108   3.419   3.699   7.545  1.0223  1.2848 -2.5860
 6517TIP3   OH241109   0.786   0.353   1.945 -0.1171  0.4697 -0.0219
 6517TIP3    H141110   0.744   0.291   2.005  0.8141 -0.1086  0.0572
 6517TIP3    H241111   0.752   0.438   1.971  0.5215  0.2780  1.5756
 6518TIP3   OH241112   5.313   4.786   8.409 -0.4336  0.0900  0.0690
 6518TIP3    H141113   5.360   4.828   8.482 -0.2000 -1.2732  0.7363
 6518TIP3    H241114   5.323   4.692   8.426 -0.4405 -0.2516 -1.6954
 6519TIP3   OH241115   3.993   1.838   8.665  0.5932  0.5229  0.5553
 6519TIP3    H141116   4.037   1.923   8.655 -1.0667  1.3339 -0.2684
 6519TIP3    H241117   4.038   1.781   8.603  2.3107  0.5151  1.7416
 6520TIP3   OH241118   0.080   5.908   0.710 -0.5342  0.0378  0.3000
 6520TIP3    H141119   0.046   5.868   0.631  1.8977  1.0516 -1.3688
 6520TIP3    H241120   0.068   6.002   0.697  0.8931  0.2858  0.5969
 6521TIP3   OH241121   1.389   0.851   8.372 -0.2208  0.4001  0.3402
 6521TIP3    H141122   1.420   0.903   8.447 -0.8025  0.6296  0.4222
 6521TIP3    H241123   1.299   0.880   8.359 -0.7295 -0.9603  0.7131
 6522TIP3   OH241124   4.809   1.069   6.935  0.0365  0.5662 -0.1955
 6522TIP3    H141125   4.800   0.984   6.979 -3.0600  0.7825 -0.2296
 6522TIP3    H241126   4.720   1.102   6.928  0.7773  2.3035 -3.2572
 6523TIP3   OH241127   5.362   3.359   7.437  0.4207  0.4281 -0.4641
 6523TIP3    H141128   5.333   3.429   7.495  1.0371  0.6868 -0.4606
 6523TIP3    H241129   5.288   3.299   7.433  0.0498  0.8553 -0.1138
 6524TIP3   OH241130   1.106   0.600   7.038  0.1313 -0.4981  0.1592
 6524TIP3    H141131   1.086   0.677   6.986  1.5251  0.1602  0.5531
 6524TIP3    H241132   1.043   0.534   7.009 -0.6593  0.5825 -0.6397
 6525TIP3   OH241133   5.944   0.879   7.229 -0.0385  0.1940 -0.1118
 6525TIP3    H141134   5.858   0.916   7.209 -0.1300  1.0699  1.7018
 6525TIP3    H241135   5.925   0.790   7.258 -0.2110  0.0264 -0.7167
 6526TIP3   OH241136   4.706   3.614   8.576 -0.8771 -0.2837 -0.1360
 6526TIP3    H141137   4.789   3.639   8.534 -0.6179 -0.8171  0.0519
 6526TIP3    H241138   4.692   3.523   8.550 -2.1882  0.2414 -1.4007
 6527TIP3   OH241139   0.313   2.916   6.977 -0.0678  0.0616 -0.1091
 6527TIP3    H141140   0.344   2.864   6.904 -0.6077 -0.3822 -0.0247
 6527TIP3    H241141   0.340   2.867   7.055 -0.4695 -0.0351 -0.0289
 6528TIP3   OH241142   5.856   4.153   7.974  0.0481  0.1567 -0.3306
 6528TIP3    H141143   5.832   4.172   7.883 -2.9692 -1.0450  0.0991
 6528TIP3    H241144   5.845   4.236   8.020  0.9307  0.6127 -0.9297
 6529TIP3   OH241145   4.244   3.053   7.420  0.3283 -0.4411  0.9854
 6529TIP3    H141146   4.306   3.123   7.401 -0.9291  0.1173 -1.3503
 6529TIP3    H241147   4.284   2.975   7.382  0.9593 -0.7084  2.1466
 6530TIP3   OH241148   1.306   0.118   1.826 -0.2230  0.2698  0.1969
 6530TIP3    H141149   1.400   0.117   1.845 -0.1792  0.2933 -0.0173
 6530TIP3    H241150   1.279   0.027   1.838  0.2022 -0.1278 -1.5616
 6531TIP3   OH241151   1.768   2.834   8.580 -0.1353 -0.0162  0.2396
 6531TIP3    H141152   1.842   2.887   8.549 -0.9859  1.6651  0.9350
 6531TIP3    H241153   1.733   2.793   8.501  0.2171  0.9339 -0.4282
 6532TIP3   OH241154   6.657   2.923   0.465  0.3070  0.1135 -0.5146
 6532TIP3    H141155   6.578   2.901   0.513  1.0750 -1.0285  0.2655
 6532TIP3    H241156   6.728   2.915   0.529  1.4491 -2.1196 -1.9224
 6533TIP3   OH241157   0.287   2.871   1.782  0.0418 -0.9202  0.1217
 6533TIP3    H141158   0.264   2.810   1.712 -0.6932 -0.2473 -0.2405
 6533TIP3    H241159   0.247   2.954   1.756  0.7832 -0.3488  0.7475
 6534TIP3   OH241160   2.639   3.350   0.849  0.2077 -0.5477 -0.4116
 6534TIP3    H141161   2.588   3.308   0.919 -0.0933  0.0888 -0.2397
 6534TIP3    H241162   2.582   3.419   0.816  1.4710  1.2033  0.8120
 6535TIP3   OH241163   2.533   5.540   0.850  0.2288  0.3771  0.7255
 6535TIP3    H141164   2.476   5.590   0.909 -1.3043 -0.4061 -0.0397
 6535TIP3    H241165   2.551   5.600   0.778 -0.5663  0.2822  0.4320
 6536TIP3   OH241166   6.105   5.588   7.214 -0.2185  0.0416 -0.2968
 6536TIP3    H141167   6.113   5.654   7.283 -0.8988  0.3930 -0.5383
 6536TIP3    H241168   6.140   5.630   7.136 -0.0385 -0.1236 -0.3046
 6537TIP3   OH241169   1.414   1.180   6.326  0.0961  1.3204  0.2059
 6537TIP3    H141170   1.462   1.257   6.295 -0.0231  2.2872  2.2655
 6537TIP3    H241171   1.467   1.147   6.399  0.9643 -1.5566 -1.5711
 6538TIP3   OH241172   5.014   5.605   7.707  0.0894 -0.3007 -0.1259
 6538TIP3    H141173   5.024   5.514   7.679 -1.8270 -0.5146 -0.2595
 6538TIP3    H241174   4.991   5.600   7.800 -1.0613 -0.0488 -0.3739
 6539TIP3   OH241175   0.282   1.227   6.847 -0.0092  0.2355 -0.3177
 6539TIP3    H141176   0.207   1.277   6.879  0.6988 -0.8543  3.5626
 6539TIP3    H241177   0.358   1.282   6.868  0.5493 -0.8734  0.6616
 6540TIP3   OH241178   4.066   5.891   7.196  0.3924  0.6162 -0.3413
 6540TIP3    H141179   4.061   5.986   7.206 -1.3536  0.3825  1.6334
 6540TIP3    H241180   3.977   5.864   7.177  0.2394 -0.8526  2.0610
 6541TIP3   OH241181   2.426   4.894   7.211  0.3894 -0.1790  0.2137
 6541TIP3    H141182   2.386   4.963   7.263  0.9852  0.2469  0.1293
 6541TIP3    H241183   2.502   4.936   7.170  0.6589 -0.8373  0.0141
 6542TIP3   OH241184   6.468   5.850   0.744 -0.6352  0.3619  0.2392
 6542TIP3    H141185   6.424   5.932   0.768 -0.1977  0.7001 -0.0941
 6542TIP3    H241186   6.525   5.874   0.671 -1.3424 -0.4884 -0.6058
 6543TIP3   OH241187   4.147   6.015   1.513 -0.4789  0.4670  0.2258
 6543TIP3    H141188   4.239   6.038   1.506 -0.8048  1.3372 -1.6552
 6543TIP3    H241189   4.101   6.098   1.523 -1.1428  0.1234  0.1680
 6544TIP3   OH241190   1.375   5.173   8.202 -0.4261 -0.1026  0.8367
 6544TIP3    H141191   1.439   5.123   8.152  0.6313  1.4519  0.5459
 6544TIP3    H241192   1.372   5.130   8.287  1.2249 -0.0645  0.9453
 6545TIP3   OH241193   3.839   0.871   1.948  0.1658 -0.3302  0.2447
 6545TIP3    H141194   3.886   0.788   1.938  0.8297 -0.3387  2.8141
 6545TIP3    H241195   3.867   0.923   1.872 -1.5003 -2.9040 -2.3522
 6546TIP3   OH241196   0.023   2.896   7.110  0.1392  0.0229 -0.2001
 6546TIP3    H141197   0.104   2.947   7.111 -0.3359  0.8081  1.0526
 6546TIP3    H241198   0.048   2.811   7.075  1.6202  0.0886  0.6181
 6547TIP3   OH241199   6.290   1.286   6.736  0.0926  0.5816  0.0006
 6547TIP3    H141200   6.329   1.330   6.661  0.6518 -0.1242 -0.1415
 6547TIP3    H241201   6.267   1.199   6.703 -0.1630  0.4562  0.5020
 6548TIP3   OH241202   1.167   5.641   7.234  0.2853  0.2059 -0.5960
 6548TIP3    H141203   1.207   5.574   7.179 -0.7591 -1.7955  0.9491
 6548TIP3    H241204   1.073   5.634   7.216 -0.3210 -1.7160  2.4891
 6549TIP3   OH241205   6.325   5.837   8.277 -0.3079  0.1909  0.2671
 6549TIP3    H141206   6.394   5.812   8.337 -0.4265  0.3184  0.4579
 6549TIP3    H241207   6.260   5.768   8.285  1.0851 -1.5306 -2.0936
 6550TIP3   OH241208   2.389   5.246   0.282 -0.2655 -0.0104  0.1003
 6550TIP3    H141209   2.407   5.323   0.336  2.1049 -1.0526  0.9200
 6550TIP3    H241210   2.388   5.279   0.192  0.9376  0.9857  0.4208
 6551TIP3   OH241211   1.935   5.641   6.328 -0.1767  0.1906  0.4545
 6551TIP3    H141212   2.001   5.628   6.396  0.7511  0.0493 -0.4458
 6551TIP3    H241213   1.954   5.573   6.262  1.7299  2.8966 -2.0385
 6552TIP3   OH241214   0.323   4.605   0.121  0.0149  0.5737 -0.4239
 6552TIP3    H141215   0.314   4.694   0.155  1.4292  0.8800 -0.7641
 6552TIP3    H241216   0.244   4.559   0.150 -0.4513  1.7758  0.2562
 6553TIP3   OH241217   4.164   1.209   0.343 -0.1931  0.1312  0.1049
 6553TIP3    H141218   4.103   1.168   0.404  1.2845 -0.0535  1.5299
 6553TIP3    H241219   4.239   1.149   0.340  0.2122  0.6575 -1.1042
 6554TIP3   OH241220   2.435   2.236   8.014  0.3704  0.2122  0.5643
 6554TIP3    H141221   2.422   2.327   7.987  0.1043  0.7519  2.3346
 6554TIP3    H241222   2.524   2.215   7.986  0.6310  1.2165  0.5939
 6555TIP3   OH241223   4.917   3.408   8.527 -0.3491 -0.4328  0.5062
 6555TIP3    H141224   4.895   3.362   8.446  3.3270 -2.0388  0.2092
 6555TIP3    H241225   4.872   3.358   8.595  0.4254 -2.2119 -0.1981
 6556TIP3   OH241226   5.240   6.038   1.873 -0.4184 -0.0957  0.0494
 6556TIP3    H141227   5.236   5.985   1.953  0.1773 -0.9573 -0.4729
 6556TIP3    H241228   5.150   6.070   1.861 -0.4518  0.2832  1.2097
 6557TIP3   OH241229   3.383   3.971   0.322  0.0181 -0.5187  0.5789
 6557TIP3    H141230   3.370   3.885   0.284  0.8804 -0.4566  0.1306
 6557TIP3    H241231   3.315   3.978   0.390 -0.7569 -1.0991 -0.1255
 6558TIP3   OH241232   4.011   2.208   6.595 -0.5143  0.1879 -0.1710
 6558TIP3    H141233   3.922   2.200   6.629 -0.1939  0.5928  0.8241
 6558TIP3    H241234   4.054   2.127   6.620 -0.0025  0.8726  1.3307
 6559TIP3   OH241235   4.846   3.865   0.903  0.6321 -0.9691 -0.1438
 6559TIP3    H141236   4.841   3.770   0.893  1.7119 -1.3853  2.4854
 6559TIP3    H241237   4.929   3.880   0.948  1.4970  1.4531 -2.2884
 6560TIP3   OH241238   5.985   0.877   1.457  0.2204  0.2210 -0.0541
 6560TIP3    H141239   5.947   0.797   1.422  0.9927  0.4206 -1.4368
 6560TIP3    H241240   5.947   0.886   1.544 -0.9279 -0.9054 -0.4111
 6561TIP3   OH241241   5.287   2.845   2.186 -0.1850 -0.4271 -0.2024
 6561TIP3    H141242   5.309   2.915   2.124 -0.2616 -0.0231  0.2213
 6561TIP3    H241243   5.372   2.812   2.216 -0.1486 -0.4513 -0.3328
 6562TIP3   OH241244   0.255   0.072   6.641  0.2693  0.0028 -0.1456
 6562TIP3    H141245   0.256   0.168   6.642  0.4935  0.0698 -2.2141
 6562TIP3    H241246   0.248   0.047   6.734 -1.4126  2.0051  0.3553
 6563TIP3   OH241247   0.385   3.489   1.152  0.2180 -0.3516 -0.5156
 6563TIP3    H141248   0.397   3.453   1.240 -1.6044 -0.0651 -0.1158
 6563TIP3    H241249   0.401   3.583   1.161  1.5407 -0.5248 -0.8379
 6564TIP3   OH241250   5.175   3.044   0.010 -0.4184  0.5631  0.2322
 6564TIP3    H141251   5.267   3.044  -0.014 -0.2517 -0.7286  0.7896
 6564TIP3    H241252   5.174   3.010   0.100 -1.4984 -0.3264 -0.0892
 6565TIP3   OH241253   3.562   2.316   1.402 -0.4450 -0.6612  0.1606
 6565TIP3    H141254   3.474   2.313   1.365 -0.4092  0.0694  0.0125
 6565TIP3    H241255   3.549   2.346   1.492 -0.3494 -0.6407  0.1677
 6566TIP3   OH241256   1.684   6.465   0.111  0.0182 -0.0844 -0.1916
 6566TIP3    H141257   1.628   6.393   0.084  0.4676 -1.0815  1.3648
 6566TIP3    H241258   1.678   6.465   0.207  0.5317  1.5512 -0.1296
 6567TIP3   OH241259   3.325   4.784   8.266  0.1925  0.5485 -0.2681
 6567TIP3    H141260   3.336   4.869   8.223  0.4484  0.1922 -0.9322
 6567TIP3    H241261   3.236   4.786   8.301  0.2641  1.1643 -0.1068
 6568TIP3   OH241262   6.316   0.617   2.515  0.2948  0.9322  0.2206
 6568TIP3    H141263   6.397   0.667   2.528  0.5621  0.5649 -0.0074
 6568TIP3    H241264   6.292   0.588   2.603  0.8074  0.4423  0.2076
 6569TIP3   OH241265   1.916   4.606   2.063  0.5533  0.1720  0.1551
 6569TIP3    H141266   1.844   4.650   2.107 -0.5162 -0.8169 -0.5283
 6569TIP3    H241267   1.969   4.569   2.133 -0.5500 -0.5109  0.6504
 6570TIP3   OH241268   5.016   6.778   1.601  0.2385  0.4264  0.1902
 6570TIP3    H141269   5.048   6.867   1.614 -1.2770  0.9092  0.8324
 6570TIP3    H241270   5.017   6.738   1.688  0.3875 -0.0021 -0.0020
 6571TIP3   OH241271   6.175   6.742   6.625  0.1071 -0.3912 -0.0962
 6571TIP3    H141272   6.253   6.696   6.594  0.2492  0.0070 -0.3346
 6571TIP3    H241273   6.208   6.815   6.677 -0.1220 -0.6930  0.4905
 6572TIP3   OH241274   3.264   2.158   6.954 -0.4449 -0.2789  0.0005
 6572TIP3    H141275   3.181   2.172   6.909 -0.2187 -0.1276 -0.3714
 6572TIP3    H241276   3.271   2.063   6.962 -0.8885 -0.2731  0.4755
 6573TIP3   OH241277   4.025   1.938   7.517  0.2064  0.6742  0.0710
 6573TIP3    H141278   3.990   1.855   7.549 -0.4546  0.8903 -0.0763
 6573TIP3    H241279   3.956   2.002   7.535  0.7903  1.2348  0.3682
 6574TIP3   OH241280   0.927   4.923   7.538  0.1818  0.6213 -0.1010
 6574TIP3    H141281   1.015   4.948   7.565 -0.4362  1.2085  1.4691
 6574TIP3    H241282   0.881   5.006   7.524 -0.1942  0.3254 -0.6533
 6575TIP3   OH241283   6.603   6.200   1.024  0.3242  0.0193  0.5253
 6575TIP3    H141284   6.669   6.175   0.959 -0.7894 -0.0986 -0.5830
 6575TIP3    H241285   6.647   6.266   1.078  1.0102  0.7486 -0.8708
 6576TIP3   OH241286   3.433   0.123   7.784 -0.1524  0.0103 -0.2756
 6576TIP3    H141287   3.418   0.058   7.715  2.3694 -0.4523 -0.4839
 6576TIP3    H241288   3.517   0.098   7.823 -0.6813  1.2648  1.8575
 6577TIP3   OH241289   2.007   2.388   6.791  0.2505 -0.7719 -0.2538
 6577TIP3    H141290   2.009   2.475   6.829  1.7725 -1.0923  0.4949
 6577TIP3    H241291   2.020   2.403   6.697  0.3142 -0.1808 -0.1543
 6578TIP3   OH241292   3.296   3.187   0.561  0.2047 -0.8632  0.2883
 6578TIP3    H141293   3.276   3.235   0.642 -1.3363 -2.3352  0.8296
 6578TIP3    H241294   3.375   3.137   0.582  0.2526 -0.6503  0.6199
 6579TIP3   OH241295   6.740   3.621   0.063 -0.2072 -0.1053 -0.1612
 6579TIP3    H141296   6.731   3.713   0.089  1.9013  0.7068 -2.0450
 6579TIP3    H241297   6.818   3.590   0.110 -0.8965 -0.9840  0.4528
 6580TIP3   OH241298   6.251   0.957   7.559 -0.5484 -0.2483 -0.0129
 6580TIP3    H141299   6.192   0.886   7.586 -2.0012  0.6137 -0.7851
 6580TIP3    H241300   6.336   0.932   7.593 -1.3632 -1.5495  1.1596
 6581TIP3   OH241301   0.439   0.063   7.097 -0.5326 -0.1517 -0.2084
 6581TIP3    H141302   0.441   0.094   7.188  0.7028 -1.8466  0.3936
 6581TIP3    H241303   0.494  -0.015   7.097 -0.2296 -0.0057 -2.5083
 6582TIP3   OH241304   2.685   6.132   7.376 -0.1360  0.6388  0.0970
 6582TIP3    H141305   2.610   6.140   7.316 -0.3101  0.9131  0.3500
 6582TIP3    H241306   2.655   6.069   7.442 -0.0879  0.6353  0.1148
 6583TIP3   OH241307   1.323   1.274   6.711  0.4560 -0.1838 -0.0855
 6583TIP3    H141308   1.353   1.308   6.626 -0.6466 -0.6695 -0.6833
 6583TIP3    H241309   1.300   1.183   6.693 -0.8244  0.0125  0.4780
 6584TIP3   OH241310   1.111   5.211   0.608  0.4178 -0.0956 -0.1400
 6584TIP3    H141311   1.026   5.181   0.575  0.9125 -1.9922  0.2138
 6584TIP3    H241312   1.161   5.231   0.529 -0.2985  0.9631 -0.3528
 6585TIP3   OH241313   5.809   3.598   7.344 -0.1702  0.0758  0.2235
 6585TIP3    H141314   5.837   3.654   7.272  0.9533 -1.4989 -0.6264
 6585TIP3    H241315   5.716   3.581   7.328 -0.1035  0.3443 -0.4370
 6586TIP3   OH241316   6.855   0.393   1.675  0.0064  0.4917 -0.7498
 6586TIP3    H141317   6.797   0.464   1.703 -0.2805 -0.4792  1.3245
 6586TIP3    H241318   6.935   0.406   1.724  0.5681  0.2794 -1.5791
 6587TIP3   OH241319   3.800   0.768   7.909  0.1840  0.6787 -0.0357
 6587TIP3    H141320   3.768   0.803   7.826 -1.2428 -0.6108 -0.0839
 6587TIP3    H241321   3.864   0.701   7.885 -0.0319  0.4918 -0.0933
 6588TIP3   OH241322   3.691   3.922   0.882  0.5930 -0.3331  0.1172
 6588TIP3    H141323   3.647   3.972   0.951  0.7562 -0.1326  0.0764
 6588TIP3    H241324   3.647   3.837   0.882 -0.3747  0.1488 -0.5015
 6589TIP3   OH241325   3.442   3.601   8.449 -0.3490 -0.6442  0.0095
 6589TIP3    H141326   3.475   3.532   8.506  1.1013 -0.9428 -1.1304
 6589TIP3    H241327   3.519   3.654   8.429 -0.9001 -0.3110 -1.3088
 6590TIP3   OH241328   3.747   1.197   8.032 -0.3497  0.2095  0.0860
 6590TIP3    H141329   3.763   1.283   7.993  0.7814  1.6763  3.3847
 6590TIP3    H241330   3.760   1.135   7.960 -0.1396  2.7093 -2.1884
 6591TIP3   OH241331   0.539   2.301   1.384 -0.1713 -0.2389 -0.1266
 6591TIP3    H141332   0.538   2.239   1.457  3.9710  1.0126  1.3064
 6591TIP3    H241333   0.537   2.247   1.306 -1.4355 -1.8292  0.9322
 6592TIP3   OH241334   3.301   6.844   0.911  0.3995  0.0882  0.1205
 6592TIP3    H141335   3.257   6.878   0.833 -0.1086  0.5108  0.5874
 6592TIP3    H241336   3.378   6.900   0.921 -0.9783  1.8399  1.4869
 6593TIP3   OH241337   5.067   2.988   6.505 -0.0943 -0.2083  0.0191
 6593TIP3    H141338   5.093   3.005   6.414 -0.2382 -0.8463 -0.1511
 6593TIP3    H241339   5.139   3.022   6.557 -0.3290  0.8040 -0.2947
 6594TIP3   OH241340   5.566   6.376   8.034  0.1834 -0.2158  0.0298
 6594TIP3    H141341   5.501   6.375   7.964 -0.2008  0.3564  0.3703
 6594TIP3    H241342   5.650   6.390   7.989  0.0897 -1.0370 -0.4152
 6595TIP3   OH241343   2.419   1.680   1.597  0.8164 -0.1523 -0.5631
 6595TIP3    H141344   2.359   1.694   1.670  0.2543 -0.9450 -0.8609
 6595TIP3    H241345   2.364   1.646   1.527  1.8088 -2.1921 -0.4291
 6596TIP3   OH241346   3.135   1.809   1.940 -0.2413 -0.3024 -0.2673
 6596TIP3    H141347   3.074   1.881   1.959 -1.3771 -1.5921  1.2593
 6596TIP3    H241348   3.215   1.833   1.986  0.3344  1.2463 -1.9981
 6597TIP3   OH241349   1.528   3.618   8.295 -0.0982  0.4215  0.2239
 6597TIP3    H141350   1.517   3.704   8.336  2.3194  0.0115  1.9256
 6597TIP3    H241351   1.472   3.560   8.347 -0.8155  0.7167 -0.1909
 6598TIP3   OH241352   1.883   6.034   0.593  0.0153 -0.2800 -0.1367
 6598TIP3    H141353   1.917   6.000   0.676  0.2205 -1.6845 -0.7641
 6598TIP3    H241354   1.828   5.963   0.559 -0.8709  0.6678 -0.7323
 6599TIP3   OH241355   1.157   1.019   8.367  0.0149  0.2246  0.2677
 6599TIP3    H141356   1.171   1.028   8.273 -0.6918  2.5616  0.3149
 6599TIP3    H241357   1.078   1.070   8.385 -1.4583 -2.3853  1.7893
 6600TIP3   OH241358   3.610   4.914   1.075 -0.6799  0.2262  0.1592
 6600TIP3    H141359   3.622   4.892   1.168 -0.9072 -0.2613  0.0751
 6600TIP3    H241360   3.698   4.928   1.042 -0.2947 -2.6624 -0.2993
 6601TIP3   OH241361   0.440   1.007   1.027  0.0735  0.0779 -0.1487
 6601TIP3    H141362   0.350   0.976   1.022  0.2406 -0.5181  0.2675
 6601TIP3    H241363   0.467   1.019   0.937 -0.8839  1.6782 -0.2474
 6602TIP3   OH241364   3.733   1.524   8.104  0.0066  0.2410 -0.4150
 6602TIP3    H141365   3.682   1.579   8.164 -0.1708 -0.1949 -0.1666
 6602TIP3    H241366   3.823   1.554   8.115  0.1348 -0.5868  0.8904
 6603TIP3   OH241367   6.629   0.040   1.718 -0.5972 -0.3944  0.2071
 6603TIP3    H141368   6.561  -0.017   1.683 -1.7714  0.5578  0.8871
 6603TIP3    H241369   6.708   0.017   1.668 -2.0230  0.4308 -2.6126
 6604TIP3   OH241370   2.086   0.585   8.521 -0.7094 -0.6102  0.2469
 6604TIP3    H141371   1.998   0.585   8.484 -0.6885 -0.1549  0.1854
 6604TIP3    H241372   2.098   0.675   8.554 -0.1840 -0.6040  0.0468
 6605TIP3   OH241373   3.957   4.391   6.755  0.0204  0.0885  0.3009
 6605TIP3    H141374   4.027   4.342   6.712  0.4542  0.6965  0.3097
 6605TIP3    H241375   3.947   4.348   6.840  0.1478 -0.2146  0.1639
 6606TIP3   OH241376   4.762   6.548   2.250 -0.5335 -0.0422 -0.0273
 6606TIP3    H141377   4.728   6.528   2.337  1.4033 -0.2935  0.7194
 6606TIP3    H241378   4.856   6.562   2.263 -0.1710 -0.1727 -2.0924
 6607TIP3   OH241379   6.467   3.780   8.311 -0.0567 -0.0494 -0.5653
 6607TIP3    H141380   6.487   3.703   8.258 -0.4656 -0.6730  0.1615
 6607TIP3    H241381   6.510   3.762   8.395 -2.2054 -0.6565  0.4642
 6608TIP3   OH241382   5.669   0.938   7.187 -0.2483 -0.1902  0.5800
 6608TIP3    H141383   5.671   1.022   7.142  2.0299 -0.0083  0.9134
 6608TIP3    H241384   5.600   0.888   7.142 -0.0525  1.0146 -1.1483
 6609TIP3   OH241385   0.628   5.763   7.230 -0.5640  0.2751  0.4780
 6609TIP3    H141386   0.628   5.848   7.274  0.3719 -0.3948  1.8428
 6609TIP3    H241387   0.536   5.736   7.230 -0.5326  0.0423  2.5764
 6610TIP3   OH241388   3.162   2.491   1.840  0.2118  0.5789 -0.5003
 6610TIP3    H141389   3.125   2.404   1.856 -0.9446  0.6283 -2.6580
 6610TIP3    H241390   3.102   2.551   1.885 -0.3009  0.4153 -0.9625
 6611TIP3   OH241391   4.155   0.269   6.832  0.4408 -0.2396  0.4461
 6611TIP3    H141392   4.148   0.188   6.884 -0.3433  0.3353  1.2731
 6611TIP3    H241393   4.234   0.311   6.864  1.3143 -1.0477 -0.5624
 6612TIP3   OH241394   3.651   6.442   1.991 -0.0866 -0.9056 -0.2045
 6612TIP3    H141395   3.614   6.424   1.904 -0.4812  0.2556 -0.2925
 6612TIP3    H241396   3.577   6.477   2.041  0.6623  0.6170 -0.1143
 6613TIP3   OH241397   6.001   4.395   6.912 -0.6197  0.1231  0.1284
 6613TIP3    H141398   5.975   4.390   6.820  0.1934 -0.5797 -0.0747
 6613TIP3    H241399   5.938   4.455   6.951 -0.0134  1.7342 -1.2294
 6614TIP3   OH241400   5.135   0.971   6.908  0.3126 -0.5195 -0.3715
 6614TIP3    H141401   5.179   0.891   6.880  1.2274  1.0071 -3.8796
 6614TIP3    H241402   5.046   0.963   6.875  0.1312 -0.4401  0.0838
 6615TIP3   OH241403   5.531   1.788   0.074 -0.6659  0.3125  0.0972
 6615TIP3    H141404   5.599   1.834   0.026 -0.9223 -0.2684 -0.8601
 6615TIP3    H241405   5.451   1.839   0.058 -0.3955  1.2611  1.6087
 6616TIP3   OH241406   1.202   5.750   8.163  0.3836 -0.1410  0.0568
 6616TIP3    H141407   1.246   5.732   8.245 -1.1798 -1.1845  0.7233
 6616TIP3    H241408   1.162   5.836   8.174  0.3251 -0.2040  0.3294
 6617TIP3   OH241409   0.266   0.432   1.041 -0.3180 -0.3214  0.7761
 6617TIP3    H141410   0.320   0.353   1.054 -2.1893 -1.1609  5.0238
 6617TIP3    H241411   0.183   0.411   1.084 -2.9939  2.0904 -2.6682
 6618TIP3   OH241412   6.358   5.957   1.925 -0.7653  0.7318  0.3661
 6618TIP3    H141413   6.329   5.878   1.972 -0.9893  1.4231  1.4111
 6618TIP3    H241414   6.372   6.022   1.993 -0.4801  1.5768 -0.4793
 6619TIP3   OH241415   0.257   6.532   1.689  0.0072 -0.3992 -0.1521
 6619TIP3    H141416   0.352   6.539   1.676  0.0740 -0.8819  0.0732
 6619TIP3    H241417   0.244   6.556   1.780 -0.0850 -0.3652 -0.1746
 6620TIP3   OH241418   5.271   0.636   0.621  0.1090  0.4873 -0.2316
 6620TIP3    H141419   5.322   0.555   0.628 -0.6227  0.0218 -0.1940
 6620TIP3    H241420   5.299   0.689   0.695  0.4389  0.1809 -0.1352
 6621TIP3   OH241421   0.185   6.832   7.418 -0.1111  0.9372 -0.1343
 6621TIP3    H141422   0.134   6.849   7.498  0.1076  0.7971  0.0337
 6621TIP3    H241423   0.273   6.810   7.449 -0.1565  0.3709 -0.3891
 6622TIP3   OH241424   5.032   1.218   7.784  0.8509  0.1272  0.4635
 6622TIP3    H141425   4.945   1.250   7.760  1.5794  1.4331 -0.5533
 6622TIP3    H241426   5.033   1.127   7.755  0.0246  0.2626 -0.0236
 6623TIP3   OH241427   0.233   6.617   8.659 -0.5623 -0.3681 -0.0221
 6623TIP3    H141428   0.277   6.693   8.621 -0.8790 -0.3229 -0.3022
 6623TIP3    H241429   0.249   6.624   8.753  0.3817 -0.5779 -0.1569
 6624TIP3   OH241430   1.769   6.499   7.593  0.0195 -0.1879 -0.5561
 6624TIP3    H141431   1.733   6.587   7.577 -0.6921 -0.1251  1.1797
 6624TIP3    H241432   1.753   6.452   7.511 -0.0791  1.1365 -1.3309
 6625TIP3   OH241433   6.425   0.313   8.653 -0.0378  0.1239  0.3705
 6625TIP3    H141434   6.508   0.267   8.641  0.7271  1.5228  0.0705
 6625TIP3    H241435   6.433   0.390   8.597 -0.3778  1.7608  2.4646
 6626TIP3   OH241436   3.982   4.951   7.395  0.5206  0.4745 -0.1401
 6626TIP3    H141437   3.989   4.975   7.302  0.0031 -0.3577 -0.4133
 6626TIP3    H241438   3.977   4.855   7.394 -0.0638  0.4844  0.7054
 6627TIP3   OH241439   1.507   1.174   7.392 -0.3396 -0.3183  0.3756
 6627TIP3    H141440   1.574   1.140   7.451  0.3085  0.0518 -0.1280
 6627TIP3    H241441   1.466   1.246   7.440  1.7035  1.4871 -0.4085
 6628TIP3   OH241442   5.721   5.758   0.220  0.2893  0.2437 -0.1569
 6628TIP3    H141443   5.746   5.746   0.128 -0.3415  1.9612 -0.6045
 6628TIP3    H241444   5.691   5.849   0.224 -2.3355 -0.5910  1.1455
 6629TIP3   OH241445   6.771   4.565   0.883  0.0843 -0.8049  0.1593
 6629TIP3    H141446   6.734   4.554   0.970  2.3809  1.0382  1.4985
 6629TIP3    H241447   6.865   4.555   0.895  0.6445  1.2499 -1.7232
 6630TIP3   OH241448   3.287   0.709   6.840  0.2824 -0.4326 -0.4286
 6630TIP3    H141449   3.278   0.754   6.755 -1.1258 -1.3344 -0.7986
 6630TIP3    H241450   3.237   0.628   6.829 -2.4109  0.7028  2.1368
 6631TIP3   OH241451   0.477   6.115   6.964 -0.1363  0.1876 -0.5185
 6631TIP3    H141452   0.421   6.124   6.887  1.8574 -0.6737 -2.1537
 6631TIP3    H241453   0.522   6.032   6.952 -0.0228 -0.1598  1.8050
 6632TIP3   OH241454   4.104   4.103   1.512  0.3881  0.2412 -0.1481
 6632TIP3    H141455   4.037   4.035   1.522 -2.1511  2.3497 -1.5365
 6632TIP3    H241456   4.076   4.153   1.436  3.4083  1.5297 -0.5645
 6633TIP3   OH241457   2.032   2.173   8.304  0.3090 -0.2684  0.7055
 6633TIP3    H141458   1.987   2.258   8.299  1.0214  0.0663 -2.0473
 6633TIP3    H241459   2.123   2.196   8.323  0.3182 -0.5101  0.9533
 6634TIP3   OH241460   5.379   5.430   0.780  0.5511 -0.8374 -0.2729
 6634TIP3    H141461   5.305   5.374   0.804 -0.0685  0.0641 -0.0117
 6634TIP3    H241462   5.359   5.458   0.691  1.0392 -1.2985 -0.5350
 6635TIP3   OH241463   0.979   2.838   6.405 -0.7725 -0.2752  0.0287
 6635TIP3    H141464   1.006   2.776   6.473 -1.1134 -0.3382  0.1083
 6635TIP3    H241465   0.929   2.786   6.343 -0.7599 -0.1480 -0.0880
 6636TIP3   OH241466   0.244   3.384   8.190 -0.1418 -0.5277  0.0682
 6636TIP3    H141467   0.203   3.456   8.237 -0.5848  0.2579 -1.4538
 6636TIP3    H241468   0.337   3.403   8.192 -0.1367 -0.6180  0.8009
 6637TIP3   OH241469   2.540   0.356   7.160  0.4703  0.5576 -0.4461
 6637TIP3    H141470   2.565   0.316   7.243 -0.0862  2.6352  0.8139
 6637TIP3    H241471   2.611   0.334   7.100  1.1278 -0.5900  0.7133
 6638TIP3   OH241472   0.619   3.982   7.317  0.1431  0.5940  0.3895
 6638TIP3    H141473   0.603   4.007   7.408  0.6191  0.7218  0.4410
 6638TIP3    H241474   0.657   4.061   7.277  2.4234 -0.2496  0.7512
 6639TIP3   OH241475   0.983   5.146   7.151 -0.4932 -0.2297 -0.0548
 6639TIP3    H141476   0.939   5.225   7.182  0.4314  0.7021 -1.0131
 6639TIP3    H241477   0.976   5.150   7.056  1.4457 -0.1383 -0.2420
 6640TIP3   OH241478   4.221   6.701   1.515 -0.1106  0.1379  0.2314
 6640TIP3    H141479   4.279   6.628   1.492 -0.1102  0.6966 -1.7157
 6640TIP3    H241480   4.136   6.659   1.531  0.4729 -0.5354  1.7391
 6641TIP3   OH241481   4.709   5.393   7.242  0.6092  0.1161  0.4600
 6641TIP3    H141482   4.798   5.408   7.274  1.1501 -1.4050 -0.2285
 6641TIP3    H241483   4.713   5.306   7.203 -1.4925 -0.4871  1.4820
 6642TIP3   OH241484   5.001   1.155   1.481  1.0360 -0.5467  0.2288
 6642TIP3    H141485   4.924   1.180   1.532  1.9701  1.0818  0.9226
 6642TIP3    H241486   4.967   1.096   1.414 -1.0552  1.2063 -0.3525
 6643TIP3   OH241487   3.253   4.782   7.823 -0.3599 -0.0765  0.4713
 6643TIP3    H141488   3.162   4.762   7.804 -0.4471  1.6653 -1.1414
 6643TIP3    H241489   3.280   4.842   7.754  2.2824 -1.2110  0.3773
 6644TIP3   OH241490   6.849   1.620   6.997  0.4189  0.7416  0.0774
 6644TIP3    H141491   6.768   1.610   6.948  0.6847 -1.2315 -0.0597
 6644TIP3    H241492   6.835   1.697   7.052 -1.4330  0.6022 -0.1394
 6645TIP3   OH241493   0.564   0.485   0.002  0.1101 -0.0748 -0.5609
 6645TIP3    H141494   0.624   0.505   0.074 -0.5336  0.6084 -0.2054
 6645TIP3    H241495   0.606   0.523  -0.075  1.0773 -1.2930 -0.6703
 6646TIP3   OH241496   5.360   5.527   8.166  0.8894 -0.6074  0.0203
 6646TIP3    H141497   5.401   5.605   8.128  2.1978 -1.1385  0.2889
 6646TIP3    H241498   5.271   5.556   8.190  0.2250 -0.0714 -2.7642
 6647TIP3   OH241499   2.000   0.629   0.539  0.4194 -0.2089 -0.3495
 6647TIP3    H141500   1.922   0.670   0.503  0.0385 -0.6132  0.0095
 6647TIP3    H241501   2.064   0.632   0.468  0.5690  1.4467 -0.1728
 6648TIP3   OH241502   5.021   0.308   8.552 -0.0480 -0.1371  0.4844
 6648TIP3    H141503   5.014   0.397   8.586  1.0695  0.1613 -0.0465
 6648TIP3    H241504   4.945   0.263   8.590  0.6691  0.3887  2.6798
 6649TIP3   OH241505   1.446   1.799   7.731 -0.0551 -0.3760 -0.3009
 6649TIP3    H141506   1.532   1.825   7.765 -0.7672 -0.4343  1.6502
 6649TIP3    H241507   1.389   1.874   7.749 -1.1003 -1.4884  1.2675
 6650TIP3   OH241508   3.459   4.531   7.028  0.7298 -0.2822  0.2666
 6650TIP3    H141509   3.376   4.549   6.984  1.0554 -1.2354 -0.7866
 6650TIP3    H241510   3.443   4.554   7.120 -0.2356  0.9419 -0.1709
 6651TIP3   OH241511   4.733   6.712   1.528 -0.5479 -0.1858 -0.7169
 6651TIP3    H141512   4.826   6.733   1.529 -1.0233  2.2135  0.0437
 6651TIP3    H241513   4.701   6.740   1.614 -1.9546 -1.0873 -0.9029
 6652TIP3   OH241514   2.025   1.819   2.269  0.5887  0.0521 -0.7907
 6652TIP3    H141515   1.959   1.856   2.326  0.4653 -1.4433  0.0699
 6652TIP3    H241516   1.986   1.821   2.182  0.8100  2.4140 -0.8985
 6653TIP3   OH241517   2.439   1.898   7.882 -0.2006  0.7648  0.3844
 6653TIP3    H141518   2.400   1.901   7.969  1.9523 -2.1424  1.5869
 6653TIP3    H241519   2.526   1.936   7.893 -0.1990  1.1050 -0.7022
 6654TIP3   OH241520   2.207   6.184   7.068  0.2069 -0.4313  0.2891
 6654TIP3    H141521   2.125   6.194   7.117 -1.2962 -0.5466 -2.0368
 6654TIP3    H241522   2.192   6.109   7.011  1.2303  0.6365 -1.4765
 6655TIP3   OH241523   6.013   2.923   1.385  0.5263 -0.5393  0.8380
 6655TIP3    H141524   6.086   2.933   1.446  1.3974  0.8956 -0.3256
 6655TIP3    H241525   5.957   2.999   1.402 -0.9810 -1.8546  2.0095
 6656TIP3   OH241526   1.241   1.782   7.307  0.5104  0.4389  0.5819
 6656TIP3    H141527   1.192   1.861   7.331  1.4025  1.1452  0.1641
 6656TIP3    H241528   1.266   1.796   7.216 -0.0428 -0.7325  0.2323
 6657TIP3   OH241529   0.858   4.511   6.834 -0.2457  0.4970 -0.2764
 6657TIP3    H141530   0.810   4.474   6.760  0.7896 -1.4133 -0.0651
 6657TIP3    H241531   0.902   4.588   6.798 -2.0306  1.2801 -0.8945
 6658TIP3   OH241532   3.232   6.160   8.545 -0.1624 -0.5927 -0.7157
 6658TIP3    H141533   3.309   6.132   8.495 -0.2931 -0.7300 -0.8432
 6658TIP3    H241534   3.253   6.248   8.574  0.3740 -0.9255 -0.0715
 6659TIP3   OH241535   5.631   4.509   0.823 -0.8534  0.7273  0.2938
 6659TIP3    H141536   5.636   4.522   0.728 -0.8220  0.8536  0.3119
 6659TIP3    H241537   5.553   4.456   0.837 -1.5568  1.7517  0.3028
 6660TIP3   OH241538   2.395   6.482   7.162 -0.2263  0.5806 -0.6188
 6660TIP3    H141539   2.306   6.452   7.179  0.6381 -1.1946  1.2060
 6660TIP3    H241540   2.437   6.486   7.248  2.3429 -1.7579 -1.5837
 6661TIP3   OH241541   4.255   1.045   8.312  0.1761 -0.3214 -0.0715
 6661TIP3    H141542   4.331   1.097   8.340 -0.6678  0.4172  0.9413
 6661TIP3    H241543   4.226   1.087   8.232  1.0331 -0.8202 -0.6556
 6662TIP3   OH241544   3.843   1.075   1.717  0.1762 -0.1329  0.0904
 6662TIP3    H141545   3.753   1.088   1.745  0.6425  0.0096  1.5775
 6662TIP3    H241546   3.845   1.109   1.627 -1.2805 -0.3306 -0.0405
 6663TIP3   OH241547   6.709   5.402   8.336  0.6062 -0.2762  0.2557
 6663TIP3    H141548   6.754   5.389   8.252 -0.2657  1.9731 -0.6399
 6663TIP3    H241549   6.776   5.440   8.393  0.2256  2.3436 -0.8465
 6664TIP3   OH241550   2.151   5.201   0.428 -0.5640  0.1899 -0.0794
 6664TIP3    H141551   2.079   5.203   0.365 -1.1092 -0.7533  0.4913
 6664TIP3    H241552   2.229   5.187   0.374 -1.1034 -1.3731 -0.5137
 6665TIP3   OH241553   6.655   4.671   6.987 -0.1138 -0.1757 -0.3589
 6665TIP3    H141554   6.737   4.661   7.034 -0.7676 -2.8617  0.3318
 6665TIP3    H241555   6.666   4.753   6.938  2.5206  0.0982  0.5351
 6666TIP3   OH241556   3.838   4.060   0.526  0.2403  0.1900  0.0609
 6666TIP3    H141557   3.863   4.152   0.534 -0.2548  0.3957 -0.6744
 6666TIP3    H241558   3.862   4.021   0.610  1.5930  0.7122 -0.0644
 6667TIP3   OH241559   6.508   0.354   1.488 -0.3425  0.0318  0.3836
 6667TIP3    H141560   6.600   0.370   1.507 -0.5924  1.9194  0.1051
 6667TIP3    H241561   6.463   0.433   1.517 -1.6512 -0.0867 -1.2209
 6668TIP3   OH241562   3.461   6.784   7.589  0.4870  0.3402 -0.3858
 6668TIP3    H141563   3.415   6.758   7.509 -0.6852 -0.9276  0.6503
 6668TIP3    H241564   3.408   6.748   7.660  0.5941  2.7990  1.0557
 6669TIP3   OH241565   2.682   4.846   7.094 -0.5542 -0.0091 -0.2371
 6669TIP3    H141566   2.770   4.839   7.057 -0.5252 -0.9442 -0.0246
 6669TIP3    H241567   2.676   4.773   7.156 -1.3076  0.3371  0.1183
 6670TIP3   OH241568   0.910   4.210   0.288 -0.0522  0.1912 -0.1093
 6670TIP3    H141569   0.960   4.144   0.335  0.3772  0.6152  0.0303
 6670TIP3    H241570   0.937   4.293   0.326  1.3834  0.6839 -2.0187
 6671TIP3   OH241571   3.470   5.945   8.618 -0.2115  0.2679  0.6532
 6671TIP3    H141572   3.479   6.009   8.548  0.9644 -2.0207 -1.4521
 6671TIP3    H241573   3.409   5.880   8.583 -1.1360  0.0255  2.5829
 6672TIP3   OH241574   0.704   5.192   5.815 -0.5396  0.4173 -0.2425
 6672TIP3    H141575   0.731   5.282   5.831  0.0145  0.4590 -1.3118
 6672TIP3    H241576   0.610   5.199   5.797 -0.4432  0.8263 -0.6080
 6673TIP3   OH241577   5.359   3.219   8.068  0.1833  0.3332  0.0039
 6673TIP3    H141578   5.407   3.158   8.012  0.7828  0.6244  0.2011
 6673TIP3    H241579   5.331   3.288   8.008 -0.9748 -0.3916 -0.3297
 6674TIP3   OH241580   1.861   3.595   6.947 -0.2084 -0.0281  0.3504
 6674TIP3    H141581   1.956   3.587   6.942 -0.0382  0.5600  2.1279
 6674TIP3    H241582   1.829   3.539   6.876  1.4440 -0.3130 -0.2218
 6675TIP3   OH241583   1.847   2.613   0.069 -0.3492  0.6932  0.6056
 6675TIP3    H141584   1.941   2.615   0.085 -0.1693 -0.9413 -0.0527
 6675TIP3    H241585   1.831   2.687   0.010  0.3560  1.5198  1.4343
 6676TIP3   OH241586   3.611   3.739   6.742  0.5755  0.7393  0.0322
 6676TIP3    H141587   3.565   3.697   6.669  1.2435 -0.3366  0.2145
 6676TIP3    H241588   3.552   3.729   6.816  0.1642  1.2904 -0.2141
 6677TIP3   OH241589   4.182   5.456   7.183 -0.1695 -0.1927 -0.5472
 6677TIP3    H141590   4.210   5.388   7.123 -0.9920  0.7244 -2.0265
 6677TIP3    H241591   4.163   5.532   7.127 -0.3892  0.8907  0.9220
 6678TIP3   OH241592   1.161   2.606   1.409  0.2845  0.3363  0.6530
 6678TIP3    H141593   1.236   2.653   1.373 -0.5933  0.5664 -0.9650
 6678TIP3    H241594   1.128   2.555   1.335 -0.6394 -0.4292  1.5714
 6679TIP3   OH241595   2.316   5.896   8.329 -0.0759 -0.1079 -0.0576
 6679TIP3    H141596   2.389   5.956   8.316 -0.4982  0.0417 -1.9345
 6679TIP3    H241597   2.310   5.846   8.248 -1.4253 -0.8345  0.4494
 6680TIP3   OH241598   6.027   0.437   0.573  0.4308 -0.0895 -0.5222
 6680TIP3    H141599   5.999   0.358   0.619  1.2244 -0.6807 -1.0192
 6680TIP3    H241600   5.966   0.445   0.499  1.1037 -0.9480 -1.1799
 6681TIP3   OH241601   6.376   1.697   2.192  0.4950 -0.5425 -0.8752
 6681TIP3    H141602   6.319   1.625   2.164  0.4742 -2.0258  2.5234
 6681TIP3    H241603   6.325   1.744   2.258  1.7102  0.6571 -0.7381
 6682TIP3   OH241604   3.468   5.959   7.934 -0.2217 -0.2932 -0.3785
 6682TIP3    H141605   3.409   5.885   7.915  1.6537 -2.0904  0.4009
 6682TIP3    H241606   3.434   6.030   7.880 -3.0080 -1.2363 -0.0806
 6683TIP3   OH241607   5.703   4.704   1.194  0.0146  0.5251  0.3056
 6683TIP3    H141608   5.647   4.772   1.157 -0.8111 -0.8015 -0.9626
 6683TIP3    H241609   5.663   4.684   1.279 -1.6366 -0.5578 -0.6674
 6684TIP3   OH241610   5.328   3.810   2.103 -0.2608  0.3928 -0.3174
 6684TIP3    H141611   5.236   3.829   2.083 -0.6674 -0.3253  0.8019
 6684TIP3    H241612   5.361   3.765   2.025 -0.2529  2.4520 -1.5884
 6685TIP3   OH241613   1.994   3.707   0.867  0.0917  0.4695 -0.1587
 6685TIP3    H141614   2.000   3.660   0.950  1.5300 -0.7508 -0.9026
 6685TIP3    H241615   2.001   3.799   0.890 -0.6833  0.2270  1.1503
 6686TIP3   OH241616   1.178   4.184   7.460 -0.5825  0.1783 -0.4302
 6686TIP3    H141617   1.112   4.179   7.391  0.7497  1.6259 -1.8891
 6686TIP3    H241618   1.195   4.278   7.470  2.0243 -0.1683 -0.9121
 6687TIP3   OH241619   5.356   3.518   8.215 -0.2268 -0.1187  0.1065
 6687TIP3    H141620   5.346   3.501   8.121  1.4658  0.4321 -0.1986
 6687TIP3    H241621   5.445   3.490   8.235  0.1169  1.5828  1.1270
 6688TIP3   OH241622   6.258   5.923   2.191 -0.4150 -0.5168  0.4079
 6688TIP3    H141623   6.230   5.834   2.169  1.9993 -1.0682 -0.6753
 6688TIP3    H241624   6.298   5.915   2.278 -0.3376 -0.4509  0.3783
 6689TIP3   OH241625   5.444   0.977   7.753 -0.0439 -0.0016 -0.4598
 6689TIP3    H141626   5.406   0.914   7.692 -0.2080 -1.2542  0.8956
 6689TIP3    H241627   5.471   0.925   7.828  0.6192  1.4367  0.3413
 6690TIP3   OH241628   3.253   3.338   1.114  0.3042 -0.1153 -0.0882
 6690TIP3    H141629   3.168   3.306   1.082  1.0990 -0.9156 -1.5033
 6690TIP3    H241630   3.257   3.306   1.205 -0.0568 -1.8702 -0.6366
 6691TIP3   OH241631   3.525   6.509   1.484 -0.6579 -0.0066  0.0147
 6691TIP3    H141632   3.612   6.494   1.449 -0.4659 -1.6623  1.0355
 6691TIP3    H241633   3.527   6.466   1.570 -1.7494  1.9950  1.1058
 6692TIP3   OH241634   6.087   2.988   0.916  0.4270 -0.5657 -0.3995
 6692TIP3    H141635   6.057   2.940   0.993 -1.2581 -0.4230 -0.9224
 6692TIP3    H241636   6.033   2.954   0.844 -1.5626  2.7027 -0.6588
 6693TIP3   OH241637   2.499   6.423   6.933 -1.3033  0.3965 -0.2546
 6693TIP3    H141638   2.432   6.388   6.875 -1.8473 -1.3046  1.3193
 6693TIP3    H241639   2.456   6.431   7.018  0.2225  0.1117  0.5862
 6694TIP3   OH241640   6.235   6.165   8.371  0.0902  0.0740 -0.0126
 6694TIP3    H141641   6.166   6.231   8.377  0.2835  0.3133 -0.4280
 6694TIP3    H241642   6.246   6.134   8.461  0.2924  0.8995  0.2551
 6695TIP3   OH241643   0.919   2.043   7.906 -0.2446  0.4707 -0.6054
 6695TIP3    H141644   0.955   2.105   7.969  0.8534 -0.4295 -0.3149
 6695TIP3    H241645   0.978   2.047   7.830  0.8151 -1.3311  0.0510
 6696TIP3   OH241646   4.342   2.360   6.247 -0.6409  0.0339 -0.1650
 6696TIP3    H141647   4.393   2.309   6.310 -0.7888  2.3257  1.9421
 6696TIP3    H241648   4.408   2.396   6.187 -0.4116 -1.4509 -0.8488
 6697TIP3   OH241649   2.738   3.438   1.199  0.2560 -0.9140  0.2530
 6697TIP3    H141650   2.698   3.354   1.180 -0.7830 -0.2478 -0.6776
 6697TIP3    H241651   2.772   3.430   1.288 -1.0549 -1.8624  0.6935
 6698TIP3   OH241652   5.775   6.768   8.238 -0.0602  0.1900 -0.1432
 6698TIP3    H141653   5.773   6.682   8.282 -0.6718 -0.4363 -1.3471
 6698TIP3    H241654   5.699   6.815   8.273 -0.3926 -0.2033 -0.3272
 6699TIP3   OH241655   1.542   2.868   0.102 -0.5003 -0.2060 -0.0105
 6699TIP3    H141656   1.451   2.893   0.082  0.3823  3.4793 -0.0501
 6699TIP3    H241657   1.573   2.827   0.021 -1.6609 -0.1155 -0.5306
 6700TIP3   OH241658   3.284   1.144   8.491  0.2974 -0.7592  0.6029
 6700TIP3    H141659   3.248   1.175   8.574  1.1644  0.4763  0.5442
 6700TIP3    H241660   3.318   1.057   8.510 -0.1758 -0.7855  1.3559
 6701TIP3   OH241661   3.494   0.973   7.309  0.3225 -0.3580 -0.1179
 6701TIP3    H141662   3.521   0.881   7.306 -1.0523 -0.7768 -2.2154
 6701TIP3    H241663   3.401   0.971   7.285  0.1959  1.5556  0.0781
 6702TIP3   OH241664   3.362   3.755   0.879  0.2470 -0.3924 -0.1742
 6702TIP3    H141665   3.288   3.770   0.938  1.2863 -0.4517  1.2073
 6702TIP3    H241666   3.389   3.665   0.899  1.5226  0.0869  0.3442
 6703TIP3   OH241667   2.919   5.924   1.877 -0.1460  0.3381  0.3482
 6703TIP3    H141668   2.946   5.858   1.814 -1.6597 -2.7090  2.6416
 6703TIP3    H241669   2.864   5.984   1.826  1.0358 -0.2734 -1.7590
 6704TIP3   OH241670   6.686   1.795   1.383 -0.4053 -0.5655 -0.4034
 6704TIP3    H141671   6.640   1.795   1.467  1.0842 -0.2969  0.4463
 6704TIP3    H241672   6.622   1.759   1.321 -2.0488  0.6009  0.5276
 6705TIP3   OH241673   0.528   1.796   1.811 -0.7899 -0.1823 -0.0927
 6705TIP3    H141674   0.481   1.874   1.840  1.0649  1.1739 -0.5539
 6705TIP3    H241675   0.589   1.778   1.883  0.3280  0.1732 -0.9176
 6706TIP3   OH241676   0.414   6.493   7.343  0.6045  0.2439  0.6150
 6706TIP3    H141677   0.391   6.421   7.284  1.6031  1.1493 -0.9556
 6706TIP3    H241678   0.330   6.521   7.380  0.0447 -0.8328  0.2055
 6707TIP3   OH241679   2.277   1.890   7.325 -0.6900 -0.5653  0.4490
 6707TIP3    H141680   2.318   1.915   7.242  1.3141 -1.1372  1.2085
 6707TIP3    H241681   2.279   1.794   7.324 -1.2444 -0.5848  0.8800
 6708TIP3   OH241682   0.806   0.424   0.241 -0.3892  0.7040  0.6814
 6708TIP3    H141683   0.848   0.436   0.156  0.5388 -3.3279  0.3608
 6708TIP3    H241684   0.878   0.424   0.304 -0.6081 -0.1510  0.9413
 6709TIP3   OH241685   6.331   3.795   7.141  0.3893 -0.2370  0.3425
 6709TIP3    H141686   6.420   3.783   7.173  0.0137 -1.4177  1.0066
 6709TIP3    H241687   6.327   3.745   7.060  0.5397  0.4317 -0.0796
 6710TIP3   OH241688   5.484   0.161   7.465 -0.0175  0.0707 -0.3605
 6710TIP3    H141689   5.398   0.124   7.483 -0.3340  1.2478  0.7775
 6710TIP3    H241690   5.467   0.255   7.453  1.1311  0.3597  0.1758
 6711TIP3   OH241691   6.582   3.822   0.970 -0.6506 -0.0893 -0.9491
 6711TIP3    H141692   6.588   3.873   0.889  0.4923 -3.6521 -3.3541
 6711TIP3    H241693   6.669   3.829   1.009 -0.9124  0.8252 -0.4870
 6712TIP3   OH241694   2.203   4.212   1.536 -0.1241  0.2903  0.7631
 6712TIP3    H141695   2.136   4.280   1.531  0.6482  1.0072 -0.4314
 6712TIP3    H241696   2.249   4.229   1.618 -1.0152  0.1348  1.3155
 6713TIP3   OH241697   0.718   1.446   7.635 -0.0452  0.3686  0.5608
 6713TIP3    H141698   0.764   1.493   7.566  0.4317 -1.0881 -0.1519
 6713TIP3    H241699   0.778   1.376   7.660 -1.4093 -0.9036  0.3870
 6714TIP3   OH241700   3.771   5.202   8.588  0.7952 -0.8356 -0.3728
 6714TIP3    H141701   3.810   5.257   8.521  0.4387  1.1326  0.9478
 6714TIP3    H241702   3.678   5.199   8.565  0.4245  0.9557  0.6729
 6715TIP3   OH241703   2.260   3.959   7.928  0.3465  0.0283  0.1132
 6715TIP3    H141704   2.298   4.028   7.983 -0.1666  0.6019 -0.2459
 6715TIP3    H241705   2.176   3.994   7.899  0.3326 -0.5202 -0.5371
 6716TIP3   OH241706   4.166   3.234   1.689 -0.6771 -0.8417  0.1526
 6716TIP3    H141707   4.121   3.227   1.773 -1.2575  0.4994 -0.0224
 6716TIP3    H241708   4.172   3.328   1.673 -1.2183 -1.0782 -1.6538
 6717TIP3   OH241709   6.455   1.425   1.481  0.0281  0.3693  0.0679
 6717TIP3    H141710   6.445   1.459   1.392  0.8113  0.7530  0.1168
 6717TIP3    H241711   6.386   1.469   1.531 -0.0185  0.6308 -0.2201
 6718TIP3   OH241712   1.921   6.824   7.534  0.3868 -0.8918 -0.2698
 6718TIP3    H141713   1.973   6.855   7.460  0.3050 -0.4491 -0.1502
 6718TIP3    H241714   1.843   6.880   7.533 -0.4308 -2.0156 -0.8804
 6719TIP3   OH241715   4.359   2.555   0.305 -0.0592  0.2159  0.0562
 6719TIP3    H141716   4.373   2.462   0.288 -1.8479 -0.2465  0.8458
 6719TIP3    H241717   4.361   2.563   0.400  0.0636  1.0013  0.0003
 6720TIP3   OH241718   4.783   6.577   1.981  1.3859 -0.2848 -0.3869
 6720TIP3    H141719   4.688   6.593   1.984  1.5001  1.5098 -3.3568
 6720TIP3    H241720   4.805   6.552   2.071 -1.8372 -0.5225  0.4681
 6721TIP3   OH241721   4.981   1.031   8.014 -0.5970  0.0753  0.2294
 6721TIP3    H141722   4.935   1.108   8.047  1.2656  0.7480  1.4261
 6721TIP3    H241723   5.074   1.053   8.023  0.0196 -2.7663  1.7951
 6722TIP3   OH241724   5.741   5.093   7.444 -0.2507 -0.4592  0.0664
 6722TIP3    H141725   5.688   5.019   7.414  1.7452 -1.5037 -1.0937
 6722TIP3    H241726   5.755   5.145   7.365  0.6365 -0.3398  0.3006
 6723TIP3   OH241727   4.365   2.415   8.223 -0.3365  0.5734 -0.2020
 6723TIP3    H141728   4.276   2.444   8.240 -0.5538  0.3413 -0.9146
 6723TIP3    H241729   4.362   2.377   8.135 -0.2692 -2.3511  0.9474
 6724TIP3   OH241730   4.054   3.977   7.843  0.1340  0.3558 -0.3610
 6724TIP3    H141731   4.142   3.980   7.880 -0.0962  1.1159  0.1539
 6724TIP3    H241732   3.997   4.002   7.916 -0.7281 -2.1519 -0.0714
 6725TIP3   OH241733   3.479   4.837   0.326 -0.5062  0.0351  0.3767
 6725TIP3    H141734   3.438   4.801   0.247  0.3338 -0.2937  0.0772
 6725TIP3    H241735   3.483   4.931   0.310 -0.4733 -0.0128  0.0896
 6726TIP3   OH241736   5.752   3.791   1.606  0.1191 -0.2240  0.1116
 6726TIP3    H141737   5.791   3.876   1.581  0.9124  0.0293  2.0664
 6726TIP3    H241738   5.666   3.792   1.565  0.2944  1.3355 -0.2996
 6727TIP3   OH241739   4.728   5.668   7.654  0.3073  0.0089 -0.1940
 6727TIP3    H141740   4.699   5.591   7.703  0.2805  0.5984  0.7322
 6727TIP3    H241741   4.823   5.661   7.652  0.2682 -0.4390 -0.7735
 6728TIP3   OH241742   5.933   0.197   0.346  0.2441  0.5047  0.0938
 6728TIP3    H141743   6.027   0.185   0.360  0.5498  1.4657 -0.9039
 6728TIP3    H241744   5.924   0.290   0.324 -0.9537  0.4396  0.2266
 6729TIP3   OH241745   6.440   2.246   1.884 -0.2741  0.4230 -0.1155
 6729TIP3    H141746   6.477   2.160   1.864  0.4746  1.1138 -1.8351
 6729TIP3    H241747   6.449   2.254   1.979  2.4479 -0.1487 -0.2491
 6730TIP3   OH241748   6.409   3.089   8.497  0.5598  0.3102  0.2698
 6730TIP3    H141749   6.376   3.091   8.587 -0.8333 -0.3635 -0.1857
 6730TIP3    H241750   6.441   2.999   8.485 -1.5591 -0.3901 -0.6303
 6731TIP3   OH241751   1.779   4.700   8.052  0.2872  0.4611  0.3118
 6731TIP3    H141752   1.869   4.711   8.023 -0.2552  2.8512 -0.6734
 6731TIP3    H241753   1.771   4.756   8.129 -0.2180 -0.2530  0.8066
 6732TIP3   OH241754   1.114   6.090   2.197  0.1195 -0.0743 -0.1655
 6732TIP3    H141755   1.119   6.001   2.161  1.8857 -0.1095  0.0522
 6732TIP3    H241756   1.205   6.119   2.199 -0.3791  1.5253  0.3322
 6733TIP3   OH241757   3.772   0.331   1.283  0.1739  0.2529  0.4461
 6733TIP3    H141758   3.863   0.336   1.252 -0.2105  0.1198 -0.7476
 6733TIP3    H241759   3.726   0.398   1.232 -0.7976 -1.0552 -0.4483
 6734TIP3   OH241760   3.919   2.680   1.110 -0.2374 -0.6505  0.1820
 6734TIP3    H141761   3.888   2.662   1.022 -1.6771 -1.0123  0.7328
 6734TIP3    H241762   3.905   2.598   1.158 -3.7722  0.7697  1.8801
 6735TIP3   OH241763   5.823   0.157   1.503  0.5996  0.0814 -0.4480
 6735TIP3    H141764   5.804   0.198   1.418  1.9056  1.3961 -0.1279
 6735TIP3    H241765   5.872   0.222   1.551 -1.1970 -0.1463  1.8587
 6736TIP3   OH241766   2.577   5.553   7.288  0.5407 -0.6451  0.1023
 6736TIP3    H141767   2.618   5.608   7.220 -1.1121 -0.0586 -0.4591
 6736TIP3    H241768   2.611   5.589   7.370 -2.1763  2.8824 -0.0746
 6737TIP3   OH241769   1.804   2.357   8.135 -0.3155  0.3806 -0.2911
 6737TIP3    H141770   1.796   2.437   8.083  0.3995 -0.2972 -1.4592
 6737TIP3    H241771   1.749   2.294   8.090 -1.4627  0.3837  1.0391
 6738TIP3   OH241772   5.662   0.952   7.982  0.1264  0.3972 -0.2143
 6738TIP3    H141773   5.708   0.873   8.011 -0.0408 -0.0989 -1.2728
 6738TIP3    H241774   5.603   0.973   8.055  0.8564  0.1025  0.4687
 6739TIP3   OH241775   4.724   6.757   8.035  0.3943 -0.4052 -0.5799
 6739TIP3    H141776   4.754   6.847   8.030  2.0728 -0.9541 -1.3128
 6739TIP3    H241777   4.690   6.747   8.123  1.9916  0.4348  0.1773
 6740TIP3   OH241778   0.023   2.796   8.531 -0.5591  0.2295 -0.5450
 6740TIP3    H141779   0.023   2.877   8.582  0.4766 -0.4751  0.6328
 6740TIP3    H241780   0.099   2.804   8.472  0.8223 -0.7055  1.0223
 6741TIP3   OH241781   1.001   0.634   8.440  0.0940 -0.0768 -0.0259
 6741TIP3    H141782   0.939   0.575   8.483 -0.2507  0.5972  0.4197
 6741TIP3    H241783   1.085   0.613   8.479 -0.3986  1.4353  2.0362
 6742TIP3   OH241784   0.427   2.196   0.251  0.3678 -0.0168  0.0851
 6742TIP3    H141785   0.427   2.287   0.280 -0.5319  0.1048 -0.2621
 6742TIP3    H241786   0.434   2.201   0.156 -1.3792 -0.2184 -0.0896
 6743TIP3   OH241787   0.829   0.509   7.940 -0.0744 -0.5594 -0.3965
 6743TIP3    H141788   0.851   0.416   7.951 -0.7890 -0.5808  1.1483
 6743TIP3    H241789   0.840   0.546   8.028  1.0289  1.0195 -1.1518
 6744TIP3   OH241790   1.907   3.236   7.170 -0.0620  0.3771  0.5745
 6744TIP3    H141791   1.920   3.150   7.209 -0.4039 -0.4556 -1.0512
 6744TIP3    H241792   1.880   3.218   7.080 -2.0658  2.1370  0.7337
 6745TIP3   OH241793   0.193   0.312   7.595  0.0666 -0.3820  0.1318
 6745TIP3    H141794   0.109   0.315   7.548 -0.2842  0.4393  0.7789
 6745TIP3    H241795   0.259   0.334   7.529 -0.4063  0.6602 -0.0115
 6746TIP3   OH241796   0.867   5.463   0.147  0.4659  0.0458  0.0826
 6746TIP3    H141797   0.833   5.545   0.184  0.8929  0.5162 -0.5571
 6746TIP3    H241798   0.953   5.486   0.114  0.4879 -0.6124 -0.3242
 6747TIP3   OH241799   5.516   2.478   7.697 -0.7848 -0.1564  0.4256
 6747TIP3    H141800   5.598   2.527   7.701  0.5887 -1.9675 -2.2277
 6747TIP3    H241801   5.462   2.525   7.633 -0.2617 -0.9381 -0.6253
 6748TIP3   OH241802   3.653   2.646   1.660 -0.0197  0.5977 -0.0283
 6748TIP3    H141803   3.704   2.684   1.731  0.2623  0.5568 -0.2056
 6748TIP3    H241804   3.563   2.676   1.675 -0.1346 -0.1149  0.8441
 6749TIP3   OH241805   1.486   3.880   0.182 -0.1077  0.6093 -0.1205
 6749TIP3    H141806   1.525   3.807   0.229  0.0439 -0.0320 -1.2214
 6749TIP3    H241807   1.402   3.894   0.227  0.0846  0.1064  0.4175
 6750TIP3   OH241808   2.255   6.384   0.851  0.4376  0.1280  0.3492
 6750TIP3    H141809   2.210   6.467   0.867  1.4682  0.8247 -0.2080
 6750TIP3    H241810   2.309   6.400   0.773 -0.3983 -1.5093 -0.6319
 6751TIP3   OH241811   6.613   3.519   1.087 -0.4828 -0.9547  0.1106
 6751TIP3    H141812   6.672   3.492   1.158  1.5164 -0.3818 -1.2458
 6751TIP3    H241813   6.653   3.484   1.008 -1.5915  0.0785 -0.9507
 6752TIP3   OH241814   2.427   4.904   6.636 -0.5809 -0.4584 -0.0314
 6752TIP3    H141815   2.516   4.907   6.602 -0.3104 -0.2697  0.6732
 6752TIP3    H241816   2.377   4.858   6.568  0.1041 -0.8001 -0.3181
 6753TIP3   OH241817   3.328   6.137   7.185 -0.7150 -0.6783  0.2980
 6753TIP3    H141818   3.400   6.191   7.154 -0.5752 -0.3827  1.1053
 6753TIP3    H241819   3.297   6.091   7.107  0.5110 -1.0158 -0.0108
 6754TIP3   OH241820   0.780   1.983   2.000  0.1085 -0.2879  0.5950
 6754TIP3    H141821   0.864   1.938   1.993 -0.2694 -1.5218  2.8821
 6754TIP3    H241822   0.722   1.919   2.041 -2.2654  0.1878 -1.7242
 6755TIP3   OH241823   0.918   1.245   6.853 -0.2240  0.3693 -0.3455
 6755TIP3    H141824   0.859   1.298   6.907  0.6288  0.8046  0.1793
 6755TIP3    H241825   0.994   1.230   6.908  0.9364  1.3265 -1.6158
 6756TIP3   OH241826   1.055   4.401   0.425 -0.2414  0.0967 -0.5804
 6756TIP3    H141827   1.080   4.398   0.518  1.0973  0.1217 -0.9281
 6756TIP3    H241828   1.090   4.485   0.394 -1.4776  0.5171 -0.9057
 6757TIP3   OH241829   6.469   4.643   1.659  0.3890 -0.0370  0.1607
 6757TIP3    H141830   6.428   4.720   1.699  1.6297  0.8260 -0.1472
 6757TIP3    H241831   6.508   4.596   1.732 -0.2327 -0.2917  0.3329
 6758TIP3   OH241832   3.457   4.231   8.410 -0.5257  0.4841  0.1321
 6758TIP3    H141833   3.368   4.198   8.426 -0.0839 -0.0976  1.4686
 6758TIP3    H241834   3.513   4.154   8.420  0.1304  0.8010 -0.9264
 6759TIP3   OH241835   0.091   1.120   1.551 -0.2418 -0.1293 -0.1449
 6759TIP3    H141836   0.138   1.155   1.476 -0.2637 -3.5473 -1.9976
 6759TIP3    H241837   0.004   1.098   1.516 -1.1064  0.4299  1.5557
 6760TIP3   OH241838   4.748   1.938   8.277 -0.3008  0.0916 -0.8716
 6760TIP3    H141839   4.766   1.924   8.184 -0.2763 -2.0577 -0.5892
 6760TIP3    H241840   4.811   1.881   8.322 -1.8625 -0.7059  0.3731
 6761TIP3   OH241841   5.675   3.677   7.839  0.5900  0.1535  0.8755
 6761TIP3    H141842   5.639   3.589   7.850  1.6102 -0.2356  1.2771
 6761TIP3    H241843   5.617   3.721   7.777 -0.8926 -0.2480  1.9426
 6762TIP3   OH241844   3.517   5.028   7.373 -0.5263 -0.5251 -0.4547
 6762TIP3    H141845   3.609   5.051   7.390 -0.6289  0.1129 -0.7496
 6762TIP3    H241846   3.523   4.956   7.310 -0.2381  0.4435 -1.5713
 6763TIP3   OH241847   0.393   5.454   7.476 -0.3270  0.4715 -0.4301
 6763TIP3    H141848   0.453   5.500   7.534  0.2783 -0.8649  0.0486
 6763TIP3    H241849   0.336   5.405   7.536  0.8885 -1.6596 -0.8991
 6764TIP3   OH241850   4.523   6.253   0.430 -0.7761  0.4088 -0.7328
 6764TIP3    H141851   4.517   6.332   0.377  0.7877  0.9316 -0.1821
 6764TIP3    H241852   4.548   6.184   0.368  3.5150  1.4643 -0.4994
 6765TIP3   OH241853   6.029   1.071   7.803 -0.4533 -0.3824 -0.1017
 6765TIP3    H141854   5.965   1.135   7.771  0.6860  0.8181 -0.0387
 6765TIP3    H241855   6.002   0.988   7.761 -0.7180  0.5424 -1.8721
 6766TIP3   OH241856   3.712   5.333   2.023 -0.1621 -0.5232  0.4668
 6766TIP3    H141857   3.789   5.344   2.079  0.5036 -0.4266 -0.4412
 6766TIP3    H241858   3.642   5.306   2.083  0.8285 -1.6598  1.1515
 6767TIP3   OH241859   0.683   1.058   7.793 -0.4604 -0.2956 -0.3033
 6767TIP3    H141860   0.741   1.123   7.754  1.7366 -1.4497  0.8707
 6767TIP3    H241861   0.668   1.089   7.882  1.1618 -1.6214  0.4982
 6768TIP3   OH241862   4.745   2.893   6.883  0.0334  0.5402 -0.1923
 6768TIP3    H141863   4.821   2.835   6.882 -1.1745 -1.1571  1.0924
 6768TIP3    H241864   4.670   2.835   6.870 -1.1221  2.0833 -0.7668
 6769TIP3   OH241865   4.193   0.708   8.123  0.5246 -0.1872  0.3449
 6769TIP3    H141866   4.200   0.783   8.063  0.8923 -0.6902 -0.2487
 6769TIP3    H241867   4.116   0.660   8.093  0.8753 -0.5960  0.0953
 6770TIP3   OH241868   3.034   5.956   0.859  0.5498  0.4209  0.1902
 6770TIP3    H141869   2.962   5.915   0.907  0.6803 -0.5514 -0.4069
 6770TIP3    H241870   3.096   5.983   0.926 -0.0776  0.6897  0.6723
 6771TIP3   OH241871   3.615   1.634   7.404 -0.3884  0.0705  0.0963
 6771TIP3    H141872   3.691   1.679   7.368 -1.5253  1.3442 -0.8117
 6771TIP3    H241873   3.546   1.700   7.406 -1.3123 -0.8784  1.4967
 6772TIP3   OH241874   5.877   1.255   0.257  0.6279 -0.4096  0.2697
 6772TIP3    H141875   5.781   1.254   0.261  0.6377  0.4299  1.4190
 6772TIP3    H241876   5.905   1.190   0.321  0.8222 -0.7484 -0.1610
 6773TIP3   OH241877   4.213   1.782   2.330 -0.0767  0.8184  0.2202
 6773TIP3    H141878   4.179   1.865   2.296 -1.7188  0.5336  1.0774
 6773TIP3    H241879   4.155   1.716   2.294  0.5351  0.1362  0.4602
 6774TIP3   OH241880   0.788   5.189   7.531 -0.6956 -0.3313 -0.5483
 6774TIP3    H141881   0.737   5.241   7.468 -1.3874 -0.1811  0.1277
 6774TIP3    H241882   0.723   5.154   7.591 -0.1819 -1.6353 -0.7300
 6775TIP3   OH241883   4.646   6.424   0.236  0.0675  0.0599 -0.3499
 6775TIP3    H141884   4.580   6.476   0.189  1.3123  0.5402 -1.6425
 6775TIP3    H241885   4.721   6.423   0.177  1.3085 -0.2824  1.1837
 6776TIP3   OH241886   0.288   0.445   0.040  0.3723  0.1855 -0.0165
 6776TIP3    H141887   0.347   0.518   0.061  2.1751 -1.4126  0.7127
 6776TIP3    H241888   0.305   0.426  -0.052  0.5618  0.0899  0.0387
 6777TIP3   OH241889   2.165   4.226   7.555 -0.1843 -0.1579 -0.5402
 6777TIP3    H141890   2.179   4.308   7.603 -0.2477 -1.2354  1.4015
 6777TIP3    H241891   2.079   4.237   7.515 -1.4174 -0.2411  1.9013
 6778TIP3   OH241892   2.521   2.936   0.038  0.4265  0.4129 -0.1750
 6778TIP3    H141893   2.506   2.970   0.126  1.4016 -0.5721  0.3886
 6778TIP3    H241894   2.552   3.011  -0.012 -1.9573  1.4577 -0.2343
 6779TIP3   OH241895   4.803   0.195   1.098  0.0398 -0.7046  0.4934
 6779TIP3    H141896   4.770   0.132   1.035  0.2836 -1.7959  1.4338
 6779TIP3    H241897   4.754   0.275   1.080  1.0180 -0.5655 -1.9532
 6780TIP3   OH241898   2.337   4.447   7.471  0.2116 -0.1109 -0.4824
 6780TIP3    H141899   2.359   4.525   7.421 -0.5535 -0.3509 -1.2273
 6780TIP3    H241900   2.413   4.432   7.528  1.1368  0.1367 -1.6128
 6781TIP3   OH241901   3.770   6.336   6.294  0.1188  0.3780 -0.2121
 6781TIP3    H141902   3.764   6.324   6.199 -2.5939 -1.0606  0.0562
 6781TIP3    H241903   3.779   6.248   6.329  2.5775  0.9860  0.8887
 6782TIP3   OH241904   1.794   3.800   7.775 -0.1325 -0.0010 -0.5491
 6782TIP3    H141905   1.742   3.881   7.770 -0.3142 -0.1826 -4.1840
 6782TIP3    H241906   1.728   3.730   7.780 -0.0757 -0.0270 -0.1858
 6783TIP3   OH241907   3.439   2.373   0.005 -0.1484  0.3062 -0.3555
 6783TIP3    H141908   3.405   2.351   0.091  0.4918 -1.5102 -0.5332
 6783TIP3    H241909   3.534   2.376   0.015 -0.1042  0.7771 -0.8458
 6784TIP3   OH241910   0.631   5.465   7.884 -0.1194 -0.2293 -0.0538
 6784TIP3    H141911   0.662   5.498   7.968  0.4912  1.4569 -0.9068
 6784TIP3    H241912   0.561   5.403   7.908 -0.4203  0.7020  1.6665
 6785TIP3   OH241913   5.864   2.937   6.864 -0.0070 -0.0680  0.0098
 6785TIP3    H141914   5.800   2.978   6.922  0.9733  0.3853  0.7965
 6785TIP3    H241915   5.919   3.010   6.835  0.2142 -0.4667 -0.5882
 6786TIP3   OH241916   5.640   2.627   8.624 -0.0268  0.1479 -0.3178
 6786TIP3    H141917   5.732   2.608   8.646 -0.1906 -0.0890  0.1954
 6786TIP3    H241918   5.644   2.673   8.540  0.4564 -1.2923 -1.1152
 6787TIP3   OH241919   0.775   0.764   7.058 -0.1817 -0.2897 -0.2618
 6787TIP3    H141920   0.688   0.790   7.088  0.8242  0.5749  2.2550
 6787TIP3    H241921   0.806   0.839   7.007 -0.2659  0.1503  0.3198
 6788TIP3   OH241922   0.549   0.382   6.753  0.3522 -0.3950 -0.4379
 6788TIP3    H141923   0.624   0.324   6.745 -0.6081 -1.6759 -0.3622
 6788TIP3    H241924   0.583   0.459   6.800  2.1747  0.1476 -2.4626
 6789TIP3   OH241925   2.171   2.000   8.071  0.0832  0.1642 -0.0151
 6789TIP3    H141926   2.191   1.973   8.160  1.8948  1.0335 -0.0981
 6789TIP3    H241927   2.147   2.092   8.078  1.8422  0.7138 -0.5379
 6790TIP3   OH241928   5.212   0.543   1.648 -0.5283  0.1221  0.0667
 6790TIP3    H141929   5.234   0.452   1.627 -2.7844 -0.2367 -1.1357
 6790TIP3    H241930   5.255   0.595   1.580  0.8270 -0.0173  0.8003
 6791TIP3   OH241931   3.107   0.859   8.599  0.0156  0.2450  0.0151
 6791TIP3    H141932   3.118   0.838   8.507  1.5641  0.6522  0.0856
 6791TIP3    H241933   3.183   0.912   8.621  0.6442 -1.3417  1.9707
 6792TIP3   OH241934   4.069   2.218   2.215  0.1556  0.2844  0.2773
 6792TIP3    H141935   4.088   2.132   2.177  0.1741 -0.0707  1.0582
 6792TIP3    H241936   4.091   2.281   2.147  2.3702 -0.1948  0.4820
 6793TIP3   OH241937   3.807   0.925   8.519  0.0396 -0.2728 -0.0052
 6793TIP3    H141938   3.738   0.873   8.476 -0.2353  0.1804 -0.1141
 6793TIP3    H241939   3.888   0.882   8.493 -0.0291  0.7035 -2.0077
 6794TIP3   OH241940   4.173   4.008   7.101 -0.1858  0.9749  0.0118
 6794TIP3    H141941   4.179   4.028   7.194 -0.9228  0.6606  0.1350
 6794TIP3    H241942   4.096   3.952   7.093  0.8130 -0.3897 -0.5625
 6795TIP3   OH241943   5.153   2.834   7.607  0.2619 -0.2955 -0.2167
 6795TIP3    H141944   5.119   2.813   7.520  0.7290 -1.2259 -0.1897
 6795TIP3    H241945   5.195   2.753   7.636 -0.1649 -0.0902  1.0107
 6796TIP3   OH241946   2.572   3.397   7.576  0.0107  0.0629  0.4346
 6796TIP3    H141947   2.619   3.446   7.643 -1.8334  1.1138  1.0430
 6796TIP3    H241948   2.484   3.435   7.576 -0.8433 -1.7578 -0.6641
 6797TIP3   OH241949   0.815   5.439   5.936  0.3564  0.8707  0.0551
 6797TIP3    H141950   0.865   5.487   6.002  1.1204  3.3045 -2.0868
 6797TIP3    H241951   0.724   5.455   5.959  0.5032 -0.7441  2.0594
 6798TIP3   OH241952   5.500   4.624   1.373  0.6013  0.4690 -0.3654
 6798TIP3    H141953   5.471   4.544   1.330  0.1620  0.0650  0.6740
 6798TIP3    H241954   5.436   4.690   1.346 -0.2443 -0.0080  0.4602
 6799TIP3   OH241955   1.784   0.356   0.967 -0.4652 -0.4716 -0.2947
 6799TIP3    H141956   1.759   0.393   0.882 -0.5304 -0.3002 -0.2021
 6799TIP3    H241957   1.875   0.382   0.979 -0.7589  0.3889  0.1535
 6800TIP3   OH241958   2.798   3.448   0.040 -0.2689  0.0192 -0.5480
 6800TIP3    H141959   2.771   3.370   0.089  0.2766  0.3551  0.3273
 6800TIP3    H241960   2.724   3.467  -0.017 -0.8733 -0.4940  0.0356
 6801TIP3   OH241961   1.252   5.600   6.275  0.3338 -0.5225  0.8046
 6801TIP3    H141962   1.302   5.529   6.236  1.2037 -0.6875  2.1588
 6801TIP3    H241963   1.204   5.560   6.347 -0.2580  0.0075  0.7166
 6802TIP3   OH241964   6.843   2.469   7.202 -0.0025  0.4034 -0.5896
 6802TIP3    H141965   6.837   2.420   7.120  1.0722 -0.7912 -0.0026
 6802TIP3    H241966   6.937   2.473   7.220 -0.2496  0.0035  0.9341
 6803TIP3   OH241967   3.724   3.189   0.690 -0.2150  0.6000  0.1562
 6803TIP3    H141968   3.794   3.235   0.644  0.4610  0.0683  0.6183
 6803TIP3    H241969   3.685   3.132   0.624  0.1981  0.4535  0.0368
 6804TIP3   OH241970   6.629   1.926   8.669 -0.3369  0.2286 -0.0424
 6804TIP3    H141971   6.615   2.008   8.621  0.6859  0.0635 -0.6718
 6804TIP3    H241972   6.706   1.942   8.723  0.0614 -0.3971 -0.4004
 6805TIP3   OH241973   1.631   3.241   7.193 -0.1661 -0.1387 -0.5926
 6805TIP3    H141974   1.611   3.180   7.123 -0.4446 -0.3135 -0.3615
 6805TIP3    H241975   1.726   3.253   7.188  0.3374 -2.6510  1.0000
 6806TIP3   OH241976   3.538   0.759   1.418  0.2910 -0.3717  0.0685
 6806TIP3    H141977   3.579   0.810   1.488  0.1866  0.2996 -0.3442
 6806TIP3    H241978   3.489   0.690   1.463  1.9962 -1.2993  0.5650
 6807TIP3   OH241979   2.016   5.763   7.844  0.0456  0.4181 -0.6843
 6807TIP3    H141980   2.015   5.843   7.895  0.9040 -0.3856  0.6572
 6807TIP3    H241981   2.105   5.757   7.809  0.1862 -0.2828 -0.2195
 6808TIP3   OH241982   6.828   0.930   0.859 -0.2180  0.3293  0.0323
 6808TIP3    H141983   6.913   0.887   0.851 -0.0326  0.1896  2.1774
 6808TIP3    H241984   6.783   0.910   0.777  1.9541  0.7703 -1.3249
 6809TIP3   OH241985   3.261   2.455   1.323  0.5903 -0.4768 -0.0004
 6809TIP3    H141986   3.189   2.459   1.260  0.6804 -0.8643 -0.1305
 6809TIP3    H241987   3.248   2.532   1.379  0.4855 -0.1562 -0.4629
 6810TIP3   OH241988   2.060   3.124   1.521  0.3289 -0.6407 -0.5205
 6810TIP3    H141989   2.081   3.061   1.590  1.1459 -0.5843 -0.7072
 6810TIP3    H241990   2.144   3.147   1.483  0.1052  1.0289 -0.0726
 6811TIP3   OH241991   2.465   1.972   2.761 -0.4251 -0.1900 -0.0996
 6811TIP3    H141992   2.386   1.943   2.714 -1.4676  0.2429  1.3206
 6811TIP3    H241993   2.538   1.935   2.710 -1.5867 -3.4736  0.3459
 6812TIP3   OH241994   6.475   1.713   0.609  0.0743  0.3172 -0.1454
 6812TIP3    H141995   6.425   1.708   0.690  0.5085 -0.4922  0.0887
 6812TIP3    H241996   6.565   1.693   0.635  0.1269 -0.5080 -0.9016
 6813TIP3   OH241997   1.435   2.791   2.304  0.4402  0.1569  0.2724
 6813TIP3    H141998   1.513   2.797   2.359 -0.8132  0.2714  2.1216
 6813TIP3    H241999   1.373   2.852   2.343 -1.1405 -1.1061 -0.1724
 6814TIP3   OH242000   3.011   1.929   7.050 -0.1500  0.4156  0.5141
 6814TIP3    H142001   2.983   2.003   6.997  0.0052  1.4141  1.7931
 6814TIP3    H242002   2.989   1.852   6.997 -1.7642  1.2981 -0.1755
 6815TIP3   OH242003   4.960   3.869   7.602  0.9648 -0.2197  0.1476
 6815TIP3    H142004   4.948   3.775   7.619  2.2342 -0.4070  0.0905
 6815TIP3    H242005   4.939   3.880   7.510 -2.4704  0.1779  0.8389
 6816TIP3   OH242006   1.632   3.646   0.276 -0.3128 -0.1422 -0.1483
 6816TIP3    H142007   1.582   3.575   0.235 -3.3240  1.3893  0.5819
 6816TIP3    H242008   1.666   3.609   0.357 -0.7674 -1.0725 -0.3734
 6817TIP3   OH242009   4.287   2.144   1.916 -0.2070 -0.2156  0.2736
 6817TIP3    H142010   4.267   2.213   1.980  0.6569 -1.1437  1.6074
 6817TIP3    H242011   4.209   2.139   1.862 -0.8656  0.8090  1.0756
 6818TIP3   OH242012   5.232   1.108   7.517  0.1580  0.0097 -0.3430
 6818TIP3    H142013   5.314   1.137   7.477 -0.7497  2.1183 -0.7993
 6818TIP3    H242014   5.251   1.018   7.546  2.4067  0.1941 -0.9854
 6819TIP3   OH242015   1.774   5.266   7.918 -0.0687 -0.2204  0.2717
 6819TIP3    H142016   1.803   5.211   7.991 -0.3771 -1.7337 -0.6824
 6819TIP3    H242017   1.747   5.203   7.851  0.1425  1.1221 -1.1205
 6820TIP3   OH242018   4.921   0.398   8.274  0.0475 -0.3047  0.1171
 6820TIP3    H142019   4.962   0.389   8.360 -1.2944  0.1684  0.8274
 6820TIP3    H242020   4.836   0.353   8.283  0.2961 -1.1156 -1.2684
 6821TIP3   OH242021   1.681   3.804   1.218  0.1829  0.2195 -0.1345
 6821TIP3    H142022   1.592   3.790   1.187  1.0734  0.7304 -3.3008
 6821TIP3    H242023   1.710   3.718   1.248 -0.7372 -0.3562 -0.8526
 6822TIP3   OH242024   0.109   1.540   0.566  0.1998 -0.2751 -0.1835
 6822TIP3    H142025   0.128   1.447   0.557  0.4185 -0.3681  1.0605
 6822TIP3    H242026   0.155   1.566   0.646  1.8167  1.3695 -1.5654
 6823TIP3   OH242027   5.947   3.484   0.450 -0.6333  0.0567  0.1188
 6823TIP3    H142028   5.979   3.407   0.402 -0.8696  0.8061 -1.3211
 6823TIP3    H242029   5.882   3.449   0.511  0.5257 -1.0716  0.7437
 6824TIP3   OH242030   2.502   1.351   0.159 -0.3063 -0.0203  0.0782
 6824TIP3    H142031   2.491   1.445   0.145  0.4102 -0.1193 -1.3233
 6824TIP3    H242032   2.518   1.343   0.253 -0.8300  1.2070  0.2956
 6825TIP3   OH242033   4.169   4.669   0.004  0.7029 -0.6534 -0.4473
 6825TIP3    H142034   4.160   4.721   0.084 -1.8193 -1.7760  0.0909
 6825TIP3    H242035   4.136   4.583   0.027  0.8011 -1.2966 -2.4657
 6826TIP3   OH242036   2.047   0.255   0.153  0.4848 -0.2156  0.3842
 6826TIP3    H142037   2.111   0.186   0.135  0.1544 -0.0859 -1.5620
 6826TIP3    H242038   1.967   0.224   0.111  0.3285  1.3116 -0.5078
 6827TIP3   OH242039   6.411   1.854   7.553 -0.2725 -0.1186  0.2571
 6827TIP3    H142040   6.465   1.780   7.524  0.3812  0.7057 -0.6764
 6827TIP3    H242041   6.381   1.895   7.472  0.1727  1.2111  0.7439
 6828TIP3   OH242042   1.316   2.961   0.685 -0.2663  0.0007 -0.4116
 6828TIP3    H142043   1.230   2.925   0.708 -0.1922  0.5764  0.8005
 6828TIP3    H242044   1.352   2.993   0.767  1.5493 -1.0930 -0.7292
 6829TIP3   OH242045   6.203   3.335   6.807  0.4566 -0.0367  0.4141
 6829TIP3    H142046   6.278   3.369   6.759 -0.3641  0.4058 -0.6092
 6829TIP3    H242047   6.200   3.387   6.887  0.2346  1.1467 -0.3392
 6830TIP3   OH242048   5.630   3.493   8.316 -0.3082 -0.1569 -0.2142
 6830TIP3    H142049   5.706   3.516   8.263 -0.4849 -0.0919 -0.4409
 6830TIP3    H242050   5.651   3.407   8.352 -0.5530 -0.5842 -1.0774
 6831TIP3   OH242051   2.246   6.531   7.760  0.2002  0.2782  0.0514
 6831TIP3    H142052   2.152   6.535   7.740  0.5574 -1.1111 -2.1201
 6831TIP3    H242053   2.270   6.623   7.776 -1.4063  0.7193  0.1430
 6832TIP3   OH242054   1.833   1.675   0.746 -0.1462 -0.0981 -1.0651
 6832TIP3    H142055   1.889   1.619   0.693  0.6440 -0.5002  0.1461
 6832TIP3    H242056   1.873   1.674   0.833 -1.9322 -0.2302 -0.1969
 6833TIP3   OH242057   4.810   3.891   6.700 -0.5908 -0.1182  0.0407
 6833TIP3    H142058   4.736   3.939   6.663 -0.7672 -0.8925 -0.6395
 6833TIP3    H242059   4.773   3.808   6.728 -0.3889  0.3065  1.6856
 6834TIP3   OH242060   3.915   1.169   2.341  0.5305  0.3351 -0.2182
 6834TIP3    H142061   3.861   1.103   2.298  1.4792  0.1204 -1.1280
 6834TIP3    H242062   3.853   1.226   2.385 -0.2872 -2.1101  2.0861
 6835TIP3   OH242063   4.057   3.455   7.727  0.6967  0.9100  0.3063
 6835TIP3    H142064   3.970   3.445   7.766  1.1252  0.6817  1.2296
 6835TIP3    H242065   4.041   3.499   7.643 -0.5582 -1.2017 -0.6387
 6836TIP3   OH242066   6.210   0.918   7.986  0.1977 -0.2165  0.1076
 6836TIP3    H142067   6.173   0.995   7.943 -1.5102 -0.1872  1.4863
 6836TIP3    H242068   6.286   0.894   7.933 -0.9472  0.6435 -2.0322
 6837TIP3   OH242069   3.007   6.450   6.565 -0.3042  0.0410  0.2663
 6837TIP3    H142070   2.913   6.464   6.552 -0.2365  0.0568 -0.1991
 6837TIP3    H242071   3.047   6.469   6.480  0.0327 -0.7751  0.2320
 6838TIP3   OH242072   1.876   4.563   7.343 -0.2007 -0.7012 -0.6091
 6838TIP3    H142073   1.939   4.567   7.271  0.7080  1.2423  0.2129
 6838TIP3    H242074   1.824   4.643   7.334  0.9468  0.4455  1.6678
 6839TIP3   OH242075   1.144   1.530   7.049  0.0569 -0.1205 -0.8239
 6839TIP3    H142076   1.071   1.474   7.025 -2.1493  1.5351  1.3959
 6839TIP3    H242077   1.159   1.511   7.142 -0.6814  2.6380 -0.0182
 6840TIP3   OH242078   3.668   6.699   0.747 -0.0032 -0.0057  0.2779
 6840TIP3    H142079   3.756   6.681   0.714 -0.0504 -0.0152  0.1544
 6840TIP3    H242080   3.616   6.624   0.717  0.0700 -0.2844  0.8411
 6841TIP3   OH242081   4.741   6.580   2.852 -0.0057 -0.4219  0.3148
 6841TIP3    H142082   4.786   6.499   2.876 -0.8265 -0.3139  2.4653
 6841TIP3    H242083   4.655   6.551   2.821  0.2579 -0.4423 -0.4094
 6842TIP3   OH242084   1.615   2.327   1.237  0.4066 -0.5837 -0.5247
 6842TIP3    H142085   1.568   2.396   1.284 -0.4122  0.0454 -2.1513
 6842TIP3    H242086   1.586   2.246   1.277 -2.4484 -0.2546 -1.6497
 6843TIP3   OH242087   2.931   1.284   7.953  0.0118  0.1997 -0.0654
 6843TIP3    H142088   2.904   1.287   8.044 -0.1190  1.1038 -0.1275
 6843TIP3    H242089   2.856   1.317   7.904  0.3397  0.4006 -0.4392
 6844TIP3   OH242090   4.888   3.834   8.202 -0.5964 -0.0084 -0.1991
 6844TIP3    H142091   4.793   3.837   8.205 -0.5726  0.5234  0.1829
 6844TIP3    H242092   4.914   3.808   8.291 -0.4451 -2.3927 -0.8590
 6845TIP3   OH242093   0.923   1.553   7.480 -0.5403  0.1886 -0.2830
 6845TIP3    H142094   1.005   1.598   7.499 -0.8698  0.7361 -0.1480
 6845TIP3    H242095   0.947   1.485   7.417  0.5047 -1.3418  1.6673
 6846TIP3   OH242096   4.859   1.799   7.424 -0.3363  0.3325 -0.2705
 6846TIP3    H142097   4.826   1.786   7.335  3.1454  1.2529 -1.8440
 6846TIP3    H242098   4.801   1.746   7.479 -3.6819  1.0521 -2.7744
 6847TIP3   OH242099   2.128   0.371   0.383 -0.6445  0.1739  0.0861
 6847TIP3    H142100   2.099   0.332   0.300  0.7000  1.3654 -1.0110
 6847TIP3    H242101   2.136   0.465   0.363  3.2804  0.0531  0.3679
 6848TIP3   OH242102   2.228   4.714   8.531 -0.4249  0.2104 -0.5199
 6848TIP3    H142103   2.310   4.665   8.532  0.1208  1.0623  1.2731
 6848TIP3    H242104   2.176   4.676   8.602 -0.0141  2.0568  0.8716
 6849TIP3   OH242105   0.193   5.545   6.914  0.0016  0.3308 -0.1775
 6849TIP3    H142106   0.205   5.461   6.960  1.3094  1.1152  0.9995
 6849TIP3    H242107   0.258   5.543   6.843  0.1085  0.3872 -0.0820
 6850TIP3   OH242108   1.045   1.095   0.107  0.2066 -0.6111 -0.2427
 6850TIP3    H142109   1.008   1.087   0.019  1.1427  0.9550 -0.8166
 6850TIP3    H242110   1.013   1.179   0.139  1.0718 -0.4849  0.3196
 6851TIP3   OH242111   4.161   2.814   6.617  0.5601 -0.6492  0.1500
 6851TIP3    H142112   4.127   2.726   6.636  1.6004 -1.3296 -0.9038
 6851TIP3    H242113   4.217   2.800   6.540  2.6671  0.4930  1.4022
 6852TIP3   OH242114   3.832   2.850   1.474  0.1925 -0.1259  0.3439
 6852TIP3    H142115   3.867   2.780   1.529  1.7455  0.4716  0.1814
 6852TIP3    H242116   3.846   2.930   1.525 -0.8092  0.1644  0.1827
 6853TIP3   OH242117   5.751   4.461   1.645 -0.4908 -1.1359  0.5768
 6853TIP3    H142118   5.818   4.527   1.660 -0.7333 -0.8654  0.4718
 6853TIP3    H242119   5.668   4.509   1.649 -0.6439 -1.3439  0.0323
 6854TIP3   OH242120   5.132   2.101   7.208  0.2269 -0.1679  0.6768
 6854TIP3    H142121   5.098   2.092   7.119 -0.3909 -2.7640  1.0981
 6854TIP3    H242122   5.055   2.121   7.262  0.5164  0.8668  0.7322
 6855TIP3   OH242123   6.154   4.182   6.678 -0.0673  0.5814  0.1266
 6855TIP3    H142124   6.158   4.272   6.646 -0.2079  0.5980  0.1539
 6855TIP3    H242125   6.246   4.156   6.688 -0.0274  1.1269  1.2865
 6856TIP3   OH242126   4.366   0.505   1.345 -0.3093  0.4276  0.3036
 6856TIP3    H142127   4.453   0.536   1.323 -0.9169  1.8541 -0.1965
 6856TIP3    H242128   4.336   0.458   1.267 -0.5256  1.1553 -0.0556
 6857TIP3   OH242129   4.670   5.983   2.263  0.0527 -0.0192  0.6488
 6857TIP3    H142130   4.736   6.044   2.231  0.3125 -0.1581  0.9096
 6857TIP3    H242131   4.719   5.922   2.318 -0.1374 -0.6894  0.0939
 6858TIP3   OH242132   1.899   2.691   2.507  0.5488 -0.1825 -0.1585
 6858TIP3    H142133   1.923   2.649   2.424  0.4209 -2.1599  0.7339
 6858TIP3    H242134   1.949   2.643   2.573 -0.3910  0.4225  1.0392
 6859TIP3   OH242135   0.658   5.119   1.277  0.5450 -0.1621  0.2823
 6859TIP3    H142136   0.695   5.055   1.338 -1.7768  0.0637  2.1110
 6859TIP3    H242137   0.621   5.187   1.334  0.5936  1.4354 -1.5129
 6860TIP3   OH242138   0.594   6.670   0.919 -0.3712  0.2333 -0.2932
 6860TIP3    H142139   0.602   6.627   0.834 -0.2005 -0.0507 -0.1354
 6860TIP3    H242140   0.521   6.731   0.909 -2.0106 -1.5884  0.1203
 6861TIP3   OH242141   6.589   2.715   1.566  0.3631 -0.4409  0.0893
 6861TIP3    H142142   6.532   2.768   1.510  0.7141  0.4713  0.5776
 6861TIP3    H242143   6.674   2.716   1.521  0.0656 -1.6429 -0.5422
 6862TIP3   OH242144   4.157   3.147   0.165 -0.0592  0.0222 -0.1837
 6862TIP3    H142145   4.178   3.225   0.216 -1.2534  0.2517 -0.0035
 6862TIP3    H242146   4.162   3.074   0.227 -0.0715  0.1134 -0.0757
 6863TIP3   OH242147   3.896   0.949   7.678 -0.4827 -0.2943 -0.0807
 6863TIP3    H142148   3.822   0.920   7.626 -0.7133  0.1430  0.0011
 6863TIP3    H242149   3.884   1.044   7.687  0.1949 -0.1857 -0.2460
 6864TIP3   OH242150   1.437   5.624   6.718 -0.0278 -0.9325  0.2487
 6864TIP3    H142151   1.524   5.627   6.678  1.2584 -2.9171  2.6032
 6864TIP3    H242152   1.413   5.532   6.714 -0.7028 -0.8847  2.1489
 6865TIP3   OH242153   4.667   6.030   1.536 -0.0676 -0.1213 -0.2837
 6865TIP3    H142154   4.749   6.076   1.518  0.6654 -1.5766 -0.8715
 6865TIP3    H242155   4.694   5.941   1.559 -1.4755 -0.6247 -0.4578
 6866TIP3   OH242156   5.043   6.770   1.330 -0.0710  0.0592 -0.1703
 6866TIP3    H142157   5.033   6.769   1.425 -2.1206 -2.4626 -0.3135
 6866TIP3    H242158   5.037   6.863   1.307  1.5090  0.8534  2.1662
 6867TIP3   OH242159   5.664   2.031   0.022 -0.5086  0.0101  0.1753
 6867TIP3    H142160   5.614   2.100  -0.022  0.7813 -0.0032 -1.4251
 6867TIP3    H242161   5.707   2.075   0.095  2.2500  1.6164 -2.2033
 6868TIP3   OH242162   3.851   4.154   0.210  0.5050 -0.2349  0.1899
 6868TIP3    H142163   3.930   4.110   0.242 -0.0473  0.0648  2.0819
 6868TIP3    H242164   3.846   4.234   0.261 -1.1587 -0.3723  0.2684
 6869TIP3   OH242165   1.629   3.098   8.514  0.6351 -0.2977  0.3769
 6869TIP3    H142166   1.674   3.020   8.547 -1.2487 -0.8870  1.7525
 6869TIP3    H242167   1.536   3.076   8.521  0.0881  0.9037 -2.2239
 6870TIP3   OH242168   0.609   4.282   1.025 -0.3654 -0.3502  0.3206
 6870TIP3    H142169   0.659   4.341   1.082 -2.2456  1.3701  0.2961
 6870TIP3    H242170   0.625   4.316   0.937  1.9378 -2.5547 -0.2452
 6871TIP3   OH242171   0.589   1.538   8.255 -0.9092  0.0915 -0.4989
 6871TIP3    H142172   0.531   1.613   8.271  1.4860  2.1589 -0.8468
 6871TIP3    H242173   0.674   1.565   8.291  0.2185 -2.2453 -1.1784
 6872TIP3   OH242174   1.279   2.086   8.019  0.2901 -0.8741  0.5896
 6872TIP3    H142175   1.247   2.000   8.047 -2.2729 -0.2773 -0.2202
 6872TIP3    H242176   1.304   2.073   7.927 -2.4340 -0.3347 -0.3323
 6873TIP3   OH242177   0.519   1.357   7.362  0.3829 -0.7962  0.9040
 6873TIP3    H142178   0.480   1.302   7.429 -0.2455 -0.3508  0.9171
 6873TIP3    H242179   0.607   1.323   7.350  0.6886 -0.5635  2.3153
 6874TIP3   OH242180   6.531   4.787   8.063  0.0212 -0.0018 -0.6999
 6874TIP3    H142181   6.536   4.851   8.134  2.1310 -1.3545  0.4898
 6874TIP3    H242182   6.585   4.713   8.093 -1.1445 -1.7569 -2.6067
 6875TIP3   OH242183   2.701   0.598   6.850  0.1135 -0.0163  0.3660
 6875TIP3    H142184   2.616   0.631   6.824  0.2778  1.1624  1.2220
 6875TIP3    H242185   2.743   0.571   6.768 -0.5149  0.7586 -0.2214
 6876TIP3   OH242186   6.422   4.044   1.092 -0.1963  0.0809  0.1252
 6876TIP3    H142187   6.461   3.962   1.064 -0.5419  0.0007 -0.1349
 6876TIP3    H242188   6.464   4.064   1.176  0.5233  0.0935 -0.2410
 6877TIP3   OH242189   1.374   6.435   7.584  0.8054 -0.4235 -0.1716
 6877TIP3    H142190   1.282   6.417   7.565  0.4599  1.0776 -0.0072
 6877TIP3    H242191   1.422   6.400   7.509  0.0577 -0.7344 -0.5100
 6878TIP3   OH242192   1.145   0.555   0.813 -0.9556  0.1498 -0.0788
 6878TIP3    H142193   1.197   0.553   0.732 -0.8415 -0.4375  0.0027
 6878TIP3    H242194   1.108   0.643   0.815  2.6715  1.8530  1.5406
 6879TIP3   OH242195   3.970   0.129   8.534  0.0920 -0.3164 -0.5322
 6879TIP3    H142196   3.970   0.217   8.496  0.1420  0.2716  0.7822
 6879TIP3    H242197   4.048   0.087   8.497  1.1691  0.8714  0.2939
 6880TIP3   OH242198   5.836   4.273   0.266 -0.1681 -0.2273  0.8362
 6880TIP3    H142199   5.863   4.195   0.217 -1.8166  0.7115 -1.8130
 6880TIP3    H242200   5.748   4.252   0.297 -0.5060  0.4293  0.3555
 6881TIP3   OH242201   3.919   1.400   0.862  0.0735 -0.5172  0.0443
 6881TIP3    H142202   3.917   1.425   0.769  0.4827  2.5887  0.7745
 6881TIP3    H242203   3.834   1.359   0.878 -0.5488  0.1672 -1.3840
 6882TIP3   OH242204   6.711   1.601   0.689  0.0960 -0.3754  0.4603
 6882TIP3    H142205   6.681   1.532   0.629  0.2627 -0.2672  0.2535
 6882TIP3    H242206   6.805   1.585   0.698  0.4146  0.6912 -0.7194
 6883TIP3   OH242207   5.224   1.370   0.197  0.1390  0.4916  0.2877
 6883TIP3    H142208   5.254   1.383   0.107 -0.9591 -0.9337 -0.3258
 6883TIP3    H242209   5.169   1.446   0.215  0.2394  0.7154 -0.3146
 6884TIP3   OH242210   0.868   5.896   0.167  0.0804  0.1404  0.3809
 6884TIP3    H142211   0.801   5.872   0.232  0.9281  0.9639  1.6021
 6884TIP3    H242212   0.822   5.894   0.084 -1.2362 -0.2084  1.0849
 6885TIP3   OH242213   5.220   5.895   2.105 -0.0373  0.2692  0.1468
 6885TIP3    H142214   5.255   5.813   2.071 -0.0103 -0.0779  0.9948
 6885TIP3    H242215   5.263   5.907   2.189 -0.8403  0.5972  0.5255
 6886TIP3   OH242216   4.473   1.783   0.567 -0.9600  0.4003  0.0690
 6886TIP3    H142217   4.559   1.825   0.569  0.6950 -2.7234  1.2002
 6886TIP3    H242218   4.463   1.755   0.476 -0.4585  0.2303  0.0604
 6887TIP3   OH242219   3.971   2.449   2.038  0.3026 -0.7119 -0.0316
 6887TIP3    H142220   3.915   2.526   2.048 -1.2907 -1.7099 -0.8354
 6887TIP3    H242221   3.975   2.434   1.944  0.2661 -1.8370  0.1294
 6888TIP3   OH242222   6.223   1.015   7.297 -0.1286 -0.1675  0.5846
 6888TIP3    H142223   6.187   0.927   7.283  1.6443 -0.6525 -1.3677
 6888TIP3    H242224   6.252   1.015   7.388 -1.7925 -0.9400  1.1598
 6889TIP3   OH242225   0.896   6.123   2.436 -0.3098  0.3562 -0.1333
 6889TIP3    H142226   0.983   6.113   2.397  0.8601  1.1423  2.0937
 6889TIP3    H242227   0.906   6.092   2.526 -0.9684  4.6370  1.6911
 6890TIP3   OH242228   3.480   1.679   6.030  0.4282  0.4245  0.9868
 6890TIP3    H142229   3.395   1.720   6.045 -0.3329 -0.1654 -1.2714
 6890TIP3    H242230   3.517   1.726   5.955  0.1709 -1.9313 -0.7397
 6891TIP3   OH242231   1.136   1.418   0.625  0.5404  0.7476  0.0464
 6891TIP3    H142232   1.078   1.356   0.669  1.0697 -0.0882 -0.4247
 6891TIP3    H242233   1.224   1.390   0.649  0.7841  1.4989  0.0658
 6892TIP3   OH242234   4.717   5.288   1.419 -0.0736 -0.3154 -0.2568
 6892TIP3    H142235   4.748   5.246   1.499 -1.3554 -0.5411  0.1419
 6892TIP3    H242236   4.793   5.287   1.361  0.9949  0.1460  1.0506
 6893TIP3   OH242237   1.726   5.650   2.650 -0.0798  0.3270  0.5469
 6893TIP3    H142238   1.809   5.660   2.605 -1.4295 -2.2595 -3.0184
 6893TIP3    H242239   1.690   5.739   2.656  1.5815  1.1294 -0.7276
 6894TIP3   OH242240   3.444   5.531   7.969  0.0695 -0.2400 -0.1484
 6894TIP3    H142241   3.453   5.440   7.997  0.8774 -0.1957 -0.2497
 6894TIP3    H242242   3.463   5.529   7.875  0.4247  0.0829 -0.0859
 6895TIP3   OH242243   2.238   6.456   1.251  0.0825 -0.4851 -0.5117
 6895TIP3    H142244   2.207   6.490   1.335  1.2767  0.5792 -0.4775
 6895TIP3    H242245   2.164   6.466   1.192 -0.7593 -1.2111  0.3970
 6896TIP3   OH242246   0.469   2.908   1.269 -0.6616 -0.5685 -0.9504
 6896TIP3    H142247   0.561   2.922   1.288 -0.4860 -2.1664 -0.5607
 6896TIP3    H242248   0.425   2.985   1.307  0.4698  0.1495 -1.0483
 6897TIP3   OH242249   0.269   4.708   6.937  0.0917 -0.2052 -0.6656
 6897TIP3    H142250   0.203   4.752   6.883  0.0724  0.5419 -0.0558
 6897TIP3    H242251   0.350   4.713   6.885  0.2679  1.2308 -0.3208
 6898TIP3   OH242252   2.786   2.500   6.766  0.2630 -0.3676  0.1324
 6898TIP3    H142253   2.726   2.477   6.695  1.6319 -1.2411 -0.7915
 6898TIP3    H242254   2.857   2.547   6.722  0.8552 -0.4251  1.0063
 6899TIP3   OH242255   6.180   5.616   8.371  0.5060 -0.0405  0.3250
 6899TIP3    H142256   6.190   5.534   8.323  0.4335 -0.7528  1.4938
 6899TIP3    H242257   6.085   5.625   8.384  0.2533  1.6279 -2.1192
 6900TIP3   OH242258   1.457   3.528   8.593 -0.1434  0.2528  0.2180
 6900TIP3    H142259   1.544   3.499   8.566 -0.3054 -0.1831  0.1493
 6900TIP3    H242260   1.449   3.497   8.683 -0.6613 -0.7289 -0.1420
 6901TIP3   OH242261   2.376   4.073   7.493  0.9823  0.6670  0.5308
 6901TIP3    H142262   2.450   4.114   7.449  0.9592  0.0667 -0.1053
 6901TIP3    H242263   2.317   4.145   7.514  0.3502  0.8906 -1.6983
 6902TIP3   OH242264   1.167   4.259   1.093 -0.1269  0.1835  0.2163
 6902TIP3    H142265   1.240   4.225   1.146  0.9236  0.2213 -1.1538
 6902TIP3    H242266   1.109   4.184   1.082 -0.2636  0.1189  1.2222
 6903TIP3   OH242267   1.318   3.482   0.421 -0.0374 -0.3939 -0.7443
 6903TIP3    H142268   1.266   3.540   0.476  1.8671  0.8657 -0.1482
 6903TIP3    H242269   1.357   3.419   0.482 -0.8556 -1.3380 -1.1817
 6904TIP3   OH242270   2.423   1.423   7.409 -0.3817  0.1946 -0.6991
 6904TIP3    H142271   2.500   1.474   7.433 -1.3957  2.0576 -1.1805
 6904TIP3    H242272   2.444   1.385   7.324 -0.0866  0.9170 -0.9575
 6905TIP3   OH242273   0.517   1.069   0.350 -0.6098 -0.1662  0.2474
 6905TIP3    H142274   0.424   1.090   0.363 -0.6351  1.8830 -2.2271
 6905TIP3    H242275   0.558   1.154   0.338  1.3364 -1.1213 -0.1564
 6906TIP3   OH242276   1.841   3.358   2.134  0.4271 -0.0757 -0.0004
 6906TIP3    H142277   1.746   3.360   2.123  0.4383 -0.4226 -0.1632
 6906TIP3    H242278   1.860   3.436   2.187 -0.0198 -0.4101  0.6643
 6907TIP3   OH242279   3.212   4.098   7.692  0.3625  0.3994 -0.4281
 6907TIP3    H142280   3.130   4.141   7.667 -0.5877 -0.2357  1.4483
 6907TIP3    H242281   3.260   4.166   7.740  0.6048  0.5324 -0.8524
 6908TIP3   OH242282   1.212   4.700   7.238 -0.0638  0.1829  0.0791
 6908TIP3    H142283   1.155   4.775   7.251 -0.4942  0.0437 -0.9652
 6908TIP3    H242284   1.166   4.644   7.176  0.5993 -0.5849  0.2475
 6909TIP3   OH242285   1.322   5.114   8.488  0.3042 -0.2910  0.1367
 6909TIP3    H142286   1.332   5.021   8.467  0.5162 -0.1440 -0.4207
 6909TIP3    H242287   1.297   5.114   8.581  0.4054 -0.8975  0.1729
 6910TIP3   OH242288   4.536   1.877   7.498 -0.0434 -0.5549  0.2502
 6910TIP3    H142289   4.544   1.782   7.489 -1.8304 -0.5247 -3.2987
 6910TIP3    H242290   4.464   1.889   7.561 -1.8447 -1.7195 -1.4669
 6911TIP3   OH242291   6.090   4.735   1.285  0.1320 -0.1820  0.1038
 6911TIP3    H142292   6.075   4.815   1.235  0.5681  0.6111  1.2073
 6911TIP3    H242293   6.109   4.765   1.374  2.0468 -1.3826  0.1756
 6912TIP3   OH242294   6.812   2.581   2.210 -0.1829  0.1268 -0.4245
 6912TIP3    H142295   6.722   2.553   2.194  0.1555  0.0092 -2.3352
 6912TIP3    H242296   6.818   2.668   2.171  0.2393  0.6453  0.7421
 6913TIP3   OH242297   6.772   3.341   0.595 -0.5374 -0.2080  0.0588
 6913TIP3    H142298   6.808   3.259   0.560  0.8805 -0.8532  2.7657
 6913TIP3    H242299   6.821   3.409   0.549 -1.1731 -0.8389 -1.6556
 6914TIP3   OH242300   0.017   3.564   0.504  0.7527  0.0996  0.7528
 6914TIP3    H142301   0.099   3.583   0.550  0.1427  1.0114  1.5119
 6914TIP3    H242302   0.042   3.557   0.412  1.8700 -0.8897  1.0947
 6915TIP3   OH242303   4.651   5.978   2.581 -0.4653  0.3406  0.3926
 6915TIP3    H142304   4.634   6.071   2.567 -0.2276  0.3333  0.0368
 6915TIP3    H242305   4.746   5.969   2.569 -0.4791  0.0650  0.4873
 6916TIP3   OH242306   6.331   0.488   7.495 -0.0879  0.0627 -0.1169
 6916TIP3    H142307   6.278   0.414   7.523 -0.1187  0.4482  0.8920
 6916TIP3    H242308   6.394   0.450   7.434 -1.1849 -0.4830 -0.9414
 6917TIP3   OH242309   4.724   0.519   2.007 -0.6299  0.0240 -0.2492
 6917TIP3    H142310   4.636   0.481   2.016 -0.5120 -0.0783  0.4955
 6917TIP3    H242311   4.718   0.604   2.050  0.3703 -1.1437  2.4296
 6918TIP3   OH242312   3.077   3.782   8.203 -0.2497 -0.0257  0.9892
 6918TIP3    H142313   3.032   3.807   8.123  0.6640 -0.3511  0.3629
 6918TIP3    H242314   3.131   3.858   8.225  1.1530 -0.7195  0.0779
 6919TIP3   OH242315   2.193   4.712   1.195 -0.7243  0.4768  0.2020
 6919TIP3    H142316   2.106   4.751   1.204 -0.9271  0.3928 -1.2037
 6919TIP3    H242317   2.230   4.715   1.284 -1.6309  1.7431  0.5656
 6920TIP3   OH242318   5.276   0.363   0.139 -0.2187  0.0370  0.4042
 6920TIP3    H142319   5.264   0.281   0.090 -0.7475  0.2283  0.2173
 6920TIP3    H242320   5.190   0.382   0.175  0.0381  0.2069  0.9342
 6921TIP3   OH242321   1.279   5.987   0.946  0.2316  0.0566 -0.1417
 6921TIP3    H142322   1.361   6.029   0.918 -0.6823  1.8022 -0.2945
 6921TIP3    H242323   1.252   5.934   0.871 -0.2912  1.8186 -1.2568
 6922TIP3   OH242324   5.661   6.422   7.756 -0.1550  0.2410 -0.0637
 6922TIP3    H142325   5.690   6.512   7.742 -0.2042  0.2210 -0.3167
 6922TIP3    H242326   5.565   6.428   7.755 -0.1578  0.2906  0.6490
 6923TIP3   OH242327   2.757   0.646   0.610  0.4569  0.1966 -0.5416
 6923TIP3    H142328   2.780   0.733   0.642 -2.3730  0.8367  0.0902
 6923TIP3    H242329   2.710   0.605   0.683  1.2069 -1.6443 -1.0429
 6924TIP3   OH242330   1.036   5.889   6.553 -0.0514  0.1079 -0.6107
 6924TIP3    H142331   0.961   5.833   6.575  1.3102 -1.6947 -0.3203
 6924TIP3    H242332   1.072   5.851   6.473 -0.0327  1.5992 -1.3461
 6925TIP3   OH242333   2.688   1.432   8.304  0.2063  0.2533  0.3801
 6925TIP3    H142334   2.598   1.461   8.296 -0.4798 -1.6067  0.8143
 6925TIP3    H242335   2.698   1.409   8.397  0.6273 -0.9792  0.0604
 6926TIP3   OH242336   6.100   2.168   7.312  0.3726  0.0382  0.0231
 6926TIP3    H142337   6.061   2.104   7.251  0.7391 -0.4727  0.3171
 6926TIP3    H242338   6.112   2.119   7.393 -1.1157  0.9944  0.8693
 6927TIP3   OH242339   5.894   5.729   1.311  0.3915  0.0230 -0.5076
 6927TIP3    H142340   5.838   5.804   1.332  2.5382  2.6540 -3.3762
 6927TIP3    H242341   5.978   5.749   1.352  0.2927 -2.3693  1.1064
 6928TIP3   OH242342   2.294   1.278   7.023  0.6010  0.0985  0.4793
 6928TIP3    H142343   2.221   1.269   7.085  0.9523 -0.7336  0.7976
 6928TIP3    H242344   2.316   1.188   7.000  0.2461  0.4090 -1.1552
 6929TIP3   OH242345   3.589   0.858   6.987 -0.3661 -0.5120  0.2567
 6929TIP3    H142346   3.676   0.886   7.015  0.0427  0.9545 -2.1622
 6929TIP3    H242347   3.596   0.763   6.979  0.2201 -0.7081  2.4072
 6930TIP3   OH242348   2.992   1.062   1.587  0.4079 -0.3084 -0.0591
 6930TIP3    H142349   3.045   1.104   1.655  0.0489 -1.0621  0.6983
 6930TIP3    H242350   2.913   1.115   1.581 -0.1800 -1.0035  1.1093
 6931TIP3   OH242351   2.285   0.788   0.902  0.3748  0.7641  0.1337
 6931TIP3    H142352   2.241   0.806   0.985  0.2665  1.3403 -0.0407
 6931TIP3    H242353   2.279   0.693   0.891 -0.8848  0.8270  0.0904
 6932TIP3   OH242354   0.417   5.466   6.251 -0.3190  0.1995 -0.0573
 6932TIP3    H142355   0.341   5.492   6.199 -1.0567 -1.1049  0.3087
 6932TIP3    H242356   0.398   5.498   6.339 -0.0801  0.5448 -0.1314
 6933TIP3   OH242357   5.579   2.759   0.804  0.0935 -0.5714  0.2258
 6933TIP3    H142358   5.540   2.749   0.891 -1.0776  1.6818  0.0429
 6933TIP3    H242359   5.673   2.747   0.818 -0.1733 -1.3832  1.5614
 6934TIP3   OH242360   6.681   2.085   2.139 -0.4124  0.4744 -0.4442
 6934TIP3    H142361   6.635   2.012   2.097 -0.4790 -0.7993  1.6987
 6934TIP3    H242362   6.613   2.135   2.184  0.0557 -0.8198  1.8679
 6935TIP3   OH242363   6.654   5.856   1.250  0.5672  0.2895 -0.2298
 6935TIP3    H142364   6.648   5.803   1.170  0.0386 -0.7045  0.4503
 6935TIP3    H242365   6.611   5.939   1.226  2.0065  0.7170 -1.5172
 6936TIP3   OH242366   6.809   0.091   8.125 -0.3583  0.4007  0.1950
 6936TIP3    H142367   6.851   0.005   8.118  1.3661  1.0201  1.8295
 6936TIP3    H242368   6.727   0.082   8.078  0.9202 -1.3806 -1.8981
 6937TIP3   OH242369   5.809   5.642   0.923  0.3370 -0.1698 -0.4385
 6937TIP3    H142370   5.746   5.571   0.938  0.6735 -0.3943 -0.0782
 6937TIP3    H242371   5.786   5.676   0.837  0.8473 -1.4175 -1.0780
 6938TIP3   OH242372   5.108   5.566   8.290 -0.2163 -0.0578 -0.3817
 6938TIP3    H142373   5.026   5.576   8.338  0.3636 -0.1928  0.6559
 6938TIP3    H242374   5.088   5.598   8.202 -1.0938  0.9340  0.1593
 6939TIP3   OH242375   5.955   1.537   8.056  0.1135  0.0300 -0.1017
 6939TIP3    H142376   5.947   1.632   8.057  0.1333  0.0279  0.3137
 6939TIP3    H242377   6.042   1.521   8.018 -0.9353  0.0933 -2.7250
 6940TIP3   OH242378   5.121   1.371   0.468 -0.6843  0.7938  0.0062
 6940TIP3    H142379   5.058   1.437   0.439 -0.4392  1.4396  0.8985
 6940TIP3    H242380   5.203   1.397   0.426  0.0341  2.6141  2.3400
 6941TIP3   OH242381   6.120   6.763   1.134 -0.2853  0.4466  0.2397
 6941TIP3    H142382   6.028   6.739   1.139 -0.9379  2.9322  2.0104
 6941TIP3    H242383   6.123   6.855   1.161  2.5441  0.9187 -1.2170
 6942TIP3   OH242384   5.310   2.467   8.225 -0.1511  0.3398 -0.6180
 6942TIP3    H142385   5.235   2.507   8.269  0.1385 -0.4380  0.6164
 6942TIP3    H242386   5.386   2.512   8.261  0.1213 -0.6451  0.0777
 6943TIP3   OH242387   3.909   2.672   0.825 -0.2613  0.0271 -0.3780
 6943TIP3    H142388   3.847   2.739   0.796 -1.9024 -1.5352 -0.6597
 6943TIP3    H242389   3.882   2.593   0.779  0.6958 -1.1767  1.0513
 6944TIP3   OH242390   2.029   1.794   7.239 -0.1334  0.4487  0.5044
 6944TIP3    H142391   1.947   1.842   7.227 -2.5834 -2.9558  2.1334
 6944TIP3    H242392   2.081   1.851   7.296 -0.9923  2.9850 -1.0390
 6945TIP3   OH242393   2.727   6.857   0.084  0.5835  0.2060 -0.2927
 6945TIP3    H142394   2.711   6.769   0.049  2.3348 -0.3257  0.1574
 6945TIP3    H242395   2.685   6.916   0.021 -0.1186 -0.9064 -0.9103
 6946TIP3   OH242396   4.373   2.665   7.060  0.2260  0.4616  0.0103
 6946TIP3    H142397   4.306   2.638   6.997  1.0978 -1.1440 -0.2906
 6946TIP3    H242398   4.446   2.694   7.005  0.7145 -0.2403  0.2695
 6947TIP3   OH242399   6.104   1.250   1.503  0.1114  0.0554  0.0352
 6947TIP3    H142400   6.172   1.188   1.478 -0.4708 -0.6145  0.0606
 6947TIP3    H242401   6.083   1.227   1.594 -1.3589 -0.9202 -0.5132
 6948TIP3   OH242402   1.867   1.114   7.922  0.2425  0.1287 -0.8479
 6948TIP3    H142403   1.824   1.154   7.997  0.4854 -1.9401  0.4620
 6948TIP3    H242404   1.912   1.037   7.957  0.9253 -0.5396 -2.9959
 6949TIP3   OH242405   0.936   0.972   7.315  0.2423  0.1569  0.0430
 6949TIP3    H142406   0.860   1.031   7.322 -0.4392 -0.8325  1.4321
 6949TIP3    H242407   0.899   0.884   7.317  1.3659 -0.3457 -0.3722
 6950TIP3   OH242408   1.466   6.029   7.350 -0.0370  0.2369  0.0966
 6950TIP3    H142409   1.383   5.984   7.364 -0.3414  0.6928 -0.2067
 6950TIP3    H242410   1.517   5.969   7.295 -1.2674  1.1347 -2.1609
 6951TIP3   OH242411   2.916   2.131   6.876  0.0983 -0.4890 -0.3752
 6951TIP3    H142412   2.889   2.163   6.790  0.4155  3.4579  0.7937
 6951TIP3    H242413   2.835   2.101   6.917 -0.4936  0.0330 -1.1352
 6952TIP3   OH242414   4.563   1.783   1.152  0.0434  0.1312  0.2878
 6952TIP3    H142415   4.540   1.789   1.059  0.7421 -0.8318  0.0310
 6952TIP3    H242416   4.628   1.713   1.155  1.3420  1.3359  1.2599
 6953TIP3   OH242417   1.908   2.529   0.632  0.2806  0.2771  0.0595
 6953TIP3    H142418   1.982   2.565   0.583 -0.2321  1.6480  0.2266
 6953TIP3    H242419   1.924   2.556   0.723 -0.2516  0.3083  0.1490
 6954TIP3   OH242420   2.343   5.239   0.645  0.4869  0.7613 -0.3184
 6954TIP3    H142421   2.348   5.289   0.563 -0.0154 -0.2242 -0.9795
 6954TIP3    H242422   2.250   5.244   0.669  0.6408  1.0684  0.2071
 6955TIP3   OH242423   5.838   3.379   7.881  0.5299 -0.2462 -0.7123
 6955TIP3    H142424   5.753   3.361   7.842  0.5866 -2.6646  0.1448
 6955TIP3    H242425   5.899   3.376   7.807 -0.0946  1.7211 -1.3660
 6956TIP3   OH242426   5.790   0.828   0.865 -0.5084  0.4571 -0.3568
 6956TIP3    H142427   5.723   0.790   0.808 -1.7736 -0.1603  1.4421
 6956TIP3    H242428   5.740   0.880   0.928  0.7518  0.4474  0.6756
 6957TIP3   OH242429   3.372   4.188   0.638 -0.1849  0.0476 -0.3291
 6957TIP3    H142430   3.366   4.092   0.643 -0.3292  0.0910  3.0650
 6957TIP3    H242431   3.294   4.219   0.685 -0.4815  1.8955 -1.9122
 6958TIP3   OH242432   1.009   4.873   7.271  0.2734  0.2863  0.3062
 6958TIP3    H142433   1.009   4.953   7.218 -1.9223 -0.5480 -1.0681
 6958TIP3    H242434   0.998   4.904   7.361  0.4762  1.5522 -0.0872
 6959TIP3   OH242435   0.090   0.287   1.206  0.2373 -0.0272  0.3620
 6959TIP3    H142436   0.021   0.252   1.149  0.2972 -0.2529  0.4264
 6959TIP3    H242437   0.045   0.307   1.288  0.2825 -0.3613  0.4720
 6960TIP3   OH242438   3.438   1.654   7.044 -0.0280  0.0970 -0.2146
 6960TIP3    H142439   3.497   1.590   7.004 -2.0862  0.0837 -3.6410
 6960TIP3    H242440   3.411   1.613   7.126 -0.9073 -3.3749 -2.0313
 6961TIP3   OH242441   0.644   3.064   1.873 -0.0989 -0.4075 -0.2838
 6961TIP3    H142442   0.739   3.064   1.882 -0.1352  0.8844  0.3474
 6961TIP3    H242443   0.617   3.148   1.909 -1.7894 -2.0395  2.6109
 6962TIP3   OH242444   1.020   6.738   0.253  0.1094 -0.3855 -0.8046
 6962TIP3    H142445   0.956   6.697   0.194 -0.7095 -0.9088  0.4106
 6962TIP3    H242446   0.977   6.819   0.282  0.8663  0.3133 -1.5679
 6963TIP3   OH242447   4.568   6.055   0.618 -0.4121 -0.3303 -0.2614
 6963TIP3    H142448   4.581   5.969   0.577 -0.8320  0.3196 -1.8197
 6963TIP3    H242449   4.533   6.110   0.548 -1.8887  0.6445  1.1671
 6964TIP3   OH242450   6.484   4.016   0.167  0.1939 -0.2104 -0.9636
 6964TIP3    H142451   6.493   3.936   0.115 -0.6715  0.5110 -2.2753
 6964TIP3    H242452   6.506   3.989   0.256 -2.0429 -2.4240 -0.9735
 6965TIP3   OH242453   0.918   0.678   7.739 -0.5125 -0.0698 -0.1585
 6965TIP3    H142454   0.880   0.616   7.802 -0.3708 -0.3459 -0.3439
 6965TIP3    H242455   1.001   0.638   7.712 -0.4175  0.2035 -0.2744
 6966TIP3   OH242456   5.084   1.496   1.043 -0.2898  0.2305 -0.2122
 6966TIP3    H142457   5.030   1.560   1.088 -1.3717 -1.5799  1.2197
 6966TIP3    H242458   5.050   1.494   0.954 -0.7369  1.0923 -0.0664
 6967TIP3   OH242459   3.735   2.128   6.666 -0.3940 -0.2851 -0.2673
 6967TIP3    H142460   3.692   2.137   6.751 -1.3590 -2.8166 -0.4192
 6967TIP3    H242461   3.663   2.116   6.604  0.3553  0.1445 -1.2453
 6968TIP3   OH242462   6.473   3.644   0.813 -0.3643 -0.6771  0.0189
 6968TIP3    H142463   6.550   3.653   0.755  0.2264 -1.6468  0.6264
 6968TIP3    H242464   6.499   3.689   0.893 -1.3617  1.0741 -0.5810
 6969TIP3   OH242465   4.738   2.906   8.352 -0.6208 -0.7217  0.5932
 6969TIP3    H142466   4.656   2.931   8.395 -0.4738  0.3698  0.2777
 6969TIP3    H242467   4.793   2.872   8.422 -0.3791  1.0283  1.2935
 6970TIP3   OH242468   4.997   1.487   1.712 -0.0979  0.4141  0.0259
 6970TIP3    H142469   4.932   1.557   1.706  0.6196  1.1068  0.1244
 6970TIP3    H242470   5.061   1.508   1.644 -0.2933 -0.6135 -0.4995
 6971TIP3   OH242471   1.287   1.047   0.216  0.0680  0.6301 -0.4042
 6971TIP3    H142472   1.201   1.008   0.195  0.5165 -0.9676  0.5490
 6971TIP3    H242473   1.268   1.115   0.280 -0.4283 -0.2699  0.4271
 6972TIP3   OH242474   4.970   6.800   1.915  0.2818 -0.3257  0.0479
 6972TIP3    H142475   4.877   6.787   1.899 -0.1241  1.0126  1.1363
 6972TIP3    H242476   4.991   6.738   1.985  1.0085 -2.9082 -2.2861
 6973TIP3   OH242477   2.364   0.601   5.887 -0.5564  0.2081  0.1576
 6973TIP3    H142478   2.334   0.634   5.971  1.1342  2.0324  0.1208
 6973TIP3    H242479   2.312   0.649   5.822  1.8757  3.0380  0.1048
 6974TIP3   OH242480   3.154   2.207   0.960  0.0615 -0.1328 -0.5712
 6974TIP3    H142481   3.146   2.295   0.997 -0.4457  0.4779 -2.0632
 6974TIP3    H242482   3.130   2.217   0.868  2.2857 -1.4057 -1.3489
 6975TIP3   OH242483   5.275   2.677   7.900 -0.2085  0.2893  0.2261
 6975TIP3    H142484   5.283   2.642   7.811  0.5830  2.4890 -0.6175
 6975TIP3    H242485   5.355   2.649   7.944 -0.3933 -0.4142  0.1413
 6976TIP3   OH242486   0.607   0.610   1.667  0.8112  0.3926  0.7086
 6976TIP3    H142487   0.670   0.539   1.673  0.7173  0.3334  1.0079
 6976TIP3    H242488   0.660   0.688   1.650  0.7565 -0.0667 -2.0439
 6977TIP3   OH242489   2.834   0.063   8.310  0.2242 -0.9380  0.0911
 6977TIP3    H142490   2.773   0.055   8.238  1.5091 -2.7130 -0.8900
 6977TIP3    H242491   2.914   0.097   8.270 -0.0262  1.3070  1.3348
 6978TIP3   OH242492   1.935   5.113   1.113 -0.1168  0.4742 -0.1919
 6978TIP3    H142493   2.019   5.087   1.077 -1.0640 -2.3692 -0.6167
 6978TIP3    H242494   1.870   5.080   1.051 -1.6199  1.1318  0.9345
 6979TIP3   OH242495   1.421   1.719   0.656  0.1598  0.3240 -0.4612
 6979TIP3    H142496   1.345   1.682   0.701 -0.3717 -0.3297 -1.8277
 6979TIP3    H242497   1.494   1.663   0.682  0.5198  1.7877  1.9825
 6980TIP3   OH242498   1.748   3.916   0.988 -0.6981 -0.1313 -0.7402
 6980TIP3    H142499   1.684   3.903   1.058 -0.8474 -0.7494 -0.9919
 6980TIP3    H242500   1.832   3.928   1.034 -0.9205  0.2674 -0.4276
 6981TIP3   OH242501   5.265   1.653   1.817 -0.4489 -0.3954 -0.1110
 6981TIP3    H142502   5.229   1.721   1.875 -2.5337  0.0363 -1.8034
 6981TIP3    H242503   5.227   1.571   1.850 -0.6113 -0.3145 -0.0966
 6982TIP3   OH242504   1.049   1.547   6.362  0.0352 -0.1141  0.3444
 6982TIP3    H142505   1.105   1.585   6.430  1.1090 -1.6006  0.3492
 6982TIP3    H242506   1.059   1.605   6.287  1.5635 -0.2908  0.3750
 6983TIP3   OH242507   2.893   0.920   7.327  0.0197  0.4377 -0.0699
 6983TIP3    H142508   2.810   0.875   7.313  0.2465  0.2743 -0.9577
 6983TIP3    H242509   2.870   0.998   7.378 -0.5521 -0.0323  0.4074
 6984TIP3   OH242510   3.742   6.284   7.880 -0.2013  0.1546 -0.0328
 6984TIP3    H142511   3.795   6.208   7.905  0.7829  0.7018 -0.3709
 6984TIP3    H242512   3.757   6.348   7.950 -1.3450 -0.0951  0.4599
 6985TIP3   OH242513   1.241   5.454   1.410  0.5409  0.1227  0.6971
 6985TIP3    H142514   1.287   5.449   1.494  0.2634  1.0481  0.9223
 6985TIP3    H242515   1.180   5.381   1.411 -0.9872  1.3441  2.2534
 6986TIP3   OH242516   3.107   1.779   6.763  0.8856 -0.2471  0.0711
 6986TIP3    H142517   3.148   1.713   6.707  1.5477 -1.0943  1.4785
 6986TIP3    H242518   3.013   1.770   6.746  1.1097  0.0921 -1.4743
 6987TIP3   OH242519   5.372   3.288   1.173 -0.2033  0.1277 -0.4211
 6987TIP3    H142520   5.354   3.358   1.235  0.1016  0.1554 -0.3631
 6987TIP3    H242521   5.383   3.332   1.089  0.0201  0.1563 -0.3791
 6988TIP3   OH242522   5.611   0.627   7.625 -0.1914 -0.1025 -0.1976
 6988TIP3    H142523   5.624   0.676   7.543  1.0434 -1.6554 -0.9897
 6988TIP3    H242524   5.700   0.604   7.653 -0.7024 -1.3656  0.4618
 6989TIP3   OH242525   5.850   0.287   7.706  0.3126  0.0318 -0.0316
 6989TIP3    H142526   5.908   0.259   7.777  2.4071  1.3459 -1.1277
 6989TIP3    H242527   5.894   0.257   7.626 -0.6224  0.9071 -0.8947
 6990TIP3   OH242528   3.621   4.128   7.707  0.0162  0.5135 -0.2619
 6990TIP3    H142529   3.553   4.104   7.644  1.4015  0.2504 -1.7099
 6990TIP3    H242530   3.576   4.183   7.771 -1.2396  1.6263 -2.0309
 6991TIP3   OH242531   2.064   5.456   1.715  0.3611 -0.1192 -0.1851
 6991TIP3    H142532   2.105   5.471   1.630  1.5815 -1.2840  0.1464
 6991TIP3    H242533   2.057   5.543   1.754  3.9410  0.1106  0.3008
 6992TIP3   OH242534   4.444   3.235   0.796  0.3318 -0.7962  0.1228
 6992TIP3    H142535   4.415   3.253   0.885  0.6764 -0.7457  0.2277
 6992TIP3    H242536   4.457   3.140   0.793 -0.9393 -0.9832 -0.2640
 6993TIP3   OH242537   3.895   4.050   1.215 -0.1482  0.1460 -0.4052
 6993TIP3    H142538   3.917   4.007   1.132 -0.8930  0.1802 -0.6279
 6993TIP3    H242539   3.800   4.039   1.223  0.0588 -1.0258  1.0831
 6994TIP3   OH242540   1.063   2.943   6.837  0.2748  0.2120  0.0794
 6994TIP3    H142541   0.996   2.905   6.894  0.8636 -1.3179 -0.1998
 6994TIP3    H242542   1.068   2.883   6.763  3.1548 -0.7370  0.8981
 6995TIP3   OH242543   1.837   1.732   7.628 -0.1392  0.2296 -0.1681
 6995TIP3    H142544   1.926   1.754   7.599  0.0189 -3.1309 -2.9713
 6995TIP3    H242545   1.850   1.684   7.710  0.4601  1.1059  0.2624
 6996TIP3   OH242546   0.507   2.973   0.683  0.0880 -0.3308  0.2621
 6996TIP3    H142547   0.493   2.989   0.590 -0.1081  1.5960  0.5788
 6996TIP3    H242548   0.457   3.042   0.727  1.1198 -0.4735  1.7536
 6997TIP3   OH242549   6.024   3.482   0.912  0.0658  0.1602 -0.4063
 6997TIP3    H142550   6.071   3.442   0.839  2.0964  0.8311  0.4441
 6997TIP3    H242551   6.050   3.430   0.988  0.5977  1.4060  0.3028
 6998TIP3   OH242552   6.722   1.338   6.199  0.5122 -0.4068 -0.8081
 6998TIP3    H142553   6.670   1.301   6.128 -0.4615  0.1416 -0.4030
 6998TIP3    H242554   6.808   1.298   6.189  0.5453  0.0444 -2.5953
 6999TIP3   OH242555   0.330   2.755   0.580 -0.2639 -0.7919 -0.4722
 6999TIP3    H142556   0.401   2.709   0.625  0.4756 -0.8030 -1.5990
 6999TIP3    H242557   0.318   2.836   0.629  0.4128 -0.8751 -0.1584
 7000TIP3   OH242558   6.748   6.686   7.748  0.0412  0.1958  0.3970
 7000TIP3    H142559   6.757   6.637   7.667 -2.4074  0.4170 -0.0946
 7000TIP3    H242560   6.670   6.650   7.790  0.3167  1.1866  1.8650
 7001TIP3   OH242561   1.217   5.340   6.144  0.5758  0.1828  0.6222
 7001TIP3    H142562   1.169   5.306   6.069  0.8889 -0.6025  0.7753
 7001TIP3    H242563   1.260   5.264   6.182  0.5096  0.5906  1.5385
 7002TIP3   OH242564   2.352   3.349   6.859  0.2667  0.4340  0.1307
 7002TIP3    H142565   2.382   3.440   6.858 -2.2171  1.3191 -1.8100
 7002TIP3    H242566   2.343   3.325   6.767 -1.4412 -0.9393  0.5978
 7003TIP3   OH242567   2.378   3.422   0.059  0.6775  0.3888 -0.0650
 7003TIP3    H142568   2.399   3.330   0.073 -0.7522  0.0622  0.0400
 7003TIP3    H242569   2.463   3.465   0.053  1.3788 -0.6497  1.7040
 7004TIP3   OH242570   4.998   0.148   1.272  0.3522  0.1446  0.5074
 7004TIP3    H142571   5.004   0.243   1.286  0.7236  0.0200  1.2575
 7004TIP3    H242572   4.928   0.138   1.208  0.5703  0.9506  0.1232
 7005TIP3   OH242573   6.661   2.518   0.349 -0.0079  0.1816 -0.0383
 7005TIP3    H142574   6.727   2.587   0.346 -0.3143  0.4579 -0.5358
 7005TIP3    H242575   6.636   2.513   0.441 -0.1545  0.8948 -0.0341
 7006TIP3   OH242576   3.465   1.868   7.491 -0.6457 -0.2845  0.0606
 7006TIP3    H142577   3.429   1.907   7.411  0.7362  1.5286  0.2706
 7006TIP3    H242578   3.422   1.915   7.562  0.1020 -0.0199  0.3425
 7007TIP3   OH242579   1.788   0.940   6.604  0.0185 -1.0143 -0.1863
 7007TIP3    H142580   1.790   1.026   6.562  0.3674 -1.1078 -0.3693
 7007TIP3    H242581   1.726   0.950   6.676 -0.6170 -0.8661 -0.7441
 7008TIP3   OH242582   1.847   1.266   1.630  0.0318  0.7802  0.6949
 7008TIP3    H142583   1.932   1.301   1.658  0.8451  0.5143 -1.2267
 7008TIP3    H242584   1.814   1.218   1.706  1.2719  1.4917  1.7145
 7009TIP3   OH242585   3.992   3.086   0.845 -0.2824  0.1458 -0.3893
 7009TIP3    H142586   3.966   3.150   0.779  0.4223 -0.6963 -1.5259
 7009TIP3    H242587   3.914   3.033   0.860 -1.1006  1.7019  1.1329
 7010TIP3   OH242588   4.343   2.729   8.332  0.4341  0.6513  0.6424
 7010TIP3    H142589   4.334   2.739   8.237  0.0739 -1.3967  0.4324
 7010TIP3    H242590   4.254   2.716   8.363  0.7872 -1.8310  0.8154
 7011TIP3   OH242591   0.004   5.238   0.238  0.3337 -0.2189 -0.3097
 7011TIP3    H142592  -0.044   5.310   0.280 -0.3976 -0.3760 -0.8613
 7011TIP3    H242593  -0.062   5.192   0.187  0.5059 -2.0813  1.0258
 7012TIP3   OH242594   6.732   5.380   7.419  0.3481 -0.0518  0.0352
 7012TIP3    H142595   6.790   5.456   7.418  1.0230 -0.5639  0.0761
 7012TIP3    H242596   6.664   5.402   7.355  0.7447  0.4258 -0.2344
 7013TIP3   OH242597   6.255   6.611   7.919  0.2957 -0.2041 -0.0892
 7013TIP3    H142598   6.219   6.644   8.001 -0.4935  0.1239 -0.5601
 7013TIP3    H242599   6.197   6.539   7.894  0.5606 -0.3345 -0.3315
 7014TIP3   OH242600   3.259   3.521   7.922 -0.2453 -0.1328 -0.0810
 7014TIP3    H142601   3.212   3.517   8.005  0.1249 -1.3307  0.0821
 7014TIP3    H242602   3.317   3.597   7.930  2.2839 -2.1364  2.1236
 7015TIP3   OH242603   3.942   0.687   7.309 -0.5633  0.4423  0.1910
 7015TIP3    H142604   4.001   0.657   7.378 -0.1374  1.0836  0.1061
 7015TIP3    H242605   3.946   0.782   7.313 -1.6061  0.4976  0.1945
 7016TIP3   OH242606   3.000   0.421   7.797  0.6537  0.2348 -0.1674
 7016TIP3    H142607   2.953   0.468   7.867  1.7897  0.8825  0.1952
 7016TIP3    H242608   3.030   0.490   7.738  1.1534 -0.1556 -0.3801
 7017TIP3   OH242609   4.203   2.310   0.508 -0.4839 -0.1197  0.0962
 7017TIP3    H142610   4.161   2.240   0.458 -1.0801 -0.5228  1.1243
 7017TIP3    H242611   4.174   2.391   0.465  0.0420 -0.4762 -0.9718
 7018TIP3   OH242612   5.022   1.174   0.138 -0.1293 -0.4501  0.0423
 7018TIP3    H142613   5.016   1.144   0.228  0.9734 -1.1719 -0.1110
 7018TIP3    H242614   5.091   1.241   0.139 -2.0516  1.6588  0.2388
 7019TIP3   OH242615   1.947   4.941   7.292 -0.1193 -0.0007  0.7216
 7019TIP3    H142616   2.016   4.949   7.226  0.5602  1.0929  1.5120
 7019TIP3    H242617   1.972   5.005   7.359 -1.0640 -0.7201  1.7865
 7020TIP3   OH242618   2.455   1.933   7.534 -0.0525 -0.0035 -0.1730
 7020TIP3    H142619   2.372   1.929   7.486  0.0815  1.0551 -0.5315
 7020TIP3    H242620   2.508   1.997   7.485  0.2587  0.7577  1.1046
 7021TIP3   OH242621   1.560   5.831   7.185  0.0847 -0.0561 -0.0736
 7021TIP3    H142622   1.645   5.875   7.180 -0.2233  0.3935 -2.4432
 7021TIP3    H242623   1.572   5.751   7.133 -0.4528 -0.9346  1.0971
 7022TIP3   OH242624   5.955   6.247   8.505 -0.2439  0.1759 -0.0106
 7022TIP3    H142625   5.989   6.158   8.504  1.0308  0.6388  0.3393
 7022TIP3    H242626   5.952   6.274   8.413 -1.4553 -0.5113 -0.1889
 7023TIP3   OH242627   2.572   2.939   2.000  0.5733 -0.0686  0.2820
 7023TIP3    H142628   2.653   2.892   1.982  0.8727  0.4609  0.2359
 7023TIP3    H242629   2.553   2.920   2.092  0.8082 -0.1090  0.3230
 7024TIP3   OH242630   5.696   6.659   0.371  0.2539  0.1946 -0.6656
 7024TIP3    H142631   5.733   6.733   0.323 -0.9012  0.8508 -0.5985
 7024TIP3    H242632   5.769   6.622   0.419  1.3343 -0.1437 -2.4987
 7025TIP3   OH242633   4.681   1.847   1.412 -0.1127 -0.2195  0.3055
 7025TIP3    H142634   4.646   1.817   1.329 -1.6258 -1.6406  1.3857
 7025TIP3    H242635   4.751   1.784   1.433  1.1555  0.8823 -0.4429
 7026TIP3   OH242636   1.198   3.276   6.198 -0.3434 -0.0434 -0.3629
 7026TIP3    H142637   1.129   3.322   6.246 -0.1033  1.4621 -1.4010
 7026TIP3    H242638   1.190   3.184   6.226 -1.9683  0.3149  0.4417
 7027TIP3   OH242639   1.177   4.214   2.371  0.2529 -0.0885 -0.3436
 7027TIP3    H142640   1.269   4.241   2.375  0.3295  0.4536 -3.3303
 7027TIP3    H242641   1.164   4.162   2.451  2.8709  0.5844  0.6333
 7028TIP3   OH242642   4.094   1.071   8.062 -0.3241  0.3809  0.7162
 7028TIP3    H142643   4.041   0.998   8.094  1.9251 -0.5249  2.6573
 7028TIP3    H242644   4.124   1.042   7.976  1.7677 -1.8167  2.0388
 7029TIP3   OH242645   0.749   3.463   0.725  0.1241 -0.0098 -0.0934
 7029TIP3    H142646   0.821   3.524   0.741 -0.0123  0.3441 -0.7761
 7029TIP3    H242647   0.752   3.403   0.799  1.5714 -0.4378 -0.4514
 7030TIP3   OH242648   6.525   1.131   1.788 -0.8941  0.2121 -0.1316
 7030TIP3    H142649   6.544   1.156   1.879  0.2467 -0.9783 -0.0191
 7030TIP3    H242650   6.587   1.060   1.769 -0.9136  0.6362 -1.9429
 7031TIP3   OH242651   2.763   2.662   7.730  0.5442 -0.6946  0.0125
 7031TIP3    H142652   2.854   2.655   7.757  0.7276  1.6418  0.1910
 7031TIP3    H242653   2.722   2.717   7.797 -0.6890 -0.6179 -0.7645
 7032TIP3   OH242654   1.841   1.648   8.221  0.2755 -0.0035 -0.0545
 7032TIP3    H142655   1.937   1.642   8.225  0.2132 -0.5573  0.9003
 7032TIP3    H242656   1.814   1.664   8.311 -0.5423  0.1226 -0.3138
 7033TIP3   OH242657   4.845   4.809   7.314 -0.2519  0.3357 -0.0832
 7033TIP3    H142658   4.759   4.778   7.287 -0.6782  1.5489 -0.1902
 7033TIP3    H242659   4.887   4.734   7.355 -2.1880  0.2934  1.9490
 7034TIP3   OH242660   1.696   3.743   0.763  0.3186  0.3007 -0.6148
 7034TIP3    H142661   1.662   3.828   0.789 -1.9061 -1.0518  1.3397
 7034TIP3    H242662   1.779   3.734   0.812 -0.2319  0.7364  0.4381
 7035TIP3   OH242663   0.127   0.777   2.089  0.2947 -0.0856 -0.2761
 7035TIP3    H142664   0.043   0.798   2.049 -0.3694 -0.6145  0.7764
 7035TIP3    H242665   0.160   0.860   2.121 -1.1675 -0.1982  1.7328
 7036TIP3   OH242666   5.899   3.959   1.463 -0.4484  0.2671 -0.7749
 7036TIP3    H142667   5.881   3.998   1.378 -0.3382  0.8169 -0.5520
 7036TIP3    H242668   5.984   3.994   1.488 -1.4181  1.8659  0.5244
 7037TIP3   OH242669   4.113   6.822   8.345 -0.1435 -0.1366  0.1201
 7037TIP3    H142670   4.185   6.765   8.371 -0.2313 -0.1361  0.3728
 7037TIP3    H242671   4.155   6.903   8.317 -0.0076 -0.3995 -0.4409
 7038TIP3   OH242672   3.024   4.290   8.488  0.1279  0.1850 -0.1844
 7038TIP3    H142673   3.071   4.374   8.490  0.4872 -0.0042 -0.6189
 7038TIP3    H242674   3.016   4.266   8.580  2.6907 -0.7641 -0.1222
 7039TIP3   OH242675   4.371   4.069   0.685 -0.1151 -0.3954 -0.0950
 7039TIP3    H142676   4.285   4.109   0.672 -0.3810 -0.9727 -0.1523
 7039TIP3    H242677   4.382   4.066   0.780 -0.5714 -1.1606 -0.0551
 7040TIP3   OH242678   1.105   3.339   7.919 -0.0252  0.0317  0.0130
 7040TIP3    H142679   1.080   3.296   8.001 -0.8981 -2.4622 -1.4449
 7040TIP3    H242680   1.068   3.427   7.927 -0.0250 -0.1048  2.3043
 7041TIP3   OH242681   0.681   2.154   7.773  0.3494  0.2751 -0.4862
 7041TIP3    H142682   0.760   2.144   7.826  0.0269 -1.3012 -0.2583
 7041TIP3    H242683   0.635   2.071   7.782 -1.0515  0.9525 -1.0973
 7042TIP3   OH242684   5.519   5.905   7.383 -0.1942 -0.3976 -0.3349
 7042TIP3    H142685   5.588   5.971   7.381 -1.0422  0.8558  3.4959
 7042TIP3    H242686   5.452   5.938   7.323 -0.4933  2.2291  1.2898
 7043TIP3   OH242687   6.762   1.730   7.249  0.0193  0.0599 -0.5273
 7043TIP3    H142688   6.698   1.659   7.258 -0.8935  0.9790  0.5222
 7043TIP3    H242689   6.834   1.705   7.307 -0.4140  0.1041  0.0372
 7044TIP3   OH242690   6.255   1.352   0.097 -0.0973 -0.7370 -0.3473
 7044TIP3    H142691   6.195   1.285   0.131 -1.2578  0.1983 -0.4519
 7044TIP3    H242692   6.232   1.360   0.005 -1.4496  1.2019  0.0819
 7045TIP3   OH242693   4.954   6.696   6.292  0.8942  0.2325 -0.0344
 7045TIP3    H142694   4.909   6.721   6.212  1.0934  2.4749  0.4840
 7045TIP3    H242695   4.964   6.601   6.286 -2.0538 -0.0980 -1.0955
 7046TIP3   OH242696   6.160   1.510   0.533  0.7131 -0.2791  0.2807
 7046TIP3    H142697   6.160   1.416   0.515  1.2532 -0.1528 -0.4032
 7046TIP3    H242698   6.229   1.546   0.477 -0.3280  0.7029 -0.4147
 7047TIP3   OH242699   0.711   2.844   0.042  0.2833 -0.2390  0.0438
 7047TIP3    H142700   0.772   2.775   0.018  1.0357  0.9528 -1.6611
 7047TIP3    H242701   0.766   2.917   0.070 -0.4021  0.4094 -0.2483
 7048TIP3   OH242702   2.098   2.794   0.094 -0.1225 -0.7414 -1.1680
 7048TIP3    H142703   2.046   2.849   0.154  2.0076 -1.2181  1.3017
 7048TIP3    H242704   2.151   2.856   0.045 -0.7264 -0.4118 -1.4163
 7049TIP3   OH242705   3.301   1.894   6.945 -0.1769 -0.2592 -0.4650
 7049TIP3    H142706   3.226   1.853   6.901  0.7096 -0.9835 -1.3605
 7049TIP3    H242707   3.362   1.821   6.960  1.0102  0.5428 -1.1765
 7050TIP3   OH242708   6.154   0.449   0.965  0.3994 -0.0612  0.0602
 7050TIP3    H142709   6.189   0.451   1.054  2.2664 -1.4799 -0.5775
 7050TIP3    H242710   6.079   0.389   0.970  1.6585 -1.6931  0.3696
 7051TIP3   OH242711   3.737   0.840   7.496  0.3089  0.0530  0.1556
 7051TIP3    H142712   3.818   0.859   7.449 -0.5069  2.5492 -0.4331
 7051TIP3    H242713   3.695   0.771   7.445  0.3547  1.3626 -1.7546
 7052TIP3   OH242714   4.555   4.528   7.517  0.6196  0.4314  0.2077
 7052TIP3    H142715   4.637   4.531   7.566 -0.5118  1.7694  2.1673
 7052TIP3    H242716   4.523   4.439   7.528  0.6025  0.5858  1.6007
 7053TIP3   OH242717   0.209   1.070   2.466 -0.0102 -0.7276 -0.3563
 7053TIP3    H142718   0.218   1.055   2.372 -0.6213 -2.0166 -0.2332
 7053TIP3    H242719   0.248   1.156   2.480 -1.7439  0.4252 -2.0941
 7054TIP3   OH242720   4.895   2.746   1.098  0.3270 -0.6487  0.4535
 7054TIP3    H142721   4.829   2.702   1.045 -0.8733  0.9237  0.5967
 7054TIP3    H242722   4.959   2.778   1.035  0.3263 -1.1097  0.2108
 7055TIP3   OH242723   4.348   4.864   7.337 -0.3319  0.2445  0.1751
 7055TIP3    H142724   4.257   4.834   7.327 -0.5325  0.5101  1.1201
 7055TIP3    H242725   4.365   4.857   7.431  0.9299 -0.6420 -0.0909
 7056TIP3   OH242726   1.383   6.796   0.820 -0.1165 -0.2540  0.6055
 7056TIP3    H142727   1.296   6.835   0.811 -0.0550 -0.2615 -0.1151
 7056TIP3    H242728   1.385   6.761   0.909 -0.4892  0.6193  0.9679
 7057TIP3   OH242729   1.116   3.427   0.028  0.1975 -0.1430  0.7619
 7057TIP3    H142730   1.065   3.458   0.104  0.4485  0.5595  0.6577
 7057TIP3    H242731   1.143   3.508  -0.016  0.9783 -0.5176  0.5386
 7058TIP3   OH242732   5.985   1.873   1.200 -0.2862  0.3389  0.1070
 7058TIP3    H142733   5.948   1.827   1.276 -0.0044  0.6127  0.4114
 7058TIP3    H242734   6.020   1.954   1.236 -0.1181  0.4547 -0.3143
 7059TIP3   OH242735   2.176   5.835   0.448 -0.2524  0.0416 -0.1949
 7059TIP3    H142736   2.162   5.789   0.365  1.0204  0.6370 -0.7780
 7059TIP3    H242737   2.223   5.915   0.423 -0.5353  0.6211  1.0258
 7060TIP3   OH242738   5.436   3.791   8.114  0.0478  0.4120  0.5633
 7060TIP3    H142739   5.383   3.712   8.125 -2.5410  2.1233  1.1917
 7060TIP3    H242740   5.446   3.800   8.019 -0.1216 -0.3402  0.4622
 7061TIP3   OH242741   6.447   2.279   0.439  0.6229  0.0561  0.1859
 7061TIP3    H142742   6.401   2.201   0.471  0.0800  0.0684 -0.5369
 7061TIP3    H242743   6.386   2.350   0.456  0.1464  0.0106 -1.2160
 7062TIP3   OH242744   3.019   5.000   7.365  0.4222 -0.1768  0.3523
 7062TIP3    H142745   3.013   5.082   7.316 -1.2747  0.2191  1.1356
 7062TIP3    H242746   3.059   4.938   7.304 -0.3709  0.6458 -1.0507
 7063TIP3   OH242747   0.573   4.598   1.594 -0.0713  0.2790  0.2724
 7063TIP3    H142748   0.578   4.692   1.575 -2.0555  0.4866  0.4989
 7063TIP3    H242749   0.621   4.587   1.676  0.0295  1.1304  0.3360
 7064TIP3   OH242750   4.404   5.454   0.030  0.2133 -0.1929  0.1255
 7064TIP3    H142751   4.361   5.371   0.009  0.0794  0.2033 -1.2658
 7064TIP3    H242752   4.333   5.509   0.064  0.2368 -0.5213  0.7250
 7065TIP3   OH242753   0.566   0.238   1.661 -0.1511 -0.2652 -0.2276
 7065TIP3    H142754   0.621   0.181   1.715  0.6418  0.0819 -0.6438
 7065TIP3    H242755   0.627   0.304   1.626 -0.9143  0.3850 -0.3588
 7066TIP3   OH242756   1.625   0.285   0.567  0.5754  0.6057  0.1370
 7066TIP3    H142757   1.719   0.279   0.548  0.6312 -0.6597  0.6517
 7066TIP3    H242758   1.602   0.197   0.597 -0.7931  0.8863 -0.0269
 7067TIP3   OH242759   1.369   4.062   7.681 -0.2398 -0.3275  0.2282
 7067TIP3    H142760   1.458   4.097   7.687  0.2018 -0.7598 -2.4715
 7067TIP3    H242761   1.313   4.133   7.713  0.8792  1.3911 -1.3816
 7068TIP3   OH242762   5.166   4.399   7.549 -0.2102  0.4300  0.0621
 7068TIP3    H142763   5.158   4.427   7.640 -0.6778 -0.3328  0.2678
 7068TIP3    H242764   5.084   4.352   7.531  0.2507 -0.1821 -0.4818
 7069TIP3   OH242765   1.988   3.262   8.614  0.3214  0.0404 -0.1823
 7069TIP3    H142766   1.927   3.329   8.643  0.4808  0.0228  0.2086
 7069TIP3    H242767   2.074   3.305   8.616  0.5916 -0.4874  1.2238
 7070TIP3   OH242768   6.320   1.100   0.324 -1.0785 -0.1961  0.3199
 7070TIP3    H142769   6.266   1.139   0.393 -1.9100  0.7638 -0.8233
 7070TIP3    H242770   6.263   1.100   0.247  0.9955  2.3919 -1.4006
 7071TIP3   OH242771   4.678   0.194   8.314  0.2239 -0.3829  0.0733
 7071TIP3    H142772   4.587   0.224   8.325  0.3655 -0.0151  0.2824
 7071TIP3    H242773   4.698   0.147   8.394  0.7743  1.0292  0.8093
 7072TIP3   OH242774   6.538   2.491   7.581 -0.1332 -0.0727  0.8190
 7072TIP3    H142775   6.453   2.478   7.624 -1.9897  1.0822 -2.1523
 7072TIP3    H242776   6.541   2.423   7.514  0.7229  0.6415  0.1165
 7073LIG     C142777   1.300   0.364   0.465 -0.3617 -0.4307 -0.5480
 7073LIG     C242778   1.171   0.286   0.484  0.2730  0.2210 -0.1128
 7073LIG     C342779   1.195   0.139   0.440  0.1933 -0.1418 -0.4021
 7073LIG      O42780   1.071   0.340   0.396  0.5236 -0.2246  0.3828
 7073LIG     H142781   1.375   0.336   0.542 -2.3996 -0.5312  1.5126
 7073LIG     H242782   1.296   0.473   0.488  0.3058 -0.5652  0.2654
 7073LIG     H342783   1.336   0.347   0.361 -0.6068 -0.2478 -0.6630
 7073LIG     H442784   1.139   0.298   0.589 -0.6094 -2.7484  0.0391
 7073LIG     H542785   1.286   0.109   0.496  0.7575  1.1695 -0.5721
 7073LIG     H642786   1.224   0.134   0.333  1.3866 -1.0816 -0.0549
 7073LIG     H742787   1.111   0.073   0.470  1.0297 -0.8193  0.5046
 7073LIG     H842788   1.034   0.416   0.441 -0.7367 -0.3879 -0.3295
   6.87627   6.87627   8.68818
